default_name
289826
  59.7519785  66.6327754  76.5574122  60.2474615  67.4004384  76.9878667
  59.3820268  66.0369427  77.2841993  59.1379361  67.0013648  75.8452372
  60.7211234  65.8122602  75.8430880  60.7123638  64.7978958  76.2419457
  60.3774447  65.7548674  74.3545904  59.3741412  65.3426441  74.2471034
  60.3999623  66.7656345  73.9472297  61.3426675  64.8926303  73.5648879
  62.0426826  65.3775089  72.6765486  61.3796990  63.6037903  73.8829980
  62.0045768  62.9826601  73.3892118  60.7828148  63.2506593  74.6172517
  62.1336122  66.3543607  76.0385240  62.5856739  67.2235791  75.2944450
  62.8246168  65.8324222  77.0479129  62.4082999  65.1396242  77.6535617
  64.1819124  66.2723736  77.3337107  64.2063212  67.3549749  77.4581210
  64.6790871  65.6211845  78.6238937  63.8407922  65.7366790  79.3109323
  64.8428048  64.5618533  78.4261215  65.9366208  66.2223821  79.2497463
  66.7066144  66.3107050  78.4833196  65.6391185  67.5936401  79.8278076
  64.8694905  67.5060549  80.5946846  66.5459380  68.0069012  80.2693893
  65.2879395  68.2542781  79.0351342  66.4913347  65.2984828  80.3178406
  66.7431124  64.3363615  79.8717126  67.3867933  65.7419575  80.7532546
  65.7431678  65.1524617  81.0969574  65.1093410  65.9240348  76.1755924
  65.0595578  64.8188752  75.6304310  65.9612577  66.8750477  75.8002811
  65.9881447  67.7663911  76.2744998  66.8510226  66.6687507  74.6712754
  66.2878990  66.2738817  73.8256576  67.5001123  67.9836035  74.2531058
  67.9852970  67.8419204  73.2873828  66.7233589  68.7427275  74.1609923
  68.4592954  68.4036105  75.2055742  68.8525630  69.2314923  74.9200010
  67.9296247  65.6489871  75.0242961  68.2304597  65.4284803  76.1996208
  68.5273061  65.0072763  74.0168885  68.2553978  64.9987614  72.6152757
  68.7606218  65.8505054  72.1598847  67.1793272  65.0956748  72.4711270
  68.7869223  63.6735855  72.1165808  69.0404603  63.7312075  71.0580454
  68.0560004  62.8800329  72.2719155  70.0341398  63.4456822  72.9795987
  70.9261667  63.9688449  72.6350876  70.2554372  62.3839180  73.0881524
  69.5806694  64.0198151  74.3121376  69.1181938  63.2069158  74.8719674
  70.7402208  64.5885857  75.1115441  71.2300903  63.9372442  76.0458161
  71.1865438  65.8020449  74.7793222  70.7955154  66.3133891  74.0010399
  72.3038339  66.3944225  75.5038507  73.1440678  65.7003760  75.5239927
  72.7519755  67.6834288  74.8186085  72.9637008  67.3836878  73.7922425
  71.9248421  68.3932851  74.8259837  73.9928477  68.3409370  75.4234730
  73.8111944  68.5337283  76.4807972  75.2024981  67.4359809  75.2750374
  75.3850691  67.2431021  74.2178882  76.0755973  67.9211530  75.7113935
  75.0166699  66.4929455  75.7890922  74.2510318  69.6886089  74.7794679
  73.3923092  70.3399939  74.9419259  75.1381169  70.1401556  75.2236377
  74.4085920  69.5561621  73.7090794  71.9339576  66.6627026  76.9561442
  72.7369196  66.4147174  77.8622415  70.7273190  67.1782451  77.1993320
  70.1182766  67.4793595  76.4520056  70.2871758  67.3822287  78.5745897
  71.0059233  68.0054090  79.1067058  68.9274963  68.0789779  78.5950207
  68.2732060  67.5317199  77.9164102  68.5406469  68.0039218  79.6112953
  68.9794584  69.5375931  78.1804454  69.3550452  70.1134665  79.0262618
  69.6747040  69.6238879  77.3454089  67.6252216  70.0738305  77.7667136
  67.0402208  69.5341489  76.8043151  67.1443632  71.0347201  78.4030873
  70.2257556  66.0639790  79.3377766  70.6241693  65.9992956  80.5037490
  69.7157226  65.0050234  78.7046247  69.3343218  65.0805977  77.7724652
  69.6476356  63.7102143  79.3780001  69.0906330  63.8024437  80.3103847
  68.9389050  62.6944457  78.4845807  67.9212404  63.0390768  78.3010394
  69.4750582  62.6260393  77.5380289  68.9014549  61.4190651  79.0987117
  68.4523776  60.7984004  78.5201750  71.0372025  63.2116952  79.7486261
  71.2603109  62.7211292  80.8673860  71.9971628  63.3628031  78.8341789
  71.8071104  63.7340975  77.9143311  73.3537177  62.9250532  79.1356216
  73.3457617  61.8920834  79.4834855  74.2170929  63.0101554  77.8796666
  73.7755366  62.2814642  77.1998603  74.1027577  64.0108628  77.4629986
  75.7004095  62.7017919  78.0617458  76.1552967  63.4916136  78.6595418
  75.8855367  61.3698079  78.7603126  75.4312804  60.5793749  78.1628466
  76.9496881  61.1671711  78.8812295  75.4089881  61.4034449  79.7400424
  76.3944736  62.6978190  76.7157443  76.2855625  63.6759892  76.2473206
  77.4530386  62.4770506  76.8528675  75.9450816  61.9375539  76.0768837
  73.9506043  63.7561634  80.2618525  74.5981433  63.2139880  81.1665934
  73.7487999  65.0749247  80.2275357  73.2625377  65.5223535  79.4636929
  74.2872495  65.9140834  81.2893901  75.3627474  65.7571086  81.3716248
  74.0316597  67.3861326  80.9769097  72.9584708  67.5608697  80.9005391
  74.4440619  68.0042965  81.7743419  74.5096696  67.6459145  80.0323891
  73.6710952  65.5353299  82.6275447  74.3511133  65.5394043  83.6588607
  72.3741987  65.2288696  82.6291317  71.8265966  65.2999938  81.7834529
  71.6967943  64.8439047  83.8604039  71.8166918  65.6232597  84.6129526
  70.2051034  64.6472520  83.5945485  69.7583841  65.5624876  83.2061096
  70.0563081  63.8387581  82.8787988  69.4350767  64.2823100  84.8155641
  69.1610390  63.0269965  85.2627861  69.5403396  62.1978595  84.6654901
  68.4318267  63.0874513  86.4240706  68.0989435  62.2933087  86.9519209
  68.2242939  64.4010518  86.7484745  67.5447927  64.9623375  87.8221795
  67.0866413  64.2973888  88.5543265  67.4943214  66.3253073  87.8915396
  66.9715539  66.8012851  88.7211534  68.0993267  67.1296904  86.9203689
  68.0506345  68.2166902  86.9848654  68.7743605  66.5740382  85.8540330
  69.2276711  67.2437375  85.1232026  68.8434111  65.1822535  85.7562211
  72.3131819  63.5812265  84.4440571  72.5866521  63.5059678  85.6493015
  72.5347804  62.5703614  83.5999702  72.2441135  62.5966071  82.6330559
  73.1654795  61.3532769  84.0999072  72.5922033  60.9609743  84.9398788
  73.2233821  60.2866199  83.0077620  73.7083514  60.7398787  82.1432040
  73.8430818  59.4739405  83.3867404  71.8708181  59.7413526  82.5992157
  71.4301122  59.2090128  83.4421235  71.2278983  60.5765534  82.3213742
  71.9656986  58.7928048  81.4246759  73.0456549  58.3010850  81.0951626
  70.8332804  58.5239700  80.7887207  70.8388616  57.8967370  79.9971090
  69.9705625  58.9477179  81.0989735  74.5627048  61.6444816  84.6281139
  74.9587462  61.1220420  85.6776838  75.3203782  62.4835515  83.9189285
  75.0004595  62.8606030  83.0382563  76.6734392  62.8105838  84.3616255
  77.2707346  61.9077975  84.4893530  77.3705187  63.7199786  83.3360040
  76.7433229  64.5918842  83.1502480  78.7171216  64.1699504  83.8584329
  79.3450822  63.2985542  84.0439998  79.1973374  64.8127342  83.1206509
  78.5805396  64.7232242  84.7875911  77.5511268  62.9887398  82.0219311
  76.5765421  62.6949969  81.6320571  78.0458033  63.6446338  81.3055527
  78.1611925  62.0996036  82.1811714  76.6371909  63.4496375  85.7435818
  77.3799616  63.0569662  86.6506562  75.7611418  64.4391906  85.9267230
  75.1765784  64.7646070  85.1700929  75.6701407  65.1208658  87.2135924
  76.6445344  65.5233203  87.4905156  74.6701603  66.2749298  87.1315163
  75.0602307  66.9900561  86.4072658  73.7301314  65.8629490  86.7644775
  74.4303310  66.9804522  88.4646292  73.9765320  66.2617839  89.1470391
  75.3980822  67.2925016  88.8572931  73.5200309  68.1979163  88.3294225
  73.4630409  68.6841588  89.3032908  73.9748887  68.8788178  87.6099942
  72.1180679  67.8301797  87.8633641  71.5538806  68.7521552  87.7228139
  72.2027909  67.3078204  86.9104412  71.4118743  66.9614280  88.8438406
  71.3328824  67.4454411  89.7267853  70.4892188  66.7424183  88.4962178
  71.9342788  66.1068652  88.9738987  75.2762655  64.1497809  88.3186085
  75.9024852  64.1157763  89.3860454  74.2259073  63.3574852  88.0867074
  73.7207073  63.3850482  87.2125721  73.7441197  62.4656646  89.1363196
  73.5047429  63.0413643  90.0303933  72.4868890  61.7344116  88.6762967
  72.6615175  61.2389851  87.7212277  72.1821643  60.9958550  89.4177662
  71.0682688  62.8060980  88.4290525  70.2304645  61.8434940  88.0543849
  74.8203559  61.4708399  89.5394048  75.0863756  61.2812676  90.7313112
  75.4598860  60.8247500  88.5630216  75.2245109  60.9469627  87.5884643
  76.4915953  59.8549496  88.9083128  76.0898425  59.1221932  89.6081427
  76.9768064  59.1223831  87.6600906  76.1571009  58.4604850  87.3806750
  77.1348933  59.8572865  86.8707709  78.2522170  58.3002690  87.8537657
  79.0731002  58.9774867  88.0896214  78.0856028  57.2970511  88.9791765
  77.2651421  56.6191531  88.7438099  79.0062806  56.7254519  89.0963401
  77.8654840  57.8246042  89.9072583  78.6083900  57.5859172  86.5752716
  78.7716084  58.3169037  85.7833639  79.5177834  57.0039149  86.7248651
  77.7937237  56.9195886  86.2916800  77.6529921  60.5349286  89.6190722
  78.1859791  60.0061820  90.6015145  78.0608122  61.7115527  89.1414485
  77.6044528  62.1277395  88.3423089  79.1987743  62.4051172  89.7243477
  80.0588582  61.7385048  89.7874574  79.5673726  63.5939077  88.8439986
  78.6114818  63.9885884  88.4996161  80.0773151  64.3489827  89.4422632
  80.4316935  63.2309060  87.6387484  80.0449592  62.3215627  87.1787135
  80.4045793  64.3576504  86.6287693  80.7916282  65.2672814  87.0879682
  81.0230782  64.0926026  85.7712674  79.3794741  64.5257466  86.2986127
  81.8571459  62.9134275  88.0626244  81.8520417  62.0706764  88.7538870
  82.4497624  62.6584521  87.1840491  82.2928489  63.7832619  88.5542034
  78.9198320  62.8787844  91.1419257  79.8644885  63.0820182  91.9117842
  77.6473176  63.0566041  91.5018554  76.8891689  62.8874278  90.8563407
  77.3236127  63.5619193  92.8321425  77.7387813  64.5612375  92.9628993
  75.8079812  63.6357746  93.0101780  75.4142765  64.2580719  92.2065351
  75.4172020  62.6232116  92.9096410  75.3833829  64.2111381  94.3497803
  75.6697587  63.5078514  95.1317505  75.9084010  65.1544519  94.5001706
  73.8864962  64.4508475  94.4091311  73.6718647  65.0907085  95.2650576
  73.5799555  64.9555434  93.4929355  73.1218163  63.1468173  94.5482527
  73.1279297  62.6439053  93.5812249  73.6364413  62.5272365  95.2826776
  71.7175609  63.3668649  94.9830297  71.2403977  63.9406048  94.3024140
  71.2464815  62.4770223  95.0628053  71.7116745  63.8324811  95.8792808
  77.9386129  62.7007498  93.9287244  78.3569650  63.2193508  94.9690514
  78.0065592  61.3884890  93.7199182  77.7239496  61.0042502  92.8296421
  78.4243413  60.4670043  94.7688335  78.2426764  60.9109621  95.7476075
  77.6337836  59.1593279  94.6703355  77.7588359  58.7701896  93.6598739
  78.0730438  58.4626766  95.3843575  76.1662748  59.3229240  94.9668945
  75.6976921  59.3101124  96.2714906  76.4118487  59.1775804  97.0842114
  74.3570119  59.4609479  96.5503385  74.0005315  59.4394726  97.5801746
  73.4651274  59.6319892  95.5172553  72.1260745  59.7892494  95.7894642
  71.9286422  59.7633582  96.7285860  73.9055158  59.6542513  94.2139896
  73.1987347  59.7946129  93.3961512  75.2487013  59.4978448  93.9451261
  75.6033301  59.5107451  92.9145088  79.9139360  60.1565290  94.7404344
  80.3832284  59.3827697  95.5798146  80.6679289  60.7297335  93.8086102
  80.2512791  61.3177637  93.1009925  82.1047847  60.5002879  93.7571292
  82.3216328  59.4568361  93.9857872  82.6433388  60.8163811  92.3658250
  82.5029316  61.8791702  92.1686847  83.7070641  60.5799464  92.3396136
  81.9687688  60.0614189  91.3794967  82.3235846  60.2763646  90.5137577
  82.7871919  61.3710027  94.8043748  82.6487689  62.5985641  94.7819904
  83.5187083  60.7428045  95.7238767  83.5829301  59.7351693  95.7492959
  84.2057822  61.5048778  96.7578084  83.5454001  62.2661227  97.1731407
  84.6537744  60.5768636  97.8882449  85.4198383  61.0807755  98.4775830
  83.4768406  60.2208126  98.7849497  82.7105124  59.7164183  98.1963690
  83.8145623  59.5600791  99.5833696  83.0612864  61.1305632  99.2182731
  85.2102793  59.3773203  97.3361978  85.4903131  58.7973569  98.0481135
  85.4093766  62.2659278  96.2228136  85.9633088  63.0997198  96.9473721
  85.8287244  62.0005296  94.9851670  85.3843852  61.2596955  94.4618824
  86.9433615  62.7060136  94.3712797  87.5743666  63.1587003  95.1361368
  87.7922808  61.7304173  93.5509147  88.4634853  62.2978728  92.9062604
  88.6073513  60.8387506  94.4694045  87.9367688  60.2705961  95.1140899
  89.2055268  60.1508038  93.8718976  89.2660159  61.4535010  95.0828730
  86.9362067  60.9199406  92.7384034  87.4682115  60.3083352  92.2240981
  86.5035887  63.8590986  93.4796435  87.3561659  64.6258832  93.0199018
  85.2055402  64.0008165  93.2272011  84.5472178  63.3274515  93.5922908
  84.6962551  65.0870189  92.4041270  85.3626250  65.2592169  91.5589062
  83.3100096  64.7318403  91.8685183  83.3276386  63.7041393  91.5057250
  82.5598238  64.8266389  92.6535881  82.8447348  65.5813466  90.7265571
  81.8007263  66.4576345  90.7299967  81.2487951  66.5609001  91.6642387
  81.6700523  67.0440651  89.4956044  80.9777846  67.7343580  89.2419103
  82.6363990  66.5434943  88.6636376  82.9070373  66.8292524  87.3324489
  82.2821445  67.5604530  86.8196591  83.9491770  66.1692473  86.7452557
  84.1893161  66.3662962  85.7004567  84.7191321  65.2428028  87.4545468
  85.5492208  64.7232181  86.9759195  84.4535636  64.9580608  88.7777188
  85.0829350  64.2276366  89.2861211  83.3936456  65.6177896  89.4057760
  84.6404404  66.3601219  93.2368542  84.0774959  66.3643005  94.3362354
  85.2231980  67.4392939  92.7180485  85.6539220  67.3711052  91.8070455
  85.3093988  68.7132838  93.4325057  84.6928311  68.6705797  94.3303474
  86.7506449  69.0139079  93.8435482  87.3609026  68.9593254  92.9420463
  86.7690154  70.0317807  94.2330319  87.3060435  68.0620212  94.8889437
  86.6901060  68.1351388  95.7852560  87.2541454  67.0470797  94.4948593
  88.7468128  68.3970810  95.2361900  89.3497709  68.3116845  94.3321724
  88.7851948  69.4230278  95.6023312  89.2930652  67.4598987  96.2989961
  88.6800025  67.5652040  97.1940746  89.2167612  66.4389070  95.9250269
  90.7103622  67.7608933  96.6313219  90.7812210  68.7067803  96.9782752
  91.0340952  67.1174390  97.3393215  91.2786767  67.6629563  95.8021501
  84.7611695  69.8194995  92.5424330  85.5214345  70.5412087  91.8859994
  83.4429981  69.9809321  92.4969384  82.3883097  69.2630990  93.1370680
  82.6666087  69.1278350  94.1822252  82.3093184  68.2893374  92.6536968
  81.1338328  70.0920243  92.9725885  81.0312521  70.8063316  93.7894981
  80.2505346  69.4544695  92.9350456  81.3533401  70.8028121  91.6313770
  80.8366186  71.7605307  91.5691442  81.0843503  70.1888989  90.7718104
  82.8564060  71.0274889  91.6581210  83.2200445  70.8985778  90.6386863
  83.2299312  72.4137212  92.1569875  83.5355691  72.6231795  93.3323414
  83.2013217  73.3710347  91.2357321  83.0125060  73.1594895  90.2663526
  83.4966049  74.7490566  91.5960101  84.4592969  74.8012965  92.1045319
  83.5575699  75.6236179  90.3436951  84.0942635  76.5108197  90.6797487
  84.1567573  75.0966737  89.6011291  82.2234437  76.0405701  89.7197429
  81.4604014  75.3171676  90.0070684  81.8138668  77.4202204  90.1916919
  82.5762519  78.1442900  89.9043056  80.8629730  77.6937740  89.7344499
  81.7071941  77.4169109  91.2764547  82.3019579  76.0058955  88.2039866
  82.5421881  74.9948369  87.8751260  81.3423700  76.3059767  87.7829836
  83.0777667  76.6919421  87.8640456  82.4442347  75.2714853  92.5678240
  81.2670587  74.9098486  92.4986681  82.8806033  76.1285398  93.4821921
  83.8397034  76.4443439  93.4599618  82.0197455  76.6091772  94.5551024
  81.7072071  75.7791863  95.1887694  82.7836284  77.6158850  95.4113986
  83.6406800  77.1110283  95.8571357  83.1324149  78.4270617  94.7723053
  81.9362257  78.2046016  96.5226085  80.7588025  77.8797912  96.6646605
  82.5356047  79.0827474  97.3187025  82.0197634  79.5073888  98.0761239
  83.5044677  79.3218224  97.1629828  80.7609854  77.2506795  93.9768364
  80.8697035  78.1821214  93.1678386  79.5614112  76.8127296  94.3727048
  79.2091681  75.7264668  95.2231275  79.2143356  76.0781933  96.2548067
  79.9527200  74.9382880  95.1047903  77.8345149  75.2959544  94.7632647
  77.2906532  74.8075957  95.5718557  77.9055331  74.6181620  93.9125854
  77.1675394  76.6165810  94.3570456  76.7401598  77.1912354  95.1787622
  76.4055389  76.4505944  93.5955317  78.3448336  77.3692122  93.7574487
  78.3794564  77.1195809  92.6969848  78.1962413  78.8708854  93.9183054
  77.3808971  79.4701196  93.2071949  78.9413158  79.5002529  94.8247769
  79.5330041  78.9642537  95.4434118  78.8871806  80.9456980  95.0010687
  77.9188464  81.3235204  94.6729250  79.0795256  81.3082813  96.4760798
  79.5782764  80.4805662  96.9802967  79.7032208  82.2000131  96.5386793
  77.7686057  81.5844820  97.1805777  76.9402571  82.3503600  96.6908079
  77.5716109  80.9603881  98.3349540  76.7133696  81.1095120  98.8461132
  78.2808216  80.3391237  98.6971024  79.9133505  81.6916401  94.1597288
  80.0038064  82.9185708  94.2696586  80.6826775  80.9966751  93.3257218
  80.6205632  79.9900702  93.2710616  81.6707831  81.6722471  92.5000397
  82.3473991  82.2498151  93.1298850  82.4895594  80.6531934  91.7103645
  82.9311521  79.9419617  92.4083935  81.8257343  80.1251933  91.0257828
  83.5161651  81.2902123  90.9739986  84.0164182  80.6314832  90.4867382
  80.9796591  82.6474427  91.5538880  79.8324796  82.4460116  91.1470394
  81.6927169  83.7209752  91.2049618  82.6565518  83.8246053  91.4884794
  81.0704098  84.8094142  90.4572670  80.2523490  85.2393022  91.0352566
  82.0966360  85.9043948  90.1751355  81.6024750  86.7369766  89.6744242
  82.5489848  86.2556347  91.1025572  83.2193326  85.4771362  89.2870525
  84.2795973  84.6917742  89.6256293  84.3130829  84.3280303  90.6526000
  85.1106203  84.5248983  88.5456783  85.9616818  83.9811320  88.5350958
  84.5946742  85.2146942  87.4816593  85.0721341  85.3460274  86.1839780
  86.0010979  84.8417205  85.9178962  84.3396760  86.1061270  85.3162749
  84.6836202  86.2318601  84.2896331  83.1529709  86.7302172  85.7151839
  82.5766795  87.3348385  85.0148834  82.6760358  86.6002672  87.0043910
  81.7446879  87.1032133  87.2646543  83.4036540  85.8288226  87.9132507
  80.4450847  84.3261176  89.1560533  79.4592351  84.9098475  88.6924091
  80.9988792  83.2743482  88.5484229  81.8174416  82.8185889  88.9257007
  80.4598383  82.7906366  87.2815149  80.5761116  83.5545344  86.5127237
  81.2037156  81.5316790  86.8356917  81.0691635  80.8385864  87.6661238
  80.6961475  81.1430145  85.9528471  82.6936951  81.6867880  86.5388525
  83.1747932  82.1841198  87.3810560  83.3312212  80.3294738  86.3230389
  82.8509248  79.8316936  85.4806440  84.3932147  80.4556447  86.1124410
  83.2088486  79.7231632  87.2205425  82.9012321  82.5694613  85.3254968
  82.4727825  83.5538230  85.5140766  83.9682726  82.6701637  85.1270405
  82.4121965  82.1204716  84.4610019  78.9694019  82.5103489  87.3950453
  78.2005970  82.7963360  86.4708330  78.5430018  81.9522428  88.5272217
  79.1942122  81.7104085  89.2603933  77.1401238  81.6117210  88.7105689
  76.7613819  81.0992959  87.8262192  76.9800163  80.6878779  89.9158940
  77.7497147  80.9643706  90.6364600  75.9960649  80.8647676  90.3502324
  77.1201526  79.2249965  89.5663717  78.3675970  78.6636399  89.3400642
  79.2510442  79.2967282  89.4226448  78.5027167  77.3309001  89.0158399
  79.4894913  76.9010581  88.8437541  77.3813321  76.5420544  88.9108535
  77.5123044  75.2116448  88.5881687  78.4255227  74.9449853  88.4596206
  76.1304025  77.0759974  89.1257443  75.2418695  76.4503990  89.0406776
  76.0056865  78.4096071  89.4500469  75.0183913  78.8392144  89.6197105
  76.2633237  82.8455619  88.8720565  75.0400424  82.7413796  88.7352730
  76.8542198  84.0026105  89.1653659  77.8590149  84.0301934  89.2639833
  76.1030167  85.2305317  89.3967991  75.0665525  84.9931695  89.6365914
  76.7100412  86.0077097  90.5670134  77.7851547  86.1172362  90.4247663
  76.2517335  86.9937911  90.6424946  76.5194219  85.3447553  91.8935125
  75.2931350  85.2679038  92.5165954  75.4258778  84.6310494  93.6659456
  74.5633618  84.4675470  94.3120355  76.6932393  84.2912468  93.8107554
  77.0898316  83.7931421  94.5947874  77.3983507  84.7257482  92.7155511
  78.4700535  84.5386819  92.6480206  76.0573263  86.1299054  88.1703680
  75.0078449  86.7046575  87.8704197  77.1677368  86.2607760  87.4521609
  78.0220965  85.8234032  87.7666031  77.2118806  87.0741290  86.2413259
  76.7266410  88.0259599  86.4573344  78.6642223  87.3442533  85.8489416
  79.1609098  86.4011977  85.6208022  78.6898889  87.9895438  84.9708518
  79.1790504  87.8349253  86.6749515  76.4753282  86.4338247  85.0775244
  76.5240963  86.9713619  83.9666309  75.8043541  85.3054986  85.2966791
  75.8994381  84.8631898  86.1996859  75.0020067  84.6353471  84.2794626
  74.5377453  83.7468891  84.7074849  73.8990549  85.5594144  83.7549620
  74.3778047  86.3017815  83.1163784  73.2239578  84.9474760  83.1567352
  73.1114110  86.2629720  84.8455458  73.7822641  86.9423751  85.3713484
  72.3098926  86.8345099  84.3775557  72.5179319  85.2745232  85.8321104
  71.9351562  84.5390919  85.2774824  73.3335292  84.7730529  86.3530979
  71.6248314  85.9694053  86.8420552  71.4614940  85.2907289  87.6792050
  72.1379816  86.8639529  87.1949866  70.3142923  86.3508169  86.2503445
  69.8384445  85.5220039  85.9236371  69.7493312  86.8093496  86.9508205
  70.4653977  86.9800304  85.4748727  75.8436122  84.1204023  83.1189260
  75.3336307  83.9510555  82.0079132  77.1309037  83.8623106  83.3476949
  77.5684470  84.1213464  84.2203665  77.9569149  83.2521351  82.3159137
  77.6738792  83.6365566  81.3360106  79.4302668  83.5779651  82.5615964
  79.6594540  83.0882774  83.5080521  80.0296795  83.1320498  81.7678936
  79.7538633  85.0690089  82.6679483  79.2721757  85.4724861  83.5586133
  81.2521235  85.2853294  82.7619462  81.7344892  84.8824964  81.8713578
  81.4616948  86.3523663  82.8368659  81.6384586  84.7768065  83.6452639
  79.1764203  85.8321379  81.4890104  78.0936010  85.7085723  81.4707567
  79.4192528  86.8902751  81.5863725  79.6013080  85.4461463  80.5624145
  77.7699396  81.7432620  82.2369441  78.1358761  81.1412667  81.2226103
  77.2069489  81.1236994  83.2734539  77.0575186  81.6442695  84.1259659
  76.8255093  79.7160402  83.2468715  76.8679782  79.3501918  82.2209814
  77.7619054  78.8660256  84.1082806  77.6249264  79.2616031  85.1146873
  77.3969736  77.8396788  84.0690757  79.2466888  78.8923423  83.7487954
  79.6122901  79.9173219  83.8108705  80.0300277  78.0178682  84.7077762
  79.6652806  76.9925717  84.6459259  81.0870462  78.0435271  84.4429093
  79.9018107  78.3878273  85.7250230  79.4650325  78.4314559  82.3227060
  78.9277812  79.0907586  81.6409579  80.5296368  78.4589385  82.0904057
  79.0950424  77.4125026  82.2089492  75.3949949  79.6038613  83.7480484
  75.1205525  79.9015019  84.9141421  74.4929877  79.1764767  82.8795770
  74.7570234  78.9151859  81.9403690  73.0850962  79.1094603  83.2447335
  72.7578708  80.0717315  83.6385062  72.2372231  78.7687416  82.0239306
  72.3422293  79.5794155  81.3029029  72.6304445  77.8475500  81.5939504
  70.7727204  78.5821193  82.3636981  70.3408870  79.0662049  83.4309366
  70.0514305  77.9543885  81.5610419  72.8927391  78.0642381  84.3364406
  73.2338292  76.8941430  84.1227960  72.3591293  78.4250435  85.5070597
  72.2709766  79.7176846  86.0516228  71.6385843  80.3125073  85.3925581
  73.2758354  80.1396782  86.0683338  71.6858341  79.5672536  87.4375805
  70.5967942  79.5983522  87.4040544  72.0510215  80.3525721  88.0994070
  72.1930393  78.1923088  87.8879355  71.5644920  77.6810924  88.6171029
  73.2111617  78.2606889  88.2711465  72.1839689  77.4294071  86.5726417
  73.0692922  76.7936269  86.5634507  70.9412190  76.5678487  86.4280912
  70.8457232  75.5380062  87.1098588  69.9910478  76.9451550  85.5733991
  70.0993981  77.7722945  85.0040137  68.7385706  76.2030484  85.4836175
  68.3973462  75.9226451  86.4801310  67.6639757  77.0713409  84.8250311
  67.6246547  78.0298960  85.3424527  67.9368947  77.2328885  83.7821900
  66.3939511  76.4482202  84.8891730  65.7394469  77.0118979  84.4702559
  68.9208324  74.9009174  84.7113344  68.7010835  73.8111420  85.2504198
  69.3193424  74.9950154  83.4489441  69.4967927  75.8914145  83.0187356
  69.4727260  73.7981158  82.6370581  68.5789646  73.1790602  82.7149035
  69.6869656  74.1636847  81.1695484  70.7140412  74.5028556  81.0347184
  69.4305266  72.9597000  80.2789656  68.4034368  72.6202228  80.4129111
  69.5877079  73.2379059  79.2368550  70.1162025  72.1559979  80.5473163
  68.7912073  75.2200822  80.8022058  68.9271225  75.4486016  79.8797600
  70.6521001  72.9705361  83.1486453  71.7081997  73.5255961  83.4653772
  70.5101126  71.6439102  83.2411022  69.4228316  70.8102783  82.9209853
  69.0516749  71.1126349  81.9417390  68.6479173  70.9754330  83.6695379
  69.9419646  69.3896891  82.9321373  70.3336394  69.1124353  81.9534543
  69.1550243  68.6921256  83.2188975  71.0518145  69.4272635  83.9891700
  71.8435919  68.6907248  83.8524279  70.6388685  69.3338041  84.9935806
  71.6076761  70.8273546  83.7851778  71.8461441  71.2260756  84.7712066
  72.8618886  70.8191126  82.9257239  73.9049955  70.3520868  83.3994548
  72.7992847  71.3114476  81.6871509  71.9689855  71.7893690  81.3673171
  73.8892151  71.1101146  80.7397467  74.1616547  70.0601378  80.6328611
  73.4831668  71.6569418  79.3567490  72.5353866  71.2062705  79.0622880
  73.3322221  73.1671242  79.4035572  74.2797940  73.6185614  79.6975179
  73.0453227  73.5348221  78.4183732  72.5630397  73.4336132  80.1284321
  74.5026037  71.2503353  78.3066878  74.5585781  70.1629645  78.2557604
  74.2017224  71.6440126  77.3358180  75.4801035  71.6518302  78.5738898
  75.1929909  71.7468727  81.1992649  76.2587525  71.4042413  80.6779648
  75.1443059  72.6651441  82.1660396  74.2852088  72.8779489  82.6526252
  76.3396814  73.4308525  82.5053655  76.7543434  73.8866568  81.6062565
  75.9994431  74.5376100  83.5011339  76.8081110  75.2675240  83.5382976
  75.0747289  75.0351774  83.2088490  75.7990086  74.0499328  84.8996509
  74.5713045  73.6554854  85.3825380  74.6966946  73.2782198  86.6427197
  73.8312526  72.9321263  87.2078113  75.9630684  73.4100272  86.9921294
  76.3544776  73.1945075  87.8979164  76.6748513  73.8913516  85.9206757
  77.7463558  74.0684713  86.0134544  77.4504436  72.5628734  83.0803348
  78.6146864  72.9752979  83.0520723  77.1284816  71.3784098  83.6036526
  76.1664585  71.0851212  83.6963499  78.1723776  70.5069500  84.1362686
  78.7785456  71.0311988  84.8750668  77.5564316  69.2504539  84.7768927
  76.8951462  68.7692683  84.0562940  78.6517271  68.2801226  85.1851562
  79.3131914  68.7604741  85.9061472  78.2038776  67.3951163  85.6371466
  79.2251005  67.9875801  84.3055194  76.6945186  69.6269901  85.9843832
  75.9656473  70.3602834  85.6392333  76.1764617  68.7216387  86.3006984
  77.4724236  70.1997265  87.1552938  77.9904115  71.1054206  86.8398473
  76.7850191  70.4388319  87.9667141  78.2012280  69.4667762  87.5013110
  79.1649164  70.1431829  83.0424436  80.3794990  70.1051189  83.2717059
  78.6669770  69.8589498  81.8376644  77.6725279  69.7740522  81.6828657
  79.5654475  69.5969852  80.7195824  80.2612187  68.7990294  80.9789437
  78.7626167  69.1653612  79.4920413  77.8056714  69.6752048  79.6034619
  79.2687657  69.5346304  78.6001033  78.5255705  67.6614376  79.3570858
  79.4873869  67.1648670  79.2289155  77.8337608  67.1110343  80.5855973
  76.8716000  67.6068308  80.7141712  77.6763706  66.0392166  80.4650323
  78.4543834  67.2901092  81.4635838  77.7127641  67.3664859  78.1153615
  78.2499325  67.7217733  77.2359751  77.5519571  66.2915961  78.0325709
  76.7500519  67.8733134  78.1817695  80.4146605  70.8228906  80.4080901
  81.6323508  70.7175660  80.2181480  79.7896482  72.0026290  80.3593282
  78.7909467  72.0824547  80.4870880  80.5454478  73.2103789  80.0432172
  81.0386755  73.0975374  79.0777678  79.6119579  74.4162686  79.9760785
  78.9871599  74.3981747  80.8690507  80.2320513  75.3126503  79.9852439
  78.7297911  74.4247785  78.7423013  79.3462424  74.1741044  77.8790220
  77.9570668  73.6664925  78.8687987  78.0808163  75.7742030  78.5235086
  77.3202201  75.6863530  77.7477026  77.6154217  76.1046724  79.4521082
  79.0569381  76.7733328  78.1092250  79.9079635  76.4318404  77.6858598
  78.9033909  78.0816793  78.2537957  77.8103738  78.5945858  78.7934127
  77.0699965  77.9826216  79.1055685  77.7210443  79.5958953  78.8908767
  79.8695530  78.8961516  77.8427402  80.7062177  78.5126650  77.4267711
  79.7627919  79.8949433  77.9481723  81.6520087  73.4344426  81.0618067
  82.7669795  73.8267778  80.7025794  81.3639929  73.1888552  82.3399451
  80.4162292  73.0129229  82.6414268  82.4149718  73.2221133  83.3488470
  82.8666806  74.2136058  83.3804828  81.8383638  72.9034410  84.7292311
  81.3151583  71.9509636  84.6447207  82.6822179  72.7946523  85.4105353
  80.8875483  73.9563545  85.2665551  81.4451157  74.8863980  85.3771826
  80.0903615  74.0959096  84.5364066  80.2857509  73.5658003  86.6034367
  80.4631616  72.4011982  87.0168391  79.6350728  74.4219271  87.2383901
  83.5135061  72.2345995  82.9812142  84.6878167  72.5982348  82.8597033
  83.1351739  70.9685489  82.7947932  82.1617646  70.7120829  82.8772489
  84.1079349  69.9144668  82.5346534  84.8427187  69.8559635  83.3376287
  83.3836570  68.5642417  82.4036959  82.5238292  68.6839903  81.7445625
  84.3161680  67.5207894  81.8306727  85.1760730  67.4001431  82.4895418
  83.7894552  66.5704541  81.7438559  84.6560953  67.8385718  80.8449938
  82.8604399  68.1099052  83.7655968  83.6708218  67.5803056  84.2665021
  82.6068024  69.0052835  84.3331048  81.6496040  67.2098997  83.6775203
  81.9026165  66.3140306  83.1105078  81.3330337  66.9266038  84.6813260
  80.8385974  67.7390083  83.1771081  84.9100862  70.2368158  81.2860179
  86.0761232  69.8454008  81.1632413  84.2974778  70.9423942  80.3358863
  83.3201292  71.1853438  80.4124653  85.0262225  71.3821166  79.1587416
  85.4304518  70.5014167  78.6596770  84.3257809  71.8867508  78.4932904
  86.1645044  72.3292526  79.4873273  87.2502061  72.2337527  78.9094194
  85.9349888  73.2547680  80.4158815  85.0440793  73.2593363  80.8916533
  86.9030679  74.2881440  80.7536668  87.5619730  74.4815280  79.9071765
  86.1641467  75.5815276  81.1035770  85.4173808  75.2704631  81.8341103
  86.8726811  76.2617759  81.5761671  85.4743728  76.2920663  79.9426116
  85.1211258  75.5491678  79.2274759  84.2980540  77.1027692  80.4514517
  84.6505989  77.8462387  81.1663390  83.8133711  77.6054529  79.6144975
  83.5835183  76.4401312  80.9397652  86.4597562  77.1697997  79.2121839
  87.2736904  76.5578134  78.8234895  85.9567934  77.6719600  78.3857672
  86.8619108  77.9148438  79.8986822  87.8115642  73.9135708  81.9174053
  88.6262656  74.7414702  82.3374745  87.6996226  72.6998400  82.4467110
  87.0421571  72.0439280  82.0496997  88.4299477  72.3064015  83.6494381
  88.0739931  71.3295930  83.9769143  89.9349413  72.2208197  83.4059325
  90.2571244  73.1917873  83.0297423  90.4077886  72.0298698  84.3692880
  90.3353163  71.1450708  82.4278005  89.6327791  70.3156035  82.5085861
  90.2985360  71.5546808  81.4183606  91.7388098  70.6490412  82.7211035
  92.4475891  71.4563730  82.5368583  91.7981026  70.3456841  83.7663586
  92.0984818  69.5117277  81.8836913  91.4879899  69.3039096  81.1063814
  93.1663733  68.7475622  82.0717305  94.0051943  68.9647009  83.0713095
  93.8367069  69.7277386  83.7112201  94.8102499  68.3664480  83.1899622
  93.3936994  67.7360438  81.2401643  92.7551916  67.5598688  80.4776879
  94.2039159  67.1481690  81.3745190  88.1308488  73.2439860  84.8133166
  89.0097759  73.5744742  85.6103780  86.8798858  73.6833065  84.9089154
  86.2203253  73.5472280  84.1562123  86.4429367  74.4201021  86.0832870
  87.2691703  75.0135337  86.4747920  85.2883377  75.3626317  85.7281757
  84.5553199  74.7121954  85.2509789  84.8779704  75.7484694  86.6613574
  85.6185988  76.5320037  84.7934283  85.9431605  76.1363036  83.8310449
  84.4001317  77.4105635  84.5930224  84.0752403  77.8070309  85.5549777
  84.6521255  78.2357395  83.9269259  83.5954087  76.8217157  84.1528184
  86.7703205  77.3695416  85.3201999  87.6597739  76.7466118  85.4147018
  86.9718857  78.1872216  84.6281939  86.5072755  77.7768973  86.2964005
  86.0255540  73.4543370  87.1747349  86.1564229  73.7617102  88.3637433
  85.5313977  72.2867724  86.7753650  85.3562990  72.1696749  85.7875755
  85.2078508  71.1845080  87.6688513  85.4301739  71.4773613  88.6949646
  83.7303224  70.8002908  87.5795319  83.4406220  70.7666787  86.5292733
  83.5980086  69.8139251  88.0241394  82.9194514  71.7378567  88.2624632
  81.9986363  71.4756116  88.1922709  86.0971364  70.0253952  87.2531692
  86.1812337  69.7046498  86.0665593  86.7536836  69.3951263  88.2206747
  86.6232687  69.6349461  89.1930829  87.7256896  68.3679968  87.8891277
  87.4508298  67.8915996  86.9480660  89.1237206  68.9748921  87.7403448
  89.8042248  68.2679202  87.2657882  89.0681857  69.8833816  87.1406258
  89.7477049  69.3601979  89.0440077  90.8016016  68.6682603  89.5994654
  91.1418791  69.2342071  90.7429900  91.9675400  68.8374081  91.3336960
  90.3384568  70.2594125  90.9567456  90.3598793  70.8752834  91.7569606
  89.4569704  70.3603516  89.9083798  88.7076874  71.1519425  89.9006260
  87.7454967  67.2776597  88.9418866  87.2316910  67.4391502  90.0531137
  88.3591872  66.1567186  88.5645750  88.6674068  66.0782601  87.6059589
  88.5628890  65.0203257  89.4497433  87.8834660  65.0466153  90.3016783
  88.3288692  63.7169954  88.6763819  88.7163045  63.8207304  87.6628569
  87.2605442  63.5044261  88.6364322  89.0445488  62.2041100  89.3450023
  89.9770619  65.1020379  90.0152546  90.9480131  65.1718708  89.2586224
  90.0819773  65.0896025  91.3475245  89.2627573  65.0197034  91.9341182
  91.3844790  65.2409948  91.9919549  91.9033160  66.1071961  91.5813423
  91.2109082  65.4435364  93.4938224  92.1827791  65.6757248  93.9293160
  90.5310986  66.2798038  93.6569658  90.6850584  64.2822343  94.1070641
  90.5855871  64.4351921  95.0495657  92.2977451  64.0521940  91.7338722
  93.5214601  64.2171106  91.6746757  91.7307893  62.8587636  91.5757079
  90.7319493  62.7346870  91.6595105  92.5564065  61.6802712  91.3419648
  93.3093922  61.5858945  92.1244000  91.6783518  60.4283969  91.3552495
  91.2115487  60.3088797  92.3329559  90.9049945  60.5080367  90.5912626
  92.4236355  59.1614788  91.0792046  92.8270502  58.3003491  92.0766625
  93.4606528  57.2740064  91.5403142  93.8597326  56.4781992  92.1692221
  93.4834491  57.4366471  90.2292607  93.9020356  56.8079367  89.5587322
  92.8406100  58.6097626  89.9151606  92.7533642  58.9216525  88.8743849
  93.3189797  61.8000734  90.0289059  94.5042439  61.4579814  89.9579710
  92.6525579  62.2800763  88.9777307  91.6691501  62.5003961  89.0445758
  93.3134148  62.4487101  87.6869938  93.9896161  61.6085957  87.5286919
  92.2706514  62.4533684  86.5700878  92.7731425  62.4838162  85.6033016
  91.6302339  63.3292651  86.6738676  91.2178671  60.9803621  86.5220599
  94.1444844  63.7297496  87.6283572  95.2293270  63.7376918  87.0370710
  93.6629936  64.8123535  88.2353501  92.7731003  64.7549994  88.7095861
  94.3478292  66.1056305  88.1988017  95.3395360  66.0138599  87.7558626
  93.5466962  67.1419127  87.3977687  92.6917468  67.4678021  87.9901848
  94.4197159  68.3399581  87.0678626  95.2746912  68.0149055  86.4750229
  93.8397973  69.0673357  86.4997809  94.7721545  68.7987427  87.9916620
  92.9972534  66.5296836  86.1310702  92.3411017  65.6969569  86.3843155
  92.4330768  67.2811655  85.5787303  93.8205001  66.1684658  85.5147200
  94.5766596  66.5866934  89.6272040  93.7626506  67.3506972  90.1649034
  95.6643506  66.1673640  90.2755096  96.6049202  65.2120395  89.8876527
  97.0013533  65.5114300  88.9174433  96.0877081  64.2576087  89.7894055
  97.6648728  65.1847599  90.9642870  98.4477037  65.9139490  90.7555811
  98.1067086  64.1917685  91.0470550  96.8878688  65.5458840  92.2361197
  97.4603998  66.0159976  93.0356823  96.3838922  64.6602499  92.6231071
  95.8641259  66.5272125  91.6876374  94.9194421  66.3217029  92.1910622
  96.2777755  67.9706427  91.9540529  96.0529023  68.4416678  93.0750496
  96.8586692  68.6990159  90.9952975  96.9327393  68.3406583  90.0539194
  97.4392398  70.0142370  91.2864078  97.1751858  70.3253316  92.2971476
  98.9623710  69.9443330  91.1791052  99.1989232  69.7969829  90.1253356
  99.3472695  70.9103984  91.5057102  99.6053155  68.8379290  92.0024396
  99.1186611  67.8989563  91.7386241 100.6598249  68.7888394  91.7309580
  99.4784112  69.0705733  93.4954720  99.9383230  70.0267393  93.7451254
  98.4216148  69.0958957  93.7612531 100.1698661  67.9573558  94.2707822
  99.6537662  67.0231883  94.0492590 101.2002701  67.8943898  93.9209221
 100.1587830  68.1933781  95.7394417  99.2040747  68.2513261  96.0639011
 100.6274115  67.4303145  96.2065834 100.6373373  69.0587373  95.9449614
  96.9061298  71.0921088  90.3370643  97.6716812  71.7902086  89.6747444
  95.5849179  71.2328385  90.2614508  94.9687666  70.5806912  90.7253051
  94.9892324  72.2963748  89.4588275  95.6131878  72.5057201  88.5899469
  93.6066605  71.8650781  88.9742730  93.7657679  70.8678012  88.5641233
  92.9711094  71.7971088  89.8571972  92.9285943  72.7438805  87.9259898
  92.8454937  73.7573957  88.3183953  93.7283583  72.7649064  86.6385255
  93.8114975  71.7517337  86.2452472  93.2247643  73.3976112  85.9076503
  94.7247391  73.1605150  86.8355524  91.5305945  72.2229406  87.6648097
  90.9543035  72.2479225  88.5896686  91.0432253  72.8480886  86.9166370
  91.5867327  71.1973751  87.2998946  94.9031708  73.5961502  90.2593413
  94.4204402  73.6021142  91.3960794  95.3680079  74.6967741  89.6658123
  95.8321246  74.6383787  88.7706670  95.2547607  76.0075418  90.3037065
  95.6979573  75.9709554  91.2988635  95.9820158  77.0732052  89.4840038
  95.7542251  76.8729213  88.4370573  95.5554081  78.0344155  89.7706755
  97.4915937  77.1108410  89.6762750  97.8516616  78.0834707  89.3409492
  97.6827614  77.0015152  90.7437964  98.2153956  76.0165119  88.9194093
  97.5565083  75.2714829  88.1655491  99.4502211  75.9110214  89.0727184
  93.7902010  76.4106192  90.4724413  93.0341099  76.3863685  89.4921234
  93.3476183  76.7834532  91.6752066  94.0039701  76.8847240  92.9321523
  94.9384231  77.4231101  92.7739177  94.2216484  75.8726467  93.2733482
  93.0627529  77.6162752  93.8615543  93.2100533  78.6940760  93.7926556
  93.2097678  77.2951801  94.8927603  91.6746654  77.2070876  93.3533616
  90.9047090  77.9536021  93.5482522  91.3515603  76.2421185  93.7439218
  91.9268311  77.1031851  91.8580655  91.3383552  76.2628197  91.4898530
  91.5257001  78.3672026  91.1130778  92.3366016  79.2648945  90.8794586
  90.2536689  78.4268732  90.7418232  89.6528410  77.6248024  90.8674724
  89.6959822  79.6185431  90.0951065  90.4494472  80.1041354  89.4749534
  88.4913600  79.2515614  89.2365153  88.0635551  80.1587099  88.8097074
  88.9185234  78.3219206  88.1204528  89.3460346  77.4142831  88.5465149
  88.0527672  78.0636041  87.5106664  89.6647356  78.8176432  87.4995456
  87.3959254  78.5925909  90.0772588  87.0842224  77.6868613  89.5570704
  87.8363969  78.3258731  91.0379596  86.1949852  79.4817803  90.3035504
  85.7536703  79.7485552  89.3432525  85.4580690  78.9514319  90.9066957
  86.5058456  80.3875685  90.8241400  89.3168311  80.6363738  91.1700065
  88.6504441  80.2654484  92.1479439  89.7147122  81.9057064  91.0468744
  90.3269417  82.6036214  89.9666103  89.8798197  82.2365154  89.0428055
  91.3892252  82.3596254  89.9775099  90.0716477  84.0768078  90.1897264
  89.1263074  84.3791562  89.7391531  90.8804348  84.6774701  89.7735900
  90.0284862  84.2002171  91.7183798  89.4044550  85.0251661  92.0620993
  91.0178903  84.2817535  92.1684141  89.3911031  82.8747768  92.1035667
  89.8639538  82.5468254  93.0292872  87.8883856  82.9900099  92.3154713
  87.1032427  82.9448264  91.3665192  87.4910799  83.1420833  93.5820078
  88.1567630  83.1678098  94.3411544  86.0695349  83.2237716  93.9048619
  85.5437674  82.3662756  93.4848993  85.8693244  83.2252353  95.4204049
  86.4259373  84.0763262  95.8127382  84.8045074  83.3745365  95.5992178
  86.3263353  81.9569918  96.1183651  85.7061423  81.8220387  97.0045079
  86.1655889  81.1249177  95.4328634  87.7859819  82.0011200  96.5254984
  88.4572982  83.0170234  96.2455324  88.2641078  81.0176819  97.1285847
  85.4268536  84.4637291  93.2997048  84.3083323  84.4000829  92.7777562
  86.1162136  85.6030502  93.3635113  87.0628639  85.5794584  93.7147890
  85.5580235  86.8869088  92.9727790  84.7033570  86.7315610  92.3143632
  85.0905850  87.6714843  94.2063999  84.5707689  86.9926919  94.8825148
  85.9491592  88.1063141  94.7181356  84.1492129  88.7946492  93.9217101
  84.4600943  90.1162322  93.8326360  85.5063680  90.3855302  93.9771688
  83.3341291  90.8506980  93.5681808  83.2991204  91.8537005  93.4547799
  82.2625508  90.0026272  93.4804493  80.9246011  90.2745504  93.2261374
  80.6246702  91.3096646  93.0628014  80.0634637  89.2173197  93.1969530
  79.0054522  89.3919130  93.0014312  80.5059372  87.9088495  93.4125912
  79.8084061  87.0716834  93.3860827  81.8337906  87.6371719  93.6646658
  82.1279858  86.6000320  93.8255723  82.7392549  88.6982328  93.7002889
  86.6235395  87.6727085  92.2206257  87.8053770  87.6103943  92.5873968
  86.2534763  88.4141408  91.1739521  84.9699969  88.6691394  90.5879468
  84.2787099  88.9129944  91.3946421  84.6424486  87.7546432  90.0934694
  85.1573277  89.8141433  89.6174765  85.0286317  90.7729434  90.1197103
  84.4512419  89.7401440  88.7903923  86.5980614  89.6285390  89.1255596
  87.0598875  90.5706951  88.8303348  86.6955932  88.9068483  88.3145420
  87.2710991  89.0936929  90.3795412  88.0150977  88.3640228  90.0599385
  87.9471411  90.1812263  91.1919034  87.3273483  90.7826862  92.0850484
  89.2162300  90.4733190  90.9195558  90.2551683  89.7291129  90.2244878
  90.1949496  89.9615040  89.1612530  90.0770006  88.6641849  90.3737647
  91.5542419  90.1890469  90.8467302  92.3841903  90.0580683  90.1523748
  91.7594297  89.6392151  91.7652531  91.2997723  91.6723293  91.1418768
  91.4277371  92.2897987  90.2528011  91.9019426  92.0777896  91.9549528
  89.8337705  91.6450160  91.5456707  89.7994168  91.5333378  92.6293893
  89.0855182  92.9038940  91.1432198  88.6643644  93.0526928  89.9952331
  88.9203894  93.8177943  92.1004172  89.3519291  93.7233511  93.0086865
  88.0402922  94.9563398  91.8685272  87.0549302  94.6052729  91.5620748
  87.8887885  95.7842312  93.1458962  87.3714948  96.6779408  92.7969124
  87.2362260  95.2262224  93.8173784  89.1598218  96.1901772  93.8918803
  89.8208652  95.3252333  93.9466018  89.8751170  97.3299120  93.1870183
  89.2148189  98.1954255  93.1323225  90.7745340  97.5942977  93.7431210
  90.1499950  97.0190042  92.1791102  88.8147620  96.5742680  95.3195357
  88.3558745  95.7241077  95.8242626  89.7231163  96.8630605  95.8483009
  88.1171973  97.4117961  95.3125257  88.5322024  95.8396038  90.7311750
  87.7593218  96.6579145  90.2198852  89.7930059  95.6940863  90.3167896
  90.4379419  95.0760977  90.7882204  90.2869738  96.4835023  89.1951639
  90.1123592  97.5388915  89.4043590  91.7881701  96.2624053  89.0205222
  91.9781360  95.2116838  88.8014393  92.1530178  96.8764288  88.1971379
  92.3061754  96.5410970  89.9381827  89.5492706  96.1451951  87.9069981
  89.3924201  97.0095391  87.0375590  89.0888912  94.9024437  87.7630789
  89.1980743  94.2388431  88.5166123  88.4742974  94.4460204  86.5254472
  88.7559010  95.1047382  85.7039306  88.9456784  93.0246969  86.1973231
  90.0275226  93.0433118  86.0655437  88.6935268  92.3766864  87.0367288
  88.3346102  92.5289365  85.0176841  88.6514508  91.6398057  84.8425887
  86.9538695  94.4739041  86.5743719  86.3163543  94.2713393  85.5364187
  86.3620787  94.7015950  87.7462113  86.9190541  94.7543733  88.5870990
  84.9124100  94.8239492  87.8674510  84.4761698  95.0167331  86.8873346
  84.3063873  93.5330217  88.4277818  83.2212143  93.6168909  88.4866434
  84.5710113  92.6840715  87.7974185  84.8663993  93.1153594  90.0898004
  84.1517654  91.9991819  90.2009063  84.4682882  95.9865616  88.7378660
  83.3327918  96.4473998  88.5780251  85.3039711  96.4778752  89.6498364
  86.1896916  96.0205032  89.8123456  84.9878496  97.6572795  90.4271927
  85.9173673  98.0102358  90.8738669  84.6089933  98.4097878  89.7356014
  83.9708374  97.4379447  91.5192016  83.5285003  98.4098806  92.1380510
  83.5894718  96.1933996  91.7779170  83.9900349  95.4481550  91.2263201
  82.5986246  95.8490587  92.7873011  82.2569676  96.7345318  93.3233114
  81.3769990  95.1423481  92.1768955  81.7113061  94.2535572  91.6417426
  80.4005515  94.7394060  93.2650486  80.0654221  95.6277814  93.8003787
  79.5414987  94.2404597  92.8165161  80.8919223  94.0599530  93.9614680
  80.7028897  96.0414944  91.1558972  81.4084643  96.2817981  90.3605855
  79.8398505  95.5278570  90.7322940  80.3757286  96.9612419  91.6408002
  83.2747303  94.9528385  93.8170431  83.8136669  93.9023043  93.4585125
  83.2827013  95.3078054  95.0978990  83.0559009  96.5844683  95.7108031
  82.0734160  96.9341837  95.3937496  83.8205759  97.2689088  95.3434992
  83.1421939  96.3720578  97.2052864  82.1702716  96.0956238  97.6140043
  83.5028194  97.2718015  97.7037960  84.1532429  95.2277857  97.3426309
  83.9811348  94.6309872  98.2383481  85.1933046  95.5529719  97.3176270
  83.8373493  94.4040568  96.1041391  84.7804690  93.9999662  95.7362612
  82.8750039  93.2648196  96.3850093  81.6941703  93.3382166  96.0171592
  83.3377434  92.1925991  97.0303561  84.6316567  91.9264514  97.5671594
  84.7076125  92.4042264  98.5439204  85.3797926  92.3498612  96.8969985
  84.7187417  90.4188552  97.6496929  85.4269622  90.1131062  98.4197841
  85.0195243  89.9953871  96.6914101  83.2881213  90.0012786  98.0074360
  83.0391937  90.0714005  99.0663113  83.0732127  88.9941822  97.6501254
  82.4768768  91.0160969  97.2174959  82.2987362  90.5880340  96.2310243
  81.1449124  91.3208397  97.8851092  81.0928239  91.6742492  99.0662886
  80.0603803  91.1780237  97.1237658  80.1794327  91.0580418  96.1280097
  78.6997376  91.2644739  97.6541391  77.9855296  91.2901594  96.8311285
  78.3858018  90.0563990  98.5355519  79.1090514  89.9932290  99.3485825
  77.3809635  90.1402066  98.9495281  78.4422959  88.7461341  97.8083166
  77.4696388  88.4087334  96.8854900  76.6565276  89.1074232  96.6885565
  77.5201414  87.2049819  96.2179874  76.7489858  86.9508078  95.4907905
  78.5474638  86.3212880  96.4705023  78.5887789  85.3679248  95.9437277
  79.5213581  86.6431972  97.3882807  80.3352787  85.9467804  97.5898673
  79.4658104  87.8489240  98.0528432  80.2346605  88.1054539  98.7816517
  78.4724273  92.5616449  98.4262448  77.7962999  92.5841847  99.4560019
  79.0392654  93.6558784  97.9268484  79.6265457  93.5986532  97.1071372
  78.8624013  94.9543025  98.5594959  77.9115789  94.9671112  99.0922921
  79.9856221  95.2558810  99.5556598  80.9276559  95.0619477  99.0427646
  79.9179511  96.3155842  99.8017286  79.9265824  94.4381225 100.8278682
  79.0723145  94.7676016 101.4192824  79.8042636  93.3865607 100.5683339
  81.1787151  94.5873504 101.6627093  82.0556562  95.3912096 101.3469428
  81.2720604  93.8112602 102.7354421  82.0876611  93.8702832 103.3282433
  80.5270590  93.1652605 102.9539794  78.8228518  96.0306534  97.4883625
  79.5722171  95.9700819  96.5114522  77.9515324  97.0121755  97.6814603
  77.3127495  97.0056518  98.4637730  77.8698377  98.1112114  96.7346176
  77.7252839  97.7197574  95.7276583  76.6959686  99.0284698  97.0751428
  76.7821014  99.2923998  98.1291927  76.7959565  99.9273134  96.4667164
  75.3397609  98.3944162  96.8216891  75.2579173  98.1731554  95.7575246
  75.2831396  97.4663994  97.3906187  74.2041971  99.3113323  97.2360423
  74.2953126  99.5198169  98.3020306  74.2857595 100.2428315  96.6759026
  72.8562332  98.6715784  96.9595116  72.7740104  98.5014050  95.8860215
  72.8194016  97.7158077  97.4822400  71.7276917  99.5285435  97.4133686
  71.7613874 100.4140700  96.9287995  70.8522347  99.0672277  97.2112231
  71.8034561  99.6859985  98.4081383  79.1784280  98.8959626  96.7492810
  79.7937993  99.0567047  97.8097177  79.6348051  99.3943088  95.6057846
  79.0962285  99.3648581  94.2878480  78.0443230  99.6428289  94.3536294
  79.1789605  98.3425750  93.9188062  79.9049829 100.3424671  93.4643664
  79.4812742 101.3448564  93.5258938  79.9458596 100.0292526  92.4211372
  81.2946313 100.2815967  94.1088128  81.8613921 101.2060746  93.9982608
  81.8916600  99.4445280  93.7469117  80.9342150 100.0680709  95.5701375
  81.6805160  99.3943582  95.9911415  80.9214187 101.3651122  96.3597559
  79.9061348 102.0590771  96.4495624  82.0778687 101.6847398  96.9420030
  82.8579517 101.0432247  96.9473105  82.2277694 102.9613295  97.6312102
  81.3495792 103.1589950  98.2458723  83.4589698 102.9270204  98.5354560
  84.1863711 102.3614154  97.9531523  83.8037648 103.9550406  98.6467702
  83.3054757 102.2901383  99.9140603  82.6740747 102.9338836 100.5264537
  82.6783157 100.9135404  99.8157305  83.3094268 100.2690482  99.2038257
  82.5819809 100.4854817 100.8135211  81.6919480 100.9948621  99.3590403
  84.6653772 102.2114318 100.5839626  85.0775938 103.2149403 100.6895452
  84.5599385 101.7570068 101.5690930  85.3364717 101.6057530  99.9749599
  82.3417164 104.1089361  96.6377390  81.7246175 105.1639393  96.8211677
  83.1248218 103.9188037  95.5801716  83.5910104 103.0334842  95.4424149
  83.3662408 104.9817193  94.6185334  83.6751398 105.8913623  95.1335384
  84.4691303 104.5736893  93.6453919  84.1004341 103.7711185  93.0066092
  84.8789934 105.7507373  92.7894011  85.2482598 106.5535914  93.4274976
  85.6661191 105.4433376  92.1008972  84.0184897 106.1050235  92.2218491
  85.6070584 104.1057379  94.3785569  86.2996714 103.8495574  93.7651573
  82.0889032 105.3093420  93.8527669  81.2671384 104.4365435  93.5673647
  81.9272631 106.5872971  93.5200884  82.6205321 107.2801914  93.7637583
  80.7287380 107.0263642  92.8323844  79.8466635 106.6150560  93.3231688
  80.6349122 108.5486087  92.8569677  80.9600216 108.9012452  93.8357682
  81.2957661 108.9501527  92.0887656  79.3097297 108.9851995  92.6145117
  79.2799648 109.9445051  92.6356455  80.7323981 106.5215360  91.3900748
  81.7903416 106.2467588  90.8216611  79.5519398 106.3862705  90.7745982
  78.2187359 106.5574898  91.2512379  77.9573148 107.6130633  91.1769152
  78.1816921 106.2471938  92.2954808  77.3657357 105.6840139  90.3598366
  76.3402983 106.0518011  90.3236446  77.3689406 104.6522797  90.7114268
  78.0501598 105.7983969  88.9925527  77.7869004 106.6886581  88.4213885
  77.8700266 104.9113211  88.3853063  79.5140344 105.8597607  89.3999290
  79.8813150 104.8341481  89.4362886  80.3448562 106.6595874  88.4113186
  80.9684736 106.0696949  87.5200626  80.3601566 107.9892143  88.5284002
  79.8569044 108.4591917  89.2672898  81.0611569 108.8045620  87.5413633
  80.6937144 108.5780749  86.5404693  80.8231819 110.2870353  87.8250089
  81.1726563 110.5102857  88.8330397  81.3915685 110.8760204  87.1051941
  79.4489623 110.6114763  87.7195740  79.3259123 111.5459589  87.9017851
  82.5531456 108.4989759  87.5237050  83.1602537 108.3848164  86.4525335
  83.1651281 108.3736223  88.7007900  82.6793450 108.5482654  89.5688994
  84.5860372 108.0504958  88.7565824  85.1542557 108.7468903  88.1399288
  85.0829390 108.1559426  90.1953860  84.5562226 107.4052339  90.7845426
  86.1500946 107.9339542  90.1953384  84.8521393 109.5270374  90.8013889
  85.1592073 110.2760441  90.0714581  83.7862954 109.6329855  91.0035124
  85.6308801 109.7244542  92.0846763  85.3858964 108.9261887  92.7852861
  86.6990952 109.7026888  91.8689401  85.3050704 111.0042206  92.7022214
  85.8552728 111.8023204  92.4186488  84.3507271 111.1823007  93.6064352
  83.5989435 110.1790177  94.0292147  83.7473693 109.2505039  93.6605252
  82.8800931 110.3462803  94.7186906  84.1392354 112.4010592  94.0929481
  84.7034627 113.1746786  93.7716060  83.4152802 112.5479109  94.7817312
  84.8626280 106.6680051  88.1827089  85.8674839 106.4657399  87.4894965
  83.9855234 105.7010746  88.4545011  83.2408407 105.8317017  89.1241903
  84.1229050 104.3946282  87.8185709  85.0831207 103.9518157  88.0831498
  83.0084115 103.4592130  88.2858990  82.1082280 104.0648059  88.1808933
  82.9661324 102.6224461  87.5886661  83.0997706 102.9264940  89.7156689
  83.1647701 103.7664539  90.4072926  81.8711879 102.0955967  90.0428876
  81.8057626 101.2551262  89.3519262  81.9465925 101.7210190  91.0637238
  80.9782580 102.7135013  89.9481754  84.3664911 102.1083122  89.9092117
  85.2372268 102.7336539  89.7120661  84.4087892 101.7401758  90.9342910
  84.3629126 101.2636850  89.2202334  84.1037014 104.5285100  86.3027982
  84.9654028 103.9785226  85.6073318  83.1261787 105.2624009  85.7720171
  82.4108508 105.6857270  86.3457770  83.0346588 105.4191271  84.3262979
  82.9425466 104.4427756  83.8505329  81.8086404 106.2552647  83.9658003
  80.9278065 105.7946092  84.4130445  81.9386390 107.2587115  84.3711334
  81.6394032 106.3319008  82.5611980  80.8641424 106.8614129  82.3607300
  84.3010366 106.0542530  83.7703893  84.7978356 105.6487196  82.7131517
  84.8409573 107.0533097  84.4694869  84.3988695 107.4259593  85.2976112
  86.0793338 107.6709777  84.0094174  85.9790419 107.9560452  82.9621461
  86.4000633 108.9197018  84.8262023  85.4850200 109.5056178  84.9127904
  86.7194059 108.5970263  85.8171618  87.4902779 109.7728113  84.1952487
  88.3785073 109.1522055  84.0769364  87.1406576 110.0965434  83.2149093
  87.8308778 110.9863904  85.0356131  88.6493667 111.5304085  84.5642116
  86.9560586 111.6332108  85.1020526  88.2359669 110.6094274  86.3830264
  88.0814665 109.6499782  86.6581379  88.7853852 111.4386357  87.2602009
  89.0066076 112.7095137  86.9654200  88.7544855 113.0646566  86.0541527
  89.4265637 113.3185330  87.6530478  89.1240265 110.9808717  88.4619197
  88.9606531 110.0116129  88.6941837  89.5430451 111.6045547  89.1368579
  87.2505065 106.7027055  84.0830955  88.1995609 106.8229540  83.3002946
  87.2155534 105.7483878  85.0130578  86.4619467 105.6875625  85.6827418
  88.3105776 104.7926303  85.1166321  89.2643425 105.3070805  84.9992755
  88.2896828 104.1078896  86.4838364  88.3665727 104.8802403  87.2491216
  87.3349179 103.5916616  86.5839993  89.4221518 103.1132852  86.6541925
  90.3808012 103.1545653  85.8569721  89.3542489 102.2892759  87.5898131
  88.2493944 103.7464710  84.0130229  89.2961226 103.2790567  83.5500661
  87.0452402 103.3710218  83.5822658  86.2103014 103.7802854  83.9765751
  86.8945134 102.3281469  82.5773741  87.5835489 101.5084137  82.7807620
  85.4668268 101.7844124  82.6058854  84.7510178 102.6064079  82.6122241
  85.2876536 101.1539944  81.7349261  85.1679615 100.9477382  83.8082304
  83.8836551 100.6353013  84.1957369  83.9247047  99.8909873  85.2867023
  83.0046033  99.5402732  85.7541550  85.1889542  99.7072450  85.6182244
  85.5250188  99.1760984  86.4088215  85.9873737 100.3585696  84.7099272
  87.0717825 100.3251379  84.8150032  87.2301126 102.8181614  81.1756912
  87.4451177 101.9929604  80.2816111  87.2798729 104.1342851  80.9637026
  87.0678959 104.7790772  81.7116386  87.5838011 104.6792520  79.6475017
  86.9404478 104.1835857  78.9205144  87.2857645 106.1767579  79.6218858
  87.9287691 106.6880238  80.3383020  87.4735873 106.5680734  78.6220383
  86.2419038 106.3445803  79.8870079  89.0273210 104.4420655  79.2307679
  89.3605305 104.6727858  78.0643994  89.8880008 103.9961654  80.1456610
  89.5934384 103.8554393  81.1014478  91.2830479 103.7463580  79.8090653
  91.6267997 104.4546714  79.0552576  92.1602173 103.8921693  81.0523814
  93.2008599 103.7295736  80.7718002  92.0090141 105.2795906  81.6545324
  90.9686474 105.4427522  81.9358064  92.6412733 105.3634867  82.5384493
  92.3085370 106.0288789  80.9217612  91.7856700 102.9099814  82.0242617
  92.3381810 103.0041117  82.8036663  91.5042623 102.3682466  79.2008513
  92.4953153 102.1727977  78.4906678  90.6164724 101.4153864  79.4589376
  89.8418098 101.5853909  80.0843141  90.7618945 100.0874324  78.8876122
  91.7939209  99.7517872  78.9894103  89.8518826  99.0942066  79.6094029
  88.8456175  99.3984883  79.3214056  90.0530468  98.0947589  79.2237381
  89.9641956  99.0838243  81.1364677  90.0395486 100.1110332  81.4932094
  88.7467788  98.4219381  81.7549999  88.6710153  97.3944807  81.3990646
  88.8439439  98.4235773  82.8406597  87.8496732  98.9716531  81.4701926
  91.2319239  98.3840752  81.5789255  92.0970682  98.9038797  81.1673091
  91.2895086  98.3893482  82.6673911  91.2231198  97.3545380  81.2210502
  90.4394668 100.1175864  77.3959577  89.8341722 101.0618378  76.8837423
  90.8519766  99.0651666  76.6919105  91.3857968  98.3251422  77.1249222
  90.6079774  98.9924043  75.2587643  90.9086730  99.9268293  74.7849170
  91.4084544  97.8516383  74.6384326  91.2468817  97.8521587  73.5604747
  92.4648573  98.0207418  74.8470398  91.0188937  96.4964352  75.1848034
  89.8822345  96.2781994  75.5975382  91.9681869  95.5710756  75.1823568
  91.7682758  94.6459655  75.5349281  92.8869575  95.7954501  74.8279313
  89.1128587  98.8346987  74.9773407  88.2777970  98.7828137  75.8825593
  88.7779997  98.7562038  73.6880890  89.4827659  98.7046876  72.9664589
  87.3799290  98.7428735  73.2884982  86.9136934  99.6415121  73.6924439
  87.3486644  98.7761136  72.1994542  86.6080759  97.5285262  73.7675103
  85.4183830  97.6310136  74.0748410  87.2590911  96.3684443  73.8338357
  88.2424521  96.3185514  73.6088666  86.5636675  95.1321116  74.1720317
  85.5329053  95.2060272  73.8253836  87.2339793  93.9522673  73.4648043
  88.2642673  93.8597613  73.8083871  86.6914641  93.0349815  73.6936367
  87.2243656  94.1204324  72.3878979  86.5253036  94.8910043  75.6774757
  85.4538509  94.6377081  76.2448839  87.6879689  94.9370170  76.3281424
  88.5656862  95.0317954  75.8375012  87.7192736  94.7863894  77.7758480
  87.3023578  93.8198915  78.0589773  89.1587509  94.8640180  78.2812509
  89.6497370  94.0139524  77.8075206  89.5978455  95.7899020  77.9097206
  89.3485278  94.7823445  79.7968746  88.8860404  95.6564359  80.2553182
  88.7152072  93.5248806  80.3557845  89.1775318  92.6502951  79.8981219
  88.8643313  93.4911428  81.4350086  87.6474002  93.5271009  80.1369611
  90.8229636  94.8319795  80.1445776  91.2510207  95.7665666  79.7820674
  90.9439010  94.7729969  81.2262413  91.3358084  93.9921208  79.6758275
  86.8579182  95.8397663  78.4521348  86.3098830  95.5930526  79.5277721
  86.7200932  97.0148153  77.8353169  87.2439338  97.2273874  76.9983561
  85.8501677  98.0484156  78.3885410  86.1439948  98.2794249  79.4124548
  85.9640391  99.3210554  77.5485843  87.0066652  99.6353837  77.5957835
  85.7146851  99.0438247  76.5243452  85.0718658 100.4625854  77.9941412
  84.0310401 100.1421193  77.9484868  85.3263751 100.7236749  79.0213507
  85.2381669 101.6947452  77.1254530  85.9237782 101.6591351  76.1046524
  84.6050498 102.7897486  77.5241151  84.6814425 103.6389524  76.9827110
  84.0494058 102.7694278  78.3672926  84.4060889  97.5691859  78.4480429
  83.7411811  97.6892032  79.4839032  83.9037761  97.0119540  77.3452318
  84.4361426  96.9642178  76.4882566  82.5368559  96.5044531  77.3390506
  81.8497748  97.2833360  77.6697469  82.1411624  96.0710704  75.9300456
  82.2383943  96.9099071  75.2408445  82.7753852  95.2504995  75.5945983
  80.7255770  95.5902127  75.8232421  79.6834917  96.3513576  76.3140157
  79.8997385  97.3110518  76.7834030  78.3815969  95.9102002  76.2156593
  77.5678947  96.5216731  76.6056469  78.1092706  94.6990277  75.6257224
  77.0803071  94.3480779  75.5471841  79.1369182  93.9301179  75.1344393
  78.9239122  92.9695115  74.6654362  80.4372897  94.3743436  75.2350902
  81.2532216  93.7639916  74.8480173  82.3770105  95.3444503  78.3107809
  81.3688128  95.2528300  79.0221361  83.3600158  94.4442039  78.3520471
  84.1553996  94.4966038  77.7317905  83.2702878  93.3104168  79.2690300
  82.3487621  92.7631307  79.0706174  84.4527544  92.3686099  79.0550729
  85.3824957  92.8997993  79.2588351  84.3661948  91.5168399  79.7296806
  84.4549712  92.0158518  78.0237359  83.2142090  93.7828041  80.7186108
  82.3935071  93.3036874  81.5121476  84.0830015  94.7265266  81.0811634
  84.7759071  95.0700878  80.4315891  84.0954937  95.2444485  82.4412924
  84.1650840  94.4292277  83.1614809  85.2940327  96.1683397  82.6335191
  85.2667967  96.9454434  81.8696681  85.2610399  96.8084136  84.0058131
  85.2887189  96.0318964  84.7702439  86.1243879  97.4634604  84.1226170
  84.3462332  97.3911791  84.1135801  86.5045592  95.4157580  82.4893580
  87.2589969  95.9969638  82.6102878  82.8014079  95.9755519  82.7644019
  82.2832691  95.8643778  83.8791191  82.2653413  96.7353756  81.8078039
  82.7279162  96.8920571  80.9237368  81.0029894  97.4199769  82.0581431
  81.0829119  98.0335660  82.9554836  80.6544368  98.3242376  80.8781836
  81.5601802  98.8692030  80.6122121  80.3648551  97.6761478  80.0510064
  79.5344873  99.3120125  81.1636987  78.6227405  98.7487828  81.3626734
  79.8039953  99.8901314  82.0475799  79.3020504 100.2557301  79.9919427
  79.1709536  99.6578371  79.0900355  78.3930888 100.8255501  80.1847986
  80.4690822 101.2127788  79.8003350  80.6817525 101.6862650  80.7588143
  81.3355734 100.6333102  79.4817313  80.1724347 102.2596788  78.7852933
  79.3698168 102.7970191  79.0805382  80.9703912 102.8713835  78.6894665
  79.9757607 101.8211645  77.8969670  79.8957318  96.4096887  82.3192246
  79.0897413  96.5810588  83.2415616  79.8457366  95.3437985  81.5191949
  80.4711148  95.2597012  80.7305701  78.8536902  94.2947539  81.7303432
  77.8475373  94.7069684  81.6539580  79.0187123  93.2099900  80.6677201
  78.9540760  93.7048959  79.6987053  80.0172009  92.7919811  80.7957408
  77.9930295  92.0967815  80.7353255  78.1661958  91.4600644  81.6029116
  77.0158268  92.5716327  80.8230374  78.0013381  91.2333285  79.4923738
  78.3128569  91.7041800  78.3997312  77.7090179  89.9516197  79.6607356
  77.7000650  89.3300570  78.8646947  77.4965554  89.6023537  80.5843016
  78.9886140  93.7026039  83.1277393  78.0067061  93.5945118  83.8750879
  80.2098288  93.3007224  83.4909677  81.0030117  93.4053945  82.8745230
  80.4162887  92.6480736  84.7783662  79.7759255  91.7694280  84.8559303
  81.8710228  92.2057747  84.9205287  82.4324135  93.0847445  84.6037452
  82.0483935  92.0246338  85.9806361  82.3279595  90.9922433  84.1136356
  82.3373572  91.2433143  83.0529868  83.7223369  90.5912414  84.5496852
  83.7136406  90.3395628  85.6101951  84.0486434  89.7251502  83.9739156
  84.4093685  91.4200927  84.3791171  81.3719112  89.8259957  84.2665809
  80.3822307  90.1183855  83.9156674  81.7307861  88.9817121  83.6779425
  81.3142370  89.5380400  85.3162733  80.0350165  93.5733413  85.9246424
  79.4120217  93.1400518  86.9001622  80.4134052  94.8494244  85.8388129
  80.9510357  95.1895012  85.0543382  80.1048249  95.7769477  86.9183298
  80.3871861  95.3405224  87.8764031  80.8775088  97.0794313  86.7290630
  81.8746884  96.8436184  86.3574121  80.3533481  97.6937612  85.9969739
  80.9846397  97.7885746  87.9494927  81.4734587  98.6020773  87.8050311
  78.6104856  96.0557374  86.9968439  78.0750753  96.2470495  88.0930736
  77.9241467  96.0878558  85.8541002  78.3878668  96.0154200  84.9597758
  76.4811435  96.2836906  85.8697407  76.2262618  97.1215216  86.5187197
  75.9753536  96.5865581  84.4599802  76.5489768  97.4346269  84.0860351
  76.1827803  95.7095739  83.8468139  74.4929487  96.9102814  84.3948122
  73.9317982  95.9823951  84.5054378  74.2497238  97.5817510  85.2182637
  74.1243233  97.5702814  83.0783911  73.0454613  97.7223260  83.0461706
  74.6287624  98.5340946  83.0098005  74.5153977  96.7562875  81.9349539
  75.3469638  97.0352839  81.4341963  73.8546339  95.6850301  81.5171480
  72.7580560  95.2650213  82.1282440  72.4086129  95.7658402  82.9327127
  72.2758953  94.4456823  81.7872099  74.3043732  95.0170289  80.4588786
  75.1401255  95.3298550  79.9858479  73.8081311  94.1999270  80.1330153
  75.7550514  95.0699663  86.4301625  74.6472099  95.2057363  86.9608777
  76.3516657  93.8829806  86.3224571  77.2519792  93.7899486  85.8742607
  75.6815605  92.6701071  86.7907824  74.5995089  92.7986115  86.7633924
  76.0563631  91.4869667  85.8952587  77.1276910  91.3041251  85.9784799
  75.2975077  90.2431642  86.3155131  74.2260398  90.4250984  86.2321090
  75.5757007  89.4112328  85.6685218  75.5445403  89.9978459  87.3484189
  75.7396499  91.7968404  84.5341077  75.9752600  91.0538968  83.9736409
  76.0004710  92.3411912  88.2503284  75.0916867  92.2466663  89.0799440
  77.2813993  92.1608052  88.5762329  78.0207236  92.3370158  87.9110648
  77.6441400  91.6491178  89.8952568  77.2029509  90.6637754  90.0454287
  79.1607890  91.5280874  90.0167534  79.5234952  92.5087985  89.7089397
  79.4003161  91.3661136  91.0677012  79.8310575  90.4497729  89.1706818
  79.5708577  90.6008447  88.1230300  81.3371400  90.5272646  89.3334862
  81.5981591  90.3758158  90.3808788  81.8089539  89.7544964  88.7265910
  81.6881186  91.5072474  89.0101472  79.3194965  89.0743609  89.5488963
  78.2425982  89.0293576  89.3865255  79.8110619  88.3212813  88.9329939
  79.5363537  88.8817411  90.5995958  77.1137520  92.5234853  91.0241076
  76.7676815  92.0082526  92.0921434  77.0379435  93.8386345  90.8150396
  77.2319247  94.2382530  89.9079697  76.7306374  94.7430610  91.9180068
  77.4541173  94.6101549  92.7223773  76.7934720  96.1935329  91.4391706
  76.4938344  96.8462250  92.2591154  77.8190028  96.4224707  91.1493876
  75.9337591  96.4001738  90.3336466  75.9901258  97.3159670  90.0512542
  75.3704587  94.4682841  92.5429730  75.1219567  94.9121915  93.6692904
  74.4847196  93.7524058  91.8496806  74.6947119  93.4916235  90.8967928
  73.1822880  93.3896915  92.3943642  72.9963436  93.9448932  93.3137525
  72.0778650  93.7226946  91.3906028  71.1406963  93.7491609  91.9465826
  72.2947255  94.7159685  90.9975651  71.9558366  92.7383162  90.2393808
  72.9498006  92.5577302  89.8300824  71.5463306  91.8039866  90.6233536
  71.0486492  93.2771020  89.1463071  70.7955518  92.4668345  88.4625621
  70.1374739  93.6667790  89.6001913  71.6871606  94.3467947  88.3873772
  72.6634967  94.2198562  88.1620909  71.0823789  95.4569839  87.9813427
  69.8012226  95.6807326  88.2257439  69.2600071  94.9957033  88.7336029
  69.3705301  96.5355001  87.9032906  71.7825242  96.3667785  87.3102300
  72.7607077  96.2053752  87.1173412  71.3329006  97.2150107  86.9964793
  73.1107842  91.9193065  92.7903492  72.0162607  91.3531739  92.8616818
  74.2519168  91.2908357  93.0547539  75.1365922  91.7726809  92.9821320
  74.2617702  89.8830496  93.4140729  73.5189489  89.3548775  92.8162852
  75.6341252  89.2688989  93.1416879  76.3873534  89.7813706  93.7401192
  75.6185079  88.2115406  93.4059789  75.8768887  89.3750532  92.0843817
  73.8959607  89.6942343  94.8832271  73.9657369  90.6201425  95.6957370
  73.4988469  88.4671570  95.2140318  73.4015626  87.7737003  94.4861905
  73.1616300  88.0870603  96.5800993  73.6145065  88.7840372  97.2852413
  71.6462769  88.0949539  96.7898675  71.4233337  87.6920887  97.7778434
  71.1007107  89.5101767  96.6851021  71.3228798  89.9135667  95.6971663
  70.0214373  89.4962427  96.8370025  71.5661234  90.1367931  97.4459197
  71.0172275  87.2706151  95.8005807  70.0667520  87.2779669  95.9352755
  73.7285404  86.7012681  96.8679992  73.3985292  85.7450201  96.1551399
  74.5724709  86.5394688  97.8865224  74.9926391  87.4210555  98.9312197
  74.1156598  87.9720703  99.2709110  75.7157970  88.1167213  98.5055546
  75.5933202  86.5584302 100.0180627  74.8263489  86.2274903 100.7183004
  76.3684961  87.1012844 100.5589074  76.1911695  85.3776486  99.2430613
  76.2226474  84.4626172  99.8345218  77.1815956  85.5805754  98.8356591
  75.1859413  85.2277807  98.1123438  75.7439837  84.9432062  97.2203212
  74.1279372  84.1763160  98.4040944  73.1903574  84.4101507  99.1690515
  74.2840529  83.0110149  97.7849286  75.0370467  82.8842105  97.1238536
  73.3423907  81.9125814  97.9805154  72.3672266  82.3001252  98.2754118
  73.1928772  81.0657249  96.7055990  73.0541793  81.7339907  95.8557260
  74.4231963  80.2047562  96.4767648  74.5622911  79.5358543  97.3260724
  74.2915396  79.6159674  95.5689680  75.2998726  80.8437494  96.3708140
  71.9469376  80.1831774  96.7966228  72.0375754  79.4145213  96.0291247
  71.9524916  79.7153330  97.7810974  70.6483456  80.9375681  96.6040285
  70.6418591  81.4053327  95.6195215  69.8102248  80.2450813  96.6822262
  70.5567765  81.7061464  97.3714934  73.8182711  81.0730479  99.1606350
  74.9572629  80.6088942  99.1738240  72.9838746  80.8464730 100.1813482
  71.6567471  81.2947875 100.4374900  71.0712162  81.1256400  99.5338070
  71.7036824  82.3639032 100.6445834  71.1447570  80.5006009 101.6184658
  70.6785037  79.5723286 101.2882879  70.4254586  81.0831858 102.1940577
  72.4123158  80.2297745 102.4395095  72.3540494  79.3148071 103.0290337
  72.6846971  81.0624729 103.0879856  73.4480438  80.0697863 101.3380771
  74.3749757  80.5139882 101.7008169  73.6921477  78.6152776 100.9766536
  72.7515545  77.8801058 100.6597437  74.9507418  78.1943363 101.0166939
  75.6838059  78.8415106 101.2694424  75.3263127  76.8340070 100.6466875
  75.0996385  76.6565762  99.5953853  76.8276399  76.6277017 100.8650676
  77.0617237  75.6142036 100.5392983  77.3449140  77.3429330 100.2255587
  77.2818411  76.8148389 102.3061821  76.4677471  76.4986580 102.9583948
  78.1483043  76.1743533 102.4708609  77.6494230  78.2510614 102.6178945
  76.8315983  79.1482402 102.3234408  78.7523124  78.4841390 103.1556739
  74.5353064  75.7827108 101.4249010  74.1276160  76.0619014 102.5184856
  74.2996347  74.6608267 100.9752425  74.2775198  74.5344179  99.9734286
  73.9691501  73.5116665 101.8300810  73.1272112  73.7743538 102.4705758
  73.5916511  72.2779315 101.0078606  74.3800180  72.1410122 100.2677052
  73.5593319  71.4112253 101.6680695  72.2600603  72.4257064 100.3044910
  71.0553126  72.3337147 101.0052646  71.0961483  72.1657540 102.0814714
  69.8341914  72.4497136 100.3702235  68.9004577  72.3852923 100.9288764
  69.8091159  72.6604039  98.9984368  68.6003466  72.7685648  98.3546209
  67.8504257  72.6833446  98.9478796  70.9801843  72.7539294  98.2728166
  70.9534328  72.9226022  97.1962784  72.2034828  72.6307228  98.9285291
  73.1334954  72.6945689  98.3636394  75.1355238  73.1971304 102.7753182
  76.3086478  73.5522220 102.5232409  74.8205859  72.5192871 103.8888355
  73.8768025  72.1994084 104.0533039  75.8194281  72.2722921 104.9131952
  76.1884020  73.2200159 105.3053393  75.2134589  71.4637021 106.0719569
  74.7754558  70.6261290 105.5290720  76.0524297  71.1090620 106.6706709
  74.1530471  72.0867344 106.9945546  73.3324647  72.4725287 106.3896512
  73.6221013  71.0376070 107.9582129  74.4420863  70.6516527 108.5638222
  72.8714326  71.4872496 108.6081505  73.1715663  70.2206447 107.3945719
  74.6836316  73.3074901 107.7610045  75.0019238  74.0719599 107.0522199
  73.8947994  73.7086128 108.3973578  75.5312362  73.0094373 108.3781187
  77.0422450  71.5341294 104.3678608  78.1521011  71.7030374 104.8461532
  76.8434229  70.6947585 103.3417568  75.8883654  70.4919124 103.0832654
  77.9379261  69.9589863 102.6413584  77.5250937  69.4591377 101.7651050
  79.0761312  70.9055976 102.1813385  79.3581989  71.5454739 103.0174577
  79.9328358  70.3022819 101.8810596  78.6282932  71.7699915 101.0092555
  78.3719743  71.1670615 100.1381201  77.7811008  72.4023061 101.2748593
  79.8344091  72.6464085 100.6838271  79.7684548  73.5803717 101.2419147
  80.7505512  72.1235694 100.9584586  79.8496531  72.9378833  99.2386292
  79.8208678  72.0239289  98.6453676  79.0194809  73.5831802  98.9513923
  81.1551025  73.6572959  98.9916706  81.9245022  73.0593567  99.2573633
  81.2316360  73.8889869  98.0115881  81.1817962  74.5044344  99.5409819
  78.5185970  68.7987528 103.4609001  79.7418655  68.6495886 103.6043586
  77.6477779  67.9640791 104.0080278  76.6523886  68.1125685 103.9228786
  78.1209245  66.8032202 104.8045232  79.1808242  66.9281630 105.0261111
  77.3544916  66.6745131 106.1291062  76.2956216  66.5803719 105.8882098
  77.6973013  65.7636283 106.6198917  77.5613078  67.8740947 107.0719497
  77.2499826  68.7913064 106.5720497  76.9459095  67.7168353 107.9577581
  79.0201825  68.0269290 107.5105855  79.6199158  67.0763807 108.0270929
  79.6056540  69.2063886 107.2922394  80.5672131  69.3479694 107.5669399
  79.0844375  69.9518959 106.8533161  77.9391164  65.5505940 103.9378824
  76.8665990  65.3132138 103.3331923  78.9897175  64.7269833 103.8653295
  79.8166691  64.9394871 104.4048593  79.0317523  63.5975135 102.9612608
  78.0806060  63.4976525 102.4383384  80.1795943  63.7601509 101.9229728
  81.1264268  63.8479678 102.4557925  80.2340833  62.5638340 100.9879953
  79.2876984  62.4756350 100.4544439  81.0436796  62.6991310 100.2708137
  80.4100181  61.6572437 101.5669945  79.9895394  65.0442729 101.1081952
  79.0986251  64.9016043 100.4966250  79.8142909  65.8487695 101.8224590
  81.1748612  65.4108105 100.2065232  81.3504341  64.6069359  99.4916390
  80.9516362  66.3322573  99.6687448  82.0661010  65.5540988 100.8174733
  79.1440121  62.2522197 103.7194614  80.1969842  61.9174556 104.2865493
  78.0583841  61.4601473 103.7397151  76.6653610  61.6671197 103.3509067
  76.5615433  61.4175294 102.2949584  76.4179136  62.7179430 103.5013698
  75.8605213  60.7511857 104.2461787  74.9113090  60.4887303 103.7790468
  75.6721733  61.2210232 105.2115176  76.7661313  59.5235531 104.4023284
  76.6900784  58.8698955 103.5333941  76.6042276  58.9414231 105.3095282
  78.1399259  60.1734889 104.4413888  78.3888533  60.3400549 105.4894295
  79.2359368  59.3146008 103.7845933  79.3170218  59.2114862 102.5599200
  80.0922938  58.6880117 104.5865315  80.0928292  58.8532135 105.5829287
  81.1310939  57.8275164 104.0268253  81.6418351  58.3502817 103.2181479
  82.1666982  57.4481922 105.0978276  81.6444078  57.1139593 105.9942652
  82.7768253  56.6332580 104.7083058  83.0794397  58.6022822 105.4701801
  83.1798778  59.5844605 104.7251218  83.7315973  58.4986260 106.6109306
  84.3516104  59.2401728 106.9038329  83.6082811  57.6781323 107.1868508
  80.5424208  56.5804267 103.3529024  81.2823658  55.7087715 102.8175897
  79.2160644  56.4590519 103.3606904  78.6597957  57.0935638 103.9157212
  78.5281345  55.3431619 102.6676956  79.0129761  54.4033881 102.9319928
  77.0459393  55.2586301 103.0618551  76.6191992  54.3728898 102.5912637
  76.9877989  55.1573438 104.1455805  76.3186983  56.4068810 102.6548030
  75.4004712  56.3144381 102.9192140  78.6963177  55.4386304 101.1633947
  78.2428303  54.5685096 100.3954651  79.3606608  56.5141080 100.7010794
  79.7280958  57.1710456 101.3745211  79.5715517  56.7900651  99.2692419
  78.9836777  56.1128850  98.6496206  79.1174087  58.2240405  98.9926505
  79.7145419  58.9264926  99.5741075  79.2190523  58.4527917  97.9317823
  77.3903404  58.5628926  99.4159700  77.4038614  59.8396385  99.0436323
  81.0505252  56.6429849  98.8239793  81.5209277  57.3286414  97.9121813
  81.7946518  55.7377743  99.4724755  81.3592745  55.1588644 100.1763286
  83.2410073  55.6089463  99.2631216  83.7026454  56.5878456  99.1337173
  83.9398491  54.8840878 100.4383601  83.4677885  53.9114204 100.5768374
  85.4197474  54.6932193 100.1651402  85.8926130  55.6655449 100.0270028
  85.8824706  54.1813340 101.0089182  85.5490399  54.0954369  99.2628978
  83.7475079  55.6645879 101.7424002  82.6832594  55.7491875 101.9622184
  84.2457314  55.1396873 102.5574783  84.1764779  56.6610378 101.6366973
  83.5412699  54.8857640  97.9253227  83.0649077  53.7472534  97.6741122
  84.3208199  55.5142878  97.0572135  84.6371218  56.4596675  97.2194162
  84.6411636  54.8870572  95.7783301  84.6251569  53.8032036  95.8928045
  83.6275018  55.2810943  94.6935054  83.6233277  56.3679343  94.6106766
  83.9542665  54.8464845  93.7488154  82.3181669  54.8250311  94.9958353
  81.7172035  55.0907711  94.2959603  86.0527203  55.1729724  95.3294725
  86.9884889  55.0610110  96.1204963  86.2619733  55.5163162  94.1712138
  85.3417142  55.7404836  93.8205410  87.3937177  55.6631920  93.2758015
  88.2856386  55.8432615  93.8759276  87.5132597  54.7345032  92.7178176
  87.2185221  56.8060756  92.2984634  86.7852770  57.8946755  92.6736474
  87.5578063  56.5587840  91.0379266  88.0130041  55.6843814  90.8181197
  87.3400782  57.5135179  89.9605702  86.9203743  58.4412540  90.3494844
  88.6616148  57.8306116  89.2616441  89.2171621  56.9072725  89.0975952
  89.2509841  58.5027031  89.8853723  88.4835437  58.6432140  87.6741741
  86.3321090  56.9408270  88.9746122  86.4902519  55.8102238  88.5052027
  85.3030984  57.7248986  88.6611256  85.2262588  58.6251801  89.1124441
  84.2416743  57.3156176  87.7515142  84.2232298  56.2291210  87.6661666
  82.8842649  57.7879795  88.2774610  82.8979584  58.8620204  88.4627932
  82.0942427  57.5529204  87.5642204  82.3972863  57.0170271  89.8362048
  81.2348476  57.6533814  89.9488439  84.4472150  57.8147126  86.3267377
  83.5374869  57.6814864  85.5021441  85.6076772  58.3956262  86.0144433
  86.3801298  58.4261459  86.6644322  85.7603172  59.0656842  84.7255755
  84.9991602  59.8402439  84.6317820  87.1400788  59.7224603  84.6365516
  87.2976498  60.1026174  83.6272191  87.9091601  58.9865767  84.8712626
  87.3866831  61.1511694  85.7548475  85.5530269  58.0859120  83.5747810
  84.9191345  58.4257091  82.5688186  86.1126429  56.8788158  83.6894889
  86.5786883  56.5956497  84.5396171  86.0634070  55.9349689  82.5820786
  86.6812716  56.3252899  81.7733808  86.4726852  54.9847725  82.9251784
  84.6570161  55.7077339  82.0629197  84.3938142  55.8162246  80.8610214
  83.7312587  55.3839840  82.9690065  83.9699411  55.2900088  83.9458886
  82.3595951  55.0958393  82.5608882  82.3571585  54.3416533  81.7739342
  81.5554466  54.5675281  83.7449822  82.0727515  53.7187035  84.1921865
  81.4014270  55.3377327  84.5007354  80.2049224  54.0829026  83.3495287
  79.8851034  52.8553715  82.8532232  80.7012219  52.1425776  82.7350061
  78.5369230  52.7863183  82.5996185  78.0462267  51.9822330  82.2352512
  77.9647141  53.9872364  82.9241101  76.6393546  54.3998907  82.8434163
  75.8957258  53.6969139  82.4679983  76.3522667  55.6740225  83.2444831
  75.3244568  56.0337109  83.1962023  77.3484399  56.5316799  83.7173486
  77.1068847  57.5459971  84.0350138  78.6626861  56.1244363  83.7969392
  79.4006263  56.8313280  84.1762136  78.9879751  54.8279317  83.3962386
  81.6908133  56.3290680  81.9735494  80.8950900  56.2221737  81.0342843
  81.9806350  57.5056704  82.5258856  82.5671161  57.5720073  83.3454822
  81.4151977  58.7339231  81.9789467  80.3263698  58.6834676  81.9816295
  81.8508332  59.9198257  82.8366103  82.9392838  59.8622656  82.8444450
  81.5394797  60.8338878  82.3309924  81.3314993  59.9307739  84.2731640
  81.5854208  58.9852199  84.7522801  81.9591008  61.0745252  85.0479221
  81.7052190  62.0205103  84.5696386  81.5812506  61.0719908  86.0703328
  83.0423225  60.9538752  85.0611454  79.8207733  60.0441931  84.2921629
  79.3854800  59.1947892  83.7657294  79.4693147  60.0504354  85.3239280
  79.5191235  60.9690673  83.8005186  81.8598376  58.9225933  80.5353021
  81.0500039  59.2324147  79.6509090  83.1571371  58.7431939  80.2841529
  83.8039291  58.5242773  81.0283538  83.6853024  58.9083437  78.9361288
  83.4184033  59.8863685  78.5357145  85.2071495  58.7882761  78.9565014
  85.4780851  57.7941499  79.3120393  85.7798220  59.0018518  77.5680416
  85.5096746  59.9960118  77.2119997  86.8655111  58.9121316  77.6044913
  85.3763332  58.2510863  76.8885944  85.7528704  59.7647645  79.8508784
  86.7097482  59.6883358  79.8628740  83.0875296  57.8821433  77.9878137
  82.7794008  58.1962542  76.8310920  82.8865190  56.6538513  78.4700484
  83.2016494  56.3865418  79.3916436  82.2546196  55.6394277  77.6341196
  82.7771808  55.5660731  76.6803648  82.3056417  54.2773257  78.3248930
  82.0697766  54.4377075  79.3769123  81.5350255  53.6540827  77.8712204
  83.6529302  53.5822472  78.2081465  83.8097669  53.3151358  77.1630845
  84.4265921  54.2822007  78.5237641  83.7223397  52.3300048  79.0666781
  84.7574313  51.9893254  79.0916154  83.4011421  52.5887785  80.0756219
  82.8382671  51.2220635  78.5230848  81.8254660  51.6112569  78.4188597
  83.2172988  50.9300268  77.5437235  82.8236792  50.0373156  79.4221246
  82.4720864  50.3076162  80.3295494  82.2270396  49.3235751  79.0288108
  83.7620059  49.6762689  79.5184951  80.8168683  56.0162793  77.3035473
  80.3810004  55.8565774  76.1612909  80.0667332  56.5180020  78.2836195
  80.4103175  56.5883642  79.2307723  78.6942608  56.9353260  78.0124328
  78.1177223  56.1166617  77.5817456  78.0179433  57.3799074  79.3083718
  78.5330276  58.2618419  79.6891342  76.5514196  57.7134731  79.0671331
  76.0355419  56.8318288  78.6867740  76.0908334  58.0274284  80.0038249
  76.4769519  58.5201996  78.3379229  78.1167947  56.3363010  80.2844415
  77.6913601  56.6175314  81.0977774  78.6616325  58.0605214  76.9860465
  77.8763087  58.0254718  76.0251666  79.5636794  59.0323527  77.1260794
  80.2202813  59.0381755  77.8935033  79.5672563  60.1635022  76.2038023
  78.5805043  60.6178549  76.1144534  80.5629609  61.2386782  76.6722574
  81.5253084  60.7687497  76.8751212  80.7347490  62.3016651  75.6002310
  79.7728386  62.7723928  75.3971425  81.4419893  63.0557493  75.9455840
  81.1128295  61.8404929  74.6878292  80.0959864  61.8643542  77.9748473
  80.0203625  61.0937933  78.7420623  80.8121021  62.6226265  78.2915506
  79.1198452  62.3263565  77.8271891  79.8853725  59.6836777  74.7964958
  79.1981333  60.0394204  73.8305442  80.9359387  58.8750852  74.6511044
  81.5110067  58.5833731  75.4284719  81.3219278  58.4546679  73.3100929
  81.3849613  59.3221639  72.6531480  82.6836928  57.7673438  73.3420720
  82.6398428  56.9752699  74.0895982  82.8592784  57.3295275  72.3594293
  83.8147747  58.7192413  73.6804294  83.9633706  59.3854552  72.8306181
  83.5178119  59.3031473  74.5516176  85.1050038  57.9886085  73.9795208
  85.8198390  58.6967239  74.3986656  84.9025122  57.2034002  74.7079056
  85.6829785  57.3729673  72.7210812  86.5174834  56.7297978  73.0004289
  84.9092319  56.7748578  72.2397493  86.1584183  58.4196409  71.7778939
  86.8757000  58.9737027  72.2235645  86.5372555  57.9806363  70.9509372
  85.3852095  59.0154651  71.5185856  80.2609798  57.5448624  72.7000896
  79.9662533  57.6459228  71.5037585  79.6689876  56.6529290  73.5023621
  79.9830004  56.5235201  74.4535448  78.5931529  55.8059822  73.0097903
  78.9033572  55.3106094  72.0897477  78.2406416  54.7373089  74.0452685
  78.0678915  55.2509487  74.9910120  77.3161155  54.2632389  73.7157094
  79.3139246  53.6776033  74.2333124  79.4470817  53.1598457  73.2834192
  80.2403297  54.1846153  74.5031487  78.9559045  52.6721752  75.3108702
  77.7494860  52.4844266  75.5733314  79.8811699  52.0676796  75.8941111
  77.3533952  56.6088350  72.6607097  76.4569307  56.0784757  71.9955004
  77.2822162  57.8672844  73.0922957  77.9609768  58.2366322  73.7426538
  76.1866303  58.7305621  72.6731487  75.3095625  58.1335817  72.4232173
  75.8124567  59.7044260  73.7922770  76.7141759  60.2083665  74.1401946
  74.8161409  60.7389286  73.2872143  73.9139125  60.2357372  72.9395335
  74.5609396  61.4235348  74.0960937  75.2592538  61.2992080  72.4639049
  75.2337502  58.9813801  74.8865641  74.9999174  59.5945430  75.5872450
  76.5369038  59.5107361  71.4109545  75.6911348  59.7313457  70.5452940
  77.7930114  59.9468622  71.2760145  78.4710247  59.8312100  72.0156237
  78.2005818  60.6599359  70.0683695  77.4159350  61.3485694  69.7549809
  79.4766030  61.4627441  70.3401538  80.2535133  60.7729895  70.6699255
  79.9537594  62.2087743  69.0862632  79.1775047  62.8991014  68.7561468
  80.8609239  62.7668278  69.3180562  80.1621390  61.4908720  68.2929821
  79.2250852  62.4224777  71.3726456  80.0245367  62.9258259  71.5432861
  78.4169785  59.7061812  68.8977917  78.0995059  60.0470792  67.7526521
  78.9439002  58.5125973  69.1579455  79.2404306  58.2840215  70.0959872
  79.1567017  57.5245907  68.1048703  79.1588677  58.0175748  67.1327278
  80.4994071  56.8129550  68.2957289  80.4717274  56.3449807  69.2797681
  80.5596011  56.0410847  67.5284657  81.7192774  57.7203635  68.1994780
  81.6074025  58.5176669  68.9342516  82.6022318  57.1277179  68.4387788
  81.8767567  58.3276132  66.8121536  80.9676276  58.8728213  66.5585170
  82.7221253  59.0156443  66.8201903  82.1115191  57.3107054  65.7931290
  81.3132447  57.0131470  65.2506197  83.2911431  56.7594835  65.5383140
  84.3774473  57.1028718  66.2113136  84.3174886  57.8008700  66.9388461
  85.2615557  56.6653948  65.9943667  83.3839482  55.8391207  64.5818368
  82.5606344  55.5705405  64.0621070  84.2772781  55.4133262  64.3799474
  78.0266221  56.5038086  68.0793754  76.9103469  56.5310925  67.6408514
  78.8545842  55.3999938  68.8372974  79.8445114  55.4826861  69.0197950
  78.1744295  54.1733981  69.2480058  77.9088475  54.3407438  70.2918261
  76.8781289  53.9966205  68.4320116  76.3348957  54.9415989  68.4283103
  77.1899110  53.5817742  66.9911388  77.7327698  52.6365781  66.9940102
  76.2587821  53.4637110  66.4369193  77.8004043  54.3493545  66.5155138
  76.1438825  52.8808959  68.9488034  75.3358071  52.7676873  68.4430384
  79.0935666  52.9690598  69.0721247  78.7133968  51.9268789  68.5328299
  80.3294461  53.1151058  69.5347835  80.6111718  54.0142916  69.8983698
  81.3289672  52.0675001  69.4402062  80.8883973  51.1442998  69.8166348
  81.8396894  51.8210494  68.0095214  82.4991586  50.9545463  68.0582230
  80.9665925  51.5789001  67.4035795  82.5886157  52.9968763  67.3776547
  81.9262229  53.8623758  67.3933770  83.4584690  53.1942966  68.0041368
  83.0426811  52.7312964  65.9480090  84.2700634  52.7482323  65.6790262
  82.1690893  52.4933489  65.0869652  82.4325811  52.4516129  70.4132257
  82.2634151  53.3379592  71.2551040  83.5908749  51.7946955  70.3226285
  82.8172576  50.7033887  70.7801946  82.7317209  49.9912287  69.9594559
  81.8279622  51.0829379  71.0358039  83.5400707  50.1268057  71.9761638
  84.2649674  49.3744428  71.6654005  82.8343075  49.6825365  72.6780359
  84.2311295  51.3488118  72.5942746  85.1405866  51.1184744  73.1491903
  83.5524171  51.9174295  73.2299813  84.5742651  52.1540267  71.3509485
  84.4244119  53.2053834  71.5964915  86.0210702  51.9363861  70.9063370
  86.3683550  52.0413632  69.7265700  86.8825218  51.6271896  71.8729748
  86.5451208  51.5755685  72.8235511  88.2979551  51.3748761  71.6269171
  88.5059499  50.3133772  71.4925393  88.7691253  52.1569715  70.3718161
  88.0500811  51.9977243  69.5682514  88.8755726  53.6470648  70.6695403
  89.5948314  53.8071527  71.4727459  89.2074318  54.1740472  69.7749679
  87.9007339  54.0277731  70.9742532  90.0995194  51.6240368  69.8426876
  90.2817443  52.1041736  68.8812493  90.8729789  51.9232393  70.5500332
  90.1291440  50.1242771  69.6695829  89.3562098  49.8243464  68.9619714
  91.1051927  49.8209296  69.2908897  89.9474419  49.6434119  70.6307556
  89.1080568  51.8151291  72.8525408  88.8264055  52.8466755  73.4639307
  90.1215347  51.0475580  73.2330160  90.2693037  50.1278629  72.8426001
  91.0200175  51.5033410  74.2925897  91.7663347  50.7335118  74.4887345
  91.7431133  52.7978686  73.8966911  92.2205489  53.2216053  74.7802077
  92.5035888  52.5555302  73.1543643  90.8034687  53.8357790  73.3078982
  90.1065679  53.5727828  72.3261445  90.7760633  55.0241291  73.9128363
  90.1689905  55.7515739  73.5629987  91.3625079  55.1911357  74.7180023
  90.2403543  51.7007843  75.5906434  89.8831135  52.8099427  75.9835667
  89.9585244  50.5179154  76.3066964  90.3696064  49.5967017  76.3564594
  88.7522939  50.7794337  77.0828988  88.1313185  51.5196127  76.5782962
  87.9233995  49.4963112  77.2843532  87.0594761  49.7283814  77.9071532
  87.4504518  48.9459353  75.9456360  88.3138907  48.7131806  75.3224200
  86.8670842  48.0400286  76.1103007  86.8313584  49.6900724  75.4445532
  88.7121780  48.5088237  77.9587670  88.1909141  47.7120631  78.0814731
  89.0862440  51.3782318  78.4467545  88.2136725  51.5149356  79.3032567
  90.3536210  51.7289188  78.6449137  91.0438724  51.4730835  77.9533932
  90.7992282  52.4391813  79.8349206  90.0210757  52.4069383  80.5975072
  92.0718270  51.8130935  80.4082993  92.8730126  51.9058725  79.6750913
  92.4797236  52.5137605  81.6963615  91.6791690  52.4210022  82.4302606
  93.3868530  52.0543143  82.0889485  92.6656870  53.5684792  81.4936631
  91.8441938  50.4244931  80.6788657  92.6437004  50.0333207  81.0385511
  91.0466328  53.8963076  79.4710307  91.7842272  54.1865640  78.5231601
  90.4309843  54.8059886  80.2206222  89.8686430  54.5001999  81.0018808
  90.5023458  56.2310591  79.9383059  91.2806819  56.4163145  79.1980542
  89.1702722  56.7534942  79.3895212  88.4159864  56.5096104  80.1376340
  89.2524450  57.8364291  79.2967871  88.7679474  56.1636374  78.0585281
  89.4939347  56.4338913  76.9083058  90.3699765  57.0788897  76.9763297
  89.1226008  55.9000526  75.6903328  89.7036777  56.1148926  74.7935077
  88.0099520  55.0927805  75.6127353  87.6353646  54.5591566  74.4032102
  88.2181916  54.8139310  73.6841814  87.2705933  54.8155792  76.7394003
  86.3898703  54.1763600  76.6775434  87.6493154  55.3512918  77.9510565
  87.0660485  55.1388909  78.8470396  90.8746823  56.9777815  81.2122121
  91.0348523  56.3877415  82.2840500  91.0142377  58.2940593  81.0853459
  90.9669426  58.7036951  80.1633584  91.3105667  59.1651693  82.2130620
  90.9184886  58.7263968  83.1305872  92.8258758  59.3515115  82.3671817
  93.0110109  60.0050433  83.2196607  93.2791076  58.3775042  82.5515475
  93.3934634  59.9230137  81.2027459  94.3396433  60.0280918  81.3264466
  90.5751493  60.4839987  81.9934802  89.7124172  60.5979037  81.1189106
  90.9186307  61.4904127  82.7985563  91.6374428  61.3776660  83.4990538
  90.2295764  62.7736144  82.7149235  89.1590073  62.6337657  82.8646672
  90.7532552  63.7167199  83.7927118  90.7866484  63.1400031  84.7170396
  91.7648658  64.0080353  83.5100824  89.9137111  64.9536301  84.0018500
  88.5294140  64.8854855  84.0159182  88.0485439  63.9183065  83.8695341
  87.7642429  66.0113546  84.2102398  86.6763893  65.9444890  84.2245738
  88.3803499  67.2287955  84.3780814  87.6181102  68.3565181  84.5709990
  86.6751270  68.1765695  84.5701230  89.7528086  67.3236443  84.3631546
  90.2421123  68.2876391  84.5024254  90.5079803  66.1907443  84.1707242
  91.5956935  66.2579550  84.1492120  90.4058850  63.4095086  81.3427632
  89.4503450  63.9499412  80.7684316  91.6308121  63.3767273  80.8156948
  92.3959600  62.9487542  81.3171796  91.9120678  64.0049009  79.5313782
  91.7763171  65.0846858  79.5924968  93.3573291  63.7163624  79.1217110
  93.4364250  62.6709221  78.8235522  93.7777639  64.6055428  77.9647310
  93.6993700  65.6512008  78.2623100  94.8089141  64.3826636  77.6905900
  93.1272176  64.4219155  77.1096455  94.2260591  63.9482767  80.2360076
  95.1327887  63.7669596  79.9780037  90.9427165  63.5156026  78.4647769
  90.3723768  64.3128633  77.7125409  90.7477095  62.1994908  78.3842038
  91.2560217  61.5654209  78.9839316  89.8478406  61.6360264  77.3896899
  90.0004201  62.1258080  76.4279557  90.1193711  60.1427135  77.2251852
  90.3392313  59.7308403  78.2101325  89.2157357  59.6778046  76.8309736
  91.2791334  59.8637212  76.2911431  91.3004949  60.4345880  75.1819863
  92.1708221  59.0726857  76.6648476  88.3845031  61.8613729  77.7358824
  87.5197705  61.5652266  76.9062457  88.0848651  62.3655585  78.9333030
  88.7759830  62.4184040  79.6679204  86.7266349  62.8052193  79.2291781
  86.0071208  62.1578108  78.7279189  86.4723494  62.7436405  80.7373362
  86.6750422  61.7374863  81.1043084  87.1165080  63.4549762  81.2542128
  85.0559640  63.0726022  81.1395770  84.0185026  63.0208130  80.2263144
  84.2308094  62.7356418  79.1959246  82.7295760  63.3242319  80.6052566
  81.9223459  63.2763013  79.8743784  82.4608185  63.6869170  81.9025672
  81.4412805  63.9289940  82.2026355  83.4783616  63.7442101  82.8213950
  83.2668378  64.0308528  83.8515376  84.7678972  63.4393170  82.4417778
  85.5762211  63.4855674  83.1715540  86.4889895  64.2149750  78.7059692
  85.4784335  64.4810454  78.0427354  87.4161894  65.1319416  78.9870559
  88.2136433  64.9326431  79.5739518  87.2401141  66.4953453  78.4991544
  86.2401282  66.8490796  78.7501512  88.2661176  67.4354300  79.1374251
  87.7700891  68.3984524  79.2584328  88.4974547  67.0206549  80.1185187
  89.5528195  67.6240362  78.3514099  90.0297667  66.6521186  78.2249249
  89.3167633  68.0424232  77.3729765  90.5219088  68.5505676  79.0523868
  90.4673592  68.7163845  80.2692312  91.4130439  69.1666535  78.2854511
  92.0837862  69.7964728  78.7020248  91.4162758  69.0027837  77.2888380
  87.3293796  66.5427948  76.9796498  86.5928391  67.2970848  76.3357828
  88.2193134  65.7435880  76.3873320  88.8456726  65.1633593  76.9268764
  88.3484622  65.7356993  74.9343106  88.4970168  66.7503987  74.5649654
  89.5513314  64.8868853  74.5267454  90.4291356  65.3342895  74.9929948
  89.3909733  63.8899094  74.9371407  89.7699609  64.7876392  73.0295422
  88.9160422  64.2774332  72.5838815  89.8456892  65.7945538  72.6190666
  91.0407221  64.0162343  72.7156388  91.8915430  64.5876750  73.0866621
  90.9969175  63.0558710  73.2293343  91.1988355  63.7849646  71.2240556
  90.3295069  63.2302637  70.8709618  91.2346371  64.7560748  70.7303325
  92.4362632  63.0216678  70.9068150  92.4030934  62.1216100  71.3638660
  92.5035556  62.8896688  69.9077414  93.2419477  63.5356959  71.2335361
  87.0847164  65.2200884  74.2596181  86.7619470  65.6456875  73.1454407
  86.3591699  64.3091161  74.9089044  86.6805624  63.9007111  75.7749365
  85.1004691  63.8346120  74.3460232  85.2247727  63.6990332  73.2716554
  84.7225341  62.4923379  74.9665000  84.5856900  62.6138479  76.0410273
  83.7946512  62.1338533  74.5208292  85.5169727  61.7693569  74.7813916
  83.9798858  64.8450546  74.5533030  83.1595640  65.0647033  73.6504738
  83.9270793  65.4693989  75.7316950  84.5508324  65.2338340  76.4903390
  82.8871335  66.4629231  75.9746031  81.9012017  66.0715490  75.7238761
  82.8836517  66.8947666  77.4505611  83.8818306  67.2352950  77.7258401
  81.8890277  68.0202601  77.6638883  80.8904749  67.6803153  77.3892416
  81.8954240  68.3175947  78.7125310  82.1655418  68.8726754  77.0433806
  82.5408848  65.7170484  78.3389195  83.2807686  64.9288224  78.1997295
  82.5415630  66.0353168  79.3814186  81.5532773  65.3381779  78.0758805
  83.0647274  67.6539365  75.0459696  82.0806771  68.2713907  74.6199210
  84.3111775  68.0009717  74.7191167  85.1087306  67.5434163  75.1370299
  84.5524934  69.0980031  73.7880578  84.1163100  70.0189998  74.1748503
  86.0549748  69.3082483  73.6057818  86.5534490  68.3447822  73.7123456
  86.2379694  69.7028447  72.6063286  86.6390976  70.2709403  74.6212412
  87.7980737  70.6700646  74.5209762  85.8378289  70.6442044  75.6105746
  86.1750752  71.2842634  76.3153364  84.8942779  70.2865876  75.6544207
  83.8825433  68.8300926  72.4472533  83.1619992  69.6849368  71.9196789
  84.1079496  67.6431356  71.8786427  84.7339210  66.9671802  72.2925792
  83.4936616  67.3216532  70.5954383  83.7018969  68.1146268  69.8771555
  84.0529718  66.0087247  70.0491308  83.9558896  65.2629850  70.8381470
  83.4325333  65.7215867  69.2001857  85.5014369  66.0937503  69.6101268
  85.6016600  66.9167180  68.9024685  86.1184662  66.2917252  70.4865872
  85.9564534  64.8024099  68.9522004  85.7769001  63.9783078  69.6426461
  85.3718806  64.6495827  68.0449970  87.4318030  64.8546661  68.6001411
  87.9992427  64.9766793  69.5227600  87.7043588  63.9104203  68.1287470
  87.7423806  65.9793096  67.6742207  87.4902970  66.8543933  68.1110066
  88.7304253  65.9798806  67.4647755  87.2170035  65.8662103  66.8190678
  81.9795187  67.2418534  70.7119038  81.2588129  67.6885613  69.8104139
  81.4713986  66.6712523  71.8065341  82.0523732  66.2559304  72.5207298
  80.0237496  66.5841325  71.9560145  79.5963609  66.0468268  71.1094091
  79.6637996  65.8384680  73.2392909  80.0143961  64.8196078  73.0746543
  80.2090823  66.2794096  74.0737593  78.1667779  65.8169421  73.5624543
  77.8257388  66.8407348  73.7162125  77.3770147  65.1851146  72.4269504
  77.7171964  64.1610822  72.2728955  76.3166672  65.1810751  72.6794331
  77.5302657  65.7596418  71.5134226  77.9091163  65.0778369  74.8599809
  78.4374922  65.5753633  75.6732372  76.8396644  65.0744428  75.0706043
  78.2645902  64.0513009  74.7707562  79.3992709  67.9732303  71.9497187
  78.4059775  68.2194757  71.2564687  79.9816280  68.9042964  72.7082002
  80.7521765  68.6768598  73.3202681  79.4787710  70.2740221  72.7087530
  78.4196151  70.2826337  72.9660735  80.2379225  71.1102734  73.7375434
  81.2861810  70.8987668  73.5265503  80.0298850  72.1592646  73.5267402
  79.9467477  70.8198490  75.2055914  79.9991896  69.7447217  75.3772074
  80.9657906  71.5216736  76.0824446  80.9136229  72.5969540  75.9117128
  80.7517582  71.3098393  77.1300214  81.9654644  71.1633774  75.8367282
  78.5386647  71.2592577  75.5637131  77.8208597  70.7189932  74.9464856
  78.3469281  71.0448583  76.6150794  78.4356289  72.3299081  75.3871051
  79.6009705  70.8993229  71.3257302  78.6621268  71.5340316  70.8316621
  80.7594200  70.7304925  70.6832435  81.5177595  70.2080940  71.0981175
  80.9773889  71.3491943  69.3817787  80.8830896  72.4330878  69.4479732
  82.3796990  71.0107335  68.8735065  82.4694808  69.9280508  68.7849758
  82.6338415  71.6521691  67.5194619  82.5446845  72.7349593  67.6073037
  83.6373111  71.3972101  67.1786633  81.9020698  71.2850636  66.7998479
  83.3584794  71.4770916  69.8105630  84.2371893  71.2631035  69.4885716
  79.9265322  70.9013449  68.3777860  79.4549357  71.7016073  67.5628861
  79.5456225  69.6271302  68.4202203  79.9510706  69.0010837  69.1012319
  78.5943337  69.0822113  67.4617768  78.6654715  69.6903679  66.5600095
  78.9756802  67.6407026  67.1113291  78.9004563  67.0175366  68.0024551
  78.2994136  67.2614256  66.3452268  79.9989286  67.6158864  66.7365678
  77.1471931  69.1158408  67.9391113  76.2583328  68.7276265  67.1747305
  76.8748006  69.5662808  69.1659104  77.6169815  69.9024729  69.7627704
  75.5204042  69.5208731  69.7054755  74.8607806  68.9824011  69.0250022
  75.5298912  68.7951049  71.0548840  76.0735238  69.4036715  71.7775247
  74.5012879  68.6647906  71.3911778  76.1526460  67.5293817  70.9412559
  76.1478867  67.0925296  71.7960877  74.8892819  70.8993359  69.8571663
  73.8189926  71.1464254  69.2955823  75.5105724  71.8035050  70.6072965
  76.3970879  71.5917009  71.0424157  74.9014539  73.1062662  70.8730799
  73.9698824  72.9680219  71.4218625  75.8335845  73.9881280  71.7064377
  76.8294762  73.6230594  71.4553920  75.7346592  75.0242074  71.3826269
  75.6268787  73.9052714  73.2210318  74.5596837  73.9641804  73.4348666
  76.1811625  72.6022907  73.7685350  77.2484832  72.5428679  73.5554753
  76.0236916  72.5642944  74.8464311  75.6698460  71.7628592  73.2973552
  76.2565446  75.1001183  73.9201198  75.7985978  76.0189066  73.5537699
  76.0964551  75.0185729  74.9952118  77.3265190  75.1204687  73.7131424
  74.5355721  73.8169221  69.5744196  73.6581795  74.2891664  69.4891864
  75.1777038  73.8082314  68.8082065  89.0503668  60.8815152  87.3781565
  34.1372708  65.8058368  83.1771515  35.0062111  65.3608085  82.9183204
  33.3815119  65.1519885  83.0308256  34.2548411  66.2485723  84.0772971
  33.8903956  66.8952207  82.2416324  32.9543772  66.7233973  81.7101764
  33.8049895  68.2529990  82.9619698  33.5187688  69.0181307  82.2403388
  32.7775708  68.2028156  84.0810621  33.0633818  67.4381758  84.8033761
  32.7326423  69.1721667  84.5774883  31.7988843  67.9620647  83.6659569
  35.0871840  68.5908332  83.5052961  35.0315406  69.4377268  83.9539333
  34.9895711  66.9550921  81.1868605  35.8073922  66.0425418  81.0778211
  35.0009185  68.0380064  80.4065869  34.3145234  68.7706972  80.5167013
  35.9752473  68.1596486  79.3279681  36.0224699  67.2316165  78.7582087
  35.5653165  69.2915136  78.3851541  35.3454411  70.1802240  78.9767180
  36.3951690  69.5010942  77.7102313  34.3428226  68.9458312  77.5572540
  34.4240990  68.1834058  76.5950427  33.1979501  69.5064019  77.9311569
  32.3516435  69.3113748  77.4155704  33.1790935  70.1250430  78.7292975
  37.3796548  68.3982540  79.8693931  38.3454208  67.7948155  79.3890140
  37.5153861  69.2764510  80.8648854  36.7226525  69.7856175  81.2287842
  38.8380254  69.5769098  81.4048519  39.5227412  69.8325433  80.5962019
  38.7527743  70.7617908  82.3652051  37.9694823  70.5397554  83.0899486
  39.7114364  70.8364517  82.8785206  38.4441987  72.0808475  81.6738755
  39.1102318  72.1884012  80.8177604  37.4104774  72.0589436  81.3288500
  38.6262473  73.2807685  82.5832609  38.6919390  73.1450943  83.8041274
  38.7085732  74.4660159  81.9887048  38.8301740  75.2996619  82.5457946
  38.6491814  74.5279665  80.9823569  39.4437097  68.3602686  82.0945995
  40.6497169  68.1085691  81.9797567  38.6245128  67.5966653  82.8219691
  37.6664148  67.8674695  82.9917120  39.1159337  66.3702068  83.4389604
  39.9631191  66.5918683  84.0879921  38.0119002  65.7290803  84.2788978
  37.1305741  65.7827904  83.6397744  38.2742414  64.6847464  84.4481426
  37.7113701  66.4024032  85.6186903  37.7724425  67.4833480  85.4924789
  36.3212041  66.0272531  86.1069379  36.2595031  64.9464253  86.2338362
  36.1265019  66.5163258  87.0614010  35.5795706  66.3496777  85.3761011
  38.7621286  66.0226172  86.6480737  39.7441683  66.3442246  86.3012797
  38.5349551  66.5093659  87.5965299  38.7622377  64.9413828  86.7860278
  39.6166246  65.3925344  82.3845150  40.6776887  64.7789916  82.5470364
  38.8641472  65.2362168  81.2929438  37.9651040  65.6886451  81.2085087
  39.3000686  64.3571729  80.2135318  39.4899422  63.3557248  80.5997298
  38.2135264  64.2696885  79.1428336  37.2846261  64.0077272  79.6494101
  38.1184865  65.2614778  78.7007686  38.4980722  63.2527065  78.0488783
  39.3510514  63.5967068  77.4639072  38.7388801  62.2967357  78.5138872
  37.3185489  63.0543889  77.1156447  36.2410380  63.6072938  77.3344584
  37.5186505  62.2625606  76.0685509  36.7672255  62.0955672  75.4146587
  38.4213471  61.8309548  75.9308675  40.6085100  64.8455321  79.6072428
  41.5026669  64.0427392  79.3110319  40.7326077  66.1572667  79.4007938
  39.9687398  66.7904444  79.5897148  41.9623041  66.7052376  78.8377098
  42.1791623  66.2313378  77.8803746  41.8080897  68.2110419  78.6140755
  41.0544905  68.3469474  77.8383712  41.4497836  68.6442851  79.5478941
  43.0893328  68.8994967  78.1980706  43.5200997  68.8737959  76.8797719
  42.9187629  68.3478397  76.1382441  44.6912958  69.5013515  76.5004678
  45.0196288  69.4741183  75.4614501  45.4464516  70.1642019  77.4451265
  46.6134759  70.7910962  77.0783186  46.8073796  70.7047954  76.1420744
  45.0381089  70.2037210  78.7593991  45.6335687  70.7289285  79.5061823
  43.8681513  69.5737382  79.1288253  43.5398646  69.5995828  80.1678922
  43.1492567  66.4158343  79.7451338  44.2138336  65.9926314  79.2802324
  42.9833303  66.6319724  81.0508541  42.1328001  67.0360070  81.4161675
  44.0656731  66.3395682  81.9830530  44.9672394  66.8762154  81.6876089
  43.6765680  66.7783333  83.3937756  42.6985289  66.3239556  83.5521412
  44.3918901  66.3546538  84.0986940  43.5783326  68.2874802  83.6133717
  43.0042625  68.7280803  82.7982546  42.8930776  68.5883177  84.9352111
  43.4668547  68.1484000  85.7509016  42.8314119  69.6674581  85.0757605
  41.8885400  68.1652762  84.9288476  44.9539659  68.9278657  83.5653149
  45.4076315  68.7428349  82.5916361  44.8609098  70.0022381  83.7239524
  45.5824395  68.4989621  84.3458030  44.4169418  64.8590001  81.9633978
  45.5968008  64.4913080  81.9627653  43.4018822  63.9933920  81.9427415
  42.4444557  64.3149595  81.9374343  43.6484002  62.5571953  81.9894526
  44.2968700  62.3154587  82.8315627  42.3274045  61.8087336  82.1599032
  42.0051035  62.0872229  83.1632302  41.6196341  62.2008417  81.4295524
  42.3835692  60.2826945  82.0474039  42.7136862  60.0172528  81.0430811
  43.3460265  59.6975484  83.0678900  43.0162860  59.9621970  84.0725447
  43.3676568  58.6124245  82.9671973  44.3453458  60.0977902  82.8968110
  40.9951764  59.6850909  82.2171813  40.3347201  60.0731128  81.4417228
  41.0535720  58.5998098  82.1343782  40.6008842  59.9534920  83.1972799
  44.3757461  62.0716258  80.7416701  45.2712104  61.2241954  80.8315678
  44.0049630  62.5857607  79.5700549  43.3586699  63.3612201  79.5373849
  44.4663306  62.0175421  78.3102460  44.8585206  61.0134542  78.4717813
  43.2972560  61.9337744  77.3214232  42.8727784  62.9339242  77.2341399
  43.7068485  61.6281807  76.3586426  42.2120028  60.9586604  77.7418363
  42.6689170  59.9816766  77.8994205  41.7761929  61.3104535  78.6769371
  41.1254374  60.8445264  76.6893260  40.6960898  61.8304796  76.5114050
  41.5624191  60.4668987  75.7649106  40.0609443  59.9398493  77.1064731
  39.2311540  60.3597542  77.5004621  40.1128833  58.6188526  77.0015730
  41.1718495  58.0052273  76.4986340  41.9640504  58.5473621  76.1846155
  41.1830588  56.9975513  76.4310836  39.0754309  57.8947931  77.4130584
  38.2634798  58.3551897  77.7988959  39.1045283  56.8880274  77.3377267
  45.6106931  62.7888924  77.6637545  46.1914977  62.2904420  76.6941441
  45.9497374  63.9785289  78.1594316  45.4402459  64.3741537  78.9366052
  47.0190168  64.7688627  77.5592989  47.5520153  64.2150517  76.7864438
  46.4640025  66.0650651  76.9414927  45.9958375  66.6599537  77.7257301
  47.5853066  66.8696314  76.2949826  48.0536798  66.2755271  75.5102741
  47.1756505  67.7827454  75.8631200  48.3297077  67.1268786  77.0485027
  45.3721481  65.7460847  75.9301523  44.5605607  65.2140885  76.4265473
  44.9902132  66.6730962  75.5025133  45.7826487  65.1223093  75.1361156
  48.0837270  65.0820530  78.6017628  49.2368717  64.6566679  78.4748850
  47.7035707  65.8241493  79.6424502  46.7531288  66.1542606  79.7306883
  48.6780890  66.2460983  80.6430336  49.5784996  66.6595020  80.1886578
  48.0676211  67.3059443  81.5774726  47.2768901  66.8452177  82.1695661
  49.1328135  67.8696457  82.5057964  49.9237126  68.3309789  81.9143987
  48.6859315  68.6178186  83.1604981  49.5531160  67.0646157  83.1086016
  47.4154450  68.4168461  80.7685794  46.6256195  67.9975404  80.1453133
  46.9890460  69.1574131  81.4452211  48.1636642  68.8927741  80.1347328
  49.1868614  65.0432181  81.4256720  50.3946276  64.8805285  81.6335801
  48.2696247  64.1859325  81.8780837  47.2833011  64.3467136  81.7317468
  48.6720162  63.0190556  82.6535200  49.2679802  63.3272706  83.5125482
  47.4332245  62.2781419  83.1587041  46.9335778  63.0388214  83.7585534
  46.8104662  62.0260501  82.3003791  47.6605398  61.0244524  84.0102583
  46.7679987  60.8485597  84.6107023  47.9386378  59.7999056  83.1416367
  48.8313645  59.9748786  82.5412016  48.0949129  58.9295984  83.7790096
  47.0884452  59.6198234  82.4837283  48.7872529  61.2413313  85.0108682
  48.5329480  62.0705058  85.6710940  48.9278141  60.3365832  85.6022858
  49.7088355  61.4724048  84.4766496  49.5524327  62.0952146  81.8240825
  50.5881747  61.6162422  82.2980034  49.1580217  61.8343556  80.5757198
  48.2828726  62.1860943  80.2144811  49.9658275  60.9769028  79.7165118
  50.1375471  60.0172564  80.2040467  49.2451117  60.7295762  78.3916177
  49.1096717  61.7005176  77.9151432  49.9038430  60.1137010  77.7793508
  47.8981759  60.0433531  78.5330949  47.2900564  60.6208346  79.2293754
  47.4157982  60.0289761  77.5557479  48.0429201  58.6212440  79.0468816
  48.7224151  58.0805996  78.3880271  48.4628470  58.6554079  80.0521645
  46.7011124  57.9107641  79.0829960  46.0301371  58.4839555  79.7227962
  46.3022838  57.8859114  78.0688869  46.8169207  56.5213478  79.6044571
  47.1860627  56.5441798  80.5443043  45.9049885  56.0872604  79.6113632
  47.4382841  55.9899265  79.0115000  51.3379416  61.5867040  79.4668831
  52.3502016  60.8764471  79.4617904  51.3944566  62.9031845  79.2602093
  50.5572971  63.4674109  79.2300107  52.6755193  63.5534035  79.0120108
  53.2012375  63.0611921  78.1938131  52.4575564  65.0198988  78.6404173
  52.0045177  65.5355803  79.4871337  53.7810834  65.6865030  78.2895479
  54.2345261  65.1716216  77.4425612  53.6048805  66.7298539  78.0278790
  54.4524994  65.6358285  79.1467137  51.5710148  65.1041004  77.5173768
  51.4351969  66.0256756  77.2853144  53.5873154  63.4406020  80.2262339
  54.7671604  63.0946273  80.1011089  53.0560429  63.7281066  81.4153607
  52.0856315  63.9920448  81.5088367  53.8898131  63.7295408  82.6089398
  54.8607211  64.1708176  82.3837474  53.2255760  64.5489724  83.7162857
  52.1615051  64.5220231  83.4814962  53.3962768  64.0725857  84.6816960
  53.6977125  66.0025107  83.7748549  54.7861028  66.0216274  83.8309084
  53.2415410  66.7552303  82.5369434  52.1531602  66.7369425  82.4804500
  53.5846683  67.7883355  82.5922423  53.6589720  66.2813448  81.6485267
  53.2007906  66.6877568  85.0358689  53.5830178  66.1616241  85.9106181
  53.5512202  67.7197742  85.0513751  52.1109915  66.6743639  85.0519158
  54.1887020  62.3277608  83.1181266  55.1144926  62.1607383  83.9181900
  53.4339953  61.3197686  82.6788677  52.6590288  61.4800304  82.0512989
  53.6802422  59.9611974  83.1380363  53.8934955  59.9609894  84.2069713
  52.4477649  59.0922589  82.8855320  51.5560758  59.5616564  83.3010507
  52.3102283  58.9355575  81.8156589  52.5462286  57.7392977  83.5058020
  52.9581650  56.5880601  82.9030055  53.2457204  56.6564142  81.8538443
  52.9170083  55.5468350  83.7964491  53.1758165  54.5908162  83.5985957
  52.4726196  56.0167735  85.0032699  52.2694809  55.3491832  86.2056288
  52.4829543  54.2812644  86.2512042  51.8102931  56.0830302  87.2641482
  51.6338847  55.5927024  88.2215189  51.5601599  57.4537271  87.1483451
  51.1967833  58.0290832  87.9998275  51.7645860  58.1186950  85.9573204
  51.5544042  59.1875297  85.9183751  52.2300304  57.3942259  84.8572931
  54.8918692  59.3338728  82.4649532  55.4226617  58.3405799  82.9741081
  55.3397718  59.8906219  81.3388432  54.8972902  60.7325957  80.9991531
  56.4117454  59.3082641  80.5482149  56.6709542  58.3225613  80.9346084
  55.9577634  59.1593521  79.0875101  54.9439815  58.7598437  79.1146853
  55.9410715  60.1626364  78.6617846  56.8343925  58.2592387  78.2294954
  57.8781072  58.4566855  78.4739855  56.5974649  57.2209891  78.4618853
  56.6042973  58.5122418  76.7447683  56.9454525  59.5213934  76.5138463
  57.1956112  57.7912851  76.1802607  55.1369851  58.3734827  76.3640782
  54.7897886  57.3935986  76.6917706  54.5742363  59.1498201  76.8824536
  54.9300765  58.5074159  74.8966356  55.4511054  57.7878692  74.4161347
  53.9473519  58.4097875  74.6849258  55.2513386  59.4154946  74.5928547
  57.6965985  60.1212015  80.5939762  58.7371432  59.6284903  80.1481025
  57.6555065  61.3394489  81.1271869  56.7975027  61.7035047  81.5162784
  58.8308382  62.1973863  81.1254819  59.1506289  62.3895401  80.1013189
  58.5071788  63.5329855  81.7948737  57.5581212  63.9212797  81.4252569
  58.4479561  63.3977718  82.8748320  59.5294928  64.5987792  81.5522241
  60.6203066  64.7852175  82.3735894  61.3430706  65.7935062  81.9196202
  62.2539303  66.0994279  82.4342515  60.7601749  66.2685222  80.8346882
  61.0888728  67.0413044  80.2735597  59.6227371  65.5399823  80.5834913
  58.9984511  65.7833029  79.7237452  59.9865578  61.5111357  81.8433518
  59.7904043  60.6737823  82.7264872  61.2085041  61.8753549  81.4524110
  61.3361053  62.5872915  80.7474545  62.3913070  61.2180419  81.9922384
  62.2814857  60.1358683  81.9219613  63.6303588  61.6355783  81.2009894
  63.7201168  62.7182882  81.2892060  64.4902723  61.1605568  81.6732217
  63.5822677  61.2497048  79.7321729  63.0775196  60.2879484  79.6407676
  63.0188154  62.0082481  79.1888171  64.9607301  61.1340290  79.1128147
  65.9749533  61.2600574  79.7985020  65.0027272  60.8940290  77.8081506
  65.8946139  60.8071914  77.3422120  64.1426070  60.7993320  77.2872600
  62.6087541  61.5183606  83.4673735  63.4580852  60.8756258  84.0923005
  61.8770462  62.4784219  84.0333212  61.2647692  63.0308228  83.4501665
  61.9603691  62.8040658  85.4491744  62.8076768  62.2889522  85.9017525
  62.1515415  64.3111222  85.6292385  61.3879927  64.8462776  85.0647024
  62.0764649  64.5772541  86.6835807  63.4826832  64.8259076  85.1486808
  64.5804541  63.9896527  85.0411116  64.4780779  62.9375333  85.3069382
  65.7933262  64.4746538  84.6033582  66.6492348  63.8047600  84.5211174
  65.9248949  65.8027032  84.2702284  66.8846238  66.1862528  83.9239482
  64.8452088  66.6460010  84.3742850  64.9471542  67.6989059  84.1114186
  63.6329456  66.1595257  84.8113634  62.7758454  66.8276784  84.8953339
  60.7250515  62.3418113  86.2155368  60.4932135  62.7922587  87.3411216
  59.9243517  61.4524572  85.6267598  60.1658733  61.0366998  84.7385524
  58.6440934  61.1010132  86.2290570  58.2333557  61.9939253  86.7003337
  57.6720374  60.6281334  85.1478573  58.0652614  59.7292821  84.6729454
  56.7051458  60.4064359  85.5995996  57.5517060  61.4110688  84.3991037
  58.7788899  60.0302709  87.3027566  58.0328681  60.0547527  88.2874358
  59.7100026  59.0931336  87.1392517  60.3996407  59.1565210  86.4040778
  59.6760470  57.8820684  87.9538504  58.7296029  57.3607806  87.8103177
  60.8202037  56.9436030  87.5439463  60.7120582  56.0004359  88.0795204
  60.7757035  56.7585586  86.4706904  62.1938053  57.4433769  87.8337923
  63.0285981  58.0824030  86.9673965  62.6543516  58.2514718  85.9577158
  64.2138531  58.3861630  87.5895497  64.9968918  58.8616999  87.1643267
  64.1616327  57.9402013  88.8825091  65.1112486  58.0150900  89.8957047
  66.0664087  58.4939314  89.6801155  64.7824179  57.4784579  91.1075246
  65.5014106  57.5187822  91.9257687  63.5393720  56.8751457  91.3260840
  63.2883367  56.4493720  92.2975764  62.5947846  56.8002304  90.3219280
  61.6406994  56.3219728  90.5434945  62.9023919  57.3400512  89.0721423
  59.6940511  58.1488987  89.4555372  58.9433888  57.4696883  90.1774433
  60.4892877  59.0806439  89.9927183  61.2494399  60.1615038  89.3458098
  60.5840435  60.9904209  89.1044711  61.7153017  59.7923598  88.4321335
  62.2500685  60.5167341  90.3897507  62.5957843  61.5401507  90.2441548
  63.1000550  59.8361569  90.3403643  61.5252607  60.3671373  91.6775102
  60.9904318  61.2870225  91.9138748  62.1996262  60.1187290  92.4970370
  60.5240507  59.2227980  91.4573919  60.8905596  58.2823863  91.8689684
  59.1724181  59.5474220  92.0653151  58.9039628  59.1471037  93.2042352
  58.3132707  60.2600276  91.3426194  58.5730579  60.5418099  90.4081630
  57.0265128  60.6983702  91.8629048  57.0572646  60.7351684  92.9518490
  56.6957510  62.0967397  91.3353746  56.5137028  62.0637205  90.2611923
  55.8095053  62.4788610  91.8419829  57.7857612  63.1067343  91.5557030
  58.8799791  63.1621976  90.7105450  58.9468353  62.4605582  89.8790811
  59.8794931  64.0918072  90.9107317  60.7381720  64.1215830  90.2399972
  59.7925538  64.9810981  91.9566691  60.5794364  65.7186638  92.1145059
  58.7101389  64.9383155  92.8040379  58.6410347  65.6400998  93.6351959
  57.7115393  64.0071120  92.6022316  56.8520404  63.9758945  93.2718487
  55.8890924  59.7473652  91.5139160  54.7254251  60.0797707  91.7603182
  56.1886194  58.5806445  90.9487148  57.1542476  58.3246832  90.7999021
  55.1524947  57.6747181  90.4711605  54.2979809  58.2446780  90.1063988
  55.6929147  56.8153131  89.3246043  56.7017607  56.5080161  89.6000995
  55.0529628  55.9359659  89.2517334  55.7293833  57.5276781  87.9822264
  54.7231286  57.8622929  87.7300655  56.3881076  58.3918122  88.0685779
  56.2386405  56.6405750  86.8650929  56.8648604  55.6113219  87.1121973
  55.9647922  57.0325381  85.6270271  56.2804200  56.4785197  84.8437365
  55.4420233  57.8830369  85.4738414  54.5901032  56.7717336  91.5628128
  53.8211803  55.8572344  91.2457912  54.9411753  56.9932422  92.8254336
  55.5750656  57.7461660  93.0521237  54.4643272  56.1441562  93.9061643
  53.4336418  55.8501956  93.7077357  55.3211399  54.8734831  94.0382237
  54.7884600  54.2035449  94.7131565  55.3723021  54.4240173  93.0465267
  56.7345803  55.1066091  94.5642091  56.6858210  55.7741292  95.4245231
  57.1510421  54.1475648  94.8722604  57.6491099  55.7200587  93.5278225
  57.2391379  55.9795916  92.3969508  58.8967291  55.9617869  93.9091173
  59.5505523  56.3709077  93.2570154  59.1868927  55.7355672  94.8497187
  54.4935245  56.9454331  95.1987589  55.1942408  57.9606063  95.2861948
  53.7497056  56.5186699  96.2169513  52.8025250  55.3911420  96.2429471
  53.3474405  54.4575273  96.3827002  52.2521325  55.3527695  95.3028968
  51.9217657  55.7222671  97.4066924  51.5221228  54.8061890  97.8416470
  51.0987614  56.3577074  97.0796129  52.8005716  56.4438701  98.3701332
  53.3479566  55.7025881  98.9523442  52.2726182  57.1175778  99.0450279
  53.7736561  57.2393744  97.4926473  53.4405026  58.2629515  97.3211920
  55.1718489  57.2554879  98.0877636  55.9674743  56.3360888  97.8877272
  55.4683723  58.3201867  98.8268714  54.7927733  59.0618061  98.9437737
  56.7800335  58.4773490  99.4417753  57.5807596  58.1942318  98.7585612
  57.0148112  59.9263808  99.9005251  56.2551134  60.1928972 100.6353226
  58.3953552  60.0717559 100.5233175  59.1556535  59.8058370  99.7889234
  58.5439230  61.1034725 100.8420476  58.4769293  59.4102516 101.3857903
  56.8469017  60.8783779  98.7348249  55.8363978  60.7903283  98.3357870
  57.0157024  61.9008093  99.0728190  57.5675763  60.6301843  97.9556402
  56.8768273  57.5097655 100.6129175  56.3642961  57.7832198 101.7029668
  57.5360942  56.3729263 100.3973837  57.8948899  56.1727046  99.4747373
  57.7151486  55.3673037 101.4443315  56.8004184  55.2788780 102.0304620
  58.0350447  54.0093454 100.8337182  57.3447850  53.8407295 100.0071534
  59.0553904  54.0477443 100.4522472  57.9120807  52.8770985 101.8329142
  57.6263971  53.1558364 103.0168214  58.0986688  51.7092303 101.4335276
  58.8253666  55.8420485 102.3720165  59.9926526  55.4792747 102.2248447
  58.4451937  56.6657163 103.3515557  57.4706382  56.8873817 103.4971760
  59.4369731  57.3180108 104.1994009  60.0952148  57.9179005 103.5709509
  58.7434201  58.2401948 105.1995669  58.0876080  57.6526424 105.8420563
  59.4927442  58.7442913 105.8098950  58.1541373  58.9828517 104.6616955
  60.3042307  56.3020919 104.9281991  61.5182570  56.4942896 105.0614290
  59.7007547  55.2151414 105.4127085  58.7041205  55.0826162 105.3164976
  60.4621628  54.2223071 106.1689286  60.9526836  54.6562758 107.0402263
  59.5370241  53.0865160 106.6402950  58.9825808  52.7030225 105.7837761
  60.3488684  51.9598769 107.2646308  60.9032657  52.3425268 108.1215576
  59.6776563  51.1658695 107.5919334  61.0477104  51.5635284 106.5279971
  58.5074431  53.6167945 107.6258941  57.9059463  54.3876871 107.1442011
  57.8605405  52.8016261 107.9501119  59.0168324  54.0416964 108.4908113
  61.6158388  53.6904070 105.3284632  62.7703832  53.6647348 105.7728066
  61.3245510  53.2624068 104.0996816  60.3721327  53.2026681 103.7688795
  62.3924037  52.8029507 103.2191133  63.0221305  52.0842352 103.7435096
  61.8052609  52.1262122 101.9822684  61.0117708  52.7721672 101.6064828
  62.6016332  52.0609580 101.2408959  61.2462078  50.7404375 102.2469307
  62.0026908  50.1556229 102.7702147  60.3624976  50.8378125 102.8775466
  60.8698424  50.0390767 100.9532738  60.1219194  50.6416901 100.4379415
  61.7615183  49.9579144 100.3316418  60.3089750  48.6533062 101.2162903
  61.0673908  48.0740777 101.7429785  59.4277922  48.7578551 101.8492875
  59.9348478  47.9519530  99.9572309  60.7513225  47.8545908  99.3707249
  59.5676798  47.0372584 100.1777337  59.2317814  48.4883013  99.4692481
  63.3050417  53.9522895 102.8150314  64.5254903  53.7780920 102.7172734
  62.7379608  55.1340564 102.5814970  61.7421349  55.2488840 102.7049662
  63.5078901  56.2679427 102.0898226  64.2777600  55.9270304 101.3975955
  62.5845205  57.2417436 101.3535065  61.8557759  57.5394842 102.1074171
  63.1642740  58.1119357 101.0456890  61.8542054  56.6600825 100.1398344
  61.4435671  55.6868842 100.4088365  60.7289323  57.5792979  99.6976516
  61.1388775  58.5526153  99.4280281  60.2236801  57.1465945  98.8341768
  60.0155079  57.6993226 100.5129553  62.8257557  56.4148767  98.9977424
  63.5936625  55.7107618  99.3181184  62.2876485  56.0015329  98.1446956
  63.2939522  57.3561710  98.7098951  64.2548183  57.0081713 103.1913950
  65.0048603  57.9402834 102.8839831  64.0765500  56.6249804 104.4557581
  63.3907438  55.9136250 104.6649058  64.7842438  57.2539839 105.5693155
  64.4021716  56.8668541 106.5139056  66.2847587  56.9588285 105.4906367
  66.4234018  55.8820690 105.3933415  66.6971119  57.4584105 104.6140052
  67.0358366  57.4347273 106.7170071  66.4946867  57.4536773 107.8215652
  68.2897911  57.8256147 106.5278193  68.8372508  58.1525299 107.3110907
  68.6909455  57.7944036 105.6014274  64.5213141  58.7610504 105.6004191
  65.4285158  59.5837869 105.4603624  63.2487729  59.1118959 105.7912836
  62.5532305  58.3838018 105.8700169  62.8044514  60.5042543 105.8470663
  63.6629166  61.1678222 105.7430743  61.8174360  60.8029353 104.7204780
  60.9604062  60.1672633 104.9430093  61.5174087  61.8493111 104.7768822
  62.3286599  60.4944958 103.3115677  62.7481985  59.4885214 103.3013813
  61.1999127  60.5824351 102.2981608  60.7801503  61.5883239 102.3074399
  61.5858213  60.3594976 101.3034376  60.4229023  59.8626572 102.5555998
  63.4639390  61.4306030 102.9355603  64.2848555  61.3091997 103.6422829
  63.8126741  61.1941822 101.9302791  63.1102428  62.4612321 102.9638732
  62.1727760  60.7502162 107.2111773  60.9532329  60.5923207 107.3788095
  62.9629477  61.1391210 108.2198491  64.3733381  61.5651577 108.1572487
  64.4954802  62.2944787 107.3564538  65.0042063  60.6988279 107.9583091
  64.6213425  62.1541757 109.5167812  64.4452920  63.2293954 109.4850346
  65.6529556  61.9640273 109.8129556  63.6716959  61.4757303 110.4367747
  63.4237117  62.1268161 111.2750409  64.0598024  60.5298028 110.8145236
  62.4220134  61.2252611 109.5837901  61.9588458  60.2656846 109.8135445
  61.3995108  62.3357160 109.7603663  60.2925748  62.0963108 110.2520846
  61.7571021  63.5542551 109.3606989  62.6543073  63.6889821 108.9168851
  60.9180683  64.7222875 109.5903697  60.3227875  64.5836109 110.4928712
  61.7927301  65.9677281 109.7673482  62.3734326  66.1033908 108.8549451
  61.1315251  66.8229318 109.9071148  62.7322753  65.8567723 110.9522016
  62.5935497  64.8924113 111.7334346  63.6094288  66.7324198 111.1006003
  59.9147136  64.9650436 108.4719320  59.1351002  65.9205420 108.5571883
  59.9120971  64.1325340 107.4300702  60.5397126  63.3425182 107.3845375
  59.0399031  64.3892580 106.2898201  59.2274696  65.3871940 105.8935352
  59.3069997  63.3679852 105.1865313  60.3469093  63.4784040 104.8791312
  59.1598247  62.3786744 105.6197792  58.4075577  63.5296215 103.9849386
  58.5832409  64.5810258 103.0987742  59.3861079  65.2951688 103.2818151
  57.7618439  64.7324107 101.9988767  57.9069321  65.5664301 101.3122452
  56.7511668  63.8202360 101.7727591  55.9291614  63.9612660 100.6771521
  56.1479557  64.7262849 100.1400535  56.5602853  62.7663074 102.6373912
  55.7630728  62.0445386 102.4596201  57.3859211  62.6265042 103.7350754
  57.2404286  61.7944677 104.4240220  57.5732817  64.3690730 106.6967452
  56.7928757  65.2291744 106.2740608  57.1782850  63.3989479 107.5186344
  57.8471843  62.7390586 107.8890655  55.7713874  63.2141342 107.8471601
  55.1539599  63.4139791 106.9714065  55.5244540  61.7743049 108.3011089
  56.4329296  61.4171422 108.7860894  54.7100261  61.7933323 109.0252948
  55.1642525  60.8484023 107.1628535  54.0447217  61.0884588 106.3766369
  53.4261792  61.9584567 106.5971098  53.7101710  60.2517378 105.3348889
  52.8294895  60.4535493 104.7251562  54.4979303  59.1556868 105.0647012
  54.1646877  58.3168647 104.0257595  53.3700196  58.5912167 103.5622584
  55.6133935  58.8939173 105.8280050  56.2363465  58.0256064 105.6133746
  55.9412710  59.7380181 106.8698362  56.8234175  59.5365343 107.4775548
  55.2736160  64.1862500 108.9074877  54.0740301  64.1884451 109.2042078
  56.1523946  65.0065436 109.4805055  57.1421096  64.8624560 109.3397843
  55.7303580  66.0948313 110.3494791  54.7292815  65.8962323 110.7322367
  56.6906050  66.2326526 111.5370434  57.7013069  66.2526005 111.1293878
  56.4728785  67.1882242 112.0140948  56.5807924  65.1176793 112.5637106
  55.5479558  65.0608808 112.9074013  56.8569318  64.1769315 112.0874306
  57.4961965  65.3722808 113.7505663  58.5280243  65.3553544 113.3996478
  57.2673286  66.3574180 114.1570436  57.3128556  64.3235280 114.8329331
  56.2644454  64.3186986 115.1311165  57.5759616  63.3513926 114.4160072
  58.1645995  64.6002307 116.0207516  57.9206625  65.5008006 116.4074923
  58.0152463  63.8834225 116.7164379  59.1361460  64.6043259 115.7447450
  55.6512593  67.4290841 109.6245717  54.9314859  68.3239117 110.0830199
  56.3704802  67.5814037 108.5125034  56.9221330  66.8151111 108.1539310
  56.4418420  68.8646902 107.8257673  56.2603786  69.6828320 108.5227711
  57.8256944  69.0412149 107.1774976  58.0764152  68.1346079 106.6267679
  57.8236410  70.2273570 106.2263222  57.5734397  71.1344698 106.7764552
  58.8111484  70.3357824 105.7777982  57.0848601  70.0633852 105.4418382
  58.8860488  69.2394113 108.2627569  58.7792427  70.2586187 108.6341185
  58.6610396  68.5357850 109.0642432  60.3069731  69.0227226 107.7853083
  60.5328832  69.7263518 106.9840777  60.9974128  69.1821295 108.6135484
  60.4146794  68.0035180 107.4142000  55.3435253  69.0215742 106.7795943
  54.9716766  70.1565561 106.4510360  54.8148876  67.9206486 106.2494831
  55.1943371  67.0266148 106.5266494  53.7484748  67.9407499 105.2552972
  53.4368976  68.9631724 105.0415892  54.1702632  67.2490807 103.9464534
  54.5350934  66.2476991 104.1750016  52.9859635  67.1523843 102.9913952
  52.6208518  68.1534700 102.7620014  53.3002689  66.6609834 102.0706140
  52.1887945  66.5734651 103.4577354  55.3400106  67.9930128 103.2968227
  56.1725136  67.9536052 103.9993088  55.6028361  67.4455184 102.3916862
  55.0436280  69.4391903 102.9447874  54.7811554  69.9874684 103.8495521
  55.9250773  69.8908795 102.4896794  54.2114759  69.4793815 102.2419308
  52.5292023  67.2591097 105.8545593  52.6385116  66.1633732 106.4161196
  51.3722382  67.9086142 105.7358665  51.3545174  68.8262787 105.3143488
  50.1246932  67.3593322 106.2457085  50.3302251  66.6056923 107.0058945
  49.2823893  68.4751626 106.8768444  49.9318825  69.0085954 107.5708957
  48.9868274  69.1446691 106.0690670  48.0443367  67.9920856 107.6121432
  47.3229406  67.6251297 106.8820528  48.3278906  67.1800989 108.2817527
  47.4195820  69.1193146 108.4191012  48.1551300  69.4720078 109.1420642
  47.1647467  69.9296283 107.7360565  46.1689900  68.6623334 109.1512746
  45.4389129  68.3355601 108.4107968  46.4356069  67.8226057 109.7930471
  45.5825006  69.7519818 109.9785416  45.3349816  70.5300208 109.3839918
  44.7558972  69.4106132 110.4478967  46.2586958  70.0546281 110.6650286
  49.3004733  66.6504274 105.1808077  48.3863313  65.8962690 105.5322382
  49.5965003  66.8683373 103.8992379  50.3561050  67.4967008 103.6795580
  48.8397615  66.2814892 102.7930640  48.2328697  65.4503334 103.1521764
  47.9179469  67.3150647 102.1438948  47.5759306  66.9293986 101.1834851
  46.7168755  67.5966355 103.0335533  47.0581016  67.9827967 103.9940448
  46.0736516  68.3343035 102.5537532  46.1569038  66.6748792 103.1913429
  48.6415967  68.5313449 101.9179316  48.0609062  69.1782009 101.5105297
  49.8098753  65.7072275 101.7683993  50.1115710  66.3484160 100.7526321
  50.3226265  64.5003002 102.0034304  50.2293244  63.7016053 103.2356805
  49.2754694  63.1746227 103.2591363  50.3030893  64.3571469 104.1033918
  51.3940562  62.7743375 103.1221230  51.1787378  61.8472718 103.6534292
  52.2793426  63.2421522 103.5528417  51.5764602  62.5342639 101.6553884
  50.9118327  61.7238456 101.3560700  52.5992647  62.2891230 101.3692474
  51.1428002  63.8408575 100.9791768  51.9911952  64.4841713 100.7457855
  50.3404327  63.5808356  99.7120568  49.1487810  63.2677727  99.7622745
  51.0100559  63.7073768  98.5671018  51.9874145  63.9615184  98.5838823
  50.3635491  63.5353369  97.2736072  49.5597928  62.8047031  97.3644325
  49.7696492  64.8577147  96.7680006  49.1265969  65.2379865  97.5617111
  50.6052151  65.5416309  96.6190430  48.9693434  64.7453648  95.4764937
  48.4600534  65.6962969  95.3201198  49.6758867  64.5743365  94.6643066
  47.7505195  63.4154088  95.4921563  46.6527674  63.9776859  96.7893478
  46.2358242  64.9475909  96.5181618  45.8440202  63.2584633  96.9187598
  47.2090263  64.0698926  97.7221796  51.3782194  62.9912991  96.2764603
  52.5867307  63.1875990  96.4327933  50.8764282  62.3048061  95.2505276
  49.8803893  62.1560494  95.1738631  51.7424823  61.7200890  94.2348224
  52.5743752  62.3968447  94.0397452  52.3054358  60.3695725  94.6821148
  53.1443422  60.1119874  94.0355971  52.6590911  60.4851547  95.7066483
  51.2693380  59.2666174  94.6275507  50.4951003  59.1275369  95.5973556
  51.2209150  58.5464991  93.6085135  50.9603104  61.5473201  92.9420111
  49.7280762  61.4863718  92.9397663  51.7043551  61.4642871  91.8360188
  52.7111459  61.5293054  91.8833928  51.0799816  61.3397239  90.5224969
  50.4242163  62.1910653  90.3400445  52.1491186  61.3045417  89.4319406
  52.7133060  60.3814974  89.5652866  51.6296880  61.2771125  88.4740578
  53.0998663  62.4859352  89.4574400  52.5332763  63.3692865  89.7520028
  53.8699127  62.2838932  90.2019597  53.8815667  62.7883856  87.8649052
  54.5895052  61.1806892  87.5246693  53.7958990  60.4345179  87.4857273
  55.1096729  61.2074251  86.5671666  55.2948167  60.9193646  88.3135587
  50.1991271  60.1002419  90.4380341  49.1308713  60.1339651  89.8183840
  50.6395084  58.9876925  91.0283291  51.5224099  58.9542513  91.5176816
  49.8347211  57.7772194  90.9743173  49.6931629  57.5019005  89.9292049
  50.3718837  56.9810201  91.4897031  48.4786567  57.9579249  91.6244402
  47.4643782  57.4606358  91.1244284  48.4382371  58.6819360  92.7444617
  49.2840027  58.9910139  93.2019010  47.1604151  58.9995526  93.3676131
  46.6150329  58.0873230  93.6094696  47.3853965  59.7909072  94.6570251
  48.0033102  60.6604617  94.4330657  46.0617835  60.2488024  95.2465449
  45.4434689  59.3797152  95.4712094  46.2461687  60.8095405  96.1628821
  45.5449349  60.8860655  94.5290047  48.0707173  58.9717606  95.6111778
  48.2106301  59.4707006  96.4193137  46.2806867  59.7832380  92.4058984
  45.0740068  59.5302558  92.3039141  46.8716934  60.7431794  91.6942015
  47.8440275  60.9720713  91.8434468  46.1121433  61.5419557  90.7397970
  45.1983989  61.9689389  91.1531440  46.9938833  62.6684301  90.1740656
  47.9648088  62.2580709  89.8965603  46.3373674  63.2808469  88.9537117
  45.3665260  63.6918581  89.2305464  46.9699096  64.0770873  88.5612932
  46.2026588  62.5148293  88.1900562  47.3168491  63.6957742  91.2630855
  46.4361028  64.3262831  91.3849267  47.4983525  63.1438738  92.1853446
  48.5164793  64.5613131  90.9496405  48.3355167  65.1139116  90.0276929
  48.6821279  65.2633277  91.7668524  49.3977665  63.9315015  90.8281085
  45.5507100  60.6658912  89.6296651  44.3879696  60.8128871  89.2329387
  46.3663496  59.7570063  89.0928456  47.3318217  59.6660230  89.3751309
  45.8749080  58.8966167  88.0234748  45.4665130  59.5120559  87.2218843
  46.9943537  58.0303210  87.4514138  47.8718024  58.6596640  87.3027184
  47.2264811  57.2493915  88.1755450  46.5972061  57.3918275  86.1261372
  45.5083086  57.3590621  86.0896741  46.9678200  58.0339730  85.3271400
  47.1508339  55.9919770  85.9468029  46.7916841  55.3835285  86.7768034
  46.7577383  55.5964136  85.0102641  48.6642591  55.9567722  85.9134783
  49.0233253  56.5676798  85.0852489  49.0571411  56.3497832  86.8511805
  49.1265780  54.5536554  85.7314959  48.7629870  54.1894386  84.8624462
  50.1361064  54.5320126  85.7094951  48.7943247  53.9874961  86.4990703
  44.7423174  58.0140151  88.5206058  43.7382703  57.8269758  87.8247641
  44.8878017  57.4523280  89.7217203  45.7393121  57.5493853  90.2561444
  43.8208135  56.6211947  90.2663629  43.5871441  55.8122343  89.5742062
  44.2596665  56.0131461  91.5978553  45.1792826  55.4590624  91.4097154
  44.4672104  56.8412136  92.2755940  43.2302206  55.0873380  92.2290846
  43.5712664  54.8254165  93.2306762  42.2825290  55.6215835  92.2966468
  43.0401183  53.8213650  91.4122642  42.6678787  54.0964287  90.4254123
  44.0049563  53.3245272  91.3105818  42.0548402  52.8802064  92.0798332
  41.1321609  53.4295664  92.2668283  41.8539750  52.0558992  91.3955306
  42.5800212  52.3418141  93.3637287  42.7658070  53.1054478  93.9981157
  41.8959471  51.7222024  93.7738800  43.4347693  51.8323662  93.1906173
  42.5392610  57.4263046  90.4391262  41.4511683  56.9586280  90.0819275
  42.6467429  58.6405799  90.9817163  43.5368006  58.9976129  91.2986139
  41.4598559  59.4638855  91.1838456  40.7231907  58.9191952  91.7743843
  41.8336651  60.7451428  91.9300463  42.7313815  61.1434296  91.4572122
  41.0110851  61.4477293  91.7965006  42.0906901  60.5425058  93.4149858
  41.1715291  60.1852140  93.8792987  42.8717323  59.7911333  93.5312380
  42.5271068  61.8336745  94.0849036  43.5133234  62.1108552  93.7125509
  41.8127075  62.6196077  93.8398688  42.5957697  61.7005518  95.5340040
  42.4455251  60.7786615  95.9182488  42.8364516  62.7014906  96.3679295
  43.0402780  63.9334485  95.9306017  43.0136849  64.1250143  94.9392918
  43.2215273  64.6766366  96.5900862  42.8776695  62.4609963  97.6756682
  42.7260018  61.5231787  98.0185897  43.0604395  63.2173292  98.3196048
  40.7917089  59.7962515  89.8565230  39.5635134  59.7264794  89.7349642
  41.5864618  60.1599934  88.8500794  42.5828969  60.2603011  88.9810558
  41.0256577  60.4782254  87.5423206  40.2608904  61.2488241  87.6393143
  42.1263585  60.9965383  86.6194694  42.9000257  60.2310311  86.6789425
  41.7380604  61.0416598  85.6019780  42.7219334  62.3532032  86.9980456
  42.8881015  62.3807258  88.0749539  44.0419901  62.5716535  86.2762004
  43.8765386  62.5447238  85.1991677  44.4535075  63.5414528  86.5559206
  44.7437000  61.7856256  86.5552415  41.7477818  63.4794917  86.6917746
  40.8291682  63.3304101  87.2592454  42.1954457  64.4335287  86.9701839
  41.5193043  63.4831948  85.6259963  40.3430691  59.2626134  86.9282562
  39.2455092  59.3699587  86.3702587  40.9803739  58.0934234  87.0272936
  41.8522408  58.0223259  87.5321625  40.4710467  56.9030123  86.3559717
  40.2365593  57.1287757  85.3157093  41.5290867  55.8003654  86.3899712
  42.4497336  56.2277258  85.9926407  41.6762837  55.5300579  87.4356131
  41.1623358  54.5610104  85.5941684  40.4978075  53.9508247  86.2058679
  40.6345305  54.8845906  84.6970527  42.3762606  53.7444142  85.1988010
  43.4643318  53.9845306  85.7626549  42.2432606  52.8603848  84.3266680
  39.1709528  56.4122679  86.9779651  38.3163222  55.8681756  86.2708591
  39.0018102  56.5904709  88.2895670  39.7630500  56.9694833  88.8345100
  37.7844926  56.1928463  88.9858153  37.1436581  55.6196750  88.3158116
  38.1272841  55.3236809  90.1965178  38.8911066  55.8265311  90.7896587
  37.2264125  55.1973456  90.7969923  38.6440419  53.9518544  89.8026974
  39.6912674  53.5137594  90.2762134  37.9063873  53.2644988  88.9377268
  38.2048563  52.3459784  88.6421996  37.0504813  53.6635932  88.5796078
  36.9511037  57.3950444  89.4141160  36.1673865  57.2963978  90.3640903
  37.1134907  58.5296972  88.7311778  37.9121433  58.6073903  88.1178124
  36.2443249  59.6976965  88.8907696  36.7328458  60.5747421  88.4662257
  34.9043556  59.4912344  88.1787411  34.2757845  60.3643339  88.3539409
  35.0945602  59.3896224  87.1102856  34.1644366  58.2569682  88.6589578
  34.1286701  57.2347684  87.9733820  33.5723203  58.3435456  89.8453876
  33.0659315  57.5506082  90.2127029  33.6313755  59.2018909  90.3744024
  36.0259676  60.0397703  90.3615420  34.9155987  60.3573157  90.7922007
  37.1048542  59.9768195  91.1450022  37.9883498  59.6311328  90.7985406
  37.0134031  60.3542995  92.5507036  36.1842530  59.8262827  93.0216682
  38.3033670  59.9933073  93.2866701  38.5451021  58.9609899  93.0337192
  39.0863273  60.6518685  92.9106775  38.2050966  60.1342328  94.7910503
  37.5865851  59.1589330  95.5603719  37.1691577  58.2832589  95.0633321
  37.4946091  59.2834423  96.9344261  37.0049975  58.5102421  97.5264935
  38.0242288  60.3944028  97.5546225  37.9342884  60.5216459  98.9215786
  37.4854907  59.7824249  99.3383911  38.6446829  61.3760051  96.8147713
  39.0652096  62.2540799  97.3049166  38.7324243  61.2423842  95.4405017
  39.2222091  62.0151130  94.8479638  36.7193888  61.8396430  92.7004785
  36.0573607  62.2480752  93.6615757  37.1986356  62.6538965  91.7646683
  37.7103099  62.2771237  90.9796007  37.0107152  64.0901050  91.8374700
  37.3314596  64.4619769  92.8105751  37.8420641  64.7760230  90.7544218
  37.5383804  64.3422739  89.8016693  37.5764247  65.8329957  90.7729755
  39.3354917  64.6298352  90.9202903  40.0159877  65.3296878  91.8975183
  39.4507569  65.9895861  92.5556580  41.3806328  65.2074413  92.0504682
  41.9017322  65.7717499  92.8238459  42.0849141  64.3658070  91.2203542
  43.4448076  64.2380059  91.3767054  43.7927977  64.7782560  92.0898901
  41.4326290  63.6545552  90.2356964  41.9884296  62.9912631  89.5729522
  40.0654268  63.7869839  90.0922744  39.5415352  63.2247866  89.3192467
  35.5402347  64.4525867  91.6346917  34.7246078  63.6499421  91.1719571
  35.2055854  65.6918448  91.9993892  35.8319051  66.2052078  92.6029465
  33.9528440  66.3241108  91.6052576  33.3503827  65.6218808  91.0290523
  33.1549590  66.7541435  92.8425564  32.8099104  65.8795606  93.3940502
  33.7739531  67.3722042  93.4929004  31.9345382  67.5640794  92.5147105
  31.7806297  68.9114091  92.6701062  32.6311462  69.4596798  93.0752243
  30.5263071  69.2960621  92.2613031  30.1666606  70.2397329  92.2767700
  29.8417656  68.1908591  91.8295215  28.5468651  68.0760427  91.3268847
  27.9391593  68.9770627  91.2434869  28.1179319  66.8283868  90.9672177
  27.1116237  66.7005694  90.5683364  28.9441187  65.7044142  91.0993766
  28.5911597  64.7142375  90.8111587  30.2309486  65.8160347  91.5987498
  30.8340965  64.9119695  91.6822926  30.6973074  67.0802868  91.9737100
  34.1563094  67.5328905  90.7070875  33.2722127  67.8506059  89.9088320
  35.3025186  68.2034371  90.8202632  35.9588729  67.9127176  91.5307424
  35.6426256  69.3520085  89.9961341  34.9480211  69.4134566  89.1583704
  35.5631298  70.6573344  90.7948923  34.5727134  70.7361867  91.2431745
  36.3166453  70.6313533  91.5820642  35.8035616  71.8791834  89.9356026
  36.9285904  72.1431093  89.5133205  34.7428407  72.6324174  89.6697554
  34.8451651  73.4604973  89.1006217  33.8385787  72.3738041  90.0378997
  37.0472512  69.1718893  89.4389169  37.9053532  68.5447879  90.0657589
  37.2742915  69.7296633  88.2476089  36.5539217  70.2425211  87.7596093
  38.5644093  69.5532395  87.5893804  38.7848168  68.4873617  87.5308624
  38.5071395  70.1186912  86.1707227  38.2962264  71.1872477  86.2131814
  39.4647747  69.9572803  85.6757665  37.7195128  69.6154149  85.6099586
  39.6911881  70.2091700  88.3777367  40.7913532  69.6544671  88.4766422
  39.4387159  71.3899521  88.9457873  38.5407225  71.8422321  88.8501323
  40.4887204  72.0860051  89.6809469  41.3567193  72.2330472  89.0382528
  39.9908753  73.4525475  90.1493018  39.3400297  73.8479473  89.3694568
  39.4122121  73.2950213  91.0594856  41.1102583  74.4441575  90.4259174
  41.5591221  74.2035367  91.3896205  41.8614031  74.3486537  89.6418494
  40.6274640  75.8800040  90.4616345  39.5199894  76.1641079  90.9175774
  41.4592677  76.7949272  89.9795899  41.1890784  77.7681168  89.9785300
  42.3586514  76.5138054  89.6160230  40.9842225  71.2896362  90.8778238
  42.0788789  71.5656605  91.3810373  40.2089806  70.3101934  91.3429278
  39.2783202  70.1624852  90.9793994  40.6567353  69.4797282  92.4556403
  40.9367364  70.1078742  93.3012946  39.5326155  68.5424315  92.8946878
  38.6663336  69.1646718  93.1193472  39.3051005  67.8962265  92.0468930
  39.8708448  67.6874111  94.1074165  40.7236285  67.0594553  93.8494779
  40.1459127  68.3554882  94.9235720  38.7106269  66.8110346  94.5408374
  37.6565395  66.8443286  93.8697181  38.8517635  66.0898519  95.5500866
  41.9189610  68.7102509  92.0794518  42.7835817  68.4646043  92.9279145
  42.0287825  68.2969811  90.8144295  41.2676227  68.4241464  90.1628437
  43.2313572  67.6144158  90.3486639  43.5908984  66.9231082  91.1108470
  42.9154066  66.8226641  89.0817565  42.1168118  66.1033923  89.2633978
  42.6250934  67.4898564  88.2701699  44.3056284  65.8768284  88.4728885
  43.6724140  65.3580404  87.4246534  44.3720221  68.5888477  90.0701102
  45.5479698  68.2419372  90.2561266  44.0435852  69.8207057  89.6787471
  43.0864894  70.0640511  89.4669689  45.0760704  70.8286696  89.4678821
  45.9006954  70.4255038  88.8800470  44.4852997  72.0546540  88.7489576
  43.6781952  72.4671394  89.3543818  45.5573301  73.1158128  88.5420262
  46.3646113  72.7041821  87.9362557  45.1238865  73.9763794  88.0324651
  45.9520626  73.4276507  89.5090022  43.8759814  71.6411824  87.4059678
  44.7015326  71.3898150  86.7400997  43.2710259  70.7523948  87.5853698
  43.0210867  72.7115849  86.7663643  43.6255107  73.6005843  86.5862210
  42.6255145  72.3438320  85.8195910  42.1950049  72.9631658  87.4314927
  45.7087838  71.2036729  90.7989614  46.9361563  71.3256731  90.9094052
  44.8838212  71.4050734  91.8267462  43.8802725  71.4209215  91.7138832
  45.4342173  71.6781282  93.1462352  46.1322045  72.5133830  93.0891188
  44.3189178  72.0394645  94.1286874  44.7982803  72.3196906  95.0666555
  43.7972139  72.9028349  93.7157507  43.3262128  70.9242957  94.3829304
  42.8593482  70.6511876  93.4365953  43.8646677  70.0652121  94.7831100
  42.2374549  71.3153170  95.3659714  42.0250071  72.4970141  95.6377414
  41.5412447  70.3199387  95.9031105  40.8044750  70.5220100  96.5637458
  41.7517814  69.3655098  95.6484712  46.2313544  70.4862700  93.6523375
  47.1812013  70.6613417  94.4157966  45.8753860  69.2695409  93.2287199
  45.0414042  69.1207664  92.6787745  46.6676462  68.1043057  93.6144875
  46.8175616  68.0956441  94.6940937  45.9422650  66.8215937  93.2120935
  45.6195715  66.9270952  92.1763148  46.6537819  65.9993964  93.2884832
  44.7394665  66.5318127  94.0888659  44.6327576  67.1389477  95.1747302
  43.8979470  65.6985248  93.6904474  48.0574042  68.1517547  92.9897673
  49.0584231  67.8903018  93.6683870  48.1449589  68.4910152  91.6995168
  47.3251470  68.6106337  91.1218498  49.4602724  68.6479438  91.0781434
  50.0344758  67.7276349  91.1850129  49.3063087  68.9576480  89.5886235
  48.4326156  69.5905241  89.4329721  50.1945643  69.4671644  89.2151331
  49.1149575  67.7426565  88.7289507  50.1876707  66.9283883  88.4114798
  51.1770915  67.1774124  88.7950594  50.0157730  65.8115364  87.6187112
  50.8687337  65.1772146  87.3774756  48.7644308  65.4985232  87.1319717
  48.6253576  64.6171828  86.5058746  47.6876102  66.3031000  87.4387558
  46.6971214  66.0587803  87.0549067  47.8643562  67.4182301  88.2322517
  47.0136193  68.0551514  88.4744870  50.2590386  69.7515092  91.7661965
  51.4586363  69.5923735  92.0493485  49.6054990  70.8815173  92.0373769
  48.6435027  71.0130252  91.7592255  50.2922185  71.9865807  92.6921837
  51.1801479  72.2640539  92.1241263  49.3672396  73.2000890  92.7760931
  48.8417144  73.3119739  91.8277239  48.6440261  73.0311715  93.5739209
  50.1180487  74.4818454  93.0672104  50.5227488  74.7333755  94.2015201
  50.3133630  75.2997490  92.0391233  50.8086081  76.1692150  92.1764584
  49.9657440  75.0484821  91.1247236  50.7766357  71.5817361  94.0772490
  51.8740481  71.9649048  94.4926247  49.9761379  70.8025133  94.8052333
  49.0479071  70.5692237  94.4826455  50.3980899  70.3103670  96.1112890
  50.7356072  71.1316552  96.7434812  49.2331487  69.6060441  96.8061524
  48.8900201  68.7858538  96.1755568  49.6659357  69.0581038  98.1608870
  50.0087816  69.8778269  98.7922430  48.8219017  68.5606821  98.6386709
  50.4770874  68.3433692  98.0220057  48.1504820  70.5274880  96.9872110
  47.4207337  70.0819667  97.4237639  51.5846861  69.3676522  95.9845278
  52.4807136  69.3690630  96.8372637  51.5957041  68.5340413  94.9440387
  50.8198997  68.4674367  94.3007731  52.7342437  67.6470400  94.7470452
  52.8770551  67.0295208  95.6338225  52.5029793  66.7319139  93.5474949
  51.4605843  66.4140407  93.5691359  52.6856593  67.3155322  92.6452102
  53.4056290  65.5086135  93.5507607  54.4365975  65.8570620  93.6123105
  53.1671314  64.9225521  94.4383153  53.2171244  64.4745130  92.0911110
  54.1504812  65.4215070  90.8883643  55.1828163  65.5194504  91.2242071
  54.1289547  64.9096539  89.9262606  53.7079105  66.4119612  90.7823781
  54.0109991  68.4516647  94.5562345  55.0586313  68.1133416  95.1188706
  53.9443040  69.5218807  93.7629185  53.1243200  69.7310088  93.2115646
  55.1107560  70.3944135  93.6294632  55.9859053  69.8022515  93.3619616
  54.8760177  71.4400224  92.5382731  54.0415731  72.0825570  92.8192549
  55.7707068  72.0470215  92.3997691  54.5371647  70.8581514  91.1908014
  54.8129301  69.5331954  90.8920171  55.2821576  68.9040634  91.6484022
  54.5006319  69.0078436  89.6539503  54.7212565  67.9633785  89.4336819
  53.9095861  69.8045541  88.6960740  53.6627467  69.3923011  87.7176990
  53.6311399  71.1240268  88.9777485  53.1629018  71.7561291  88.2232288
  53.9456605  71.6456837  90.2170019  53.7286573  72.6904169  90.4395824
  55.4427108  71.0767944  94.9556235  56.6176093  71.2061077  95.3286982
  54.4116222  71.5151417  95.6813797  53.4650478  71.3222145  95.3866337
  54.6117680  72.3257514  96.8766937  55.2788033  73.1626518  96.6699064
  53.2693562  72.8780438  97.3571411  52.5902661  72.0452808  97.5400144
  53.4453585  73.6788654  98.6379845  54.1240052  74.5121324  98.4557636
  52.4783332  74.0628771  98.9627862  53.8600643  73.0363718  99.4147223
  52.7039683  73.7189077  96.3437476  51.8614405  74.0642519  96.6478604
  55.2834525  71.5315463  97.9863005  56.1281492  72.0664639  98.7104107
  54.8993833  70.2672239  98.1598421  54.1625046  69.8581019  97.6033098
  55.5052627  69.4548214  99.2113066  55.4043464  69.9554207 100.1742787
  54.8092600  68.0968865  99.2916003  54.9148914  67.5933908  98.3306459
  55.2891597  67.5011224 100.0680417  53.3363661  68.2166886  99.6152531
  52.8421900  69.3014248  99.9172353  52.6250595  67.0969070  99.5556368
  51.6366160  67.1185439  99.7620612  53.0757731  66.2287430  99.3041427
  56.9969083  69.2787747  98.9622386  57.8176069  69.4223224  99.8795319
  57.3678193  68.9737264  97.7171263  56.6840148  68.7890804  96.9971148
  58.7789350  68.8445681  97.3789157  59.2520172  68.1064790  98.0266170
  58.9299545  68.3897381  95.9292303  58.5488096  67.3763660  95.8031159
  58.3977089  69.0637103  95.2579806  60.6385640  68.3566576  95.3532414
  60.3622942  67.9343644  94.1226960  59.5167564  70.1555952  97.6017867
  60.6417060  70.1637586  98.1159033  58.9035236  71.2773921  97.2190727
  58.0228533  71.2606624  96.7248669  59.5409204  72.5698316  97.4541671
  60.5304611  72.5873098  96.9974365  58.6988596  73.6869395  96.8382047
  57.6519782  73.4412365  97.0164419  58.9502129  74.6075658  97.3648628
  58.9259004  73.8764171  95.3579680  60.1932347  74.1499455  94.8608665
  61.0261955  74.2260254  95.5597855  60.4083498  74.3243230  93.5110091
  61.4081861  74.5400491  93.1343243  59.3497204  74.2245033  92.6361520
  59.5591734  74.3973903  91.2888868  60.4760679  74.5819653  91.0724698
  58.0815501  73.9521841  93.1031896  57.2438295  73.8726207  92.4103733
  57.8761211  73.7800169  94.4569578  56.8761477  73.5644820  94.8333857
  59.7597889  72.8221018  98.9421985  60.8454463  73.2409463  99.3608992
  58.7378281  72.5660310  99.7588513  57.8697406  72.1944816  99.4004182
  58.8160873  72.8943639 101.1790781  59.1971951  73.9051785 101.3243707
  57.4291442  72.7702497 101.8345310  56.9512139  71.8554653 101.4840275
  57.5600960  72.7252036 103.3518999  58.0375542  73.6399241 103.7032126
  56.5703861  72.6373390 103.8000682  58.1661618  71.8660781 103.6394532
  56.5362642  73.9363928 101.4108183  56.8996850  74.8257032 101.9257485
  56.6595948  74.0640147 100.3353641  55.0696042  73.7326062 101.7298317
  54.9454200  73.6053657 102.8052330  54.5011485  74.6019207 101.3993023
  54.7053303  72.8436752 101.2148500  59.8418962  72.0148080 101.8804789
  60.6994120  72.5074545 102.6225566  59.7726854  70.6997539 101.6636663
  59.1137197  70.2939267 101.0146919  60.6264071  69.8015998 102.4356297
  60.5186516  70.0140337 103.4992836  60.2373702  68.3472973 102.1870187
  59.1835185  68.2471021 102.4467430  60.3723961  68.1283807 101.1278003
  61.0534474  67.3763147 103.0100204  60.8560179  67.2612200 104.3782020
  60.0948559  67.8791664 104.8545149  61.6042004  66.3828496 105.1347035
  61.4363705  66.3008371 106.2085792  62.5649604  65.6092293 104.5281735
  63.3100206  64.7329641 105.2802231  63.0758247  64.7445248 106.2111464
  62.7850003  65.7068203 103.1726959  63.5470105  65.0941366 102.6909705
  62.0324551  66.5884880 102.4228347  62.2028104  66.6745615 101.3496756
  62.1013464  70.0157391 102.1148067  62.9450464  69.9924429 103.0172658
  62.4317995  70.2244071 100.8444809  61.7052587  70.2847819 100.1454869
  63.8175262  70.3099867 100.4084081  64.4753381  69.9276902 101.1889413
  64.0300215  69.4806365  99.1403607  63.1266387  69.5410847  98.5334467
  64.8708006  69.8914204  98.5813909  64.3141137  68.0251455  99.4409062
  63.4424816  67.1678164  99.3004417  65.5375056  67.7387612  99.8664297
  65.7830025  66.7831220 100.0822644  66.2178212  68.4776772  99.9726122
  64.2270560  71.7594278 100.1720186  63.4129333  72.6846519 100.2107822
  65.5176027  71.9426614  99.9182791  66.0928574  71.1193170  99.8120465
  66.1518017  73.2446399  99.8081493  65.4093155  74.0301356  99.9488968
  67.2419291  73.4032832 100.8762877  68.0585810  72.7327450 100.6087857
  67.5907885  74.4350563 100.8333764  66.7685894  73.0874326 102.2844152
  65.8733100  73.6753191 102.4868135  66.5251351  72.0262216 102.3360226
  67.8310912  73.4129631 103.3171919  68.7215453  72.8243410 103.0964784
  68.0706898  74.4739253 103.2461192  67.3503839  73.0957600 104.7231082
  66.3864049  73.5825710 104.8709596  67.2278249  72.0157848 104.8051569
  68.3074983  73.5661908 105.7606187  68.4208755  74.5669571 105.6850403
  67.9506018  73.3360368 106.6769997  69.2006854  73.1148971 105.6240546
  66.7662171  73.4125638  98.4252078  67.0741540  72.4229827  97.7503121
  66.9666404  74.6497378  97.9734159  66.5984531  75.9238523  98.6139652
  67.3138941  76.1544963  99.4032990  65.5997178  75.8405068  99.0425446
  66.6544917  76.9052180  97.4809714  66.9272012  77.8897179  97.8610877
  65.6803932  76.9609671  96.9950440  67.6825239  76.3806677  96.5481339
  68.6661931  76.6865256  96.9044270  67.5543379  76.7034862  95.5149562
  67.5455446  74.8573442  96.6406565  66.8545639  74.4581681  95.8981591
  68.8929848  74.1646773  96.5024820  69.6960068  74.1318860  97.4363917
  69.1338484  73.6059988  95.3162459  68.4497054  73.7128928  94.5809763
  70.3325997  72.8516673  95.0319410  70.6794306  73.1535236  94.0436645
  71.0763939  73.1305748  95.7783190  70.1528489  71.3473838  95.0531749
  71.0225019  70.6288601  94.5478222  69.0562331  70.8546492  95.6215983
  68.4002390  71.4699560  96.0811293  68.7880468  69.4233040  95.6378139
  69.7114314  68.8752657  95.8252013  67.7859558  69.0831920  96.7404165
  66.8944220  69.6905271  96.5841773  67.5283921  68.0286397  96.6420275
  68.3361898  69.3414821  98.1305311  69.5756478  69.3759489  98.2845506
  67.5288481  69.5126755  99.0683324  68.2532344  68.9691836  94.2848972
  67.4983775  69.6888021  93.6246780  68.6526213  67.7646038  93.8732267
  69.2677016  67.1945067  94.4360454  68.2572482  67.2670105  92.5603200
  68.5603174  67.9719990  91.7862145  68.9308645  65.9234586  92.2877429
  68.6002395  65.2215772  93.0533465  68.6020336  65.5741758  91.3089825
  70.4420321  66.0173161  92.3082684  71.0052175  66.7277323  91.4498023
  71.0674006  65.3798315  93.1819186  66.7429988  67.1388699  92.4489256
  66.1574834  67.4687282  91.4090533  66.0913615  66.6511207  93.5057087
  66.5868864  66.2864253  94.3066779  64.6368434  66.5596232  93.4926171
  64.2904410  65.9647110  92.6475230  64.1341955  65.9280947  94.8052746
  64.6804918  65.0019641  94.9840002  64.3505650  66.8760642  95.9715015
  63.8041608  67.8023095  95.7937016  63.9893050  66.4121756  96.8893245
  65.4137728  67.0951869  96.0698566  62.6520600  65.5606876  94.6943406
  62.2943003  65.3495939  95.7020847  62.1307763  66.4327430  94.2995217
  62.3845910  64.3710851  93.8068383  62.9052089  63.4984728  94.2013059
  61.3132873  64.1721342  93.7780964  62.7416873  64.5816213  92.7987428
  64.0205116  67.9313997  93.2603776  62.9744791  68.0501696  92.6127954
  64.6553979  68.9875455  93.7722951  65.4552861  68.8713407  94.3779142
  64.1540397  70.3384920  93.5396461  63.0961878  70.4246987  93.7878738
  64.9425838  71.3521394  94.3882179  66.0072349  71.2289508  94.1896182
  64.5247810  72.7713541  94.0447946  63.4602701  72.8954508  94.2435844
  65.0920716  73.4751227  94.6538855  64.7217228  72.9634878  92.9900907
  64.7232953  71.0782359  95.8657748  65.0646608  70.0707696  96.1036470
  65.2855318  71.8009119  96.4571539  63.6620736  71.1661507  96.0985417
  64.2083210  70.6860076  92.0576308  63.2600767  71.2567760  91.5051054
  65.3201775  70.3671661  91.3926111  66.1271272  69.9820813  91.8623357
  65.4147047  70.6334245  89.9614241  65.2004116  71.6834598  89.7624181
  66.8236408  70.3195585  89.4617070  67.0488171  69.3417907  89.8875767
  66.7998394  70.2450092  88.3745198  67.9026671  71.3177940  89.8800457
  67.7954169  71.5276198  90.9442690  69.2872922  70.7553357  89.6124919
  69.3954634  70.5456793  88.5483293  70.0403595  71.4819386  89.9175145
  69.4215237  69.8340111  90.1792752  67.7142794  72.6394014  89.1552740
  66.7358533  73.0525573  89.4003946  68.4912182  73.3382880  89.4651528
  67.7803930  72.4770490  88.0794628  64.3799431  69.8325328  89.1830728
  63.7675846  70.3439830  88.2364357  64.1730505  68.5699943  89.5629425
  64.7347675  68.1324818  90.2792917  63.1510362  67.7683523  88.8999599
  63.3462679  67.7249377  87.8284661  63.1626384  66.3448808  89.4566109
  63.0070089  66.4172808  90.5330109  62.3253572  65.8137550  89.0038797
  64.4521845  65.5867784  89.1809719  64.6263376  65.6042755  88.1051163
  65.2623803  66.1105914  89.6882241  64.4073291  63.8755647  89.7462803
  63.5055387  63.1036279  88.4112763  64.0506232  63.2400986  87.4772754
  63.3953294  62.0384719  88.6147395  62.5196474  63.5606445  88.3260974
  61.7758874  68.3986005  89.0709543  60.9918705  68.4772683  88.1162083
  61.4708890  68.8619834  90.2845119  62.1016031  68.7381350  91.0635887
  60.1883779  69.5064557  90.5302387  59.3863323  68.8276140  90.2404181
  60.0421243  69.8285960  92.0162658  60.8329751  70.5147271  92.3193817
  59.0717520  70.2920349  92.1943173  60.1171380  68.9092189  92.5969705
  60.0395113  70.7679175  89.6924822  58.9702219  71.0236198  89.1322478
  61.0985304  71.5741139  89.6025545  61.9521983  71.3798572  90.1061563
  61.0255464  72.7988035  88.8098718  60.1859130  73.4093191  89.1421152
  62.3124318  73.6065352  88.9755112  63.1412349  72.9005304  88.9231487
  62.3680808  74.2945771  88.1319464  62.3965804  74.3903569  90.2743243
  61.5345205  75.0557645  90.3210802  62.3509722  73.6790029  91.0989422
  63.6695652  75.2052950  90.3805682  64.2278484  75.5768796  89.3273637
  64.1126300  75.4748188  91.5175948  60.7802178  72.4878624  87.3387104
  59.9525697  73.1371133  86.6850364  61.4990551  71.5012387  86.7984294
  62.2125743  71.0176925  87.3249014  61.3077360  71.1391389  85.3988485
  61.4578718  72.0213463  84.7765396  62.3237058  70.0737834  84.9889692
  62.1799424  69.1807702  85.5972122  62.1837735  69.8229801  83.9374859
  63.3331137  70.4566099  85.1394310  59.8872455  70.6488981  85.1540309
  59.2384843  71.0501318  84.1767646  59.3815900  69.7893694  86.0404575
  59.9399715  69.4222400  86.7977722  58.0130691  69.3100330  85.8957512
  57.8782238  68.8557598  84.9141444  57.7108671  68.2620925  86.9639266
  58.2378594  68.6144725  87.8506097  56.6380386  68.2593819  87.1566221
  58.1708479  66.8455856  86.6283303  59.1600871  66.8920471  86.1729754
  58.2319815  65.9968392  87.8840426  57.2429405  65.9495261  88.3397380
  58.5616017  64.9901483  87.6270898  58.9353941  66.4400836  88.5889152
  57.2416130  66.2189370  85.6016235  57.2466192  66.8194031  84.6919451
  57.5815063  65.2091362  85.3716749  56.2293908  66.1782495  86.0039290
  57.0201612  70.4600972  85.9784325  56.0372754  70.4948175  85.2306497
  57.2530227  71.4051322  86.8888930  58.0394419  71.3393831  87.5192273
  56.3398728  72.5310316  87.0385349  55.3248851  72.1698440  87.2041931
  56.7562501  73.3855062  88.2368179  56.7314172  72.7408542  89.1153999
  57.7797681  73.7143675  88.0569261  55.8686775  74.5977909  88.4727117
  55.9763699  75.2651495  87.6176469  54.8382199  74.2474453  88.5319927
  56.2223304  75.3451198  89.7447338  57.3058614  75.0856069  90.3068802
  55.4173928  76.1949036  90.1802887  56.2968578  73.3710944  85.7707268
  55.2178548  73.7487160  85.2998867  57.4633353  73.6758127  85.1989523
  58.3523587  73.4127400  85.5996134  57.4640268  74.4957629  83.9922853
  56.8365676  75.3733277  84.1480870  58.8795313  74.9621605  83.6446430
  58.7668884  75.7329165  82.8821826  59.2846363  75.4072672  84.5534169
  59.8271476  73.8880787  83.1417816  60.0716679  73.2212672  83.9686269
  59.3293945  73.3221731  82.3543206  61.1075669  74.5053483  82.5916163
  61.7478077  73.6970240  82.2383423  60.8396592  75.1486877  81.7534998
  61.8515392  75.3203546  83.6383020  61.2284680  76.1708699  83.9149003
  62.0119696  74.6887529  84.5120528  63.1640749  75.8104684  83.1326219
  63.0156081  76.3960952  82.3232403  63.6248184  76.3451200  83.8550921
  63.7417389  75.0225029  82.8766654  56.8356639  73.7484792  82.8219707
  56.1138914  74.3476189  82.0162170  57.0781172  72.4392208  82.7136749
  57.7283940  71.9604794  83.3203429  56.4429580  71.6781820  81.6413532
  56.6280593  72.1602504  80.6814331  57.0140510  70.2621400  81.5946304
  56.9595673  69.9130210  82.6257689  56.3814274  69.6358449  80.9656296
  58.4627794  70.1796897  81.1038791  59.0424494  70.9642155  81.5902974
  59.0711917  68.8253177  81.4287435  58.4922943  68.0402631  80.9422601
  60.0998659  68.7929938  81.0697376  59.0583657  68.6700079  82.5075460
  58.5439162  70.4577214  79.6097074  58.1599738  71.4569418  79.4041680
  59.5820038  70.3937283  79.2835475  57.9479608  69.7218960  79.0698026
  54.9279380  71.6478086  81.8105563  54.1820107  71.7880088  80.8328112
  54.4533948  71.4722528  83.0459732  55.0713076  71.2804273  83.8215286
  53.0167256  71.4931239  83.2954205  52.5171608  70.7566318  82.6660449
  52.7361031  71.1549593  84.7602238  53.1211658  70.1618875  84.9918148
  53.2093532  71.8888237  85.4125869  51.2745536  71.1432033  85.1147922
  50.6210883  72.3134386  85.4655889  51.1785202  73.2499639  85.4826155
  49.2779985  72.3026149  85.7916543  48.7744172  73.2305374  86.0627013
  48.5749262  71.1162284  85.7738350  47.5161863  71.1037297  86.0327048
  49.2135311  69.9451029  85.4278729  48.6595427  69.0065069  85.4125501
  50.5549027  69.9604834  85.1006748  51.0597786  69.0340432  84.8269800
  52.4238631  72.8477621  82.9321487  51.3614514  72.9226286  82.3049434
  53.0997412  73.9305792  83.3205619  53.9276496  73.8560461  83.8942446
  52.6184862  75.2619983  82.9709149  51.6000495  75.3981042  83.3347293
  53.5113527  76.3264221  83.6086086  54.5197635  76.0222848  83.3280601
  53.2834347  77.2904691  83.1538923  53.4203260  76.4468569  85.1316879
  53.5038940  75.4523588  85.5699696  54.5340048  77.3315997  85.6677026
  54.4508150  78.3264693  85.2301951  54.4511092  77.4040494  86.7521287
  55.4998586  76.8996419  85.4057117  52.0611061  76.9826002  85.5516323
  51.2803531  76.3049669  85.2061800  52.0201676  77.0594767  86.6381475
  51.9068028  77.9680500  85.1121119  52.5676154  75.4407649  81.4603893
  51.6363543  76.0571436  80.9287512  53.5653006  74.9118613  80.7511790
  54.3696040  74.5005841  81.2028938  53.5431881  74.9660232  79.2943154
  53.4637780  75.9999637  78.9585174  54.8341160  74.3676797  78.7331852
  55.6624560  74.9337737  79.1592013  54.8856759  73.3347006  79.0772721
  54.9251043  74.4012133  77.2160001  54.2133657  73.6851033  76.8052504
  54.6696382  75.4039162  76.8733252  56.3084299  74.0541197  76.7079752
  57.1537846  73.5693708  77.4598103  56.5468584  74.2988194  75.4255587
  57.4533281  74.0863008  75.0340873  55.8207423  74.6964336  74.8469744
  52.3296342  74.2326725  78.7375302  51.6407879  74.7357613  77.8423780
  52.0493043  73.0379106  79.2586773  52.6067111  72.6431223  80.0026794
  50.9565877  72.2388854  78.7143510  50.9170337  72.3486840  77.6306172
  51.1722270  70.7621759  79.0483777  51.5174342  70.7116146  80.0810319
  50.2046148  70.2673861  78.9646534  52.1771967  70.0660441  78.1435742
  53.0675289  70.6909033  78.0731438  52.4403952  69.1088769  78.5937514
  51.6106842  69.8324892  76.7514145  50.6858610  69.2633509  76.8456622
  51.3964002  70.8005644  76.2986318  52.5880648  69.0684186  75.8738170
  53.0034900  68.2495486  76.4611622  52.0372754  68.6631240  75.0250141
  53.6937910  69.9352327  75.3795257  54.2045572  70.3105451  76.1658832
  54.3175014  69.3890887  74.8026271  53.3090914  70.6938390  74.8348957
  49.5912649  72.6892749  79.2204085  48.6057298  72.6032121  78.4807142
  49.5054843  73.1651639  80.4651612  50.3239262  73.2449078  81.0515852
  48.2092809  73.5118685  81.0363413  47.4989011  72.6990291  80.8855044
  48.3424114  73.8038890  82.5424257  48.9145212  73.0025721  83.0100601
  49.0506239  75.1275688  82.7657642  48.4788282  75.9294880  82.2987781
  49.1362888  75.3184410  83.8354978  50.0460926  75.0867550  82.3236382
  46.9641976  73.8350773  83.2117320  47.1164660  74.1462613  84.2452113
  46.3712622  74.5864312  82.6902010  46.2326700  72.5079977  83.1866505
  46.8248205  71.7561992  83.7084326  45.2667027  72.6156191  83.6800307
  46.0796188  72.1963678  82.1534215  47.5665984  74.6956797  80.3271430
  46.3371807  74.8288956  80.3477967  48.3605295  75.5609857  79.6941090
  49.3638745  75.4453838  79.6882410  47.7959048  76.7363044  79.0398094
  47.2480770  77.3405927  79.7628720  48.9163463  77.5871134  78.4411519
  49.5877496  76.9368057  77.8804231  48.4774859  78.3230535  77.7674356
  49.7205651  78.3174438  79.4989887  49.3740149  78.3013378  80.6793825
  50.8013371  78.9645137  79.0784455  51.3741960  79.4681333  79.7404876
  51.0454686  78.9500338  78.0985012  46.7901299  76.3691402  77.9565480
  45.9509961  77.2038633  77.5985395  46.8504960  75.1495257  77.4318602
  47.5835076  74.5229771  77.7322437  45.9400489  74.6973685  76.3891301
  45.6581234  75.5311019  75.7460860  46.6320551  73.6290802  75.5318807
  47.5165653  74.1011253  75.1041958  46.9380862  72.8358612  76.2139720
  45.7817075  73.0373943  74.4140454  45.0116905  72.4158778  74.8710923
  45.3116693  73.8623953  73.8787542  46.5938103  72.2029728  73.4432170
  47.7857472  72.5152128  73.2365249  46.0403865  71.2319829  72.8854592
  44.6296414  74.1573417  76.9494561  43.7670010  73.7336138  76.1737041
  44.4505104  74.1821482  78.2656106  45.1538128  74.5747823  78.8749574
  43.2551790  73.6115423  78.8691384  43.2085649  72.5419440  78.6644786
  43.2811816  73.8183915  80.3831253  44.2118459  73.3396974  80.6877812
  43.3455891  74.8899659  80.5720167  42.1190176  73.2288026  81.1839765
  41.1868996  73.4410050  80.6603098  42.2805656  71.7275399  81.3405989
  43.2123027  71.5145589  81.8646256  41.4430000  71.3292406  81.9132615
  42.3025570  71.2593265  80.3565293  42.0174421  73.9017321  82.5426351
  41.8495261  74.9702467  82.4078009  41.1858375  73.4713396  83.1005754
  42.9439987  73.7469939  83.0954895  42.0085938  74.2578106  78.2677411
  41.8941407  75.4917007  78.2724195  41.0611572  73.4788788  77.7498531
  41.0064717  72.0057791  77.7165413  41.1523322  71.6167691  78.7242596
  41.7955535  71.6303930  77.0649783  39.6323009  71.7156106  77.1787210
  38.9406935  71.5698226  78.0084946  39.6637949  70.8122069  76.5696469
  39.2554627  72.8922546  76.3605574  38.1707956  72.9996544  76.3684042
  39.6082114  72.8478419  75.3301713  39.9009384  74.0775574  77.0829038
  40.2600203  74.8395885  76.3911906  38.9386361  74.7084340  78.0754012
  38.9699268  74.4442813  79.2791845  38.0691125  75.5603470  77.5413077
  38.1233902  75.7817180  76.5573625  37.0498741  76.2248100  78.3438835
  37.4719031  76.5322389  79.3006898  36.4912010  77.4712419  77.6285144
  37.3187280  78.1386780  77.3880390  35.7641323  77.0811020  76.3461175
  34.9361292  76.4139918  76.5858558  35.3789439  77.9770439  75.8592736
  36.4568823  76.5730023  75.6752726  35.5832999  78.1592029  78.4979920
  35.2370279  78.9346020  78.0502732  35.9033528  75.2690916  78.6562826
  35.4629408  74.5098425  77.7927942  35.4152187  75.2278224  79.7834302
  55.3080766  21.9267793  82.2684772  56.2856311  21.9079725  82.5217251
  55.1881953  21.4262470  81.3994569  54.7583506  21.6736069  83.0770591
  54.9434260  23.3073521  81.9714829  54.5852302  23.3830158  80.9448038
  53.8330873  23.7797379  82.9128934  54.1987600  23.6484658  83.9312992
  53.6767758  24.8406182  82.7174458  52.5178669  23.0350068  82.7470499
  52.2329001  23.0662480  81.6954232  52.6660650  21.9991301  83.0521708
  51.4156300  23.6585234  83.5893704  51.7324037  23.6517921  84.6323029
  51.2703942  24.6876677  83.2609377  50.1091435  22.8941308  83.4521302
  49.8023378  22.9289691  82.4067799  50.2878691  21.8591120  83.7434930
  49.0335901  23.4701239  84.3038050  48.8675255  24.4290625  84.0336954
  48.1856997  22.9347242  84.1832692  49.3175058  23.4375455  85.2725308
  56.1520418  24.2310031  82.0918388  56.0100313  25.4534375  82.0922326
  57.3441582  23.6374722  82.1925796  57.4244906  22.6310616  82.2205750
  58.5573118  24.4338196  82.3580487  58.4680159  25.1631817  83.1631302
  59.7644657  23.5224399  82.6510499  60.6738642  24.1233434  82.6481107
  59.6034770  22.8542406  84.0068493  58.6944699  22.2527471  84.0104042
  60.4634416  22.2132475  84.2009867  59.5369126  23.6168981  84.7827516
  59.9410558  22.4818738  81.5526952  60.1052355  22.9836612  80.5990934
  60.7997209  21.8513684  81.7834694  59.0447497  21.8649381  81.4884556
  58.7960999  25.3070811  81.1327015  59.2944325  26.4345130  81.2442175
  58.4574982  24.8020934  79.9449481  58.1380544  23.8490645  79.8459988
  58.6024449  25.6118174  78.7396458  59.6315221  25.9583324  78.6446369
  58.2506826  24.7832419  77.5060479  58.8804946  23.8937599  77.4899886
  57.2040831  24.4856214  77.5704813  58.4570531  25.5291920  76.3191576
  58.2299636  24.9894371  75.5584377  57.7316128  26.8593849  78.8113450
  58.1547982  27.9463094  78.3998036  56.5123829  26.7253892  79.3359712
  56.1425816  25.8196699  79.5870067  55.6573188  27.8945764  79.5116170
  55.5219533  28.4025569  78.5567708  54.2841640  27.4721600  80.0399334
  54.4088079  27.2506531  81.0998853  53.6238854  28.3316441  79.9240920
  53.6750194  26.2666297  79.3382486  54.2960384  25.3994596  79.5628644
  52.6758344  26.1126525  79.7457036  53.5854320  26.4476679  77.8382045
  53.4472205  27.6034527  77.3846066  53.6536048  25.4345571  77.1109871
  56.3016814  28.8970615  80.4589467  56.2770685  30.1093613  80.2095923
  56.8830444  28.4071095  81.5558605  56.8574414  27.4196647  81.7665655
  57.5204990  29.3016018  82.5135746  56.8180302  30.0745459  82.8253346
  57.9664982  28.5202031  83.7486530  58.6823151  27.7698364  83.4130114
  58.4653586  29.2260992  84.4126929  56.8337397  27.8403566  84.4931670
  56.0205738  28.5523020  84.6345728  56.4802401  26.9997068  83.8961343
  57.2651862  27.3233081  85.8488487  58.4577932  27.2009839  86.1282538
  56.2957958  27.0224671  86.7040499  56.5276050  26.6732374  87.6229648
  55.3307704  27.1441518  86.4319836  58.7050545  30.0261421  81.8870671
  58.8904194  31.2266847  82.1061890  59.5105581  29.3191322  81.0927486
  59.3865800  28.3264480  80.9537997  60.6498461  29.9699427  80.4545891
  61.2140128  30.5386260  81.1937875  61.5756133  28.9266575  79.8306691
  60.9084620  28.3207124  79.2176120  62.2919726  29.4397375  79.1890475
  62.3266928  28.0231491  80.8135943  61.6071498  27.4025220  81.3476175
  63.3088989  27.1330774  80.0689007  64.0290894  27.7530318  79.5349709
  63.8350699  26.4968116  80.7805260  62.7677124  26.5103615  79.3565507
  63.0475941  28.8390679  81.8759929  62.3223879  29.4306618  82.4347345
  63.5705668  28.1680710  82.5574355  63.7671091  29.5039331  81.3981316
  60.1956218  30.9775528  79.4083883  60.8153864  32.0344781  79.2515833
  59.1135405  30.6787661  78.6877035  58.6811161  29.7668537  78.7267442
  58.5598187  31.6681356  77.7693679  59.3213564  31.9844678  77.0565612
  57.3877068  31.0633238  76.9958704  56.7658752  30.5333165  77.7173389
  56.8224600  31.8919380  76.5692620  57.8029571  30.1078043  75.8855845
  58.6509855  29.5197882  76.2365628  56.9652474  29.4442121  75.6711321
  58.1937715  30.8551555  74.6205437  57.3660933  31.5028352  74.3314783
  59.0724766  31.4633169  74.8352917  58.5073690  29.8958288  73.4831617
  58.9856183  30.4612728  72.6833798  59.1983644  29.1400046  73.8564639
  57.2828736  29.2319107  72.9574472  56.6426324  29.9320750  72.6110932
  57.5355447  28.6057296  72.2063450  56.8397991  28.7075555  73.6982815
  58.1170317  32.9186739  78.5200447  58.4012184  34.0471342  78.0953458
  57.4283984  32.7368996  79.6499688  57.1600515  31.8136115  79.9592071
  56.9909575  33.8845348  80.4376369  56.4093992  34.5653672  79.8160613
  56.1154983  33.4155706  81.5996239  55.2572323  32.8555269  81.2283697
  56.6904640  32.7887340  82.2812326  55.4413961  34.7589830  82.6024864
  54.7801731  33.9791762  83.4531237  58.1807195  34.6854619  80.9527642
  58.1582235  35.9209515  80.9435738  59.2272597  33.9988736  81.4173028
  59.2063130  32.9909462  81.4784822  60.4021676  34.6986263  81.9266785
  60.0960127  35.4569542  82.6473081  61.3504969  33.7210539  82.6196726
  61.5991985  32.8978793  81.9498738  62.2647247  34.2321901  82.9213800
  60.6808118  32.9619633  84.1210084  61.7543744  32.2264980  84.3956948
  61.1214941  35.4563007  80.8184313  61.6128992  36.5680872  81.0408401
  61.2129986  34.8671211  79.6248106  60.9255181  33.9096510  79.4809169
  61.7941019  35.5906400  78.5005396  62.7975955  35.9311288  78.7558185
  61.8841223  34.6793039  77.2773720  60.8757386  34.3868746  76.9845468
  62.3523137  35.2324786  76.4631887  62.6474354  33.5211623  77.5607837
  62.6891417  32.9661005  76.7786285  60.9803067  36.8352830  78.1782042
  61.5443280  37.9074990  77.9273361  59.6512236  36.7167414  78.1847518
  59.1942816  35.8283845  78.3334980  58.8213530  37.8919415  77.9729300
  59.0500507  38.3043509  76.9902220  57.7753558  37.5869361  78.0039289
  59.0551826  38.9610709  79.0235998  59.1477276  40.1495646  78.7082283
  59.1692771  38.5495633  80.2876413  59.0420370  37.5762033  80.5252955
  59.4021111  39.5023829  81.3707153  58.6778374  40.3167968  81.3546916
  59.3396381  38.7878418  82.7314243  59.9109368  37.8614216  82.6725712
  59.9214091  39.6739509  83.8246303  59.3503033  40.6004315  83.8844004
  59.8695734  39.1534533  84.7809232  60.9613821  39.9031610  83.5922126
  57.8956655  38.3874975  83.0498511  57.3380257  39.3078356  83.2233919
  57.4998786  37.8843394  82.1676470  57.7567602  37.4779514  84.2549288
  58.1519403  37.9806421  85.1376715  56.7045448  37.2412484  84.4127691
  58.3137955  36.5571463  84.0819272  60.7355265  40.2115533  81.1743234
  60.8307506  41.4420899  81.2747526  61.7914240  39.4437714  80.9016328
  61.7126883  38.4385368  80.8432923  63.1090853  40.0439996  80.7393498
  63.3554172  40.6428349  81.6161714  64.1668852  38.9571535  80.5786077
  63.9701328  38.2601750  81.3932295  64.0219855  38.4503500  79.6245352
  65.6070264  39.4591161  80.6748001  65.7170997  40.3441235  80.0481051
  65.9522044  39.8111148  82.1137688  65.8428033  38.9264292  82.7410340
  66.9812696  40.1668545  82.1645102  65.2802442  40.5926607  82.4683897
  66.5692634  38.4268007  80.1279749  66.3342202  38.2281672  79.0823178
  67.5893001  38.8031397  80.2054039  66.4782573  37.5045647  80.7018196
  63.1309514  40.9898388  79.5479341  63.7747598  42.0442418  79.5961207
  62.4367968  40.6316620  78.4669125  62.0172222  39.7167294  78.3835164
  62.3229638  41.5495985  77.3399500  63.3149187  41.8566565  77.0085287
  61.6084700  40.8674655  76.1748173  62.2204904  40.0159268  75.8774755
  60.6494181  40.5112657  76.5509040  61.3774568  41.7705474  74.9716174
  60.8548713  41.1978160  74.2054687  60.7561341  42.6097995  75.2842134
  62.6877876  42.2934786  74.4070802  63.1665929  42.9166566  75.1623905
  63.3302668  41.4433861  74.1775969  62.4606181  43.1096027  73.1483866
  61.8367763  42.5266804  72.4708001  61.9386167  44.0257973  73.4244321
  63.7392462  43.4526785  72.4725210  64.2228979  42.6038482  72.2162636
  63.5463293  43.9940977  71.6420101  64.3172826  43.9931937  73.1000689
  61.5914888  42.8197651  77.7502550  61.9522838  43.9212308  77.3188141
  60.5565620  42.6863551  78.5821140  60.2158188  41.7762734  78.8573317
  59.8558620  43.8659090  79.0773615  59.4710277  44.4483827  78.2402677
  58.6829439  43.4501997  79.9628072  57.9442194  42.9686843  79.3220824
  59.0600730  42.7286100  80.6875016  58.0361198  44.6123738  80.6957464
  58.7043740  44.9194143  81.5002731  57.9233551  45.4313183  79.9853147
  56.6855225  44.2561610  81.2716678  56.4503599  43.0599488  81.5418989
  55.8591207  45.1734859  81.4588390  60.7974073  44.7772744  79.8518049
  60.7614558  46.0023144  79.6903262  61.6480534  44.1986498  80.7008684
  61.6700097  43.1968755  80.8276184  62.5280339  45.0188339  81.5241152
  61.9430340  45.7497473  82.0823623  63.2870474  44.1378193  82.5184017
  63.7226167  43.3119596  81.9559656  64.0841831  44.7439648  82.9488228
  62.4109606  43.5850608  83.6346929  62.1198977  44.4218458  84.2696527
  61.5227062  43.1537865  83.1730559  63.2229735  42.3310741  84.6425409
  64.4243111  43.3229232  85.5214989  63.9090291  44.0843112  86.1070514
  65.0056827  42.6850016  86.1872043  65.0913258  43.8047227  84.8066130
  63.5069717  45.8305855  80.6845735  64.0943634  46.7893330  81.1945264
  63.6964591  45.4706909  79.4163225  63.2264474  44.6515083  79.0583726
  64.5944731  46.1947775  78.5278403  65.3990708  46.6538420  79.1022805
  65.2093170  45.2317312  77.5073974  64.5452924  44.3843479  77.3367741
  65.3796865  45.7544329  76.5661975  66.5312395  44.6629493  77.9275044
  66.5940059  43.5654951  78.7664017  65.6677609  43.1159567  79.1242919
  67.8090064  43.0394599  79.1507542  67.8450028  42.1766178  79.8158169
  68.9773129  43.6051154  78.6936681  69.9390666  43.1891208  78.9937983
  68.9307090  44.6976537  77.8563855  69.8551446  45.1484179  77.4953722
  67.7140871  45.2209694  77.4750288  67.6762768  46.0837217  76.8099508
  63.9133402  47.3316729  77.7782753  64.6012780  48.1060651  77.1044844
  62.5935374  47.4538480  77.8748412  62.0649853  46.8613019  78.4990375
  61.8683849  48.4098859  77.0524353  62.1788719  48.2947612  76.0139540
  60.3638388  48.1601924  77.1427082  60.0363055  48.2808052  78.1753139
  59.8378106  48.8745830  76.5094306  60.1424596  47.1467926  76.8078779
  62.1815542  49.8432293  77.4739474  62.6353800  50.1088922  78.5905953
  61.9324478  50.7775922  76.5520466  61.6756931  50.5262558  75.6081153
  62.0747520  52.1916771  76.8762848  63.0641750  52.3792794  77.2933538
  61.9055380  53.0435475  75.6169848  60.8672378  52.9416756  75.3013045
  62.0976676  54.0773253  75.9041948  62.8250969  52.6575068  74.4674479
  62.5933352  51.6327868  74.1770408  62.6219103  53.3263978  73.6311453
  64.2955686  52.7560109  74.8500235  64.4742138  52.0970615  75.6997120
  64.8940980  52.4243739  74.0015667  64.6866537  54.1782657  75.2208586
  64.3162840  54.8465948  74.4435150  64.2101492  54.4257687  76.1694285
  66.1604277  54.3370853  75.3502127  66.6021254  54.1082060  74.4712262
  66.3757228  55.2926563  75.5964483  66.5037626  53.7181921  76.0707621
  61.0717457  52.6313979  77.9295825  61.2565444  53.6829887  78.5505939
  60.0133242  51.8475699  78.1386081  59.8516373  51.0329719  77.5638152
  59.0388475  52.1673636  79.1729175  58.5472406  53.1142810  78.9498273
  57.9790333  51.0689312  79.2307904  57.7183921  50.8329461  78.1990557
  58.4530846  50.2027652  79.6924524  56.7216268  51.4269341  80.0004551
  57.0074506  51.9486786  80.9137942  56.1093734  52.0845678  79.3833929
  55.9232322  50.1765421  80.3579463  56.4871233  49.6177858  81.1048849
  54.9715708  50.4938298  80.7842896  55.6658124  49.2878994  79.1465841
  55.1373836  49.8773010  78.3972715  56.6284106  48.9703599  78.7457443
  54.8559776  48.0910680  79.4967684  53.9638013  48.3850852  79.8678143
  54.7084187  47.5306442  78.6695734  55.3456500  47.5445538  80.1907730
  59.6989356  52.3236714  80.5352528  59.2324926  53.1133173  81.3631148
  60.7795839  51.5829378  80.7858478  61.0968894  50.9183583  80.0946527
  61.4982613  51.6599821  82.0511956  61.0624039  52.4299540  82.6878043
  61.4017063  50.3148811  82.7746640  61.9066144  49.5370628  82.2018065
  61.8574587  50.3921454  83.7617911  59.9967388  49.8461190  82.9873382
  59.1597793  50.3986088  83.9307876  57.9904024  49.7855111  83.8949416
  57.1866022  50.0805837  84.5694313  58.0394199  48.8533395  82.9617924
  57.2897705  48.2254412  82.7090685  59.2839386  48.8693820  82.3798295
  59.5215062  48.1659778  81.5817786  62.9617981  52.0434899  81.8746094
  63.7195573  52.0135922  82.8517385  63.3819942  52.4038129  80.6606750
  62.7519322  52.3947587  79.8713467  64.7766964  52.7614819  80.4280518
  65.3966927  51.9316706  80.7673404  65.0213269  52.9751451  78.9345613
  64.4141478  53.8089052  78.5820309  66.0751571  53.1972489  78.7665967
  64.7493849  52.0718754  78.3884380  65.2001751  54.0028121  81.1996050
  66.4023404  54.2566800  81.3296577  64.2492396  54.7847647  81.7108667
  63.2690991  54.6006058  81.5511499  64.6138970  55.9730321  82.4711777
  65.2423565  56.6103328  81.8490960  63.3559941  56.7512335  82.8529521
  62.7207606  56.1292786  83.4836268  63.6370456  57.6524961  83.3977788
  62.8113585  57.0279782  81.9502430  65.4149995  55.6179126  83.7162865
  66.4019985  56.2884814  84.0383882  65.0086134  54.5671456  84.4314369
  64.2237616  54.0151193  84.1162008  65.6363222  54.2147711  85.6963464
  66.5304580  54.8193052  85.8485269  64.6696684  54.4698891  86.8567623
  65.1918387  54.2712279  87.7926956  64.3908854  55.5227356  86.8132382
  63.4316809  53.6207690  86.7841605  63.4007697  52.3647194  87.3619658
  64.2919770  51.9958351  87.8696795  62.2754210  51.5880205  87.3039128
  62.2655584  50.5980849  87.7600182  61.1494504  52.0668298  86.6748637
  60.0248995  51.2834629  86.6232061  60.1399703  50.4331749  87.0537508
  61.1500736  53.3117868  86.0939620  60.2616589  53.6899361  85.5881726
  62.2867324  54.0828215  86.1553311  62.2970429  55.0752969  85.7047910
  66.1206072  52.7742845  85.7950809  66.6387480  52.3947132  86.8501613
  65.9623020  51.9607152  84.7565808  65.4476197  52.2674031  83.9434732
  66.4671183  50.5953431  84.7793990  66.5762084  50.2984639  85.8225008
  65.4651434  49.6550296  84.1055253  65.3521150  49.9340366  83.0579187
  65.8281557  48.6293216  84.1706826  64.5005248  49.7310746  84.6073493
  67.8265302  50.4544629  84.1104947  68.3495773  49.3400681  84.0312048
  68.4110779  51.5493548  83.6389720  67.9750137  52.4490122  83.7823739
  69.6292208  51.4911495  82.8398143  69.5366210  50.7195301  82.0755317
  69.8722664  52.8366259  82.1499071  70.8336420  52.8038828  81.6372825
  69.0815660  53.0334215  81.4259151  69.9162301  54.0148732  83.0650216
  68.8622414  54.7804994  83.4656329  67.8795159  54.5042427  83.0834908
  69.2942420  55.7783845  84.3025306  68.7083346  56.4770101  84.7369662
  70.6508972  55.6725078  84.4539995  71.5318187  56.4460645  85.1977102
  71.1342107  57.2829841  85.7717939  72.8533686  56.1044595  85.1612567
  73.5748339  56.6895369  85.7315831  73.3062313  55.0187595  84.4077822
  74.3640328  54.7565682  84.3875051  72.4348893  54.2485143  83.6699256
  72.8380100  53.4099618  83.1021017  71.0766333  54.5734176  83.6860389
  70.8636031  51.0807718  83.6423973  71.7880801  50.4984402  83.0623652
  70.9477405  51.3547168  84.9496754  70.0045212  52.0490920  85.8429118
  69.2120338  51.3628275  86.1414165  69.5689577  52.9017488  85.3219896
  70.8660583  52.4619645  86.9880700  70.2626680  52.5451841  87.8920023
  71.3302217  53.4241962  86.7718207  71.8817062  51.4061094  87.1157040
  71.4970523  50.5741283  87.7055750  72.7998787  51.7788382  87.5697217
  72.1585654  50.9429676  85.6791820  73.0000349  51.4801900  85.2416671
  72.4275051  49.4513787  85.6226556  73.5921833  49.0431997  85.6878739
  71.3920386  48.6244780  85.5079284  70.4597949  49.0072043  85.4405370
  71.5441860  47.1756199  85.5267851  72.4578185  46.9023839  86.0547215
  70.3540849  46.5344677  86.2446801  69.4594407  46.6203390  85.6279652
  70.5562455  45.4825048  86.4461872  70.0282810  47.1693107  87.5642358
  70.9359888  47.1380824  88.6069593  71.8985749  46.6475370  88.4624152
  70.6337238  47.7193909  89.8202278  71.3572790  47.6890841  90.6348749
  69.4188694  48.3375470  90.0022441  69.1794535  48.7979538  90.9607876
  68.5053636  48.3747535  88.9738260  67.5416349  48.8636261  89.1164119
  68.8102506  47.7929481  87.7625269  68.0874699  47.8210800  86.9471150
  71.6763934  46.5620225  84.1387602  71.8937033  45.3507084  84.0353357
  71.5533177  47.3550503  83.0733230  71.4370040  48.3534855  83.1717989
  71.5294121  46.7847482  81.7298987  70.6768656  46.1135659  81.6260812
  71.4066298  47.8952784  80.6868027  72.0462894  48.7091837  81.0281134
  71.7965814  47.4954498  79.7507605  70.0034413  48.4155551  80.4667458
  68.9920360  48.1691255  81.3829810  69.2207560  47.5899233  82.2775822
  67.7118871  48.6444047  81.1766523  66.9263361  48.4459050  81.9057678
  67.4302385  49.3732846  80.0415972  66.1572790  49.8494562  79.8279531
  65.5466127  49.6161557  80.5309874  68.4178162  49.6283373  79.1176235
  68.1961994  50.2053999  78.2198567  69.6926946  49.1498255  79.3321845
  70.4785642  49.3465201  78.6029244  72.7640152  45.9450518  81.4362406
  72.6898532  44.9957913  80.6485588  73.8978798  46.2671675  82.0415683
  73.9051127  47.0198104  82.7150486  75.1531671  45.5978659  81.7425463
  74.9481138  44.6482917  81.2482174  76.0338859  46.4501909  80.8205861
  76.1282480  47.4351934  81.2777130  77.0142426  45.9759283  80.7750267
  75.4769950  46.5958090  79.4163333  75.3155062  45.5992114  79.0054616
  74.5243152  47.1219334  79.4771302  76.4233883  47.3666295  78.5153464
  76.6342021  48.3316389  78.9762297  77.3499261  46.8007576  78.4183094
  75.8172741  47.5844873  77.1400154  75.6251151  46.6077968  76.6958858
  74.8749165  48.1176593  77.2656699  76.7137347  48.3665613  76.2479213
  77.5868394  47.8724766  76.1310106  76.2716577  48.4866013  75.3477778
  76.8915745  49.2717823  76.6590745  75.8891427  45.3032056  83.0383323
  75.5966860  45.9071509  84.0761802  76.8460727  44.3748551  83.0122692
  77.3042242  43.5789116  81.8617718  77.9031368  44.2076520  81.2029171
  76.4394139  43.2017317  81.3159354  78.1016856  42.4847401  82.4911065
  78.9138344  42.2020943  81.8213119  77.4561566  41.6233021  82.6623323
  78.6198313  43.0225371  83.7751070  79.5687893  43.5178002  83.5694561
  78.7646335  42.2673820  84.5476824  77.5835536  44.0534735  84.2388836
  76.8856297  43.6441497  84.9692633  78.2514674  45.2916026  84.8157106
  78.7785688  46.1333820  84.0866690  78.2252860  45.3968811  86.1414922
  77.7364401  44.7180899  86.7075059  78.8522501  46.5302855  86.8093788
  78.5992555  47.4756175  86.3293369  78.4328844  46.6011381  88.2823168
  78.6681837  45.6523856  88.7646052  79.1712742  47.7271085  88.9914107
  78.9360919  48.6763061  88.5099399  78.8621382  47.7637408  90.0360128
  80.2452285  47.5489170  88.9368980  76.9281283  46.7851387  88.3969903
  76.4216007  45.9437090  87.9242030  76.6466040  46.8335619  89.4488928
  76.6357846  47.7102554  87.9002054  80.3624786  46.4015206  86.6693663
  80.9625648  45.4250559  87.1331650  80.9824841  47.3864796  86.0284521
  80.4517169  48.1592935  85.6527606  82.4212113  47.3639207  85.8052901
  82.7387685  46.3548306  85.5426235  82.7988302  48.3060591  84.6658669
  82.1557959  48.0770851  83.8160570  82.6104607  49.3267493  84.9987462
  84.2522637  48.1696863  84.2512157  85.0810813  47.7576220  85.0901224
  84.5677380  48.4758528  83.0833189  83.1318961  47.7562386  87.0948162
  82.9307308  48.8604334  87.6097632  83.9616963  46.8506705  87.6154495
  84.0778426  45.9428698  87.1882408  84.6707717  47.1249744  88.8590618
  84.0359732  47.6044026  89.6042320  85.2282735  45.8182635  89.4546558
  85.8425392  46.0546431  90.3235065  84.0869079  44.9050208  89.8744943
  83.4724236  44.6678116  89.0060234  84.4928987  43.9845455  90.2940144
  83.4762140  45.4072513  90.6247737  86.1515421  45.1151008  88.4618666
  86.9865809  45.7705458  88.2144719  86.5315915  44.1955239  88.9068840
  85.5963294  44.8766729  87.5546777  85.7905907  48.1352898  88.6655541
  86.2592380  48.7268856  89.6451509  86.2383296  48.3508250  87.4312265
  85.8274691  47.8430156  86.6608873  87.3430950  49.2582759  87.1495469
  87.8698888  49.5027792  88.0719381  88.3309171  48.5981637  86.1817074
  88.6497945  47.6622932  86.6405786  87.7833061  48.3841195  85.2638799
  89.5497819  49.4438124  85.8579467  89.2151948  50.3223721  85.3063262
  90.0009586  49.7567136  86.7995579  90.5738950  48.6896938  85.0333683
  90.8626201  47.5217582  85.3678025  91.0886061  49.2633674  84.0505733
  86.8775545  50.5877719  86.5723359  87.4591075  51.6308958  86.8823451
  85.8395671  50.5707953  85.7381226  85.4000619  49.6930101  85.5005777
  85.3443589  51.7842590  85.1046150  86.2064995  52.3844031  84.8136857
  84.5473947  51.4322569  83.8477154  83.6757405  50.8389087  84.1238620
  84.2214455  52.3483407  83.3551223  85.1761690  50.8582815  83.1670581
  84.4811436  52.6258038  86.0315484  84.0687758  53.7212115  85.6387943
  84.1887505  52.1412879  87.2379649  84.4408324  51.1898056  87.4643172
  83.4605885  52.9160075  88.2297363  83.3289896  53.9395242  87.8787457
  82.0771836  52.2993277  88.4723507  82.2894171  51.2655932  88.7452045
  81.6053010  52.8070478  89.3135683  81.1345238  52.3251686  87.2676292
  81.6569447  51.9169240  86.4024624  79.8888936  51.5005913  87.5419570
  79.3656561  51.9085396  88.4067689  79.2324776  51.5327038  86.6723666
  80.1733268  50.4679152  87.7438931  80.7602079  53.7469526  86.9030093
  81.6610237  54.3079451  86.6541764  80.0896097  53.7376922  86.0437576
  80.2602571  54.2197649  87.7483476  84.2056647  53.0321516  89.5505396
  83.6841453  53.6512776  90.4848701  85.4003690  52.4538505  89.6618329
  85.7331414  51.8520764  88.9220830  86.2504370  52.6570566  90.8160741
  87.2652296  52.4065245  90.5069965  86.1975915  53.7175237  91.0624806
  85.8959264  51.8478206  92.0445867  86.5450792  52.0214646  93.0836143
  84.8984881  50.9707209  91.9686272  84.3969355  50.8543283  91.0997215
  84.4602682  50.1995554  93.1303162  84.4427256  50.8388415  94.0129853
  83.0610995  49.6446467  92.9037590  83.1898105  48.9061363  92.1124721
  82.7290803  49.1463699  93.8145738  82.0149003  50.6722007  92.4755428
  82.3642356  51.1837007  91.5786407  80.6909511  49.9868503  92.1839705
  80.3407275  49.4754831  93.0806008  79.9550547  50.7312818  91.8800316
  80.8257253  49.2613145  91.3817647  81.8427081  51.7435294  93.5417832
  82.7923057  52.2544550  93.7009020  81.0930507  52.4644105  93.2155234
  81.5192161  51.2804283  94.4739792  85.4676707  49.0872583  93.3841695
  85.3402109  47.9703183  92.8820729  86.4910664  49.4053180  94.1787092
  86.5865723  50.3378184  94.5547689  87.5323873  48.4280452  94.4793597
  87.9257507  48.0043263  93.5553323  88.6787286  49.1024447  95.2346523
  88.3493008  49.4042750  96.2288731  89.5193824  48.4144300  95.3243012
  89.2026396  50.3333594  94.5653898  89.6963460  50.3280365  93.2786246
  90.0870868  51.5468397  92.9542170  90.5088340  51.7518816  91.9702526
  89.8660095  52.3426433  93.9855557  90.0669473  53.3315767  94.0272040
  89.3136596  51.6076861  95.0051873  89.0578689  52.0904045  95.9484027
  86.9793930  47.2611349  95.2877826  87.2553433  46.0941202  94.9849343
  86.1963509  47.5580557  96.3254946  85.9653892  48.5194753  96.5314761
  85.7011184  46.5212491  97.2218643  86.4870923  45.7932050  97.4226032
  85.2616609  47.1455089  98.5494104  85.0259380  46.3340571  99.2379451
  86.1001309  47.7215109  98.9409328  84.0511248  48.0509788  98.4010904
  83.5587074  48.2209721  97.2654843  83.5898482  48.5954964  99.4268070
  84.5473924  45.7187450  96.6360199  84.2764688  44.6158135  97.1221141
  83.8633932  46.2374105  95.6134319  84.0997630  47.1360872  95.2176936
  82.7046134  45.5297531  95.0795737  81.9378866  45.4378821  95.8488518
  82.1191979  46.2954740  93.8966709  81.9206245  47.3136117  94.2314299
  82.8830712  46.3116367  93.1192802  80.8495704  45.6910692  93.3424734
  79.6093855  46.0522074  93.8452532  79.5621346  46.7809356  94.6544639
  78.4478789  45.5068104  93.3397172  77.4793099  45.7997178  93.7449100
  78.5168044  44.5871445  92.3172076  77.3623746  44.0400358  91.8099424
  76.5702973  44.3693571  92.2409421  79.7360251  44.2124985  91.7998321
  79.7912454  43.4842054  90.9907335  80.8930662  44.7647641  92.3115229
  81.8617715  44.4741835  91.9049852  83.0582292  44.1098699  94.6613150
  82.2105528  43.2136835  94.7325324  84.2980481  43.8830563  94.2218578
  84.9426459  44.6397775  94.0430670  84.7348269  42.5210095  93.9374940
  84.0891784  42.0724319  93.1825004  86.1700346  42.5287735  93.4108321
  86.8367865  42.9782780  94.1466900  86.4969747  41.5107601  93.1990330
  86.4102275  43.4595608  91.8833082  87.7151173  43.2237607  91.7805490
  84.6335837  41.6463292  95.1789166  84.2568475  40.4716404  95.0936513
  84.9634083  42.2054231  96.3442764  85.2528502  43.1722585  96.3836738
  84.9768567  41.4288423  97.5786051  85.2773463  40.4014544  97.3729858
  85.9735812  42.0417760  98.5642990  85.7137347  43.0927022  98.6913152
  85.8662020  41.5237413  99.5172995  87.4088632  41.9303400  98.0876908
  87.6515187  41.2293711  97.0820183  88.2952432  42.5417999  98.7192549
  83.5934705  41.3398808  98.2138188  83.1494493  40.2519329  98.5954634
  82.8946341  42.4696118  98.3380634  83.2408181  43.3521112  97.9895655
  81.6389010  42.4639682  99.0812811  81.7546174  41.9618011 100.0417690
  81.1476433  43.9041940  99.3116625  81.3329957  44.4897308  98.4111674
  79.6558634  43.9171616  99.6279181  79.4697745  43.3321707 100.5286164
  79.3267133  44.9439177  99.7877078  79.1033213  43.4846770  98.7937998
  81.9499252  44.5461266 100.4467591  81.6994004  44.0057242 101.3596136
  83.0046916  44.3978918 100.2152558  81.6796396  46.0227104 100.6444841
  80.6250913  46.1717005 100.8764962  82.2885881  46.3970788 101.4673627
  81.9303805  46.5638679  99.7321369  80.5861113  41.6178784  98.3779839
  79.7659754  40.9692227  99.0386214  80.5764694  41.6034263  97.0481699
  81.2232848  42.1970042  96.5487757  79.6312925  40.8066526  96.2749770
  78.8829628  40.3642834  96.9325569  78.9307184  41.6439495  95.1918557
  79.6855951  42.1068985  94.5562932  78.0255946  40.7622824  94.3439176
  77.2701184  40.2993197  94.9787575  77.5367425  41.3691365  93.5817808
  78.6206574  39.9859513  93.8629711  78.1288802  42.7783636  95.8337234
  78.8416819  43.4168004  96.3556554  77.6653518  43.3396810  95.0224505
  77.0577115  42.3162850  96.8055805  77.5205630  41.7552503  97.6174354
  76.5382751  43.1832848  97.2137425  76.3442337  41.6781286  96.2842306
  80.3880365  39.6388725  95.6608621  81.4351440  39.8301955  95.0320319
  79.8561112  38.4326196  95.8438114  78.9781551  38.3527367  96.3366717
  80.5126703  37.2117355  95.4019810  81.5517533  37.4165427  95.1441833
  80.4830683  36.1702307  96.5257339  79.4410075  35.8799151  96.6596197
  81.0567209  35.3119865  96.1758200  81.0504436  36.6520307  97.8549758
  80.4566468  37.5031840  98.1882088  80.9582341  35.8404868  98.5767763
  82.5080429  37.0652309  97.7415174  83.0781420  36.2270171  97.3409132
  82.5786052  37.9115660  97.0582625  83.0725963  37.4600373  99.0967430
  84.0277474  37.9588485  98.9325039  82.3754016  38.1559018  99.5634242
  83.2732806  36.2866909  99.9887912  83.9196191  35.6419665  99.5567303
  83.6482118  36.5968890 100.8738357  82.3882630  35.8245894 100.1414511
  79.8842828  36.6145278  94.1512539  80.3805033  35.5988993  93.6527522
  78.8109803  37.2076042  93.6327404  78.4340328  38.0315597  94.0789547
  78.1163870  36.6744569  92.4594088  78.8333027  36.1754275  91.8074113
  77.0426058  35.6655431  92.8676991  76.3886588  36.0958794  93.6261601
  76.4507759  35.3799280  91.9980662  77.5929468  34.4001237  93.4451623
  77.9721260  34.2882454  94.7665041  78.4193541  33.0668960  94.9917009
  78.7693837  32.7784233  95.9828426  78.3441964  32.3807236  93.8655052
  78.6158475  31.4164691  93.7369793  77.8321939  33.1930938  92.8825108
  77.6949588  32.8065310  91.8726410  77.5075574  37.8234714  91.6745259
  76.3076163  38.1072228  91.7766852  78.3110424  38.5164241  90.8695120
  79.7677868  38.3854719  90.7082472  79.9889687  37.5547942  90.0380581
  80.2286935  38.2013248  91.6786872  80.1600725  39.7060623  90.1332663
  81.0548364  39.5900516  89.5216796  80.3600433  40.4131600  90.9383290
  78.9926805  40.1479419  89.3134229  79.0717492  39.6906653  88.3271444
  78.9085805  41.2293949  89.2062496  77.7628711  39.5975489  90.0461509
  77.3077517  40.3376019  90.7043956  76.7187712  39.0778466  89.0703805
  76.7999880  37.9482319  88.5812633  75.7253876  39.9189434  88.7918915
  75.6762109  40.8127631  89.2596174  74.6671089  39.5709293  87.8564835
  75.0722816  38.9290530  87.0742246  73.5235967  38.8257307  88.5592188
  73.9757782  38.0022050  89.1118818  73.0721969  39.5282442  89.2597993
  72.4515337  38.2814917  87.6251498  71.7511188  37.7039661  88.2284607
  71.9341744  39.1340304  87.1851279  73.0999086  37.2362752  86.3062631
  73.6960419  35.8321760  87.2442591  72.8672580  35.3803986  87.7893402
  74.1269300  35.0970172  86.5645697  74.4573170  36.1632352  87.9506311
  74.1520082  40.8426749  87.2006934  74.2885807  41.9426301  87.7407040
  73.5562245  40.6790264  86.0220455  73.5012073  39.7600567  85.6066336
  73.0184324  41.8072897  85.2754648  72.4327658  42.4387903  85.9435223
  74.1388111  42.6496484  84.6640956  73.6821558  43.5018401  84.1607721
  74.7746353  43.0051867  85.4749101  74.9724275  41.8698317  83.6763712
  75.8682431  41.1252048  84.1228096  74.7353108  42.0000642  82.4579242
  72.0844974  41.2806424  84.1964643  72.1625929  40.1171190  83.7963777
  71.1996391  42.1618666  83.7267424  71.2185732  43.1295746  84.0153288
  70.1318347  41.7275421  82.8320011  69.5705807  40.9118535  83.2877918
  69.1748432  42.8868370  82.5609737  69.7780153  43.7838672  82.4209042
  68.6400353  42.6615117  81.6383096  68.1736530  43.1192834  83.6834525
  67.4322823  42.3219132  83.6317696  68.7162141  43.0496808  84.6262595
  67.3355542  44.7149010  83.5978029  66.7093675  44.6883161  81.9219526
  66.0378171  43.8387703  81.7978920  66.1666181  45.6121108  81.7216347
  67.5416505  44.5978483  81.2239398  70.6738248  41.1697738  81.5228383
  70.0790803  40.2493901  80.9506025  71.7913410  41.7037618  81.0268741
  72.2342975  42.5031742  81.4567910  72.3681682  41.1717266  79.7966428
  71.6149128  41.1579943  79.0089138  73.5363263  42.0437575  79.3398753
  74.1783718  42.2450101  80.1974149  74.1020907  41.5012719  78.5824322
  73.0757345  43.2683873  78.7976585  73.8266964  43.7973297  78.5185956
  72.8211342  39.7292049  79.9797217  72.6215619  38.8896026  79.0941965
  73.4445697  39.4231671  81.1188192  73.6765572  40.1309334  81.8009835
  73.8630493  38.0506475  81.3771537  74.4929981  37.6824868  80.5673875
  74.6555866  37.9797775  82.6840596  74.0851071  38.4773229  83.4683439
  74.9127581  36.5350069  83.0835765  75.4836326  36.0369053  82.2999333
  75.4776089  36.5102237  84.0154717  73.9616048  36.0209730  83.2220578
  75.9079218  38.6574903  82.5247138  76.4032745  38.6117002  83.3457676
  72.6637184  37.1131265  81.4288135  72.6990408  36.0164860  80.8603401
  71.5834132  37.5357850  82.0866535  71.5886180  38.4084411  82.5951253
  70.3916177  36.6978909  82.1630660  70.6358452  35.6862489  82.4871535
  69.3709836  37.3164727  83.1371993  69.2285199  38.3658753  82.8792096
  68.0328217  36.5858470  83.0531894  68.1744088  35.5364080  83.3115139
  67.3266788  37.0387292  83.7491497  67.6407771  36.6601058  82.0388493
  69.9324884  37.2748032  84.5615371  70.1936117  36.2369617  84.7684198
  70.8365971  37.8836417  84.5631153  68.9827308  37.7787730  85.6292098
  68.0785165  37.1700892  85.6285491  69.4639858  37.7125125  86.6049671
  68.7215001  38.8167692  85.4232430  69.8003272  36.4890447  80.7745849
  69.3543615  35.3859454  80.4334462  69.7736065  37.5420191  79.9572112
  70.0678472  38.4580289  80.2645349  69.2554185  37.4009481  78.6007230
  68.2442281  36.9949076  78.6276359  69.2161100  38.7630540  77.9116197
  68.6961683  39.4477691  78.5816384  70.2482362  39.0907623  77.7874307
  68.5228415  38.7530349  76.5613129  69.0346274  38.0418749  75.9129091
  67.4896111  38.4361754  76.7032182  68.5463354  40.1299233  75.9202862
  68.0392143  40.8287715  76.5855218  69.5853984  40.4353198  75.7970778
  67.8560963  40.1275455  74.5678741  68.3154739  39.3547546  73.9515406
  66.8034701  39.8904102  74.7222899  67.9723818  41.4425001  73.8821271
  68.9476821  41.6622224  73.7385607  67.5020193  41.3993695  72.9893792
  67.5463935  42.1586566  74.4528747  70.0949121  36.4195091  77.7949874
  69.5531143  35.5776114  77.0679692  71.4210924  36.5112960  77.9094512
  71.8565414  37.2493757  78.4439808  72.2819227  35.5667031  77.2054559
  72.0633768  35.5885233  76.1378133  73.7503873  35.9373475  77.4110664
  73.9358150  36.0441278  78.4798572  74.3708080  35.1340718  77.0136670
  74.0703343  37.1499613  76.7533258  74.9961223  37.3582374  76.8987132
  72.0236333  34.1408544  77.6719579  71.9494210  33.2154472  76.8558329
  71.8812584  33.9436442  78.9847136  71.9950489  34.6991705  79.6452671
  71.6248919  32.6039077  79.5033882  72.3971125  31.9172247  79.1566302
  71.6341477  32.6178110  81.0311025  70.8467456  33.3022907  81.3466732
  71.3894352  31.6074528  81.3588100  72.9552752  33.0452753  81.6508269
  73.2055420  34.0339760  81.2661994  72.8206880  33.0996159  82.7311210
  74.0773127  32.0805162  81.3302559  73.7888771  31.0843590  81.6657774
  74.2317171  32.0693940  80.2513050  75.3650415  32.4940475  82.0213973
  75.6173185  33.5028090  81.6945070  75.1883145  32.4947527  83.0969745
  76.4907703  31.5744530  81.7047687  76.6549739  31.5739822  80.7082063
  77.3241825  31.8853502  82.1831691  76.2573819  30.6397378  82.0079790
  70.3050478  32.0550059  78.9767352  70.2188379  30.8804290  78.6021943
  69.2631992  32.8886040  78.9375848  69.3197480  33.8255428  79.3104752
  67.9821826  32.4309600  78.4066371  67.6823051  31.5110779  78.9086227
  66.8998001  33.4862969  78.6332871  67.4312456  34.4331722  78.5379349
  66.1642674  33.4009191  77.8334108  66.1882836  33.4349573  79.9880603
  66.9365474  33.4170100  80.7804491  65.2920649  34.6478007  80.1660410
  64.5432009  34.6661792  79.3742306  64.7948225  34.5937989  81.1345112
  65.8939431  35.5552527  80.1173181  65.3820609  32.1539021  80.1298932
  66.0478524  31.2944305  80.0516015  64.8863062  32.1415766  81.1005511
  64.6331575  32.1059028  79.3393626  68.0916684  32.0905541  76.9258539
  67.5387253  31.0814208  76.4725893  68.7973820  32.9187170  76.1536113
  69.1828898  33.7803506  76.5128752  68.9754697  32.6188951  74.7364498
  68.0039882  32.4780004  74.2626656  69.6985235  33.7700694  74.0358237
  70.5365416  34.0577970  74.6706762  70.0763661  33.3842064  73.0890161
  68.8209640  34.9844204  73.7739822  67.9106584  34.6409070  73.2826136
  68.5681755  35.4280182  74.7370077  69.5044253  36.0220322  72.9034443
  70.7289533  35.9073206  72.6883203  68.8170140  36.9525342  72.4331073
  69.7402891  31.3171414  74.5378248  69.5560610  30.6380153  73.5215519
  70.5986916  30.9574086  75.4876466  70.7778384  31.5938036  76.2511957
  71.3399552  29.7049604  75.4445340  71.4345084  29.4096563  74.3995678
  72.7428823  29.9060115  76.0251698  72.6649581  30.1932182  77.0737594
  73.3066835  28.9766479  75.9444744  73.2568596  30.6914560  75.4710909
  70.6366841  28.5744663  76.1859887  71.1879012  27.4727048  76.2719375
  69.4397510  28.8166235  76.7209989  69.0670521  29.7546743  76.6855660
  68.6733398  27.7924176  77.4296337  67.7846982  28.2417924  77.8728917
  68.2346506  26.6816828  76.4746589  69.1380297  26.2571499  76.0367351
  67.7300335  25.9227145  77.0725123  67.3070517  27.1521897  75.3656361
  66.7262498  26.2966213  75.0210022  66.6349593  27.9040336  75.7793082
  68.0744413  27.7475067  74.1961029  68.1919687  28.8192106  74.3565303
  69.0570782  27.2791032  74.1402248  67.3843616  27.5377974  72.9292809
  66.5652586  26.9471006  72.9449958  67.7612461  28.0660325  71.7732312
  68.8267510  28.8463846  71.6833810  69.3712281  29.0495344  72.5094408
  69.0903143  29.2350280  70.7891828  67.0513866  27.8072238  70.6787809
  66.2361619  27.2139160  70.7378967  67.3307774  28.2051691  69.7935244
  69.4641029  27.2125331  78.5992989  69.4109518  26.0137336  78.8779022
  70.2070871  28.0745247  79.2935567  70.2782885  29.0390416  79.0024607
  70.9768428  27.6444597  80.4533335  71.4635868  26.6918039  80.2444641
  72.0523112  28.6802786  80.7863679  71.5365316  29.5895567  81.0950491
  72.6271939  28.2868495  81.6247135  72.9920207  28.9974984  79.6315590
  72.3789566  29.2454369  78.7650835  73.5888638  29.8647866  79.9138506
  73.9107266  27.8434642  79.2861453  73.8962165  26.8294059  80.0153910
  74.6507194  27.9511080  78.2859591  70.1030594  27.4084194  81.6784606
  70.5640525  26.7839218  82.6391630  68.8615086  27.8940154  81.6696181
  68.5320453  28.3698987  80.8419174  67.9650709  27.8013752  82.8173878
  68.5513013  27.6788550  83.7281138  67.1124597  29.0610546  82.9516673
  66.6481578  29.2373409  81.9813859  66.3401753  28.8418464  83.6889764
  67.8753118  30.2904308  83.3739916  68.2262452  30.4871020  84.7011111
  67.9378711  29.7365887  85.4370932  68.9261204  31.6053675  85.0959706
  69.1964986  31.7476626  86.1422734  69.2809137  32.5481518  84.1597434
  69.9768570  33.6677801  84.5510417  70.1590971  33.6858599  85.4934117
  68.9460202  32.3745078  82.8338358  69.2316370  33.1204346  82.0921372
  68.2480433  31.2533808  82.4484212  67.9796484  31.1115953  81.4015396
  67.0665779  26.5808031  82.6697798  66.1708632  26.5593196  81.8196871
  67.3086018  25.5646422  83.5002426  68.0593085  25.6050723  84.1747085
  66.5234037  24.3401421  83.4130570  66.5250029  23.9695595  82.3879886
  67.1191396  23.2652901  84.3219298  67.0187262  23.6224624  85.3468417
  66.5168596  22.3663795  84.1903295  68.5778554  22.9435924  84.0383160
  68.6529341  22.4940247  83.0481883  69.1531335  23.8691398  84.0611027
  69.1278346  21.9816451  85.0726474  68.5255382  21.0731746  85.0770415
  70.1587819  21.7322461  84.8215552  69.1006308  22.5671919  86.4092584
  69.4982600  23.4911351  86.5004690  68.6038647  21.9813751  87.4925497
  68.0641179  20.7730575  87.4477524  68.0236320  20.2735935  86.5708278
  67.6953988  20.3564488  88.2907132  68.6461362  22.6288721  88.6542940
  69.0526135  23.5523499  88.6997360  68.2715514  22.1938804  89.4852978
  65.0674667  24.5934882  83.7803269  64.1684482  23.9283650  83.2530964
  64.8186101  25.5461727  84.6780142  65.5900000  26.0167187  85.1292828
  63.4659496  25.8994409  85.0787287  62.8059051  25.8366450  84.2135714
  62.9384495  24.9577243  86.1664559  61.8659700  25.1251550  86.2657229
  63.1168553  23.9344734  85.8359577  63.6087490  25.1792413  87.5037217
  63.2092329  26.1201131  88.2186876  64.5336428  24.4105137  87.8408779
  63.4616744  27.3442642  85.5591580  64.5071701  27.9211311  85.8675821
  62.2607908  27.9248138  85.6181314  61.4256669  27.3926086  85.4195736
  62.1214388  29.3480151  85.9083589  62.7413567  29.8912121  85.1951000
  60.6672371  29.7779220  85.7181843  60.0352250  29.2491779  86.4316900
  60.5807667  30.8518850  85.8831888  60.3470888  29.5397535  84.7038470
  62.5821477  29.7252210  87.3105689  62.8695957  30.9027429  87.5550308
  62.6511462  28.7693956  88.2383448  62.3868755  27.8146315  88.0416576
  63.0563318  29.1086656  89.5977644  62.4277935  29.9107720  89.9846290
  62.9102176  27.8910251  90.5092507  61.9688405  27.4050444  90.2528698
  63.7383122  27.2180790  90.2867584  62.9177091  28.2302964  91.9898951
  62.8452245  27.3028888  92.5580164  63.8530135  28.7336272  92.2347744
  61.7635160  29.1326138  92.3852528  60.6946906  29.0941741  91.7745576
  61.9762034  29.9549032  93.4063592  61.2414336  30.5772722  93.7111075
  62.8717300  29.9540528  93.8734061  64.4860092  29.6336142  89.6283812
  64.7972617  30.5684303  90.3770565  65.3711501  29.0479628  88.8200978
  65.1382475  28.2154897  88.2977527  66.7296350  29.5705920  88.7189525
  67.1932223  29.5968262  89.7051055  67.5705310  28.6761702  87.8073772
  67.0976679  28.6856138  86.8253331  68.5594118  29.1294253  87.7382792
  67.7039441  27.2404885  88.2916954  68.1601300  27.2640278  89.2813626
  66.7028912  26.8152648  88.3636470  68.5510082  26.3863766  87.3643065
  68.5585382  26.6577508  86.1456974  69.2065610  25.4431025  87.8545409
  66.7269122  31.0036530  88.2041847  67.4872907  31.8475280  88.6914685
  65.8803756  31.2985344  87.2156010  65.3103477  30.5831826  86.7873027
  65.8032078  32.6567545  86.6830626  66.7886386  32.9955544  86.3633127
  64.8644005  32.6747310  85.4752899  65.3912155  32.3031077  84.5963921
  63.9903646  32.0516389  85.6648091  64.3502963  34.0394919  85.1224424
  63.1851019  34.5266354  85.6917359  62.6424592  33.9066541  86.4053618
  62.7102168  35.7785845  85.3658576  61.7934772  36.1517206  85.8224305
  63.3957877  36.5583099  84.4619712  63.0225579  37.5489657  84.2023551
  64.5554341  36.0853440  83.8848537  65.0993324  36.7015037  83.1688774
  65.0264734  34.8331353  84.2137556  65.9418053  34.4576691  83.7562706
  65.3379322  33.6394517  87.7525582  65.9013561  34.7334537  87.9010007
  64.2976463  33.2696159  88.5004163  63.8159810  32.3950551  88.3479654
  63.8301435  34.1364845  89.5690407  63.5451401  35.0962835  89.1381600
  62.9594168  33.6750147  90.0348517  64.8912487  34.3661654  90.6262078
  65.0790748  35.4912477  91.1012744  65.6035403  33.3026856  91.0049868
  65.3835957  32.3757169  90.6696473  66.6884833  33.4501140  91.9670104
  66.2990372  33.8988887  92.8808114  67.2785836  32.0822560  92.3077744
  67.6808577  31.6241969  91.4041940  68.0770725  32.2026215  93.0399136
  66.4993148  31.4429221  92.7226138  67.7680011  34.3778590  91.4300629
  68.3093755  35.2017381  92.1708706  68.0907832  34.2614968  90.1412566
  67.6702957  33.5531011  89.5569065  69.1126905  35.1226388  89.5570641
  70.0354513  35.0505167  90.1327465  69.3994245  34.6932360  88.1194623
  68.4445689  34.4565558  87.6500666  69.8613892  35.5322713  87.5991658
  70.3118548  33.4878193  88.0421148  70.6698965  32.9414174  89.1067791
  70.6784054  33.0896738  86.9164173  68.6947031  36.5873119  89.6016182
  69.4957886  37.4584992  89.9578144  67.4466052  36.8819594  89.2379845
  66.8126891  36.1723209  88.8993652  66.9921063  38.2730045  89.2430061
  67.6805500  38.9267231  88.7074722  65.6012187  38.3848537  88.5927612
  64.9458224  37.6270781  89.0220990  65.0116835  39.7620431  88.8395725
  65.6663390  40.5203743  88.4100835  64.0282844  39.8256797  88.3737645
  64.9165830  39.9302043  89.9123163  65.6931079  38.1018312  87.1011377
  66.0791610  37.0945103  86.9450300  64.7027026  38.1842344  86.6534697
  66.3634080  38.8236381  86.6344543  66.9924000  38.8267777  90.6634581
  67.4532013  39.9519606  90.9208519  66.4611729  38.0503559  91.6104845
  66.0141414  37.1699461  91.3980206  66.4468909  38.5166155  92.9896702
  65.9868601  39.5032958  93.0438264  65.6435550  37.5547183  93.8637263
  65.9073108  36.5384455  93.5709435  65.9370421  37.7214354  94.9001484
  64.1419405  37.7480738  93.7252287  63.8956212  38.7445677  94.0918723
  63.8897162  37.6781841  92.6671170  63.3509228  36.7142607  94.5022830
  63.5358177  35.7265948  94.0798744  63.6670062  36.7277319  95.5453598
  61.9197567  36.9866722  94.4443036  61.6424863  37.9143335  94.1567885
  60.9727167  36.1066235  94.7417585  61.2684396  34.8757454  95.1266533
  62.2347468  34.5908085  95.1984961  60.5265056  34.2267829  95.3468379
  59.6978314  36.4707364  94.6496593  59.4635348  37.4082347  94.3558869
  58.9691575  35.8082683  94.8738670  67.8588339  38.6954206  93.5262852
  68.1029130  39.6014557  94.3246333  68.8024533  37.8584260  93.0916123
  68.5700565  37.0485598  92.5346494  70.1980174  38.0665906  93.4604246
  70.2898931  38.1552733  94.5429187  71.0420925  36.8813933  92.9942587
  70.6390866  36.0392097  93.5567640  70.8620845  36.7265630  91.9304332
  72.5469214  36.9888628  93.2460168  72.9182609  37.9072700  92.7913345
  72.8352666  37.0100124  94.7370902  72.4646027  36.0916551  95.1924219
  73.9104813  37.0867955  94.8987026  72.3379402  37.8667864  95.1917385
  73.2848129  35.8454112  92.5676780  73.1029023  35.8813759  91.4935670
  74.3540243  35.9386966  92.7579045  72.9272143  34.8953231  92.9646098
  70.7279502  39.3634754  92.8673242  71.4738560  40.0984405  93.5246262
  70.3596586  39.6547067  91.6188858  69.7989119  39.0144101  91.0751186
  70.8013409  40.8941611  90.9886426  71.8897708  40.9190229  90.9357151
  70.2410935  40.9881274  89.5697327  70.5553475  40.0875736  89.0421471
  69.1545192  40.9978315  89.6555357  70.6982912  42.2123216  88.7971785
  70.3562932  43.1017554  89.3263720  71.7876224  42.2092108  88.7591000
  70.0470216  42.2354584  87.1175060  68.3330933  42.6394298  87.4341445
  68.2738788  43.6030620  87.9401145  67.7911099  42.6915313  86.4898776
  67.8886234  41.8701566  88.0656242  70.3665077  42.0999210  91.8057846
  71.1420726  43.0425357  92.0007145  69.1237448  42.0902500  92.2880012
  68.4690363  41.3515133  92.0741687  68.6560754  43.2209435  93.0913289
  68.9815633  44.1577696  92.6390968  67.1305527  43.2199265  93.1676724
  66.7745704  42.2261381  93.4392615  66.7880250  43.9428869  93.9080121
  66.4571535  43.5788907  91.8723333  66.7202394  44.7864040  91.2529567
  67.4250885  45.4780028  91.7144531  66.1034654  45.1205520  90.0658754
  66.3209337  46.0758630  89.5881839  65.2151493  44.2494380  89.4856239
  64.7275014  44.5108559  88.5464966  64.9411860  43.0468894  90.0902685
  64.2353842  42.3549660  89.6307187  65.5586630  42.7145848  91.2784022
  65.3392216  41.7609692  91.7585716  69.2694378  43.2061079  94.4919868
  69.6430324  44.2614564  95.0306636  69.3745575  42.0251499  95.1010943
  69.0680313  41.1751295  94.6498667  69.8811996  41.9394590  96.4624543
  69.3371883  42.6301594  97.1067242  69.6991912  40.5224098  97.0022622
  68.6565690  40.2302269  96.8770932  70.3365045  39.8454259  96.4333820
  70.0463889  40.4562472  98.3741635  69.9247546  39.5586226  98.6920865
  71.3414616  42.3472090  96.5410927  71.7777209  42.8605637  97.5719960
  72.1163242  42.1204031  95.4791529  71.7804766  41.6031349  94.6793159
  73.5025014  42.5730478  95.4773369  74.0260382  42.1757836  96.3469285
  74.2111969  42.0841873  94.2154716  73.6109493  42.3592866  93.3482217
  75.1854905  42.5686148  94.1508028  74.4149709  40.5859830  94.2064600
  74.3172922  39.9286480  95.2415497  74.7008477  40.0349271  93.0338144
  74.8468985  39.0375721  92.9701588  74.7710917  40.6153505  92.2102398
  73.5696123  44.0903660  95.5778747  74.3483831  44.6426242  96.3631575
  72.7492410  44.7823136  94.7856473  72.1788099  44.3234500  94.0898369
  72.7013899  46.2357117  94.8687497  73.6928300  46.6514182  94.6889338
  71.7414501  46.7921526  93.8198970  72.1345713  46.6299339  92.8162835
  70.7630024  46.3197673  93.9070310  71.4544882  48.5672808  93.9638341
  70.6162247  48.6564624  92.9351169  72.2868642  46.6858420  96.2613442
  72.8779922  47.6136441  96.8230023  71.2682420  46.0403955  96.8351609
  70.7427875  45.3275324  96.3495446  70.8580192  46.4009170  98.1918003
  70.5899394  47.4568201  98.2278715  69.6456421  45.5737412  98.6232952
  69.8903628  44.5374675  98.3901689  69.5514022  45.6902256  99.7029480
  68.3388214  45.9434546  97.9612260  68.0718391  47.2471179  97.5721728
  68.8255021  48.0150884  97.7462787  66.8777249  47.5781766  96.9747336
  66.6784091  48.6065488  96.6733608  65.9316185  46.6031142  96.7605231
  64.7400389  46.9222343  96.1632983  64.6716302  47.8524315  95.9360254
  66.1704398  45.3050039  97.1387080  65.4206627  44.5324592  96.9680924
  67.3650515  44.9829311  97.7362287  67.5613860  43.9556436  98.0432032
  71.9964987  46.2028822  99.1863055  72.2602004  47.0668080 100.0291482
  72.6857595  45.0661321  99.0969040  72.4820063  44.3974133  98.3679327
  73.7054832  44.7258617 100.0816068  73.3166106  44.8539839 101.0917860
  74.1155286  43.2641172  99.8975559  73.2108072  42.6709330 100.0306381
  74.4639291  43.1687002  98.8691529  75.1917404  42.7643706 100.8445039
  76.0869342  43.3744039 100.7237218  74.8326709  42.8461384 101.8704109
  75.5234914  41.3108561 100.5377614  74.6455423  40.7065618 100.7660877
  75.7520896  41.2315949  99.4749538  76.7046939  40.8116624 101.3470989
  77.5570822  41.4624855 101.1522549  76.4448297  40.8609370 102.4045211
  77.0582502  39.4101657 100.9878904  77.2994954  39.3643685 100.0081950
  77.8463176  39.1089063 101.5431315  76.2686842  38.8068671 101.1687645
  74.9140533  45.6451096  99.9759680  75.4803308  46.0505296 100.9969521
  75.3257965  45.9852607  98.7555034  74.8454829  45.6676346  97.9257373
  76.5292474  46.7928118  98.5914299  77.3320534  46.3936045  99.2112969
  76.9832854  46.7738844  97.1326550  77.1230532  45.7283028  96.8582042
  76.1884540  47.2055322  96.5243596  78.2688819  47.5333796  96.8943135
  79.5036483  46.9250937  97.0731712  79.5354800  45.8825742  97.3897770
  80.6783293  47.6169673  96.8572808  81.6411435  47.1247447  96.9944216
  80.6291218  48.9370553  96.4688193  81.7964205  49.6307601  96.2556028
  82.5815108  49.0992025  96.4061993  79.4166622  49.5659146  96.2903350
  79.3774092  50.6103414  95.9809285  78.2468382  48.8654303  96.5057108
  77.2839118  49.3580740  96.3708961  76.2998789  48.2258407  99.0471428
  77.0067391  48.7344017  99.9237404  75.3171930  48.8943087  98.4605210
  74.6664539  48.4337584  97.8404151  75.1714645  50.3191215  98.6733227
  76.1509830  50.7949335  98.7207126  74.3886122  50.9315727  97.5211458
  73.4851244  50.3439296  97.3584047  74.1144322  51.9526686  97.7862657
  75.1800709  50.9629128  96.2392168  74.9574733  50.1526290  95.3414743
  76.1131337  51.9012296  96.1426386  76.6733081  51.9677159  95.3048534
  76.2589414  52.5447028  96.9073498  74.4583546  50.6135632  99.9869647
  73.7353682  49.7676151 100.5187508  74.6481678  51.8095497 100.5341468
  75.7519469  52.7475778 100.2736819  75.4948946  53.3888260  99.4305775
  76.6586813  52.1890071 100.0414527  75.8616243  53.5014528 101.5527852
  76.2439400  54.5025831 101.3536072  76.5428096  52.9800942 102.2252978
  74.4906229  53.5476455 102.1187820  73.9960808  54.4213710 101.6943637
  74.4509656  53.6010617 103.2067497  73.7963619  52.2659871 101.6310450
  73.7557782  51.4890225 102.3944436  72.3937431  52.5573973 101.1321086
  72.1731605  52.7053437  99.9209992  71.4129175  52.6445056 102.0318699
  71.5074451  52.5739955 103.4994004  72.2835992  53.2560900 103.8464338
  71.7584549  51.5563640 103.7985978  70.1324825  52.9833137 103.9546128
  70.1134426  54.0583300 104.1337122  69.8826806  52.4574886 104.8761378
  69.2064580  52.5994003 102.8569179  68.3396488  53.2602636 102.8561976
  68.8727857  51.5633948 102.9156984  70.0264495  52.8134223 101.5780169
  69.8189044  52.0438364 100.8345381  69.7787403  54.1820951 100.9710112
  68.8690846  54.3330889 100.1464377  70.5677118  55.1846144 101.3627625
  71.2720810  55.0312061 102.0701728  70.3937492  56.5373029 100.8409092
  69.3550820  56.8503639 100.9470339  71.2787659  57.5092903 101.6200946
  72.1420764  56.9591607 101.9944630  71.6132871  58.2823174 100.9282675
  70.5475634  58.1533217 102.7819877  69.4568909  58.7184279 102.5578038
  71.0598919  58.0899378 103.9189995  70.6929300  56.6250883  99.3471256
  70.0087161  57.3604765  98.6273003  71.7071959  55.9103230  98.8573611
  72.2221486  55.2564133  99.4294845  72.1176704  56.0865957  97.4677538
  72.5099335  57.0941938  97.3300045  73.2046502  55.0815364  97.0806106
  72.9033765  54.0758781  97.3738423  73.3710895  55.1109373  96.0037942
  74.5304007  55.3364658  97.7257979  75.7199804  54.9421742  97.1505133
  76.7230708  55.2948433  97.9341038  77.7521284  55.0726772  97.6516472
  76.2281123  55.9007488  98.9983179  76.7602813  56.2762251  99.7702723
  74.8586727  55.9417181  98.8911615  74.2642686  56.4084952  99.6765939
  70.9116059  55.9140310  96.5565509  70.1007326  55.0030851  96.7421042
  70.7926277  56.7965573  95.5615567  71.4934301  57.5020142  95.3846218
  69.5932982  56.7901416  94.7320554  68.6989126  56.8379990  95.3532504
  69.6156804  58.0085599  93.8153930  70.5965627  58.4748299  93.9079212
  69.4761576  57.6567664  92.7932018  68.5479221  59.0161548  94.1491498
  68.5050905  59.7529292  93.3470090  67.5934849  58.4936124  94.2131682
  68.8297799  59.7179742  95.4661758  68.4567889  59.1703798  96.5243119
  69.4262500  60.8149213  95.4439131  69.4803754  55.5089563  93.9188300
  68.3743684  55.1522796  93.4570937  70.5830851  54.7701654  93.7835771
  71.4706852  55.0207723  94.1952343  70.5230731  53.5883174  92.9462989
  70.1340822  53.8089757  91.9522691  71.9070750  52.9328876  92.7982939
  72.5955732  53.6604044  92.3684232  72.4341650  52.4719622  94.1428625
  71.7463822  51.7440288  94.5731748  73.4136482  52.0121213  94.0114870
  72.5219887  53.3278539  94.8120696  71.8355853  51.7809524  91.8127238
  71.5104466  52.1530083  90.8411471  72.8203134  51.3238975  91.7151996
  71.1245756  51.0374633  92.1729877  69.5092033  52.6608240  93.5700754
  68.7863063  51.9413894  92.8759034  69.4988841  52.6112353  94.9047209
  70.1281612  53.1760250  95.4570996  68.6196043  51.6843645  95.5952295
  68.7616407  50.6579964  95.2568607  68.8582591  51.7387421  97.1126042
  69.1033595  52.7621805  97.3965033  67.6180229  51.2897121  97.8619396
  67.3725500  50.2661270  97.5788891  67.8049817  51.3345443  98.9348501
  66.7841329  51.9453697  97.6112560  70.0531472  50.8828380  97.4867104
  70.9406199  51.2525535  96.9730911  70.2114342  50.9299940  98.5641245
  69.8673534  49.8499682  97.1921574  67.1870071  52.0288301  95.2333749
  66.3433163  51.1457297  95.0766277  66.8622935  53.3266856  95.2360619
  67.5339637  54.0310110  95.5060326  65.5098848  53.7552191  94.8947838
  64.7982154  53.3779293  95.6291394  65.4225436  55.2814554  94.8690877
  66.1230295  55.6736259  94.1317805  64.4094370  55.5835053  94.6036051
  65.6728102  55.6768488  95.8535316  65.1197164  53.1708419  93.5479732
  64.0204334  52.6182175  93.3736395  66.0667146  53.1954932  92.6061819
  66.9813107  53.5902846  92.7727745  65.7662599  52.6831562  91.2718481
  64.8158126  53.0866809  90.9226820  66.8631468  53.0982653  90.2909672
  67.7827669  52.6157661  90.6220148  66.5790806  52.7063857  89.3143215
  67.0868387  54.5992888  90.1890825  66.3589591  55.0099523  89.4893342
  66.9311926  55.0390397  91.1742198  68.7478097  54.9986985  89.6180754
  68.5875228  54.6987650  87.8617953  67.8177300  55.3513989  87.4499856
  69.5382045  54.9034877  87.3694606  68.3088292  53.6583927  87.6942946
  65.6246889  51.1678078  91.2983608  64.7521072  50.6017908  90.6273943
  66.4889705  50.4964482  92.0556022  67.2435003  50.9737636  92.5277824
  66.4034719  49.0477769  92.1796651  66.4568747  48.5949796  91.1896036
  67.5706799  48.5282872  93.0177467  67.5256233  48.9658211  94.0150601
  67.5086424  47.4427737  93.0946375  68.5116154  48.8051489  92.5422605
  65.0763543  48.6322314  92.7982166  64.4607176  47.6577094  92.3594633
  64.6243244  49.3533878  93.8257244  65.1772742  50.0991898  94.2233740
  63.3390532  49.0423952  94.4403321  63.3247960  48.0011151  94.7622508
  63.1023831  49.9341750  95.6598395  63.3459010  50.9556595  95.3676619
  62.0429679  49.8706357  95.9082390  63.9294598  49.5439905  96.8701519
  63.5064224  48.6301844  97.2874032  64.9485345  49.3517482  96.5345453
  63.9432350  50.6261896  97.9337535  64.3038938  51.5573522  97.4967634
  62.9321262  50.7715786  98.3140435  64.8132588  50.2645599  99.0463614
  65.0684027  49.2907420  99.1280903  65.2809785  51.1192255  99.9468225
  64.9666742  52.4029406  99.9112643  64.3567078  52.7504395  99.1851200
  65.3379883  53.0301762 100.6104073  66.0882162  50.6728891 100.9048288
  66.3355887  49.6941865 100.9372034  66.4501956  51.3146680 101.5956178
  62.2207439  49.2076381  93.4289790  61.3016203  48.3837369  93.3652551
  62.3180649  50.2316406  92.5823431  63.0787979  50.8946040  92.6255195
  61.2608436  50.4554153  91.6034442  60.2885984  50.4818052  92.0955235
  61.4907861  51.7952523  90.9036625  61.4159254  52.5579754  91.6787422
  62.5110738  51.7654900  90.5212659  60.5382968  52.1284367  89.7743418
  61.0135175  52.8910176  89.1573033  60.3960961  51.2221491  89.1856792
  59.1956214  52.6333399  90.2543541  58.7579307  51.8981591  90.9296577
  59.3367788  53.5748216  90.7851895  58.2643657  52.8529839  89.0721780
  58.4377448  53.8602586  88.6934462  58.5247907  52.1262239  88.3026990
  56.8317054  52.6997979  89.4328280  56.5900767  53.3734283  90.1455253
  56.2601258  52.8554391  88.6147983  56.6707491  51.7663649  89.7833920
  61.2317838  49.2865138  90.6220988  60.1746716  48.6843596  90.3628745
  62.3980284  48.9497348  90.0690352  63.2550364  49.4178924  90.3268433
  62.4550419  47.9250941  89.0369137  61.7371150  48.1529914  88.2490414
  63.8512250  47.8660386  88.4224666  64.0660718  48.9048200  88.1717211
  64.5623839  47.5192180  89.1721789  63.9740183  47.0026031  87.1657212
  63.7190620  45.9750788  87.4251282  63.0487060  47.4909295  86.0657669
  63.3033700  48.5183031  85.8054811  63.1608705  46.8556067  85.1871972
  62.0165456  47.4500030  86.4137187  65.4180453  46.9641898  86.6826928
  66.0518516  46.5438952  87.4635522  65.4860804  46.3453938  85.7879503
  65.7510472  47.9757520  86.4504203  62.0747079  46.5685743  89.6107824
  61.4220324  45.7685032  88.9368270  62.4715841  46.2898086  90.8562996
  63.0635570  46.9262863  91.3706569  62.1026537  45.0287539  91.4852808
  62.3241487  44.2024616  90.8097956  62.8851239  44.8228791  92.7816815
  63.9431915  44.9405151  92.5476860  62.5782442  45.6042548  93.4769347
  62.6550546  43.4592553  93.4177437  61.5953295  43.3553798  93.6507531
  62.9460732  42.6908523  92.7015265  63.4520223  43.2614743  94.6902842
  64.1171039  44.1790319  95.1691781  63.3852575  42.0590100  95.2475921
  63.8968421  41.8707386  96.0978488  62.8231640  41.3376149  94.8189415
  60.6118258  44.9714331  91.7662853  60.0141668  43.8952519  91.6902608
  59.9925755  46.1053194  92.0999333  60.5032093  46.9561225  92.2883120
  58.5437207  46.1207188  92.2540362  58.2405220  45.3843196  92.9982714
  58.0783079  47.5012214  92.7152318  58.4574004  48.2386623  92.0077228
  56.9884791  47.5077482  92.6970481  58.5620939  47.8444975  94.1101467
  59.0849978  46.9432811  94.7977524  58.4221512  49.0170538  94.5176718
  57.8741936  45.7357663  90.9440701  56.9516461  44.9103822  90.9175360
  58.3453684  46.3125349  89.8367118  59.0419030  47.0431596  89.8702724
  57.7890495  45.9432839  88.5338419  56.7039407  46.0432627  88.5084984
  58.3904931  46.8256806  87.4246090  59.4767804  46.7401045  87.4521018
  57.8811576  46.3829472  86.0594341  56.7949063  46.4686890  86.0310184
  58.3154651  47.0164821  85.2860577  58.1680232  45.3463290  85.8827072
  58.0614095  48.2883887  87.6707102  58.4738261  48.5975168  88.6311551
  58.4943905  48.8972715  86.8770548  56.9795827  48.4212466  87.6807331
  58.0238798  44.4611593  88.2554868  57.1235333  43.7428865  87.7927804
  59.2360745  43.9805338  88.5336740  59.9526724  44.5750665  88.9249766
  59.5763470  42.5960691  88.2304695  59.3869447  42.3902907  87.1769605
  61.0530949  42.3358313  88.5207743  61.6669251  42.8274916  87.7660677
  61.3247006  42.7084622  89.5084365  61.4224410  40.8822593  88.4940186
  61.5571668  40.2103024  87.2920415  61.3960461  40.7508774  86.3593472
  61.8913686  38.8713020  87.2648174  61.9982007  38.3537422  86.3114972
  62.0898348  38.1894707  88.4442923  62.3537072  37.1320428  88.4264698
  61.9545114  38.8454189  89.6481036  62.1113050  38.3073068  90.5829572
  61.6205249  40.1834520  89.6702269  61.5099139  40.7018893  90.6226386
  58.7114898  41.6310688  89.0246852  58.2827893  40.6013580  88.4988168
  58.4659692  41.9304535  90.3004761  58.9082273  42.7198565  90.7491967
  57.5938314  41.0795318  91.1011788  57.9059064  40.0389995  91.0117314
  57.6644261  41.4857253  92.5725816  57.4994447  42.5622459  92.6171202
  56.8519526  40.9725688  93.0870301  58.9834155  41.1476172  93.2462275
  59.7855980  41.5476634  92.6260928  59.0015797  41.6342826  94.2213820
  59.1784432  39.6556683  93.4230826  58.2409882  38.8915493  93.1129707
  60.2669092  39.2457396  93.8767268  56.1583736  41.1408647  90.5995899
  55.4909632  40.1064706  90.4893663  55.6639939  42.3428915  90.2896090
  56.1875353  43.1905510  90.4553706  54.3151644  42.4582267  89.7467371
  53.5884077  42.1031781  90.4773973  54.0025548  43.9183503  89.4162701
  54.8673554  44.3198096  88.8880187  53.1388747  43.9188074  88.7513216
  53.7066272  44.7801898  90.6299346  52.7788386  44.4278815  91.0806983
  54.5239104  44.6603473  91.3411224  53.5366381  46.5255659  90.2110119
  53.5755616  47.2688438  91.8390831  54.5200735  47.0275809  92.3267187
  53.4805383  48.3508218  91.7474595  52.7498046  46.8813471  92.4358016
  54.1468942  41.5911734  88.5064223  53.0700908  41.0315108  88.2714411
  55.2021707  41.4662660  87.7000970  56.0598069  41.9749376  87.8607602
  55.1078048  40.6260675  86.5078027  54.1152113  40.7168937  86.0666588
  56.1450116  41.0610114  85.4712364  57.1254785  40.9453418  85.9331936
  56.0586493  40.3767978  84.6271431  55.9812077  42.4891717  84.9833362
  56.0761925  43.1586552  85.8382459  56.7741342  42.7016677  84.2662483
  54.6293604  42.7019055  84.3212947  54.4331746  41.8734148  83.6406970
  53.8578181  42.7298511  85.0907367  54.5813189  43.9491390  83.5655800
  54.9082914  43.9144897  82.6105995  54.1402944  45.1055825  84.0418665
  53.7021613  45.2226176  85.2858766  53.6997388  44.4170249  85.8950684
  53.3724023  46.1169418  85.6198569  54.1414748  46.1753519  83.2515012
  54.4762086  46.0973884  82.3017776  53.8076340  47.0607388  83.6046854
  55.2793287  39.1420903  86.8327186  54.5122730  38.3031250  86.3479468
  56.2762323  38.7989208  87.6505627  56.8323788  39.5098320  88.1037798
  56.6270413  37.4009900  87.8722369  56.6180590  36.8600104  86.9260025
  58.0258050  37.3000031  88.4791923  58.7473459  37.7950511  87.8292649
  58.0478397  37.7637533  89.4653720  58.5054253  35.8897704  88.6572738
  58.7090041  35.0711556  87.5607090  58.5178014  35.4629369  86.5616850
  59.1488804  33.7723515  87.7202953  59.3081198  33.1395568  86.8471891
  59.3867882  33.2756424  88.9843523  59.7334697  32.2504368  89.1142189
  59.1848236  34.0802075  90.0863942  59.3722581  33.6912080  91.0872178
  58.7448591  35.3793990  89.9214374  58.5825964  36.0145657  90.7922611
  55.6357643  36.6786400  88.7705672  55.5509516  35.4477357  88.7084847
  54.8879297  37.4027952  89.6046516  55.0273618  38.3971956  89.7133988
  53.8783898  36.7525647  90.4297204  54.3675066  36.0082971  91.0581547
  53.1918654  37.7777481  91.3312521  52.6898560  38.5246910  90.7163026
  52.4587451  37.2746763  91.9617707  53.9365960  38.2661873  91.9596649
  52.8448481  36.0295821  89.5815573  52.1653217  35.1265391  90.0816984
  52.7151452  36.4042988  88.3097178  53.2717295  37.1802105  87.9806673
  51.7708895  35.7937749  87.3883218  50.9395767  35.3524342  87.9380824
  51.2190024  36.8571064  86.4389822  52.0339120  37.1643236  85.7835136
  50.4331212  36.3892760  85.8460019  50.6571333  38.0751746  87.1531467
  49.8594606  37.7458726  87.8190140  51.4558642  38.5284491  87.7402355
  50.1085887  39.0955301  86.1732802  50.9151227  39.4098708  85.5108665
  49.3197751  38.6248357  85.5864929  49.5466010  40.3072892  86.8966740
  50.2751297  40.6270582  87.6417204  49.4017867  41.1030178  86.1659592
  48.2506785  40.0071779  87.5667988  48.3847375  39.2701579  88.2442422
  47.9132538  40.8366202  88.0339926  47.5753434  39.7112640  86.8765406
  52.3863464  34.6482942  86.5891374  51.8488000  34.2789396  85.5390017
  53.4963182  34.0857026  87.0563669  53.9488442  34.4304146  87.8909286
  54.1065669  32.9698063  86.3523173  54.3072803  33.2509408  85.3185008
  55.4275445  32.5742464  87.0169448  56.0723191  33.4528085  86.9947281
  55.2004814  32.3169185  88.0515098  56.1397776  31.4046485  86.3473819
  55.4402920  30.5698038  86.3043110  56.4022521  31.7106784  85.3346850
  57.6321855  30.8833568  87.2146326  56.9304157  30.1055776  88.6656166
  56.2923354  29.2759896  88.3610904  57.7325534  29.7317333  89.3019469
  56.3383258  30.8346208  89.2188137  53.1487061  31.7797227  86.3467900
  52.5016442  31.5006304  87.3638070  53.0309437  31.0509107  85.2249205
  53.7167247  31.2489802  83.9353396  54.7846928  31.3801195  84.1095429
  53.3172959  32.1369851  83.4454388  53.4066590  29.9913157  83.1802989
  54.2006836  29.2627386  83.3440041  53.3324752  30.2141019  82.1158909
  52.1079949  29.5065410  83.7120188  52.0610891  28.4215284  83.6190315
  51.2461900  29.9509515  83.2141320  52.1181704  29.9023172  85.1916680
  51.1425477  30.2401449  85.5411405  52.5965864  28.7441644  86.0625671
  53.7787607  28.4059312  86.0144918  51.7719963  28.1279764  86.8393899
  50.8090710  28.4131782  86.9467874  52.2627157  27.0237964  87.6597958
  53.1723096  26.6143480  87.2203754  52.5834347  27.5130189  89.0999411
  53.3025750  28.3204347  88.9620420  51.6676283  27.9132040  89.5349704
  53.1766538  26.4550430  90.0407962  53.9778006  25.6146876  89.5827082
  52.8045173  26.4392453  91.2329903  51.2718072  25.8847886  87.6847498
  50.1955450  25.9368304  87.0697180  52.6324415  25.3548931  88.6978486
 112.3068233  73.5136958  67.5401436 112.4086237  74.0669962  66.7013371
 111.7182253  72.7189050  67.3353015 113.2194626  73.3740275  67.9496332
 111.5915329  74.2726042  68.4787990 110.6733943  73.7466317  68.7404736
 112.4061118  74.5048935  69.7597314 112.7845177  73.5383412  70.0924248
 113.2437385  75.1550594  69.5072128 111.5734465  75.1529880  70.8967688
 112.1893119  75.1286100  71.7957774 111.3930842  76.1885949  70.6085158
 110.0677323  74.3857566  71.2215819 109.5109000  74.9977226  72.8790008
 109.3964452  76.0812285  72.8471550 108.5554129  74.5392917  73.1339245
 110.2527338  74.7332443  73.6325490 111.2528325  75.6211165  67.9507815
 112.0995162  76.1499129  67.2144012 110.1132970  76.1896623  68.3698609
 109.4677427  75.6348712  68.9135205 109.7649312  77.6046430  68.0938881
 109.9310717  77.8641723  67.0483542 108.2505126  77.7585355  68.4093230
 108.1110154  77.6453422  69.4844170 107.9369021  78.7573923  68.1059527
 107.4560092  76.7735325  67.7150430 106.5294337  76.8984715  67.9328684
 110.5140210  78.6829967  68.9447958 110.7080686  78.5339637  70.1432280
 110.9146347  79.7496196  68.2712899 110.4633302  79.7915132  67.3687000
 111.9358040  80.7669746  68.5912213 111.9276464  80.9186621  69.6705838
 113.3013286  80.4116705  68.1769285 113.4141495  80.3041227  67.0981309
 113.7589284  81.3473853  68.4980828 114.0034966  79.2156909  68.8952591
 113.9169258  79.0471276  70.3039432 113.3214133  79.7434319  70.8943877
 114.5915177  77.9934735  70.9339337 114.5829456  77.9762282  72.0237644
 115.1556835  76.9282827  70.2212637 115.8155681  75.8892142  70.8298309
 115.8467290  75.9731175  71.7856493 115.1304203  77.0283483  68.8390790
 115.5786206  76.2380530  68.2368744 114.5437485  78.1178454  68.2234524
 114.4791195  78.1600471  67.1361888 111.3935109  82.0580184  67.9368970
 111.0390917  82.0669874  66.7678596 111.3593609  83.1483794  68.6875632
 111.6387059  82.9787495  69.6432260 110.7688872  84.4556501  68.3543516
 110.8244105  84.6271175  67.2793561 109.2826659  84.4918684  68.7848461
 109.2252561  84.5944417  69.8684890 108.8223492  85.3601317  68.3133301
 108.4973068  83.2278731  68.3659797 108.1273642  83.0259373  67.1709962
 108.2127143  82.3202761  69.2516431 107.6995938  81.4947110  68.9773269
 108.5060107  82.4447927  70.2100656 111.6334229  85.6220853  68.8132939
 112.6572769  85.4954082  69.6092593 111.2338669  86.8240577  68.4334171
 110.4706136  86.8519903  67.7725363 111.8746606  88.0584978  68.7849312
 112.3859545  88.0052213  69.7460968 112.8800735  88.2754898  67.7275773
 113.7145927  87.5845240  67.8469221 112.3224491  88.0187850  66.8268788
 113.4101582  89.6923854  67.6073356 112.7796142  90.5266313  66.6785110
 111.8384079  90.2337957  66.2132396 113.3787572  91.7644694  66.3449823
 112.9548803  92.4164881  65.5812403 114.3711434  92.2484495  67.2069300
 114.9504153  93.4169167  66.9255147 114.6095899  93.8212139  66.1242772
 114.9407258  91.4467257  68.1860239 115.8088761  91.7821039  68.7534187
 114.3863403  90.1982458  68.4379834 114.7232798  89.6152323  69.2951107
 110.7849147  89.1211300  68.9638157 109.6839144  88.9835315  68.3658601
 111.0703072  90.0824945  69.8267383 111.9448555  90.0078050  70.3264243
 110.0829518  91.0624962  70.2947895 109.5079167  91.5573060  69.5121036
 109.0833829  90.4327324  71.3300907 108.5684394  89.5970122  70.8562722
 109.7917865  89.9578355  72.5191081 110.3066331  90.7931418  72.9937630
 109.0773607  89.5263494  73.2201902 110.5198186  89.1997542  72.2303456
 107.8968638  91.3379953  71.6839232 107.3267819  91.5598858  70.7817740
 107.2542494  90.8308927  72.4036407 108.2651541  92.2674566  72.1181638
 110.6110104  92.4653720  70.7144889 111.5877643  92.5109107  71.4236596
 110.0584159  93.5309317  70.0515153 109.2330685  93.4064095  69.4828369
 110.7678532  94.8369972  69.9884865 111.2015428  95.2527261  70.8979820
 111.8381140  94.8689935  68.8707311 112.5669858  94.0999105  69.1263805
 111.3364655  94.6384659  67.4726983 110.6078411  95.4074837  67.2161462
 112.1721423  94.6830007  66.7742991 110.8651117  93.6575017  67.4123935
 112.7734968  96.0057347  68.9561979 113.3069503  95.9673578  69.9059645
 113.4889676  95.9506790  68.1357286 112.2169776  96.9406291  68.8901697
 109.7348005  95.9469854  69.9372899 108.6774329  95.6943177  69.3796612
 109.9010889  97.1317069  70.6063805 110.5511965  97.0533373  71.3753523
 109.2531898  98.3897861  70.3910354 108.2234020  98.1282195  70.6343855
 109.7592190  99.4247222  71.4271390 110.8284098  99.5605541  71.2644087
 109.0692835 100.7423428  71.3208663 108.0000379 100.6073750  71.4839525
 109.4678507 101.4234456  72.0727587 109.2349031 101.1607524  70.3280903
 109.2819512  99.0141846  72.6977858 109.5780797  99.6356280  73.3669019
 109.5158861  98.8808004  68.8947261 110.6657735  99.1459431  68.5914800
 108.4860176  99.0935190  68.1335555 107.5847788  98.7865497  68.4706575
 108.5486945  99.7816756  66.8217730 109.5242359  99.6746327  66.3474735
 107.4565314  99.2094657  65.8551063 106.4730425  99.3178960  66.3123726
 107.4811294  99.7574799  64.9132063 107.6545118  98.1543630  65.6662643
 108.2716231 101.2630351  67.0251675 108.7448735 102.0706382  66.2703375
 107.6213286 101.6534591  68.1087843 107.4350969 100.8914713  68.7450166
 107.1554403 102.9587568  68.4597302 107.8783149 103.7279550  68.1879111
 105.8404827 103.2040048  67.6562391 106.1373996 103.4656459  66.6406194
 105.2992496 102.2579556  67.6436764 104.9778545 104.2504605  68.1953747
 104.2521038 104.3231654  67.3853742 104.4671423 103.9674309  69.1157927
 105.6281901 105.6301694  68.3981947 106.3639740 106.0394269  67.5309990
 105.5530105 106.2846356  69.5454240 105.9940136 107.1885986  69.6374485
 105.0549563 105.8773124  70.3239683 106.8770544 103.1287175  69.9974625
 106.0638652 102.4402641  70.5986957 107.7190609 103.9955425  70.5971570
 108.4785951 104.3504137  70.0338866 107.7495224 104.2465473  72.0498300
 107.9212009 103.3294861  72.6134118 108.8874067 105.1791826  72.2986123
 109.0627693 105.1720468  73.3743893 109.7515640 104.7550206  71.7873211
 108.6736522 106.6074809  71.8305341 108.7846163 106.6951036  70.7497427
 107.6940672 106.9830216  72.1263118 109.7457229 107.4135350  72.5112618
 109.5265543 107.4021335  73.5789387 110.6929551 106.9056452  72.3298823
 109.8456480 108.9050974  72.0116922 110.5714255 109.4073028  72.6513306
 110.2230319 108.8740712  70.9895777 108.5190162 109.6734755  72.0432655
 108.1693696 109.7027117  72.9903622 108.6674415 110.6152634  71.7099407
 107.8464852 109.2085236  71.4502892 106.3939537 104.6006087  72.6876856
 105.4116614 105.0106223  71.9444362 106.2036174 104.4325935  73.9822933
 107.1907994 103.9180932  74.8663284 107.9049779 104.7188382  75.0583098
 107.6936011 103.0990798  74.3520264 106.4584656 103.4478239  76.1573326
 107.0881630 103.5466953  77.0415298 106.1088058 102.4187853  76.0741526
 105.2562770 104.4432508  76.1993335 105.5232136 105.3418939  76.7554670
 104.3826512 103.9793223  76.6572069 104.9499945 104.8072990  74.7277772
 104.1424513 104.2020328  74.3159215 104.5672641 106.3192498  74.6327184
 105.5613538 107.1067377  74.7443501 103.2910642 106.6935877  74.5378405
 102.5376184 106.0225020  74.5832583 102.9530988 108.1014989  74.3889223
 103.8457594 108.7224570  74.4642037 102.2860507 108.3691693  73.0468595
 101.9593552 109.4088480  73.0259211 103.2772772 108.1026628  71.8386682
 103.6040606 107.0629937  71.8586747 102.7660339 108.3042379  70.8973410
 104.1442286 108.7572583  71.9281136 101.1242687 107.6222650  72.7604759
 100.7897177 107.8700338  71.8954403 101.9661844 108.6150736  75.4465390
 101.7839932 109.8308209  75.5215906 101.3023132 107.7601109  76.2187688
 101.4044226 106.7946682  75.9402130 100.3480621 108.0755161  77.2453541
  99.8276055 108.9566786  76.8701520  99.3626395 106.9943935  77.4436524
  99.8673837 106.1079778  77.8278404  98.6053935 107.3187145  78.1574413
  98.8864947 106.7570772  76.4923026 101.0679589 108.5431460  78.5431414
 101.9534393 107.9263316  79.0833196 100.5954935 109.6769461  79.1190458
  99.9046132 110.2675592  78.6786372 101.1892102 110.1251254  80.3869626
 102.2304819 109.8250414  80.5044452 101.1027250 111.6321403  80.5121797
 100.0768073 111.9253419  80.2894129 101.4866841 112.1384425  81.9039208
 102.5127031 111.8460029  82.1272257 101.4050245 113.2250388  81.9311368
 100.8162643 111.7055108  82.6463554 101.9316720 112.3942113  79.4769325
 101.5889896 112.1360669  78.4749184 101.8151457 113.4663382  79.6352526
 102.9824389 112.1240581  79.5818473 100.5456314 109.4246565  81.5230452
  99.4138108 109.8180437  81.9435135 101.1913189 108.4414629  82.0945390
 102.0427927 108.0973044  81.6742456 100.6724593 107.7532478  83.2408181
  99.5851081 107.6926612  83.1950377 101.2546422 106.2989677  83.2565120
 102.3261938 106.4962121  83.2253520 101.0125565 105.7532290  84.1684680
 100.8950341 105.4600485  82.0947294 101.5963779 105.2440227  81.1029236
  99.6828954 105.0254153  82.0542115  99.3824798 104.4473183  81.2824251
  99.0388014 105.2648413  82.7944269 100.9168150 108.4768133  84.5609591
 100.1404058 108.2197630  85.5079517 101.8758929 109.3445672  84.5886471
 102.5041759 109.4666123  83.8073246 102.0645619 110.1490757  85.7291518
 101.0862639 110.5379032  86.0117214 102.4391899 109.4996111  86.5203211
 103.0174544 111.3026105  85.5492728 103.8494984 111.3480865  84.6819991
 102.7822539 112.3654088  86.3209861 102.0179081 112.3389757  86.9806649
 103.6394001 113.6016342  86.2711645 104.6430728 113.3224911  85.9505098
 103.0873807 114.6561891  85.2964290 103.6990695 115.5568069  85.2432920
 102.9224579 114.2697546  84.2906612 101.4982372 115.1751502  85.8907996
 101.2603579 116.0433458  84.9117449 103.7529243 114.3564772  87.6286660
 102.8819778 114.3633101  88.5243716 104.7748522 115.1523097  87.7545944
 105.4393736 115.2943755  87.0073809 105.0214254 115.8261013  89.0521157
 104.1536458 116.3448097  89.4595458 105.5533517 114.7972491  90.1377775
 104.8963453 113.9290844  90.0855097 107.0009791 114.3496015  89.9681534
 107.6586685 115.2172284  90.0207744 107.2605251 113.6489194  90.7617409
 107.1201020 113.8621856  89.0005083 105.4103620 115.1869655  91.5887785
 104.3564291 115.3365670  91.8231860 105.8134795 114.3948062  92.2197141
 105.9577574 116.1113921  91.7728832 106.0018736 116.9593121  88.8466707
 106.8971978 116.8200564  88.0221967 105.9187992 118.0564724  89.6494633
 105.1422755 118.1567493  90.2874718 106.9445854 119.0746579  89.6532064
 107.9341637 118.9533818  89.2126092 106.3003518 120.3794892  89.0827335
 107.0515903 121.1446480  89.2783684 105.8663739 120.4563229  87.6284895
 105.1147489 119.6917116  87.4322010 105.4440118 121.4406228  87.4263432
 106.7286210 120.2918242  86.9822925 105.3016796 121.0735039  89.8511667
 105.0074178 121.8488208  89.3675408 107.5045884 119.4481193  91.0583588
 106.9008279 119.3630541  92.1484336 108.6912576 119.9613977  90.9144826
 109.1211922 120.0763439  90.0078167 109.4430727 120.3928686  92.1022573
 108.8903223 121.2081468  92.5690418 109.4939293 119.5486147  92.7898243
 110.8415021 120.8608333  91.7965314 111.1210993 121.1323197  90.6468313
 111.6988467 121.0145758  92.8016605 111.3565164 120.6679469  93.6863965
 113.0520037 121.5903164  92.7545227 113.2090546 122.1124584  91.8106996
 113.2255035 122.6313426  93.9469723 112.6500928 122.1849721  94.7579933
 114.2279071 122.8704081  94.3021270 112.5600628 123.9439556  93.6174241
 112.3491973 124.9400289  94.5790653 111.7461461 125.9301848  93.9611960
 111.3704817 126.7755836  94.5376299 111.7133189 125.6799342  92.6484546
 111.3591668 126.2957236  91.9304855 112.2285960 124.4730628  92.4322788
 112.3134880 124.0909423  91.4149891 114.0587297 120.3944200  92.9414679
 114.4496072 120.0270738  94.0268897 114.3569399 119.6831722  91.8587305
 114.1145322 120.0582866  90.9528458 115.0500584 118.3214018  91.9176360
 115.0436032 117.8788961  92.9137516 114.1659483 117.4161431  90.9535089
 113.1931406 117.2292877  91.4082940 114.0284229 117.9199497  89.9967614
 114.7979286 115.9944369  90.6318467 114.9425115 115.0312659  91.6749743
 114.6053116 115.2351608  92.6912533 115.5526394 113.7612996  91.3577276
 115.6476388 113.0045012  92.1364008 116.0099307 113.5032894  90.0922473
 116.4551035 112.5305433  89.8832351 115.9111906 114.4871756  89.0496758
 116.3680839 114.3106707  88.0759228 115.2215060 115.6795339  89.2928029
 115.0081799 116.3630515  88.4709784 116.4851880 118.3849884  91.4452772
 117.2968688 117.4746759  91.6547206 116.8039413 119.4988444  90.6895649
 116.1822399 120.2812930  90.5434113 118.1708351 119.5531275  90.0766988
 118.6145441 118.5790622  90.2826555 118.0345784 119.7146570  88.5830886
 119.0353556 119.7330910  88.1515734 117.2264122 118.5784042  87.9490649
 116.2252954 118.5596308  88.3797764 117.1555798 118.7386048  86.8732314
 117.7224398 117.6272514  88.1423664 117.2627934 120.8346249  88.2657800
 117.1917615 120.9144145  87.3117421 118.9921396 120.7227199  90.5741910
 120.2279371 120.6021918  90.6249187 118.3199152 121.7857229  91.0711770
 117.4173243 121.8350438  90.6206256 118.6792087 122.8456254  92.0418489
 118.4540647 122.5333976  93.0616151 120.2218864 123.1093423  91.9271971
 120.7646508 122.2221876  92.2534832 120.4742679 123.3278986  90.8895860
 120.5773330 124.1924615  92.7296037 121.5215568 124.3492169  92.6556515
 117.9101369 124.1447952  91.8763307 117.3002829 124.3616561  90.8301957
 117.6581033 124.7962995  93.0556675 118.3203172 124.6844069  93.8100230
 116.4752886 125.5952365  93.2939574 115.5967804 124.9500166  93.2902225
 116.6394136 126.1964424  94.7052751 117.5099301 126.8521910  94.7224450
 115.7485096 126.7693127  94.9625879 116.7759232 125.3931874  95.4293232
 116.2393966 126.6778461  92.2898053 115.1068662 127.0269997  92.0699082
 117.2258787 127.2331184  91.5476419 118.1788405 126.9540059  91.7321936
 116.9863308 128.2679011  90.5261343 116.5423556 129.1662254  90.9550850
 118.3358989 128.6218688  89.9586332 118.1265610 129.4349705  89.2635487
 118.8900860 129.0090868  90.8136414 119.1627701 127.5599244  89.2595772
 118.3972371 126.8706454  88.9032705 119.6426881 128.0411624  88.4074106
 120.2117709 126.7855201  90.0663122 120.0223248 126.4104102  91.2318231
 121.3112309 126.6186019  89.4627303 116.0112254 127.8913746  89.3798750
 115.3131111 128.7450268  88.8099511 115.9176260 126.6222370  89.0837284
 116.5633362 126.0050028  89.5550878 114.9305955 126.0164538  88.0970879
 114.5470820 126.8129018  87.4593676 115.5657743 124.9148008  87.1918130
 115.7911344 124.0380474  87.7989501 114.7698630 124.6734080  86.4872885
 116.7835161 125.3247927  86.4422649 117.6880656 124.5528903  86.2227793
 116.8432424 126.4548049  85.9776022 113.7500235 125.3657439  88.8044545
 114.0076963 124.7431753  89.8367815 112.5507515 125.4142237  88.3025329
 112.3951601 126.1540771  87.6328258 111.3632756 124.5592892  88.7223066
 111.6052936 124.0397793  89.6494722 110.1072114 125.4075630  88.9497163
 110.2446862 126.0485044  89.8205746 110.1101165 126.0174203  88.0462974
 108.7340259 124.6523454  89.0670955 108.4897059 124.2219657  88.0959200
 108.8010358 123.5392887  90.1157654 109.0448730 123.9689841  91.0873641
 107.8362280 123.0354147  90.1737090 109.5697925 122.8197492  89.8340272
 107.7482243 125.6790576  89.6271234 107.6787663 126.5264524  88.9450698
 106.7660207 125.2189948  89.7353808 108.0963848 126.0244226  90.6005741
 111.2348582 123.4771336  87.6544441 110.8627482 123.7363179  86.4903408
 111.6415364 122.2096954  87.9941029 111.9586993 122.1061975  88.9474104
 111.6128804 120.9855548  87.1130395 111.9975351 121.2662302  86.1325491
 112.4559882 119.7958250  87.6559680 111.8757576 119.5526735  88.5460854
 112.4545934 118.9425735  86.9776908 113.8807717 120.0802965  88.0711427
 114.1798761 120.3655807  89.2083162 114.7368444 120.1684440  87.1130794
 115.7067506 120.3570661  87.3223722 114.4342617 120.0485331  86.1569591
 110.1587124 120.3755599  86.9645951 109.3499486 120.4043036  87.9115084
 109.7873323 119.9173046  85.7814954 110.4227389 120.1182653  85.0225668
 108.5898523 119.0938068  85.4953856 107.9291154 119.1051140  86.3622178
 107.7953632 119.6435450  84.2489394 107.2782794 120.5745839  84.4810823
 108.6512376 119.8540263  83.6076309 106.8190220 118.6771264  83.5115013
 107.3700595 117.7981007  83.1771776 105.7112633 118.2519717  84.4393268
 105.1594478 119.1304786  84.7737280 105.0353877 117.5772780  83.9138924
 106.1361756 117.7400546  85.3027448 106.0146827 119.4540643  82.4162316
 106.7071476 119.8826903  81.6917513 105.3363191 118.7686323  81.9081893
 105.4396872 120.2526576  82.8849829 109.2287761 117.7101639  85.1309218
 109.9358592 117.5743400  84.1202288 108.7849231 116.6292205  85.7700288
 108.2062065 116.9000181  86.5522405 109.0591578 115.1742184  85.5613204
 109.7893917 115.0624734  84.7598401 109.6155917 114.4987667  86.8335123
 108.7774322 114.5169586  87.5301162 109.8708349 113.4651419  86.5999083
 110.8050726 115.1802819  87.4610617 111.3609351 115.6900109  86.6741093
 110.3953129 116.1716081  88.5040144 109.8397606 115.6625073  89.2915910
 111.2828929 116.6391999  88.9302309 109.7643288 116.9363755  88.0511456
 111.7602374 114.1428274  88.0643428 112.1097065 113.4708407  87.2805031
 112.6134209 114.6514335  88.5132294 111.2373329 113.5678975  88.8286239
 107.7415796 114.4770097  85.0658270 106.6396125 114.6544416  85.6175130
 107.8824132 113.6241727  84.0274076 108.8301898 113.5256749  83.6925689
 106.8098116 112.8497527  83.3467363 105.9019406 112.9033491  83.9475664
 106.5349244 113.4721634  81.9214199 107.5029562 113.7708135  81.5191476
 105.8305409 112.5290176  80.9207017 104.8621711 112.2302890  81.3221014
 105.6861384 113.0468851  79.9725129 106.4456705 111.6435530  80.7604919
 105.5910525 114.7098480  82.2036410 104.5546900 114.5120475  81.9299103
 105.6358068 115.0372539  83.2423431 106.1565637 115.8058239  81.2992148
 106.1117108 115.4793073  80.2602369 105.5687754 116.7158799  81.4192234
 107.1928291 116.0045122  81.5726685 107.1734437 111.3436816  83.1554078
 108.2021019 110.9456632  82.6238312 106.2108301 110.4978063  83.5715878
 105.4600715 110.8693327  84.1358830 106.2288288 109.0585624  83.3002555
 107.2196845 108.7690721  82.9502563 105.9599607 108.3651590  84.6211865
 104.9675509 108.6380624  84.9799992 106.0112814 107.2852610  84.4823098
 106.7074459 108.6728572  85.3524094 105.2218819 108.6125857  82.2265964
 104.0634558 108.9356942  82.2757979 105.7197624 107.7820241  81.2394153
 106.7195531 107.6475347  81.1901165 104.8841396 107.1377900  80.2303865
 103.8294599 107.2778694  80.4672990 105.1740882 107.7817998  78.8156105
 106.1141918 107.3742548  78.4438425 104.3647546 107.4994453  78.1422940
 105.2735665 109.3401153  78.8854308 104.3623810 109.7629071  79.3086200
 106.1285942 109.6420170  79.4903150 105.4513600 109.8385997  77.4888096
 106.2314202 109.2435465  77.0139237 104.5111153 109.6956094  76.9562750
 105.8509671 111.3537252  77.4452000 104.9605434 111.9402962  77.6714319
 106.6024922 111.5229244  78.2163556 106.3821301 111.7583432  76.1546218
 105.6857488 111.6020422  75.4399730 106.6223498 112.7389809  76.1818993
 107.2074684 111.2152298  75.9449946 105.1057713 105.6463636  80.1871235
 106.1141523 105.2204406  79.5307864 104.3438580 104.7395658  80.7944809
 103.4706150 105.1141401  81.1368842 104.6831833 103.3438397  81.1254312
 104.0962254 103.0117691  81.9817656 104.3698424 102.4091204  79.9124072
 103.3768645 102.6194148  79.5150780 105.1089014 102.5188049  79.1187693
 104.4007941 100.9390531  80.4208768 103.8788344 100.6773615  81.4549724
 104.9926345 100.0012677  79.7497156 104.9964284  99.0557479  80.1047899
 105.4472064 100.2204943  78.8748414 106.1249801 103.1409025  81.6427691
 106.3546595 103.1191584  82.8101382 107.1396192 102.9762896  80.7383516
 106.8777115 103.0766344  79.7680761 108.5176775 102.6542362  81.0479741
 108.8330947 102.5550671  82.0866158 108.9389195 101.4276705  80.3010559
 110.0288487 101.4304455  80.2889341 108.4393345 100.1054849  80.8849437
 107.3494072 100.1017796  80.8969607 108.7982317  99.2784802  80.2722813
 108.8137749  99.9924600  81.9023524 108.7081556 101.6083742  78.8654953
 108.9811824 100.8171169  78.3954222 109.5218985 103.7689540  80.7117665
 110.7055538 103.5487881  80.8027124 109.0295268 105.0118618  80.4343080
 108.0254408 105.1075631  80.4867675 109.7934267 106.1491730  80.0926866
 110.8349874 105.8529941  79.9680729 109.3083103 106.8000540  78.7873874
 108.3113309 107.2051565  78.9606598 109.9917472 107.6120448  78.5390229
 109.2583719 105.7932745  77.6167947 108.5434516 105.0227796  77.9054596
 108.8733738 106.3416687  76.7570609 110.5800708 105.1449304  77.2519070
 110.9283174 104.5778595  78.1151879 110.4045224 104.4651775  76.4181096
 111.6189865 106.0984647  76.8679378 111.2499679 107.0269328  76.7200471
 112.9339962 105.9142544  76.7692098 113.3379175 104.7223935  76.8909225
 112.6717411 103.9806955  77.0527656 114.3248135 104.5177350  76.8257232
 113.7483095 106.8794639  76.4815652 113.3882090 107.8098292  76.3239320
 114.7395832 106.6972326  76.4162434 109.7146994 107.2278681  81.1871591
 108.5977082 107.4007658  81.7292681 110.8299242 107.8469920  81.4291512
 111.7114170 107.5257931  81.0551180 110.8486160 108.9576317  82.4558075
 109.8375298 109.2930207  82.6867146 111.4825256 108.4144487  83.7267740
 110.7176414 107.8167114  84.2225174 112.2675716 107.7588968  83.3498730
 112.0736815 109.3911583  84.7120334 112.5515561 110.1838544  84.1363863
 111.0259789 110.0141593  85.6832055 110.5479807 109.2220586  86.2595673
 111.5250716 110.7059707  86.3617365 110.2710975 110.5507835  85.1084979
 113.0325716 108.6536265  85.5495335 113.8146871 108.2295436  84.9198125
 113.4796229 109.3330492  86.2752272 112.5147836 107.8511285  86.0748823
 111.5138846 110.2341848  81.7566087 112.6292314 110.1240782  81.2462420
 110.8269948 111.3364551  81.6330748 109.9708801 111.3767805  82.1674351
 111.2667892 112.5605796  80.9131241 112.2350749 112.3776818  80.4472159
 110.2655648 112.9569853  79.8224940 109.2864258 113.0663645  80.2887797
 110.5800461 113.9156017  79.4098728 110.1810432 111.9047794  78.6814046
 111.1480060 111.7125021  78.2165249 109.8817537 111.0366287  79.2686347
 109.1302312 112.1714147  77.5879986 108.4849133 113.2507021  77.5729154
 109.1146983 111.3331967  76.6654791 111.2143460 113.7845209  81.8696122
 110.4381909 113.7530051  82.8442290 112.1036673 114.7392530  81.6043739
 112.6111152 114.6966320  80.7321472 112.4029413 115.8348366  82.5288882
 111.5748731 116.0291630  83.2105330 113.6990419 115.6725362  83.3327140
 114.5100771 115.4399834  82.6426115 114.0335201 116.9420050  84.0973297
 113.2230985 117.1749622  84.7880166 114.9571691 116.7966530  84.6575493
 114.1606104 117.7665002  83.3957921 113.6440784 114.3966074  84.2492999
 112.9355300 114.6279056  85.0446369 113.2428215 113.5964887  83.6272850
 114.9782478 113.9452104  84.8670425 115.3799149 114.7446938  85.4896096
 114.8145248 113.0572898  85.4776904 115.6872074 113.7132790  84.0722570
 112.4963795 117.1544947  81.6848381 113.2490429 117.2379330  80.6748773
 111.8042534 118.1717929  82.1155445 111.3784265 118.1006412  83.0286207
 111.6129036 119.4355901  81.3410313 112.4348069 119.5433636  80.6332466
 110.2946331 119.4478520  80.5649170 109.6793177 119.2709225  81.4470633
 110.1045158 120.4517908  80.1853617 109.9613870 118.4658481  79.5335217
 110.0122272 118.8381962  78.1689861 110.3158731 119.8450876  77.8825105
 109.6668297 117.8967914  77.1772147 109.7261419 118.1785490  76.1259314
 109.2282787 116.6050789  77.5377391 108.9448711 115.6515860  76.6045946
 109.0760745 115.9573209  75.7040884 109.0894219 116.2596018  78.9064017
 108.7723205 115.2537531  79.1817478 109.3580362 117.2051179  79.9014051
 109.1125715 116.9872256  80.9408136 111.5842054 120.7097302  82.2374422
 111.4247011 120.5291104  83.4451677 111.9260571 121.8832283  81.7219449
 112.1769208 121.9013571  80.7437639 111.7914699 123.1984705  82.4508204
 111.1738732 123.2257994  83.3485545 113.1804623 123.7285896  82.7979052
 113.1361868 124.7914491  83.0355366 113.6494220 122.9878096  83.9664559
 113.6944045 121.9248434  83.7294321 114.6425612 123.3395977  84.2457768
 112.9616974 123.1454875  84.7972833 114.3051561 123.8563284  81.7364385
 113.9815434 124.5295943  80.9426565 115.2047842 124.2545703  82.2056638
 114.5202792 122.8746741  81.3143274 111.2424997 124.2237572  81.3960906
 111.4749871 124.1033798  80.1442268 110.5522914 125.2749109  81.8982891
 110.3200230 125.2128556  82.8792580 109.9332579 126.3816633  81.0868770
 109.6578219 125.9768793  80.1130268 108.6248277 126.8634555  81.8201306
 108.8533199 127.4721768  82.6949729 107.8552023 127.7487992  80.7445874
 107.6259444 127.1405959  79.8695842 106.9284129 128.1242419  81.1784131
 108.4834015 128.5887764  80.4480984 107.6416959 125.7480750  82.2479286
 108.1418512 125.0663739  82.9358459 106.7785482 126.1937998  82.7423020
 107.3110613 125.1971139  81.3674608 111.0046444 127.4467770  80.7299758
 111.6898189 128.0328608  81.6087976 111.1378766 127.7651512  79.4391450
 110.5547164 127.2948834  78.7617444 112.1985130 128.6994075  78.9376106
 112.5109085 129.2168417  79.8446773 113.4495895 127.9738354  78.3161916
 114.0608743 128.7716097  77.8943061 114.2959592 127.1211134  79.2282259
 113.6854286 126.3227866  79.6501577 115.1189203 126.6870222  78.6604241
 114.6959992 127.7364630  80.0340878 113.0325815 127.0098019  77.4099881
 113.7992524 126.5707923  77.0343731 111.6898028 129.7442425  77.9357674
 110.5430121 129.6618306  77.4959753 112.4732872 130.7049209  77.4524164
 113.4229477 130.8220606  77.7757160 111.8989943 131.7475425  76.5429149
 111.1335562 132.2532898  77.1314924 112.9832988 132.7705217  76.1637695
 113.7523798 132.2809875  75.5662991 112.5348724 133.5788399  75.5861575
 113.4321155 133.1776882  77.0697928 111.1507300 131.1326541  75.2863617
 110.0514816 131.5577517  74.8580088 111.7042900 130.1372951  74.6323436
 112.6446354 129.8979307  74.9126195 111.1603348 129.5223886  73.3942234
 110.5397259 130.2403547  72.8580626 112.3303013 129.0895087  72.4692085
 113.0936701 128.5754280  73.0532362 111.9596805 128.4233496  71.6901242
 112.9348437 130.3365222  71.8271564 113.5609880 130.0092984  70.9971151
 112.0781985 130.8881595  71.4399169 113.7403865 131.2338773  72.7435895
 114.3876338 130.7802714  73.7375848 113.8502435 132.4641486  72.5629656
 110.1207292 128.5015029  73.7113396 109.6611882 127.8276014  72.7938061
 109.7487694 128.2645958  74.9866400 110.1874573 128.8360929  75.6944841
 108.7853552 127.2703775  75.4075865 107.9980692 127.7631600  75.9780647
 108.3536742 126.8024366  74.5228367 109.4270550 126.1932403  76.2755069
 110.3966255 126.4071968  76.9747870 108.8662403 124.9439149  76.2671994
 108.2782913 124.6691133  75.4933135 109.1381454 123.9744990  77.2951261
 109.2390108 124.4166270  78.2863114 107.8865152 123.0786398  77.2811957
 107.0516304 123.7259152  77.5497119 107.7472030 122.7094873  76.2651156
 107.9447224 121.9238292  78.2264483 108.9718877 121.5684891  78.3087029
 107.4424970 122.3832278  79.6233844 106.4151685 122.7382962  79.5420130
 107.4825052 121.5444636  80.3183482 108.0770324 123.1896267  79.9910610
 107.1265823 120.7171604  77.8098345 107.4820802 120.3515376  76.8464859
 107.2312880 119.9308645  78.5574151 106.0773928 121.0003884  77.7256783
 110.3693469 123.2263459  76.7939946 110.3025005 122.3868567  75.8709217
 111.4583823 123.4286593  77.4709237 111.4544783 124.1190151  78.2081435
 112.7414447 122.7772590  77.1267454 112.8367285 122.6034820  76.0549144
 113.8536526 123.7649748  77.5698493 113.5968966 124.7494822  77.1787984
 113.8537120 123.7960762  78.6594055 115.2623731 123.3599159  77.0646743
 115.5312208 122.4249073  77.5561829 115.1913479 123.1971231  75.9892414
 116.3056600 124.3843226  77.3432283 116.1380421 124.7760539  78.3464979
 117.2798775 123.8971867  77.3020182 116.2989574 125.5426235  76.3612592
 115.4732092 125.4967429  75.7814883 117.1871053 126.4422013  76.0983923
 118.2718634 126.4924137  76.7984941 118.4181553 125.8288615  77.5457539
 118.9684057 127.1949807  76.5952011 116.9107347 127.3881231  75.2096133
 116.0122282 127.3964446  74.7484010 117.6001728 128.0953695  74.9984820
 112.7925243 121.3588131  77.7717439 112.5775232 121.2304664  78.9781922
 113.2153742 120.3106421  77.0514477 113.4508553 120.2856606  75.6190967
 114.3267875 120.9134371  75.4555736 112.5770629 120.7579827  75.1702118
 113.6479987 118.9062088  75.1461779 114.6832047 118.7204059  74.8599527
 112.9918071 118.6683936  74.3089456 113.2531009 118.0905419  76.4100815
 113.9923810 117.2896625  76.3975839 112.2532266 117.6604600  76.4682248
 113.5006887 119.0149902  77.6232569 112.8852921 118.8328978  78.5042947
 114.9952995 119.0350118  78.0331051 115.9143940 119.2746871  77.2350185
 115.1944573 118.6179165  79.2957205 114.3720427 118.5504856  79.8781179
 116.5084039 118.4180793  79.9205839 117.4111609 118.8247278  79.4647703
 116.4408425 118.8931980  81.3968047 115.5673072 118.4164211  81.8414610
 117.6782101 118.5672801  82.2309414 118.5521389 119.0441283  81.7871339
 117.5398649 118.9370689  83.2469224 117.8268832 117.4877312  82.2548628
 115.9391720 120.3878124  81.4486156 114.9475587 120.4544992  81.0010020
 115.8922110 120.7201078  82.4856662 116.6305957 121.0230872  80.8950272
 117.1377862 116.9938655  79.7931792 118.2379567 116.7417526  79.3392915
 116.4033910 115.9509358  80.2234269 115.6005520 116.1727714  80.7946868
 116.8426450 114.5282518  80.1433814 117.3693520 114.3350739  79.2088434
 117.8038691 114.2557369  81.3154795 118.6219703 114.9594694  81.1619530
 117.2377115 114.5450948  82.2008255 118.3646516 112.8666914  81.5086543
 118.7716269 112.7915265  82.5170303 117.5572817 112.1443249  81.3884770
 119.4571285 112.5748476  80.5004939 119.1376663 112.8813740  79.5044595
 120.3672080 113.1105280  80.7704963 119.7250904 111.1007692  80.5070660
 120.1727845 110.8195542  81.4602652 118.7864972 110.5627094  80.3742749
 120.6622089 110.7509329  79.3935556 121.5321511 111.2490773  79.5166507
 120.8393995 109.7566377  79.4025248 120.2473727 111.0110416  78.5101794
 115.6564216 113.5922987  79.9174971 114.6739442 113.7432539  80.6466745
 115.7853887 112.5467297  79.0849017 116.5743393 112.6075784  78.4572445
 114.8359504 111.3699396  78.9364467 114.0978481 111.3321605  79.7376188
 114.1192453 111.5934957  77.6326083 113.5204417 112.4997602  77.7232620
 114.8668143 111.7292499  76.8510641 113.2005590 110.4030688  77.2661111
 113.7377737 109.4717959  77.4456439 112.4237307 110.5251142  78.0209236
 112.5644592 110.3625431  75.8873422 112.3673536 111.4442798  75.2949302
 112.3765060 109.2809409  75.3675602 115.6350147 110.0388972  79.0341887
 116.6233140 109.7804393  78.3554421 115.1042297 109.0710931  79.8648038
 114.2901142 109.4214083  80.3491534 115.6065856 107.7338840  80.2209489
 116.3450614 107.4670414  79.4649411 116.2708629 107.6747477  81.5939280
 116.8525569 106.7532758  81.6188484 117.1871918 108.8706871  81.9314415
 116.6060625 109.7925334  81.9071701 117.6108701 108.7349736  82.9265189
 117.9924671 108.9300571  81.1992472 115.2405652 107.6797152  82.6744056
 114.5885774 106.8138074  82.5594377 115.7322956 107.6371442  83.6462536
 114.6475420 108.5918262  82.6074885 114.4833980 106.7126943  80.0632937
 113.3016244 107.0546521  80.0295157 114.7915767 105.4153137  80.1705857
 115.7652646 105.1548114  80.1060127 113.7699680 104.3220539  80.3820085
 112.8050463 104.7764718  80.6067968 113.6888606 103.7307287  79.4699474
 114.1628669 103.4152585  81.5215828 115.3408715 103.3544437  81.8445811
 113.2523853 102.5770451  82.0139897 112.4072851 102.5926372  81.4611228
 113.3069962 101.6757659  83.1874416 114.3294796 101.5522661  83.5443375
 112.4658747 102.3261118  84.3119321 111.4750941 102.5153272  83.8988333
 112.3899845 101.5940860  85.1159713 113.0301205 103.5949437  84.8481721
 113.9771453 103.3647991  85.3363099 113.2084437 104.2675248  84.0091623
 111.9055903 104.4217610  86.0619166 111.8602773 103.4215537  87.5628017
 112.8650641 103.3424991  87.9778353 111.2018679 103.8914243  88.2934311
 111.4864844 102.4256032  87.3251829 112.7282986 100.2805385  82.8594331
 111.8901860 100.0504148  81.9866408 113.1404750  99.3614181  83.6818158
 113.8915020  99.5165625  84.3390737 112.5407821  98.0259728  83.6146793
 112.2265875  97.7888213  82.5982443 113.5994834  97.0104728  84.0485875
 113.7106529  97.2302932  85.1103877 113.1610465  96.0199604  83.9271033
 114.9487367  97.0457083  83.3858516 115.0397573  97.2529605  82.0033470
 114.1532661  97.4659938  81.4059781 116.2987693  97.1824665  81.3893939
 116.3573534  97.2041951  80.3011854 117.5091275  97.0387309  82.1790210
 118.7398386  97.1443936  81.5547785 118.6691598  97.3110028  80.6119924
 117.3627687  96.8413169  83.5508536 118.2476577  96.7125440  84.1741429
 116.0987884  96.8081771  84.1244542 115.9878857  96.5903773  85.1866990
 111.2999906  97.8204506  84.4272101 111.2170734  96.9919045  85.3903077
 110.3211913  98.7421722  84.1887457 110.4499668  99.3999813  83.4332304
 109.1391975  98.8201201  84.9462804 108.7491564  97.8043349  85.0106819
 109.4337269  99.1593132  85.9394066 108.0888799  99.7022163  84.4335297
 108.3543659 100.8637765  84.0441108 106.8941756  99.2081546  84.7163417
 106.8105566  98.2180157  84.8972616 105.6769075  99.9986791  84.6322728
 105.6509388 100.6754296  83.7782040 104.5660305  98.8826263  84.4292145
 104.7193798  98.4068783  83.4605829 104.6676531  98.1384139  85.2191010
 103.1672524  99.4912262  84.4809821 102.9911725  99.7269261  85.5305260
 103.2308220 100.4158065  83.9072119 101.9875155  98.6212252  83.9376183
 101.9925609  97.6996408  84.5196455 101.0740407  99.1777430  84.1472637
 102.0476519  98.2807207  82.4377138 103.0702885  97.9767028  82.2143573
 101.3741403  97.4406653  82.2680429 101.6793461  99.3613333  81.5910692
 102.3035823 100.1397011  81.7478254 101.7411211  99.0692257  80.6262081
 100.7316314  99.6429156  81.7975814 105.4284768 100.9715076  85.7604359
 105.0807918 100.6235740  86.8956832 105.8876939 102.2139942  85.4742266
 106.1945010 102.4547587  84.5425607 106.0112786 103.2155916  86.5210883
 106.6913010 102.8428611  87.2870783 106.5420924 104.5453245  85.9696319
 105.9076046 104.8720070  85.1457362 106.5340205 105.5924702  87.0560143
 107.1687040 105.2666831  87.8801139 106.9121779 106.5336748  86.6569758
 105.5153411 105.7345620  87.4168484 107.9920062 104.3660115  85.4396604
 108.6308461 104.3221100  86.3217358 108.0087866 103.4020213  84.9311913
 108.5067237 105.4527431  84.4903394 108.4906738 106.4170164  84.9982955
 109.5276104 105.2185644  84.1885945 107.8686124 105.4969291  83.6077515
 104.6531491 103.4304755  87.2191441 103.7384987 103.9464212  86.5796249
 104.6239174 103.1471211  88.5169398 105.5068781 102.8163513  88.8789772
 103.4416565 103.0775800  89.3904569 102.6389250 103.2486012  88.6731891
 103.3489536 101.6502794  89.8895164 104.1409071 101.4665320  90.6155649
 102.3795735 101.4923538  90.3622340 103.4595833 100.9635031  89.0503510
 103.2413742 104.1436673  90.5435505 102.1514733 104.2461086  91.1425104
 104.2874402 104.9768357  90.7000792 105.0012302 104.8836789  89.9916125
 104.4738846 105.9735941  91.7371815 103.4959242 106.4138754  91.9317195
 105.0548648 105.4177699  93.0931990 105.9793146 104.8879322  92.8634954
 105.3387231 106.5169211  94.1234282 104.4145893 107.0469358  94.3539973
 105.7365507 106.0684137  95.0337440 106.0671475 107.2180532  93.7161036
 104.1305045 104.4661783  93.8029600 103.9285571 103.6084888  93.1613308
 104.5980075 104.1259514  94.7269655 103.1943310 104.9737235  94.0355063
 105.4477341 106.9266454  91.1533320 106.4982397 106.5823959  90.6336550
 105.1772931 108.2450981  91.3022252 104.2216625 108.5643950  91.3723614
 106.2382946 109.2479029  91.2039177 107.1987345 108.8387403  91.5173507
 106.3407462 109.6655404  89.7455359 106.3512368 108.7896807  89.0967995
 105.5045998 110.3092843  89.4724922 107.6471610 110.4336591  89.5827009
 107.4645666 111.4473356  89.9393802 108.3812090 109.9491955  90.2265724
 108.2980032 110.5052134  87.8786442 107.0029064 111.4082839  87.0384913
 106.8878478 112.3904364  87.4970073 107.2652864 111.5271392  85.9872393
 106.0651562 110.8584381  87.1184638 105.9852508 110.3869039  92.2227399
 104.9633449 111.0031244  92.1148853 106.9144282 110.6096218  93.1597922
 107.7752308 110.0903706  93.0623420 106.7725427 111.4522795  94.2595001
 106.0359309 112.2190342  94.0195222 106.3049233 110.6954540  95.5411308
 105.3852555 110.2079571  95.2176231 107.0830530 109.9452673  95.6819639
 106.0516903 111.4415354  96.8891203 105.8328112 110.7545512  97.7065831
 107.0000848 111.9433584  97.0810075 104.9573139 112.4628931  96.7880333
 103.8399630 112.1666562  97.3026358 105.2119463 113.5949786  96.3035648
 108.1087019 112.2195380  94.6113384 109.1842658 111.7251275  94.3844870
 108.0892562 113.4338998  95.1340450 107.2051021 113.9210578  95.1664172
 109.3336597 114.1595835  95.6361445 110.2435185 113.6110067  95.3925882
 109.3744225 115.5265299  94.9183327 108.3448687 115.8602341  95.0477925
 110.0464605 116.2172723  95.4275870 109.7078660 115.4912623  93.4575642
 109.1513199 114.6949607  92.9633366 109.3169348 116.8381540  92.8504056
 109.8734553 117.6349618  93.3438435 109.5498292 116.8385884  91.7855766
 108.2482992 117.0029201  92.9881388 111.1421309 115.1030413  93.0749615
 111.3596312 114.1018665  93.4470395 111.2458213 115.1173568  91.9899986
 111.8412921 115.8137157  93.5156592 109.3583898 114.3416864  97.2237792
 108.3421407 114.5897223  97.8111794 110.5739657 114.3088937  97.7861500
 111.3173089 113.9531842  97.2021885 110.8848596 114.6296482  99.2105792
 110.1960359 115.3902378  99.5781722 110.7408866 113.3700316 100.0867891
 110.9434515 113.7905602 101.0717878 109.7724941 112.8698414 100.0979961
 111.8018166 112.2734831  99.8478354 111.7105905 111.4728394  98.6801288
 110.9225505 111.7132327  97.9664736 112.5689690 110.4269976  98.4306527
 112.5156220 109.8887261  97.4843343 113.5178428 110.0524982  99.4010143
 114.1993885 109.2174926  99.2386531 113.5734344 110.7731694 100.5853219
 114.2940412 110.4799517 101.3487676 112.7127486 111.8741152 100.8101359
 112.7616244 112.4206822 101.7519297 112.2120215 115.2957342  99.5575009
 113.1108268 115.0525394  98.7483746 112.3511194 116.0419683 100.6650087
 111.5070931 116.3031312 101.1544092 113.6562212 116.6142959 101.1405256
 114.5012538 116.1541532 100.6283853 113.6434789 118.1203177 100.8144092
 113.3755182 118.2362933  99.7642445 112.8846501 118.5943532 101.4369597
 115.0582966 118.8108715 101.0817771 115.3618900 118.6783650 102.1202249
 115.8212996 118.3936140 100.4246436 114.8843511 120.3648291 100.7736801
 114.1057057 120.7758757 101.4162149 115.8250788 120.8796433 100.9688652
 114.5193045 120.5829300  99.4212253 114.0886694 119.7990566  98.9519758
 114.6672160 121.7230744  98.7487895 115.4090377 122.6771434  99.1875352
 115.8977018 122.5701180 100.0649479 115.4995909 123.5291119  98.6526992
 114.1133568 121.9457263  97.6057006 113.5350890 121.2347714  97.1811423
 114.2604633 122.8300071  97.1403988 113.9359571 116.2971887 102.6293103
 113.5270018 117.0892204 103.4934557 114.7031995 115.2342608 102.9675665
 115.2381580 114.2594186 102.0667529 116.1280639 114.6689532 101.5887893
 114.4908247 114.0308911 101.3069061 115.5462675 113.0740235 102.9442528
 116.3005361 112.4389417 102.4796574 114.6446686 112.4902308 103.1297436
 116.0641226 113.7009167 104.2348716 117.1306908 113.9186189 104.1788639
 115.8622107 113.1020319 105.1229416 115.2833000 114.9836849 104.2931099
 114.4667872 114.8898079 105.0090653 116.2197363 116.1080194 104.7340566
 116.9813369 116.6604158 103.8782530 116.2333799 116.3792002 106.0771116
 115.5550584 116.0113828 106.7287938 117.1891905 117.3990232 106.5608482
 117.0557638 118.3179844 105.9900533 116.9742709 117.7083252 108.0411170
 117.2185158 116.8217416 108.6262779 117.6334845 118.5268233 108.3302509
 115.4845087 118.1175661 108.3099560 115.1946194 118.8401832 107.5471391
 114.8704142 117.2221897 108.2135659 115.2737276 118.7439216 109.7281207
 115.7958332 118.1049532 110.4403173 115.7401124 119.7290133 109.7147434
 113.8120101 118.8793009 110.1433947 113.6836526 119.5068078 111.0253584
 113.1805569 119.2528909 109.3372951 113.4406904 117.5420184 110.4552125
 114.0254051 117.1958003 111.2024350 112.4738839 117.5203222 110.7466134
 113.5591497 116.9604752 109.6379770 118.6572380 117.0798505 106.2608776
 119.0327171 115.9575608 106.2597820 119.4047116 118.0636308 105.7079096
 118.9978056 118.9862161 105.6499173 120.7726918 117.8678473 105.1874041
 121.4108941 118.6577754 105.5833972 121.1388246 116.8998751 105.5295678
 120.8233629 117.9076320 103.6320425 121.8146294 118.2498782 102.9861546
 119.7058456 117.7260040 102.9464593 118.9238687 117.3117136 103.4332600
 119.5491523 118.0429575 101.4964235 120.4934221 117.9225940 100.9654185
 118.5343594 117.0721787 100.9101259 117.6181000 117.3160857 101.4477850
 118.4458559 117.4008893  99.8746470 118.7597510 115.5584495 100.9471215
 118.5317716 115.2636194 101.9714268 118.0221375 115.1246012 100.2719910
 120.1735071 115.0476104 100.5649473 120.7224499 114.2500789 101.3918097
 120.7357825 115.4001541  99.5376755 119.1124481 119.4930555 101.1884961
 118.1510155 120.0566639 101.7271915 119.7776472 120.1370427 100.2338147
 120.6994784 119.8242756  99.9645503 119.2837052 121.4084518  99.6822992
 118.5361527 121.8604115 100.3342171 120.4904199 122.3633836  99.5800100
 120.1739961 123.3417954  99.2185053 120.9735599 122.4741247 100.5507891
 121.3848550 121.8058694  98.6801301 122.1504917 122.3785023  98.5935753
 118.4840685 121.2769496  98.4124889 118.0867293 122.3057349  97.8869470
 118.1671935 120.0835756  97.8990479 118.6208784 119.2672180  98.2835342
 117.3292827 119.9169203  96.6774180 116.5255069 120.6507894  96.7364083
 118.0619778 120.0966189  95.3354674 117.3614218 119.9605793  94.5115659
 118.4948946 121.0955527  95.2824158 119.1897129 119.0394180  95.2338120
 119.9048812 119.2682943  96.0239075 118.7292248 118.0712533  95.4305600
 119.9105607 118.9949445  93.8952492 119.1801292 118.6880964  93.1466418
 120.2487263 120.0081835  93.6782465 121.1301871 118.0212915  93.8614225
 121.4690189 117.9571995  92.8274081 121.9169215 118.4610348  94.4744266
 120.8183215 116.6771551  94.3574148 120.0896365 116.2693338  93.7892602
 121.6457805 116.1000406  94.3089343 120.5047400 116.7362770  95.3156790
 116.5933086 118.5843484  96.8188510 117.1070921 117.6646321  97.4423351
 115.3853563 118.4773306  96.3242882 114.9571013 119.3543945  96.0645656
 114.5245034 117.2476761  96.3593760 114.4124267 116.9140109  97.3909794
 113.1316918 117.5244740  95.7797160 113.1573080 117.6027641  94.6928334
 112.6882792 116.5703010  96.0643897 112.2898029 118.6713899  96.3551785
 111.1440649 118.7654708  95.9219566 112.6647227 119.3745437  97.3739670
 115.1696669 115.9729895  95.8455148 115.8859968 115.9770821  94.8486740
 114.8587077 114.8802663  96.5057984 114.5438994 115.0458563  97.4510894
 114.9628809 113.5068503  96.0454537 115.6316462 113.4538564  95.1863589
 115.5225124 112.6121000  97.1580244 114.6753314 112.5658539  97.8423087
 115.7286245 111.6153901  96.7679127 116.7700859 113.1389892  97.9149803
 116.6084071 114.1629532  98.2518164 116.9887340 112.2232708  99.1390709
 117.1509527 111.1991466  98.8029853 117.8605251 112.5642681  99.6974632
 116.1092730 112.2591281  99.7820040 118.0055262 113.2849906  97.1209602
 117.8328349 113.9867918  96.3050238 118.8058349 113.6600655  97.7588677
 118.2916575 112.3160993  96.7117200 113.6905021 112.8593869  95.5561592
 112.6147917 113.1834898  96.0215423 113.8642047 111.9122954  94.6969763
 114.8267132 111.6266848  94.5869620 112.8828645 111.3136462  93.8584159
 111.9123597 111.7835766  94.0177427 113.2923067 111.5037373  92.3502801
 113.3122392 112.5849136  92.2133138 114.2993233 111.1042008  92.2303289
 112.3659463 110.8741970  91.3058144 112.3983722 109.7894140  91.4072796
 110.9456878 111.3572095  91.5073332 110.9123806 112.4419351  91.4055509
 110.2970323 110.9024590  90.7586351 110.6034278 111.0755603  92.5031405
 112.8400501 111.2052841  89.8695397 113.8477924 110.8175185  89.7205679
 112.1641953 110.7458012  89.1482929 112.8424028 112.2859466  89.7271955
 112.5407957 109.8817511  94.0551170 113.5007947 109.0959100  93.9664789
 111.3657652 109.5373004  94.5444708 110.7614464 110.2893056  94.8434462
 110.9235981 108.1793796  94.7544814 111.7911672 107.5264866  94.6588064
 110.2712014 107.9313419  96.1225841 111.0528586 108.1020984  96.8628229
 109.4574745 108.6382523  96.2845295 109.7131248 106.5642527  96.3947230
 110.6529599 105.5213113  96.5798345 111.7110663 105.7252928  96.4158147
 110.2306965 104.2166902  96.9758424 110.9373222 103.4286390  97.2361427
 108.8683842 103.9688599  97.0229519 108.5092075 102.9850560  97.3249814
 107.9348151 104.9961014  96.6777740 106.8741244 104.7508622  96.6239869
 108.3702923 106.3140907  96.4082006 107.6404770 107.1009594  96.2176559
 109.9816723 107.7114758  93.7014492 108.9357827 108.3556226  93.5198457
 110.2649768 106.5431643  93.2021289 111.1155860 106.1530341  93.5820787
 109.5723090 105.8035850  92.1762426 108.5425035 106.1579872  92.1315346
 110.2213560 105.9551245  90.8055162 111.2551285 105.6135852  90.8581046
 109.4599987 105.1206194  89.7694399 108.4261886 105.4619054  89.7159481
 109.9308142 105.2349960  88.7930427 109.4808117 104.0706871  90.0615155
 110.2082532 107.4452183  90.3849690 109.1723569 107.7798446  90.4401489
 110.8039205 107.9861435  91.1202784 110.7620437 107.7200346  88.9731202
 110.1665559 107.1797746  88.2371765 110.7136589 108.7888841  88.7649882
 111.7981194 107.3860710  88.9173056 109.5261627 104.3072067  92.6207699
 110.5313019 103.7069148  92.9276099 108.3846174 103.6613176  92.5335029
 107.6189354 104.3003353  92.3738569 108.0928483 102.2437982  92.6049153
 109.0150237 101.6722424  92.7098708 107.2072083 101.9679089  93.8174935
 107.8353998 102.1771246  94.6833476 106.4080810 102.7071029  93.7619257
 106.6139145 100.6022458  93.9510333 107.1726729  99.8880286  93.3462327
 106.6914461 100.1960566  95.4164125 106.1324932 100.9095956  96.0218317
 106.2641269  99.2011177  95.5412945 107.7333013 100.1862623  95.7366347
 105.1425873 100.4253334  93.5315333 105.0301103 100.6876422  92.4795626
 104.8439625  99.3876989  93.6806611 104.5109199 101.0752771  94.1370649
 107.3291376 101.8951935  91.2979991 106.5834617 102.7077941  90.7348316
 107.4416490 100.6240928  90.9046698 107.9436126  99.9952379  91.5151397
 106.8884973 100.0844664  89.6434559 106.3436223 100.8681495  89.1170992
 108.0572223  99.5724477  88.7153592 107.6480414  99.2907517  87.7451434
 109.1327921 100.7130818  88.5217373 109.5427859 100.9949996  89.4915451
 109.9357750 100.3508344  87.8797916 108.6630276 101.5815857  88.0600849
 108.6802904  98.4418638  89.3320798 109.3930072  98.1245716  88.7726508
 105.9408414  98.9195283  89.9566786 105.6641341  98.6301373  91.0873505
 105.2431401  98.3058616  89.0053153 105.5261241  98.4843511  88.0523406
 104.0804802  97.4495023  89.2342800 103.5123921  97.9142817  90.0401057
 103.2270698  97.4485174  87.9760707 103.7790158  96.9779603  87.1624174
 102.3079367  96.8923148  88.1602805 102.9815346  98.4745696  87.7021571
 104.3688874  96.0103328  89.6230750 103.4751564  95.3613575  90.1424517
 105.6168012  95.5079384  89.4328540 106.2140584  96.0549759  88.8294195
 106.1518906  94.2682642  90.0010662 105.3773859  93.5378641  90.2350690
 107.0525889  93.6931066  88.8609126 106.7434711  94.0854453  87.8920908
 108.0993719  93.9416467  89.0357645 106.8800495  92.1665785  88.8735339
 107.3638661  91.7486613  89.7563519 105.8193309  91.9160584  88.8882931
 107.5437693  91.5646786  87.5765075 106.9704299  91.8430207  86.6922527
 108.5678864  91.9231124  87.4725420 107.5490808  90.0605012  87.7200277
 108.1644492  89.8129966  88.5849923 106.5226398  89.7420261  87.9019390
 108.0781856  89.3630091  86.5207251 109.0294467  89.6576524  86.3522396
 108.0571331  88.3650849  86.6750106 107.5078566  89.5918804  85.7192005
 106.9518008  94.4533309  91.2652399 107.6063719  93.4820150  91.7121303
 106.8821019  95.6331715  91.9009814 106.5173799  96.2623293  91.2000979
 107.3128420  96.1976003  93.1872197 106.9334415  97.2121523  93.3090333
 106.7557921  95.3299543  94.3131744 107.3194117  94.3972829  94.3367576
 107.0014846  95.9246899  95.1929612 105.2513250  95.0187869  94.3096340
 104.2854605  96.0694622  94.5597324 104.6891450  97.0434590  94.8362619
 102.9269773  95.8909254  94.4648639 102.2423289  96.7124845  94.6755748
 102.4334601  94.6731451  94.0275996 101.0721926  94.6639526  93.9410830
 100.6744787  95.4996736  94.1960216 103.2478499  93.5578401  93.7790477
 102.8698343  92.5900054  93.4496533 104.6643377  93.7477434  93.9843891
 105.3462543  92.9021590  93.8945181 108.8073974  96.5015313  93.3620797
 109.2658131  96.8437846  94.4355786 109.5692373  96.4722637  92.2317437
 109.2176560  96.0521754  91.3832063 110.8917056  97.1128097  92.1961152
 111.5469134  96.6972219  92.9616795 111.5098624  96.8481298  90.8310619
 110.9151060  97.4075093  90.1089409 112.5338868  97.2215355  90.8245506
 111.5242663  95.3313699  90.4043032 110.7841708  94.8859649  89.5894125
 112.3802843  94.5610180  91.0221487 112.4324665  93.5798642  90.7882386
 112.9856581  94.9504225  91.7306594 110.6954474  98.6373832  92.3439510
 109.8338138  99.3064764  91.7836915 111.5609068  99.2385033  93.1881285
 112.3146386  98.6990324  93.5893253 111.4567699 100.6465059  93.5403631
 111.0058068 101.2785118  92.7753141 110.5651764 100.7154609  94.8417836
 111.0088978 100.0946714  95.6201356 110.5076809 101.7470094  95.1892058
 109.5626176 100.3523678  94.6156453 112.8135498 101.1765233  93.8008261
 113.8660593 100.5040062  93.9288824 112.8756159 102.5425673  93.8257352
 112.0366320 103.1019573  93.7683914 114.2008064 103.2514368  93.9337120
 114.8715357 102.6929979  94.5866802 114.8706434 103.3692341  92.4998807
 115.6429269 104.1381606  92.5206071 115.3176582 102.4133132  92.2269463
 113.7572172 103.8111525  91.1374908 114.6878080 103.7974201  90.1873801
 113.9773068 104.6615153  94.5159667 112.9093701 105.3058230  94.4267207
 115.0262653 105.2094921  95.0684099 115.7590190 104.5391391  95.2522530
 115.2608451 106.6026310  95.4209055 114.4595320 107.3098990  95.2069692
 115.6733732 106.7255790  96.9053685 116.3500320 105.8921626  97.0941811
 116.3644822 108.0704396  97.3396213 115.6882026 108.9043264  97.1515274
 116.6037883 108.0299588  98.4022570 117.2809846 108.2101739  96.7663877
 114.5155375 106.3447509  97.8897223 113.8191273 107.1807406  97.9547975
 113.9959381 105.4691438  97.5005845 115.0705611 106.0312568  99.2871089
 115.5899346 106.9066098  99.6771192 114.2494519 105.7693504  99.9544049
 115.7667476 105.1950139  99.2229056 116.3877446 107.1459981  94.5573409
 117.4821158 106.5074013  94.4935066 116.0448819 108.0942971  93.6774585
 115.0794364 108.3785439  93.7624177 116.8489691 108.6890198  92.6193745
 117.7331703 108.0940664  92.3906432 115.9236305 108.7190228  91.3530360
 115.0821216 109.3113410  91.7123705 116.4206344 109.2499938  90.5411512
 115.4281196 107.4017399  90.8557447 115.1362870 106.7808912  91.7027875
 114.2280925 107.6175204  89.9491826 114.5192804 108.2379432  89.1016072
 113.8677802 106.6546086  89.5871373 113.4350885 108.1150324  90.5075076
 116.5655364 106.6126196  90.1802138 117.3654084 106.4390599  90.9000618
 116.1833186 105.6556938  89.8248211 116.9538837 107.1839155  89.3370611
 117.3529658 110.0467619  93.0211302 116.6931585 110.7320324  93.7276992
 118.3827135 110.4855207  92.3458225 118.8546130 109.8040256  91.7687829
 118.9750881 111.8014115  92.4787013 118.2007616 112.5416742  92.6800184
 119.9694598 111.8098759  93.6344021 119.3956010 111.6906650  94.5534092
 120.6245433 110.9488937  93.5014535 120.8230912 113.0986819  93.7228698
 121.4271283 113.2273759  92.8247173 120.0335335 113.8499543  93.7398264
 121.7441756 113.2682597  95.0101929 121.9631909 112.2731089  95.7014070
 122.2832869 114.3574802  95.1471448 119.5878555 112.3734041  91.1806109
 120.1988633 111.6376802  90.4942920 119.3738325 113.6411492  90.8333451
 118.5009523 114.0682998  91.1085210 120.1905273 114.3197429  89.8375243
 120.3058979 113.6849346  88.9589987 119.5285626 115.6354055  89.4081481
 118.6002649 115.2379021  88.9978388 119.3024627 116.2873378  90.2519272
 120.2536203 116.4254413  88.3410578 121.0689367 117.5071591  88.7969305
 121.2498331 117.6024135  89.8675857 121.6123834 118.4022087  87.9351632
 122.3318679 119.1398528  88.2905855 121.4090094 118.2203213  86.5310913
 121.8833914 119.1304056  85.6112119 122.3461253 119.8672500  86.0168440
 120.5266507 117.2218800  86.0758089 120.2517710 117.2151051  85.0210597
 119.9970734 116.2387741  86.9542716 119.4291807 115.3990701  86.5536532
 121.6822385 114.4247568  90.0842929 122.1751660 114.7007079  91.1530012
 122.4372118 114.1049270  89.0075896 122.0230669 113.6347946  88.2154034
 123.8642104 114.3740398  88.9797607 124.0709779 115.1124268  89.7544420
 124.7718528 113.1473794  89.2126628 124.4703774 112.6989738  90.1593117
 124.5791653 112.4456524  88.4011513 126.2040934 113.4635233  89.2557324
 126.4412720 113.8668799  88.2712779 126.3046361 114.2498546  90.0038475
 127.1780024 112.3090823  89.5877207 128.0930158 112.7378010  89.9964379
 126.7108540 111.6696341  90.3367052 127.5129519 111.4815741  88.3505692
 126.5843869 111.0618771  87.9636300 127.9477201 112.1484071  87.6059823
 128.4639715 110.3857052  88.6465662 128.0611192 109.7674482  89.3361805
 128.6547580 109.8678744  87.8006632 129.3246249 110.7744191  89.0047231
 124.3230000 115.0232693  87.6273902 123.8653782 114.6351555  86.5747763
 125.1037307 116.0877979  87.7355081 125.1157348 116.5160553  88.6501396
 125.7724953 116.7904117  86.6263526 125.7723519 116.1413354  85.7506820
 125.0851223 118.1006648  86.2614292 125.5237250 118.4959206  85.3451871
 124.0215602 117.9197300  86.1058709 125.2700983 119.1165392  87.3962015
 124.5601566 118.7527103  88.1389748 126.2708082 119.1323024  87.8279807
 124.8851291 120.5354318  87.0105069 123.8366882 120.7939165  86.4333731
 125.8088621 121.4484558  87.1829960 125.6142113 122.4105965  86.9453035
 126.7112820 121.1858804  87.5528525 127.2332189 116.8726039  86.9527953
 127.5640123 117.0836885  88.1265504 128.1504420 116.5918256  85.9786591
 127.7943825 116.6334949  85.0344215 129.5854513 116.2631826  86.1762675
 129.9633118 116.9055301  86.9716984 129.8739191 114.7757906  86.5563691
 129.6171445 114.1300173  85.7166413 130.9316174 114.6599954  86.7929399
 129.0852959 114.4103592  87.6994493 129.2634270 113.4961597  87.9320615
 130.5389926 116.4625206  84.9402948 130.3955949 115.6609490  83.9971929
 131.3418750 117.5549147  84.8223335 131.4204517 118.1579679  85.6287154
 132.0889380 117.9078389  83.6187030 132.3970264 118.9469097  83.7349467
 132.9710829 117.2678945  83.5989336 131.3574302 117.7616661  82.3357308
 131.8448533 117.1117535  81.4334413 130.1742591 118.3320982  82.2609211
 129.7974012 118.4834963  83.1856676 129.2922257 118.4422534  81.1445202
 128.5252322 119.1722898  81.4031065 129.9664917 118.8803503  79.8165829
 130.8039645 118.1994881  79.6643814 129.2237820 118.7224515  79.0345661
 130.4536963 120.2857893  79.7612030 130.6792352 120.5270474  78.7224405
 129.6266842 120.9062353  80.1064521 131.6868709 120.5533156  80.6257439
 131.7697140 121.4135544  81.5682991 132.6871098 119.8292199  80.3792760
 128.2350927 117.3794851  80.9224523 127.2266375 117.5907076  80.2446137
 128.4335912 116.2075159  81.5532070 129.3187914 116.1833707  82.0389404
 127.6791717 115.0417628  81.5002917 127.1749814 114.9559679  80.5377271
 128.6395872 113.7979686  81.6804448 129.0849741 113.7986442  82.6752962
 128.0936070 112.8669668  81.5279937 129.6469692 113.9091443  80.7196986
 130.2502289 113.1668304  80.8012311 126.4757153 115.0850432  82.4934585
 126.6352137 115.4083948  83.6600608 125.3317890 114.5396494  82.0274818
 125.3450134 114.3692103  81.0320548 124.0678741 114.3451204  82.7506904
 124.1440938 114.8570152  83.7099888 122.8421786 114.9395941  81.9286601
 122.7789596 114.4296303  80.9673897 121.5603074 114.7443286  82.6832059
 121.6225984 115.2544343  83.6444617 120.7322795 115.1566807  82.1066331
 121.3933627 113.6797972  82.8475277 123.2251935 116.4988190  81.7989405
 124.1275026 116.5105752  81.1875478 122.4008950 116.9388799  81.2377117
 123.4648167 117.3144543  83.0826020 124.2893355 116.8752382  83.6441693
 123.7122708 118.3428412  82.8193796 122.5627279 117.3035409  83.6943345
 123.8372921 112.8584591  83.2253850 124.0818830 111.9268708  82.4940789
 123.4588578 112.6299133  84.5017671 123.3002663 113.4329029  85.0935068
 123.2839646 111.3087717  85.0740731 122.9702309 110.6217165  84.2881815
 124.5266895 110.7943103  85.6818767 124.8933965 111.6912900  86.1809284
 124.3269930 110.0218668  86.4245425 125.5944650 110.2865055  84.6846105
 125.3051366 109.2936712  83.9535482 126.7266857 110.8177563  84.7812636
 122.1669025 111.3406504  86.1834251 121.8151400 112.3191417  86.8148544
 121.5655859 110.2101197  86.3798648 121.8106469 109.4917703  85.7135177
 120.4804413 109.9293587  87.3475283 120.3236137 110.5993408  88.1928852
 119.0542159 109.6304349  86.6203759 119.1740041 108.7804377  85.9486200
 117.9376545 109.3051285  87.6851459 117.8169619 110.1549033  88.3570216
 116.9945269 109.1090898  87.1750676 118.2285222 108.4261966  88.2604492
 118.7066997 110.6396924  85.4772076 119.5951821 110.7451279  84.8546459
 117.9013072 110.2003633  84.8886227 118.2623231 112.0539797  85.9991493
 119.0674360 112.4941648  86.5874775 118.0373415 112.7006282  85.1510171
 117.3735618 111.9493997  86.6214565 120.9456792 108.8295104  88.2999377
 120.8589420 107.6703222  87.8883440 121.4290950 109.1997613  89.5081812
 121.3282662 110.1549922  89.8203780 122.1473222 108.2354910  90.3971398
 122.4976073 107.3037878  89.9529229 123.3498875 108.9968043  91.0177556
 123.0033467 109.9748755  91.3515018 123.9387586 108.2461492  92.1871648
 124.2859657 107.2680887  91.8540800 124.7778875 108.8092612  92.5956598
 123.1783245 108.1181838  92.9575309 124.3655563 109.3803298  89.9659162
 123.7734373 109.9895287  89.2830015 125.0477370 110.0208491  90.5249010
 125.1658623 108.3596804  89.1704704 124.4843314 107.7190499  88.6108205
 125.8287801 108.8773867  88.4772032 125.7586297 107.7503685  89.8527208
 121.2408436 107.7050472  91.4594923 120.3844827 108.4669169  91.9266030
 121.2397420 106.4133044  91.7169440 121.9117605 105.8516408  91.2139286
 120.2768759 105.7303233  92.5919524 119.4053538 106.3558659  92.7849416
 119.8201080 104.4695428  91.8491484 120.6974569 103.8547907  91.6480541
 118.7752209 103.6359446  92.6902442 117.8973365 104.2499289  92.8913461
 118.4779503 102.7511941  92.1272647 119.2281803 103.3305535  93.6334645
 119.2150075 104.7235560  90.6654049 118.9553199 103.8956513  90.2546294
 120.8908851 105.4920695  93.8856153 121.7811590 104.6360789  93.9939733
 120.4942296 106.2443339  94.9366170 119.8459215 107.0001844  94.7678388
 121.0252396 106.0629453  96.3200936 122.0951600 106.2711097  96.3139859
 120.3443318 107.0003059  97.3488913 119.2640417 106.8793975  97.2685562
 120.6681473 106.7131915  98.3492956 120.7161138 108.4719416  97.0921916
 121.7728950 108.4774308  96.8252007 120.1236127 108.7911019  96.2347645
 120.4849377 109.4138271  98.2383217 119.4158031 109.4123982  98.4505675
 121.0260942 109.0193723  99.0983534 120.9134059 110.7880571  98.0069956
 121.1256370 111.0256246  97.0485495 120.9395979 111.7430390  98.9107642
 120.4598679 111.5793999 100.1154714 120.0511372 110.6935847 100.3769490
 120.5001216 112.3395260 100.7793144 121.5782418 112.7733206  98.5210222
 121.9956956 112.7870151  97.6014326 121.6643138 113.5719264  99.1333285
 120.8750594 104.6088896  96.7457329 121.8665272 103.9502192  97.1677555
 119.6167654 104.1063470  96.6830114 118.9183866 104.7147623  96.2802742
 119.1894149 102.8208474  97.2104518 119.9375925 102.0349101  97.1073406
 118.9437294 103.0795211  98.7305859 118.1900885 103.8578844  98.8500680
 118.5955639 102.1616271  99.2042436 119.8737840 103.3998831  99.2001238
 117.9678218 102.3180362  96.4376761 117.2285022 103.0915996  95.8084654
 117.8440773 100.9865630  96.5482905 118.4362603 100.4752149  97.1869937
 116.9334794 100.2202080  95.6702168 115.9755866 100.7295488  95.5648011
 117.5744495 100.1070811  94.3028742 116.8343858  99.9801097  93.5127582
 118.0780674 101.0656143  94.1776420 118.6566526  99.0014975  94.0835882
 120.0224281  99.1228080  94.3944867 120.5517034  97.9136276  93.9915258
 121.6036079  97.7655911  94.2358227 119.6718376  97.1161798  93.3602167
 119.8060396  96.2246752  92.9049044 118.4547280  97.7910065  93.4549326
 117.5469885  97.3359773  93.0586263 116.6211072  98.9108790  96.3193665
 117.4212432  98.3029453  97.0150165 115.4687255  98.4544275  95.9759491
 114.8305027  99.0798535  95.5051910 115.0280850  97.0648374  96.2328076
 115.6994772  96.3884770  95.7037817 115.0936462  96.8764523  97.3044009
 113.6000615  96.8072330  95.7708390 112.7968570  97.7465420  95.7605372
 113.2387796  95.5179085  95.5187780 113.9332787  94.8050235  95.3468324
 111.8107808  95.1354852  95.4568922 111.1953877  95.8129828  94.8649568
 111.8847913  93.7731645  94.7302693 112.5437499  93.6750663  93.8675703
 112.2805835  93.1845775  95.5579249 110.5116303  93.2283714  94.3584047
 109.5506980  93.3186315  95.0958843 110.2757514  92.8773683  93.1240275
 109.3677638  92.5153208  92.8699016 111.0022596  92.9693638  92.4284533
 111.2302830  95.0715144  96.9382021 111.9427926  94.7399524  97.9304347
 109.9466910  95.3440607  97.1301165 109.4597008  95.6336146  96.2939954
 109.2248179  95.3762216  98.3968646 109.7313139  94.7696697  99.1476348
 109.1582162  96.8509228  98.9084022 108.6076307  96.8495449  99.8491215
 110.5290726  97.4705886  99.1250129 111.0801167  97.4727396  98.1845626
 110.4134861  98.4946122  99.4801408 111.0781173  96.8894337  99.8658978
 108.3973432  97.8018736  97.9078329 107.3756134  97.4465672  97.7739387
 108.3794571  98.8145315  98.3107024 108.9100342  97.8030774  96.9459352
 107.8318709  94.6864637  98.1904561 106.8604951  94.8371355  99.0058291
 107.6898510  93.7362277  97.3110881 108.3795333  93.6744239  96.5758208
 106.5232796  92.8135953  97.2634798 105.6039148  93.3365415  97.0000508
 106.8291231  91.7905697  96.1782355 105.8829938  91.2894841  95.9736584
 107.1285621  92.3707500  95.3054084 107.9226013  90.7261387  96.4940872
 108.7838198  91.1196972  97.0340086 107.3376923  90.0899439  97.1583459
 108.4168496  89.8929334  95.3419854 107.8150067  89.7938068  94.2643584
 109.6707543  89.3640120  95.3528997 109.9874340  88.8071199  94.5720754
 110.2790126  89.5307490  96.1417736 106.0793880  92.0965616  98.5773843
 106.9477767  91.9991576  99.4876852 104.9194394  91.4421721  98.7054288
 104.2020992  91.6987933  98.0423542 104.5824859  90.4279651  99.7633875
 105.4698830  90.2534299 100.3717977 103.4218761  90.8850768 100.6957692
 102.7031252  91.3356439 100.0113090 102.9357929  90.0892439 101.2601035
 103.9448042  91.9559431 101.6671546 104.9807099  91.7510996 102.3943468
 103.3126298  93.0297388 101.8951991 104.2051304  89.0262783  99.1022173
 103.7704271  88.9653421  97.9467707 104.2680662  87.9728956  99.9398222
 104.5807746  88.1695373 100.8798461 104.0286726  86.5906451  99.5695708
 104.7723699  86.2927589  98.8304650 104.1164023  85.6336735 100.7671370
 103.4116286  85.9989153 101.5141255 103.7939569  84.6548628 100.4120897
 105.5653774  85.5109093 101.4195519 105.8417908  86.5041115 101.7734529
 105.4769102  84.8344457 102.2696534 106.6570341  84.9849273 100.4524233
 107.4482746  84.5420774 101.0573376 106.2025612  84.2147158  99.8292635
 107.2333010  85.9818853  99.6021244 106.7355334  86.1956150  98.7496888
 108.3813507  86.6568361  99.8688325 109.1392337  86.5324367 100.9087821
 108.8935431  85.8725874 101.6328918 109.9734317  87.0956889 100.9922115
 108.8142801  87.5540207  98.9678814 108.2869185  87.7090720  98.1205628
 109.6652169  88.0695306  99.1418207 102.6885816  86.3697525  98.8296901
 102.5350130  85.3691357  98.1032875 101.7121909  87.2513514  99.0618056
 101.8891733  88.0103851  99.7041796 100.3830414  87.1026283  98.5312162
 100.4037055  87.0769151  97.4417158  99.6054166  85.9290303  99.0434274
 100.2370291  85.0420768  98.9936318  99.1597380  86.1553102 100.4849967
  98.5276615  87.0418920 100.5355191  98.5974093  85.2885533 100.8323001
 100.0352983  86.2973704 101.1184889  98.3033023  85.3498734  98.2595755
  97.9631202  84.4650773  98.7976394  97.5298056  86.1169494  98.2969478
  98.5824041  84.9875473  96.8226552  99.3555270  84.2201332  96.7844938
  97.6715046  84.6082301  96.3595355  98.9222148  85.8720055  96.2838025
  99.6569687  88.4331737  98.7789506 100.1606792  89.2702120  99.5503730
  98.5688296  88.6962507  98.0359614  98.2405531  88.0017512  97.3802143
  97.8229531  89.9743415  98.1389087  97.2217404  89.9456733  99.0476554
  98.5466405  90.7864893  98.2081312  96.9253832  90.2210501  96.9694908
  97.3431965  89.9091181  95.8780333  95.8036030  90.8793857  97.1225278
  95.5338156  91.1376742  98.0609314  94.8757496  91.2283475  95.9928240
  94.8816595  90.4789424  95.2013340  93.4147176  91.2631848  96.6550005
  93.3585363  90.4471291  97.3754143  93.3103004  92.2149061  97.1759839
  92.3203570  91.1210318  95.6596230  92.3173344  92.0466074  95.0839482
  92.6096593  90.2925673  95.0130529  90.8834180  90.8583003  96.2349530
  90.2346289  90.5427496  95.4178854  90.9465699  90.0618370  96.9764093
  90.2778451  92.0858870  96.8903775  90.1713598  92.0701063  97.8946241
  89.8465926  93.1849722  96.2073497  89.7054098  93.2267938  94.9485517
  89.9178858  92.4110213  94.3922522  89.3811055  94.0756932  94.5077612
  89.5967819  94.2181754  96.8097714  89.7107201  94.2545478  97.8126648
  89.2775880  95.0307220  96.3018522  95.2542057  92.5757126  95.3231760
  95.6532986  93.4477100  96.0690442  95.0793827  92.8150252  94.0411915
  94.6810587  91.8198406  93.1058073  93.8200521  91.3029493  93.5295894
  95.5104632  91.1199554  93.0040826  94.3451723  92.5434678  91.7643916
  93.2641480  92.5864265  91.6315754  94.7915983  91.9990248  90.9322936
  94.9470029  93.9391648  91.8870453  94.3064043  94.7209722  91.4789893
  95.9215601  93.9778494  91.4003819  95.1142217  94.1406867  93.4452545
  96.0969013  94.5553026  93.6700495  94.0379547  95.0998882  93.9274150
  92.8601079  94.7192645  93.6857800  94.2349002  96.3162067  94.3610597
  95.1884421  96.6135032  94.2111529  93.2813794  97.2872007  94.9163524
  92.7499020  96.8571265  95.7652735  94.0475204  98.5262371  95.3946218
  94.5224170  98.9922153  94.5312350  93.3349077  99.2226408  95.8365550
  95.0406270  98.1889727  96.3576337  95.5003113  98.9846829  96.6353666
  92.3839852  97.7598286  93.8062423  92.8805112  98.2639985  92.8062560
  91.0579023  97.8272608  93.9278235  90.6207304  97.1477847  94.5338700
  90.1931240  98.6863107  93.1053664  90.1746802  98.2815072  92.0934904
  88.7314749  98.7847673  93.6280216  88.7998964  98.9563464  94.7022554
  88.2915538  99.6590647  93.1482576  87.8302860  97.5306427  93.3557021
  86.7700216  97.7091804  93.5347679  88.0056745  97.4315612  92.2844781
  88.2635396  96.2227971  94.0742843  88.6698160  95.2672719  93.3263098
  88.3736092  96.2208760  95.3200853  90.7380417 100.1295243  92.7780466
  90.5930195 100.4450944  91.5934311  91.3836485 100.8755219  93.7148596
  91.1658131 100.6717215  94.6798013  92.0325025 102.1666357  93.4001860
  91.7147276 102.4538599  92.3978783  91.6375409 103.2854624  94.3809644
  91.8631397 104.2406858  93.9068826  90.1539329 103.2420902  94.7609857
  89.9276634 102.2872779  95.2355751  89.9320369 104.0534352  95.4542249
  89.5451089 103.3546555  93.8638998  92.3328518 103.1610267  95.5615899
  92.0748757 103.8654299  96.1606432  93.5168616 102.0086203  92.9866316
  94.2743789 102.9731272  93.0374538  94.0619029 100.8487073  92.6873295
  93.3810391 100.1047641  92.6318997  95.4746821 100.5216921  92.4361125
  95.4905614  99.4404264  92.2993225  95.7102065 101.0104921  91.4907543
  96.5432538 100.9122893  93.4848420  96.3050253 101.1230127  94.7001184
  97.8228695 100.9013545  93.0986632  97.9913236 100.7239379  92.1187419
  99.0092558 101.0447250  94.0114345  98.9530786 100.5806016  94.9960831
 100.2793931 100.5159558  93.2558689 100.2578955 100.9640470  92.2624644
 101.6508436 100.8377377  93.9444180 101.6732731 100.3895500  94.9377586
 102.4639928 100.4299268  93.3439353 101.7700101 101.9177466  94.0309003
 100.1622857  98.9818349  92.8713522 100.3406872  98.4010456  93.7763149
  99.1445873  98.8066050  92.5225200 101.1627603  98.5496365  91.7771154
 102.1807601  98.7241475  92.1254288 101.0299861  97.4895821  91.5608866
 100.9846614  99.1297090  90.8716341  99.1639181 102.4797522  94.4788674
  98.8549059 103.3860235  93.7316982  99.5383407 102.7576179  95.7164955
  99.6720846 101.9506549  96.3089671  99.7700834 104.0976736  96.2949824
  99.9227978 104.9957057  95.6963876  98.6156238 104.3387520  97.3032905
  98.4200748 103.3841843  97.7918204  98.9031549 105.4103366  98.3688975
  99.0983569 106.3653569  97.8811136  98.0403915 105.5090640  99.0276789
  99.7747389 105.1169494  98.9540167  97.2083361 104.4367211  96.7130155
  97.1704452 105.3699379  96.1510799  97.0985808 103.5960101  96.0279912
  96.0727448 104.4117639  97.7357111  96.1815708 105.2525057  98.4208460
  95.1159579 104.4863833  97.2189036  96.1097080 103.4785782  98.2977592
 101.1510387 104.0451517  96.9800212 101.4313006 103.0660979  97.6942948
 101.9763295 105.0984017  96.7588775 101.8719575 105.6751920  95.9363699
 103.0386396 105.4271825  97.7043765 102.8591438 104.9073172  98.6454506
 103.9983648 105.1133585  97.2938386 103.0781975 106.9238678  97.9658743
 102.9323385 107.8050931  97.0576254 103.2870073 107.2176744  99.2177965
 103.5250207 106.3746342  99.7205213 103.1166185 108.4655455  99.9859705
 103.2711016 109.4027134  99.4512272 101.7511732 108.5213981 100.7536721
 101.8184245 109.2768496 101.5365327 100.6004530 108.8762379  99.7967480
 100.5322772 108.1209370  99.0138219  99.6628512 108.9092665 100.3516468
 100.7895967 109.8503292  99.3456715 101.4880889 107.3583839 101.6447633
 100.9489930 106.6211029 101.0498741 102.4592175 106.9541701 101.9304555
 100.6603445 107.6945318 102.9372261  99.6888388 108.0983898 102.6523137
 100.5180722 106.7872818 103.5243848 101.1990627 108.4314593 103.5328942
 104.3147965 108.6758021 100.8877325 104.9743837 107.6290739 101.2505229
 104.7260936 109.9192360 101.1088493 104.2579956 110.7065340 100.6832373
 105.9367024 110.1828854 101.9496468 106.2259096 109.3639171 102.6082432
 107.1517983 110.5596564 101.0139633 106.9755391 111.4864922 100.4680618
 108.3387976 110.7532826 101.9893763 108.5159691 109.8266593 102.5353434
 109.2331783 111.0190503 101.4258593 108.1039655 111.5506248 102.6944993
 107.3418880 109.5198064  99.8891843 107.3053783 108.5512100 100.3877711
 106.4675054 109.6309712  99.2479379 108.5989068 109.6073932  99.0481419
 109.4737615 109.4958428  99.6886774 108.5927673 108.8138410  98.3009227
 108.6358895 110.5756056  98.5488457 105.6653884 111.2976139 102.9709279
 105.3951139 112.4976951 102.5992213 105.8753397 110.9705717 104.2510348
 106.1496542 110.0087328 104.3914516 105.6803083 111.7946691 105.4025986
 104.6293163 111.9803277 105.6240617 106.2951304 110.9455770 106.5674601
 105.6456947 110.1081017 106.8223475 107.2605170 110.5669566 106.2316397
 106.4996851 111.8492708 107.8286294 105.6095272 112.6374364 108.2285516
 107.5351214 111.7385325 108.4283658 106.3320080 113.1939569 105.1683011
 107.4951207 113.2032153 104.7884694 105.7434317 114.3522039 105.5490092
 104.3160408 114.5696566 105.9448759 104.2211071 114.3318658 107.0043774
 103.6977854 113.8862202 105.3628330 104.0088141 116.0294390 105.6437160
 103.1895774 116.4347307 106.2375922 103.8234975 116.2263431 104.5877862
 105.3405910 116.6040323 106.0746426 105.5188376 116.7078078 107.1449499
 105.4383164 117.5776779 105.5944722 106.3597223 115.6096422 105.4651939
 106.4650580 115.7769040 104.3932675 107.7084918 115.8620925 106.1573064
 108.4426273 116.6452380 105.6720126 108.0291392 115.1776167 107.2750014
 107.2431795 114.7274399 107.7218880 109.2916422 115.1471096 107.9369444
 109.8017033 116.0932147 107.7557761 109.1680944 114.9407682 109.4421972
 108.8046058 113.9231828 109.5853580 110.1756060 115.0267667 109.8491673
 108.2457845 115.9145538 110.1617826 107.3079564 115.7401221 109.6343806
 108.1357226 115.6188827 111.2051254 108.5983290 117.3801332 110.0891162
 109.5948241 117.8223810 109.5021209 107.9021177 118.1444504 110.7442618
 110.3146060 114.1325046 107.3365881 111.4327798 113.9921918 107.8207396
 110.0037599 113.3823706 106.3211800 109.0662119 113.4671054 105.9552250
 110.8737836 112.3178357 105.7793155 110.2819023 111.6643099 105.1384724
 112.0132598 112.8829394 104.9699943 112.7353653 113.4329282 105.5734637
 112.5335680 112.1291955 104.3790209 111.3456664 114.0628951 103.7948608
 112.5124740 114.3864228 103.2445989 111.3742669 111.3321900 106.8207559
 112.4424442 110.7084400 106.7645670 110.5611644 110.9376742 107.8230460
 109.7955901 111.5564359 108.0491639 110.7887908 109.7548372 108.6890165
 111.8494648 109.7102414 108.9361621 109.9862269 109.7892858 109.9876044
 108.9570683 109.6397883 109.6611352 110.3275015 108.9060683 110.5275660
 110.0568971 111.0139262 110.9128895 110.9862383 110.9613837 111.4800447
 110.0598704 111.9110793 110.2938502 108.8927352 111.0647713 111.8627584
 108.5092789 110.0631276 112.0571035 109.1829864 111.5311422 112.8042210
 107.8060768 111.8811152 111.2386076 107.5590557 111.5649972 110.3117045
 107.1221551 112.9359876 111.7709499 107.2896670 113.5273845 112.9178412
 108.0114729 113.2066343 113.5472977 106.6970953 114.3043948 113.1732104
 106.1755316 113.4656849 111.0251359 105.9885099 113.0870717 110.1076529
 105.6406589 114.2482461 111.3738592 110.5567447 108.4893991 107.9220802
 111.0657238 107.4695110 108.3555656 109.7093767 108.5245431 106.8644980
 109.2306019 109.3777095 106.6135374 109.3158724 107.2465848 106.1570300
 110.2132430 106.7744466 105.7571418 108.6058297 106.2405695 107.1049506
 108.2200476 105.4351504 106.4799934 109.3686361 105.8455722 107.7759228
 107.4720619 106.8342352 107.9218010 107.8879471 107.6068544 108.5684848
 106.7567291 107.2838428 107.2331399 106.5948016 105.5575423 108.9737836
 108.0946533 104.9930830 109.8679630 108.5338048 105.8320792 110.4077133
 107.8233262 104.2089865 110.5748398 108.8189515 104.6024387 109.1531971
 108.4862816 107.5139868 104.8185453 107.6592973 108.3688552 104.7297367
 108.7653590 106.6958266 103.7876215 109.7021465 106.3183189 103.7835590
 107.8507428 106.3120367 102.6925414 107.2854797 107.1452187 102.2749475
 108.6649065 105.6307566 101.5727786 109.1461975 104.7200692 101.9293007
 107.6198355 105.2671484 100.4477779 107.1384335 106.1774452 100.0904091
 108.1324301 104.7784960  99.6191849 106.8657233 104.5939826 100.8555301
 109.8486561 106.4368293 101.0415435 109.4433223 107.2652081 100.4605152
 110.3884963 106.8283329 101.9037481 110.7968492 105.6287501 100.1759600
 110.2577958 105.2372781  99.3132486 111.6120495 106.2671196  99.8353250
 111.2029682 104.8004011 100.7564814 106.8072664 105.3311641 103.2965670
 107.2664946 104.3749016 103.9758463 105.5270107 105.5623167 103.1729922
 105.3068000 106.5115052 102.9071957 104.4290377 104.6294284 103.3711685
 104.8384056 103.7277877 103.8267574 103.7201636 105.0928923 104.0573158
 103.7110063 104.2549946 102.1055836 103.6561298 105.0343866 101.1210905
 103.2531396 103.0296194 101.9200500 103.1442477 102.5606517 102.8079189
 102.8333251 102.3062549 100.6797035 102.6094118 102.9926418  99.8631038
 104.0505859 101.4180843 100.2658976 104.1946463 100.6272362 101.0020396
 103.5586224 101.0076834  99.3840569 105.3951030 101.9915470  99.8722137
 105.8333185 102.5273622 100.7142173 106.3225558 100.8257881  99.4654810
 105.8851997 100.2897465  98.6231759 107.2974365 101.2196658  99.1781332
 106.4406148 100.1439165 100.3076292 105.3781188 102.7458521  98.5633445
 104.6795618 103.5796802  98.6329724 106.3769848 103.1262365  98.3496257
 105.0655379 102.0766372  97.7617563 101.6257704 101.3196995 100.8873504
 101.6497136 100.5631878 101.8324783 100.6428853 101.4589358 100.0638748
 100.5561125 102.3154351  99.5356904  99.6320087 100.3920036  99.8467061
  99.7451139  99.6435160 100.6309719  98.2086203 100.9087215  99.8725116
  98.1020618 101.4777873 100.7960422  98.1067222 101.5793590  99.0193047
  97.1030433  99.8146089  99.8070634  97.3290300  99.1998924  98.9357687
  97.2087886  99.2151842 100.7112812  95.6415771 100.3442899  99.7035281
  94.9390114  99.6362530 100.1430552  95.5415821 101.3098344 100.1993347
  95.3242299 100.5050484  98.3208306  95.8681121  99.9327129  97.6909706
  94.4313378 101.3629338  97.7985372  93.5118337 101.9599176  98.4873562
  93.4378027 101.7891047  99.4800507  92.8729175 102.5936058  98.0287442
  94.4024004 101.6065663  96.5483601  95.0599601 101.1498624  95.9326193
  93.7220408 102.2552455  96.1790026  99.7837773  99.7041882  98.4976949
  99.5332517 100.3197202  97.4368125 100.3973532  98.5679428  98.4589150
 100.6463727  98.2558436  99.3866449 100.7829760  97.7054123  97.2891628
 100.9283834  98.2897599  96.3805959 102.1548517  97.0337381  97.6812903
 102.0176524  96.4381041  98.5837844 102.4034602  96.3771234  96.8475332
 103.2830710  98.0263002  97.8971275 103.1576822  98.5823422  98.8262108
 104.5983945  97.1422984  97.9834580 104.7247144  96.5862770  97.0544895
 105.4618309  97.7890052  98.1394985 104.5132519  96.4436392  98.8157599
 103.4871503  99.0520998  96.7280425 102.5764951  99.6356624  96.5929089
 104.3136034  99.7202112  96.9703309 103.7133609  98.5142304  95.8073774
  99.7319270  96.6365514  96.9777368  99.5183848  96.2083023  95.8048261
  99.0299392  96.0410442  97.9651943  99.3691277  96.2589811  98.8912364
  97.8225966  95.1795704  97.8405514  97.5261868  95.0152679  96.8045759
  98.2471695  93.8505793  98.4404428  98.3764927  94.0332234  99.5072210
  97.4374805  93.1364961  98.2901463  99.5390244  93.2829454  97.8619615
  99.5256228  92.6596288  96.6186277  98.6018325  92.6712569  96.0402025
 100.6184975  92.0521478  96.1269341 100.5357528  91.4858618  95.1992621
 101.8179981  92.1155173  96.7862555 102.9369179  91.5356217  96.3333652
 102.8095973  91.0731780  95.5017794 101.9203069  92.8611534  98.0248517
 102.8843133  93.0333344  98.5035436 100.7150120  93.3791825  98.6238443
 100.7471333  93.8181561  99.6210256  96.5945021  95.6775785  98.6390141
  96.7876880  96.4822544  99.5861783  95.4085329  95.2920104  98.2926959
  95.2966956  94.6975037  97.4838984  94.2055185  95.7016309  99.0268343
  94.0382883  96.7726981  98.9130431  92.9825973  94.9497022  98.4651385
  92.9410319  95.2506685  97.4183382  93.1199160  93.8701629  98.5270941
  91.6440869  95.3472275  99.1760483  90.7868857  94.4388841  99.3452324
  91.4004290  96.5332012  99.4858793  94.2442357  95.4333457 100.5797003
  94.6408833  94.3852339 101.1053490  93.9279027  96.4873046 101.3612309
  93.7808456  97.2970952 100.7758141  93.7778316  96.6365041 102.7726529
  93.1562346  97.5239610 102.8915508  93.2164801  95.7558730 103.0848592
  95.0074451  96.7742472 103.6493030  94.8002481  96.6795682 104.8751828
  96.1907629  96.8393211 103.0042896  96.2401652  97.0532750 102.0184486
  97.4101424  96.5661689 103.7010137  97.2357180  96.3749685 104.7598422
  97.9959686  95.3159479 103.0727693  97.8763110  95.5158301 102.0079555
  99.0571533  95.2466920 103.3119152  97.2969474  93.9761527 103.4292565
  96.2314861  94.1054930 103.2390877  97.8227847  92.7619496 102.6193226
  98.8881577  92.6316857 102.8093505  97.2873892  91.8624602 102.9232490
  97.6627863  92.9373916 101.5554988  97.2598797  93.4801245 104.8615455
  96.7468144  94.2110282 105.4865601  96.7280401  92.5296167 104.9037700
  98.2780987  93.3426266 105.2254459  98.4312212  97.7410313 103.6368143
  98.5644385  98.3143587 102.5550478  99.0674214  98.1866931 104.6774299
  98.9439370  97.7055728 105.5568469  99.8784589  99.3841236 104.6588963
  99.9838131  99.7097119 103.6240089  99.2608042 100.5855506 105.5116827
  98.2687845 100.8778210 105.1673367  99.1948141 100.2127282 106.5338123
 100.0735540 101.8239791 105.5636703 100.3542712 102.5835444 104.3726323
  99.9561154 102.2368947 103.4190046 101.1239428 103.7484456 104.4263532
 101.4143936 104.2460542 103.5010831 101.5381341 104.2983443 105.7101390
 102.0858806 105.2368533 105.7954295 101.1946699 103.5462220 106.9053500
 101.4784042 103.9348381 107.8833953 100.4984954 102.3202328 106.8069140
 100.2827483 101.7423260 107.7055668 101.3292977  99.0281063 105.1646703
 101.5299034  98.7202564 106.3366417 102.3266412  99.2676860 104.3410870
 102.1245748  99.3875170 103.3587891 103.7236021  99.2224832 104.7593763
 103.8195542  98.9474839 105.8097418 104.4309640  98.1073981 103.8759684
 105.1968335  97.7322646 104.5548043 103.6406698  97.3636630 103.7740213
 105.0482652  98.3776522 102.5180509 104.2434967  98.5816675 101.8117747
 105.6880734  99.2560509 102.6026865 105.8756539  97.1903364 102.0192342
 106.2984297  97.4592367 101.0512196 106.6819845  97.0201160 102.7326453
 105.0340857  95.8980411 101.8737113 104.3890200  95.8193702 102.7488122
 104.4204253  95.9982745 100.9784609 105.8922906  94.6464123 101.7624512
 106.4606860  94.5531155 102.5921031 105.2959905  93.8364842 101.6700240
 106.4897936  94.7189209 100.9513830 104.4254548 100.5456437 104.7351319
 103.9548623 101.4555089 104.0506436 105.5557971 100.6090831 105.5022869
 105.6287510  99.9401713 106.2555028 106.5733472 101.6988162 105.4223217
 106.5258939 102.3159546 104.5251106 106.3507196 102.6163483 106.6738075
 107.1939179 103.3070815 106.6719342 105.0305855 103.4155524 106.7639174
 104.1868912 102.7254255 106.7663074 105.0222521 104.0019623 107.6826962
 104.9504324 104.0836078 105.9063749 106.4785128 101.8573213 107.9862906
 107.4767054 101.4259684 108.0614464 106.3150224 102.5409534 108.8193678
 105.7354906 101.0605108 108.0196343 107.9972842 101.3021096 105.2163551
 108.4941270 100.4001498 105.8628114 108.7296819 102.0216598 104.3913370
 108.2212076 102.7119924 103.8574885 110.1794093 101.9787306 104.2611160
 110.6125233 101.0524546 104.6386399 110.5335574 102.1385639 102.6965884
 110.1180282 103.0475609 102.2616628 112.0849690 102.2295518 102.7019091
 112.5012631 101.3206480 103.1362981 112.4463785 102.3416476 101.6796966
 112.3969386 103.0902660 103.2934707 109.9801249 100.9836008 101.8339653
 110.5072375 100.0643102 102.0892257 108.9170302 100.8618738 102.0415987
 110.1830403 101.2969287 100.3058946 111.2460015 101.4183358 100.0973913
 109.7881328 100.4739785  99.7101596 109.6557957 102.2159013 100.0497649
 110.6628455 103.2437229 105.0024829 110.5584557 104.3698436 104.4841847
 111.1424057 103.0801792 106.2294460 110.9736411 101.8428038 107.0747092
 111.1195615 100.9717004 106.4359712 109.9579997 101.8365508 107.4703509
 112.0329065 101.9462661 108.1821998 112.9390162 101.3989766 107.9223181
 111.6508037 101.5831927 109.1362839 112.2904378 103.4781827 108.2344888
 113.3580665 103.5773032 108.4305578 111.7282581 103.9528406 109.0386986
 111.9405825 104.1421314 106.8834109 111.3106898 105.0104872 107.0765220
 113.0979712 104.5455583 105.9500385 113.7146605 103.7253372 105.2815508
 113.3116371 105.8822570 105.9535855 112.7582057 106.4825495 106.5481121
 114.2443583 106.5141860 104.9895492 114.3698832 105.9217235 104.0832761
 113.5734498 107.8785492 104.6072183 113.1526818 108.2675648 105.5344294
 114.3675679 108.5411527 104.2630773 112.4798056 107.8016142 103.5455906
 111.7895024 106.9903742 103.7768308 111.7272902 109.1204362 103.5417254
 112.4168926 109.9321575 103.3100881 110.9395605 109.0876712 102.7890573
 111.2844534 109.2895483 104.5232533 113.1485786 107.5213517 102.1417146
 113.6921553 106.5773240 102.1796026 112.3755902 107.4644201 101.3753276
 113.8399904 108.3287006 101.9003925 115.7313731 106.6118679 105.5458937
 116.4027920 107.5685802 105.0797359 116.1734846 105.8157389 106.4777661
 115.4991905 105.2084489 106.9211911 117.5811209 105.7995505 106.9815785
 117.7939376 106.6989412 107.5594233 117.7655196 104.5607252 107.9041764
 117.8933081 103.7412380 107.1969211 118.6751514 104.6765760 108.4934543
 116.6274173 104.2616796 108.8062185 115.8999871 105.1713325 109.2105597
 116.5050158 103.0608673 109.1897138 118.6739390 105.8055903 105.9008693
 118.6298817 104.9739509 104.9915817 119.5760005 106.7742378 106.0360172
 119.5604439 107.5355675 106.6995188 120.6170641 106.7685878 105.0141538
 120.1607955 106.7921186 104.0245254 121.4977184 107.9511238 105.1576346
 122.0797050 107.8499416 106.0736876 122.1720735 107.9960625 104.3024588
 120.6682963 109.2342067 105.2202306 120.1005611 109.3784249 104.3010034
 119.9853982 109.2176975 106.0696302 121.6667965 110.3856082 105.3898833
 121.1903442 111.3208804 105.6837507 122.4694371 110.1518845 106.0893408
 122.2383457 110.5507208 104.0633030 122.2282436 109.7378638 103.4639193
 122.7177046 111.6258893 103.6110756 122.5793378 112.7852968 104.1213412
 122.0421826 112.8998162 104.9689553 123.0074828 113.5841814 103.6757238
 123.4411872 111.6079350 102.5473560 123.6224777 110.7319999 102.0783447
 123.8244217 112.4698593 102.1863623 121.5279033 105.5546105 104.8473961
 122.1187488 105.4383441 103.7765256 121.5201852 104.5583789 105.7660674
 121.1806785 104.8991756 106.6541509 122.0584660 103.1742514 105.7015166
 122.7814403 103.0704454 104.8924235 122.7639572 102.8874675 107.0266737
 123.3440020 101.9738561 106.8964374 123.4351287 103.7123668 107.2657760
 121.7465529 102.6942415 108.1872331 120.4845087 102.8335192 108.0822415
 122.2151428 102.4101666 109.2734771 120.9811244 102.1199188 105.2738898
 121.3047817 100.9626633 105.4076085 119.7448925 102.5153199 104.8579310
 119.4059741 103.4294170 105.1218631 118.7879458 101.5552602 104.2826299
 119.0619844 100.5316268 104.5379273 117.4744611 101.8365210 104.8374554
 117.6794320 101.8168023 105.9078279 117.0403668 102.7995979 104.5688571
 116.4901930 100.7671120 104.5222875 116.7711290  99.7443189 103.8703901
 115.2383462 100.9453104 104.7755837 114.5737789 100.2160296 104.5597145
 114.9284039 101.8133112 105.1886347 119.0092660 101.5043950 102.7844039
 118.2538725 102.0494330 101.9894503 120.0394771 100.7969836 102.3803755
 120.6116977 100.4836137 103.1513893 120.5147449 100.5582382 101.0282886
 120.5446771 101.5003536 100.4809114 121.9237720  99.9525128 101.0387519
 121.8412218  98.9129370 101.3558745 122.3148911  99.9917369 100.0220969
 122.8953790 100.7161688 102.0014696 122.7759471 101.7748006 101.7709580
 122.5326298 100.5214405 103.0107248 124.3939787 100.3336635 101.9088865
 124.4109117  99.2446294 101.9515126 124.7091219 100.6629448 100.9187562
 125.3670799 100.9108290 102.9825098 125.3829175 101.9972920 102.8962092
 125.0063256 100.6307052 103.9721998 126.7190614 100.3871078 102.7905327
 127.0536963 100.6469344 101.8736853 127.3324127 100.7723233 103.4944568
 126.7046793  99.3804124 102.8708864 119.5212959  99.7752449 100.2451509
 119.4526541  99.9465017  99.0209411 118.7550028  98.8488000 100.8736933
 118.7849380  98.8678505 101.8830695 117.9624578  97.7510971 100.2006711
 118.1191934  97.7477532  99.1220043 118.4703334  96.4131463 100.7767639
 118.2168279  96.3765562 101.8362427 117.9656723  95.6002281 100.2546706
 119.9525520  96.2674527 100.6129005 120.2056229  96.2494927  99.5528376
 120.4092035  97.1399222 101.0801966 120.4786242  94.9940601 101.2851500
 121.4912025  94.9985590 101.9814623 119.7895625  93.9603730 101.1064376
 116.4487982  97.9045099 100.3311596 115.7469483  96.9323281 100.1976861
 115.9541716  99.0773502 100.7869776 116.6488008  99.7333483 101.1144776
 114.5143427  99.4142487 100.9847938 114.4361429 100.3961759 101.4514875
 113.7506950  99.4420269  99.6514025 113.8688852  98.4834168  99.1462322
 112.6996156  99.5964493  99.8952995 114.2389699 100.5851924  98.7149655
 115.2436730 100.3563398  98.3595797 113.2603386 100.7199251  97.4784698
 112.2554634 100.9492481  97.8330620 113.6066019 101.5215185  96.8260508
 113.2439913  99.7819322  96.9234900 114.3093430 102.0535787  99.2705374
 114.9915352 102.0889263 100.1199277 114.6691700 102.7217710  98.4881405
 113.3162031 102.3699345  99.5894278 113.8369945  98.4996009 102.0396913
 112.6965958  97.9717247 101.8171703 114.5518332  98.1696025 103.1520994
 115.4384591  98.6249377 103.3153895 114.0686171  97.1496340 104.1677255
 113.6408467  96.2819210 103.6655443 115.2822953  96.6792159 105.0294395
 115.7185211  97.5587221 105.5030164 114.9066366  96.0025895 105.7970053
 116.3617751  95.9574430 104.1900867 115.8820085  95.1637099 103.6174501
 116.8086371  96.6790014 103.5061496 117.4310686  95.3677132 105.0636237
 118.2279809  95.0303662 104.4008818 117.8018361  96.1749746 105.6952564
 116.9847065  94.2353231 105.9180350 117.8321612  93.8742895 106.5007664
 116.2034286  94.5855809 106.5925893 116.4689782  93.1598772 105.1009358
 117.1929026  92.8348871 104.4761041 116.1703355  92.3993882 105.6947110
 115.6834315  93.4940963 104.5612015 113.0166493  97.9527946 105.0067260
 113.2364969  99.0997623 105.3517594 111.9105692  97.2453586 105.1821968
 111.9515153  96.2554443 104.9860017 110.5942063  97.8455316 105.4882197
 110.6770940  98.9002953 105.7503309 109.7763159  97.7245305 104.2027081
 109.6768652  96.6732924 103.9323231 108.7868246  98.1540781 104.3592201
 110.2811532  98.2598058 103.3985197 110.0378518  97.2021915 106.7500728
 110.6925347  96.3743733 107.3503171 108.7701816  97.6023316 106.9976675
 108.3698731  98.3786271 106.4905011 107.9340313  96.9103456 107.9814831
 108.2001957  95.8546504 108.0340504 108.1572218  97.5385641 109.3544917
 107.9255991  98.5997864 109.4453610 107.4680992  96.9626153 109.9721429
 109.5051124  97.3483865 109.9340616 109.8031292  96.1280943 110.5734768
 109.0376776  95.3522514 110.5893379 111.0602602  95.8961248 111.1861545
 111.2150960  95.0411597 111.8443043 112.1157706  96.7887878 110.9338223
 113.1395059  96.5892747 111.2504616 111.8084140  97.9890773 110.2378151
 112.5997152  98.7299562 110.1236177 110.5382410  98.2351601 109.7069953
 110.3606975  99.1303729 109.1110320 106.4719667  97.1222800 107.5284356
 106.1007990  98.2266225 107.0155494 105.6024846  96.1249978 107.7504315
 106.0030830  95.3526402 108.2633486 104.1806801  96.0314482 107.3342709
 104.0026636  96.7956396 106.5776860 103.7836668  94.6808930 106.7629513
 103.9654047  93.8399707 107.4322198 102.7108457  94.7966500 106.6088237
 104.4395761  94.3846595 105.4193949 105.4921674  94.9273023 105.1141159
 103.9161428  93.4109248 104.6620825 104.3306655  93.1933789 103.7671275
 103.1094864  92.8989890 104.9896921 103.3779511  96.3187831 108.6166572
 103.5334954  95.6235621 109.6325705 102.5203249  97.3597316 108.6034082
 102.4212896  97.7765495 107.6887748 101.8097772  97.9656603 109.7175251
 101.9907865  97.6374097 110.7410417 102.0194971  99.4848665 109.6225812
 101.5866306  99.8442668 108.6890083 101.3514427 100.1931549 110.7988736
 101.7841410  99.8345879 111.7328450 101.5107120 101.2681394 110.7143623
 100.2819177  99.9830554 110.7902860 103.5275775  99.9146642 109.3095102
 103.8291559  99.5175062 108.3402750 103.6045195 101.0018607 109.2959765
 104.4408631  99.3542463 110.3945923 104.3648068  98.2669911 110.4084239
 105.4713234  99.6432667 110.1879094 104.1401687  99.7513442 111.3641263
 100.3362570  97.5848201 109.7222298  99.6267198  97.8763781 108.7667237
  99.8948695  96.7871718 110.7433391 100.4721914  96.7541735 111.5714151
  98.7302332  95.9642397 110.6974916  98.6829826  95.4261260 109.7507602
  98.7849116  94.9393469 111.8432185  99.1280737  95.4362988 112.7506201
  97.7866142  94.5336000 112.0071445  99.7611286  93.7838036 111.4848355
  99.4034646  93.3270838 110.5620223 100.7429661  94.2254020 111.3142834
  99.8652730  92.7148236 112.5759233  98.8996809  92.2154608 112.6557219
 100.6232985  91.9925798 112.2728380 100.2200689  93.2410158 113.8667938
  99.4390089  93.5556302 114.4245235 101.4578991  93.3983045 114.3540656
 102.5066843  93.1119241 113.6116102 102.3769442  92.7717822 112.6695004
 103.4361607  93.2336887 113.9875712 101.6210124  93.7684404 115.5550795
 100.8164796  93.9433606 116.1400837 102.5547545  93.8867251 115.9214579
  97.3879723  96.8180104 110.7714186  97.1281356  97.4605584 111.7588208
  96.4571708  96.6031671 109.8349610  96.8339231  96.2834214 108.9540979
  95.0142297  96.9419861 109.9013214  94.9142220  97.8489477 110.4975751
  94.3444454  97.1757699 108.5330250  94.6895124  96.3295386 107.9389539
  93.2609326  97.1256908 108.6406916  94.7245246  98.4716517 107.8365473
  94.7024607  99.2103583 108.6377505  96.0700576  98.5906133 107.0572047
  96.0926639  97.8524778 106.2554916  96.1572320  99.5905817 106.6322758
  96.9020756  98.4120456 107.7383509  93.6476334  98.8922152 106.8634159
  92.7110253  99.0432075 107.4001337  93.9405689  99.8221948 106.3761500
  93.5134301  98.1150305 106.1110381  94.2363253  95.9325253 110.7599846
  94.5088697  94.7573179 110.6941959  93.2194789  96.2756101 111.5585158
  93.0190172  97.2369519 111.7946015  92.3679639  95.2619453 112.0784493
  92.9127394  94.3346436 112.2557353  91.8228886  95.7774910 113.4237193
  92.6726249  96.1068168 114.0217093  91.1746602  96.6285290 113.2148308
  91.0226938  94.6962480 114.2101643  90.8074362  95.0936228 115.2020606
  90.0872323  94.5183160 113.6797387  91.7806346  93.3975513 114.3423827
  92.9304908  93.5223730 114.8360173  91.3943486  92.2559018 114.0222489
  91.1263130  94.9350598 111.1477597  90.5579206  93.8235882 111.1767069
  90.7390509  95.8774406 110.3326048  91.2911904  96.7215670 110.3844867
  89.6498651  95.8386652 109.4168467  89.2238402  94.8370254 109.3592299
  88.5725358  96.7995192 109.9196262  88.2482605  96.4293715 110.8922184
  89.0490992  97.7721423 110.0420663  87.3784361  96.9365319 109.0111948
  86.7516347  97.7589395 109.3559650  87.7759564  97.1724608 108.0240706
  86.5476980  95.6650686 108.9321681  86.0496174  95.1323771 109.9574941
  86.3273298  95.1614566 107.7665945  90.3065089  96.2875453 108.0627908
  90.8675051  97.3429429 107.9792726  90.4993735  95.3121161 107.1435264
  90.0059996  94.4333651 107.2104458  91.4529490  95.4840801 106.0666438
  92.3184524  96.0409281 106.4257028  91.9288003  94.1197919 105.5453721
  91.0239634  93.7534208 105.0604580  92.7023923  94.2820490 104.7948203
  92.4127205  93.0922553 106.5581800  91.5479966  92.6759506 107.0749428
  93.1545582  92.0115240 105.8975215  94.0197476  92.4270252 105.3808931
  93.4891315  91.2908381 106.6436939  92.5064304  91.5130703 105.1767063
  93.2002606  93.6536245 107.6351974  92.6031107  94.3851878 108.1795562
  93.5072080  92.8582362 108.3143453  94.0843324  94.1407683 107.2238498
  90.6849179  96.3063012 105.0207821  90.1493548  95.8092311 104.0276887
  90.7191895  97.6304463 105.2706644  91.2011953  97.9330009 106.1050686
  90.0129503  98.6489935 104.4591610  90.0870662  98.3966840 103.4013585
  88.5354081  98.7049403 104.8455028  88.0506520  97.9339627 105.4444220
  88.6053852  99.6248402 105.4260090  87.5853285  99.0036344 103.6514627
  87.5300754 100.2732943 103.0684184  86.3990758 100.1567950 102.3395282
  86.0974124 101.0554534 101.8014658  85.8411767  98.9487028 102.4052769
  85.0439289  98.6080633 101.8871452  86.5546903  98.2172088 103.3267464
  86.2117814  97.2243722 103.6179338  90.6186748 100.0073241 104.5306424
  90.7822631 100.5377571 105.6501109  90.9899096 100.4742120 103.3508948
  90.9186062  99.8488401 102.5610054  91.6446223 101.8096450 103.1447130
  91.0523299 102.6256984 103.5586522  93.0613434 101.8389858 103.8002507
  92.9175734 101.7923160 104.8797188  93.9804911 100.6897188 103.3559276
  94.1251124 100.7360062 102.2765559  94.9449502 100.7812563 103.8554673
  93.5240755  99.7358228 103.6202545  93.7201397 103.1629299 103.4983959
  93.1128716 103.9722979 103.9036747  94.7100669 103.1889779 103.9538795
  93.8139337 103.2850208 102.4193234  91.6243272 102.1538743 101.6337053
  92.3974715 101.9443449 100.8124969  90.5893796 102.9432716 101.3091558
  89.9995665 103.2872428 102.0534029  90.2797786 103.3409315  99.9434212
  90.3191965 102.5613515  99.1826319  88.8927740 104.0294869  99.9052417
  88.8780187 104.8175402 100.6581392  88.6057289 104.6271759  98.5436985
  88.6198583 103.8396002  97.7902893  87.6244922 105.1016922  98.5541679
  89.3659407 105.3710356  98.3052662  87.7964908 103.0383925 100.4617282
  87.8345535 102.1270005  99.8650569  88.0490453 102.8056080 101.4961977
  86.3727461 103.6338127 100.4012329  86.1192878 103.8664366  99.3669482
  85.6589103 102.9107838 100.7959061  86.3337804 104.5450459 100.9980876
  91.3516898 104.3456308  99.4344943  91.8408443 104.1833759  98.3249199
  91.8068588 105.2071529 100.3427315  91.4000093 105.2151636 101.2671279
  92.8102201 106.1980920 100.0272149  93.5268552 105.7460101  99.3415362
  92.2431797 107.4838187  99.3740303  91.6669130 107.0971130  98.5335099
  91.5803134 108.0225469 100.0511420  93.2943334 108.4074871  98.8707704
  93.1542242 109.6162839  98.7189525  94.3742611 107.8977682  98.4768363
  93.5915392 106.5334460 101.3256244  93.1237206 106.2779237 102.4410199
  94.8002136 107.0637097 101.2237633  95.1970027 107.2236509 100.3088445
  95.6475250 107.3739281 102.4366029  95.0179580 107.8525400 103.1867198
  96.2281468 106.0661096 103.0376963  95.3761577 105.4566517 103.3389851
  97.1624139 105.2248145 102.0543131  98.0149268 105.8334987 101.7529389
  97.5179489 104.3307084 102.5664358  96.5932808 104.9349024 101.1710577
  97.1326217 106.2568424 104.2534541  96.5717195 106.7432567 105.0515091
  97.4872784 105.2858106 104.5990198  97.9853070 106.8777828 103.9787511
  96.8238395 108.3704192 102.1953653  97.4559361 108.3993700 101.1437904
  97.0780742 109.1970969 103.2028863  96.6021123 108.9511419 104.0590789
  97.9478778 110.3457420 103.2105928  98.7491820 110.1929600 102.4876348
  97.1774918 111.6611328 102.8351124  96.3451625 111.7320702 103.5353231
  97.8744548 112.4794607 103.0158937  96.6409616 111.7512848 101.3851872
  96.0662895 110.8333616 101.2616160  95.9621286 112.6037286 101.4102353
  97.5885595 111.9031651 100.2401071  98.3266210 112.6716294 100.4699476
  98.0962952 110.9571745 100.0519430  96.7991181 112.3114513  99.0005044
  96.2855812 113.2515635  99.2019234  97.4910015 112.4468389  98.1692002
  95.8143908 111.2814156  98.6537369  95.1729184 111.1561140  99.4237450
  95.3020673 111.5685067  97.8320294  96.2900742 110.4103127  98.4666429
  98.5866490 110.6495189 104.5664132  97.9492519 110.4206672 105.5801926
  99.7527591 111.2790795 104.6107623 100.2517962 111.4517023 103.7497962
 100.4030426 111.6720956 105.8976056 100.0996129 110.9816281 106.6845518
 101.9515386 111.6358678 105.7751856 102.2072501 112.0393709 104.7954427
 102.4430084 112.2247548 106.5496335 102.5577991 110.2304239 105.8422341
 102.5306244 109.5274807 107.0583350 102.0406086 109.9903669 107.9149100
 103.1071186 108.2761708 107.1841003 103.0200726 107.7458602 108.1324116
 103.7819238 107.7010115 106.1349812 104.2692253 106.7308051 106.2316077
 103.8355151 108.4049099 104.8976612 104.3785826 107.9718829 104.0576223
 103.1996766 109.6397313 104.7558526 103.2035966 110.1471614 103.7911769
  99.9280843 113.0335601 106.3443640  99.5671917 113.8494435 105.4870655
  99.8937482 113.3408276 107.6334589 100.0757379 112.5663642 108.2557014
  99.5712581 114.6798510 108.2371628  99.1152639 115.3123131 107.4754803
  98.5691006 114.5562213 109.4594709  99.1185477 113.7809873 109.9935301
  98.5330914 115.4599315 110.0678386  97.1158785 114.0620229 109.1759883
  97.1753073 113.2218457 108.4841276  96.3870955 113.6232013 110.4503964
  96.3268636 114.4630363 111.1426016  95.3810185 113.2887172 110.1973546
  96.9342337 112.8052416 110.9190991  96.2829049 115.0535662 108.2750522
  96.7805204 115.1764288 107.3130839  95.2830627 114.6491758 108.1173017
  96.2087777 116.0211672 108.7713914 100.7829798 115.4817131 108.7359838
 101.7627107 114.9683540 109.2818930 100.7281256 116.7916574 108.4697770
  99.8735024 117.1382170 108.0579336 101.8199518 117.7599827 108.7457235
 102.7842804 117.3267724 108.4802080 101.6005897 119.0603455 107.8897716
 100.6983386 119.6279198 108.1175910 102.4687841 119.5821014 108.2923997
 101.7472874 118.9223503 106.3678639 100.6881261 118.6449508 105.4803911
  99.6934361 118.5533209 105.9166195 100.8662437 118.4863594 104.0866379
 100.0532571 118.0995462 103.4722030 102.1575587 118.7174803 103.5052717
 102.4274660 118.5301895 102.1755341 101.6644384 118.2293553 101.6766479
 103.1637806 119.2947359 104.3789350 104.1014564 119.6793433 103.9777598
 102.9149731 119.3530053 105.7561832 103.6693979 119.7598218 106.4295655
 101.8345469 118.1572067 110.2350872 100.8441618 118.0321291 110.9437365
 102.8875642 118.8072301 110.7875635 103.6899923 119.0535923 110.2258570
 102.8953561 119.1737477 112.2193352 103.8945835 119.5709955 112.3977674
 102.1647869 119.9783498 112.3029034 102.5877493 118.1125630 113.2715615
 102.0466534 118.4593470 114.3282668 103.0109305 116.8299947 113.0680078
 103.3814723 116.6203646 112.1521184 102.9484213 115.7242180 114.0802249
 102.4082807 116.0556264 114.9670821 102.2168879 114.5210617 113.4836891
 102.6494278 114.1738078 112.5453804 102.1285067 113.6827143 114.1746757
 100.4765375 115.0478193 113.0860346 100.0818171 113.8721667 112.6054776
 104.3617728 115.3436807 114.4753577 105.3523178 115.4761101 113.7404229
 104.5339146 114.9145642 115.7191150 103.6872772 114.8185950 116.2614198
 105.8167989 114.5900625 116.3645424 106.6084232 115.2968924 116.1159026
 105.5075579 114.7028960 117.8984735 105.1940162 115.7257716 118.1070794
 104.6916537 114.0186757 118.1313747 106.7414148 114.3522243 118.7716604
 106.2706835 114.5342197 119.7377818 107.0447501 113.3072820 118.7069659
 107.9422651 115.1982246 118.6664503 108.5603320 115.4978516 117.6850931
 108.5515052 115.5133790 119.7455751 109.3779883 116.0924722 119.7046096
 108.2033375 115.1817163 120.6337645 106.1823439 113.1753938 115.8997272
 107.3260370 112.8140928 115.8569499 105.1417617 112.3547210 115.3993486
 104.1980070 112.7113367 115.4468015 105.3421637 110.9476883 114.9659099
 106.4023264 110.8510709 114.7317745 104.9850595 109.9295456 116.1268854
 103.9245731 110.0080635 116.3662671 105.2093493 108.9136532 115.8016824
 105.5753152 110.1657194 117.0122776 104.5832318 110.6704804 113.6229151
 103.6744956 111.4374733 113.3293126 104.9872974 109.7009851 112.7108554
 105.8276316 108.5458812 113.0971239 105.2270421 107.8429598 113.6744402
 106.6609059 108.8966065 113.7060118 106.2924785 107.9582890 111.7435036
 106.2988339 106.8697558 111.7996652 107.2964855 108.3156498 111.5146708
 105.2842727 108.4587707 110.7051847 104.6896827 107.5488866 110.6234977
 105.6179830 108.7643628 109.7135444 104.4703123 109.5414339 111.3232219
 104.4527201 110.4734629 110.7583231 103.0429944 109.0803652 111.5848580
 102.7458568 108.1520768 112.3621679 102.0206888 109.6859556 110.9457513
 102.3375694 110.1952983 110.1331899 100.5737702 109.6548741 111.2312801
 100.3770396 108.7012930 111.7212590 100.2235131 110.8038661 112.2205770
 100.4064734 111.7654480 111.7410086  98.7530468 110.7043253 112.6151372
  98.5694059 109.7431298 113.0952192  98.5070029 111.5088916 113.3081268
  98.1307192 110.7897385 111.7243434 100.9152092 110.6819061 113.4325362
 100.6729150 111.4066649 114.0135857  99.8324689 109.9240762 109.8914769
 100.0956143 110.9045158 109.1177419  98.9571872 108.9857209 109.5780169
  98.8836259 108.1848981 110.1890576  98.1755797 109.0048231 108.4029390
  98.4230348 109.7664527 107.6634895  98.1488806 107.6183780 107.7240820
  97.3691854 107.5921017 106.9628426  99.4670748 107.3776430 107.0894287
 100.2472801 107.4033115 107.8501661  99.4647441 106.4012514 106.6049138
  99.6596505 108.1511384 106.3459782  97.6226691 106.4658783 108.6451993
  98.3802031 106.2532544 109.3995427  96.7089086 106.8040108 109.1338788
  97.3277208 105.1786349 107.8321022  98.2411818 104.8396168 107.3434760
  96.9644950 104.3998980 108.5027250  96.5698885 105.3903741 107.0778101
  96.7364219 109.4832315 108.6508002  96.2333820 109.3557298 109.7925809
  96.1503092 110.1408289 107.6634422  96.7863804 110.6384581 107.0569128
  94.7263025 110.3338095 107.4728112  94.1650401 109.9164631 108.3088170
  94.4440516 111.8311356 107.3951590  93.3727054 112.0313416 107.4104620
  94.9247657 112.3656094 108.2145196  95.0676128 112.5726220 105.8832548
  94.6599408 113.8088123 106.1562666  94.2920871 109.4661920 106.2619557
  95.0997695 109.1758714 105.3891051  93.0144232 109.1322468 106.1335094
  92.3182031 109.5806066 106.7117398  92.5881640 108.0930937 105.2348865
  92.9079876 108.3249961 104.2189961  93.2219062 106.7141532 105.6599746
  92.6912802 106.0869144 104.9436599  94.2962009 106.6078335 105.5093520
  92.9261963 106.1661459 107.0035655  93.8564915 106.3852521 108.0621156
  94.6897178 107.0792072 107.9513899  93.6783818 105.6713164 109.2890234
  94.3479959 105.8772931 110.1240630  92.6582579 104.7164191 109.4262397
  92.4988777 104.1536836 110.3460368  91.7943598 104.4909096 108.2756439
  91.0465289 103.7029469 108.3648849  91.8928733 105.2439566 107.0752076
  91.1768231 105.0814905 106.2696168  91.0458344 108.0026093 105.1922126
  90.3205264 108.5955914 105.9464523  90.5683222 107.2693575 104.1673498
  91.2025206 107.1239793 103.3948494  89.1915926 106.8297813 104.0202465
  88.6217232 107.1886206 104.8773244  88.4836310 107.2727231 102.7443806
  88.8840824 106.7066073 101.9033985  86.9406511 107.0234251 102.8539328
  86.5393767 107.5896187 103.6944711  86.4537125 107.3460393 101.9336550
  86.7539236 105.9609380 103.0099955  88.7563250 108.7291316 102.4893251
  89.8294537 108.8843045 102.3778886  88.2480613 109.0400718 101.5765908
  88.3894386 109.3203754 103.3283281  89.0528008 105.3507791 104.2187801
  89.7751224 104.5931881 103.5828703  88.0333351 104.8555595 104.9215006
  87.5388292 105.5663385 105.4414588  87.6055771 103.4139597 105.0917217
  87.8314650 102.8254520 104.2024903  88.4152371 102.8250885 106.3025105
  88.4591650 101.8175244 105.8890081  89.4252177 103.1719888 106.5209122
  87.5837159 102.8113774 107.6031267  87.4525339 103.9999336 108.3036282
  87.8764847 104.9048392 107.8682995  86.7958681 104.0584681 109.5404859
  86.5064466 105.0153401 109.9749200  86.5161489 102.8636489 110.2238014
  86.0604315 102.8985879 111.4979286  85.9646200 103.7913283 111.8376851
  86.7076699 101.6112149 109.5720731  86.4472025 100.6627562 110.0418427
  87.2498431 101.6273453 108.2866191  87.4347943 100.6903449 107.7613350
  86.1005025 103.3018332 105.2692016  85.3797373 104.2777166 105.2015320
  85.5945555 102.0755230 105.4927321  86.1975045 101.2773911 105.3529559
  84.1791634 101.8382417 105.7192970  83.7273967 102.6980697 106.2139705
  83.4705985 101.6175830 104.3737832  83.8134153 102.4151693 103.7146686
  83.8247085 100.6580791 103.9968766  81.9396008 101.6148244 104.4178777
  81.6814886 100.6646456 104.8854663  81.5450876 102.4340222 105.0190236
  81.3049934 101.6685233 103.0583573  81.8038356 102.1168781 102.0386655
  80.0523224 101.2901866 102.8864512  79.6373154 101.3312435 101.9665680
  79.5145012 100.9613508 103.6755752  83.9405103 100.7419379 106.7993270
  84.7468313  99.7726339 106.9075910  82.8743131 100.8695324 107.6091907
  82.4034657 101.7551410 107.7279321  82.4851637  99.7463445 108.4862303
  82.8271247  98.7998703 108.0674839  83.1469278  99.9394265 109.8942039
  82.6609676  99.0754826 110.3475723  84.2218458  99.7659700 109.8435676
  82.8610808 101.2259759 110.7715220  83.8103095 101.7031901 111.4404110
  81.6606372 101.6266275 110.9571625  80.9643354  99.6843392 108.3992661
  80.3661862 100.5405144 107.7628995  80.2718467  98.7042814 109.1018664
  80.8511225  97.5345254 109.7527891  81.0555827  97.8100692 110.7873768
  81.7894591  97.3142338 109.2437751  79.8696219  96.4206076 109.6410500
  80.0024298  95.6995225 110.4475842  79.9625306  95.9125458 108.6811841
  78.5313278  97.1352925 109.7497532  78.2516398  97.4242778 110.7628480
  77.7081218  96.5905188 109.2875268  78.8663229  98.4038015 108.9108987
  78.6936847  98.0490416 107.8948082  78.0818670  99.6593965 109.1407772
  77.0101666  99.8138202 108.6084685  78.4589610 100.5495488 110.1175316
  79.1790501 100.2760126 110.7707919  77.7912227 101.8325349 110.3202859
  76.7158108 101.6968226 110.4350494  78.3492673 102.4717637 111.6128112
  78.4535839 101.6394674 112.3088717  79.3374485 102.8380239 111.3345102
  77.5426779 103.6193386 112.2927607  78.0464067 104.0485017 113.1588884
  77.4791625 104.3673457 111.5024738  76.1118120 103.2147482 112.7048848
  75.7164269 102.0381854 112.7683801  75.3797370 104.2099057 113.1212427
  74.4271619 104.0444996 113.4133776  75.7685902 105.1416157 113.1497191
  77.8260004 102.8857837 109.1829577  77.0298408 103.7668979 109.2024173
  78.8512991 102.9059100 108.3602150  79.5139770 102.1564103 108.4988067
  79.1116002 103.8645028 107.3130946  78.5579193 103.5262522 106.4372389
  78.7043692 104.8161816 107.6545176  80.6023798 104.0632570 106.9231240
  81.3942838 103.4558961 107.5567586  80.8465036 104.8150844 105.8270916
  79.9671367 105.0204965 105.3747432  82.0912143 105.2816097 105.1828461
  82.8443640 104.5115069 105.3495984  82.0015572 105.5724888 103.6339352
  81.4650444 104.7447995 103.1700563  81.4337687 106.4932695 103.5002217
  83.3886996 105.7224779 102.9710355  83.7540583 106.6763540 103.3514752
  83.9713988 104.9108972 103.4068112  83.5344561 105.6920174 101.4267359
  82.8967498 106.4493200 100.9707508  84.5709348 105.8700722 101.1401913
  83.1328714 104.3868628 100.9328752  82.9016384 103.6741364 101.6101135
  83.0818103 104.0798412  99.6595365  83.5590237 104.8191511  98.7537318
  84.0046540 105.6912772  99.0005309  83.4927466 104.5347318  97.7868747
  82.5055242 103.0069352  99.3126588  82.0964884 102.4071838 100.0148610
  82.4577030 102.7561253  98.3354658  82.5862476 106.5415319 105.9338982
  81.8745222 107.5288871 106.0063738  83.8143761 106.5334805 106.3542855
  84.4495713 105.8842605 105.9125391  84.3324326 107.4138139 107.3566944
  83.6865515 108.2808893 107.4949582  84.3865975 106.6280021 108.6731081
  85.1707302 105.8937362 108.8577397  84.5521283 107.5018244 109.3032940
  83.0466840 105.9805298 109.1496376  81.7051492 106.4759637 109.0468780
  80.8762417 105.7071586 109.7812935  79.8006745 105.8829552 109.7999959
  81.6574889 104.7513969 110.4270237  81.3372115 104.0307087 111.0579997
  83.0004483 104.9570066 110.0487241  83.7878847 104.3349473 110.4742678
  85.7406618 107.8442191 107.0218436  86.5686895 106.9873397 106.6878096
  86.0989539 109.1380655 107.1739166  85.3617591 109.7445349 106.8440104
  87.4778656 109.7392177 107.4071212  88.2058571 109.2166986 106.7865559
  87.6318612 111.2424563 107.1797355  87.2807477 111.4735358 106.1740413
  86.8519515 112.0402625 108.1751386  87.2028368 111.8100492 109.1811119
  86.9894082 113.1033169 107.9773471  85.7942389 111.7898533 108.0936459
  89.1541247 111.5041082 107.2334108  89.6501855 110.9274106 106.4527408
  89.3465452 112.5656815 107.0780526  89.5407716 111.2040255 108.2073489
  88.1388325 109.1356538 108.7040115  87.4759237 109.3214480 109.7268948
  89.3940205 108.6750848 108.7045670  89.9092773 108.5909670 107.8399666
  90.0027609 108.1278081 109.9425070  89.6317644 108.6898300 110.7995905
  89.6565927 106.6177170 110.1477858  88.5774969 106.5126200 110.0355084
  90.1596300 106.0580083 109.3592557  90.0908148 106.0609179 111.5379811
  91.1523777 105.8146631 111.5146677  89.9101377 106.8154987 112.3035304
  89.2731171 104.7877161 111.8656544  88.2206827 105.0696903 111.8968202
  89.4338457 104.0744731 111.0572299  89.6691620 104.1454056 113.1992876
  90.5066010 103.4692111 113.0273644  89.9736422 104.9317179 113.8900146
  88.5346436 103.3885602 113.7814930  88.2526317 102.6596206 113.1417930
  88.8199136 102.9755554 114.6579335  87.7586965 104.0150382 113.9412755
  91.5755788 108.4519361 109.9156963  92.1236161 108.6631624 108.8509055
  92.1813644 108.4402384 111.1515430  91.6204284 108.3072106 111.9808522
  93.6371749 108.7104348 111.3192051  94.1301746 108.5576127 110.3591551
  93.9400065 110.1227576 111.8024931  95.0221226 110.1661430 111.9259541
  93.5005047 111.2298339 110.9390017  92.4183627 111.1873796 110.8154467
  93.7764328 112.1798464 111.3966468  93.9806288 111.1436709 109.9642416
  93.2923532 110.2674517 113.0429978  93.4559428 111.1480236 113.3885871
  94.2945124 107.7129809 112.2508987  93.6955722 107.1360910 113.1454661
  95.5773811 107.4935078 112.0890795  95.9802554 107.9600811 111.2890164
  96.4491892 106.7201587 112.9410653  96.1248422 106.7697544 113.9805067
  96.3928281 105.3200882 112.4978171  96.5404483 105.4848326 111.4304995
  97.2850252 104.8580394 112.9204224  95.1797596 104.3874216 112.7116765
  94.3926841 104.5063730 113.8870678  94.6808816 105.2257205 114.6536060
  93.2654510 103.7171781 114.0649943  92.5680214 103.9333448 114.8742938
  92.9312084 102.7901207 113.0919503  91.9012293 101.9303617 113.3028521
  91.4781088 102.0539179 114.1556725  93.7451266 102.5632041 111.9632599
  93.5204614 101.8038656 111.2142398  94.9098169 103.3825781 111.8243228
  95.6014590 103.2112701 110.9994684  97.9017704 107.1215537 112.8592369
  98.4215864 107.4419934 111.8148908  98.5946349 106.8859644 114.0033949
  98.0197460 106.6889987 114.8101207 100.0570126 106.9724480 114.1900955
 100.5166424 107.6322605 113.4542375 100.2999680 107.5735089 115.6269227
  99.9319289 108.5988924 115.5917805  99.6810452 106.9890124 116.3076565
 101.7299551 107.5683425 116.1164535 101.9640162 106.5064425 116.0410562
 102.4011425 108.1345499 115.4706859 101.9113075 108.0360409 117.5904764
 101.5016605 109.1817843 117.9628784 102.6353335 107.2499309 118.3221892
 100.6716615 105.5709489 113.9671869 100.1989419 104.5901096 114.4815988
 101.7782707 105.4778519 113.2665879 102.0602138 106.3072932 112.7639602
 102.5133888 104.2601131 113.0413669 101.7458440 103.4933362 112.9363552
 103.3910538 104.2670563 111.7512363 104.1598735 105.0348131 111.8382129
 104.0611267 102.8846411 111.5766494 103.2928792 102.1163718 111.4891340
 104.6744188 102.8887666 110.6755632 104.6891437 102.6728196 112.4419979
 102.4254043 104.4609735 110.5971885 101.8959284 105.4057066 110.7206253
 102.9787641 104.4751836 109.6582047 101.7067813 103.6415439 110.5824587
 103.3542352 103.8302874 114.2929100 104.3564254 104.4560667 114.6139521
 102.9358958 102.7469478 114.9913829 102.0210643 102.4538888 114.6794549
 103.5110130 102.0825367 116.0977857 104.0379993 102.8155924 116.7085343
 102.4582461 101.3644887 116.9830974 101.6680744 102.0831887 117.2003492
 102.0482282 100.5395728 116.4004319 102.9766582 100.8780015 118.1682506
 102.2802535 100.4469609 118.6690741 104.6121889 101.1310613 115.6301115
 104.3947289  99.9121966 115.6516993 105.7522443 101.5787173 115.1163774
 105.9260282 102.5280082 115.4142786 106.6115167 101.0137837 114.1817192
 106.0198785 100.6138812 113.3582257 107.5767625 101.9878603 113.6390025
 106.9207294 102.7719587 113.2609688 108.1663518 102.3770019 114.4690948
 108.5309101 101.5158906 112.5009472 108.9865589 100.5800272 112.8244354
 107.8172160 101.3000647 111.1446939 107.3616842 102.2356739 110.8203100
 108.5425177 100.9723111 110.3999686 107.0440947 100.5399925 111.2572727
 109.7170863 102.4029415 112.2291222 110.3294268 102.4771936 113.1278019
 110.3108631 101.9785438 111.4195440 109.3707627 103.3960616 111.9429904
 107.3573768  99.7450737 114.6153407 107.4529602  98.7807260 113.8167103
 107.8323769  99.7625150 115.8295527 107.8250259 100.6535666 116.3050233
 108.4064866  98.6177347 116.5190438 109.2663550  98.2368980 115.9679641
 108.8652825  99.0377084 117.9046330 109.3493055 100.0103380 117.8162445
 107.9817040  99.1282363 118.5364508 109.8573169  98.0205995 118.5426660
 109.3781512  97.0472248 118.6477502 110.7449891  97.9224433 117.9177616
 110.2632920  98.5444110 119.9308402 111.1237725  97.9769707 120.2853596
 110.5326120  99.5972695 119.8468454 109.1697985  98.4123982 120.9171919
 108.3644073  97.9497550 120.5204481 109.1132384  98.7995157 122.1392340
 110.1419042  99.4144054 122.6649965 110.9677068  99.5782696 122.1070551
 110.1051861  99.7222177 123.6262473 108.0340264  98.5529688 122.8197230
 107.2648977  98.0661547 122.3820553 107.9694047  98.8493134 123.7831038
 107.4787672  97.4215037 116.6637752 107.8150522  96.2554081 116.4311329
 106.3009163  97.6593661 117.1631564 106.0587139  98.5850365 117.4865319
 105.2949954  96.6030390 117.2680576 105.7527394  95.6659740 117.5850416
 104.2524299  97.0176420 118.3138614 104.0898788  98.0903587 118.2091947
 103.3282470  96.4866758 118.0856928 104.6867878  96.6987838 119.7755907
 103.9768517  97.3114082 120.3312732 104.5504355  95.6513163 120.0445125
 106.1359492  97.1389606 120.1259998 107.0100797  96.2628054 120.1512387
 106.2527167  98.3390021 120.5124901 104.5566117  96.3380895 115.9449751
 103.7251155  95.3863051 115.8633264 104.7939772  97.1058055 114.8807370
 105.2920756  97.9636346 115.0708067 104.1404235  96.9540029 113.5707563
 104.2694058  97.8522221 112.9668812 104.8065187  95.7456179 112.8213193
 104.4612822  94.8604441 113.3555274 104.3694076  95.7603235 111.8229117
 106.3506480  95.7102174 112.7079683 106.5651436  95.4326064 111.6759680
 106.6837283  96.7328151 112.8853197 107.0994068  94.7491783 113.6677887
 107.9685671  95.2481688 114.0963535 106.4350564  94.4256378 114.4690749
 107.5633580  93.5136559 112.8500701 108.0479614  93.8216856 111.9235833
 108.2504051  92.8993472 113.4320412 106.4154400  92.7733283 112.5514579
 105.7788599  93.3422406 112.0118244 106.6718224  91.9555551 112.0170283
 105.9664786  92.4874402 113.4098289 102.6061253  97.0199744 113.4558185
 101.9858224  96.2764349 112.7438870 101.9749990  97.9558438 114.2468419
 102.5622351  98.4546051 114.8999042 100.5066538  98.1322963 114.3456637
 100.0542750  97.8684320 113.3897200  99.8971940  97.2682208 115.4224609
  98.8250965  97.3109480 115.2304178 100.2648447  96.2651617 115.2061151
 100.1658419  97.6039290 116.8916747 101.2539159  97.6572283 116.8548642
  99.7668520  98.5611354 117.2273267  99.7564787  96.5417999 117.8348976
  99.0629258  96.8873640 118.7789425 100.3008211  95.4014109 117.7308525
 100.1818647  99.6348076 114.4346176 101.0874310 100.4829016 114.2939964
  98.8591082 100.0478606 114.5272647  98.1075961  99.3743039 114.5678892
  98.5186589 101.4689323 114.5621878  99.3315463 102.0844414 114.1768805
  97.3198040 101.6533581 113.6822060  96.6811851 100.7964705 113.8967029
  96.7630503 102.5738093 113.8579757  97.6305699 101.6059583 112.1637700
  98.4439143 102.6486924 111.6288705  98.9412921 103.4059972 112.2348448
  98.5785991 102.6622980 110.2998303  99.0951541 103.5116128 109.8526883
  98.0784115 101.6245517 109.4766304  98.3751167 101.5259360 108.4324365
  97.1607372 100.6915241 110.0496446  96.5982864 100.0288051 109.3919571
  96.9823822 100.6226323 111.4096742  96.3649637  99.8336532 111.8390998
  98.2056621 101.9010264 115.9983663  97.9326549 101.1958140 116.9531834
  98.2560934 103.2183121 116.1696559  98.6105927 103.7561374 115.3917270
  97.8758346 103.9461545 117.4206569  97.3443665 103.2690390 118.0893538
  99.1045138 104.4714364 118.1388904  99.8768113 104.5065799 117.3705019
  98.9567118 105.4697815 118.5506690  99.5689098 103.5535946 119.2500541
  98.7983428 103.1277652 120.0953977 100.8096466 103.2672957 119.4006500
 101.0956654 102.6526036 120.1492798 101.4950423 103.6578340 118.7699256
  96.9150466 105.1173504 117.0876138  96.7516116 105.4609632 115.9051371
  96.3312694 105.8519545 118.0379995  96.3688799 105.4674539 118.9711898
  95.5474211 107.0981166 117.8193699  94.6655816 106.8951018 117.2117160
  95.0803841 107.6544351 119.2111760  94.6530257 106.8172865 119.7631238
  95.9709522 108.0126693 119.7275640  94.0785354 108.7564416 119.1255613
  94.4071959 109.4761494 118.3758255  93.1165149 108.3380338 118.8296669
  93.9378393 109.4439814 120.4496061  92.9899438 109.9819364 120.4636611
  93.9382369 108.6890098 121.2358104  95.1117417 110.4499069 120.6922849
  95.1944476 110.5362644 121.7757067  95.9989818 109.9536143 120.2990956
  95.0007830 111.7646832 120.1130368  94.1789436 112.2248942 120.4775714
  95.8210726 112.3057261 120.3464837  94.9245651 111.6849075 119.1090817
  96.3430232 108.1008257 116.9958665  97.4926581 108.2165497 117.3773130
  95.7798761 108.8576582 116.0435935  94.8727680 108.5571715 115.7165432
  96.3616947 110.0517779 115.4580557  97.4493061 109.9875254 115.4908004
  96.0352217 110.1529362 114.4230283  95.9057625 111.3012853 116.2554245
  95.8266028 111.3017754 117.4704284  95.6506407 112.4196831 115.5824452
  95.8453848 112.7042587 114.1824039  95.0194041 112.2302214 113.6521731
  96.7822282 112.2262066 113.8962400  95.8785048 114.1880902 113.9861384
  94.9678149 114.5140490 113.4836508  96.7437570 114.4608676 113.3819593
  95.9822261 114.7700438 115.3613070  95.4965508 115.7247612 115.5631317
  97.0420237 114.8433586 115.6053429  95.3437800 113.6920294 116.1784757
  95.8531637 113.6780291 117.1420267  93.8709659 114.0697386 116.3848046
  93.5582067 114.8140443 117.3347960  92.9767809 113.6440550 115.4159643
  93.2784337 113.2683461 114.5283001  91.5328707 113.8771505 115.6234898
  91.3140124 114.0558770 116.6762277  91.1293738 115.1230248 114.8196954
  90.0549777 115.1514264 114.6381309  91.4091078 115.9503457 115.4719141
  91.8049327 115.3778840 113.4783319  92.7256822 116.3293158 113.2501392
  92.9360898 117.0086505 114.0761736  93.2050212 116.2312804 112.0032859
  94.0077040 116.7563364 111.6868746  92.5245154 115.3051000 111.2685527
  92.4957556 114.8616973 109.9265420  93.0896912 115.4819935 109.2552956
  91.7707727 113.7347242 109.5161975  91.7750334 113.3423479 108.4992793
  90.9984486 113.0871318 110.4917413  90.3700923 112.2331240 110.2388805
  91.0130949 113.5219363 111.8249841  90.4086059 112.9089150 112.4934890
  91.7264705 114.6783488 112.2627801  90.5844668 112.7117799 115.3384239
  90.9554102 111.7900376 114.5292260  89.4393194 112.7278040 115.9622207
  89.2647160 113.5218571 116.5614642  88.4064378 111.6260615 115.9138360
  88.8201429 110.6833403 116.2719200  87.2080425 112.0451795 116.8610412
  87.6428004 112.5562517 117.7200464  86.5859833 112.7428957 116.3003858
  86.3641218 110.8917121 117.3376206  86.0949921 110.3011727 116.4618733
  86.9813159 110.2903071 118.0050676  85.0622457 111.3349222 118.0884656
  84.4862432 111.8982249 117.3542925  84.5396303 110.4084116 118.3262698
  85.2271290 112.1928872 119.3944685  85.7154911 111.5927529 120.1622197
  85.8370928 113.0695906 119.1766741  83.9051182 112.6229627 119.8758195
  83.3399025 111.8107351 120.0780996  84.0153139 113.1739592 120.7150809
  83.4525988 113.1794329 119.1647174  87.9383863 111.3488326 114.4658909
  87.7526777 112.2698513 113.6466335  87.5507907 110.0978818 114.1803479
  87.9127581 109.3899283 114.8031486  86.8530590 109.6671265 112.9760966
  87.4019591 110.0083528 112.0983879  86.7259493 108.0329433 112.9122424
  86.2730636 107.7806442 111.9534207  87.7369605 107.6276906 112.9537935
  85.8690989 107.4186294 114.0721902  86.4440195 107.5588469 114.9875623
  84.9021266 107.9116933 114.1719630  85.6422717 105.9661398 113.8726273
  86.3908255 105.1093270 114.2253144  84.5793347 105.5669926 113.2047182
  84.4164053 104.5802409 113.0637340  83.9322129 106.2495589 112.8366993
  85.5458727 110.3807422 112.7181376  84.6969880 110.6358179 113.5567222
  85.2621269 110.6879499 111.4251485  85.9956535 110.4902791 110.7595928
  84.0593871 111.4374630 110.9518843  83.2892827 111.3587226 111.7192423
  84.3201037 112.9199231 110.6706019  84.7890576 113.3356229 111.5624400
  85.0204603 112.9674908 109.8367325  83.0740564 113.7234734 110.3321021
  83.2745144 114.6960402 109.8826233  82.6301981 113.0637650 109.5865325
  82.1118093 113.8922978 111.4953445  81.1752759 113.0764510 111.4842517
  82.3933385 114.6586752 112.4325244  83.3451628 110.7204419 109.7298592
  84.0263344 110.3336456 108.7817395  82.0691181 110.5537682 109.7501261
  81.6036091 110.8347075 110.6012864  81.2816257 109.9424175 108.7112117
  81.7317507 108.9991767 108.4017225  79.8622961 109.6607841 109.2385247
  79.8875712 109.0858996 110.1642505  79.4424780 110.6472411 109.4353886
  78.9881364 108.9589010 108.2687960  78.1072030 109.5335012 107.6189898
  79.2229106 107.6750672 108.0298838  78.6426279 107.1723206 107.3736691
  79.9808288 107.2064425 108.5053327  81.2512579 110.7988919 107.4708209
  81.0322988 112.0330961 107.5390556  81.5218210 110.2104014 106.3350148
  81.8417622 109.2536483 106.3835984  81.5126117 110.8820370 105.0137234
  81.1308534 111.9015777 105.0675423  82.9947504 110.9249193 104.4512122
  82.9367629 111.3907015 103.4674522  83.9969397 111.6739491 105.3060513
  84.0558232 111.2084347 106.2898856  84.9770499 111.6417494 104.8301861
  83.6798679 112.7112261 105.4138641  83.6252622 109.5590515 104.2151590
  83.0295764 109.0036124 103.4907641  84.6372198 109.6869555 103.8308650
  83.6609474 109.0075103 105.1546427  80.5257734 110.2486369 104.0401699
  79.9920642 109.1288892 104.3036839  80.2649511 110.9479983 102.8668927
  80.7267106 111.8318657 102.7067178  79.3386920 110.4612499 101.8573051
  78.3043742 110.5850960 102.1781605  79.5616817 111.2960278 100.5787938
  79.4513323 112.3403980 100.8707067  80.5902361 111.1129378 100.2679013
  78.5841380 110.9788930  99.3776465  78.7709275 109.9783407  98.9876392
  77.5609050 111.0385625  99.7485008  78.7825318 112.0070969  98.2604064
  78.8262438 111.5155507  97.1215361  78.8598002 113.2314277  98.5167204
  79.6321595 108.9545780 101.6084304  80.8105625 108.4601628 101.6254931
  78.5737773 108.1389408 101.3610119  77.6448803 108.5296590 101.2932697
  78.7280213 106.6998499 101.2226388  79.1553536 106.2392011 102.1133066
  77.2360243 106.1964733 101.0590449  76.7975044 106.6421142 100.1661818
  77.2266662 105.1106132 100.9645955  76.6551675 106.4896138 101.9335580
  79.6303866 106.2659850 100.0153765  79.9763738 105.1370553  99.9325427
  79.9426128 107.1834178  99.1035285  79.6270989 108.1249804  99.2879473
  80.7108548 106.9411917  97.9048431  80.9227782 105.8773695  97.7977450
  79.9328469 107.3900237  96.7262594  79.8326851 108.4691159  96.8429941
  80.5666567 107.1754528  95.8658266  78.5437150 106.7672736  96.5073053
  78.1219647 107.1272370  97.4457369  77.9693283 107.1702636  95.6731721
  78.4838443 105.2089876  96.4746366  79.4804448 104.6254326  96.0186476
  77.3426096 104.7139375  96.6626539  82.0360740 107.6428032  97.7575704
  82.7040201 107.4133711  96.7545455  82.3659218 108.4612370  98.7461256
  81.6490461 108.6316098  99.4368945  83.6669108 109.2221317  98.8608594
  83.7197794 109.9730980  98.0725995  83.6770334 109.9343054 100.2167927
  83.6337270 109.1948883 101.0164719  84.5912165 110.5200100 100.3133318
  82.8133709 110.5955682 100.2869199  84.8577082 108.3166109  98.6566452
  84.9816691 107.1528102  99.0748925  85.8603150 108.8435015  97.9391692
  85.8643454 109.8213913  97.6865536  87.0048258 107.9656287  97.4476048
  87.0247721 107.0536436  98.0442491  86.8676787 107.5794904  95.9627270
  86.9076607 108.4957386  95.3736684  87.7140955 106.9438054  95.7027594
  85.6512831 106.8883978  95.6844310  85.6134986 106.6706590  94.7502137
  88.3979137 108.6080143  97.6124220  89.3853151 107.9572660  97.2223074
  88.5631565 109.8164423  98.0421073  87.7643821 110.3508761  98.3526542
  89.9030875 110.4575688  98.0935633  90.6401306 109.6804571  98.2959591
  90.3000433 111.1855656  96.8022606  89.5267294 111.9348246  96.6328620
  91.2455611 111.6826459  97.0190720  90.4525791 110.3313182  95.5656138
  91.3385327 109.7149657  95.7182462  89.5706132 109.6927831  95.5155023
  90.6206548 111.2428492  94.0002708  88.8610448 111.4921996  93.8030118
  88.4756874 112.0547408  94.6533918  88.6730864 112.0485675  92.8847379
  88.3602030 110.5255042  93.7504887  90.0170006 111.5335767  99.2284395
  89.0172681 112.1496021  99.5099296  91.2115230 111.7690872  99.7606086
  91.9234674 111.2483639  99.2685906  91.5920520 112.4903539 100.9567596
  90.9652944 113.3768580 101.0536329  91.4078062 111.6089794 102.2282947
  90.3505110 111.3588972 102.3159592  92.2186213 110.3435986 102.1680257
  93.2761413 110.5928914 102.0808159  92.0562678 109.7638051 103.0766408
  91.9118878 109.7557746 101.3028789  91.8928178 112.4994319 103.3965789
  91.2867985 113.4043847 103.4402030  91.7968167 111.9529094 104.3347669
  92.9370725 112.7693248 103.2391284  92.9665789 113.0801457 100.8004251
  93.8366341 112.5869161 100.1396396  93.1592703 114.3366179 101.2254918
  92.3567679 114.6514067 101.7517970  94.2084713 115.2972506 100.9286364
  95.1830810 114.8422416 100.7519960  93.8043365 116.1575953  99.6907459
  92.8116847 116.5806852  99.8448170  94.7982522 117.2655837  99.5214321
  95.7911407 116.8432393  99.3668414  94.5235552 117.8720623  98.6583990
  94.8042740 117.8887791 100.4156862  93.6229399 115.3745980  98.3794361
  94.0243928 115.9864271  97.5715986  94.2030329 114.4553994  98.4610801
  92.1846691 115.0359133  98.0853275  91.6039984 115.9546931  98.0030771
  92.1253219 114.4839986  97.1472618  91.7826377 114.4236670  98.8925604
  94.5176947 116.0568580 102.2715405  93.5705752 116.5814947 102.8356788
  95.7468938 115.9911871 102.7683794  96.4172299 115.5122534 102.1841094
  96.1936527 116.4797837 104.0969248  95.3848063 116.5108733 104.8269249
  97.2392944 115.5656198 104.5910530  98.0603388 115.5309375 103.8749641
  97.6105232 115.9227255 105.5516596  96.8212599 114.5663104 104.7124081
  96.6595759 117.9135024 103.9368674  97.5572157 118.2334357 103.1693153
  95.9229783 118.8313426 104.5743307  95.1108568 118.5086057 105.0806892
  96.1657470 120.2696367 104.4992623  96.5307916 120.5020507 103.4988497
  94.8815926 121.0634092 104.7477798  94.5603768 120.8638627 105.7700815
  95.0596635 122.5220886 104.5624044  95.3804518 122.7224697 103.5401308
  94.1147238 123.0310599 104.7525035  95.8150489 122.8877252 105.2579649
  93.8024849 120.6695252 103.7945081  93.5808922 119.6089738 103.9137951
  92.9049598 121.2530201 103.9996473  94.1325303 120.8585599 102.7730206
  97.2804227 120.8247330 105.4362085  97.2055716 120.5675366 106.6683032
  98.2455758 121.6554886 104.9783039  98.5195968 122.1440146 103.6013577
  97.9359543 123.0515395 103.4468905  98.1880817 121.3760873 102.9024411
  99.9939137 122.3885956 103.5231288 100.2247034 123.1062963 102.7358925
 100.5294556 121.4582038 103.3342712 100.3337606 122.9386518 104.8876541
 100.2490477 124.0188432 105.0064369 101.3474429 122.6246654 105.1365724
  99.2814346 122.2006597 105.8465596  99.8250609 121.3480031 106.2534322
  98.7789837 123.0773304 106.9926213  97.8161840 123.8255954 106.8363447
  99.5083990 123.0807819 108.1469070 100.2784828 122.4276969 108.1703658
  99.3746913 124.0731325 109.2811135  98.4013128 124.0178227 109.7685294
 100.5067181 123.6518168 110.3441532 101.4533226 123.8247315 109.8321574
 100.4026418 124.3623981 111.1641180 100.4802439 122.2240098 110.8996263
 100.3414361 121.5619240 110.0449477 101.4159635 121.9774551 111.4013621
  99.3067889 122.0449167 111.8840795  98.5019327 121.0676978 111.9042463
  99.0640673 122.9558262 112.7244676  99.8138794 125.5524443 108.8462244
 100.7108879 125.6266859 108.0058423  99.1999882 126.6104435 109.4897376
  99.6515161 127.9456242 109.0548619  99.7318598 127.9575740 107.9678926
 100.6280955 128.1513188 109.4931330  98.5667807 128.8934890 109.5748876
  97.7819372 129.0232572 108.8297165  98.9944134 129.8645813 109.8243095
  98.0303625 128.1823155 110.8443681  96.9778348 128.4075673 111.0162574
  98.6142933 128.4944133 111.7102316  98.2060820 126.7063881 110.6117460
  98.6772853 126.3111418 111.5116605  96.9575094 125.9516240 110.3353430
  96.4018401 125.4026375 111.2880054  96.3801480 125.8700975 109.1554277
  96.8209998 126.2520391 108.3308856  95.0525414 125.2529205 109.0138854
  94.3714736 125.7899835 109.6740439  94.4646283 125.2680304 107.5748444
  95.4177260 124.9504869 107.1519140  93.6901495 124.5507891 107.3030951
  94.0990645 126.5887442 106.8892242  93.7212847 127.6860053 107.6274048
  93.7931461 127.6405692 108.7140839  93.2490229 128.8518197 107.0031176
  92.9808536 129.7370753 107.5797529  93.1204689 128.8613248 105.5492474
  92.8774321 129.7665059 104.9927582  93.3161018 127.6826680 104.8852708
  93.1112263 127.6893263 103.8147187  93.7567576 126.5016868 105.5097272
  93.8234797 125.5755477 104.9388379  94.8824069 123.6899777 109.4563895
  94.1689229 123.4259445 110.4087356  95.7195797 122.7926101 108.8679108
  96.3776788 123.0449858 108.1445082  95.6670162 121.4076764 109.2973076
  96.4948085 120.8664981 108.8390662  95.7668612 121.3725591 110.3821565
  94.3270888 120.7250475 108.8890722  93.4878702 121.1749078 108.1182337
  94.3080285 119.4682375 109.3310725  95.0094906 119.1166707 109.9670373
  93.2415168 118.5510820 108.8906334  93.2504746 117.7203200 109.5962208
  92.3084300 119.1049260 108.9940987  93.3382858 117.9854328 107.4384985
  94.4569920 117.9225617 106.9020643  92.2185034 117.5848876 106.8423644
  91.3507526 117.7050549 107.3450250  92.1678857 117.0199251 105.5150321
  93.0298570 117.3594659 104.9407354  92.1847664 115.4870272 105.5643064
  91.3224971 115.1316053 106.1284581  92.1435083 115.0899108 104.5500596
  93.1003062 115.1486443 106.0494693  90.8427885 117.4225681 104.7571369
  89.7535459 117.3700907 105.3039455  91.0331186 117.7463054 103.4957350
  91.9965446 117.9110800 103.2412569  90.0404251 117.7883878 102.4622643
  89.1884250 118.3804492 102.7964175  90.6786714 118.4589849 101.2043858
  91.5789678 117.9156675 100.9173788  89.6419795 118.4252469 100.0138533
  88.7415381 118.9687978 100.2999625  90.0834966 118.8924457  99.1335757
  89.3842438 117.3911751  99.7850149  91.0021565 119.8997635 101.5774800
  90.0586994 120.4397768 101.6573248  91.4957796 119.8861667 102.5492057
  91.8957503 120.5911492 100.5667966  91.4025655 120.6055461  99.5948598
  92.0884815 121.6138035 100.8910374  92.8396454 120.0519343 100.4867391
  89.7464845 116.3439866 102.1118858  90.5971257 115.4904444 102.0695014
  88.4727806 116.0688694 101.9148130  87.8407621 116.7740091 102.2661390
  87.8987457 114.7952206 101.4173025  88.5370856 114.1800301 100.7831401
  87.2753669 113.9148803 102.5318849  86.3455447 114.3699878 102.8730716
  86.9909310 112.5311930 101.9937552  87.9204138 112.0752355 101.6527784
  86.5532231 111.9174766 102.7810700  86.2937682 112.6017141 101.1588361
  87.9806614 113.9291974 103.9606958  88.2038614 112.8994251 104.2397147
  88.9104611 114.4915342 103.8749673  87.1012087 114.5638299 105.0271449
  86.1713528 114.0017246 105.1137790  87.6231880 114.5513719 105.9839529
  86.8779505 115.5938337 104.7490301  86.9257075 115.0419932 100.2107695
  86.3610602 116.0941049 100.0981839  86.7432504 114.1153575  99.2952234
  87.1206427 113.2012890  99.5005357  86.0998930 114.3382649  97.9463773
  85.5629261 115.2860759  97.9086937  87.1080175 114.2853047  96.8203470
  87.8224827 113.5020989  97.0737806  86.5026813 113.9996845  95.4179925
  85.7884120 114.7827737  95.1636480  87.2997265 113.9802615  94.6747277
  85.9946805 113.0353828  95.4305054  87.9473677 115.6757434  96.8087555
  87.2067564 116.4314570  96.5470448  88.2526313 115.8109375  97.8463663
  89.1851551 115.8217043  95.8821176  88.8805754 115.6870871  94.8442306
  89.6183897 116.8140425  96.0073050  89.9264498 115.0665655  96.1435509
  84.9888960 113.2459210  97.8662493  85.2968642 112.0626716  97.8573947
  83.7387431 113.6794421  97.6759675  83.6423212 114.6848266  97.6739333
  82.5356872 112.8653688  97.4768410  82.6206635 111.9614246  98.0799688
  81.6673132 113.4382667  97.8021315  82.3548702 112.4793821  96.0455721
  83.2484809 112.1697192  95.2347152  81.0537047 112.3011695  95.6876132
  80.2958773 112.2178910  96.3500795  80.7189369 112.2544114  94.1868886
  81.5376052 112.6360713  93.5767927  80.4988408 110.7872762  93.8431550
  81.4518778 110.2739121  93.9707368  79.7742893 110.3890522  94.5534668
  79.9781338 110.5633262  92.3883726  79.6373268 109.5515838  92.1685352
  79.1348081 111.2513025  92.3284348  81.0206603 110.9707632  91.3337212
  81.9747884 110.2737226  90.9747019  80.8279371 112.0857378  90.6326582
  81.5049900 112.3645937  89.9370000  80.0055344 112.6477801  90.7995822
  79.4295349 113.0579910  93.9381071  79.3071572 113.5184734  92.8218555
  78.6884752 113.3785512  94.9842839  78.7798500 112.8799920  95.8578906
  77.7848746 114.5437839  94.9351352  77.5767930 114.8657289  93.9147663
  76.4691714 114.0586223  95.5767802  76.7248375 113.7959737  96.6033034
  75.8082914 114.9254189  95.5779101  75.7862852 112.9215148  94.9346812
  75.5494694 113.2242573  93.9146978  76.4329383 112.0443487  94.9119108
  74.5022438 112.5846212  95.6736458  74.2962420 111.3978285  96.0770268
  73.6465336 113.4316780  95.8485943  78.2600205 115.7182770  95.7911414
  77.5017640 116.6924274  95.9349296  79.4259682 115.7389917  96.3889097
  80.0243352 114.9501702  96.1893682  79.8511160 116.7067294  97.4751188
  79.6902152 117.7290702  97.1330231  79.0126048 116.4789509  98.8132884
  79.0552016 117.3705716  99.4388260  77.9737130 116.2548591  98.5712417
  79.5842229 115.3789314  99.5153596  79.0922859 115.2258803 100.3254048
  81.3785350 116.7656293  97.7170441  82.1547061 115.9433499  97.2221258
  81.8018166 117.8228925  98.4652669  81.1539997 118.5918973  98.5604732
  83.1751811 118.0039131  98.9563101  83.6892277 117.0582409  99.1282383
  84.1172547 118.9764584  98.0611949  83.5443235 119.8825825  97.8642446
  85.5015875 119.3627576  98.7478561  86.0753173 118.4571166  98.9447041
  86.0685135 120.0139773  98.0825678  85.3096025 119.8819047  99.6868594
  84.3671840 118.4996729  96.6123996  84.7963711 117.5028432  96.7135421
  83.3759739 118.4242639  96.1652805  85.2659177 119.3525367  95.7173683
  86.2575067 119.4280205  96.1636343  85.3449689 118.8892239  94.7339094
  84.8371102 120.3494425  95.6153746  83.1828135 118.3817944 100.4490476
  82.2889592 119.1217989 100.9300923  84.1748674 117.8553177 101.1636253
  84.9055816 117.3091866 100.7301545  84.1803528 117.9893380 102.6240960
  83.4577443 118.7931898 102.7646605  83.6489303 116.7228770 103.3197789
  84.2667460 115.9032367 102.9529085  83.6563763 116.7212475 104.8901600
  83.0383530 117.5403883 105.2577944  83.2582579 115.7743838 105.2549200
  84.6776945 116.8478400 105.2493034  82.2530686 116.8019042 103.0182402
  81.7988776 116.0502906 103.4060388  85.5520409 118.3235562 103.1301286
  86.4971830 117.8139950 102.5846134  85.6596397 119.0597002 104.1927364
  84.8570413 119.5914294 104.4980221  86.8758414 119.1712645 104.9455690
  87.6336741 118.4933399 104.5528769  87.4039619 120.6237101 104.8318344
  87.8866190 120.5427273 103.8578820  86.5690150 121.3213082 104.7661034
  88.3935530 121.1234431 105.8390853  89.7544763 121.0037011 105.6157748
  90.1020483 120.5000983 104.7137341  90.7193203 121.5410172 106.5689787
  91.7676974 121.6345191 106.2856683  90.2836023 122.0133884 107.8227559
  91.1673049 122.4198714 108.7885210  92.0840393 122.3449922 108.5135833
  88.8234387 121.9804311 108.1137665  88.4489476 122.2707667 109.0953785
  87.9126958 121.5651133 107.0969742  86.8392539 121.5862206 107.2850619
  86.6203287 118.8063201 106.4367037  85.6290180 119.2274974 106.9721314
  87.6785572 118.2209156 107.0848703  88.4970272 118.0245274 106.5266249
  87.6819908 117.7962464 108.5370977  87.0248517 118.4282069 109.1345032
  87.1600581 116.3410233 108.6002556  86.1427328 116.3177470 108.2096066
  87.7871633 115.6643258 108.0198078  87.0983847 115.7804765 109.9957085
  86.3384948 116.4030758 111.0822311  86.6518630 115.6003331 112.1183360
  86.2106843 115.8694267 113.0780489  87.4613309 114.6002985 111.7794929
  87.8577164 113.9076486 112.3985361  87.6814718 114.6625387 110.3946503
  88.2395477 113.8704653 109.8953786  89.0380450 117.9003659 109.2323553
  90.0594384 117.7426514 108.6182425  89.0202547 118.2265797 110.5646275
  88.0925764 118.2963197 110.9578815  90.1533085 118.6459467 111.3849727
  91.0172189 117.9903867 111.2754313  90.5322129 120.0761193 110.8341300
  90.6012742 120.0339592 109.7471377  89.7677865 120.7980893 111.1213786
  91.8843655 120.5436932 111.3942334  92.7080267 119.7937751 111.8952864
  92.0901319 121.8178046 111.3036452  92.9539412 122.2124435 111.6474380
  91.3859821 122.4117814 110.8895613  89.7987441 118.4723264 112.8770106
  90.2174806 119.2847289 113.7055864  88.9042074 117.5671318 113.2337958
  88.4924656 117.0184824 112.4924781  88.4730106 117.3071656 114.6156572
  88.3186664 116.2297011 114.6735120  89.3206969 117.5863717 115.2414137
  87.2514518 117.9998136 115.1163505  86.1086774 117.7599318 114.6152302
  87.4426613 119.0224191 115.9738777  88.3315980 119.0751829 116.4504351
  86.3779071 119.9301479 116.3921788  85.4145283 119.4560641 116.2044425
  86.4694803 120.2850497 117.8937986  87.0702024 121.1679872 118.1120956
  85.4168593 120.5112827 118.0638211  86.8912298 119.1570303 118.7944282
  86.0082438 118.3590713 119.1837110  88.1098396 118.9191202 118.9719670
  86.2770537 121.1452657 115.4752517  85.8887408 122.2157445 115.9053693
  86.4377040 120.8916453 114.1503418  86.8582497 119.9910466 113.9710026
  86.2591799 121.7914805 113.0460376  85.2339427 122.1541150 113.1200931
  87.1778306 122.9709600 112.9386043  87.0181220 123.4289327 111.9624621
  86.9030760 123.6786910 113.7207339  88.6574436 122.5913063 113.0893468
  88.7359085 121.6239574 112.5931813  89.1862033 123.3433684 112.5037548
  89.3038870 122.4973125 114.5371918  88.9793851 123.3849669 115.0802086
  88.8822216 121.6094316 115.0083237  90.8888208 122.4093935 114.5664830
  91.2204408 122.1194640 115.5635134  91.2272565 121.6687594 113.8418992
  91.4488316 123.7098695 114.2282461  91.1356974 124.3962180 114.8997909
  92.4572940 123.6570841 114.2460561  91.1420122 123.9785166 113.3042388
  86.1955710 121.0329841 111.7252530  86.9633105 120.0817772 111.4969386
  85.2619525 121.3905682 110.8826456  84.8970275 122.3229218 111.0154833
  84.7681643 120.6221975 109.7923936  85.5887610 120.3037671 109.1494921
  84.0313289 119.3312893 110.3517062  84.8760157 118.6919859 110.6084057
  83.4477223 119.5389091 111.2485882  83.1476299 118.6202510 109.3207713
  81.9499577 119.2039401 108.8542680  81.6611280 120.1527040 109.3065113
  81.1384041 118.6216090 107.8547099  80.3474935 119.2095611 107.3890120
  81.4253157 117.2989920 107.3771568  80.6140859 116.7160094 106.5333982
  79.8593422 117.2617206 106.3006734  82.5210266 116.6364088 107.9254808
  82.7037424 115.6092392 107.6098262  83.4018433 117.2655940 108.8822216
  84.2595581 116.7193705 109.2747333  83.7446305 121.5370560 109.0989020
  83.0632841 122.3170892 109.6605327  83.7469787 121.4921334 107.7916444
  84.4253248 120.8214180 107.4598512  83.0011940 122.3097057 106.7789713
  82.0411945 122.5932562 107.2103636  83.7481262 123.5948990 106.3464435
  84.6143404 123.2936579 105.7573543  83.0082812 124.0575958 105.6932659
  84.1821836 124.5969296 107.4131946  83.4352157 124.5545170 108.2058742
  85.5892677 124.3417330 108.0148473  86.3368719 124.3844518 107.2227856
  85.8089387 125.1037952 108.7625816  85.6119720 123.3574025 108.4824780
  84.3100247 125.9363160 106.7852538  83.3490268 126.2350895 106.3665451
  84.6198417 126.6624482 107.5368166  85.0551880 125.8960648 105.9907662
  82.6662308 121.4491303 105.5844987  83.4607827 120.6221296 105.2157426
  81.5173481 121.6535453 104.9563268  80.7856759 122.2226522 105.3574158
  81.2769914 121.0316976 103.6605888  82.2263056 121.0646403 103.1259707
  80.8991658 119.5297663 103.9202295  79.9461499 119.4801327 104.4469147
  80.8152134 119.0058654 102.9680845  81.6735045 119.0593007 104.5261675
  80.1589898 121.6277860 102.7514412  79.3522208 122.4546293 103.1998951
  80.2504860 121.2969009 101.4351261  80.9359158 120.5765662 101.2579165
  79.5734148 121.9295499 100.2690782  78.5822055 122.3384272 100.4650951
  80.5079423 123.0724291  99.6336521  79.8931211 123.6966680  98.9852531
  81.1584364 123.9455771 100.7179062  81.7738293 123.3220661 101.3664632
  81.7819612 124.7057458 100.2473096  80.3816099 124.4291751 101.3101668
  81.5066875 122.4724807  98.6405535  81.9952852 121.6257579  99.1226673
  80.9500150 122.1231735  97.7709561  82.5147813 123.4384351  98.2164627
  83.0722104 123.7878713  99.0855237  83.1993104 122.9647428  97.5128046
  82.0269395 124.2852885  97.7338142  79.1640147 120.8156437  99.2763398
  79.9102386 119.9249420  98.9868274  78.0239442 121.0859947  98.6987720
  77.4051284 121.7297540  99.1707258  77.5009782 120.3406978  97.5125342
  78.3472630 119.9901903  96.9217332  76.7732394 119.1330917  98.0832931
  75.9177404 119.4676631  98.6700497  76.4277235 118.4976188  97.2678832
  77.4520168 118.5673964  98.7215324  76.7546826 121.2515146  96.5535192
  75.5863056 121.0756875  96.2138502  77.3056391 122.3475529  96.0625203
  78.7674870 122.6685246  96.1410173  79.2720837 121.7163148  95.9773747
  78.9283912 122.9923943  97.1692766  79.1687097 123.7084161  95.1471662
  79.5082330 123.2977930  94.1962657  79.9120020 124.4102499  95.5253821
  77.7880231 124.3891979  95.0072141  77.7696541 124.8612404  94.0249017
  77.5806564 125.1367364  95.7729065  76.6868362 123.2171003  95.0716236
  75.6984762 123.4920713  95.4399085  76.5516795 122.5482329  93.6920040
  77.5059560 121.9494719  93.2814183  75.4665255 122.6441822  92.9404472
  74.2787536 123.4385292  93.2242933  74.6133067 124.3921686  93.6326390
  73.7003455 122.9040681  93.9778809  73.5108334 123.5993350  91.9001962
  73.9153896 124.4234208  91.3125604  72.4501732 123.7709473  92.0836369
  73.7335390 122.2593019  91.2071894  73.6567299 122.2464396  90.1199756
  73.0479451 121.5238304  91.6280723  75.2004942 121.9308699  91.6405803
  75.1264663 120.8637195  91.8498846  76.3262855 122.1769985  90.5867052
  76.5413888 121.2841406  89.7160456  77.1647796 123.1947231  90.7173124
  77.0699789 123.8760880  91.4568082  78.2314211 123.3737966  89.7491338
  77.8201045 123.3739821  88.7397192  79.0557077 124.6804527  89.9751124
  78.3660219 125.5239268  90.0065029  79.8648367 124.6202126  91.3093261
  80.5551167 123.7772040  91.2784941  80.4273046 125.5452675  91.4358336
  79.1776847 124.4960561  92.1462888  80.0311399 124.9545526  88.7674492
  80.6552883 125.8140998  89.0118222  80.6619663 124.0774508  88.6230537
  79.2650974 125.2346803  87.5029488  78.6343480 126.1119870  87.6464339
  79.9642256 125.4199212  86.6874705  78.6410239 124.3753382  87.2576666
  79.2291995 122.1746888  89.7557498  79.7936845 121.9451587  88.7203399
  79.3390251 121.4564112  90.8444860  78.8543801 121.6976212  91.6971503
  80.1625548 120.2065333  90.8255329  80.8279248 120.0643885  89.9739598
  80.9463309 120.0340449  92.1138934  81.3652474 119.0287559  92.1586522
  82.1297852 121.1054320  92.1481219  81.7115955 122.1110457  92.1038613
  82.6990025 120.9894761  93.0704270  82.7877769 120.9481855  91.2934760
  80.1511808 119.9513625  93.4350058  79.7775107 120.9510208  93.6567140
  79.3100968 119.2778118  93.2706687  80.9503517 119.4677597  94.5634384
  81.7914219 120.1411043  94.7286888  80.3311205 119.4339260  95.4598241
  81.3240100 118.4678956  94.3426423  79.2501727 118.9514998  90.7095557
  79.7444940 117.8836589  90.5071050  77.9036742 119.0216279  90.7934947
  77.4794767 119.8672303  91.1472071  77.0255029 117.8683051  90.4936220
  77.4872207 116.9536967  90.8656535  75.6474900 118.0305926  91.1612103
  75.3244025 119.0677272  91.0714028  74.9276231 117.3818237  90.6622205
  75.7378303 117.6432240  92.6696327  75.7408497 116.5566953  92.7565071
  76.6639366 118.0428106  93.0828635  74.5762656 118.1990433  93.4240653
  74.4403141 119.2638888  93.2350675  73.6515773 117.6690613  93.1956572
  74.9361709 117.9847247  94.8939989  75.3934057 117.0034630  95.0211303
  75.6357156 118.7555913  95.2172650  73.7044350 118.0637894  95.7094081
  73.0562593 117.3492912  95.4103091  73.9352912 117.9229325  96.6825292
  73.2808251 118.9731232  95.5920804  76.9093191 117.6543934  88.9714810
  76.0008225 118.0911280  88.2794097  77.7866858 116.8272695  88.4050997
  78.3103116 116.2305107  89.0294348  78.0177427 116.6874944  86.9202237
  77.2425894 116.0524583  86.4913115  77.9769534 118.0667754  86.2115290
  78.2201833 117.8214713  85.1777184  76.9264744 118.3494930  86.2798277
  78.8779723 119.2708325  86.6923244  78.7823170 119.5924021  87.7294087
  79.8926381 118.9142262  86.5151595  78.6182060 120.4620154  85.7894978
  77.6727047 120.5122893  85.0740645  79.4447154 121.4953821  86.0232829
  79.3583303 122.3406951  85.4773113  80.1485763 121.4220884  86.7439140
  79.4518240 116.0873112  86.6819089  80.4364228 116.5964002  87.2523400
  79.5745620 115.1105622  85.7718926  78.7359893 114.9952620  85.2208925
  80.7154325 114.1278396  85.5623694  80.3833253 113.1790747  85.1408850
  81.6584919 114.8424050  84.5160510  81.0966168 114.9786541  83.5920208
  81.9347806 115.8165014  84.9196609  82.8161683 114.1015087  84.2527543
  83.3581717 114.5708724  83.6143736  81.2817251 113.8076386  86.9801282
  80.4963099 113.4437672  87.8456399  82.5898736 113.8579352  87.1289491
  83.1178653 114.0608698  86.2922044  83.3059650 113.5099700  88.3128458
  82.7819149 113.9792306  89.1454712  83.2622785 112.0097955  88.4982370
  82.2488273 111.6443300  88.3325505  84.2135491 111.3615216  87.4789695
  85.2273438 111.7261752  87.6443411  84.1932810 110.2784562  87.6000384
  83.8953543 111.6197095  86.4689241  83.7623767 111.7234523  89.7526864
  83.7451660 110.7742159  89.8950041  84.7014688 114.1152105  88.2883685
  85.3833517 114.2381908  87.2526289  85.1879893 114.4049739  89.4929892
  84.5108806 114.3630271  90.2412294  86.6106611 114.7741320  89.8353579
  86.9804982 115.4649271  89.0776496  86.7915073 115.3928010  91.2191719
  86.3938444 114.6833742  91.9448980  88.2773110 115.7241755  91.5750962
  88.6755454 116.4339536  90.8500272  88.3238534 116.1602643  92.5729745
  88.8699340 114.8096775  91.5507945  85.9314923 116.6898042  91.2711708
  86.4882185 117.5139716  90.8251834  85.0057661 116.5353325  90.7168523
  85.5960098 117.0330711  92.7610813  86.5212968 117.1881471  93.3159645
  84.9939437 117.9409296  92.7986141  85.0388460 116.2095064  93.2076341
  87.4594627 113.4755166  89.7841714  87.1600052 112.5333062  90.5646116
  88.5237382 113.3608565  88.9709896  88.7123211 114.1628290  88.3867157
  89.3866071 112.1767854  88.8304516  89.0962445 111.3332037  89.4566773
  89.4507585 111.7088291  87.3829201  90.3383799 111.0856116  87.2741660
  88.2077443 110.9091583  86.9562723  87.3197125 111.5319153  87.0643193
  88.3117042 110.6029694  85.9153395  88.1098339 110.0251824  87.5864325
  89.7195934 112.8853021  86.4083556  90.6710640 113.3546863  86.6583242
  89.7580251 112.5093342  85.3859707  88.9188689 113.6197663  86.4949787
  90.8684106 112.4489978  89.3534801  91.6147066 111.5000225  89.5869029
  91.3056601 113.6930412  89.6189038  90.6885771 114.4505056  89.3628654
  92.6931908 114.0318249  90.0892549  92.9767819 113.3974055  90.9290092
  93.7218343 113.7888035  88.8975988  94.7697205 113.8878765  89.1808270
  93.5775898 112.8496332  88.3635084  93.4027850 115.0930541  87.7061631
  94.3316076 114.7139465  86.8329710  92.7737625 115.4473164  90.7458621
  91.7689255 116.1747916  90.6844836  93.8481115 115.8428794  91.4570831
  94.6384599 115.2157363  91.4108198  93.9508898 117.0330534  92.3177219
  93.4557788 117.8869484  91.8553069  93.2600121 116.7314034  93.6600577
  93.3519486 117.5378526  94.3875785  92.2054283 116.5137076  93.4910558
  93.8461416 115.5254182  94.2881445  94.9535197 115.4785017  95.1052519
  95.0351648 114.1879082  95.4792955  95.7972668 113.9223712  96.2119548
  94.1080095 113.4266315  94.8418752  94.0137259 112.4251035  94.9321641
  93.3366008 114.2032211  94.0748743  92.5378269 113.7602643  93.4800209
  95.4290296 117.4482845  92.5176387  96.4043906 116.7178717  92.5306898
  95.5550719 118.7624509  92.7921089  94.7083314 119.2851110  92.9651878
  96.8232528 119.4717478  92.8329015  97.6179667 118.8465966  93.2399825
  97.1610173 119.8182616  91.4606783  97.4031805 118.8643614  90.9921374
  96.2972570 120.2583412  90.9623328  98.3265913 120.7395124  91.2985389
  98.3773453 121.7344391  90.6660060  99.3941491 120.3390099  91.8712587
 100.2337051 120.8976795  91.8152772  99.3945125 119.4652380  92.3778389
  96.8382498 120.7368986  93.6683623  95.9424573 121.5208946  93.4456001
  97.7624769 120.9163579  94.6198782  98.4096471 120.1540648  94.7619317
  97.8968761 122.0879705  95.4443980  96.9258833 122.4412361  95.7914938
  98.7464392 121.6951614  96.6718415  98.3977108 120.7320151  97.0444498
  99.7881366 121.6090102  96.3627386  98.6277728 122.7517131  97.7890195
  99.2062187 123.6345017  97.5166492  97.5813681 123.0288358  97.9168568
  99.1633370 122.1769470  99.0935822  98.9844330 122.8672968  99.9179059
  98.6902550 121.2197433  99.3127941 100.6298790 121.9643001  98.9595935
 101.0536095 122.3478756  98.1268740 101.4310478 121.4965058  99.9278821
 100.9881038 120.6994636 100.8425527 100.0183419 120.4172994 100.8358156
 101.6135754 120.3621085 101.5602410 102.7042990 121.7221774  99.7510379
 103.0167019 122.2177635  98.9282993 103.3712625 121.4001734 100.4377488
  98.5851865 123.1980139  94.6318874  99.5714765 122.9348708  93.9911934
  98.0964625 124.4232651  94.8066854  97.2402872 124.5220137  95.3332895
  98.6811815 125.6305487  94.1876022  99.5097358 125.4897682  93.4934999
  97.6147237 126.4942420  93.5078819  96.9588116 126.8740926  94.2912031
  98.1896213 127.6760576  92.7014784  98.8453188 127.2969449  91.9176191
  97.3732486 128.2400568  92.2503233  98.7572821 128.3278054  93.3656226
  96.5472715 125.8498625  92.7033723  95.9751610 125.1706394  93.3353910
  95.8841175 126.6148301  92.2994527  96.9973151 125.2901062  91.8834732
  99.4619182 126.4369838  95.1572819 100.4564658 126.9620928  94.6364397
  99.0758274 126.5302887  96.4422979  98.2534710 126.0022406  96.6972384
  99.6426518 127.4107702  97.4128216 100.5327964 127.8538738  96.9662781
  98.6976008 128.5717702  97.9118563  97.7372138 128.1400350  97.6301457
  98.7303063 128.7098309  98.9925827  98.8694253 129.9158256  97.2245044
  97.9409290 130.7447714  97.3866786  99.7464165 130.2344845  96.3922143
 100.2087173 126.5807693  98.5986666  99.4224285 125.9061493  99.2650688
 101.5155931 126.6494017  98.9300065 102.5763027 127.5246568  98.2951760
 102.5625126 128.5099836  98.7610526 102.3756667 127.6248345  97.2284949
 103.8306454 126.7842398  98.5669646 104.6951838 127.4480411  98.5606189
 103.9839688 125.9818862  97.8452846 103.5857011 126.2523711  99.8825842
 103.8600596 126.9571265 100.6675340 104.2109563 125.3628039  99.9589116
 102.1011464 125.8649095 100.0221756 101.9453221 124.8264513  99.7299056
 101.5785384 126.0778788 101.4500814 101.8784229 125.2654028 102.3041576
 100.7282743 127.0744648 101.7433528 100.7033569 127.9098624 101.1762643
  99.8772981 127.0229948 102.9577729 100.3461140 126.4974170 103.7896857
  99.7095977 128.5685270 103.3567226  99.3042693 128.7917985 104.3436157
 100.7729824 128.8072520 103.3387387  99.0071167 129.4281121 102.3432045
  98.1209178 128.9783012 101.6668793  99.1790489 130.7488441 102.3987935
  98.7158863 131.3440349 101.7269839  99.7716904 131.1482766 103.1124675
  98.5247682 126.2911083 102.8428119  97.9476085 126.0517366 103.8879884
  98.1373644 125.7095389 101.6849681  98.6876528 125.7592863 100.8395054
  96.8992841 124.9928700 101.6474326  97.0209271 124.1805626 100.9308722
  96.7390276 124.5779086 102.6425327  95.6658796 125.8345467 101.2489117
  94.5857347 125.2943836 101.2157462  95.8109291 127.1211258 100.9518579
  96.7290080 127.5359567 101.0235920  94.6864926 127.9844026 100.5985413
  93.8523465 127.7990165 101.2752476  95.0820359 129.4437448 100.7057087
  94.2573599 130.0619315 100.3509498  95.2892973 129.6795285 101.7495233
  96.2448352 129.7048757  99.9191375  96.4824588 130.6317179  99.9972295
  94.0451481 127.7910947  99.2257812  92.9364751 128.2235956  98.9712856
  94.8308849 127.1896300  98.3016109  95.7649023 126.9600452  98.6098345
  94.4684222 126.9173155  96.8818945  93.3866055 126.9789061  96.7636646
  95.1207504 127.9332174  95.9447577  96.1912642 127.9162798  96.1492388
  94.9405543 127.5907639  94.9257607  94.5847004 129.3865656  96.1060635
  93.4997826 129.3201594  96.1875782  94.9952380 129.7774570  97.0370656
  94.9643398 130.3526286  94.9176860  94.7767995 129.8290342  93.9802552
  94.3235651 131.2324401  94.9763295  96.3760237 130.7922857  94.9405831
  96.8327857 130.7748621  95.8412296  97.0826287 131.1317483  93.8854212
  96.6515266 131.1580293  92.6745743  95.6944700 130.9029744  92.4768633
  97.2719401 131.4336046  91.9267475  98.2796632 131.5368122  94.0391272
  98.6750681 131.5938197  94.9667614  98.8282213 131.7992335  93.2327043
  94.7980373 125.5085919  96.3613057  95.9384136 125.0899774  96.4125772
  93.8443868 124.8201895  95.7526663  92.9294638 125.2475233  95.7726926
  93.9963622 123.4958452  95.0623240  95.0457041 123.2825960  94.8585951
  93.4234725 122.3612704  96.0221820  92.3921144 122.5565081  96.3159199
  93.4576684 121.4799570  95.3816998  94.2687293 122.1172156  97.2675030
  94.0765259 122.8422219  98.4928702  93.4448656 123.7297582  98.5300713
  94.7429633 122.3722813  99.6983884  94.4175088 122.7338644 100.6738056
  95.6947694 121.3415930  99.6127037  96.5065820 121.1775403 100.6708799
  96.3323545 121.8031648 101.3778724  95.8451634 120.6700335  98.4062156
  96.5260827 119.8189967  98.4198496  95.1779048 121.0278322  97.2019312
  95.3747441 120.4733632  96.2843700  93.2412242 123.4258356  93.7101940
  91.9849876 123.6022145  93.7368222  93.9067212 123.2489114  92.5769312
  94.9003502 123.4285782  92.5541144  93.2597026 122.8507350  91.3606054
  92.4764566 123.5732561  91.1312843  94.2146481 122.7767523  90.1776976
  95.0099613 122.1867003  90.6331258  93.8156495 122.2432828  89.3149633
  94.7713594 124.1161222  89.7307852  94.7332855 124.8097053  90.5707814
  96.2320390 123.9728492  89.2473671  96.2708550 123.2797259  88.4070266
  96.6082258 124.9462175  88.9325046  96.8488459 123.5913964  90.0610891
  93.7447388 124.7293939  88.7495040  92.7892373 124.8603450  89.2574097
  94.1066043 125.6971170  88.4021329  93.6139623 124.0634609  87.8965505
  92.6403087 121.5034182  91.6675758  93.2464424 120.6028014  92.2348758
  91.5138705 121.2620801  91.0554780  91.0169305 122.0754771  90.7215092
  90.9097610 119.9144110  90.8169705  91.5690766 119.1101299  91.1433659
  89.5776888 119.8643335  91.6861563  88.9614896 120.5559322  91.1116224
  89.1792872 118.8546689  91.5863879  89.5649188 120.2653852  93.1291356
  89.8632101 121.3098381  93.2199171  88.1563262 120.0877751  93.6922657
  87.8574986 119.0434103  93.6022492  88.1449329 120.3791808  94.7425294
  87.4598672 120.7138015  93.1344699  90.5695351 119.5309569  93.8974007
  91.5599325 119.7360633  93.4910218  90.5326646 119.8466461  94.9400330
  90.3658196 118.4620092  93.8345533  90.5723342 119.6734277  89.3114021
  90.1347124 120.6378261  88.6338449  90.5391299 118.3873491  88.9437752
  90.4656387 117.7044914  89.6843180  90.6021852 117.9000495  87.5375066
  90.4417150 118.7395210  86.8610185  91.5858002 117.4681855  87.3528600
  89.5167946 116.8195660  87.2693769  89.2905247 115.8998996  88.0621598
  88.8529918 116.8799358  86.1134053  89.2279095 117.5180415  85.4261229
  87.5246134 116.2424003  85.8408099  87.3189300 115.5094930  86.6209640
  86.3027214 117.3338156  85.8124121  86.2347345 117.8320134  86.7795087
  86.7095070 118.0262241  85.0753937  84.8658548 116.8685181  85.3590671
  83.9202994 117.6418263  85.6984966  84.6062500 115.9035926  84.6086759
  87.5461282 115.3137485  84.5892141  88.0734419 115.7532495  83.5375069
  86.8745032 114.1787858  84.6237462  86.5043807 113.9111714  85.5245743
  86.7930280 113.1877104  83.4970718  87.7855084 112.8278296  83.2258381
  85.9423046 111.9855296  83.9628005  86.3690076 111.6546683  84.9096661
  84.9357122 112.3677989  84.1323350  85.8819383 110.7976365  82.9843226
  85.2109379 110.0944132  83.4776139  85.3886627 111.2148470  82.1064179
  87.3690367 109.9330445  82.4705934  86.7191217 108.9779170  81.0962703
  86.3176253 109.6537064  80.3411489  87.5181951 108.3791077  80.6592236
  85.9264110 108.3202424  81.4528865  86.3745241 113.7515981  82.1618736
  86.9625148 113.4420684  81.1653680  85.4822270 114.7169631  82.1416925
  85.0119753 114.9136998  83.0136199  85.0480542 115.4642473  80.9147589
  84.7842241 114.7699396  80.1169934  83.7959299 116.3224582  81.2618043
  83.0779970 115.6225529  81.6893603  84.1289967 117.0169757  82.0330449
  83.0881008 117.1546468  80.0499536  82.2032493 117.7024580  80.3740547
  83.8627280 117.8608223  79.7510088  82.7263894 116.2584648  78.8587511
  82.2782670 115.0783663  79.0083236  82.7284417 116.6246740  77.6591763
  86.0936571 116.3141674  80.2697832  86.0194885 116.7766039  79.0608975
  87.1976629 116.6532740  80.9755139  87.2582566 116.3536003  81.9381267
  88.3293888 117.4456408  80.4080200  89.2718583 117.1430220  80.8643887
  88.3876375 117.3059904  79.3285738  88.0752436 118.9835277  80.7175279
  87.9145619 119.7584459  79.7925429  88.1465486 119.3527141  81.9948328
  88.2833174 118.6111759  82.6667813  87.9525042 120.7034111  82.4903914
  88.5622892 121.3714610  81.8821390  86.4813119 121.2000030  82.4503582
  86.5080760 122.2387881  82.7794605  86.1809575 121.1587408  81.4033698
  85.4840507 120.4289709  83.2925793  85.8416174 119.3996366  83.3193706
  85.5369688 120.8575985  84.2933691  84.0111335 120.4527118  82.7963412
  83.5908249 121.4569542  82.8505344  83.9309932 120.0804892  81.7750051
  83.2341659 119.5661181  83.6852659  83.7613424 119.0343274  84.3630438
  81.9504955 119.4091371  83.6404413  81.2601347 120.1725303  82.8642695
  81.7255697 120.8751833  82.3077184  80.2570858 120.0643667  82.8163827
  81.3303824 118.5169130  84.3764935  81.8598068 117.9270725  85.0025112
  80.3266160 118.4242633  84.3135032  88.5392818 120.7793177  83.9503545
  88.6604042 119.7580568  84.6947311  89.0061644 121.9646218  84.3026664
  88.9294499 122.7716601  83.7002518  89.5907282 122.1536794  85.6808926
  89.7229926 121.1899677  86.1726904  91.0001324 122.8555210  85.5586963
  90.8364584 123.7751471  84.9969153  91.3899458 123.0986873  86.5471374
  92.0214528 121.9651410  84.8055183  91.6958399 121.8099176  83.7769354
  93.3858833 122.6842429  84.8095022  93.7123912 122.8394133  85.8378083
  94.1203115 122.0740337  84.2838021  93.2905903 123.6482104  84.3097160
  92.2443067 120.5728283  85.2995047  91.3065646 120.0185391  85.2607398
  92.9845851 120.0778638  84.6709354  92.6045852 120.6048687  86.3277419
  88.6956784 123.1197956  86.4907169  88.0316635 124.0248934  86.0036396
  88.6785174 122.8622588  87.8007907  89.1602785 122.0032070  88.0244771
  88.1314178 123.6206406  88.8627083  87.6103433 124.4924680  88.4671105
  87.1172399 122.7594807  89.6717057  87.7148982 121.8502950  89.6062456
  86.8769238 122.9613213  90.7155489  85.8389760 122.4743045  88.9917168
  84.6268448 122.8920800  89.5694379  84.6884379 123.5612665  90.4276312
  83.3364220 122.4714883  89.0720409  82.4434878 122.9413593  89.4843398
  83.2206475 121.5198014  88.1187737  82.2685957 121.1068126  87.7854005
  84.4147960 121.0665183  87.5534962  84.3265816 120.3504932  86.7364121
  85.7049527 121.4932151  87.9928703  86.6021075 121.0575096  87.5531274
  89.2715312 124.0709711  89.8825464  90.3987444 123.5478682  89.8168225
  88.9865992 125.1292324  90.7096781  88.1563035 125.6576484  90.4827753
  89.8170189 125.5733574  91.8873937  90.7526999 125.0159516  91.9309728
  90.1397648 127.0560746  91.7267027  90.4232833 127.2417449  90.6907283
  89.2489942 127.6358420  91.9685652  91.2592903 127.4630860  92.6299836
  91.3102019 128.5392670  92.4646250  90.8422646 127.2671239  93.6178047
  92.8984344 126.7799676  92.5415254  93.2647335 127.4078462  90.8930693
  93.2030121 128.4960923  90.8961986  94.2698342 127.1022858  90.6023699
  92.5432829 127.0055742  90.1818818  88.9938116 125.2908557  93.1411112
  87.9224416 125.8424132  93.2869217  89.5166706 124.4112018  94.0038142
  90.2582724 123.7828579  93.7293874  88.9842390 124.3093400  95.3816112
  87.9098099 124.4929137  95.3801907  89.2468276 122.8735768  95.9574646
  88.8707833 122.1477645  95.2364330  90.3105643 122.7028383  96.1230325
  88.4776309 122.7124077  97.3074953  88.7984602 123.5335715  97.9484785
  86.9599453 122.7222635  97.1923333  86.6383108 121.9010427  96.5518284
  86.5191613 122.6043918  98.1822406  86.6339649 123.6684245  96.7603419
  89.0861175 121.3615406  97.7240369  90.1673752 121.4628454  97.8174108
  88.6665485 121.0533053  98.6816663  88.8559968 120.6103727  96.9684641
  89.7077216 125.4116654  96.1629802  90.8221889 125.6446019  96.0196158
  89.0608649 126.0512676  97.1632219  88.1671629 125.6723008  97.4421129
  89.5669956 127.2099163  97.8714075  90.6344188 127.3361908  97.6904055
  88.8461862 128.4333288  97.3711708  87.8469393 128.3550001  97.7995040
  89.3671247 129.2801097  97.8180324  88.7365421 128.6441116  95.8428780
  88.6767296 127.6392156  95.4248978  87.5783254 129.4886533  95.3074024
  87.6377344 130.4938938  95.7246086  87.6395782 129.5427358  94.2204691
  86.6314513 129.0317823  95.5951501  90.0017415 129.3070689  95.4280899
  90.8471806 128.6657075  95.6770629  89.9844809 129.4834232  94.3525889
  90.1020626 130.2586043  95.9502155  89.3434973 127.1509356  99.3468488
  88.2888758 126.7563357  99.7713971  90.2750707 127.6124679 100.1348107
  91.1792936 127.7669432  99.7121789  90.1527972 127.7509624 101.6243269
  89.1153152 127.6309217 101.9362893  91.0035809 126.6503915 102.3024137
  91.9800737 126.6957109 101.8202237  91.0885964 127.0085105 103.3283880
  90.5038070 125.2032627 102.3071382  89.4313695 125.1929038 102.5017440
  90.7823455 124.5521444 100.9478950  91.8546976 124.5617170 100.7527841
  90.4244898 123.5226064 100.9574671  90.2662214 125.1083919 100.1653958
  91.2663104 124.3895627 103.3797737  91.0967839 124.8325278 104.3611718
  90.9071297 123.3604416 103.3792680  92.3329375 124.4016821 103.1555890
  90.4404488 129.1905917 102.1098339  91.5149560 129.7437209 101.8029036
  89.5019397 129.8213216 102.7522415  88.6179030 129.3563875 102.9019570
  89.6576781 131.2204414 103.2457416  90.5172230 131.6631708 102.7424796
  88.4324606 132.1072924 102.9944663  88.2348346 131.9990483 101.9280112
  87.6330825 131.6306166 103.5618065  88.4970930 133.6291205 103.3614539
  87.4689357 133.9524999 103.5239931  89.0737057 133.7808608 104.2739187
  89.1303234 134.4672901 102.1982342  88.7882389 135.6252275 102.0404744
  89.9031028 133.8716118 101.4882686  89.9561046 131.3117963 104.7629413
  89.0800148 131.0632292 105.6162865  91.1076233 131.9184799 105.1611544
  91.8174798 132.0441613 104.4537597  91.4549368 132.1942529 106.5374249
  91.1157428 131.3579091 107.1486333  92.9836839 132.3922849 106.7685107
  93.1025135 132.5483858 107.8407099  93.4498535 131.4485488 106.4854063
  93.6254279 133.4917860 106.0407257  93.6905240 133.2267943 104.9854329
  93.0194090 134.3908913 106.1523175  95.0844922 133.7628398 106.6094771
  94.9976770 133.9162717 107.6851261  95.6855618 132.8741293 106.4171012
  95.7825038 135.0258676 105.9501026  96.8467858 134.9763458 106.1802155
  95.6410665 134.9593888 104.8713648  95.2198735 136.3342684 106.4514492
  95.3512182 136.3962580 107.4509519  95.6982869 137.1011659 106.0007954
  94.2337842 136.3805419 106.2379410  90.5502002 133.3534180 107.1153607
  90.2409117 134.3394237 106.4130507  90.3235353 133.1888584 108.4348338
  90.3286450 132.2329880 108.7610011  89.8173866 134.2673566 109.3752380
  89.9267387 135.2189638 108.8550601  88.4210622 134.1338441 109.8234817
  87.9331562 134.0192610 108.8555366  88.4836533 133.1631756 110.3154015
  87.5923813 135.1131707 110.7102582  86.5446602 134.8127643 110.6985410
  88.0013331 134.9643405 111.7096116  87.7046496 136.6101437 110.3240879
  86.7260675 137.3488848 110.4677283  88.7867857 137.1060818 109.9326533
  90.8705105 134.4636181 110.4848688  91.4212817 133.4533211 110.9677043
  91.2581689 135.6801188 110.8383103  90.9315453 136.4674330 110.2965052
  92.2026233 135.9300515 111.9208238  92.7207533 134.9992011 112.1513844
  93.2414682 136.9929001 111.5706239  92.7420736 137.7967367 111.0297440
  93.6589242 137.3844580 112.4982623  94.3559136 136.4256898 110.7155930
  94.9450123 135.7559279 111.3420772  93.8314723 135.8450293 109.9567164
  95.2861184 137.4371401 110.0329574  95.3560269 138.6285180 110.4583215
  95.9854219 136.9886897 109.0847476  91.4178100 136.3279560 113.2341681
  90.8495926 137.4167825 113.3285542  91.3670026 135.4171004 114.2297176
  91.7897766 134.5355348 113.9763333  90.6167873 135.4954928 115.5047347
  89.5665966 135.6260724 115.2436838  90.7381134 134.3253245 116.4204722
  91.7840262 134.0776045 116.6015811  90.2414729 134.5198367 117.3710579
  90.0371775 133.1292516 115.7027274  89.0250472 133.4370089 115.4400900
  90.6294174 133.0169609 114.7945728  89.9677349 131.7701800 116.4145021
  90.6787229 131.4671061 117.3179479  89.0124483 130.9722566 116.0139840
  88.9077486 130.0618933 116.4386935  88.3837080 131.2699998 115.2817709
  90.9354358 136.8785003 116.1789270  91.9787366 137.5056432 115.9266332
  90.1703876 137.2301680 117.1932939  89.2425806 136.8371131 117.2624407
  90.5356715 138.2993757 118.1075607  90.4903972 139.2510361 117.5780402
  89.5971322 138.3667588 119.3167226  88.6947107 137.8406749 119.0053222
  90.0988842 137.7954905 120.0977460  89.2166508 139.7641502 119.8635829
  90.1589523 140.2605780 120.0953763  88.7259813 140.2833121 119.0402868
  88.1299839 139.8132705 121.3404997  88.1514236 141.6193052 121.5559023
  87.7495139 142.0970940 120.6624342  87.5415451 141.8902099 122.4177373
  89.1760804 141.9544054 121.7167980  91.9882151 138.3597045 118.5632747
  92.5962883 139.4489268 118.4261221  92.6255501 137.3264576 118.9743257
  92.0434081 136.5090039 119.0882536  94.0404741 137.2371448 119.3733110
  94.3920727 138.1867039 119.7768145  94.1624184 136.1758487 120.4533028
  95.1919311 136.2496106 120.8036767  93.4866407 136.5129923 121.2392791
  93.8510954 134.7380770 120.1038738  93.2130773 134.5109921 119.0730977
  94.2413909 133.7565477 120.8487493  95.0883616 136.9680528 118.2515190
  96.2389477 136.6081251 118.5675406  94.6826482 136.9935706 116.9452371
  93.7192476 137.1814495 116.7072032  95.6465332 136.7458942 115.8401470
  95.3615087 137.3623216 114.9875759  96.6422027 137.0326998 116.1785020
  95.6706613 135.3102484 115.4168459  96.4431419 134.9392559 114.5491805
  94.9532848 134.3846016 116.0759256  94.3322840 134.7292235 116.7940433
  94.9597124 132.9297610 115.7911823  95.9899982 132.5831423 115.7107717
  94.2528476 132.1345464 116.9378540  93.1762844 132.3051619 116.9363405
  94.5338574 130.6678848 116.6481261  95.6102805 130.4963922 116.6499350
  94.0666698 130.0495781 117.4146322  94.1262663 130.4052585 115.6719102
  94.7571661 132.4800187 118.1983383  94.3014312 131.9740081 118.8749913
  94.1612001 132.6512807 114.5234123  92.9745945 133.0968190 114.3256931
  94.7464981 131.8507576 113.5924527  95.6319525 131.4451562 113.8599548
  94.2137836 131.5485331 112.2400320  93.9038639 132.5395514 111.9084726
  95.3103929 130.9997777 111.2382214  95.7379179 130.0823902 111.6428468
  94.6819200 130.7110359 109.8795927  94.2545589 131.6281160 109.4740960
  95.4449030 130.3341888 109.1984585  93.8963166 129.9640671 109.9934626
  96.2740618 132.1280788 110.9157621  96.7486552 132.4747505 111.8337392
  97.0376160 131.7684741 110.2260020  95.7286531 132.9521022 110.4557451
  93.1032561 130.4973264 112.4067896  93.3060825 129.4597828 112.9996891
  91.9234845 130.7096008 111.8491450  91.7693762 131.6206615 111.4413235
  90.8994182 129.7490008 111.7433923  91.2253083 128.7428933 112.0072909
  89.7291092 130.1959653 112.7617855  90.2335133 130.4815942 113.6848742
  88.8256210 131.3260074 112.3095740  88.3204845 131.0409117 111.3867213
  88.0834315 131.5295737 113.0814643  89.4223512 132.2212740 112.1348995
  88.9242447 129.0976431 113.0301759  88.2246678 129.3539069 113.6355860
  90.3529450 129.7814293 110.2890937  90.6736853 130.6653420 109.4996300
  89.4630570 128.8223086 109.9248453  89.2710979 128.1205394 110.6253958
  88.8656431 128.6439323 108.5516969  89.4156053 129.2521099 107.8335321
  88.9335602 127.1964370 108.1122989  89.9736958 126.8707879 108.1253263
  88.3793983 126.6719609 108.8907136  88.3008794 126.8722656 106.7102187
  87.2219064 126.9850363 106.8160528  88.7949133 127.7578759 105.5711388
  89.8738136 127.6452845 105.4643866  88.3057469 127.4631830 104.6427137
  88.5587757 128.7990206 105.7910411  88.6844294 125.4886828 106.2663434
  88.3248299 124.7605433 106.9933925  88.2375809 125.2815615 105.2939605
  89.7694651 125.4189924 106.1892735  87.4689092 129.1927572 108.4084472
  86.5186746 128.7120933 109.0099739  87.2940456 130.3157447 107.6719183
  88.1338644 130.6379771 107.2126035  86.0542806 131.0714655 107.4643035
  85.5646195 131.2304308 108.4250642  86.3365036 132.4805216 106.8012431
  87.2828345 132.8794057 107.1665491  86.3803681 132.3780289 105.7169594
  85.1895699 133.4456733 107.1814634  84.3556076 133.1832454 106.5305109
  84.9333190 133.2067109 108.2136138  85.4763476 134.9352366 107.0622623
  84.5557146 135.4223488 107.3835965  86.2621897 135.1265710 107.7929761
  85.8810647 135.4679292 105.7600946  86.9385572 135.2475644 105.6143228
  85.2963006 134.9664882 104.9889222  85.6652405 136.9282996 105.6704939
  86.2073447 137.3931674 106.3847212  85.9556565 137.2563145 104.7604583
  84.6853387 137.1326728 105.8051165  85.1875721 130.2697393 106.5371522
  84.0513890 130.0099995 106.8113294  85.6676642 129.7755836 105.4021074
  86.6732355 129.7286318 105.3201251  84.8681969 129.2898576 104.3031845
  84.0187107 128.6978823 104.6438275  84.3221678 130.5813023 103.5660903
  84.2280760 131.3234942 104.3588053  85.1216560 130.8758989 102.8862878
  83.0068966 130.4905195 102.7955274  82.7118386 131.4596530 102.0629053
  82.3225461 129.4747724 102.9537555  85.6614828 128.4098351 103.2357152
  86.7635783 128.7849669 102.9009679  85.0072149 127.3618089 102.7567282
  84.0585655 127.2426435 103.0822483  85.5293823 126.4098060 101.8330071
  86.5932086 126.5856216 101.6734399  85.3416740 124.9678005 102.3984800
  86.0359612 124.9936116 103.2383600  84.3203216 124.9043763 102.7738685
  85.6327193 123.7807339 101.5515287  85.1576312 123.8806560 100.5756149
  87.1495580 123.7095838 101.3745995  87.6253502 123.6091821 102.3501199
  87.4037930 122.8484699 100.7565799  87.5025563 124.6202994 100.8907713
  85.0355112 122.4897105 102.1422452  83.9533829 122.5929285 102.2225182
  85.2724064 121.6481717 101.4912504  85.4575098 122.3130993 103.1316009
  84.7237470 126.6132756 100.5505918  83.4861585 126.5770274 100.7043927
  85.2773897 126.9070479  99.3564806  86.2853252 126.9669004  99.3806272
  84.5691583 127.2434575  98.0612031  83.5174191 126.9661711  98.1323092
  84.6612753 128.7483239  97.7744340  85.7110576 129.0331226  97.7041060
  84.1634911 128.9609668  96.8283400  83.9811181 129.5579236  98.9096346
  82.9278420 129.2814626  98.9573804  84.4638827 129.3124896  99.8555746
  84.1046738 131.0905582  98.6453939  83.9757465 131.2918257  97.5819241
  83.3405087 131.6238763  99.2108343  85.4442150 131.5881360  99.0663545
  85.9510787 130.9881478  99.7013370  86.0541412 132.7191717  98.6143397
  85.3861117 133.5984719  98.0022010  84.3974072 133.4609853  97.8483798
  85.8436664 134.4350880  97.6693095  87.2514389 132.9998418  98.8251696
  87.8283299 132.3675192  99.3613273  87.6378859 133.8579899  98.4586464
  85.0862107 126.4210959  96.8748758  86.2516046 126.0103414  96.9374761
  84.3280350 126.1427190  95.8403224  83.3318836 126.2759454  95.9404845
  84.8364186 125.5214872  94.5802005  85.9127363 125.6536993  94.4699314
  84.5169319 123.9804626  94.5852488  85.0016372 123.5298737  95.4513490
  82.9826538 123.7159272  94.6529669  82.4972848 124.1658534  93.7868928
  82.7983930 122.6416156  94.6547498  82.5776183 124.1550245  95.5646913
  85.0759249 123.2721496  93.3535794  86.1587873 123.3932188  93.3243682
  84.8306255 122.2111851  93.4013505  84.6379968 123.7056633  92.4544767
  84.2837441 126.2660880  93.3174041  83.1037109 126.5434478  93.1314648
  85.2004942 126.4332302  92.3467272  86.1556310 126.1187666  92.4412028
  84.8451482 127.2333372  91.1703514  83.7578173 127.2876250  91.1168403
  85.4055930 128.6574174  91.1892235  86.4819794 128.5836391  91.0341482
  84.9546590 129.1937242  90.3542783  85.1389719 129.3859626  92.4419490
  85.5191976 128.8547273  93.3144845  85.6896995 130.3181677  92.3162828
  83.6426917 129.6965893  92.6417752  83.1485195 129.9453772  93.7504125
  82.8997067 129.8024446  91.6291050  85.1988127 126.5531573  89.8327305
  86.0448902 125.6577957  89.8523889  84.5090081 126.8398069  88.6598065
  83.6677499 127.3945425  88.7280157  84.8271210 126.1926156  87.3499135
  85.5002798 125.3523373  87.5198805  83.5648516 125.6753665  86.6504999
  83.2720658 124.8265360  87.2684501  82.8087895 126.4568994  86.7258410
  83.6913883 125.2202349  85.1749397  84.1262856 126.0424392  84.6066570
  84.5902536 123.9364412  85.0120934  84.1557140 123.1136246  85.5797614
  84.6446719 123.6615993  83.9587172  85.5930840 124.1447238  85.3849873
  82.3551438 124.9574101  84.5686438  81.7565254 125.8678232  84.5987041
  82.4813127 124.6401625  83.5334933  81.8491486 124.1717958  85.1297837
  85.7294520 127.1365862  86.5228426  85.3601948 128.2769123  86.2886597
  86.8692414 126.6583325  86.0119576  87.1561794 125.7162667  86.2361848
  87.7614390 127.4812712  85.1556532  87.6567753 128.5531981  85.3233360
  89.1990122 127.0368744  85.6217526  89.4798191 126.1503977  85.0530648
  89.8190582 127.8781162  85.3119862  89.4106641 126.7684950  87.1352793
  88.6500314 126.0442550  87.4268527  90.7928217 126.2426875  87.5291956
  91.5539928 126.9666485  87.2383384  90.8303202 126.0903597  88.6078479
  90.9799953 125.2960146  87.0223655  89.2853377 128.1095941  87.8278828
  88.2954055 128.5251894  87.6396963  89.4262503 127.9795340  88.9008829
  90.0440349 128.7905826  87.4422245  87.7105295 127.4335361  83.6124025
  87.7277731 128.4491749  82.9621760  87.5076284 126.2536196  83.0420156
  87.4857227 125.4241067  83.6178001  87.3133959 126.1031092  81.6072856
  86.2548318 126.2413929  81.3872427  87.8932655 126.8735714  81.0991137
  87.7490051 124.7429256  81.1000043  88.3492371 123.9498517  81.8952510
  87.5849882 124.4116299  79.8429671  87.1165107 125.1104880  79.2841956
  87.9686875 123.1143158  79.1870831  87.6136436 122.2740711  79.7837671
  87.3579055 123.0292738  77.8380177  87.5382851 121.9830653  77.5910152
  86.3033284 123.1694198  78.0753495  87.7305540 123.9032657  76.6473956
  87.4466831 124.9176044  76.9278153  88.8125759 123.8494070  76.5272826
  87.0395902 123.5237043  75.3033501  86.3661807 122.4743565  75.1729673
  87.1852085 124.3038638  74.2862034  89.4945834 122.8688949  79.0404462
  90.2612298 123.8133959  78.7135457  89.9385620 121.6135079  79.2837232
  89.2476113 120.9865143  79.6704602  91.3386452 121.0679486  79.0095007
  91.9329796 121.5203514  78.2156509  92.1620728 121.1375257  80.3604792
  93.1058054 120.6634435  80.0908219  92.4451726 122.4694830  81.0889223
  91.5018499 122.9439556  81.3593251  93.0250380 122.2746991  81.9910944
  93.0087299 123.1312523  80.4312256  91.6304091 120.1999061  81.2917874
  92.1304051 120.2431236  82.1101618  91.2416702 119.5939151  78.5519004
  90.1626056 119.1364779  78.2990072  92.3332549 118.8718401  78.4575109
  93.1828938 119.4168389  78.4920001  92.4431341 117.4296378  78.2459048
  91.7621195 117.1632406  77.4376036  93.8622910 116.9295729  77.8821086
  94.2372132 117.6139885  77.1211172  94.4594973 117.0320403  78.7881687
  93.9532543 115.5883409  77.4017718  94.8698050 115.3797705  77.2067515
  91.9704305 116.5951755  79.4436268  91.7447591 117.1034131  80.5892930
  91.6961506 115.3102735  79.1789131  91.7536683 114.9866254  78.2239037
  91.1884888 114.3745583  80.2077215  90.4242376 114.8800866  80.7980269
  90.5834245 113.1495997  79.5373399  91.3147453 112.6604380  78.8939184
  90.1621156 112.1827248  80.6647092  89.4304059 112.6710534  81.3083214
  89.7211086 111.2861063  80.2291763  91.0369425 111.9073806  81.2537446
  89.3141737 113.4472164  78.6562511  88.5169723 113.7145512  79.3498668
  89.5652190 114.3115890  78.0414862  88.8379433 112.2849752  77.7443547
  88.5862584 111.4203397  78.3584882  87.9581572 112.5998588  77.1831739
  89.6345066 112.0173759  77.0501087  92.2711807 114.0234049  81.2226332
  93.2165125 113.2766684  80.9242269  92.2374589 114.5103374  82.4902315
  91.3731962 114.8782110  82.8614706  93.4243356 114.6028423  83.3026861
  94.3197058 114.8135632  82.7178714  93.1706179 115.8070771  84.2865641
  92.2822878 115.6066010  84.8855457  94.0317770 115.9275861  84.9438181
  93.0220183 116.7213092  83.7119364  93.6985780 113.2465586  84.0013897
  93.0399630 112.8402802  84.9524429  94.6801547 112.4623197  83.5183219
  94.9617784 112.6823743  82.5736720  95.3706836 111.3556416  84.2162862
  94.6348242 110.6090399  84.5149435  96.3979732 110.6943798  83.3428660
  95.9870177 110.6403376  82.3347517  97.2844963 111.3285463  83.3397656
  96.7754471 109.2990811  83.8110114  97.6223872 108.9515495  83.2193908
  97.0885542 109.4386576  84.8457005  95.6426411 108.2505875  83.7532110
  95.6579575 107.3226644  84.6071648  94.6738913 108.3198473  82.9145867
  96.1103655 111.8575425  85.4674361  96.3124741 111.1287285  86.4550247
  96.4966503 113.1201161  85.3382344  96.3359242 113.5578880  84.4423425
  97.3341775 113.8080940  86.2978784  96.8352795 113.8860594  87.2638605
  98.6325458 112.9942925  86.4778113  99.3811572 113.5795021  87.0118619
  98.4347535 112.0724225  87.0247427  99.3967966 112.5011490  84.9316974
 100.4241194 111.8607237  85.4824801  97.4608135 115.3001499  85.9857849
  96.9546164 115.7615565  84.9760733  97.9405880 116.0544077  86.9875472
  98.4778879 115.6377363  87.7344027  97.7422053 117.4899439  87.0020044
  97.8856892 117.9457567  86.0223380  96.2779392 117.6653388  87.4135037
  95.7069862 117.2969483  86.5612125  96.1839237 116.9648170  88.2432809
  95.7545157 118.9878696  87.8230561  96.3570494 119.3912368  88.6369043
  95.8240596 119.9182188  86.6373752  95.2213523 119.5157230  85.8232254
  95.4418496 120.8987212  86.9213316  96.8592924 120.0133155  86.3097322
  94.3210928 119.0106540  88.2712666  94.1987100 118.3539574  89.1325862
  94.0424608 120.0275063  88.5478112  93.6804195 118.6670554  87.4591233
  98.6761746 118.0624802  88.0519155  98.9452470 117.4469242  89.0880993
  99.3623694 119.1332894  87.7009991  99.1897912 119.4471228  86.7566344
 100.3822472 119.9004634  88.5454986 100.1586326 120.0273746  89.6047386
 101.7350882 119.2552931  88.4136411 101.5808427 118.2625622  88.8364814
 102.4433960 119.1260397  87.0267137 102.5984084 120.1184633  86.6034334
 103.4063900 118.6316924  87.1546293 101.8201485 118.5376795  86.3532930
 102.5458910 119.8365024  89.3082984 103.4205408 119.4452481  89.2490699
 100.4648499 121.3747994  88.1123759 100.3496814 121.6336596  86.9244830
 100.6635019 122.2982729  89.0568483 100.8084458 121.9121651  89.9788089
 100.7899452 123.7259674  88.8851670 100.2728006 124.0437567  87.9798103
 100.1581494 124.4548407  90.0981005  99.0822403 124.2820487  90.0723759
 100.5637770 124.0780609  91.0370378 100.4389249 125.9705888  89.9874040
 101.2346683 126.7093537  90.9154600 101.5804194 126.2145253  91.8230395
 101.5665236 128.0255445  90.6792974 102.1986397 128.5702160  91.3806275
 101.0588138 128.6803331  89.5228682 101.4163704 129.9695102  89.2370397
 102.0181717 130.3441728  89.8843903 100.2239337 128.0261028  88.6667234
  99.8374786 128.5184860  87.7743605  99.8634890 126.7006275  88.9477463
  99.1062703 126.2018035  88.3428541 102.2831265 124.0028902  88.9296212
 103.0447924 123.5694526  89.8479686 102.8110755 124.8132579  87.9899387
 102.2157031 124.9950799  87.1945949 104.2086024 125.2662238  87.9324712
 104.7796796 124.6585199  88.6343729 104.8820096 125.1638760  86.5160304
 104.0879808 125.5211061  85.8602834 105.7739154 125.7734948  86.3712229
 105.2054722 123.6881824  86.1776590 105.7012925 123.2327012  87.0348638
 103.8860719 122.8822302  85.8424919 103.3899064 123.3368735  84.9850434
 104.1406958 121.8485847  85.6083027 103.2172491 122.9051397  86.7028706
 106.3186592 123.6624117  85.0811005 107.2116415 124.1615328  85.4573454
 106.5588542 122.6291190  84.8306734 105.9630054 124.1785839  84.1893744
 104.2818145 126.6485805  88.5940707 104.0262743 126.7871636  89.8075924
 104.5342929 127.6729212  87.8303811 104.6936334 127.5252842  86.8440174
 104.5409986 129.0606570  88.3417043 104.0006244 129.1937129  89.2789295
 106.0468210 129.2770234  88.6053984 106.4185721 128.4902041  89.2617639
 106.5767144 129.2361307  87.6537468 106.2809737 130.6443862  89.2627175
 105.2685941 131.1896343  89.9037081 107.3729330 131.2593696  89.2320055
 104.0212238 130.0121876  87.2284794 103.9664314 129.5862225  86.0737979
 103.6583003 131.2724016  87.5411537 103.7001964 131.4590806  88.5328669
 103.2172894 132.3606469  86.6403915 102.8488940 133.1995288  87.2308668
 104.3854754 132.8504190  85.7652076 104.6172479 132.0482894  85.0645159
 104.0287652 133.7210723  85.2149161 105.6629984 133.2329908  86.5088405
 105.7015786 134.1779988  87.3077851 106.7538971 132.5562017  86.3089867
 107.5988843 132.8093495  86.8009346 106.7518133 131.7801188  85.6626186
 102.0657531 131.7174089  85.7693795 102.0551100 131.8899672  84.5383537
 101.0666515 131.0644954  86.3356340 101.2609964 130.8887600  87.3110551
  99.7742144 130.5806021  85.7746771  99.0831204 130.4444144  86.6065071
  99.3924381 131.3545048  85.1087785  99.8870577 129.2390910  84.9828164
  98.9387509 128.6428820  84.5939424 101.0877716 128.7246372  84.8889527
 101.8397900 129.2045226  85.3625324 101.4249249 127.6249171  83.9950370
 100.7247695 127.5559978  83.1624916 102.8228230 127.7618707  83.4399491
 103.5158683 127.8933220  84.2709172 103.2260642 126.5128668  82.6265366
 102.5337010 126.3810173  81.7950621 104.2370853 126.6412305  82.2399367
 103.1924624 125.6334093  83.2695972 103.0254997 128.9891449  82.5688221
 102.8226862 129.8871170  83.1524442 104.0543161 129.0145324  82.2096678
 102.3451748 128.9479376  81.7181983 101.0829565 126.3856195  84.7845351
 101.5221135 126.2361272  85.9236111 100.3308554 125.4952424  84.1099786
 100.0955728 125.7517963  83.1618639  99.8418169 124.2012341  84.6270173
 100.3599651 123.8387808  85.5148513  98.3174280 124.3050057  84.9466344
  97.8319235 124.7652500  84.0860766  97.6413265 122.9007973  85.2467069
  98.1260289 122.4401194  86.1074859  96.5823653 123.0451814  85.4608442
  97.7505947 122.2513373  84.3781656  98.0972685 125.2854793  86.0776783
  98.4720962 126.2667715  85.7866940  97.0318274 125.3545200  86.2971513
  98.6290479 124.9425257  86.9651997 100.1108920 123.2146723  83.4882148
  99.8730357 123.4061045  82.2628364 100.4564553 122.0377251  83.8802789
 100.7448637 121.9479323  84.8440513 100.4995962 120.8174288  83.0081839
 100.4220502 121.1230774  81.9647929 101.8130926 120.0176545  83.1933494
 102.5849431 120.7643227  83.0067147 101.9301056 119.6189292  84.2010330
 102.0758332 118.8877475  82.2537881 102.3274620 119.1431660  80.8991230
 102.3987193 120.1865978  80.5920848 102.4849545 118.1282673  79.9585988
 102.6571329 118.3467786  78.9046975 102.4171725 116.7957258  80.3976110
 102.5677659 115.9745431  79.6968395 102.1589622 116.5310543  81.7206206
 102.1276818 115.4813594  82.0126177 101.9407225 117.5338990  82.6800782
 101.6796557 117.2620888  83.7028505  99.3529294 119.8753596  83.2521163
  99.0068360 119.5116199  84.4025831  98.6644391 119.4097412  82.2034708
  98.9640444 119.6761727  81.2764593  97.4884437 118.4826830  82.3333353
  97.3446483 118.2025447  83.3768604  96.1510823 119.0523857  81.7832060
  96.2112990 119.0254153  80.6952051  94.8745272 118.2565193  82.2587907
  94.8133750 118.2834398  83.3467414  93.9811957 118.7141252  81.8337541
  94.9458182 117.2213644  81.9249141  95.8945822 120.5422907  82.1213179
  96.6934920 121.1534485  81.7013996  94.9394973 120.8524008  81.6973554
  95.8700295 120.6708167  83.2034358  97.7000223 117.1884933  81.5494134
  97.4015725 116.9668632  80.3715739  98.4606022 116.3181534  82.1914037
  98.8103855 116.6266756  83.0872637  98.8289140 114.9807903  81.7261615
  99.4181431 115.1053159  80.8176453  99.4478023 114.5279575  82.5007705
  97.6591025 114.0661276  81.4330212  96.6323328 114.0997143  82.0971078
  97.7470725 113.2843062  80.3843923  98.6272672 113.3241958  79.8906662
  96.6258140 112.5298223  79.7659147  95.9377711 112.2188290  80.5520314
  95.8670878 113.3441641  78.7589932  95.7584701 114.3754247  79.0948546
  96.3664816 113.3287847  77.7902469  94.5929433 112.7523114  78.6400003
  94.0701796 113.2436953  78.0021447  97.0249559 111.1418971  79.2270656
  98.0530042 110.9836945  78.5770574  96.1377858 110.1880866  79.4388948
  95.3945311 110.3740195  80.0969986  96.1826163 108.8477866  78.7815584
  97.1130845 108.6957626  78.2345512  96.1018889 107.8116461  79.9082127
  96.9361079 108.0139801  80.5799559  95.1627976 107.9909523  80.4317170
  96.1597855 106.3378832  79.4445536  95.3696018 106.2243565  78.7023796
  97.1298719 106.2112190  78.9639388  95.9911944 105.2886517  80.5264576
  95.5992200 104.3976818  80.0359194  96.9882958 105.0802804  80.9143618
  95.1100125 105.6328293  81.6524213  94.8805496 106.6145084  81.7136780
  94.4394893 104.7739386  82.4198217  94.6074229 103.5028616  82.2868275
  95.2534342 103.1516359  81.5944332  94.0921990 102.8641593  82.8756428
  93.8043123 105.2269439  83.4559407  93.8258756 106.2147029  83.6656247
  93.2911182 104.5898158  84.0482229  95.0735383 108.6711436  77.8260160
  95.3108395 107.9885150  76.8554572  93.9150406 109.2873604  78.0127403
  93.7554118 109.8193409  78.8563129  92.8004124 109.1603823  77.0385275
  92.8953202 108.2261094  76.4851507  91.4339623 109.1615434  77.7810729
  91.4353427 110.0170342  78.4565231  90.7227931 109.3376266  76.9740208
  91.0313497 107.9127985  78.5468642  90.6012600 107.2288112  77.8152323
  92.1695099 107.2028811  79.3065138  92.5998155 107.8861405  80.0386972
  91.7737166 106.3253946  79.8178511  92.9409005 106.8944347  78.6008809
  90.0179596 108.2476548  79.6672484  89.1236590 108.6902592  79.2285832
  89.7479287 107.3348881  80.1983244  90.4674215 108.9540331  80.3651830
  92.7907229 110.2820665  75.9279065  91.8888090 110.2315835  75.0614859
  93.7828401 111.1977937  75.9369138  94.3485934 111.2727844  76.7702198
  94.0814596 112.0779987  74.8200147  93.7569083 111.5446757  73.9265204
  93.4578051 112.9605462  74.9623682  95.5062770 112.5110945  74.6394481
  96.3908620 112.1351006  75.3817270  95.6851347 113.5441352  73.9058966
  94.9643789 113.7823945  73.2396812  96.9099535 114.3897596  73.9535111
  97.8080023 113.7863099  73.8213900  96.8276189 115.4092381  72.8005854
  95.8076493 115.7840951  72.8856940  97.5294249 116.2290450  72.9538338
  97.0379308 114.8099028  71.4000187  97.1166544 115.6303801  70.4196495
  97.0491588 113.5994718  71.0954016  97.0178832 115.1054810  75.3395642
  96.0631991 115.7328262  75.7421638  98.1723770 115.1102038  76.0404541
  98.9329658 114.5120994  75.7508421  98.3906146 116.0180706  77.1996609
  97.5574450 115.8942148  77.8914609  99.6903696 115.7491128  77.9493679
 100.5460160 115.9726933  77.3122021  99.7391842 116.3608040  78.8502291
  99.7143398 114.3642241  78.3114105 100.5262946 114.1715587  78.7859727
  98.5206524 117.5222089  76.7738685  99.0725406 117.7430512  75.7419212
  98.1406063 118.5163713  77.6048258  97.6707048 118.3046944  78.4734367
  98.3893853 119.8839788  77.2865923  98.8253455 119.9582472  76.2903383
  97.0319072 120.7172235  77.3116203  96.6775941 120.6603430  78.3408560
  97.3192714 121.7435117  77.0830283  95.8974097 120.2705221  76.3481851
  96.1167018 120.4968691  75.3047394  95.7430702 119.1975219  76.4619917
  94.6202322 120.9884750  76.7419428  94.1295531 120.8157017  77.8426419
  94.0220401 121.8421906  75.9597888  93.1731310 122.2950545  76.2669844
  94.4101596 122.0469495  75.0500975  99.3386990 120.4639238  78.2971249
  99.4300321 119.9633369  79.3988895 100.0747928 121.4961241  77.8370277
 100.4870789 121.4864519  76.9150592 100.4243704 122.6149133  78.7547566
 100.3523103 122.3018856  79.7963516 101.9149312 123.0457451  78.4591782
 102.5417840 122.1542644  78.4387621 101.8441464 123.4625878  77.4545232
 102.5169449 124.0542176  79.3730008 101.7766582 124.8026440  79.6557275
 102.9994254 123.3092058  80.6311466 103.7401273 122.5608762  80.3492560
 103.4477715 124.0199468  81.3253612 102.1524191 122.8186363  81.1107530
 103.7295323 124.6498450  78.7274235 103.4443333 125.1312442  77.7920008
 104.1716221 125.3888057  79.3957010 104.4566321 123.8637043  78.5239346
  99.3778488 123.7737821  78.6601978  98.9187360 124.1263555  77.5588162
  98.9980224 124.3227825  79.8355397  99.4361717 124.0367875  80.6994445
  97.8289963 125.3202325  79.9060040  97.6329705 125.9473369  79.0362838
  96.5194153 124.6132123  80.3088451  95.7061591 125.3318854  80.2077383
  96.2263328 123.3947983  79.4537596  97.0389869 122.6754219  79.5547141
  95.2932122 122.9363828  79.7812373  96.1359286 123.6959448  78.4100933
  96.1774234 124.2439935  81.8053728  96.1508516 125.1523453  82.4072806
  95.2049741 123.7532845  81.8459533  96.9400137 123.5710951  82.1975010
  98.1307938 126.4767984  80.8521930  98.4546807 126.1944771  82.0396247
  98.0709462 127.6917645  80.3889172  97.8079043 127.8509920  79.4268596
  98.2454450 128.8874027  81.2889936  98.9727462 128.6695652  82.0710927
  98.7551275 130.0808049  80.4621513  99.4570036 129.7634706  79.6909392
  97.9335113 130.6292990  80.0014984  99.4824315 130.9969683  81.4758156
  98.7738704 131.1928951  82.2805856 100.3234745 130.4229104  81.8646682
  99.9857045 132.3132968  80.9139753 100.4339506 132.8633823  81.7413691
 100.7540673 132.0740514  80.1788021  98.9022213 133.1727109  80.2578734
  99.3691198 133.9417242  79.6424671  98.2664966 132.5448420  79.6335868
  98.1001470 133.7992904  81.2857903  98.6889618 134.3814720  81.8641166
  97.3844197 134.3669838  80.8550252  97.6670775 133.0868733  81.8558883
  96.8867925 129.3715510  81.8236315  96.0539529 129.7841305  80.9770075
  96.7204005 129.3226916  83.1595864  97.3159691 128.6513450  83.6229340
  95.7207688 130.0147876  83.9491240  94.7134111 129.6972544  83.6798615
  95.9791526 129.6454845  85.4704307  97.0073085 129.9840965  85.5982459
  95.3171416 130.2558313  86.0846931  95.8680620 128.1881290  85.8985424
  96.6709972 127.5928988  85.4636897  95.9839515 128.1698122  87.3706049
  95.1810239 128.7644940  87.8062191  95.9101862 127.1429379  87.7286394
  96.9463065 128.5884666  87.6650565  94.6006893 127.5450605  85.3849040
  94.5894133 127.5823263  84.2955998  94.5610139 126.5063144  85.7128271
  93.7361824 128.0820351  85.7752692  95.6360979 131.5027192  83.7131908
  96.5722187 132.1405718  83.2533910  94.4652613 132.0247255  84.0190080
  93.7596877 131.3280637  84.2111734  94.0574049 133.4185152  83.9519606
  94.8732391 134.0799961  84.2434342  93.6663026 133.7310297  82.4838504
  93.2165972 132.8049208  82.1258189  92.9208477 134.5261083  82.4681352
  94.7744683 134.1027069  81.5724565  95.7044338 134.8081426  81.9076917
  94.7302608 133.7165559  80.3314686  95.4800394 133.9642157  79.7017094
  93.9463557 133.1707989  80.0032265  93.0136970 133.6377708  85.0337793
  92.0884473 134.4431908  84.9109886  93.0531425 132.8769594  86.1252568
  93.8709449 132.2970059  86.2475369  91.9156409 132.7247486  87.1041700
  90.9429835 132.5342642  86.6505705  92.1907559 131.6177797  88.1865472
  93.0942565 131.8691293  88.7420733  90.9687116 131.5373367  89.1798450
  90.0648653 131.2855544  88.6250762  91.1595310 130.7699792  89.9300788
  90.8358028 132.5007943  89.6719695  92.5906263 130.2290380  87.5982834
  93.5021782 130.3320740  87.0095909  92.7621252 129.5247820  88.4123542
  91.7873150 129.8587293  86.9613665  91.4819111 134.0462438  87.8043286
  90.2641148 134.2571855  87.9205210  92.4359634 134.8856051  88.0361773
  93.3650901 134.5234877  87.8758842  92.3042493 136.1723539  88.6743175
  91.2736716 136.3227775  88.9958475  93.2234088 136.2545845  89.9106823
  94.1579760 135.9315937  89.4520317  93.3458567 137.2594876  90.3147570
  92.8491514 135.2874718  91.0469453  91.7195606 135.4181610  91.5098729
  93.7501787 134.5893573  91.5357562  92.4419214 137.3210864  87.6449736
  92.5556741 138.4735804  88.0407450  92.1762324 137.1641315  86.3509754
  92.4683045 136.2556407  86.0201617  91.6316292 138.0909613  85.4011654
  92.1962380 139.0220838  85.4494033  91.6977097 137.5533951  83.9726007
  92.6969917 137.1827220  83.7442672  90.9717813 136.7536354  83.8259290
  91.3849052 138.6458204  83.1042983  91.4156886 138.3484279  82.1920429
  90.2092522 138.5442613  85.6523398  89.3128562 137.7088210  85.8387845
  90.0444716 139.8501106  85.4781355  90.9257452 140.3418462  85.5187828
  88.8246929 140.6306717  85.3913408  87.9944488 140.0057425  85.7203658
  88.8507195 141.9119847  86.2547860  89.3083085 142.7780307  85.7765853
  87.7819535 142.0876395  86.3771974  89.4608128 141.7342342  87.6009182
  89.0606247 140.8157476  88.2579181  90.4937072 142.3787151  88.0406721
  90.8419593 142.1942152  88.9706076  90.9464975 143.0630294  87.4517785
  88.3720178 140.9697696  84.0185149  87.3123230 141.5704195  83.9194671
  89.0441171 140.4901250  82.9701860  89.7423778 139.7769964  83.1250374
  88.8001554 140.9620104  81.5474686  87.7602471 141.2373782  81.3717918
  89.7054046 142.2629067  81.3864499  89.3635604 142.7076049  80.4518456
  89.4059421 142.8970746  82.2208678  91.2526195 142.1353767  81.3630414
  91.6577985 141.9120642  82.3499874  91.4899424 141.3195015  80.6803081
  91.8573268 143.4054581  80.8515031  92.7320461 143.2920990  79.9355752
  91.4622080 144.5418071  81.2753121  89.1701452 139.9800749  80.4481228
  88.7528253 140.1584455  79.2923377  89.8217703 138.8684871  80.6609404
  90.3155390 138.7853519  81.5380837  89.8519045 137.7454422  79.7469168
  90.1134686 138.0760573  78.7417417  90.8883708 136.7663680  80.2145410
  90.7989552 136.6438228  81.2939328  90.7168874 135.8076445  79.7251099
  92.3266705 137.2810429  79.8649801  92.3437136 138.2515177  80.3609529
  93.1076733 136.6460696  80.2832449  92.6053805 137.4845411  78.4007344
  92.4928412 136.5217058  77.6140064  93.0789762 138.5935700  77.9804643
  93.2625116 138.7198711  76.9953429  93.2677323 139.3390760  78.6352111
  88.4886075 137.0567938  79.7648487  87.8187319 137.0551702  80.8070978
  88.0100536 136.4053384  78.6848293  88.5693531 136.4178006  77.8439201
  86.7801041 135.7109099  78.6608680  86.0542168 136.3504647  79.1630197
  86.5054344 135.6048207  77.6113914  86.7681933 134.3570284  79.3080195
  86.0712189 134.1077178  80.2786599  87.5706155 133.4573804  78.8028067
  87.7731833 133.5716635  77.8199511  88.1331077 132.2804264  79.5032015
  87.3699105 131.7337265  80.0570502  88.7061185 131.3496467  78.3952780
  89.0317687 130.4259398  78.8736260  87.8994110 131.1310467  77.6956087
  89.7691196 131.9145077  77.7115773  90.0821714 131.3006061  77.0432036
  89.1798714 132.5068952  80.5603722  90.0633741 133.3999992  80.4630211
  89.2841641 131.5665574  81.4669007  88.5444096 130.8811946  81.4108605
  90.2227613 131.5283601  82.6845764  90.7738025 132.4626736  82.7918663
  89.3473947 131.3317815  83.9243071  88.8669102 130.3833693  83.6839987
  89.9011633 131.2316804  84.8578059  88.2670685 132.4332737  84.0801443
  86.9912138 132.2303160  83.5842432  86.6791131 131.2817375  83.1473319
  86.0950739 133.2895251  83.6578518  85.1289895 133.1868348  83.1636479
  86.4590222 134.5393290  84.2756996  85.5038872 135.5358380  84.4937841
  84.6267566 135.2869026  84.1933300  87.7870773 134.6941287  84.7564706
  88.0845398 135.6055889  85.2749846  88.7062092 133.6765836  84.5622242
  89.7602393 133.8447249  84.7832422  91.4555392 130.6148809  82.6230342
  92.1561500 130.5605732  83.5974778  91.6610653 129.8728321  81.4898790
  91.0664347 130.0936855  80.7039162  92.6281248 128.7683737  81.3464856
  93.6444408 129.0393993  81.6323984  92.1966841 127.5213843  82.1683648
  92.2195296 127.8078908  83.2197883  90.8352597 126.9970669  81.8231083
  90.8117742 126.7099021  80.7718777  90.6125016 126.1277285  82.4417601
  90.0902602 127.7718212  82.0043077  93.1162768 126.2635554  82.1941854
  94.0890447 126.5324118  82.6059389  92.6602787 125.4921338  82.8147288
  93.2436422 125.8850707  81.1799723  92.7728794 128.4093929  79.9069830
  91.7566556 128.0694629  79.2837304  93.9336046 128.5461680  79.3472075
  94.6113127 128.9824659  79.9558578  94.2275398 128.4868225  77.8989429
  93.4641609 127.8566429  77.4426258  94.1554520 129.9013121  77.2540037
  93.2326158 130.3816705  77.5791627  95.3574436 130.7714225  77.6616409
  96.2806849 130.2919052  77.3363879  95.2728645 131.7515981  77.1923833
  95.3713933 130.8879603  78.7453042  94.2268140 129.7783353  75.6772510
  93.3898909 129.1777814  75.3208850  94.1758591 130.7719953  75.2321184
  95.1638950 129.3004353  75.3916087  95.3716137 127.5642789  77.4764099
  96.3997058 127.5709979  78.0663060  95.1512274 126.6879786  76.4818845
  94.2020513 126.5332863  76.1732838  96.2126346 125.8324028  75.9288656
  96.5742222 125.1323452  76.6820410  95.5103182 125.0586412  74.8533762
  95.1504112 125.7452372  74.0871172  96.2035334 124.3464716  74.4057518
  94.6657787 124.5209778  75.2843869  97.5079639 126.6472257  75.4940016
  97.4415505 127.8262787  75.1654742  98.6775973 126.0464338  75.6614342
  98.7318667 125.0774101  75.9409825  99.9417305 126.7578336  75.3354391
  99.7173449 127.8003381  75.1097520 100.9517406 126.7114474  76.5169051
 100.9121887 125.7113393  76.9485517 101.9468445 126.8920727  76.1104045
 100.6547478 127.7260634  77.5796119 100.8184663 128.6802318  77.0787530
  99.5897944 127.5950359  77.7714663 101.5471904 127.7193670  79.1520544
 103.1217994 128.3038970  78.5995427 103.0075326 129.2929192  78.1558341
 103.8055829 128.3629365  79.4463337 103.5243557 127.6166882  77.8553694
 100.5725562 126.0085106  74.2359334 101.2507776 126.6449314  73.4102759
 100.5154778 124.6968352  74.2597395  99.7861663 124.3488946  74.8656615
 101.3203268 123.7731037  73.5974563 101.3556830 123.9898715  72.5298136
 102.7496385 123.8631891  74.1657439 103.0970693 124.8919363  74.0705055
 102.7226121 123.5854459  75.2194177 103.7158560 122.9205857  73.4087714
 104.5815187 122.9599384  74.0699675 103.4373801 121.8808300  73.2371368
 104.0644918 123.5834619  72.0709231 105.1141050 124.1874788  71.8881731
 103.1705312 123.7085350  71.1986025 100.6598758 122.4010776  73.8487603
 100.5689567 122.0481254  75.0740245 100.3003886 121.6315001  72.8200856
 100.3371941 121.9914063  71.8771051  99.7645862 120.2645151  73.0306060
  99.5884707 120.1108371  74.0952494  98.4763460 120.1645628  72.3207575
  98.6915833 120.3320651  71.2654299  97.7347588 118.8303053  72.4859949
  97.5187529 118.6623227  73.5410887  96.8007876 118.8612168  71.9248877
  98.3575317 118.0188309  72.1094796  97.5721406 121.1388445  72.8259483
  96.7350564 121.0700672  72.3610182 100.7893829 119.2188297  72.5575746
 101.6819012 119.3703934  71.7101824 100.5572910 118.0198362  73.1403754
  99.6749771 117.8816002  73.6120875 101.6085369 116.9108470  73.2280277
 102.4021175 117.1364072  72.5156712 102.2213606 116.7632780  74.6040366
 101.4302191 116.5893143  75.3333726 102.9691512 115.9743624  74.6847920
 102.9006888 118.0417764  75.0037167 102.2172085 118.9487124  75.8566344
 101.2426978 118.7200160  76.2880587 102.8477525 120.1921071  76.1423021
 102.3037333 120.8865345  76.7825475 104.1621474 120.5568468  75.6202851
 104.6303323 121.5066589  75.8786642 104.8463184 119.6256285  74.7410255
 105.8135007 119.8240567  74.2791978 104.1752739 118.3850281  74.4927196
 104.6475622 117.6249928  73.8703128 100.9452507 115.6135288  72.7194740
 100.1018794 115.0537753  73.4746076 101.2509229 115.1950793  71.5046779
 101.9222364 115.7832732  71.0319566 100.6104422 114.1605371  70.7553262
  99.5268644 114.2784026  70.7472008 101.0992298 114.1926237  69.3616669
 100.8258840 115.1873253  69.0096002 102.5528677 113.9384145  69.0668054
 102.8268553 112.9436498  69.4181937 102.7228649 114.0031590  67.9920923
 103.1632744 114.6840448  69.5762559 100.4092296 113.2546231  68.5893686
 100.7335564 113.2829605  67.6862576 100.6422137 112.7959074  71.3883240
 101.5912762 112.4644020  72.0219639  99.5781236 112.0427158  71.3460444
  98.7661566 112.4334843  70.8898548  99.4368706 110.7327703  72.0368450
 100.4253463 110.2868390  72.1471189  98.8003763 110.8639192  73.4266414
  99.4523600 111.4689189  74.0567144  97.8979199 111.4280312  73.1911633
  98.4082694 109.6243021  74.1893809  99.1394910 108.6757485  74.1860452
  97.3358956 109.6753935  74.9074290  97.0436173 108.8630368  75.4315947
  96.7946675 110.5274621  74.9413698  98.6836019 109.6798863  71.1517199
  97.5111394 109.9618683  70.8025038  99.2657665 108.5384508  70.7848053
 100.2510232 108.4204109  70.9730475  98.5570351 107.4612485  70.0759500
  97.9657336 107.8473175  69.2456413  99.6047357 106.5435969  69.5305949
 100.2027120 106.3087223  70.4111387  99.0855870 105.6459915  69.1946050
 100.5327147 107.0589112  68.3977170 101.1131324 107.9109442  68.7516320
 101.4610040 105.9535588  68.0005420 100.8812910 105.1012846  67.6460561
 102.1201266 106.3002790  67.2046505 102.0584248 105.6531821  68.8613339
  99.7880510 107.5736039  67.1527666  99.1387310 108.4026778  67.4340482
 100.5108450 107.9142159  66.4113803  99.1865075 106.7689062  66.7300303
  97.5968798 106.7288315  70.9739746  96.5064022 106.3844372  70.5601651
  97.8947495 106.4058528  72.2385948  98.7710325 106.7780277  72.5758089
  97.0604362 105.5561918  73.1847510  96.8573867 104.6031157  72.6963699
  97.6429313 105.3833169  74.0896891  95.7118993 106.2235195  73.5713721
  95.6045344 107.4443927  73.5323547  94.7538520 105.4581295  73.9936559
  93.5145575 105.9255580  74.5510119  92.9898635 106.4790179  73.7722445
  93.7550862 106.5978669  75.3745687  92.7315468 104.6707350  75.0209562
  91.8903849 104.4840285  74.3533588  92.3631157 104.8194101  76.0359712
  93.7701498 103.5047221  74.9698912  93.3837670 102.5260842  74.6851543
  94.2786312 103.4284314  75.9309979  94.7336101 104.0049103  73.9139177
  95.7334221 103.6737561  74.1946509  94.3617697 103.4071771  72.5535535
  93.3485586 103.7269019  71.9662944  95.1501095 102.4141755  72.0958360
  96.0453224 102.1934917  72.5081366  94.8036216 101.7936302  70.8259531
  94.0940672 102.3177411  70.1856878  96.1088440 101.5427863  70.0475934
  96.7735418 100.9923132  70.7133686  95.9293202 100.7470496  68.7183894
  95.2650673 101.2971604  68.0518708  96.8991821 100.6173680  68.2381277
  95.4980588  99.7696750  68.9348421  96.8800361 102.8986435  69.8722563
  96.3636577 103.4778268  69.1067494  96.8352889 103.4314003  70.8221339
  98.3309638 102.7062259  69.4681270  98.3765108 102.1739091  68.5180406
  98.8112854 103.6789597  69.3623948  98.8481416 102.1274802  70.2334246
  93.9034440 100.6544124  71.0073035  94.2463401  99.5048120  71.2838903
  92.5985417 100.8754416  70.8865682  92.2774278 101.8027017  70.6474575
  91.5585547  99.7826687  71.0951622  91.7481018  99.2051071  71.9999238
  90.1880012 100.4683192  71.2278098  89.3956291  99.7198258  71.2259554
  90.1565653 101.2364878  72.5409826  90.9484174 101.9855308  72.5433918
  89.1906114 101.7293253  72.6511854  90.3081190 100.5456409  73.3703580
  89.9252536 101.4359102  70.0506389  89.9449831 100.8813467  69.1124640
  88.9486172 101.9036475  70.1751491  90.6966855 102.2057762  70.0333151
  91.5232059  98.7860657  69.9036509  91.1096802  97.6476832  70.1014712
  91.9007416  99.2347730  68.7144817  92.1628134 100.2082126  68.6525710
  91.8095975  98.4542216  67.4659216  92.2788683  97.4792516  67.5975174
  90.3179974  98.2402276  67.0869058  89.7520578  98.0709674  68.0029639
  89.9115959  99.1060287  66.5640996  90.2131337  97.0039060  66.1859177
  91.1062736  96.1088306  66.1688876  89.2349538  96.8930701  65.4210402
  92.6663059  99.0722992  66.3213301  92.7025035 100.2934560  66.2334274
  93.2866571  98.3214353  65.4557558  93.1353400  97.3281605  65.5587494
  94.2357572  98.7824027  64.4191604  93.8954739  99.7334339  64.0094702
  95.6649059  98.9797198  65.0182755  96.1548049  99.6358963  64.2988796
  95.4807765  99.5276455  65.9423825  96.5448015  97.8078866  65.3019524
  95.9416376  97.0302116  65.7704776  96.9417348  97.4388031  64.3562657
  97.8819114  98.2236341  66.3676424  98.7234502  96.5899379  66.1765842
  98.9712410  96.4287825  65.1274285  99.6371102  96.5795796  66.7709064
  98.0591713  95.7962763  66.5185432  94.3245740  97.9013760  63.2235226
  94.2793918  96.6606103  63.3565226  94.6727337  98.4894111  62.1035403
  94.8563583  99.4824899  62.0902816  94.6876116  97.7746904  60.8512867
  94.7724086  96.7081087  61.0594025  93.4016562  98.0161729  60.0036629
  93.4321305  97.4049277  59.1016930  92.5186635  97.7570737  60.5878645
  93.1589052  99.6784541  59.4605834  92.0192763  99.4486304  58.8145761
  95.9280406  98.0982919  60.0649694  96.4273325  99.2581871  60.1864458
  96.4705117  97.1784200  59.2538375  96.4326309  96.2000495  59.5017400
  97.3390638  97.5830001  58.1284700  97.6129457  98.6379720  58.1395169
  98.6439856  96.7297261  58.0805149  98.3543839  95.7597124  58.4846234
  99.3426311  96.5334602  56.7423519  99.6329642  97.5030758  56.3378111
 100.2312719  95.9180474  56.8826558  98.6646227  96.0385243  56.0470500
  99.7013063  97.2670282  59.0964407  99.2917064  97.2225092  60.1055730
 100.6013975  96.6546021  59.0428716  99.9498556  98.2995382  58.8509876
  96.6583596  97.6912967  56.8466359  95.8953807  96.7820633  56.5753302
  96.9268102  98.7395734  56.0702596  97.3996319  99.5230779  56.4976467
  96.3547296  98.9188604  54.7521037  96.2734519  97.9317294  54.2970590
  94.9837779  99.6383799  54.6252138  95.0837944 100.6902342  54.8929793
  94.5287991  99.5256990  53.1881799  94.4281033  98.4740639  52.9198054
  93.5663464 100.0237797  53.0711289  95.2633902  99.9978814  52.5358599
  93.9010181  99.0561938  55.5852447  94.2358449  99.1604956  56.6172885
  92.9655525  99.5992335  55.4506651  93.7439401  98.0014338  55.3596152
  97.4639422  99.4633253  53.8509231  97.9878029 100.5789994  54.0600458
  97.8205299  98.7131556  52.8258672  97.6445545  97.7242109  52.9313204
  98.6352607  99.1755299  51.6323741  99.4583202  99.8228609  51.9350865
  99.2214821  97.9073215  50.9726607  99.6264273  97.2588058  51.7495429
  98.4903010  97.3542738  50.3830739 100.3387252  98.3748436  50.0764113
 100.8513974  99.5409751  50.1770772 100.7618348  97.6104598  49.1572363
  97.9758280 100.1635614  50.6112163  97.5501016  99.7680769  49.4893972
  97.8161004 101.3940070  51.0759374  98.3004650 101.6639667  51.9201009
  96.9886988 102.4418131  50.3549304  95.9399255 102.1607083  50.2592552
  97.0853388 103.6961854  51.2668519  98.1062727 103.5464938  51.6181147
  97.0000409 104.6816157  50.8088656  96.1086801 103.5975282  52.4635438
  95.9079380 102.5378358  52.6212000  96.6242194 104.2129694  53.7548642
  96.8247618 105.2728323  53.5981089  95.8745482 104.0974603  54.5376486
  97.5434386 103.7104214  54.0558324  94.6415891 103.9952265  52.1854177
  94.2303148 103.3493151  51.4096913  94.0554886 103.8849429  53.0977909
  94.6026411 105.0323474  51.8523075  97.6749186 102.7225108  48.9830429
  98.8629518 102.9557747  48.8697774  96.8360068 102.6326987  47.8963839
  95.9055984 102.3326879  48.1502203  97.1880595 102.7098467  46.4305718
  96.2627864 102.7187483  45.8544731  98.0283870 103.9959022  46.0567176
  99.0273927 103.8886838  46.4793180  98.0985013 104.0570820  44.9706969
  97.3735338 105.2846238  46.6037771  96.3361367 105.3662769  46.2793687
  97.4058692 105.1453238  47.6843553  98.1208269 106.5552006  46.2346152
  99.3727516 106.5982060  46.4508654  97.5712579 107.5095865  45.6512735
  97.7869542 101.4131982  45.8844170  98.3915832 101.4557258  44.7428465
  97.7332054 100.2667293  46.5933959  97.0971317 100.2563930  47.3778720
  98.6421551  99.1408850  46.4265099  98.7267964  98.5870204  47.3614800
  98.1015838  98.1779102  45.3235452  98.0667226  98.6799759  44.3566874
  98.7269606  97.2883534  45.2480949  96.6197681  97.7530159  45.7577571
  96.4885739  97.7991626  46.8388489  95.8653540  98.3733909  45.2739222
  96.4708280  96.3385236  45.2980427  96.5737303  96.3520680  44.2129958
  97.2998616  95.7812196  45.7341793  95.2538045  95.6814177  45.6323954
  94.4823627  96.2782153  45.8947111  95.0485447  94.3724989  45.5698262
  96.0821231  93.5580178  45.2693678  96.9964923  93.9504416  45.0960686
  95.9364627  92.5598364  45.2192036  93.8663033  93.9274061  45.8621111
  93.1376203  94.5746521  46.1270522  93.6796560  92.9355551  45.8234685
 100.1208163  99.5054053  46.2265202 100.7863236  99.0043365  45.3597913
 100.6633679 100.3932686  47.0834599  99.9978175 100.7911286  47.7306457
 102.0029247 100.9792771  47.0179208 102.2613121 101.2066463  45.9836875
 102.0472071 102.2942242  47.8406662 101.0930582 102.7894964  47.6606536
 102.1061722 101.9890620  48.8854146 103.1560442 103.2320360  47.5363450
 103.2806012 104.0043463  48.2953728 104.0208274 102.5686310  47.5484302
 103.0728650 103.9156829  46.1398594 102.2262861 103.6020126  45.3278396
 103.8493742 104.9295949  45.9280365 103.8264712 105.4015164  45.0353624
 104.4744398 105.2439390  46.6564471 103.1623773 100.0012999  47.3007554
 104.2710967 100.3505315  46.9100322 102.8737408  98.8037881  47.8322677
 101.9066903  98.5638361  47.9976029 103.9151356  97.8113047  48.1899150
 103.4858141  96.8184153  48.0559269 104.7482639  97.9425423  47.4994273
 104.4233033  97.9386457  49.5999483 105.3673912  97.2723985  50.0668902
 103.7900453  98.7383459  50.3990590 102.9130655  99.0850715  50.0374138
 104.2283152  99.2087247  51.6530655 104.7445763  98.4259241  52.2087605
 105.2432970 100.3993860  51.3932894 106.0817309  99.9815013  50.8360640
 104.7213862 101.1271382  50.7719313 105.7659002 101.0909793  52.6624295
 105.1582226 101.9683824  52.8837724 105.5974591 100.3310910  53.4255150
 107.2402198 101.4969311  52.6939707 107.6494163 102.1793624  51.7384416
 108.0105740 101.2302911  53.7210338 108.9800645 101.5131751  53.7081398
 107.6308608 100.7432713  54.5202403 103.0958199  99.6311690  52.5428239
 102.5752909 100.7228545  52.3865636 102.5944584  98.7131054  53.3046703
 102.9847859  97.7925297  53.1622475 101.5625080  98.8735534  54.3077588
 100.6040153  98.8791805  53.7887604 101.6132633  98.0066948  54.9666059
 101.6799312 100.1390298  55.1445421 102.7815465 100.4748269  55.5916238
 100.5403564 100.7748531  55.4344095  99.6654789 100.6063327  54.9587105
 100.5784998 101.8535148  56.5306865 101.6166843 101.9601056  56.8451868
 100.0511038 103.2240078  56.1177683  98.9646267 103.1858775  56.0389473
 100.3347872 103.9627415  56.8673657 100.6575404 103.6236905  54.7399459
 101.7420340 103.6134407  54.6309997 100.2174008 102.8971711  54.0569021
 100.1531554 104.9867642  54.3788105  99.9280583 105.8208586  55.2250988
 100.1206887 105.3594241  53.0836281  99.7815870 106.2774090  52.8337976
 100.4356153 104.7189452  52.3689888  99.7406527 101.2532978  57.6399475
  98.7207555 100.5733657  57.3486196 100.0071301 101.6613527  58.9002827
 100.8126752 102.2613825  59.0059273  99.2584954 101.2998627  60.0886110
  98.6840679 100.3886404  59.9218592 100.2541093 101.0506045  61.2350095
 100.9592013 100.2737787  60.9392288 100.7740048 102.0063313  61.3013039
  99.6582990 100.7043162  62.5872755  99.0013382 101.5319525  62.8547108
  98.8709972  99.3860127  62.6467885  99.5274611  98.5578048  62.3799073
  98.4891999  99.2354951  63.6565786  98.0370771  99.4282918  61.9461530
 100.7109431 100.4487922  63.6713981 101.3217025 101.3419289  63.8032285
 100.2142385 100.2069754  64.6110312 101.3466346  99.6154758  63.3721006
  98.3040496 102.4248122  60.4356782  98.7046423 103.5657947  60.4842316
  97.0129903 102.0514560  60.6731039  96.8064844 101.0866453  60.4572451
  95.9238856 102.9183999  61.0251809  96.3011337 103.8740538  61.3891982
  95.0531543 103.1710182  59.8255843  94.5389891 102.2440656  59.5716309
  94.0231524 104.2658747  60.0991009  94.5366080 105.1933212  60.3526897
  93.4120828 104.4208977  59.2099090  93.3849110 103.9655938  60.9301129
  95.7850595 103.6077347  58.5556281  96.4946372 102.8347316  58.2605559
  95.0626200 103.7621124  57.7541618  96.3202800 104.5380414  58.7458101
  95.1088357 102.5029378  62.2507387  94.4187906 101.5081312  62.2943804
  95.3365037 103.2720458  63.2770730  95.8291680 104.1425857  63.1372819
  94.8693835 102.9302782  64.6703808  94.6076562 101.8733956  64.7213450
  95.9311657 103.2191917  65.7202653  95.5432892 102.8415306  66.6663224
  97.3075700 102.5969231  65.4470420  97.6963206 102.9744923  64.5013073
  97.9927815 102.8613577  66.2524356  97.2123517 101.5124307  65.3930954
  96.0697600 104.6495512  65.7818890  96.7339611 104.8787884  66.4360201
  93.6394201 103.7736336  65.0476456  93.6340316 104.9725874  65.0359113
  92.7080344 103.0761992  65.6551972  92.5556512 102.0990913  65.4499202
  91.8271157 103.7310008  66.6540441  91.3734841 104.6232482  66.2225210
  90.6865699 102.7512308  67.0910418  91.0656529 101.9414322  67.7144369
  89.8866496 103.2710368  67.6183265  89.9310050 101.9801233  65.6920657
  89.0580305 101.2562601  66.3869296  92.6280841 104.1509949  67.8623427
  93.6363128 103.5344885  68.2325746  92.3221898 105.3436912  68.4613630
  91.3967545 105.6176296  68.1636606  93.0930597 106.2805728  69.2927699
  93.5946123 105.7215504  70.0827307  94.1773592 107.0602512  68.4627789
  95.0002745 106.4083706  68.1695874  93.7449362 107.5205853  67.5744080
  94.6512602 108.0491459  69.3111887  95.3226682 108.5645884  68.8582758
  92.2199597 107.2414487  70.0923597  91.0939770 107.6459446  69.7797083
  92.6801956 107.5570403  71.2968541  93.5763133 107.1914870  71.5857195
  91.9339779 108.4285165  72.2461857  92.5392833 108.5544006  73.1438815
  91.7808175 109.3983924  71.7729182  90.6038229 107.8587873  72.6313380
  90.3880251 106.6249693  72.5981934  89.7436237 108.6989644  73.2365510
  90.1428526 109.5917246  73.4889293  88.3667357 108.3952373  73.6829963
  87.9402133 107.8154499  72.8644462  88.3588546 107.5314946  74.9521655
  88.7746958 108.1016444  75.7828913  87.3351723 107.2407692  75.1880756
  88.9610927 106.6379450  74.7879164  87.4748550 109.6752367  73.8411717
  88.0217212 110.7617795  74.1524614  86.1551307 109.5390798  73.7450006
  85.8117186 108.6054162  73.5705310  85.1631331 110.6421798  73.8836777
  84.1711781 110.3117671  73.5755351  85.1038671 111.0640866  75.3724957
  86.0766985 111.4504108  75.6765549  84.3316948 111.7943045  75.6146359
  84.8299819 109.8309725  76.2425075  83.6346874 109.2086069  76.3561251
  82.8014686 109.6028526  75.7743892  83.4491165 108.1153448  77.1692337
  82.4789410 107.6255057  77.2524066  84.5492724 107.6298742  77.9051061
  84.4284774 106.7537480  78.5422180  85.8328620 108.2882896  77.8175919
  86.7181883 107.9475988  78.3544600  85.9050846 109.4075713  76.9994682
  86.8302034 109.9809964  76.9408256  85.6270656 111.8480205  73.0076499
  85.9043668 111.6297682  71.8440709  85.6470534 113.0705996  73.5124269
  85.2740510 113.2175336  74.4394538  86.0660450 114.2710877  72.7157001
  85.5053811 114.3318890  71.7829309  85.7744641 115.5358698  73.5494602
  85.8830576 116.4068324  72.9031392  84.7484285 115.4795304  73.9130216
  86.7249376 115.6600392  74.7313587  86.5529598 114.8397830  75.4282836
  87.7556722 115.6262121  74.3784508  86.4692343 117.0085795  75.4486096
  86.2487020 117.7763394  74.7069836  85.6209673 116.9031397  76.1249416
  87.7212303 117.4161551  76.2538637  88.1278603 116.5264486  76.7346701
  88.4588851 117.8244470  75.5630219  87.3958228 118.4318324  77.2871345
  86.7126295 118.0535448  77.9276383  88.2341120 118.6762242  77.7947208
  87.0194134 119.2564996  76.8417817  87.4987760 114.1368166  72.2570377
  87.8428212 114.6742062  71.2247086  88.3225654 113.4059245  73.0277793
  88.0675810 113.2519142  73.9928509  89.7305404 113.0708978  72.5971223
  90.1524598 113.8748583  71.9940214  90.5581609 112.9024257  73.8007034
  90.2345768 111.9499821  74.2205173  91.5743257 112.8040804  73.4188170
  90.5244927 113.9804269  74.8928970  89.5192106 114.0084511  75.3132819
  91.2227171 113.6155424  75.6461839  90.9223248 115.3474022  74.4705061
  90.1100563 116.2731383  74.5764953  92.1096231 115.4970825  74.0680084
  89.8749777 112.0001961  71.5207689  90.9173815 111.8905733  70.8501958
  88.7810182 111.3543775  71.0614379  87.9092762 111.6566826  71.4722624
  88.7416997 110.2685864  70.0344920  89.3691937 109.4436125  70.3717877
  87.7134864 109.9226264  69.9287169  89.2332960 110.7414845  68.7087101
  88.7225929 111.6698821  68.1031185  90.1523306 109.8959305  68.2512925
  90.4252562 109.1561544  68.8824363  90.8954186 110.0392526  66.9670632
  90.2725872 110.5589103  66.2389588  92.2168306 110.8634808  67.1767116
  92.8102428 110.8136167  66.2637633  91.9543676 111.9011796  67.3826106
  92.9821693 110.3353915  68.2754906  93.7832881 110.8528267  68.3853513
  91.2267490 108.7707364  66.1550985  91.1113010 107.7065048  66.6643370
  91.7510201 108.9670746  64.9013724  91.6968087 109.9116029  64.5477812
  92.3031883 107.9764922  64.0726911  92.4647125 107.0580227  64.6369808
  91.3357226 107.6785410  62.9157753  91.2748977 108.6743579  62.4767442
  91.8725641 107.0152178  62.2376135  89.8785386 107.1191739  63.1547967
  89.3224442 107.8359037  63.7590800  89.1787954 106.9090107  61.8743214
  89.7340888 106.1919972  61.2696399  88.1774192 106.5234713  62.0659095
  89.1067830 107.8559577  61.3393391  89.9063865 105.8351824  64.0007336
  90.3598666 106.0471488  64.9689926  88.8884414 105.4743635  64.1480382
  90.4906182 105.0726780  63.4856032  93.6458190 108.5109668  63.5965307
  93.8207052 109.6873469  63.2796794  94.6379412 107.5898460  63.5523502
  94.5194830 106.6085237  63.7598919  95.9989452 108.1030119  63.3748826
  95.9422388 109.0070001  62.7685090  96.6815993 108.4224420  64.6264663
  96.9832157 107.4636421  65.0481648  97.5683553 108.9878624  64.3399989
  95.8584196 109.2423133  65.7109415  95.6307160 110.2363966  65.3261685
  94.9293444 108.7203212  65.9399518  96.6806523 109.3656735  66.9552150
  96.8218742 108.3716849  67.3796466  97.6500369 109.7888187  66.6918879
  96.0534988 110.2217819  67.9640489  95.1733500 109.8433548  68.2837836
  96.4610563 111.3782365  68.4606772  97.6392209 111.9555769  68.2625356
  98.3284481 111.5026157  67.6795330  97.8413571 112.8453344  68.6956318
  95.6873664 112.0272389  69.2355792  94.7761089 111.6551178  69.4619321
  95.9884420 112.9112044  69.6203613  96.7264023 107.1354240  62.4867031
  96.4283645 105.9212691  62.3704866  97.6469821 107.6610599  61.6475883
  97.9840231 108.5918109  61.8481010  98.1149247 106.9875135  60.3778387
  97.8345985 105.9368918  60.3022708  97.4978519 107.7675722  59.2061720
  97.8229487 108.8004625  59.3308718  97.8584747 107.2878769  57.8073015
  97.5332535 106.2551369  57.6816833  97.3627377 107.9168609  57.0678932
  98.9380366 107.3476401  57.6691936  95.9909464 107.8104660  59.2967362
  95.6451276 106.8823108  58.8417218  95.7626227 107.7991436  60.3624940
  95.2994376 108.9701419  58.6510239  95.5269295 108.9818576  57.5850924
  94.2226234 108.8756612  58.7911804  95.6444267 109.8986911  59.1058633
  99.6631188 106.9047974  60.3522471 100.2827261 107.9008766  60.2793154
 100.2434498 105.7279030  60.4952348  99.6231258 104.9481872  60.3298845
 101.6280951 105.4431744  60.9070603 102.1767104 106.3850156  60.9145158
 101.8429717 104.7330288  62.2002278 101.4009850 103.7370655  62.1718516
 103.3990186 104.6105225  62.4034595 103.8416821 105.6061689  62.4324041
 103.6039441 104.0949385  63.3416915 103.8305060 104.0455067  61.5772180
 101.1277634 105.4638417  63.4018216 101.7668125 105.3026436  64.2699992
 101.1245713 106.5232359  63.1453589  99.6889601 105.0099206  63.7308224
  99.6914191 103.9506616  63.9878519  99.3092098 105.5869753  64.5739694
  99.0491781 105.1712520  62.8632101 102.2995243 104.6140411  59.7948001
 102.0890350 103.4067398  59.5662925 103.2049551 105.3643603  59.0853537
 103.4404749 106.2541421  59.5011881 103.9186368 104.9535267  57.8649726
 103.5591162 103.9773258  57.5395867 103.6882296 105.9455330  56.7555069
 102.6105526 105.9866830  56.5973355 104.0376302 106.9092908  57.1258989
 104.3830880 105.6261051  55.4370102 105.4498487 105.8234868  55.5426649
 104.2304851 104.5724863  55.2031256 103.7967257 106.5143710  54.2700390
 102.7264495 106.3356013  54.1668434 103.9695812 107.5695989  54.4814972
 104.4715612 106.1660608  52.9698970 103.9983637 105.4086675  52.4981567
 105.6199907 106.6155581  52.4596962 106.1821643 107.6563894  52.9690949
 105.7512486 108.1271358  53.7519164 107.0512574 107.9969066  52.5833167
 106.1686321 106.1291666  51.3384247 105.7075392 105.3838932  50.8363680
 107.0408391 106.5099701  51.0002791 105.4189736 105.0207381  58.1902434
 105.9005734 105.9284013  58.8926423 106.1870383 104.0199644  57.8052892
 105.7334361 103.1600022  57.5317763 107.7210689 104.0572011  57.8308514
 108.1151082 104.0509604  58.8471158 108.1663311 102.8131107  57.1394392
 107.8060129 101.9482856  57.6965276 107.6660050 102.8556486  56.1719867
 109.6476126 102.6547172  56.9091317 110.1809682 103.3570412  56.1066182
 110.2778424 101.8085825  57.6414046 111.2711016 101.6766376  57.5144149
 109.7772201 101.2791228  58.3407976 108.4101045 105.3304534  57.2032714
 107.8526760 105.8724787  56.2557045 109.5759096 105.7346935  57.7735935
 109.8804079 105.1656243  58.5504721 110.3891262 106.8516342  57.3891014
 110.3051176 107.0769051  56.3259482 109.8279497 108.0530149  58.1966417
 109.9135971 107.8461700  59.2634031 110.3959142 108.9512808  57.9544952
 108.7797876 108.2062573  57.9397914 111.8433336 106.6646643  57.7020059
 112.1692707 105.6876739  58.3270466 112.7286816 107.6008193  57.2515243
 112.3751751 108.4275409  56.7914549 114.1532836 107.4898793  57.4605396
 114.6352563 106.6576012  56.9475926 114.7478017 108.8066751  56.9281458
 114.2815204 109.6491654  57.4389215 115.8222421 108.8210048  57.1111014
 114.5611030 108.8833478  55.8569950 114.4833989 107.3781518  59.0158231
 114.6265547 108.4027946  59.6966481 114.7203794 106.1250791  59.4702788
 114.4732066 105.4531831  58.7578458 115.0669404 105.6320855  60.7901719
 115.0025925 104.5445888  60.8263593 116.5034349 106.0371403  61.0043753
 116.5825323 107.1239912  60.9799034 116.8444409 105.6702535  61.9724709
 117.1232595 105.6104106  60.2158206 113.9856618 106.0694370  61.7972872
 114.3320935 106.5810658  62.8798143 112.7289484 106.0955673  61.4108861
 112.4586931 105.4880697  60.6506176 111.6928679 106.9918981  62.0029252
 111.6685982 106.9923105  63.0926546 111.9605932 108.3930423  61.5277830
 111.9787977 108.4104745  60.4380745 111.1740000 109.0559897  61.8881608
 112.9233464 108.7298728  61.9121664 110.3558463 106.4668501  61.5523836
 110.2012024 105.4535892  60.8155901 109.3472830 107.1959778  62.0188842
 109.5233526 107.9471510  62.6706798 107.9294081 106.9951323  61.5191343
 107.9603538 106.3498472  60.6412114 106.9948457 106.3466252  62.5799475
 107.1113889 107.0038394  63.4416821 105.9502833 106.3383248  62.2686268
 107.4252882 104.9270530  62.9592610 108.5141049 104.9112180  62.9110074
 106.9788795 104.4597675  64.3105887 105.8900808 104.4748884  64.3594510
 107.3356124 103.4439018  64.4804689 107.3856391 105.1199944  65.0765832
 106.9962365 103.9045240  61.8766115 107.4595316 104.1659715  60.9252428
 107.3152770 102.9053100  62.1730667 105.9117062 103.9220917  61.7689802
 107.1992736 108.3002379  61.2098433 107.1320614 109.1629084  62.0887472
 106.6427565 108.4886183  60.0088372 107.0367346 107.9802957  59.2300633
 105.6300344 109.5057175  59.7314453 105.8979774 110.4005627  60.2931905
 105.4828233 109.8879882  58.2243329 106.4756337 110.3202057  58.0993746
 105.3020810 109.1596335  57.4338066 104.4922788 111.0109880  58.0126845
 104.2600939 112.1220423  58.8565384 103.5152076 112.9901198  58.1595700
 103.1160058 113.8500407  58.6974109 103.3978813 112.6303026  56.9032471
 103.0419530 113.1827661  56.1363058 103.8540627 111.3349927  56.7987825
 103.6849465 110.7698745  55.8821897 104.3185418 109.1617364  60.3396345
 103.7595371 108.0504668  60.1662260 103.8128019 110.1565573  61.0187115
 104.3366082 111.0132748  61.1271617 102.5048583 110.0576541  61.6637013
 101.8750576 109.2305621  61.3360290 102.7582363 109.9417215  63.2063475
 103.2258053 110.8672004  63.5424550 101.4701636 109.7100436  63.9889056
 101.0022288 108.7844390  63.6536537 101.6985971 109.6367021  65.0521740
 100.7876147 110.5431450  63.8210717 103.7983600 108.8944738  63.5239416
 103.6351926 108.1254701  62.7688850 104.7453204 109.3982175  63.3300141
 103.8399058 108.2447834  64.9153669 102.8933884 107.7404148  65.1098329
 104.6523336 107.5191331  64.9539917 104.0035139 109.0131630  65.6709626
 101.5250601 111.2166991  61.4244983 101.9298441 112.3279750  61.6676563
 100.2835930 110.8765177  61.0386070 100.0489507 109.8960564  60.9774689
  99.2126270 111.9051196  60.6583544  99.6242322 112.9078881  60.7729653
  98.7405697 111.7304466  59.2035358  98.5866956 110.6626993  59.0475299
  97.7868790 112.2509976  59.1163534  99.7261552 112.2731712  58.1323925
  99.8702054 113.3311075  58.3517580 100.6661673 111.7410713  58.2785053
  99.2612131 112.1084233  56.6563874 100.0442362 112.5104677  56.0134767
  99.1431367 111.0425687  56.4611661  97.9938982 112.7896532  56.3392048
  98.0859446 113.7606474  56.6014968  96.9225076 112.4188856  55.6490891
  96.6388222 111.1895695  55.2885488  97.2635137 110.4363342  55.5385431
  95.7970894 111.0022761  54.7627097  95.9795553 113.3076835  55.5089559
  96.0893832 114.2247191  55.9177144  95.1434378 113.0752257  54.9922648
  98.0168499 111.7204660  61.6437036  97.6877117 110.5795874  61.9082959
  97.3195273 112.7989436  62.0723916  97.5308802 113.7397056  61.7717321
  96.1817974 112.5966811  63.0374567  95.9185903 111.5519399  63.2027954
  96.6521521 113.2084533  64.3834386  96.9728235 114.2215011  64.1405308
  95.6320082 113.2553514  65.5518692  95.3112079 112.2425588  65.7956684
  96.1004137 113.7078566  66.4259026  94.7668284 113.8486259  65.2559135
  97.7771394 112.5471177  64.8976697  98.0358909 112.9540641  65.7277556
  94.7947669 113.2439239  62.6953935  94.7098892 114.4807060  62.5441298
  93.7717579 112.4379200  62.5195916  93.9668855 111.4492149  62.4526081
  92.3852968 112.8817352  62.3823769  92.3205314 113.9159394  62.0442551
  91.6535307 111.9867396  61.3688232  91.5581967 111.0139456  61.8511949
  90.2507215 112.4664290  60.8851482  90.3453242 113.4390213  60.4022243
  89.8450623 111.7463896  60.1744553  89.5798741 112.5496386  61.7402164
  92.5008053 111.8025494  60.1354150  93.4458174 111.3337705  60.4098245
  91.9738568 111.1671907  59.4235553  92.6961670 112.7733364  59.6798854
  91.5310479 112.8922829  63.6746886  91.4158126 111.8073155  64.3094180
  90.9550850 114.0092235  64.1155189  91.4113136 115.3489189  63.6572441
  91.1588436 115.4913018  62.6064890  92.4895405 115.4419361  63.7871424
  90.6281285 116.2864219  64.5830838  89.6408079 116.5232505  64.1865875
  91.1702077 117.2107492  64.7827602  90.5308368 115.4165513  65.8590499
  89.7241914 115.8177028  66.4726455  91.4443428 115.3618988  66.4511812
  90.1589264 114.0411624  65.3572151  90.4886226 113.2201041  65.9938169
  88.6201540 113.8996666  65.0765597  87.9836327 114.6225589  64.3144584
  88.0268662 112.8512757  65.5541872  88.5824394 112.1961195  66.0854199
  86.5579640 112.6072168  65.4435553  86.2333777 112.8086275  64.4226848
  86.2118954 111.1777752  65.7868545  86.4991639 111.0912661  66.8347535
  85.1460270 110.9737823  65.6848175  87.0186907 110.1517585  64.9423161
  88.0824588 110.2984691  65.1293301  86.6355704 108.7483011  65.3095109
  85.5719598 108.6006822  65.1223215  87.2109380 108.0447966  64.7077348
  86.8450971 108.5784243  66.3656079  86.9590848 110.3004002  63.4200780
  87.3440689 111.2794152  63.1347426  87.5645409 109.5226933  62.9545716
  85.9261376 110.2050941  63.0853605  85.6848999 113.4068934  66.4456489
  84.5594194 113.7250337  66.0805813  86.1577484 113.6070252  67.6529655
  87.0696175 113.1813878  67.7391457  85.5011668 114.1533396  68.9000590
  86.2011952 114.1237932  69.7350360  85.0762905 115.5949249  68.6732527
  84.3198715 115.4949102  67.8948399  84.6053562 115.9364119  69.5950485
  86.1250926 116.6076154  68.2341764  86.8549792 117.3086093  69.2134695
  86.7451656 116.9542676  70.2384000  87.6823985 118.3977469  68.9365984
  88.0430934 119.0313531  69.7468726  87.8973876 118.7880959  67.5667585
  88.7925930 119.7781276  67.2386130  89.2323966 120.1549765  68.0042221
  87.2975309 117.9865775  66.5702599  87.5669016 118.1913467  65.5341086
  86.3556599 116.9240694  66.8797910  85.8478373 116.3940727  66.0739872
  84.4109572 113.2603266  69.5011345  83.5524972 113.7597886  70.2506257
  84.4467743 111.9140354  69.2650769  85.1134198 111.7239710  68.5305302
  83.6887432 110.7601335  69.8541721  83.4384111 110.9663732  70.8947961
  82.3615271 110.5377289  69.0551311  81.8343426 109.7066353  69.5235957
  81.7664650 111.4457850  69.1522664  82.5897953 110.2210803  67.5303556
  83.1643303 111.0428408  67.1028980  83.1790384 109.3051218  67.4866314
  81.3227092 110.0378084  66.7489784  81.3522470 109.1939510  65.9031455
  80.3073350 110.7311076  66.9986867  84.5449466 109.4658595  69.8312941
  85.5564470 109.3241978  69.1272622  84.1989746 108.4225131  70.6232630
  83.3055065 108.4961261  71.0884461  85.0550765 107.2068540  70.9026790
  86.0772901 107.5190944  71.1164184  84.5196821 106.4331314  72.1052525
  83.5125603 106.0957341  71.8603688  85.1653263 105.5680855  72.2567095
  84.4825895 107.2089839  73.2928269  84.1394335 106.6751951  74.0131833
  85.1393959 106.2636752  69.6668804  84.1300179 105.5891605  69.4502519
  86.3328044 106.1715490  68.9550589  87.5216179 106.9520021  69.0829124
  87.8318193 106.9502442  70.1278393  87.3060465 107.9736750  68.7701627
  88.5507904 106.2536316  68.1544613  89.1509922 105.5407037  68.7197849
  89.2053970 106.9909456  67.6897468  87.6951923 105.5547184  67.1120232
  88.2111874 104.6738218  66.7300949  87.3552281 106.1667393  66.2765866
  86.5034747 105.1288903  67.9640894  85.6377950 105.0898155  67.3029010
  86.6419218 103.7768738  68.7146722  87.4957234 103.6461615  69.5704865
  85.8826153 102.7657385  68.2573865  85.2996024 102.9027370  67.4441050
  85.8036321 101.4704301  68.9664694  86.2931356 101.5264695  69.9387580
  84.2678235 101.1251085  69.1900087  83.7485241 101.2801688  68.2442901
  84.1984858 100.0750637  69.4740831  83.6123466 102.0025498  70.2896650
  84.0456523 101.7999189  71.2690973  83.7116183 103.0637758  70.0615281
  82.1455831 101.6233014  70.2984701  81.6237101 102.3478695  70.9235689
  81.7815210 101.6992240  69.2738756  81.8457195 100.2193824  70.8217935
  81.3239691  99.5816542  70.2376884  82.1970875  99.8274318  72.0023554
  82.7931165 100.5232790  72.9061989  83.0339160 101.4864392  72.7206240
  83.0172319 100.1028918  73.7967866  82.0044111  98.6433652  72.3673567
  81.5702972  97.9872108  71.7340269  82.2842685  98.3515702  73.2929021
  86.5295901 100.3434787  68.2472486  87.2481499  99.6408986  68.9560293
  86.4111530 100.1634697  66.8905178  86.2172685 101.0220312  66.3951590
  86.7957407  98.9523136  66.0916862  87.6561896  98.4738074  66.5594027
  85.6334776  97.9188842  66.0129252  84.6819035  98.4461127  65.9448372
  85.7641804  97.2908868  65.1316556  85.6429578  97.0230973  67.2981181
  85.7184104  97.7132050  68.1384509  84.6717350  96.5288087  67.3206412
  86.7833358  95.9432975  67.4024274  86.7260250  95.2852247  66.5353896
  87.7485536  96.4496471  67.4104261  86.6276642  95.0987580  68.7081779
  86.5843458  95.7804102  69.5576333  85.6962672  94.5358787  68.6468125
  87.7614846  94.1597682  68.8856893  88.6245907  94.6811724  68.9430067
  87.6305619  93.6308212  69.7360859  87.8015414  93.5277702  68.0988774
  86.8290888  99.3179112  64.5720299  86.0672968 100.2076243  64.1696104
  87.7654936  98.7455550  63.7394721  88.3059216  97.9655555  64.0853590
  88.0775536  99.2703885  62.4093960  87.3056664  99.8663291  61.9224215
  89.3678793 100.1574590  62.6285566  89.1137109 100.9440271  63.3390560
  90.5854543  99.3380512  63.1715750  90.8405212  98.5515310  62.4613443
  91.4410106 100.0007539  63.3017644  90.3241377  98.8902979  64.1303919
  89.6879594 100.9054913  61.2908028  89.9972040 100.1592252  60.5589863
  88.7707269 101.3873268  60.9522490  90.7995067 101.9661959  61.4449824
  91.7172450 101.4850081  61.7830870  90.9762525 102.4502758  60.4844998
  90.4907685 102.7131089  62.1763520  88.2427648  98.0702636  61.3900258
  88.5732534  96.9431800  61.7751346  87.8614600  98.3567031  60.1358691
  87.4238086  99.2569567  60.0013177  87.9747610  97.4523198  58.9733371
  88.8756566  96.8494902  59.0877173  86.7673274  96.5096672  58.8303638
  86.8505026  95.8569042  57.9614095  86.6034303  95.9061735  59.7231309
  85.2136110  97.4990116  58.5847954  84.3954082  96.4539619  58.4992756
  88.1477881  98.3165478  57.7098730  87.7415307  99.4291687  57.5783858
  88.5469229  97.6957243  56.5932730  88.7757589  96.7164802  56.6871576
  88.7274685  98.3177803  55.3099809  88.2423981  99.2911815  55.2372070
  90.2226906  98.5144511  55.2085878  90.4838495  99.2801473  55.9390703
  90.7387726  97.5866025  55.4552781  90.6353041  98.9663672  53.8440439
  91.0888982  98.0285019  52.9090609  91.1174279  96.9700659  53.1679021
  91.5054359  98.4499301  51.6428028  91.8231612  97.6858969  50.9332919
  91.4333072  99.8088296  51.2377797  91.8745739 100.1628438  50.0018174
  92.2101063  99.4190634  49.4960424  90.9950314 100.7318700  52.1922966
  90.9474480 101.7827244  51.9067422  90.6261109 100.3431745  53.4729830
  90.3260099 101.0930489  54.2049173  88.1660762  97.5162033  54.1586712
  88.1772361  96.3437672  54.1562103  87.6414158  98.1889331  53.1522180
  87.7209097  99.1957990  53.1511700  86.8907072  97.5690059  52.1104056
  87.1563595  96.5180525  51.9962784  85.3852024  97.6620317  52.5179427
  85.2846783  97.2647448  53.5279710  85.0990933  98.7137930  52.5116285
  84.4595830  96.8680108  51.5548869  84.6030465  97.1735736  50.5184746
  84.7256068  95.8165433  51.6632822  82.9487560  97.0420380  51.9229212
  82.2530842  97.8816689  51.3502698  82.3342220  96.2595683  52.8183687
  81.3568641  96.4065452  53.0263847  82.8506914  95.5257545  53.2819181
  87.1835956  98.2018025  50.7361095  86.7270024  99.2767445  50.3422321
  88.1324150  97.4340908  50.0540446  88.5362504  96.6363040  50.5236747
  88.7124070  97.8586098  48.8233135  89.2888203  98.7702209  48.9808320
  89.6660509  96.7556832  48.2614805  90.4904381  96.6159012  48.9607273
  89.1077464  95.8242085  48.1679341  90.2310012  97.1643706  46.8680439
  89.4538233  96.8881930  46.1554282  90.4078581  98.2385584  46.8138094
  91.5409191  96.4067640  46.5237700  92.2470362  96.8599430  45.5472044
  91.7903893  95.3546666  47.1727635  87.7484151  98.3908623  47.8280845
  87.8530150  99.5029511  47.3600894  86.6979950  97.5844650  47.5439614
  86.4494209  96.8350301  48.1737689  85.8040924  97.8615176  46.3930583
  86.2885465  97.8988622  45.4173489  84.6399953  96.7422971  46.3489168
  83.8652869  97.0701466  45.6557785  85.2049150  95.3676768  45.8831616
  85.9794094  95.0389324  46.5761165  84.4008233  94.6320835  45.8621957
  85.6304438  95.4685996  44.8847421  83.8284853  96.5539084  47.6209625
  83.3309837  97.4893295  47.8770513  83.0807933  95.7765102  47.4637738
  84.4911334  96.2606522  48.4352100  85.0586084  99.1878348  46.6488127
  85.0411703 100.0286641  45.7416877  84.5376772  99.4497520  47.8720474
  84.5676476  98.6667437  48.5093065  83.9457295 100.6760581  48.3277328
  83.2659448 101.1044809  47.5912236  83.1429152 100.3031218  49.5751504
  83.7757901  99.9042465  50.3679096  82.5660036 101.1440622  49.9599780
  82.2344503  99.2637020  49.1102644  81.6856039  98.9683999  49.8404453
  84.9343888 101.8336136  48.6765594  84.5132717 102.9587722  48.8731926
  86.2819850 101.5693807  48.6620185  86.4802129 100.5839173  48.7603393
  87.4026078 102.5160078  48.7372489  88.3465604 101.9782324  48.8258512
  87.4409282 103.3683616  47.4581935  86.4289712 103.7213666  47.2596239
  88.0931915 104.2218787  47.6430209  87.9606748 102.5781356  46.2337343
  88.7667158 101.8473145  46.2993034  87.0208767 102.0645450  46.0309872
  88.2692229 103.5683261  45.0277812  89.3151343 104.2251746  45.0181616
  87.6029048 103.4624866  43.8814601  87.8067069 104.0964003  43.1220396
  86.8962116 102.7486914  43.7757127  87.4197250 103.2672849  50.0703786
  87.6792804 104.4882082  50.1415364  87.2673017 102.6029641  51.2283838
  87.3784057 101.5991588  51.2169735  86.8767124 103.2405728  52.4790033
  87.4028034 104.1839707  52.6250437  85.3834760 103.5242221  52.3952948
  84.9966479 104.0623327  53.2606850  85.0932847 104.0466666  51.4837352
  84.5148995 101.9367178  52.3620536  83.2899635 102.4499122  52.2909104
  87.2790792 102.3046488  53.6803747  87.5960823 101.1107953  53.5339339
  87.2489977 102.9520508  54.8526091  87.3149625 103.9598678  54.8453326
  87.2320134 102.2647175  56.1504810  87.5020313 101.2177662  56.0123408
  88.2483909 102.9156832  57.1419478  87.9966151 103.9071692  57.5183302
  88.2299827 102.2000984  57.9639573  89.7165950 102.9878583  56.6495562
  90.7156415 102.0629780  56.9531901  90.3643176 101.2004257  57.5194718
  92.0677214 102.1643828  56.5973884  92.8287922 101.5022855  57.0103039
  92.4327545 103.1716600  55.6658319  93.4494776 103.2384184  55.2786404
  91.4513806 104.0984443  55.2406412  91.6989727 104.9443752  54.5993930
  90.1492167 103.9081122  55.6608969  89.3433358 104.4961498  55.2217299
  85.8065652 102.2190599  56.7464958  85.1479130 103.2899726  56.6932281
  85.3883611 101.0969985  57.3207689  85.8675405 100.2369695  57.0952991
  84.3036706 101.0432801  58.2344191  83.6045890 101.8671905  58.0910455
  83.7656430 100.0969917  58.1781708  84.9591102 101.1724552  59.6473825
  85.8981844 100.4599686  59.9915287  84.3758087 102.0188047  60.5318992
  83.5876818 102.5222102  60.1504045  84.7888051 102.3101737  61.9348444
  85.4677393 101.5269809  62.2721226  85.6005618 103.6911108  61.8509595
  85.0435172 104.4320462  61.2775354  85.7806304 104.1819086  63.2644782
  86.3380327 103.4416557  63.8384376  86.3302817 105.1231338  63.2555876
  84.8039939 104.3364072  63.7231860  87.0098055 103.4579829  61.2818359
  86.9323396 103.0333575  60.2809391  87.5440640 104.4068184  61.2330641
  87.5534424 102.7682703  61.9274800  83.5290394 102.3599592  62.7385463
  82.6540251 103.2873052  62.6451405  83.4639818 101.4230809  63.7454864
  83.9915654 100.5625890  63.7093115  82.5835359 101.6363217  64.8618060
  81.5646656 101.8424746  64.5339288  82.5813464 100.3376078  65.6861327
  83.6268609 100.1511850  65.9315817  82.0141792 100.4876293  66.6047812
  82.0182796  99.1454605  64.9330792  82.6839911  98.8866881  64.1096923
  81.8976923  97.9458983  65.8918155  81.2317243  98.2037711  66.7152759
  81.4935857  97.0887854  65.3531540  82.8823148  97.6950811  66.2864162
  80.6237290  99.4504788  64.2709475  80.7289608 100.2730036  63.5635024
  80.2684120  98.5637053  63.7460820  79.9064660  99.7263081  65.0439616
  83.0430338 102.8289456  65.6670538  84.2411234 102.8665524  66.0465390
  82.0799746 103.6195280  66.1351931  81.1966676 103.5776236  65.6472256
  82.2428919 104.6279711  67.2055512  83.0748373 104.3657358  67.8591556
  82.5283347 105.9423718  66.5788087  82.9359538 106.6282704  67.3214317
  83.2445955 105.8197543  65.7663830  81.2842807 106.4827796  66.0509175
  81.4535679 107.3345184  65.6416710  81.0777053 104.6977567  68.1960920
  80.0968732 103.9811706  68.0511862  81.2071649 105.4714216  69.2705444
  82.1450383 105.8157666  69.4185963  80.1565194 105.8522867  70.2449656
  79.1608737 105.7653257  69.8099636  80.2564951 104.9196494  71.3841291
  80.2757071 103.8913647  71.0230741  81.1644652 105.1216888  71.9523460
  79.1366722 105.1042580  72.2107163  79.1877017 104.5032792  72.9575900
  80.2124782 107.2661129  70.8059619  81.3395622 107.7121643  71.0885281
  79.0769725 107.9668941  70.8168617  78.2765861 107.5624892  70.3521709
  78.9766748 109.3529176  71.2990932  79.9046359 109.6181666  71.8056801
  78.7375551 110.3532776  70.1561118  79.1426725 111.3053690  70.4988960
  79.3244924 109.9922292  69.3115713  77.2915184 110.5441066  69.7236232
  76.9010054 109.5533640  69.4911807  76.7589799 110.9515584  70.5829764
  77.0894409 111.4879405  68.4886272  77.4284767 112.4976150  68.7203842
  77.6379194 111.1101503  67.6257568  75.6102756 111.5384967  68.1415263
  75.0757217 112.3258093  68.4798905  75.0280407 110.6834768  67.3903908
  75.6044534 109.8025741  66.5662448  76.6111766 109.7686071  66.4923887
  75.0305445 109.1750951  66.0212694  73.7116014 110.6163077  67.4961452
  73.2285552 111.2218869  68.1442504  73.1952743 109.9597366  66.9283254
  77.9567618 109.5127181  72.4596514  76.8775475 108.9870193  72.3720257
  78.3477316 110.2208896  73.5634470  79.3417636 110.3280369  73.7066921
  77.4788600 110.6170938  74.5957640  76.7716756 109.8240512  74.8388127
  78.3204862 110.9851544  75.8830681  78.9094899 111.8841283  75.7013512
  77.3272251 111.2432759  77.0588472  76.7381500 110.3445325  77.2414716
  77.8869555 111.4992291  77.9584530  76.6618639 112.0665995  76.7989780
  79.3344236 109.9086156  76.3017627  78.7909557 108.9800173  76.1272673
  80.1231803 110.0128701  75.5567168  79.9539675 109.8811195  77.6986128
  79.1658040 109.7764100  78.4442226  80.6405569 109.0380487  77.7755923
  80.4980270 110.8092644  77.8736730  76.4645639 111.6727618  74.1245501
  76.8304953 112.5460418  73.3235231  75.2077160 111.5372491  74.5429897
  75.0145519 110.7379991  75.1294933  74.1043748 112.4464686  74.2224338
  74.4922590 113.3741594  73.8016787  73.1889640 111.8016958  73.2077855
  73.0375030 110.7614937  73.4961230  72.2336946 112.3262845  73.2269456
  73.7669355 111.8583605  71.8112709  74.4664019 112.6934249  71.7723493
  74.3195717 110.9198538  71.7677105  72.7809373 111.9431891  70.5882403
  73.1606826 112.4357025  69.5127995  71.6334646 111.4316876  70.6895199
  73.3401122 112.7171548  75.5595937  73.7377896 112.3169557  76.6429064
  72.2354638 113.5559209  75.5058328  72.0752140 114.0583417  74.6444428
  71.2683217 113.7833350  76.6685409  71.3580685 112.9850728  77.4053055
  71.5186095 115.1472067  77.3791561  70.6594230 115.4018045  77.9997025
  72.7781013 115.0289038  78.2671960  73.6378527 114.7747618  77.6472442
  72.9605169 115.9794974  78.7683914  72.6254181 114.2489010  79.0131083
  71.6926381 116.3161341  76.4288778  70.7933765 116.4299033  75.8234960
  71.8625226 117.2281203  77.0011716  72.5472794 116.1317636  75.7779581
  69.9010346 113.7206908  76.0088588  69.7041847 113.9052479  74.7880841
  68.8935335 113.4125256  76.8367850  69.1753800 113.0095806  77.7189966
  67.4808375 113.2808056  76.4262867  67.4358006 112.7513054  75.4746038
  66.6662918 112.5222757  77.4371605  67.3410109 111.7257906  77.7509515
  66.5495372 113.2398435  78.2492965  65.3048413 111.9264649  77.0850711
  65.3836025 111.7502847  76.0122906  65.1558361 110.9767078  77.5987450
  64.0689387 112.8348182  77.3505593  64.1129942 114.0684414  77.4721604
  62.9201022 112.2112138  77.5502822  62.0824222 112.7468729  77.7276601
  62.8856145 111.2021307  77.5245268  66.8281501 114.4851339  75.8351094
  66.9724578 115.5269788  76.4527303  66.0920100 114.3835063  74.7366020
  65.9356085 113.4338363  74.4303916  65.6275178 115.5118423  73.8411653
  66.0261412 116.4679157  74.1804621  66.1417425 115.2423050  72.4314744
  67.1598302 114.8579912  72.4939208  65.5084705 114.5119008  71.9279109
  66.1388011 116.5633321  71.6323031  66.3469889 116.4891922  70.3878975
  65.9580906 117.7013610  72.1569897  64.1262303 115.7252054  73.9733550
  63.4853433 116.0993440  72.9660745  63.5527510 115.4508515  75.1353036
  64.1393481 115.3727698  75.9537817  62.1291529 115.0707716  75.2545038
  61.9880775 114.3532142  76.0627787  61.1889858 116.3068280  75.5095473
  61.2098795 116.8666218  74.5745100  59.7213190 116.0534746  75.9255510
  59.6996142 115.4940900  76.8608143  59.2117988 117.0074250  76.0614445
  59.2165555 115.4800708  75.1480405  61.7576948 117.0530978  76.4563929
  61.2059976 117.8180975  76.6352953  61.7311922 114.2212689  74.0827182
  62.3797112 113.1822100  73.8513253  60.6684051 114.5162632  73.3714081
  60.1965306 115.3540996  73.6803805  60.0873833 113.7587417  72.2187573
  59.7695216 112.7852042  72.5919702  58.8828016 114.4415264  71.5310452
  58.3303328 113.7282335  70.9194157  58.2128784 114.8812666  72.2699169
  59.4108094 115.4665614  70.7018113  58.6916651 115.9179732  70.2538618
  61.1542411 113.5201818  71.1362835  60.9093435 112.6937382  70.3159462
  62.3320957 114.2118806  71.1903225  62.5451312 114.7393661  72.0248729
  63.2898530 114.2250761  70.1084348  62.7707222 114.3722240  69.1613605
  64.0034046 115.0348668  70.2606926  64.0486696 112.8942514  70.0597526
  64.7257559 112.6831321  69.0308995  63.8630822 112.0608853  71.0400140
  63.0282123 112.2287383  71.5830765  64.7303808 110.9285917  71.4215272
  64.1577329 110.1741510  71.9609647  65.1811239 110.4782889  70.5371305
  65.8210477 111.4470072  72.3161875  65.6678075 111.7097272  73.5004905
  66.9600568 111.6911490  71.5971173  66.9847591 111.3732510  70.6387698
  68.2500774 112.2543792  72.2107603  68.0373665 112.9406236  73.0304686
  69.1229664 111.0854742  72.7543301  70.0436740 111.4898087  73.1749384
  68.3520647 110.3170969  73.8483136  67.4313967 109.9120472  73.4283080
  68.9695375 109.5009509  74.2234564  68.1099797 110.9948012  74.6669785
  69.5090998 110.1791411  71.7607229  70.0425224 109.4834614  72.1519906
  69.0133024 113.2097338  71.2599884  68.7631802 113.2417764  70.0635327
  69.8752098 114.0419324  71.9117883  69.8719067 114.0336608  72.9217487
  70.7018975 115.0921483  71.2066479  70.8579364 114.8305651  70.1600700
  69.9314288 116.4183552  71.2712016  68.9637443 116.2142356  70.8129198
  69.7203450 117.0404140  72.6495863  70.6876572 117.2452576  73.1083301
  69.1629479 117.9714902  72.5470937  69.1595328 116.3491868  73.2787088
  70.5827704 117.4650161  70.5193373  70.0698056 118.2737165  70.5862044
  72.1537551 115.2041228  71.6778297  72.4145890 114.9473712  72.8236378
  73.0408860 115.6965969  70.7728175  72.7371660 115.8299384  69.8188397
  74.3917371 115.9243853  71.0791665  74.7687507 115.0707390  71.6424141
  75.1377463 116.0079480  69.7769854  74.7776263 116.8634760  69.2055963
  76.2030683 116.1263201  69.9749180  74.9743099 115.0947336  69.2047728
  74.6104450 117.1978759  72.0090851  73.8128465 118.1346387  72.0612580
  75.6851002 117.0541303  72.7326011  76.0774890 116.1270933  72.8146551
  76.2965949 118.1577562  73.5389902  75.4881359 118.8334468  73.8181594
  77.0302461 117.7358281  74.7950959  77.6052398 116.9374953  74.3258984
  77.7118103 118.4812117  75.2049418  76.1597743 117.1430899  75.9415550
  76.8323147 117.0014021  76.7875543  74.9299238 118.0015870  76.3910397
  74.2566543 118.1433196  75.5456292  74.4011997 117.4875062  77.1937056
  75.2745391 118.9724293  76.7471377  75.7509185 115.6827806  75.8259708
  76.6427020 115.0572096  75.7874664  75.1491491 115.4038625  76.6909445
  75.1674621 115.5391800  74.9165444  77.2496437 119.0389642  72.6473471
  77.4395323 120.2200848  73.0048321  77.7549650 118.4390638  71.5571416
  77.3907744 117.4987108  71.5005668  78.7187346 118.8619798  70.5650423
  78.4974075 119.8754538  70.2304022  80.1657580 118.8437916  71.1961718
  80.8686077 119.2672376  70.4786796  80.1628164 119.4498438  72.1021476
  80.5995352 117.3763031  71.5498158  79.8601993 116.9134583  72.2034654
  80.7000812 116.7848864  70.6397505  81.9536380 117.4381089  72.2720316
  81.8341083 117.9595279  73.2217336  82.3121510 116.4254600  72.4567210
  82.9741200 118.1665048  71.4490705  82.8238116 117.9836001  70.4672087
  84.0274941 118.8601670  71.8013557  84.1491792 119.2142167  73.0534669
  83.4383865 118.9508224  73.7209227  84.9534435 119.7495774  73.3478265
  84.8730963 119.3108165  70.9146760  84.7188222 119.1248614  69.9340026
  85.6776129 119.8433053  71.2135195  78.5989530 117.9870651  69.3678675
  78.4210888 116.7733572  69.5116992  78.8918254 118.4999960  68.2035266
  79.3385049 119.8432583  67.8888557  80.3457961 119.9498470  68.2914766
  78.6681836 120.5336082  68.4008961  79.2940720 120.0032620  66.3954912
  80.2917193 120.2263449  66.0172942  78.6157832 120.8142364  66.1302627
  78.7783749 118.6596307  65.8590173  79.4291228 118.3668672  65.0350539
  77.7464440 118.6985427  65.5101563  78.9026696 117.6682131  66.9870244
  78.0375978 117.0051091  66.9935144  80.1891771 116.8299176  66.9460380
  81.1504762 117.2775116  67.6045855  80.1887074 115.6837285  66.2431181
  79.3001982 115.3698693  65.8796032  81.3739431 114.7595551  66.1294475
  82.2651541 115.3329034  65.8742730  81.6251712 114.0235256  67.4778743
  82.4545979 113.3319236  67.3301000  81.9048546 114.7724414  68.2188212
  80.4812263 113.3030293  67.9381007  80.6890458 112.8696481  68.7691191
  81.1696244 113.9046754  64.9203948  80.0467942 113.8776728  64.3722989
  82.2077217 113.1408567  64.4911268  83.0893361 113.3161195  64.9517118
  82.2086704 112.3115359  63.2721715  82.4581868 112.9962232  62.4615890
  83.3826073 111.3640784  63.4880752  83.1441594 110.6663151  64.2908012
  83.5756640 110.8088728  62.5701558  84.2688480 111.9384162  63.7579138
  80.8442670 111.7493641  62.8365316  80.4464038 111.9909135  61.6758612
  80.0723054 110.9773326  63.6649299  80.4140724 110.7486037  64.5874144
  78.8370969 110.4454367  63.2619402  78.9067837 110.0270818  62.2578376
  78.4415380 109.3161105  64.2414261  77.4883965 108.8908624  63.9271261
  79.2088176 108.5422115  64.2199204  78.3218603 109.8176323  65.5418380
  78.0762651 109.1062280  66.1378135  77.6736779 111.4712298  63.1792503
  76.7352757 111.1043559  62.4257870  77.7158027 112.7679404  63.5717042
  78.4749622 112.9193797  64.2204278  76.7575390 113.8719444  63.3432597
  75.8590687 113.4169359  62.9263454  76.3543158 114.6855807  64.6617149
  75.3181800 115.0139565  64.5799091  76.5160623 113.7518901  65.9448412
  77.5521113 113.4234745  66.0275782  76.2402273 114.3111208  66.8388630
  75.8665344 112.8821358  65.8461417  77.1479159 115.8192273  64.9356733
  76.8356472 116.2418508  65.7390898  77.1275065 114.8202576  62.2323380
  76.2872063 115.3210356  61.4737558  78.4292689 114.9757939  61.9455067
  79.0924122 114.4884743  62.5310492  78.9416437 115.8194445  60.8790698
  78.2478529 116.6324955  60.6652909  80.3294662 116.4439509  61.3419115
  81.0468467 115.6427726  61.5196132  80.7086847 117.1040941  60.5618447
  80.1308502 117.2281425  62.6085217  79.3917659 117.9991710  62.3908750
  79.7645343 116.5914128  63.4138105  81.3866527 117.8866854  63.0571780
  82.3610056 117.3337638  63.5439019  81.4847452 119.2144327  62.9863768
  82.3330472 119.6718902  63.2883995  80.7103047 119.7567243  62.6310415
  79.1391526 114.9964883  59.5005665  79.5121054 115.6246063  58.4724463
  78.8983011 113.6771417  59.4553319  78.7436857 113.2268951  60.3461020
  78.8414827 112.8248878  58.1973121  79.8349850 112.5734701  57.8260421
  78.1155934 111.5222729  58.5816872  77.1157606 111.7570328  58.9468204
  78.0400229 110.8761631  57.7070836  78.6764714 111.0103049  59.3636103
  78.0637221 113.5441008  57.0343193  76.9898886 114.1335249  57.2655760
  78.5166510 113.3448259  55.7980989  79.4599131 112.9985197  55.6959805
  77.7985292 113.7790364  54.5899200  77.4455933 114.8038909  54.7048487
  78.7625393 113.7193350  53.3721429  79.0420319 112.6687426  53.2931569
  78.1898942 114.0096404  52.4912908  80.0108874 114.5670474  53.4630935
  80.6448719 114.1618017  54.2517254  80.7809273 114.5781715  52.1482168
  80.1477031 114.9837468  51.3591447  81.6714337 115.1978933  52.2533074
  81.0752485 113.5608419  51.8903099  79.6219397 116.0275999  53.8584249
  79.1168429 116.0208511  54.8243085  80.5220952 116.6387658  53.9239813
  78.9551297 116.4436441  53.1031960  76.4172731 113.0749884  54.3171178
  75.5344296 113.6575775  53.7429591  76.2545081 111.8396654  54.7766184
  77.0932651 111.3481462  55.0504705  74.9445007 111.1305081  54.9022425
  74.1097535 111.8301113  54.8592107  74.8280282 110.1243547  53.6761807
  75.6175281 109.3814021  53.7893651  73.8565684 109.6353079  53.7482860
  74.9457451 110.7399393  52.4347895  74.8668035 110.0803291  51.7417653
  74.7857710 110.3463106  56.1993621  75.8035295 110.1383295  56.8311035
  73.6535811 109.7861063  56.5097074  72.9132879 109.9504539  55.8425828
  73.3035063 109.1296186  57.8145237  74.1261179 108.5380846  58.2163902
  73.0210461 110.2660111  58.7606487  73.9590749 110.7565148  59.0206629
  72.3603109 110.9822419  58.2722407  72.4291272 109.8006083  59.8847249
  72.2535806 110.5326184  60.4804971  72.2538690 108.0316091  57.6776782
  71.5010838 108.0641480  56.6488937  72.1754894 107.0999441  58.5960218
  73.0425538 106.8606818  59.0554261  71.0320906 106.1786611  58.7367542
  70.0982790 106.7116633  58.5578580  71.1475105 105.0532929  57.7299246
  70.2770629 104.4231708  57.9125890  71.0485546 105.5357049  56.7575120
  72.3330425 104.2462380  57.7444265  72.2726929 103.5766275  57.0591678
  70.6772325 105.8469657  60.2360137  71.6216693 105.8276538  61.0043452
  69.4148997 105.6175539  60.5745917  68.6875545 105.5011435  59.8835657
  69.0299190 105.5921397  62.0221454  69.9231846 105.4503822  62.6304878
  68.4135871 106.9651704  62.3635011  67.5483556 107.1365289  61.7231029
  67.9709763 107.0022230  63.8522575  68.8358160 106.8313905  64.4933266
  67.5380779 107.9765355  64.0790058  67.2280585 106.2247735  64.0304340
  69.4478090 108.0905686  62.1880787  69.7933210 108.1093351  61.1544582
  68.9890013 109.0480505  62.4347031  70.2948901 107.9127901  62.8506113
  68.0606301 104.4084794  62.2248851  67.0823112 104.1806458  61.5139477
  68.5331070 103.4567447  63.0603117  69.4939047 103.5602547  63.3540001
  67.7493817 102.3340883  63.6127937  67.5501553 101.5798046  62.8515683
  68.6128638 101.6692340  64.7743914  68.8423716 102.4371072  65.5131716
  68.0154331 100.8851805  65.2396191  69.8351239 101.1060771  64.2744628
  70.3278308 100.7156500  65.0000015  66.4272647 102.7536177  64.2637612
  66.3409815 103.8965155  64.7548507  65.3826920 101.9723002  64.0990315
  65.4827285 101.0579886  63.6817470  64.0189321 102.4559695  64.4108340
  63.9464170 103.5147174  64.1620497  62.9069291 101.6561886  63.5766656
  61.9426009 102.0559037  63.8903503  63.0768732 101.8998323  62.5279250
  62.9103746 100.2855092  63.7365503  62.2137354  99.8991168  63.2008316
  63.7236763 102.4054897  65.9392713  64.0268330 101.3403158  66.5734066
  63.0758324 103.5214435  66.3633341  62.7667753 104.1743085  65.6573948
  63.0086263 103.9538738  67.8323731  63.9537339 103.7199915  68.3224445
  62.7480721 105.4790809  67.9593374  62.8290365 105.8524755  68.9801804
  63.3707956 106.0848075  67.3009979  61.4019105 105.5552402  67.5355584
  61.1077294 106.4685136  67.5670049  62.0979801 103.1000246  68.7247356
  62.2208215 103.0018246  69.9434578  61.1217200 102.3805743  68.1190686
  61.0325744 102.5212663  67.1228968  60.1458399 101.5935728  68.7754462
  60.0726154 101.8625069  69.8292070  58.7752953 101.8598836  68.0995147
  58.5617289 102.9286111  68.1171278  58.8046701 101.5127390  67.0666895
  57.6797323 101.1086241  68.8587491  57.9009416 100.0436349  68.7882839
  57.7281883 101.4210025  69.9019048  56.3032924 101.3696559  68.3223718
  56.3593622 101.4237246  67.2351590  55.6557690 100.5418968  68.6115564
  55.7297347 102.6826900  68.8704103  55.5306995 102.5820578  69.9373492
  56.4411856 103.4925276  68.7088556  54.4585540 102.9884828  68.1549186
  53.7990189 102.2383926  68.3048452  54.0724227 103.8520749  68.5087710
  54.6428361 103.0821930  67.1663047  60.5024424 100.1192183  68.8848179
  60.1019770  99.2458143  68.0815204  61.3761574  99.8698382  69.8563146
  61.7807838 100.6729082  70.3161573  61.8707978  98.5172894  70.2330792
  62.3486317  98.0165043  69.3910647  62.9623762  98.7262143  71.3927089
  63.7915312  99.2662899  70.9356316  62.5077090  99.3460297  72.1655003
  63.4895831  97.4103569  72.0283598  62.6966204  97.0163296  72.6640118
  63.9034732  96.3264891  70.9794082  64.6967752  96.7196487  70.3436437
  64.2611325  95.4366515  71.4974521  63.0413582  96.0667550  70.3650822
  64.6936663  97.6751497  72.8933670  64.4230336  98.3655678  73.6922288
  65.0435499  96.7381609  73.3266505  65.4871105  98.1136377  72.2881615
  60.5991761  97.6619324  70.6119348  60.0496459  97.6691581  71.7597285
  60.1018590  96.8086143  69.6699746  60.5903746  96.7236867  68.7900660
  58.9226390  95.9919303  69.8832666  58.0632283  96.6144350  70.1322652
  58.6169039  95.2311355  68.6009217  59.5138080  94.6481357  68.3917006
  57.7553056  94.5654802  68.6524151  58.3822882  96.1931815  67.3234570
  57.5346749  97.2805326  67.4949390  57.0435010  97.4969487  68.4436288
  57.3199537  98.1184467  66.3835962  56.7265239  99.0212265  66.5282691
  57.8363178  97.8245956  65.1385814  57.5934968  98.5081609  64.3250236
  58.6617468  96.6761902  64.8893226  59.0912430  96.3859806  63.9304631
  58.8969861  95.9054538  66.0146714  59.5120350  95.0084874  65.9421040
  59.1527859  94.9668340  70.9862530  58.1842322  94.5847974  71.6106500
  60.3473218  94.6523770  71.4070592  61.1399949  95.0183235  70.8992681
  60.6044517  93.7353597  72.5516610  59.8438385  92.9549725  72.5753799
  62.0191579  93.0555494  72.4134968  62.7840371  93.7772148  72.1266900
  62.3168786  92.5590497  73.3370499  61.8703558  92.0874842  71.3817571
  62.7051022  91.6330374  71.2465664  60.5186419  94.3895812  73.9135527
  61.2215478  93.9719117  74.8140778  59.8740940  95.5434299  74.0533566
  59.3768513  95.8795822  73.2410447  59.7808061  96.3174528  75.2949748
  59.6379145  95.6397289  76.1366229  61.0401469  97.1218477  75.5304653
  61.8977941  96.4497299  75.5587191  61.1675542  97.8387163  74.7193137
  60.9452070  97.8004721  76.7359947  61.7463666  98.3091747  76.8807869
  58.6290010  97.3424049  75.1727449  58.0386221  97.5295707  74.1038521
  58.3033449  97.9215696  76.2866239  58.7047816  97.4326915  77.0739904
  57.2900108  98.9332760  76.5464206  56.9760694  99.3648227  75.5959957
  56.0362017  98.3580287  77.2703012  56.2623809  98.0080428  78.2775013
  55.2152305  99.0738976  77.3107728  55.6624047  97.2559645  76.4601256
  54.8862028  96.8325947  76.8341153  57.8139432 100.2906336  77.1388656
  57.1516544 101.0330180  77.8088171  59.0893476 100.5309993  76.9852042
  59.6753835  99.7350039  76.7777131  59.7478243 101.8718568  77.1765227
  59.0142440 102.6342816  76.9144776  60.2433239 102.1355141  78.6403553
  59.4060509 102.0079453  79.3265043  61.3602314 101.1583085  79.0120175
  62.1980972 101.2856165  78.3265445  61.6921454 101.3557100  80.0313138
  60.9873492 100.1363757  78.9433677  60.7664646 103.4349056  78.7942205
  61.0581005 103.5571764  79.7006413  60.8920008 101.9624849  76.1736924
  61.1768894 100.9817505  75.4616414  61.3931068 103.1705638  75.9530226
  60.8303907 103.8717706  76.4131954  62.5011583 103.6063774  75.1488551
  62.2461934 103.6097836  74.0891002  62.7071501 105.0525561  75.6071265
  62.9720257 105.0649849  76.6643807  63.5098218 105.5073575  75.0266318
  61.7864707 105.6164199  75.4571055  63.7898260 102.7075671  75.2760778
  63.9481677 102.0596258  76.2890250  64.6541983 102.7018907  74.2193118
  64.6662535 103.5066226  73.0383600  65.0697338 104.4896748  73.2810785
  63.6460899 103.6140447  72.6698145  65.5637870 102.7234955  72.0621962
  66.1241685 103.4373437  71.4584642  64.9276257 102.1207369  71.4140588
  66.4713432 101.8614665  72.8660474  67.4900174 102.2389396  72.9550186
  66.4925696 100.8550349  72.4480227  65.7966935 101.8410666  74.2531713
  65.4435201 100.8160243  74.3656665  66.7435565 102.1786870  75.3952252
  67.1733432 101.2779136  76.0748940  67.0027171 103.4919329  75.7192097
  66.7208148 104.1177092  74.9782411  67.8058140 104.0274372  76.8045333
  68.6821412 103.3848089  76.8892599  68.2719783 105.4700664  76.6667143
  68.7661724 105.8044966  77.5788699  68.9737170 105.5212044  75.8342194
  67.1800083 106.4729971  76.3739593  66.2191965 106.3888963  75.3159665
  65.4278659 107.4895188  75.4351597  64.6261342 107.6674431  74.7184532
  65.8340196 108.2095763  76.5222468  65.3851906 109.0381160  76.8858047
  66.9716260 107.6208065  77.0567744  67.5023791 108.1054671  77.8762294
  67.1297994 103.6668233  78.0786902  67.8754005 103.3973388  79.0674102
  65.8282791 103.6245316  78.1480092  65.2370592 103.7600794  77.3404293
  65.1971962 103.3005260  79.4182977  65.7516520 103.7408041  80.2470517
  63.7314791 103.8910196  79.4210721  63.3065224 103.8705110  78.4175331
  63.0904838 103.3263673  80.0981192  63.8305446 105.3345746  79.9012043
  64.5938701 105.1714083  80.6620011  64.2157008 106.0137397  79.1406198
  62.5776581 105.9524537  80.5547315  61.5516418 105.2330889  80.7099667
  62.5064985 107.1856408  80.7407553  65.0653399 101.7624868  79.5683285
  64.8135025 101.3215870  80.6997658  65.1484347 100.9227228  78.5085240
  65.1584539 101.3007889  77.5720065  65.1711555  99.4348578  78.6736039
  64.5283232  99.1187702  79.4951601  64.6518714  98.7838061  77.3559421
  65.2909955  99.1130033  76.5366437  64.6661311  97.2950138  77.4294821
  64.0268173  96.9650271  78.2483144  64.2968745  96.8808237  76.4912949
  65.6851441  96.9490190  77.6026891  63.3112352  99.1323413  76.9777901
  63.0832062  98.6854639  76.1593136  66.5225361  98.9249831  79.0079137
  66.6715547  98.0464031  79.8628615  67.5768307  99.5575227  78.4737316
  67.3247714 100.2098472  77.7450079  68.9711004  99.3959635  78.7926179
  69.1756488  98.4836860  79.3529829  69.6693126  99.2918489  77.3950078
  69.0254156  98.7180024  76.7285275  69.7984712 100.2983320  76.9970006
  70.9281385  98.6594862  77.4925978  71.3300778  98.6107443  76.6221560
  69.5034861 100.5227959  79.5969513  70.3645476 101.2804350  79.2226225
  68.8703503 100.6019518  80.7477677  68.0454019 100.0463610  80.9234903
  69.2655645 101.5519224  81.7302159  69.4389864 102.5279606  81.2770343
  68.1456049 101.6825660  82.7530804  67.2360625 102.0565226  82.2829864
  67.9548275 100.6980989  83.1803138  68.4384570 102.5866404  83.8871417
  68.5425437 103.9996077  83.7333850  68.3026774 104.4215907  82.7574268
  68.9423836 104.8524319  84.7973818  69.1025373 105.9151342  84.6154059
  69.1333563 104.3181344  86.0997168  69.3627426 104.9536779  86.9550333
  69.0220229 102.9667964  86.2634383  69.2639615 102.5430899  87.2381376
  68.6059874 102.1227858  85.2100255  68.4010975 101.0698923  85.4037664
  70.5852591 101.1370883  82.3068897  70.7507343 100.0244738  82.6685636
  71.4522150 102.1155991  82.5014203  71.1649563 103.0772092  82.3878960
  72.8569150 101.8427911  82.8875221  72.9473053 100.9670032  83.5301141
  73.5093459 101.7266981  82.0220999  73.2787042 103.0574172  83.6566180
  72.4879873 103.5047556  84.4388507  74.5446532 103.5186423  83.4549907
  75.0531918 102.8442145  82.9012444  75.3052279 104.6749404  84.0467387
  74.6393716 105.2172202  84.7180561  76.5550136 104.2412292  84.8371445
  77.2222516 103.7094244  84.1588552  77.0535557 105.1365096  85.2086668
  76.1902768 103.3207078  86.0298664  75.4701801 102.6026383  85.6375173
  77.0825573 102.7927843  86.3663654  75.5724061 104.0695509  87.2013717
  76.0539780 105.2166165  87.5082299  74.6775823 103.5874964  87.8633361
  75.5686361 105.7753237  83.0038375  76.5010282 106.5364804  83.2788126
  74.9144071 105.7680329  81.8383590  74.2288641 105.0346753  81.7273777
  75.1130543 106.7085682  80.7291279  75.1476932 107.7423596  81.0728934
  76.5050974 106.3435799  80.0917477  76.7858510 107.1066360  79.3657849
  77.2624500 106.2907664  80.8738780  76.3976927 104.9500686  79.3718092
  75.3449440 104.8964834  79.0944112  77.0144811 104.7617748  78.4930506
  76.6961416 103.9014055  80.4352930  75.7359473 103.1312043  80.7876251
  77.7977280 103.9007128  81.0869441  74.0397106 106.6431052  79.6652017
  73.1931178 105.7706811  79.6988268  73.8810120 107.7380451  78.8548824
  74.2638081 108.6082744  79.1958627  73.0857428 107.7594916  77.5660555
  72.7175022 106.7454014  77.4107522  71.9112885 108.7045101  77.5609521
  72.3267548 109.7062527  77.6704909  71.0269399 108.6561419  76.3294384
  70.6107116 107.6547600  76.2194879  70.2158520 109.3765630  76.4354110
  71.6178934 108.9022967  75.4472346  70.9391949 108.4645868  78.6732695
  71.4457428 108.5832211  79.6310990  70.1220765 109.1826129  78.6035870
  70.5407616 107.4529330  78.5964036  74.0144422 108.0541840  76.3364381
  74.6374737 109.1071841  76.2489363  74.1846344 107.0885166  75.4731797
  73.7597800 106.1908521  75.6570181  75.0986390 107.1974080  74.3650244
  75.2076444 108.2336385  74.0449567  76.4431337 106.6916460  74.8278514
  77.0669810 106.5409301  73.9468302  76.8899991 107.4571680  75.4621915
  76.3399574 105.3985736  75.5976360  76.0784777 105.7943564  76.5790051
  75.5222198 104.7812369  75.2257493  77.5674893 104.5771954  75.7079860
  77.4983181 103.3362841  75.6966894  78.6908594 105.0864931  75.9601695
  74.5971753 106.5545616  73.0277384  74.0611116 105.4295504  73.1006121
  74.8038556 107.1926950  71.8736574  75.1442718 108.1376740  71.9796329
  74.4548132 106.7248053  70.5243343  73.7508785 105.9016361  70.6466767
  73.8307341 107.7655576  69.6095562  74.5348147 108.5849316  69.4646564
  73.4835712 107.1173773  68.2127487  72.7791292 106.2981628  68.3567975
  73.0367466 107.8701474  67.5632985  74.3947755 106.7356013  67.7522539
  72.5813561 108.2780727  70.2267497  72.8113193 108.7318553  71.1907519
  72.1319404 109.0248506  69.5721903  71.8823096 107.4542933  70.3710491
  75.7143385 106.0536574  69.8998133  76.7023731 106.7538156  69.6278112
  75.8324573 104.7323493  69.8301146  75.2380633 104.1699122  70.4221110
  76.8135976 104.0561432  68.9965932  77.8121003 104.4801769  69.1028329
  76.8399852 102.5622636  69.5203643  75.7910784 102.2658218  69.5243866
  77.4033543 101.8940919  68.8690104  77.3566497 102.3384703  70.9183340
  78.6617890 101.9835335  71.3969698  78.5883831 101.8525362  72.6569513
  79.4719774 101.4564468  73.1574244  77.4187481 102.2330128  73.1366935
  77.1343887 102.2846616  74.1044600  76.6012551 102.5680717  72.0317343
  75.5850175 102.9269971  72.1946299  76.4379965 104.1855068  67.5291676
  75.2744892 104.1989776  67.1596894  77.4423295 103.9641961  66.6444767
  78.2330980 103.4436570  66.9963624  77.4276631 104.3201733  65.2640075
  76.4172605 104.2245782  64.8664558  77.8717255 105.7163711  65.0921057
  78.9361801 105.7088115  65.3265809  77.7306586 106.0234175  64.0558033
  77.1993243 106.7008900  65.9737139  76.1401931 107.1980329  65.7619852
  77.9893613 106.9814451  66.9907712  77.6868664 107.6395226  67.6947105
  78.8935820 106.5370489  67.0614667  78.4231978 103.5205717  64.4507682
  79.3514597 102.9337929  65.0009768  78.2579706 103.5096596  63.1284170
  77.3809316 103.8879080  62.8000421  79.1970335 102.9221330  62.1239732
  80.1558658 102.7370864  62.6082228  78.6850724 101.6084635  61.5372764
  78.8007824 100.8234118  62.2845409  77.6246557 101.7792126  61.3516393
  79.4012638 101.1576246  60.1724540  79.1794792 101.9514604  59.4591959
  80.9067230 100.9083823  60.2038867  81.1292541 100.1142976  60.9166336
  81.2471534 100.6114303  59.2119051  81.4204250 101.8211684  60.5056022
  78.7858936  99.7846983  59.7567198  77.7123542  99.8979239  59.6057482
  79.2486148  99.4441146  58.8304407  78.9663808  99.0519643  60.5432465
  79.4453067 103.9611753  61.0532474  78.5445310 104.2693566  60.3037353
  80.6591690 104.5356685  61.0861373  81.2155866 104.2178935  61.8668535
  81.2415835 105.4864326  60.1748685  80.5248083 106.2478120  59.8672422
  82.3808168 106.1676763  60.9428746  83.1280379 105.3759711  60.9973067
  82.7423222 106.9636206  60.2918089  82.1272495 106.7366329  62.3618831
  81.7526163 105.9482170  63.0146856  83.4925162 107.2963526  62.9399633
  83.8675574 108.0851827  62.2878974  83.3265375 107.6996759  63.9389039
  84.2238317 106.4897259  62.9912617  81.0879152 107.8218961  62.4494028
  80.1304807 107.4380313  62.0971720  80.9891754 108.1484958  63.4846246
  81.3903854 108.6661713  61.8298786  81.8101884 104.7893627  58.9332389
  82.4666987 103.6988105  59.0422893  81.6981552 105.4283469  57.7416208
  81.1928963 106.3027278  57.7251648  82.1712750 104.8717690  56.4640247
  82.9460515 104.1064195  56.5094192  81.0120832 104.3853031  55.5325735
  80.2467595 105.1614339  55.5335384  81.4563957 104.1065924  54.0887339
  82.2214345 103.3301821  54.0869191  80.6000355 103.7735017  53.5023905
  81.8634356 105.0180478  53.6509363  80.1109765 103.3128425  56.0280380
  79.6427960 103.6847864  56.9393917  79.3480009 103.1589160  55.2649690
  80.8385550 101.9388230  56.3314685  81.6014092 102.0918702  57.0948360
  80.1089923 101.2118070  56.6882392  81.3066163 101.5660009  55.4204131
  83.0148747 105.9911090  55.9239141  82.4525047 107.0241384  55.6313461
  84.3000615 105.8461204  55.9037307  84.6232848 104.8922645  55.9797895
  85.3251976 106.9443602  55.8579573  84.7718865 107.8737385  55.7230424
  86.1875973 107.0415774  57.1259406  86.5521515 106.0294126  57.3012210
  87.3961798 108.0362110  57.1134415  87.0323412 109.0487199  56.9386623
  87.9103223 107.9961459  58.0737295  88.0886793 107.7573754  56.3192158
  85.2303071 107.5213086  58.2249462  85.0475189 108.5800394  58.0411574
  84.3017178 106.9651528  58.0964469  85.7531659 107.3296960  59.6811829
  86.6815550 107.8859762  59.8105884  85.0082559 107.6978679  60.3866315
  85.9357562 106.2710890  59.8658771  86.1954443 106.7591210  54.6490478
  86.7892430 105.7402524  54.4397467  86.2478878 107.8111144  53.8859794
  85.6152282 108.5722440  54.0872825  87.1332811 107.9274985  52.7030494
  86.8118784 107.2260981  51.9330903  87.0819341 109.3453451  52.1257899
  86.0835372 109.7119061  51.8871770  87.5129727 109.9566205  52.9186633
  87.9518014 109.4270236  50.9009497  87.9342180 108.5034550  50.1007867
  88.5415208 110.4704642  50.6842662  88.5946466 107.5745887  52.9122538
  89.2709392 108.2842000  53.6243571  89.1765218 106.6631238  52.1360882
  88.5647541 106.1263725  51.5379765  90.5627425 106.3149141  52.1753715
  90.8654052 106.0942631  53.1989963  90.8140081 105.0576181  51.3022207
  91.7783273 104.6612005  51.6200898  90.0269508 104.3503327  51.5637321
  90.8253942 105.2796254  49.7237809  89.8557623 105.7306206  49.5127872
  91.6162206 105.9210641  49.3348695  90.9013243 103.9031354  49.0016904
  91.1174533 102.8236613  49.6211393  90.8758662 103.9617892  47.6712651
  90.9213100 103.1100751  47.1303222  90.8112328 104.8577099  47.2094750
  91.5812094 107.3977467  51.8075825  92.7332973 107.2789305  52.1316630
  91.1506538 108.3597277  51.0098203  90.1959717 108.2957273  50.6864237
  92.0183693 109.3981203  50.4253030  93.0690351 109.1118191  50.4725498
  91.6319262 109.5423238  49.0075385  92.1216328 108.6528775  48.6110892
  90.5733542 109.5195002  48.7486864  92.2338063 110.7338802  48.2753176
  93.6281667 110.9218400  48.0323192  93.7060918 111.8835192  47.0835627
  94.6791478 112.1306942  46.6591036  92.4531123 112.3924732  46.8267085
  92.2264218 113.1721290  46.2260022  91.5283682 111.6437135  47.5434737
  90.4632534 111.8528212  47.4439471  92.0989467 110.7315164  51.1886405
  93.1140485 111.3534659  51.1904152  90.9936924 111.2561000  51.7302316
  90.1506766 110.7368939  51.5306102  90.8870522 112.4634756  52.5495546
  91.8292661 113.0000913  52.6608009  89.8706170 113.3965677  51.9619079
  89.7696866 114.2545339  52.6265938  90.2758020 113.8766383  50.5691659
  90.3764813 113.0192064  49.9037535  89.5122466 114.5501864  50.1800449
  91.2281559 114.4034971  50.6286849  88.6112775 112.7468392  51.9619495
  87.9489865 113.3326169  51.5880038  90.4576332 112.3283461  54.0707345
  90.3125915 113.3166459  54.7635341  90.1335374 111.1228233  54.5240454
  90.3562475 110.3892635  53.8664821  89.4214146 110.7676943  55.7329021
  89.0320928 109.7504234  55.6918212  90.4606701 110.8565708  56.8897573
  91.2307762 111.6204919  56.7827031  89.8567555 111.0712457  57.7714045
  91.1766454 109.5573612  57.1630240  90.8582587 108.8196057  58.3020682
  90.2656382 109.2870781  59.0884334  91.2859717 107.5047304  58.4428192
  90.9542518 106.9106730  59.2943816  92.1801556 106.9195930  57.4489665
  92.4905590 105.8759289  57.4991148  92.6431961 107.7419541  56.4052646
  93.4551798 107.4080459  55.7592864  92.0536647 108.9978365  56.1984862
  92.2673912 109.5568813  55.2875033  88.0921900 111.5554588  56.0724063
  87.7899239 111.6759660  57.2328813  87.3158597 111.9503218  55.0917456
  87.6811354 111.8912832  54.1519651  85.9733313 112.4355606  55.2725986
  85.9344092 113.2077298  56.0409338  85.5127585 113.0446984  53.9413549
  86.2148148 113.8510233  53.7290903  85.6326988 112.2546594  53.2000366
  84.1000670 113.5789411  53.8837130  83.7217123 113.8375256  52.8947325
  83.5117188 112.7582477  54.2940885  83.9889812 114.8118954  54.8179794
  83.9129108 114.6672883  56.0978774  84.1374923 115.9389209  54.2754879
  85.0622229 111.2563141  55.6396780  85.1700792 110.1129123  55.0847030
  84.1061360 111.5946784  56.5018568  84.1245261 112.5166661  56.9138032
  83.0306509 110.6544046  56.9231334  83.4427044 109.6454452  56.9408008
  82.4871717 110.9791801  58.2983728  82.0450521 111.9754602  58.2909226
  81.4000478 109.9320581  58.6817813  81.8415582 108.9355122  58.6898936
  81.0060544 110.1624022  59.6716354  80.5905558 109.9643223  57.9525465
  83.5932023 110.9410986  59.4135056  84.3692268 111.6704736  59.1813411
  83.1459447 111.1817446  60.3779483  84.0328869 109.9446184  59.4559974
  81.9354192 110.7613509  55.8302945  81.0652848 111.6272950  55.9494917
  81.9108337 109.8060945  54.9715409  82.6571344 109.1276326  55.0246820
  80.9591835 109.6922762  53.8948682  80.7617413 110.6809992  53.4806912
  81.4777821 108.8076955  52.7984319  81.5011647 107.7923180  53.1941096
  80.6998312 108.8832029  52.0387009  82.8483277 109.1463855  52.1676651
  83.6084449 109.2054176  52.9466631  83.2280070 108.0278920  51.1575552
  82.4685396 107.9685664  50.3779472  84.1935677 108.2571863  50.7067588
  83.2885720 107.0723735  51.6785317  82.7003698 110.4518081  51.3976774
  82.3937304 111.2442111  52.0804434  83.6545420 110.7152030  50.9413008
  81.9467789 110.3317477  50.6193554  79.5465189 109.2138204  54.2417801
  78.6596251 109.8469012  53.6959091  79.3877948 108.2666507  55.1392823
  80.1841180 107.6959811  55.3848529  78.0942460 107.9770850  55.7855502
  77.4865479 108.8809408  55.8285271  77.3009109 106.8659152  54.9456627
  77.2927356 107.2789627  53.9369883  77.8211264 105.9080756  54.9412822
  75.8785746 106.5782149  55.3012808  74.7444623 106.9850000  54.6384941
  73.7324201 106.4951696  55.2783588  72.7378536 106.7666718  54.9244905
  74.1265988 105.7033346  56.3116906  73.5682871 105.1760228  56.9676862
  75.4760450 105.7496383  56.3049977  76.0447679 105.1733172  57.0347302
  78.2102521 107.4732049  57.2471611  79.0585837 106.6066285  57.4904404
  77.2918609 107.8674307  58.1250408  76.7477605 108.6679572  57.8365769
  77.2024472 107.4270319  59.5471192  77.9811355 106.6643534  59.5551887
  77.6225991 108.5619730  60.4739795  76.8486022 109.3293956  60.4835369
  77.7620873 108.1747645  61.4832925  78.5579648 108.9944557  60.1188048
  75.8926888 106.6709999  59.9561100  74.9059076 107.3698759  60.2016551
  75.8724981 105.3602410  59.9726739  76.6033322 104.8567146  59.4905515
  74.7787915 104.5980091  60.5560556  73.8178004 104.9909398  60.2240904
  74.8906259 103.1816932  60.1163244  74.8469210 103.1396794  59.0280120
  75.7981917 102.6870321  60.4623513  73.7616032 102.3840285  60.6133795
  72.4158541 102.3917001  60.1677087  71.7744566 101.4525492  60.9070556
  70.7047131 101.2858882  60.7806750  72.6936463 100.8474392  61.7424705
  72.5113306 100.0800155  62.3732809  73.9256368 101.4677936  61.5774586
  74.7756718 101.1624220  62.1876142  74.7557296 104.7673962  62.0705655
  75.8705673 104.7417400  62.6820267  73.5799881 104.9131591  62.6870929
  72.7436334 104.9116145  62.1208705  73.4364274 105.0887657  64.1533810
  74.4200178 105.1984883  64.6101196  72.6084346 106.3414598  64.4658799
  71.6158276 106.2142773  64.0338439  72.5235072 106.4364004  65.5484110
  73.2611844 107.6142674  63.8880206  74.3306484 107.5148463  64.0736629
  73.0889552 107.7443150  62.8195980  72.7606184 108.8344624  64.6069189
  72.1940002 108.8351365  65.7224934  72.8576635 109.9632746  63.9607546
  72.5375043 110.8181588  64.3929265  73.2525185 109.9772213  63.0312406
  72.7084576 103.7557195  64.6542061  71.6100163 103.4499285  64.1800032
  73.2644796 102.9397045  65.5248662  74.2646228 102.8061257  65.5692465
  72.4132341 102.1250959  66.4028855  71.6561157 101.5729980  65.8460563
  73.3487175 101.1301303  67.0674638  74.1625299 101.6059302  67.6146593
  72.7358019 100.5520090  67.7589912  73.9892798 100.1326521  66.1158031
  73.3083138  98.9822656  65.7237161  72.4407753  98.6044054  66.2647324
  73.7741941  98.3081187  64.5941677  73.1208816  97.5494894  64.1631631
  75.0075865  98.5668628  64.0202133  75.3962365  97.9703663  63.1948389
  75.7625735  99.6328331  64.5316142  76.7539021  99.8299062  64.1235334
  75.2487259 100.4488151  65.5673492  75.8246876 101.3021053  65.9254885
  71.5950795 102.9181038  67.4246382  71.6778781 104.1107818  67.5787733
  70.6837000 102.1718778  68.0871819  70.4887430 101.2338304  67.7675602
  69.7921714 102.7651585  69.1486115  69.3410543 103.6738445  68.7500112
  68.6854087 101.8300700  69.5940506  69.1855588 100.9185257  69.9212146
  68.1882592 102.2964142  70.4446184  67.6295329 101.4798743  68.5040836
  68.1494343 100.9776335  67.6882665  66.5082120 100.5787367  69.0252023
  65.9875194 101.0805281  69.8407901  65.8045607 100.3704557  68.2192280
  66.9325832  99.6423359  69.3873668  67.0000853 102.7884507  67.9580309
  67.7798368 103.4129508  67.5220417  66.2606447 102.5456756  67.1948867
  66.5168932 103.3274456  68.7729596  70.5529071 103.3728666  70.3476502
  71.7392055 103.1839782  70.5445242  69.9612616 104.2053560  71.1793534
  69.0234910 104.4971940  70.9437349  70.5358321 104.6792159  72.4198305
  71.5080613 105.1404079  72.2461307  69.5924428 105.7332843  73.0176319
  68.6849581 105.1797512  73.2588205  70.0831481 106.0449979  73.9396639
  69.2264038 106.9849710  72.1786362  68.9488085 107.7384554  72.9157272
  70.1112293 107.3172340  71.6356933  68.0817309 106.8265013  71.1912861
  67.4976438 105.7836688  71.0487359  67.7969147 107.8613627  70.4621204
  67.0449743 107.8100512  69.7897707  68.3285033 108.7133028  70.5703470
  70.6499926 103.5660580  73.4371823  69.7242792 102.8761074  73.8720122
  71.9200222 103.3652221  73.7653282  72.5761571 103.8587381  73.1770865
  72.4267489 102.3621202  74.6564447  73.5084280 102.4803577  74.7203931
  71.8386090 102.4386736  76.0772603  70.7984633 102.1400547  75.9467876
  72.3415652 101.7256757  76.7305360  71.8722087 103.8241820  76.7436472
  72.4991113 104.7573644  76.2724257  71.2725378 103.9892803  77.8954594
  71.2871115 104.8942038  78.3437907  70.7980746 103.2109708  78.3304534
  72.4333459 100.9628165  74.0386779  72.5284744 100.0071705  74.7748078
  72.4382377 100.9606821  72.7098866  72.2473011 101.8468728  72.2645680
  72.5658637  99.7616845  71.8571210  72.4169855  98.8834123  72.4852710
  71.5708038  99.7114704  70.7075436  70.5676526  99.6362280  71.1272167
  71.6579860 100.6377751  70.1396890  71.8328285  98.4919787  69.7600417
  72.7371724  98.7558379  69.2117339  71.9747165  97.5298889  70.2523325
  70.6252004  98.3954110  68.7614316  70.0393760  97.3025930  68.7665006
  70.3432751  99.2840117  67.9321037  74.0490120  99.7828141  71.4660063
  74.4826694 100.5379439  70.6033944  74.8992035  98.9637189  72.0457973
  74.5465924  98.2194715  72.6304857  76.3268566  99.0385386  71.8162490
  76.5726300 100.0940567  71.6997319  77.2356776  98.4364378  72.9231624
  77.1059962  97.3559407  72.9848708  78.2182348  98.6608075  72.5080244
  77.1254559  99.0303034  74.2911553  75.9308873  99.2900772  74.9676083
  74.9726154  99.1351363  74.4718184  75.9696187  99.7599426  76.3126679
  75.0424287 100.0892111  76.7817124  77.1780205  99.9199319  76.9763928
  77.1902803 100.2197269  78.3386654  76.3099833 100.2922519  78.7147199
  78.3738800  99.6412905  76.2741649  79.3269445  99.7883732  76.7822350
  78.3493945  99.1887999  74.9632692  79.2820452  98.9544873  74.4500826
  76.7228726  98.2254322  70.5938447  76.5055296  96.9810970  70.5763526
  77.4797189  98.7703304  69.6612351  77.5376951  99.7786391  69.6540472
  78.2203912  98.0187828  68.6271723  77.7023119  97.1980408  68.1311122
  78.4746439  99.1158662  67.6113689  79.0009982  99.9410458  68.0910873
  79.0821391  98.7231176  66.7960173  77.5237887  99.4730426  67.2158960
  79.4911154  97.4041992  69.2196596  80.3102393  98.0457001  69.8330808
  79.6423426  96.0390305  69.1334057  78.8919384  95.4950306  68.7320866
  80.7953253  95.3243627  69.7004944  81.3466170  95.9893700  70.3652815
  80.3336019  94.0818149  70.5120186  79.5133411  93.5105686  70.0773357
  81.2578031  93.5098577  70.4294530  80.0335331  94.3616046  71.9991895
  80.9869982  94.6845077  72.4172071  78.9621991  95.3714828  72.3484383
  78.0082827  95.0490058  71.9311244  78.8759929  95.4504174  73.4321535
  79.2294803  96.3435340  71.9339777  79.3210345  93.1026542  72.4691690
  79.9768038  92.2422261  72.3360159  79.0631792  93.2025912  73.5235050
  78.4117996  92.9596647  71.8852641  81.8815477  94.9016712  68.6910039
  83.0779553  95.0215036  69.0701175  81.4669772  94.4289004  67.4947176
  80.5173843  94.6881126  67.2684837  82.2737968  93.7120101  66.4564839
  83.3355001  93.8806583  66.6366038  82.0037799  92.2091729  66.5012747
  82.5035423  91.8181996  65.6150035  82.5275319  91.8669050  67.3938197
  80.7085463  91.7595852  66.5310533  80.7034575  90.7999603  66.5573989
  81.8344564  94.0718384  65.0355910  80.7340255  94.6021018  64.8475976
  82.6871156  93.7723788  64.0736418  83.3226145  93.0089323  64.2563709
  82.7699175  94.4609532  62.7524355  81.7875724  94.7794420  62.4036346
  83.6309069  95.6840293  62.9511140  83.1719387  96.1930146  63.7986879
  84.6472850  95.3890741  63.2120297  83.6674592  96.6327685  61.7429084
  83.9822329  96.0477610  60.8787415  82.3310130  97.2939280  61.4471977
  82.0157873  97.8795297  62.3107961  82.4327401  97.9491626  60.5820851
  81.5848299  96.5278590  61.2363674  84.7519362  97.6295721  62.0403950
  85.7013606  97.1084553  62.1633994  84.8310949  98.3380540  61.2158414
  84.5110925  98.1662618  62.9580319  83.4211815  93.5083631  61.7064534
  84.6480333  93.1166280  61.9103731  82.7882238  93.1290475  60.5579181
  81.8038623  93.3421241  60.4822199  83.4224886  92.3232943  59.4751398
  84.5031303  92.2661102  59.3445921  82.8476088  90.8504925  59.5911522
  81.8011068  90.9402583  59.8824849  82.9500353  90.0262803  58.3059160
  83.9963567  89.9356824  58.0141892  82.5335838  89.0334694  58.4761957
  82.3932282  90.5217652  57.5105782  83.2343892  89.9773455  60.8250522
  82.9019892  90.4706595  61.7384270  82.7553776  89.0015357  60.7447853
  84.3163886  89.8490040  60.8551630  83.2188201  92.9702578  58.1226730
  82.1131189  93.5034665  57.8997863  84.1667983  92.7888438  57.2199990
  85.0464656  92.3937494  57.5203072  84.0683642  93.3183316  55.8338698
  83.0028971  93.3971124  55.6178312  84.7107880  94.6269708  55.5403034
  84.2778923  95.4292243  56.1378733  85.7874808  94.5913440  55.7063253
  84.4443618  94.8760165  54.1247818  84.8360940  95.7140128  53.8680566
  84.5251894  92.1823455  54.8826793  85.7083512  91.7962366  54.9415523
  83.6576865  91.6531740  53.9832098  82.7764985  92.1129569  53.8037471
  83.8968728  90.3162241  53.3650087  84.8691673  90.2767047  52.8739071
  83.8733045  89.2621173  54.5039531  84.2646317  88.3109995  54.1429308
  84.4745813  89.6058132  55.3456415  82.2279135  88.9065746  55.1739498
  82.6329566  88.0097834  56.0687145  82.9434938  90.0039293  52.1943514
  82.1323156  90.8769642  51.8341793  83.0096934  88.7818518  51.5988194
  83.8804907  88.2849581  51.7209176  81.9984348  88.2238674  50.6311069
  81.0258972  88.6919676  50.7832650  82.4763993  88.5214857  49.1558587
  81.6742100  88.2272943  48.4790699  82.6479870  89.5944963  49.0703836
  83.7885345  87.7508278  48.7769043  84.5693462  88.0822647  49.4614359
  83.5977317  86.6887841  48.9310458  84.2579953  87.9905117  47.2871889
  85.2679009  87.5814737  47.2575650  83.5940857  87.3610726  46.6946268
  84.2652399  89.4350277  46.7000924  83.2267524  89.7551806  46.6155564
  84.7843479  90.0725864  47.4157354  84.9169027  89.5394650  45.3901651
  84.4357742  88.9490931  44.7267827  84.8843104  90.4979547  45.0734078
  85.8793179  89.2432554  45.4683698  81.6851954  86.7854559  50.9776894
  82.6312126  86.0001570  51.2337950  80.4252565  86.4193312  51.0866463
  79.7443181  87.1380762  50.8870772  79.9379163  85.1084156  51.6169613
  80.7612344  84.4790341  51.9547856  79.0380714  85.4295363  52.8223798
  78.2037930  86.0461195  52.4878594  78.6613713  84.4686620  53.1729759
  79.7737934  86.1420218  53.9714784  80.2661547  87.0334897  53.5829348
  78.7692735  86.5480859  55.0761856  78.2768188  85.6570352  55.4655645
  79.3006056  87.0512732  55.8840157  78.0217794  87.2223978  54.6582664
  80.8131130  85.2762436  54.6786790  81.5704220  84.9584738  53.9620168
  81.2856108  85.8520241  55.4744955  80.3265395  84.3991012  55.1052543
  79.2563657  84.1510306  50.5375671  78.3965505  84.5708204  49.7723454
  79.7896978  82.9148515  50.5468932  80.6320609  82.6577611  51.0412902
  79.1072642  81.9057401  49.8019263  79.7165092  81.0112453  49.9315364
  78.1581343  81.7767724  50.3221370  78.8413686  82.1044363  48.3516680
  79.7850660  82.5419291  47.6296402  77.6580098  81.6740567  47.8626083
  77.0419151  81.0904182  48.4102331  77.2578121  82.0023157  46.4319064
  78.0246413  81.6896875  45.7231499  75.9921164  81.2436624  46.1366973
  75.7639710  81.4739114  45.0960079  76.2687827  80.1929452  46.2235829
  74.7516977  81.5215714  47.0077444  75.0592121  81.2730446  48.0235053
  74.5884453  82.5965308  46.9308482  73.4145048  80.7614269  46.6631396
  73.5944995  79.6894387  46.7440231  72.6522634  81.0567536  47.3841594
  72.9284362  81.0957664  45.2335402  72.2632155  81.9579981  45.2797827
  73.7925914  81.3370108  44.6145601  72.1919357  79.9247452  44.6334456
  71.3909076  79.7013143  45.2066230  71.8833254  80.1628255  43.7016852
  72.8082976  79.1257963  44.5901119  77.0459661  83.4464651  46.0450077
  77.0756162  83.7573791  44.8962935  76.7037403  84.3105355  47.0253495
  76.6626319  83.9552488  47.9699027  76.3804112  85.7146555  46.8001331
  75.7372948  85.8102319  45.9252813  75.6673128  86.2797421  47.9789370
  74.9226879  85.5394328  48.2714691  76.4341544  86.3475425  48.7505957
  74.9914342  87.6441161  47.8098907  74.3089580  88.0965727  48.8149053
  75.1926479  88.2307188  46.6775054  77.6743417  86.5981807  46.5413686
  78.5373892  86.5270537  47.3968608  77.8060925  87.3816490  45.4526275
  77.0479096  87.0801430  44.3056150  76.0166035  87.3830802  44.4865487
  77.0863224  86.0031731  44.1420322  77.6908890  87.8555284  43.1831396
  77.2970640  88.8709446  43.1391974  77.5246498  87.3601901  42.2265280
  79.1663368  87.8477415  43.5490280  79.7316950  88.6670830  43.1050138
  79.6367580  86.8995114  43.2889065  79.1231028  88.0119631  45.0936610
  79.8790154  87.4291335  45.6199726  79.3004928  89.4898167  45.4243445
  80.4221164  90.0220308  45.2707982  78.2792862  90.1621025  45.9161859
  77.3514691  89.8409260  45.6793306  78.4093095  91.3961607  46.6922145
  78.7974672  92.2148746  46.0862934  76.9975618  91.7642687  47.1672155
  76.6799526  90.9028218  47.7546956  76.9964290  92.6535780  47.7974756
  75.9950112  91.9735174  46.0204652  75.8637210  93.0921644  45.5579299
  75.2065169  91.0223630  45.5821367  74.5648629  91.2112288  44.8253608
  75.2443580  90.1051205  46.0032484  79.4361662  91.2919778  47.8610418
  79.5594664  90.2391425  48.5518991  80.1108939  92.3579374  48.0659652
  80.0555132  93.0891922  47.3714879  80.9623683  92.5835457  49.2569917
  81.2476073  91.6817526  49.7987547  82.2597185  93.4106460  48.9408466
  81.9479597  94.1668073  48.2203421  82.9634635  94.0735057  50.0880070
  83.2759525  93.3178776  50.8087541  83.8394286  94.6066015  49.7184221
  82.2870530  94.7783344  50.5715212  83.1772272  92.6456575  48.1742109
  83.9600728  93.1713247  47.9941357  80.0902723  93.3720743  50.2798647
  79.5298378  94.4008147  49.9821143  80.0776945  92.9109420  51.5187565
  80.8439005  92.2809767  51.7089442  79.1337832  93.2182402  52.6153445
  78.4518308  94.0142767  52.3164028  78.3295941  91.9943035  52.9379710
  78.9670400  91.1144506  53.0252682  77.9084344  92.2354829  53.9139613
  77.2307048  91.7155083  51.9806646  76.1866320  92.6248292  51.7533623
  76.1574550  93.5633979  52.3068395  75.1499087  92.3206334  50.7876176
  74.4221993  93.0841350  50.5126518  75.1818695  91.1137248  50.1028745
  74.0991598  90.6633502  49.4001260  73.3501290  91.2624526  49.4404840
  76.2917379  90.3022266  50.2840176  76.3357783  89.4178183  49.6484211
  77.2949235  90.5487547  51.1869398  78.1252198  89.8492069  51.2835893
  79.8330741  93.6377954  53.9284357  80.8453012  92.9754086  54.2898924
  79.2994561  94.6488308  54.6832485  78.7722123  95.3357838  54.1634324
  79.5886318  94.9164717  56.0840925  80.5852539  94.5498519  56.3299247
  79.5358979  96.4180448  56.3701736  78.6275666  96.7431384  55.8628792
  79.4876253  96.7056044  57.4204494  80.7177728  97.2292620  55.7371149
  82.0279749  97.1655974  56.2789481  82.2577163  96.4647578  57.0815331
  83.0189788  98.0010603  55.7822288  84.0216058  97.9611192  56.2079571
  82.7295380  98.9123699  54.7157642  83.4942698  99.5926196  54.3408700
  81.4237963  98.9230871  54.1439698  81.2092327  99.5258005  53.2614738
  80.4264810  98.1607187  54.7183124  79.3945513  98.2733189  54.3858336
  78.7322835  94.0312997  57.0064488  77.5430099  93.8472339  56.6229568
  79.2646074  93.4583255  58.1086053  80.2598425  93.4658339  58.2805063
  78.3692482  92.8034713  59.1267942  77.3130101  93.0227665  58.9706850
  78.6151934  91.2680930  58.9466404  79.6587465  91.0226675  59.1437791
  77.7075701  90.5285291  59.9684160  76.6637577  90.7731139  59.7716051
  77.8525439  89.4525463  59.8717501  77.9688593  90.8404310  60.9796253
  78.2801625  90.8676288  57.4641615  77.3077368  91.2993848  57.2273583
  79.0422704  91.3201855  56.8297456  78.2418774  89.3715049  57.2188830
  77.4796291  88.9182829  57.8526551  78.0042862  89.1803205  56.1724136
  79.2141628  88.9390831  57.4550449  78.7894550  93.2805745  60.5350133
  79.9883268  93.2647287  60.7786117  77.9141816  93.6012455  61.4435613
  76.9659854  93.3382615  61.2158274  78.1805665  94.1604671  62.7736434
  79.2700895  94.1867277  62.7923337  77.6556483  95.5951533  62.8509324
  76.5677935  95.5302724  62.8724195  78.1380375  96.3877645  64.0498144
  79.2258519  96.4534740  64.0287657  77.7132617  97.3910704  64.0175123
  77.8223303  95.8894448  64.9663886  78.3182224  96.4642062  61.6985832
  78.0643959  96.0365270  60.7286530  77.9444354  97.4866489  61.7532990
  79.4012368  96.4667553  61.8217663  77.3362470  93.3978817  63.7754028
  76.1302406  93.3367226  63.6239366  78.0137645  92.9075306  64.7954847
  79.0193954  92.8480775  64.7228815  77.3717419  92.4393277  66.0434470
  76.3990174  92.0477960  65.7457742  77.9954316  91.6229648  66.4076751
  77.1778703  93.4449947  67.1565120  77.9388433  94.3574824  67.3388943
  76.1891682  93.2509377  68.0247609  75.6748859  92.3826132  68.0650799
  75.7731580  94.3465765  68.9053381  76.6107947  94.9672675  69.2234679
  74.6855524  95.2667499  68.2624386  74.5031648  96.0638775  68.9831484
  75.0220910  95.8628597  66.9365442  75.2041696  95.0662853  66.2151453
  74.1915854  96.4799689  66.5937092  75.9167029  96.4783865  67.0308675
  73.4445800  94.5909354  68.1552786  72.7949253  95.1758193  67.7584664
  75.2696411  93.7755925  70.2227500  75.3867834  92.5404788  70.3979974
  74.8244825  94.6185249  71.1682492  74.8624912  95.6070174  70.9644422
  74.2582574  94.2016812  72.4257490  73.6589536  93.3029190  72.2802825
  75.3524800  93.8961530  73.4195565  75.9557104  94.7892603  73.5825678
  74.9086920  93.5807462  74.3638399  75.9843393  93.0975070  73.0309466
  73.4386537  95.2454178  73.0511255  73.5739825  96.4409972  72.8344370
  72.6286537  94.8426242  74.0268854  72.2555119  93.9044418  74.0008393
  72.1665476  95.7545192  75.1042555  72.7277009  96.6870966  75.1634641
  70.7239820  96.0742838  74.6555016  70.3470551  95.1730177  74.1720301
  70.1549802  96.2626651  75.5659133  70.5741298  97.2559736  73.7110845
  70.9261277  98.1484278  74.2285049  71.2003568  97.0719855  72.8381068
  68.8742365  97.5135341  73.1764112  68.6072996  99.2568001  72.9931698
  69.2974946  99.6543441  72.2490672  67.5820379  99.4358379  72.6693109
  68.7780341  99.7534160  73.9483261  72.2946709  95.1703288  76.5122061
  72.1268168  93.9579979  76.6516903  72.3721882  96.0114691  77.5316761
  72.4115862  96.9988500  77.3228076  72.5321462  95.5908354  78.9207386
  72.5799188  94.5039808  78.9882976  73.8082225  96.1833609  79.5674471
  73.6440764  97.2487290  79.7291447  74.1554021  95.4865628  80.9493432
  74.3201485  94.4211774  80.7883664  75.0576032  95.9343093  81.3660647
  73.3273814  95.6246638  81.6446212  75.0483809  96.0746893  78.6642968
  74.8693253  96.6136770  77.7339563  75.9090176  96.5073538  79.1744003
  75.2469580  95.0259095  78.4435508  71.2703669  95.9030601  79.7583021
  71.1317159  96.9045717  80.4769011  70.3050086  94.9680256  79.6778232
  70.3851919  94.2937724  78.9301250  69.1500987  94.9530966  80.4611713
  68.7180652  95.9527753  80.5068747  68.1076756  93.9929590  79.8518882
  68.5754520  93.0093315  79.8099196  67.2670994  93.9656778  80.5452766
  67.6085345  94.3776156  78.4635599  66.7296516  93.4556687  77.8843278
  66.4711454  92.5358818  78.4089858  66.1742683  93.7235806  76.6069251
  65.3660227  93.0961032  76.2312749  66.6160585  94.8397555  75.8504789
  66.2412149  95.0480993  74.5416110  65.6573463  94.3643139  74.2052561
  67.5198923  95.7219196  76.4428176  67.8873779  96.5664924  75.8599356
  67.9637310  95.5349372  77.7850526  68.5755837  96.2969040  78.2679013
  69.4643229  94.6470269  81.9702964  70.0987107  93.6082240  82.3493405
  68.9022292  95.4623004  82.9492350  68.3270745  96.7921773  82.7049183
  67.4813608  96.7119966  82.0219544  69.0812309  97.4499611  82.2728679
  67.8905490  97.2472162  84.1691710  66.8320275  97.0419335  84.3288282
  68.0781254  98.3122974  84.3052539  68.7614040  96.4209241  85.0974203
  68.2308036  96.1888224  86.0208330  69.6696613  96.9765734  85.3307057
  69.1074518  95.1565351  84.3786133  70.1694863  94.9556262  84.5193845
  68.2919057  93.9585901  84.8742354  68.4525738  93.5251340  85.9793329
  67.3866221  93.4313259  84.0565215  67.3376017  93.7885422  83.1130742
  66.4620356  92.3689381  84.4436105  66.1445103  92.4874936  85.4795746
  65.1824829  92.4590777  83.5071311  65.5639234  92.3856069  82.4886988
  64.5920941  91.5724488  83.7382813  64.2810806  93.7348595  83.6362970
  64.9533290  94.5719572  83.4480143  63.4825143  93.7368712  82.8944162
  63.6655015  93.8735334  85.0626027  64.4278561  94.2795082  86.0400043
  62.4881085  93.4999817  85.1674353  67.1211900  90.9537226  84.2834086
  66.4775646  89.9282154  84.6434119  68.3262393  90.8533346  83.6875492
  68.6622556  91.7483522  83.3617641  69.1304972  89.6854997  83.4275535
  68.7836008  88.8250770  83.9997725  68.9891742  89.3696749  81.9334790
  69.1443179  90.3003892  81.3877679  69.7763561  88.6616367  81.6743911
  67.6412000  88.7846530  81.5610922  66.8621003  89.5122779  81.7883952
  67.6653467  88.6026432  80.4866674  67.3455974  87.4802364  82.2902021
  66.1470190  87.2874791  82.6521643  68.2328113  86.6591679  82.4810106
  70.6349903  89.8849123  83.8263468  71.2332485  90.8787450  83.3582947
  71.1924462  89.0038923  84.6284264  70.5958222  88.3297990  85.0863972
  72.6659068  89.0111836  84.9758838  73.0286498  90.0134986  85.2036583
  72.8791638  88.1214108  86.2065896  72.5290643  87.1119649  85.9908365
  73.9400817  88.0921396  86.4549778  72.3201359  88.5268090  87.0499397
  73.4585436  88.5609591  83.7023945  74.3303006  89.2737989  83.1837029
  73.0705773  87.4713352  83.1041303  72.5579308  86.7622725  83.6086330
  73.5537972  87.1560318  81.7886581  74.6423479  87.1866782  81.7415676
  73.0900329  85.7271026  81.4809117  73.4204331  85.1298140  82.3307241
  72.0011268  85.7752371  81.4727420  73.5871565  85.0751442  80.1681107
  73.4715893  85.6956670  79.2794620  74.6448942  84.9929454  80.4181776
  73.0092632  83.6589469  79.8895957  72.3970344  83.0591881  80.7732349
  73.0341625  83.3024125  78.7158989  73.2511680  88.2171004  80.6957867
  72.2412004  88.9123414  80.8824236  74.1683561  88.5217822  79.7480588
  75.5898569  88.1678771  79.6967890  75.6379646  87.0854463  79.5779219
  76.0161379  88.4463379  80.6605541  76.2474262  88.9228945  78.5223302
  76.3413057  88.2856664  77.6429975  77.2292632  89.3077256  78.7980155
  75.2552199  90.0732032  78.2791627  75.2357427  90.2971092  77.2125860
  75.4571834  90.9869437  78.8380802  73.9296202  89.4912751  78.7054421
  73.3621046  90.3448610  79.0761379  73.0938492  88.7424017  77.6270478
  73.5916489  88.1805843  76.6661447  71.7933605  88.7841031  77.8649641
  71.4046149  89.3899541  78.5734278  70.8821620  87.8469103  77.1639443
  71.4261253  86.9513068  76.8637819  69.7565405  87.4423438  78.0780931
  69.3757223  88.3489907  78.5482718  68.9762775  86.9994026  77.4591482
  70.1770288  86.4440599  79.1608987  70.9676657  85.8088379  78.7615404
  70.5562598  86.9992741  80.0188165  68.9797183  85.5620803  79.6042063
  68.2297200  86.1999024  80.0719502  68.5514768  85.0849397  78.7227044
  69.4326915  84.4753339  80.6102712  69.9180508  83.6904193  80.0302402
  70.1627308  84.9417652  81.2717723  68.2958028  83.8638442  81.4506512
  67.6194415  83.4312109  80.8379004  68.6763520  83.1684630  82.0765324
  67.8462035  84.5909302  81.9885225  70.3815280  88.4500188  75.8586188
  69.5891102  87.7134909  75.1790641  70.8054737  89.5926099  75.3661721
  71.4938795  90.1089358  75.8949485  70.1934686  90.2435669  74.1892054
  69.7763844  89.4913825  73.5196096  69.0539459  91.1881641  74.6432334
  68.7544431  91.7940625  73.7880818  68.2127004  90.5745612  74.9655647
  69.5053923  92.1450785  75.8420002  70.5115798  92.5291236  75.6740805
  68.7886657  92.9634965  75.7741989  69.4388231  91.5627903  77.2227446
  68.6891305  90.6702671  77.5803023  70.3623129  92.0193677  78.0542394
  70.3922412  91.6816429  79.0056319  71.0326583  92.7033085  77.7333603
  71.2211315  90.8999396  73.2633605  72.0050919  91.7356400  73.7349577
  71.0754167  90.5392323  72.0085563  70.3385283  89.8989300  71.7495046
  71.9835693  91.0559553  70.9273111  72.2277957  92.1004174  71.1210931
  72.9004791  90.4669740  70.9054721  71.2728190  90.9477312  69.5298006
  70.2144359  90.3097101  69.4292614  71.9666874  91.4175327  68.4762436
  72.6826384  92.1003256  68.6794855  71.6511742  91.1367226  67.0685508
  71.4459173  90.0713609  66.9637971  70.4835139  91.8908614  66.5827555
  70.2975005  91.6282144  65.5413551  69.6135208  91.6275321  67.1843116
  70.7424398  93.4010475  66.6911768  71.0968880  93.6319050  67.6957524
  71.5022719  93.6867468  65.9637614  69.4993919  94.1508132  66.4239738
  69.1680941  93.8940754  65.4177797  68.7528161  93.8217658  67.1467820
  69.6407361  95.6909716  66.5223347  69.7975896  96.0411823  67.4565985
  69.4818446  96.5674103  65.5342594  69.2650225  96.2147723  64.3147204
  69.2097602  95.2344778  64.0779315  69.1512765  96.9201891  63.6008937
  69.6449123  97.8208216  65.7659403  69.8920867  98.1316177  66.6946009
  69.5251277  98.4892118  65.0182739  72.8918026  91.3142340  66.1674177
  73.6938306  92.2072958  66.4618674  73.0682582  90.3927207  65.2074371
  72.6407206  89.4896769  65.3551624  73.8549901  90.5996403  63.9821958
  74.7423327  91.1186193  64.3446640  74.2957360  89.2386737  63.2353170
  73.4182023  88.7660707  62.7940899  75.2872808  89.5567862  62.1564377
  76.1653512  90.0290267  62.5969849  75.5843581  88.6370167  61.6525826
  74.8339490  90.2358924  61.4343544  75.0875386  88.2192904  64.1688090
  76.1481209  88.4707544  64.1744489  74.6973348  88.2695663  65.1853289
  74.8993624  86.7781384  63.6119205  75.2897811  86.7269601  62.5955279
  75.4373382  86.0709748  64.2432689  73.8389941  86.5257728  63.6064058
  73.0682506  91.4561989  62.9333458  71.9499599  91.0706195  62.7518233
  73.6065261  92.5515522  62.4235128  74.3907942  92.9396342  62.9279086
  73.0942051  93.2941257  61.2237758  72.2606598  92.8777478  60.6581515
  72.7236414  94.7517186  61.6614188  73.6417730  95.3359560  61.7230659
  71.7310142  95.4360706  60.6355501  70.8123990  94.8526132  60.5737075
  71.4975064  96.4456945  60.9735357  72.1986975  95.4817798  59.6520438
  72.2606308  95.0403975  63.0651334  73.0389253  94.7517855  63.7715772
  72.0539248  96.1056385  63.1682534  71.3534584  94.4729954  63.2729651
  74.1333447  93.2750999  60.0441963  75.3210269  93.2295622  60.3292216
  73.6653771  93.5350928  58.8362902  72.7734018  94.0071851  58.7961884
  74.3389214  93.2361949  57.5929881  75.4136868  93.1615238  57.7585259
  73.8451858  91.9189183  56.9491265  72.7661014  91.9558328  56.7997499
  74.5302455  91.7602812  55.6187422  75.6094166  91.7228204  55.7673609
  74.1968745  90.8366120  55.1456678  74.2813779  92.6063409  54.9781569
  74.0431178  90.5665625  57.7052261  73.5238293  90.6056803  58.6627810
  73.6375429  89.7516888  57.1055683  75.1063044  90.3972489  57.8757196
  73.9963604  94.3904095  56.6458400  72.8173026  94.7593729  56.5258917
  75.0321373  95.1267728  56.0904038  75.9513456  94.7873391  56.3352303
  74.9361184  96.3073387  55.2725715  73.9088219  96.4383464  54.9325744
  75.3678873  97.6026276  56.1056041  76.4572011  97.6411870  56.1028036
  74.9738828  98.4349454  55.5224167  74.9315384  97.8301975  57.5320310
  73.9365556  98.7021300  57.8514556  73.4851686  99.3429534  57.0940291
  73.4891317  98.7686046  59.1930788  72.6861075  99.4517171  59.4698641
  74.0755267  97.9615331  60.1560563  73.6573904  97.9631248  61.1626642
  75.1609870  97.1706995  59.8640871  75.7057102  96.6328662  60.6400459
  75.5600269  97.0668498  58.5337817  76.3676291  96.3885847  58.2584000
  75.7658016  96.2695109  53.9969427  76.6589189  95.4397641  53.8446012
  75.4939346  97.1155030  52.9941867  74.6918974  97.7120688  53.1389103
  76.2350474  97.1953312  51.6305558  77.2623820  96.8414220  51.7167602
  75.4775917  96.2793218  50.6367622  75.6569232  95.2324955  50.8819031
  74.4078764  96.4840463  50.6803167  76.0057789  96.5744022  49.1960718
  75.6401580  97.5588535  48.9040484  77.0954057  96.5690512  49.1680218
  75.5011837  95.5729810  48.2228784  74.8386371  94.5963693  48.4975283
  75.8145696  95.7021739  46.9359272  75.4759566  95.0259079  46.2665192
  76.3895759  96.4758942  46.6345536  76.2579089  98.7191910  51.2798185
  75.4172867  99.4886708  51.7933983  77.2076299  99.1620914  50.4891869
  77.8754485  98.4872079  50.1447310  77.4424399 100.5560030  50.2149758
  76.6755145 101.2056520  50.6367348  78.7815548 100.8565482  50.9148127
  78.9217446 100.5219637  51.9426742  79.4931158 100.3451468  50.2665461
  79.0061260 102.3219178  50.8367823  78.4895499 103.2620207  51.7500570
  77.8963728 102.9421148  52.6067369  78.7500671 104.6389834  51.5434688
  78.2414233 105.4161270  52.1139346  79.5255017 104.9885686  50.3875449
  79.7923913 106.3489121  50.1830049  79.4135106 106.9117550  50.8621640
  80.1954989 104.0360674  49.6101388  80.8761221 104.3085543  48.8035389
  79.9636332 102.6950284  49.9018949  80.5372571 101.9197035  49.3940297
  77.3631326 100.9371106  48.7405544  77.8458608 100.1942283  47.8474624
  76.7027650 102.0259889  48.4346302  76.3276435 102.5699183  49.1985176
  76.4329738 102.4818593  47.0458149  77.3537058 102.5330093  46.4646648
  75.4582899 101.4240459  46.3628309  76.0652749 100.5437399  46.1513366
  74.7068137 101.1751154  47.1121087  74.8357089 101.8383280  45.2103010
  74.2739907 101.1338085  44.8790538  75.8022188 103.9413890  47.1037294
  75.3429906 104.4536769  48.0876123  75.8263912 104.5861879  45.9363648
  76.3598010 104.1424462  45.2024256  75.3565825 105.9662715  45.7218722
  76.0010276 106.4634655  44.9968978  73.9473806 105.9775992  45.1991146
  73.2667431 105.7137626  46.0085726  73.7900463 107.0188075  44.9176343
  73.6771326 105.0765009  43.9915332  72.4794042 104.9570105  43.6564098
  74.6888540 104.5634666  43.3610702  75.5945525 106.9553943  46.8814034
  74.6144131 107.6154826  47.3139682  76.7652735 106.9523489  47.5175992
  77.4280009 106.2508302  47.2196678  77.1795005 107.9165958  48.6504725
  78.2478701 107.7969554  48.8303940  76.9785660 108.9370067  48.3241502
  76.4297245 107.6549545  49.9411722  76.3532409 108.5403222  50.8036177
  75.8305707 106.4405953  50.0663581  76.0061793 105.8021783  49.3036756
  74.9338684 106.0053697  51.1473362  75.0333138 106.6941551  51.9862548
  73.4331948 105.9737732  50.7010015  73.3463524 105.3185386  49.8342690
  72.8392561 105.5708720  51.5213718  72.9259612 107.3557941  50.3418383
  73.7478427 107.8846865  49.8592571  72.1112457 107.2243734  49.6297504
  72.4224711 108.1811443  51.5575787  71.4759015 107.7824325  51.9224539
  73.1582527 108.1619454  52.3615416  72.2245743 109.5928171  51.0956754
  72.1022566 110.2084435  51.9868225  73.1328972 109.8897990  50.5714135
  71.0563568 109.7786645  50.2031904  70.2145312 109.5039370  50.6889415
  70.9886313 110.7500982  49.9351797  71.1697041 109.2086227  49.3771736
  75.3434145 104.5964561  51.6815650  75.7015250 103.6716171  50.8749611
  75.1850972 104.3571131  53.0008529  75.3280694 105.1475333  53.6131388
  74.9730491 103.0406335  53.6050143  75.4094520 102.2761187  52.9622322
  75.6130219 102.9449334  54.9737062  76.4567570 103.6264050  54.8650474
  74.9889554 103.2700117  55.8061514  76.1659814 101.4371333  55.2651365
  75.2902248 100.8030737  55.1268628  77.3300213 100.8814023  54.4490366
  78.2063353 101.5147186  54.5871780  77.5577679  99.8690401  54.7827356
  77.0583917 100.8630332  53.3935839  76.4296562 101.3106341  56.7319980
  75.5057787 101.4834416  57.2839828  76.8006119 100.3091427  56.9499614
  77.1750017 102.0470023  57.0325326  73.4885918 102.6277067  53.6314177
  72.6763986 103.4109483  54.1228072  73.0819824 101.3744907  53.3558919
  73.8185949 100.7022261  53.1960117  71.6834597 100.9090224  53.2886489
  71.0707626 101.5706085  53.9010257  71.1178543 100.8961541  51.8656578
  71.8450471 100.3705322  51.2467786  70.1920134 100.3221951  51.9042571
  70.8295274 102.3172764  51.2452266  70.1955914 102.8831536  51.9278751
  71.7915553 102.8194328  51.1430340  70.1658732 102.2734165  49.8992546
  70.0240370 101.2050048  49.3122622  69.7069578 103.3448487  49.3420484
  69.2645211 103.2892871  48.4358123  69.7927903 104.2329715  49.8153053
  71.7719525  99.4685094  53.8437402  72.4947109  98.6759665  53.2060466
  71.1463159  99.1586088  54.9488640  70.8497873  99.9554246  55.4940747
  70.8799161  97.7908457  55.4900739  71.8063856  97.2828120  55.7577585
  69.9336747  97.7899187  56.7318611  69.1042003  98.4277656  56.4265353
  69.3889996  96.4797374  57.2858863  70.2179345  95.8415070  57.5918740
  68.7524778  96.6852726  58.1465223  68.8062688  95.9735440  56.5162802
  70.6484216  98.4389306  57.6821429  70.1354994  98.4854732  58.4922940
  70.2668404  96.7644572  54.5209553  69.4489109  97.1291804  53.7063853
  70.6191348  95.4994195  54.7929705  71.1912036  95.3446540  55.6108240
  70.2425242  94.3214798  53.9607954  69.5582998  94.6490859  53.1781010
  71.4619368  93.5691094  53.2848947  72.1127208  93.2725798  54.1074819
  71.1357874  92.3283317  52.4103043  70.4853687  92.6241821  51.5871828
  72.0603212  91.9118100  52.0104951  70.6323829  91.5767206  53.0183883
  72.1128646  94.7015566  52.4267594  72.4247780  95.5179852  53.0781092
  72.9811806  94.3055512  51.9001603  71.3872608  95.0720726  51.7026614
  69.4998715  93.3133997  54.8200970  68.5124298  92.7840628  54.3031817
  70.0210881  93.0011288  55.9576287  70.9292389  93.3863854  56.1742820
  69.4461566  92.0070047  56.8799844  68.3848657  92.2350343  56.9787940
  69.5952379  90.6059346  56.2005404  70.6525282  90.3595285  56.1029636
  69.1016072  89.8506330  56.8120538  69.1356101  90.6299580  55.2124795
  70.0091386  92.0807506  58.2817143  71.0221932  92.7239909  58.5744178
  69.3001487  91.5395380  59.2642658  68.3802193  91.2863274  58.9330355
  69.5508841  91.4906660  60.6684169  70.6323927  91.4519063  60.7985549
  69.0061962  92.6508101  61.4801600  69.4814600  92.6503244  62.4610899
  69.2382813  93.5829404  60.9650197  67.4794357  92.5240461  61.6493054
  67.2538471  92.6479060  60.5901220  66.9857999  91.6269126  62.0229020
  66.9601621  93.7792871  62.4466372  67.4867050  93.9587451  63.5564320
  65.9005168  94.3490155  62.1736789  69.1904597  90.0495489  61.1842779
  68.4477597  89.3643505  60.4804250  69.6868483  89.6389504  62.3452883
  70.4500539  90.1722377  62.7367230  69.2894032  88.4211942  63.0124946
  68.2517768  88.1608080  62.8036172  70.1963852  87.3155283  62.4486225
  70.0029023  87.2386466  61.3786913  71.2310317  87.6184572  62.6093728
  69.9543310  85.9550089  63.1100565  70.4728675  85.9233514  64.0682938
  68.8850318  85.8184657  63.2714791  70.4662911  84.8668221  62.2330979
  69.9530115  84.9128077  61.2726145  71.5362796  85.0072191  62.0797590
  70.2148784  83.4808359  62.8883794  70.7364104  82.7030024  62.3306340
  70.5665647  83.4852850  63.9200751  68.7416429  83.2095219  62.8644849
  68.4156404  83.2049298  61.9085555  68.5579437  82.3108096  63.2871797
  68.2582308  83.9299328  63.3816115  69.3404164  88.6253118  64.5031574
  70.4326550  88.7652813  65.0895108  68.1523847  88.5781492  65.1284993
  67.2945678  88.5024976  64.6007434  68.0696509  88.6128841  66.5529036
  68.4819436  89.5393043  66.9527280  66.5669902  88.5368946  66.9277190
  66.0861291  89.2212106  66.2287316  66.2860415  87.5123721  66.6837487
  66.1391448  88.8465836  68.2787460  66.6911026  88.1360637  68.8940547
  66.4172831  89.8624056  68.5595376  64.6659666  88.6543500  68.4925641
  64.0437468  87.7980408  67.8578098  64.0155612  89.4166251  69.2527605
  68.7925690  87.4319061  67.2082947  68.4963937  86.3330068  66.7901483
  69.5733400  87.5976251  68.2930043  69.8140215  88.5346589  68.5830724
  70.0813341  86.4810304  69.0761079  69.5719359  85.5377349  68.8791149
  71.5771481  86.3155306  68.7307207  72.0810636  85.7897307  69.5417096
  71.7220166  85.4879402  67.3992973  71.2187095  86.0133760  66.5876939
  72.7781953  85.3716180  67.1562827  71.2695850  84.5050282  67.5307934
  72.3095965  87.6078170  68.5985426  72.2532677  88.1558264  69.5390822
  73.3537172  87.4110246  68.3552642  71.8579168  88.2024910  67.8045342
  69.9839110  86.6399862  70.5996504  69.9467882  87.7452761  71.1579775
  69.9913017  85.5412600  71.3646969  69.9238593  84.6760955  70.8479367
  69.9662832  85.4808344  72.8060545  69.4812661  86.3596837  73.2308856
  69.2000158  84.2999602  73.1799507  68.3055747  84.2583581  72.5583852
  69.8128163  83.4180462  72.9933945  68.7850326  84.3369656  74.6892914
  69.6679005  84.3280261  75.3284824  68.1929128  85.2273136  74.9008965
  67.9443126  83.0886661  74.9640228  67.2962444  82.8376438  74.1243238
  68.5610776  82.2262244  75.2167965  67.0825751  83.4762566  76.1786387
  67.7316126  83.8996743  76.9451688  66.3553056  84.2250773  75.8648778
  66.3745616  82.3025926  76.7271301  67.0482999  81.6087755  77.0183246
  65.8182762  82.5857715  77.5211428  65.7727715  81.9103499  76.0171347
  71.3589712  85.5259408  73.4528826  71.7537229  84.6915033  74.3086596
  72.1341333  86.5357864  73.1331632  71.7483839  87.1342488  72.4168256
  73.4709291  86.8776657  73.6946921  73.3363439  87.0548964  74.7617325
  74.1130977  86.0089915  73.5493508  74.1352513  88.0931518  73.0717293
  73.9567389  88.2948948  71.9055200  75.0151873  88.8423744  73.7313990
  74.9042836  88.7585433  74.7317850  75.9509418  89.8410640  73.2194308
  75.3392957  90.5811162  72.7033774  76.5681603  90.4887238  74.4358091
  77.1909693  89.7625052  74.9581266  77.1805080  91.3355261  74.1258795
  75.7791898  90.8363306  75.1027381  76.9769823  89.3345911  72.1460435
  77.7098009  88.3312182  72.3735287  77.0469390  89.9635805  70.9330297
  76.4413364  90.7476171  70.7364810  77.8812157  89.4347350  69.8406918
  78.0316503  88.3614678  69.9571657  77.1705916  89.6933372  68.4761592
  77.2664555  90.7559475  68.2530704  77.7752689  88.8458467  67.2800646
  77.6793402  87.7830493  67.5022363  77.2342663  89.0748504  66.3619285
  78.8284399  89.0962594  67.1526835  75.6490184  89.3583249  68.4944546
  75.1500527  89.9732027  69.2434943  75.2198018  89.5619326  67.5134262
  75.5112553  88.3051437  68.7392638  79.3085833  89.9519369  69.8683671
  79.6717750  90.9553555  69.2754516  80.1204843  89.3333998  70.7533584
  79.8008900  88.4961285  71.2191218  81.4811008  89.8089500  71.0325459
  81.4716017  90.8382167  71.3911808  82.0756257  88.9134251  72.1279163
  82.0434065  87.9741533  71.5758025  83.1046679  89.1310197  72.4139665
  81.1681831  88.7897890  73.4475439  80.9663045  89.8621442  74.3854930
  81.2039536  90.8956262  74.1334269  80.4431721  89.5461885  75.6674394
  80.1778453  90.3411313  76.3644111  80.0185705  88.2281772  75.9098333
  79.7972022  87.8867562  77.1877855  79.9605706  88.6062638  77.8019673
  80.0744122  87.2107063  74.9409987  79.5899616  86.2431435  75.0722629
  80.8002890  87.4857692  73.7520225  81.0692455  86.6730257  73.0773296
  82.4312354  89.7047171  69.8032185  83.3135463  90.5926405  69.7812979
  82.3876235  88.6656319  68.9044683  81.6152223  88.0170966  68.9582979
  83.4752346  88.3831100  67.9411903  83.9345971  89.3144874  67.6100992
  84.5733191  87.4983824  68.6242742  84.8405170  87.9302145  69.5887562
  84.1876008  86.4897726  68.7726912  85.7510752  87.4461019  67.7742559
  86.4238936  86.9040581  68.1927099  82.9013610  87.7785057  66.7069108
  81.9566448  86.9881120  66.8106273  83.5183229  88.0835034  65.5572594
  84.3909937  88.5896523  65.6058230  82.9616406  87.7394630  64.1886225
  82.5207521  86.7430733  64.2190214  81.8967910  88.7270036  63.7583843
  82.4220268  89.6808316  63.7090015  81.6285427  88.4079628  62.7512319
  80.6299843  88.8867140  64.5956414  80.4044237  87.8622384  64.8917378
  80.9814585  89.4459524  65.4627172  79.1055089  89.6765686  63.9454797
  79.9855083  91.0447115  63.1866154  80.6878820  90.6601354  62.4471079
  79.2729521  91.7097999  62.6987407  80.5308198  91.5961681  63.9525346
  84.0196915  87.7020888  63.0884074  84.9732923  88.4076209  63.2195559
  83.8689714  86.9330401  61.9906166  82.9899272  86.4522327  61.8633183
  84.9087094  86.6551411  61.1044281  85.2315834  87.4988691  60.4945310
  86.2059718  85.9763206  61.7707960  86.6866166  86.7042008  62.4244551
  85.8180847  84.7428210  62.5817617  85.3377636  84.0142435  61.9286405
  86.7118994  84.3012825  63.0224879  85.1271894  85.0307951  63.3741229
  87.4228719  85.6906698  60.8539565  87.7803338  86.6254039  60.4219898
  88.2202888  85.2333045  61.4396551  87.1248696  85.0121618  60.0546304
  84.3075800  85.8467015  59.9707783  83.4142898  85.0603648  60.2335197
  84.7457234  85.9936070  58.7176920  85.2065339  86.8826217  58.5857604
  84.5357188  85.1224162  57.5258037  83.5379798  84.6846619  57.5572258
  84.6747794  85.9688686  56.1964435  83.9077804  86.7426777  56.2285568
  85.6603933  86.4339588  56.2153195  84.5180701  85.1354216  54.8857444
  84.2304091  84.2253102  55.4120991  83.7474642  85.3933826  54.1592997
  85.8199729  84.9113030  54.1749105  86.2801410  83.7283076  54.0553936
  86.5788153  85.9144785  54.0031951  85.4755751  83.8962022  57.5986337
  86.6805501  84.0818735  57.5127529  84.9030061  82.7138057  57.7061380
  83.8967459  82.7695544  57.6395654  85.5164019  81.3924349  57.8834080
  86.5877465  81.4638197  58.0710895  84.8388732  80.7645837  59.1221117
  85.1677772  81.4223473  59.9266416  83.7502488  80.7098685  59.1203404
  85.3530300  79.3466600  59.4711232  86.7339894  79.2282689  59.7251918
  87.3333864  80.1347890  59.6412611  87.3384928  78.0246142  60.0699308
  88.4075969  77.9543959  60.2703967  86.5507641  76.9068650  60.1547185
  86.9497213  75.9614355  60.5222729  85.1751530  76.9968508  59.7482474
  84.5652499  76.0935055  59.7389889  84.6327453  78.1866078  59.3787704
  83.6104706  78.2261606  59.0026190  85.2645993  80.5079479  56.6458127
  84.1328997  80.0614108  56.4327409  86.1900777  80.5477340  55.7004389
  87.0142928  81.0854811  55.9275882  86.0425553  80.0436644  54.3245315
  86.6812769  80.5842989  53.6260702  86.4829169  78.5557557  54.3494361
  85.6452125  77.9047537  54.5995300  86.7902700  78.3722164  53.3198986
  87.6842509  78.2146428  55.2998169  88.8241805  78.5050502  55.0938926
  87.4249241  77.6416149  56.4804992  88.1847881  77.4145284  57.1059096
  86.4704553  77.4386904  56.7410980  84.6894473  80.2694249  53.5958588
  83.9792370  79.3218721  53.2395524  84.3189928  81.5359257  53.3961214
  85.0357743  82.2285711  53.5591119  82.9982806  81.9928294  52.9725786
  83.1698331  83.0440322  52.7409722  82.8369729  81.4391604  52.0476301
  81.7575793  81.8741372  53.8429500  80.6438770  82.1401692  53.3474984
  81.8767141  81.5434582  55.0846232  82.7774286  81.1927831  55.3776076
  80.7918351  81.5996314  56.0795680  79.8896392  81.9837917  55.6035821
  80.4862434  80.2207324  56.6645613  81.4224525  79.7782604  57.0048999
  79.8161669  80.3504125  57.5144323  79.8255801  79.2903041  55.6266166
  78.9737308  79.8158711  55.1950694  80.5567504  79.0816578  54.8456181
  79.3380115  77.9356966  56.2640155  80.2156036  77.3009583  56.3866459
  78.9201868  78.1702004  57.2430609  78.2809430  77.1938541  55.4180432
  78.1543047  76.1972835  55.8410210  77.3432988  77.7438527  55.4981944
  78.6761850  77.0763038  53.9527457  79.5447835  76.5663203  53.8782257
  77.9528395  76.5849543  53.4473281  78.7931642  77.9996456  53.5605022
  81.1089520  82.5522910  57.2301428  82.1860706  82.5604687  57.7647826
  80.1493530  83.4282029  57.6187277  79.3384791  83.6061181  57.0434635
  80.2985491  84.1817864  58.8481904  81.2573890  84.6991968  58.8163835
  79.1508811  85.2540348  59.0812279  79.3214578  85.8878308  58.2109949
  78.2023147  84.7292533  58.9675342  79.1062624  86.1202296  60.3417313
  79.3241788  85.4892710  61.2034182  80.1423196  87.2773980  60.2719132
  79.9247565  87.9090976  59.4106811  80.0842461  87.8732235  61.1828031
  81.1453345  86.8622779  60.1732379  77.7236733  86.6674147  60.6489282
  77.0293650  85.8401278  60.7960059  77.7647063  87.2720782  61.5549081
  77.3829859  87.2834164  59.8167186  80.3455548  83.2110985  60.0152704
  79.4290580  82.4454988  60.2191863  81.3641949  83.3188060  60.8412639
  82.2084765  83.6863269  60.4262743  81.4256101  82.8294118  62.1923489
  80.6092136  82.1416959  62.4129004  82.7711594  82.0589280  62.3143031
  82.8531313  81.3031550  61.5331585  83.4737169  82.8673964  62.1120859
  83.0979316  81.4252039  63.6763191  82.4471279  81.8350082  64.4487281
  82.8737240  79.9586266  63.5661915  83.5245584  79.5480056  62.7942435
  83.0987649  79.4834343  64.5209950  81.8333429  79.7683861  63.3025324
  84.5895588  81.6126979  63.8480410  84.8267488  82.6764623  63.8323655
  84.9027477  81.1851360  64.8005140  85.1152110  81.1117506  63.0351201
  81.1603561  84.0826544  63.1684069  81.6648689  85.1958269  62.9492138
  80.3830993  83.8077557  64.2602950  79.9097346  82.9203542  64.1678625
  80.1252213  84.6142664  65.4646889  80.8691912  85.4108614  65.4580200
  78.7256764  85.2485866  65.4092097  77.9695655  84.4636242  65.4243931
  78.5878511  85.9018194  66.2708310  78.6260574  85.8306270  64.4930196
  80.2402598  83.8455801  66.7912082  79.8010403  82.7078986  66.9213502
  80.7922126  84.3872594  67.8824005  81.6097937  84.9307658  67.6452057
  80.5092133  84.1405949  69.2977965  79.9676012  83.2046443  69.4347338
  81.8116600  84.0432494  70.0054683  81.5983708  83.6035069  70.9797544
  82.4253867  83.3556270  69.4235620  82.5204521  85.2858401  70.1842173
  83.3443146  85.1203651  70.6484031  79.5010364  85.0369487  69.9623711
  79.3653104  86.1937094  69.7296394  78.7161529  84.4398241  70.9348721
  79.1880397  83.6196875  71.2881401  77.4365571  84.8070390  71.5236453
  77.2952018  85.8805370  71.6490239  76.2535085  84.2192188  70.6735339
  76.3751128  83.1368302  70.6317293  74.8910065  84.5537478  71.2618676
  74.7684747  85.6360361  71.3035652  74.1089471  84.1239189  70.6359835
  74.8180077  84.1413133  72.2681818  76.3431154  84.6263494  69.2250321
  76.3894162  85.7153409  69.2324135  77.2922102  84.2252566  68.8694438
  75.2201512  84.1717788  68.2980806  74.2707360  84.5728927  68.6527893
  75.4126268  84.5343562  67.2883331  75.1735286  83.0828077  68.2898215
  77.3367643  84.1664342  72.9603126  76.8185005  83.1047268  73.2087675
  77.7538859  84.9743530  73.9127887  78.2615060  85.8218189  73.7024968
  77.6879229  84.5238893  75.3320806  78.1819668  85.2858361  75.9349545
  76.2210481  84.2852379  75.9137352  75.7155372  83.6286149  75.2056362
  76.3490309  83.7652003  76.8630936  75.3320257  85.5401097  76.1501182
  75.5662725  86.5339895  75.5802293  74.3547641  85.4642751  76.9689850
  73.7710675  86.2726202  77.1301568  74.1703471  84.5963243  77.4514294
  78.6221345  83.3380266  75.5916963  79.8363414  83.5442752  75.6469867
  78.0108828  82.1547125  75.7789051  77.0155839  82.0762054  75.9316011
  78.8439702  80.9070983  75.8569702  79.8666295  81.1638091  76.1333155
  78.2844688  79.9556646  76.8985292  78.1687703  80.5378452  77.8127387
  77.3028912  79.6498635  76.5364641  79.0925702  78.7693930  77.1756390
  78.6571169  78.2344002  77.8432938  78.9662554  80.1995761  74.4681045
  79.8381810  79.3131561  74.3256151  78.0268457  80.5119323  73.5309039
  77.3162119  81.1576151  73.8442610  77.8937774  79.9340562  72.2166543
  78.1132050  78.8682223  72.1538153  76.4191022  80.1767030  71.7058857
  76.1530239  81.2290581  71.8051387  76.3624254  79.7862476  70.2793338
  76.6279497  78.7338240  70.1793294  75.3531647  79.9435366  69.8988706
  77.0643659  80.3934284  69.7077470  75.5741153  79.4586897  72.5948672
  74.6588778  79.5725834  72.3284673  78.9809459  80.4679061  71.2461745
  79.1616464  81.6732635  71.0609154  79.4761852  79.5832992  70.4057760
  79.3048638  78.6094626  70.6116656  80.3170614  79.9270324  69.1764820
  80.3164596  80.9993643  68.9810257  81.8022285  79.4572835  69.3986530
  81.8196488  78.4529629  69.8218973  82.5067295  79.4502830  68.0405310
  82.4901175  80.4544310  67.6168427  83.5399544  79.1274353  68.1682660
  81.9927322  78.7639880  67.3675469  82.5573893  80.3318178  70.3535550
  82.0602616  80.3255805  71.3235690  83.5744567  79.9558870  70.4646838
  82.5873552  81.3508247  69.9677728  79.5566331  79.1548345  67.9888473
  79.4081598  77.9336756  68.0139792  78.9866709  79.9595329  67.0399529
  79.1475124  80.9516067  67.1400476  78.0927248  79.4859050  65.9078879
  78.1474500  78.4049792  65.7786448  76.6297581  79.8684154  66.2978114
  76.5503859  79.5507037  67.3374549  76.6283627  80.9573697  66.2500980
  75.4225270  79.3138998  65.4938846  75.4838096  79.6811227  64.4694371
  75.4713613  78.2249942  65.4925067  74.1011588  79.7636786  66.1179743
  74.2153016  80.7665554  66.5294454  73.3220043  79.7707540  65.3557619
  73.6839090  78.8315834  67.2263728  74.2989498  78.0368849  67.3277564
  72.6346116  78.9098341  67.9992555  71.6520524  79.7867733  67.8255863
  71.6943222  80.4425891  67.0586319  70.8672433  79.7936804  68.4612958
  72.4979967  78.1611075  69.0417975  73.2168500  77.4916420  69.2766716
  71.6728938  78.2482642  69.6177381  78.5311330  80.0979189  64.5991591
  79.2818245  81.0603258  64.4691388  78.1812258  79.3565463  63.5678931
  77.5085736  78.6612040  63.8579577  78.6315640  79.3486034  62.1721630
  79.3085223  80.1904435  62.0267955  79.3651708  78.0490009  61.7673339
  80.2044331  78.0559912  62.4628115  78.6711297  77.2554355  62.0442113
  79.8871189  77.7997435  60.3321660  79.0872220  77.8795608  59.5960309
  80.9263945  78.9037399  60.0806357  81.7268978  78.8242770  60.8161484
  81.3414774  78.7913306  59.0790514  80.4489146  79.8796850  60.1680682
  80.4794319  76.3965763  60.1964603  79.7131453  75.6548244  60.4216457
  80.8380224  76.2499782  59.1776261  81.3099528  76.2832690  60.8932353
  77.3908841  79.5827735  61.2776494  76.3045699  79.1130135  61.7162882
  77.4733320  80.3459977  60.1575332  78.3653031  80.7469928  59.9051645
  76.2887678  80.6553005  59.2991736  75.4474768  79.9951275  59.5101248
  75.8866458  82.0781076  59.6420958  76.7478844  82.6898334  59.3734717
  75.0340458  82.3608598  59.0246620  75.5365702  82.3047386  61.1484104
  74.2056834  82.0098365  61.6170821  73.5111181  81.5668380  60.9033378
  73.7871382  82.2717453  62.9401171  72.7884619  81.9885258  63.2725840
  74.6915564  82.8496684  63.8464082  74.2098133  83.0960666  65.1181552
  73.2925733  82.8352751  65.2288718  75.9896774  83.1868840  63.3787196
  76.6571893  83.7361223  64.0426966  76.4217687  82.8259232  62.0842539
  77.4670262  82.9542408  61.8030576  76.5938858  80.5048882  57.8110119
  77.4256000  81.2782521  57.3299289  75.8359499  79.6709948  57.0670758
  75.5121480  78.7542096  57.3404921  75.5685387  80.1231091  55.6975018
  76.5007877  80.2943942  55.1592896  74.7529664  79.0042297  54.9477313
  75.2111246  78.0414930  55.1742887  73.7311524  79.0179719  55.3269507
  74.7372326  79.2172606  53.4325840  74.4239747  80.2302113  53.1797972
  75.7850361  79.0837458  53.1635473  73.8496971  78.1749318  52.6329107
  73.8939016  78.2899975  51.3813829  73.2643138  77.2719293  53.2164190
  74.8665769  81.4669764  55.5437898  73.8339670  81.7009397  56.1753180
  75.4279598  82.3809566  54.6938937  76.3901828  82.3000404  54.3977878
  74.6426292  83.5263498  54.2080798  73.8882254  83.7684202  54.9566625
  75.4955378  84.7818828  53.9448425  75.7643892  85.2283916  54.9021554
  76.3981921  84.4436949  53.4359768  74.9203100  85.8748370  53.1112340
  75.1529905  86.2118288  51.8353836  75.8219027  85.5588912  51.2747334
  74.4737482  87.3419948  51.5096584  74.6463299  87.8312025  50.6430611
  73.5942136  87.7353101  52.4838466  72.6438231  88.7571450  52.5308840
  72.5107664  89.3912419  51.6543478  71.9082869  88.9012908  53.7303366
  71.1176103  89.6454126  53.8263228  72.2011071  88.0621047  54.8363962
  71.6237186  88.1274414  55.7585964  73.2738201  87.0949510  54.7743525
  73.6029981  86.6660385  55.7208073  73.9134654  86.8266286  53.5447981
  73.9274815  83.1670288  52.9150488  74.5173181  82.5156829  52.0608782
  72.6737492  83.6432633  52.6875010  72.3312280  84.3310584  53.3430286
  71.7850149  83.2161479  51.5978085  72.3789095  82.6864491  50.8529545
  70.7236539  82.2055555  52.2135763  70.2230988  81.8001333  51.3342711
  71.1790622  81.0020362  53.1717023  71.6793178  81.4067297  54.0515131
  70.3029672  80.4327114  53.4822276  71.8647545  80.3478178  52.6332554
  69.8644489  82.9593703  53.0587029  69.2082174  82.3773683  53.4488751
  71.0290434  84.3646920  50.8797315  70.9887745  85.5243515  51.3031252
  70.3034055  83.9634052  49.7992818  70.2722458  82.9732895  49.6023063
  69.6497055  84.8866950  48.8506337  70.1834384  85.8364112  48.8862373
  69.7353788  84.3313941  47.4295922  68.9769507  84.7685509  46.7801456
  71.1465762  84.7371502  46.9230976  71.9055977  84.2999507  47.5718214
  71.2862168  84.3735540  45.9050615  71.2396237  85.8230894  46.9364765
  69.6446234  82.9059606  47.3425879  69.7062859  82.6369315  46.4231199
  68.2035467  85.2606792  49.1454478  67.5257441  86.1450429  48.5623237
  67.6863380  84.7405989  50.2222721  68.1040945  83.8720942  50.5243955
  66.5511422  85.2677324  50.9846301  65.7216093  85.5065198  50.3190815
  66.0907428  84.2174664  51.9744209  66.7790384  84.3231515  52.8129786
  65.0982621  84.5530877  52.2751542  66.0258878  82.7594590  51.5537594
  66.9631698  82.5254116  51.0489575  65.9767543  82.2165554  52.4976560
  64.8908919  82.3586829  50.6954984  64.7162330  81.1507693  50.4384285
  64.1096577  83.2187558  50.2810184  66.8620630  86.5850897  51.7419147
  65.9107775  87.1494927  52.3028454  68.1256391  86.9999371  51.8216848
  68.8071692  86.4830684  51.2845974  68.6101843  88.0229788  52.7666020
  69.6830347  88.1699497  52.6421398  67.8859705  89.3801454  52.4970928
  66.8086956  89.2140796  52.4974670  68.1448335  90.0840651  53.2880335
  68.3323267  89.9802163  51.0823536  69.4147530  90.1081599  51.0731501
  68.0420961  89.2878283  50.2921213  67.6372080  91.3731311  50.8410144
  66.5792036  91.1704490  50.6747445  67.7567149  91.9461904  51.7604820
  68.2107702  92.2018233  49.6268841  67.7086070  93.1690084  49.6048453
  69.2784236  92.3509365  49.7880694  67.9920988  91.4837374  48.2942414
  67.0028256  91.3458521  48.1444888  68.3713865  92.0435237  47.5439881
  68.4576939  90.5876804  48.3142974  68.5426413  87.5099311  54.2737615
  67.9907472  88.1743163  55.1396086  69.1344228  86.3043668  54.4526647
  69.6239300  85.8836717  53.6758135  69.1058934  85.5807699  55.7333999
  68.9247966  86.2834526  56.5467511  67.9988900  84.5317093  55.7401201
  67.1381863  84.9912496  55.2542074  68.3590226  83.7021967  55.1315863
  67.5889291  84.0125481  57.1161552  66.9559397  83.1270961  57.0578453
  68.5339252  83.7522228  57.5929280  66.9114605  85.0463641  57.9062532
  65.7625462  85.4647808  57.5484315  67.4798183  85.4089525  58.9989668
  70.4475508  84.8185248  56.0383049  70.9733973  84.1129634  55.2211204
  70.9740745  84.9863409  57.2416650  70.7225824  85.8059313  57.7756336
  72.0318809  84.0584120  57.8049853  72.7208556  83.7177756  57.0320817
  72.8296839  84.8765287  58.8549225  72.1105802  85.0618056  59.6528332
  73.5845547  84.1716111  59.2032920  73.5302274  86.2430917  58.4457840
  72.9565302  86.7471171  57.6680110  73.5830892  87.1304395  59.6991385
  74.1570560  86.6272467  60.4772503  74.0594804  88.0794788  59.4532184
  72.5702823  87.3149437  60.0573014  74.9758879  85.8530534  57.9485347
  74.8977231  85.1783383  57.0960389  75.5134068  86.7532952  57.6506429
  75.5166941  85.3576836  58.7549070  71.5144530  82.7691650  58.3630530
  71.0470493  82.7534152  59.5180831  71.5236751  81.6227135  57.7035266
  71.7648011  81.7327037  56.7289191  71.2046500  80.2594881  58.2006799
  70.2646520  80.2441523  58.7522845  71.0647703  79.3578375  56.9696929
  70.6644543  79.9412169  56.1405278  72.0449711  78.9661721  56.6978389
  70.1198510  78.1962415  57.2780844  70.5339953  77.6031504  58.0934544
  69.1485993  78.5923496  57.5745140  69.9507507  77.2973801  56.0161235
  69.3209493  76.4446813  56.2698045  69.4733720  77.8791741  55.2276283
  71.2697636  76.7872637  55.5068895  71.4570401  76.9985197  54.5371483
  72.1200459  76.0064470  56.1601974  71.8797085  75.3896108  57.2329481
  70.9707885  75.4707847  57.6658166  72.5972300  74.8172058  57.6543922
  73.3353168  75.9596184  55.7439958  73.6129548  76.5082257  54.9427173
  74.0067831  75.3744380  56.2202264  72.3060936  79.6801252  59.1828075
  73.4803606  79.6295777  58.7644034  71.9780226  79.2602489  60.3758520
  71.0508985  79.5141269  60.6858297  72.8474037  78.4984457  61.3071019
  73.7253284  79.0646244  61.6182114  71.9083783  78.3003101  62.5550264
  70.9857773  77.8191503  62.2303836  72.5769658  77.4501124  63.5870946
  73.4994723  77.9308813  63.9125829  71.9120558  77.3248142  64.4416671
  72.8075315  76.4738808  63.1605833  71.6378314  79.4802244  63.1205179
  71.0652115  79.3475009  63.8795246  73.3712384  77.1614481  60.7354337
  72.6392194  76.2942862  60.2253362  74.6881716  77.0882433  60.6804329
  75.2314559  77.8119898  61.1289110  75.4167348  75.9994662  59.9572200
  74.7317478  75.5720097  59.2249817  76.6964143  76.4567107  59.2270091
  76.3746336  77.1981891  58.4957320  77.3163341  76.9382421  59.9832677
  77.5166874  75.3507397  58.5144580  78.4506102  75.8168759  58.2004420
  77.7294459  74.5627293  59.2368655  76.7633087  74.7069558  57.2112155
  77.3686611  74.1450475  56.3030990  75.5314831  74.8633596  57.2175681
  75.7824711  74.9156296  61.0278624  75.7504731  73.7238900  60.7545367
  76.3034013  75.3269826  62.2483244  76.1005723  76.2736571  62.5360170
  77.0528861  74.4678813  63.1668877  76.5332868  73.5246809  63.3356738
  78.4153969  74.1693636  62.5221254  78.3218229  73.8989057  61.4703670
  79.1088629  75.0044017  62.6217058  79.2089252  72.7573559  63.3354672
  80.3051766  72.7612008  62.5823959  77.3300544  75.2211480  64.4843504
  77.6115744  76.4398250  64.4972630  77.3919320  74.4790951  65.5669444
  77.3791167  73.4697730  65.5322462  77.3036470  75.1268687  66.8695714
  77.7115808  76.1360915  66.8133724  75.8276455  75.2152294  67.3168802
  75.1722703  75.6884893  66.5857115  75.5512108  74.1666100  67.4267954
  75.6400890  75.9177638  68.6725678  75.4633831  77.1412459  68.6097387
  75.5250757  75.2663367  69.8124554  75.4036078  75.7795411  70.6738302
  75.5589346  74.2569275  69.8193538  78.2351600  74.4844562  67.9635219
  78.2561798  73.2631425  68.0752396  78.9431321  75.2916534  68.6184640
  79.0000597  76.2472169  68.2963506  79.7148686  74.9100721  69.8193189
  79.5622940  73.8500035  70.0219878  81.1787360  75.1557399  69.6359491
  81.6128617  74.5460131  68.8435682  81.2185348  76.2063721  69.3483939
  82.0903461  75.0008156  70.8575638  82.5143003  76.0290408  71.7113060
  83.4293905  75.4559019  72.5191159  83.9332569  76.0840972  73.2536827
  83.5499971  74.1606258  72.2510863  84.1493293  73.4975320  72.7214132
  82.7149702  73.8623756  71.2143116  82.6584482  72.8415630  70.8363590
  79.1188255  75.7799563  70.9476199  78.8053131  76.9609561  70.7474836
  79.2070944  75.3056437  72.1773894  79.6725139  74.4172112  72.2964349
  78.5288588  75.8999815  73.3415320  78.3015665  76.9533818  73.1778698
  77.2078373  75.1354642  73.5277693  76.5961668  75.3332586  72.6475217
  77.4584618  74.0753103  73.5646630  76.4420197  75.5119810  74.7642193
  76.0263284  76.8719480  74.9773302  76.2824535  77.6483274  74.2564041
  75.2933343  77.1927075  76.1118353  75.0321913  78.2366669  76.2851990
  75.0578682  76.2203290  77.1285063  74.3469122  76.5783611  78.2029608
  74.0579042  77.4933559  78.1736588  75.3916372  74.8631308  76.9139598
  75.1110360  74.0803997  77.6187261  76.1207275  74.5304802  75.7278275
  76.4394206  73.5026663  75.5542378  79.3963575  75.9918471  74.5917288
  79.2193746  76.8427667  75.4609721  80.4270178  75.1541590  74.7452824
  80.8177256  74.7143686  73.9242884  81.0557928  74.8885844  76.0408287
  80.3610921  74.9913252  76.8744559  81.5119796  73.4064814  75.9547293
  80.7330355  72.7152133  75.6330249  82.2933171  73.4512156  75.1960393
  82.1166359  72.8887005  77.2416010  81.4180004  73.0291621  78.2660829
  83.2122817  72.2090000  77.2479583  83.5916868  71.8765958  78.1229777
  83.6859339  72.0121957  76.3778879  82.3398546  75.7862302  76.2979093
  83.5105752  75.4192855  76.1110916  82.0562380  76.9324227  76.9311947
  81.0842180  76.9887297  77.1997203  82.9057554  78.0362311  77.2333654
  83.9550910  77.7437996  77.2718075  82.7103597  79.0885012  76.0386679
  81.6837316  79.3890630  75.8293914  83.2923230  79.9630506  76.3294979
  83.3226320  78.4940340  74.7515869  84.4997155  78.1230104  74.6075696
  82.4671488  78.2654125  73.7946520  82.7859441  77.8767439  72.9186348
  81.4896453  78.4780454  73.9338463  82.5268166  78.6163154  78.5712558
  81.4236133  78.3925728  79.0187954  83.3854004  79.3500645  79.2513866
  84.3535176  79.1168646  79.0826667  83.0769261  80.2883157  80.3253448
  82.2114765  79.9107403  80.8698932  84.2522722  80.5564202  81.3320178
  85.1042158  81.0115052  80.8268544  83.7139675  81.5108610  82.3677151
  82.8622291  81.0562578  82.8736579  84.4927767  81.7333980  83.0971220
  83.3971916  82.4338907  81.8821553  84.7116079  79.2129350  81.9312244
  83.8282496  78.6183300  82.1640842  85.3145866  78.6911894  81.1880570
  85.5407597  79.4206272  83.2093985  84.9382509  79.9419401  83.9532506
  85.8480428  78.4525800  83.6050763  86.4245872  80.0148019  82.9772235
  82.4918388  81.4677603  79.6109765  81.3729463  81.8984511  79.8149493
  83.2649537  82.0677306  78.7401681  84.2161989  81.7432807  78.6403472
  82.8511148  83.2346764  77.9779589  81.8460303  83.0854013  77.5834703
  82.8449233  84.4512753  78.8603532  82.3354829  84.1709869  79.7823121
  83.8859765  84.6890320  79.0789392  82.1667007  85.6631296  78.2578483
  82.5291257  85.7324614  77.2322061  81.0999477  85.4393046  78.2513458
  82.4373152  87.2452092  79.0924279  82.2501482  86.6942610  80.7848322
  82.9984443  85.9327318  81.0044343  82.3840425  87.5397314  81.4596305
  81.2537966  86.2742802  80.9226762  83.7395370  83.4501536  76.7220605
  84.8558965  83.8915703  76.8080243  83.2464998  83.1241001  75.5093427
  82.3050900  82.7715496  75.6070930  83.8645320  83.0213709  74.2645307
  84.8224317  82.5526678  74.4900186  83.0754136  82.0979871  73.3323578
  82.1173291  82.5579114  73.0901930  83.6421456  81.9359454  72.4154840
  82.9041904  81.1418106  73.8268357  84.2345576  84.4301250  73.6754204
  83.7269767  84.8708857  72.6191811  85.1710939  85.1631871  74.2866314
  85.6803222  84.7748596  75.0676484  85.2685157  86.6008301  74.0418489
  84.2910424  87.0103251  73.7869783  85.7707443  87.2899841  75.2994164
  85.3683674  86.7613235  76.1635402  86.8420763  87.1029377  75.2261949
  85.5273093  88.7798879  75.4596764  85.8400195  89.2989162  74.5536285
  84.0571454  89.0275011  75.6992172  83.7437834  88.5091309  76.6054155
  83.8823544  90.0972251  75.8142801  83.4825380  88.6551422  74.8511161
  86.2447483  89.3132744  76.7493997  87.3170582  89.1347922  76.6694309
  86.0616061  90.3829051  76.8516275  85.8546164  88.7931380  77.6242449
  85.9466638  87.0434104  72.7357708  85.4734596  87.9294031  72.0121765
  87.0702480  86.3538203  72.4348389  87.3256733  85.5700593  73.0184278
  87.8463060  86.6065871  71.2627963  87.4253255  87.4469397  70.7108161
  89.2746575  86.9454509  71.6468302  89.7058012  86.0080605  71.9982755
  89.7716003  87.2506443  70.7259584  89.4614781  87.9922025  72.6787814
  88.6926437  89.2001830  72.6519191  88.1390311  89.4375232  71.7434687
  88.6392098  90.0719431  73.7574892  87.8432093  90.8151252  73.8040221
  89.4113596  89.7756500  74.9265046  89.3698533  90.6575675  75.9436068
  88.8059856  91.4130522  75.7622348  90.4226771  88.7488490  74.8341657
  91.1940992  88.6352237  75.5958071  90.3954900  87.8858807  73.7299938
  91.1235109  87.0784864  73.6512530  87.9777138  85.3128897  70.4232469
  88.4430457  84.3074472  70.9784050  87.6767417  85.4354589  69.0898488
  87.1608547  86.2796681  68.8866966  87.8892980  84.4727941  68.0049030
  88.2830899  83.5415389  68.4120774  86.5667168  84.1712473  67.2777232
  86.3329773  85.1225231  66.7996652  86.7543040  83.4173779  66.5131371
  85.3372168  83.7155469  68.1816944  85.0624682  84.4835277  68.9047571
  84.1823690  83.5022697  67.2011709  84.4562154  82.7340433  66.4780284
  83.2943712  83.1855686  67.7482186  83.9725606  84.4350288  66.6776814
  85.6120468  82.4614389  69.0592521  86.4432331  82.6648505  69.7344207
  84.7219657  82.2224665  69.6412736  85.8638464  81.6167372  68.4180229
  89.0020177  84.9355534  67.0601577  89.1147113  86.1205699  66.6861096
  89.7904111  84.0126204  66.5575917  89.8999874  83.1351861  67.0456505
  90.5926237  84.2381953  65.3159392  90.1393683  85.0367846  64.7286455
  92.0558606  84.6447891  65.6635085  92.3854760  83.8729803  66.3590401
  92.5907169  84.5354066  64.7200763  92.3457309  86.0173461  66.2545587
  91.7643811  86.1326493  67.1693475  93.4082968  86.0780707  66.4898633
  91.9674667  87.1590556  65.2476955  92.6768896  87.2150418  64.4220541
  90.9604499  87.0258609  64.8523782  92.0297172  88.4759716  66.0749433
  91.6652777  89.2903961  65.4488464  91.3787433  88.3658351  66.9422392
  93.4117604  88.7807103  66.5287770  94.0150396  88.8832294  65.7252574
  93.4099002  89.6396152  67.0601703  93.7494872  88.0263662  67.1092980
  90.5336097  82.9902801  64.5053468  90.2892680  81.9237276  65.0144840
  90.8025068  83.0577959  63.1737113  90.8637765  83.9727794  62.7504496
  90.8132080  81.8802148  62.2931267  91.1112489  80.9488403  62.7745956
  89.4216510  81.6800062  61.6483114  89.4616234  80.6655536  61.2515894
  88.1069815  81.8566926  62.5134605  88.0660737  82.8711144  62.9101651
  87.2327758  81.6762153  61.8879277  88.1159637  81.1445291  63.3385927
  89.2832834  82.5162701  60.4613021  88.4156146  82.3804930  60.0735963
  91.9725685  81.8233017  61.2440251  92.6226511  82.8667631  60.9632301
  92.1803076  80.6436151  60.6687807  91.6198734  79.8615628  60.9760380
  93.2283999  80.3981072  59.7430824  93.2410944  81.2105344  59.0165151
  94.5782843  80.3074323  60.3826794  94.7474607  81.1748726  61.0206652
  94.6472431  79.3985097  60.9803451  95.6168966  80.2734326  59.2990400
  95.4282820  79.3449362  58.7601339  95.3781753  81.1208480  58.6563882
  97.1518525  80.3412161  59.7180027  97.2544047  81.1257756  60.4677017
  97.4154741  79.3803533  60.1599822  98.0850653  80.6344962  58.5429531
  97.7130384  81.5070432  58.0059631  99.0829042  80.8439164  58.9283877
  98.1444011  79.4906604  57.6325368  97.2199520  79.2967103  57.2749379
  98.7646974  79.7035841  56.8644248  98.4895103  78.6821386  58.1298206
  92.8551058  79.1549581  58.9392927  92.7592508  78.0855293  59.5338606
  92.6269861  79.2878431  57.5942715  92.8127285  80.1139624  57.0437028
  92.0586862  78.1035732  56.9126293  91.8716179  78.4310243  55.8899463
  92.8608368  77.3655758  56.9162981  90.7882725  77.4603172  57.4693211
  89.8412301  78.0878500  57.9272972  90.8376732  76.1309640  57.5774343
  91.4405957  75.6588935  56.9188501  89.8714877  75.3089212  58.3694737
  88.8556836  75.7018609  58.3265832  89.8910926  73.9417754  57.7094972
  90.9433353  73.6844462  57.8306009  89.2882414  73.3288048  58.3795252
  89.4529444  73.6754351  56.2158550  89.6645535  72.5662666  55.6456342
  88.9240571  74.5654002  55.5415010  89.9041301  75.3405052  59.9522649
  89.2669118  74.4984076  60.6033951  90.7564772  76.1935719  60.5824517
  91.4885675  76.5283386  59.9724726  90.9403949  76.3309960  62.0260895
  90.1205008  75.8125147  62.5231308  92.2730996  75.7534051  62.5418372
  92.1997070  75.2413997  63.5012971  92.4971030  75.0280193  61.7597004
  93.4915693  76.6915583  62.6349611  93.8116812  77.4036428  63.8381440
  93.1606166  77.4142642  64.7122733  95.0376855  78.1156822  63.8585992
  95.2113172  78.7725021  64.7109726  96.0133666  78.0053375  62.8404969
  96.9913365  78.4850222  62.8802126  95.6622554  77.2262987  61.7363350
  96.4414676  77.0634302  60.9917531  94.3691644  76.6554569  61.5513908
  94.1004434  76.2141129  60.5916489  90.4710360  77.6676756  62.6683430
  90.3797827  78.7157337  62.0509103  90.0711980  77.5204279  63.9952574
  90.2543087  76.6176813  64.4095257  89.4097717  78.5604993  64.8320942
  89.5906639  79.5676762  64.4566320  87.8384603  78.3150564  64.9595199
  87.6807298  77.2719653  65.2337142  87.1808061  79.2364278  66.0264438
  87.3377299  80.2797511  65.7526702  86.1114473  79.0310068  66.0751742
  87.6317588  79.0450631  67.0001586  87.0510689  78.4284048  63.7229994
  86.6450612  79.4380985  63.6615414  87.7109741  78.2504064  62.8739169
  85.9150124  77.4249698  63.6986678  85.2543813  77.6026477  64.5472530
  85.3523507  77.5347868  62.7716018  86.3202946  76.4149551  63.7596309
  90.0575551  78.4903430  66.2201899  90.0445918  77.4567840  66.8200821
  90.6677946  79.6401729  66.5778322  90.7937034  80.4058381  65.9313006
  91.2486472  79.7717156  67.9642595  91.3652721  78.8012205  68.4465843
  92.6268985  80.4027744  67.7996688  93.1371275  79.7905303  67.0560811
  92.5031557  81.4145499  67.4135367  93.4711771  80.4458244  69.1014685
  92.8273861  80.5713316  69.9720327  94.2147726  79.1109009  69.2050542
  94.8591613  78.9848875  68.3350068  94.8216828  79.1017752  70.1104146
  93.4934361  78.2946344  69.2435664  94.4506092  81.5670838  69.1893785
  93.9209737  82.5180943  69.1331225  94.9886767  81.5068624  70.1354007
  95.1590254  81.4969476  68.3639536  90.3475505  80.5768919  68.8623775
  89.7674751  81.5319283  68.4426969  90.1650943  80.1338993  70.0832065
  90.7259655  79.3294742  70.3249152  89.1962593  80.6264451  71.0667629
  88.7051944  81.5333820  70.7140307  88.0920260  79.5348192  71.3571194
  88.5608258  78.6325784  71.7499140  87.0815397  80.0994662  72.4122900
  86.6119658  81.0015213  72.0199920  86.3154750  79.3520515  72.6187283
  87.6129732  80.3383293  73.3334982  87.3698767  79.1625258  70.0401782
  88.0932605  78.7647130  69.3284458  86.6085673  78.4093006  70.2430561
  86.8983917  80.0509460  69.6200446  89.8428618  81.0726322  72.3541507
  90.2062715  80.2460505  73.1363412  89.9637641  82.4340078  72.6082769
  89.6919389  83.0197163  71.8316458  90.4249938  83.0795393  73.8337639
  91.2183539  82.5034359  74.3099820  90.7787557  84.0919125  73.6386934
  89.1974487  83.1469044  74.7970364  88.3925826  84.0337178  74.6584051
  88.9647909  82.0440051  75.5368582  89.4120266  81.2021604  75.2031260
  88.0184042  81.9340225  76.6685552  87.0368686  82.3363981  76.4179939
  87.8732350  80.4319205  76.9621663  87.9619670  79.8987186  76.0156350
  88.6954086  80.1459133  77.6181620  86.5306932  80.0697318  77.6324878
  86.1808273  78.8349130  77.6079874  85.8325685  80.9377241  78.1690847
  88.4012120  82.7970511  77.8771299  89.4393318  82.4788746  78.5220012
  87.7237863  83.9484176  78.1601116  86.8613922  84.0626190  77.6469511
  88.1467809  85.0114464  79.0228974  88.9531563  85.5599138  78.5360284
  86.9826665  86.0165154  79.3522803  86.6766873  86.3715551  78.3681956
  86.1703833  85.4440813  79.8001814  87.3130707  87.2053102  80.2390643
  87.5920875  86.8023745  81.2126624  88.4145813  88.0871923  79.7287985
  88.1360734  88.4908970  78.7553743  88.5779219  88.9069975  80.4283270
  89.3310674  87.5052262  79.6314893  86.1221038  88.1160195  80.5103162
  85.3360153  87.5484166  81.0083033  86.4338266  88.9419635  81.1496493
  85.7432293  88.5101341  79.5673280  88.7788985  84.6232733  80.3551643
  89.7428523  85.2437251  80.8222461  88.2299822  83.5762295  81.0269293
  87.4119090  83.1541666  80.6113351  88.6837149  83.0792331  82.3915125
  89.5688875  83.6132979  82.7369736  87.5146061  83.3527064  83.3899222
  86.9551637  84.2212206  83.0423498  86.8592684  82.4818687  83.4064839
  88.0217067  83.6074039  84.7400793  88.9298219  83.0171322  84.8625823
  88.2673114  84.6676794  84.8000489  86.8219646  83.1774955  86.1034819
  86.9401006  81.3884946  86.0168018  87.9688953  81.0821865  86.2061581
  86.2853708  80.9438768  86.7662980  86.6378745  81.0515122  85.0252356
  89.1280840  81.6368932  82.3738327  89.1383869  81.0191979  83.3975350
  89.4656479  81.1476956  81.1941881  89.4655413  81.7664067  80.3958800
  89.7605239  79.7013834  80.9688235  90.3410986  79.3104153  81.8043929
  88.4623995  78.8946994  80.8544636  87.6677424  79.4673960  81.3326246
  88.2348889  78.7726509  79.7954815  88.5674489  77.5167389  81.5160211
  87.7012940  76.9238106  81.2222310  89.4767351  77.0305336  81.1626021
  88.6113988  77.6328754  83.0324797  89.5492197  78.1224358  83.2950089
  87.7756420  78.2635297  83.3356054  88.5232368  76.3076174  83.7868482
  87.5907047  75.9381239  83.6687049  89.3680505  75.6334622  84.4926291
  90.5772693  76.0612964  84.6135166  90.8545143  76.9183219  84.1566330
  91.2422478  75.5376387  85.1645936  89.0660092  74.5127052  85.1095932
  88.1299083  74.1394246  85.0426837  89.7714425  74.0300749  85.6476737
  90.6491711  79.4252534  79.7424418  90.7322720  78.3450390  79.1693421
  91.4794291  80.4400085  79.4039248  91.1859819  81.3284257  79.7843232
  92.6320700  80.4231583  78.4449666  93.0140521  81.4321881  78.2898930
  93.7963263  79.5268194  79.0471773  93.4082239  78.7145755  79.6617794
  94.4390044  79.1170298  78.2679872  94.5449632  80.4153794  79.8574014
  95.2758219  79.9415963  80.2611028  92.1885200  80.0228124  76.9739589
  91.2156791  80.5901487  76.4837812  93.0105115  79.2927547  76.3011597
  93.7427126  78.8341183  76.8242597  92.9809241  79.1194444  74.8780975
  92.3728525  79.9317333  74.4799330  94.3822751  79.2453356  74.3191757
  94.9287800  78.3079294  74.4226225  94.2306854  79.5843009  72.8404793
  93.6846419  80.5218886  72.7362359  95.2168943  79.6865196  72.3876616
  93.6819858  78.7871781  72.3388563  95.2708591  80.4240743  74.8944292
  95.3905877  80.2977277  75.9704421  96.2501602  80.4083132  74.4160774
  94.7840538  81.3783250  74.6931157  92.3787194  77.7482522  74.5712011
  92.7328086  76.7171600  75.1857324  91.3848497  77.7092339  73.7138193
  90.9095784  78.5774987  73.5129895  90.9061603  76.5022373  73.0767354
  91.3959497  75.6084774  73.4632568  89.4336966  76.4296065  73.4121951
  89.4282026  76.0995207  74.4509985  89.0989633  77.4655672  73.3589120
  88.5128864  75.5669711  72.6107621  88.6896051  75.7427536  71.5496439
  88.7577404  74.1266676  72.9242191  88.5807608  73.9500041  73.9851465
  88.0821217  73.5062029  72.3354375  89.7892099  73.8716295  72.6810594
  87.0615027  75.9232284  72.9410650  86.8797797  76.9703821  72.6991033
  86.3903290  75.2940169  72.3564968  86.8792977  75.7593635  74.0031613
  91.1582793  76.5286475  71.5575104  91.0332657  77.5399582  70.8787680
  91.6176258  75.3855055  70.9383207  91.7781919  74.5710169  71.5135826
  91.8490006  75.2717365  69.4798943  91.8781135  76.2694329  69.0418835
  93.1808195  74.5583447  69.1699192  94.0330046  75.1614887  69.4831237
  93.1244492  73.6617590  69.7872170  93.3504966  74.1602974  67.7137829
  92.4631856  73.5859791  67.4474400  93.5219810  75.3044435  66.7382970
  94.4094151  75.8789877  67.0037374  93.6346520  74.9083528  65.7290804
  92.6455687  75.9512742  66.7784472  94.6854333  73.3996120  67.6299329
  94.6448403  72.5213459  68.2742156  94.8619375  73.0867915  66.6008115
  95.4964970  74.0510849  67.9552909  90.6924584  74.4164885  68.9474554
  90.4399428  73.2886955  69.4733497  89.9074640  74.8867772  67.9734953
  90.1181554  75.8232347  67.6592409  88.8141644  74.1849045  67.3468098
  88.5269431  73.2449039  67.8179807  87.7042176  75.2307319  67.6123286
  88.0556077  75.7421182  68.5084917  87.7047255  75.9268777  66.7735910
  86.2777238  74.7117838  67.8455695  86.1121079  73.9198703  67.1151277
  85.9986973  74.1703113  69.2625359  86.1636651  74.9618417  69.9935380
  84.9654666  73.8287200  69.3245868  86.6694891  73.3371615  69.4722980
  85.2269099  75.7395605  67.5682693  85.2958289  76.0590044  66.5284111
  84.2415553  75.3111401  67.7516639  85.3765234  76.5985485  68.2223751
  89.0273937  73.8974500  65.8484073  89.7755074  74.5799537  65.1347873
  88.3278084  72.8978853  65.2967580  87.7685016  72.3237814  65.9113146
  88.2707714  72.6329222  63.8520793  88.6536495  73.4485725  63.2387130
  89.0817109  71.3953807  63.5681389  88.7043415  70.5674444  64.1683170
  89.0020807  71.1428511  62.5107893  90.1262576  71.5792140  63.8195885
  86.8420527  72.3355144  63.4393875  86.1321653  71.7445051  64.1876561
  86.4254530  72.6550179  62.1908019  86.9683905  73.3907447  61.7618214
  85.2393333  72.1688628  61.4877271  84.4856700  71.7679127  62.1654659
  84.6710098  73.3924149  60.8017754  84.5057514  74.1428339  61.5748603
  85.3800605  73.7768794  60.0686082  83.3542018  73.0757207  60.1143728
  82.2309076  72.6649411  60.8649216  82.2706669  72.5830863  61.9511161
  81.0072786  72.3493678  60.1598716  80.0912878  72.1558907  60.7181093
  80.9780626  72.3948371  58.7600342  79.8133269  71.9564538  58.0948748
  79.1275989  71.6578046  58.6966931  82.1011655  72.7604972  58.1019418
  82.0184770  72.7225708  57.0157445  83.2891475  73.1597623  58.6927684
  84.1131174  73.5151007  58.0739726  85.5925424  70.9918831  60.6214910
  86.4985727  71.1702886  59.7750687  84.8646610  69.8909577  60.8050120
  84.1510064  70.0075552  61.5101370  85.0199316  68.5986942  60.2016522
  85.7818042  68.6743277  59.4258114  85.4422178  67.4858279  61.2074534
  84.6351965  67.3910607  61.9339759  85.5292099  66.5598878  60.6389755
  86.8080670  67.7704343  61.9677075  87.6464088  67.6479060  61.2819447
  86.8077394  68.7864448  62.3624537  86.9469052  66.7546093  63.1458521
  87.8259965  67.0496507  63.7187814  86.0568592  66.8623587  63.7657777
  87.0908070  65.2847775  62.7052721  86.3853761  65.0918520  61.8970348
  88.1073167  65.1260883  62.3452373  86.8232650  64.3853415  63.8018400
  85.8812451  64.5319265  64.1353231  86.9242351  63.4310513  63.4868238
  87.4770989  64.5636574  64.5507083  83.6880460  68.2502973  59.4943344
  82.8361159  67.5305794  60.0859409  83.5396114  68.7061467  58.2135727
  84.5337066  69.5380954  57.4472999  85.3837290  68.8908113  57.2314630
  84.8493168  70.3416285  58.1127499  83.8721706  70.0514895  56.2061059
  84.5661928  70.0249889  55.3660285  83.5228083  71.0730450  56.3560121
  82.6720258  69.0793213  55.9845406  82.9672266  68.2370516  55.3588112
  81.8031145  69.5700631  55.5460601  82.3404731  68.5917830  57.3829841
  81.5608513  69.2127692  57.8241918  81.8446960  67.1466169  57.2818353
  80.6871514  66.9508470  57.3081143  82.7562488  66.1375163  57.2089818
  83.7312907  66.3840817  57.1162555  82.3877969  64.7309492  57.1176527
  81.6877271  64.5831252  56.2953696  83.5719515  63.9129494  56.8748002
  84.2056041  63.9929878  57.7580767  83.2344154  62.8826213  56.7625802
  84.3671270  64.3243641  55.6401525  83.6509891  64.3095573  54.8185515
  84.6813254  65.3508491  55.8291232  85.8744628  63.2910108  55.1681019
  86.3860467  64.1077664  53.6115139  86.6208868  65.1535909  53.8095047
  87.2676913  63.6075046  53.2108376  85.5745761  64.0491694  52.8861291
  81.5955286  64.2018697  58.2771038  80.4063229  63.8029204  58.1008076
  82.1658770  64.3371668  59.4976952  83.1757619  64.3389760  59.5128116
  81.4688724  64.2781997  60.7459169  80.9094555  63.3499014  60.8617368
  82.5372783  64.3327077  61.8085751  83.4927181  64.0531623  61.3646287
  82.6005747  65.3499125  62.1950825  82.2171042  63.4030331  62.9163006
  81.2383225  63.8201542  63.1531489  82.1026812  62.3664397  62.5993138
  83.1225893  63.4616641  64.1755798  82.9833500  62.5582415  65.0632565
  83.8132774  64.4278045  64.4544111  80.3231472  65.2402235  60.9236754
  79.4075209  64.9252128  61.6509131  80.3001962  66.3505153  60.1563668
  81.0893737  66.4686569  59.5372216  79.2304254  67.3934914  60.1473027
  79.4191774  68.0999325  59.3389632  78.2614463  66.9181592  59.9948620
  79.2094341  68.1573947  61.4866235  78.1076632  68.4627473  61.9575985
  80.3645202  68.5179869  62.0759446  81.2519926  68.3146101  61.6387606
  80.3701546  69.1431126  63.4372165  79.6503757  69.9616134  63.4286112
  80.0076599  68.1758088  64.5963618  80.3033736  68.7453667  65.4774160
  78.9359882  67.9802756  64.6335989  80.7393493  66.8559607  64.6073841
  80.1610655  65.8239383  65.0168652  81.9881723  66.8207157  64.3043067
  82.4815090  65.9394209  64.3104875  82.4700386  67.6744881  64.0614520
  81.8038748  69.7665872  63.5985133  82.7793743  69.3418898  63.0446570
  81.8319282  70.8426579  64.4039201  80.9862680  71.3929553  64.4500810
  83.0298706  71.3047659  65.1953745  83.7942014  71.6179623  64.4841743
  82.7547149  72.4646052  66.1620639  81.9232747  72.2449943  66.8318230
  83.6658762  72.5957985  66.7457363  82.4503452  73.8178565  65.5154001
  83.2850306  74.2118656  64.4862786  84.1945344  73.6728071  64.2211019
  82.9125175  75.3742840  63.7623535  83.5002466  75.6220407  62.8784464
  81.8455190  76.1861399  64.1391415  81.6085770  77.0998488  63.5940777
  81.1048915  75.8248649  65.1934741  80.3154283  76.5061189  65.5108712
  81.3188029  74.5866592  65.9042924  80.6298908  74.2851842  66.6933506
  83.6721604  70.1714303  66.0473141  83.0420193  69.1123921  66.3164171
  84.9066892  70.2867551  66.4943722  85.3143457  71.1856839  66.2802639
  85.7311959  69.2967572  67.2642857  85.0772951  68.6429320  67.8413694
  86.5614298  68.4430552  66.3208167  85.8697458  67.9184720  65.6616619
  87.1827191  69.1177664  65.7318648  87.4502330  67.4280570  67.0374109
  88.3177102  67.1951236  66.4198947  87.7760886  67.9420158  67.9417138
  86.6973815  66.0671445  67.4373878  86.0370611  65.9618516  68.4895045
  86.7644679  65.1446731  66.5882470  86.6107781  70.2495123  68.1235434
  87.3441444  71.1674921  67.6600924  86.7119142  69.7812850  69.3768162
  86.0188785  69.2045361  69.8319662  87.8362089  70.3518561  70.2175231
  88.0708756  71.3751723  69.9245135  87.3617969  70.3565150  71.6683410
  87.1761418  69.3173364  71.9398907  88.1862852  70.7458488  72.2656169
  86.1088906  71.1820143  71.9335309  86.1060606  72.1827574  71.5015516
  85.3557205  70.5703240  71.4368733  85.7958024  71.2689865  73.3975093
  84.9564529  72.1061128  73.7822546  86.1899563  70.4552627  74.2430596
  89.1696908  69.6609419  69.9221764  89.3444845  68.5429156  70.3574158
  90.0974578  70.3887445  69.2153944  89.9228469  71.3130159  68.8475184
  91.4059391  69.7927194  68.9909845  91.3841536  68.7201673  68.7979647
  92.1159577  70.5134294  67.8187764  92.2008521  71.5609137  68.1080340
  93.5237629  69.9625482  67.4461006  93.4396037  68.9151636  67.1562674
  93.9310170  70.5375363  66.6144555  94.1876201  70.0487438  68.3063117
  91.2138609  70.5629332  66.5426637  90.3887172  71.2510505  66.7263300
  91.8118806  70.9281749  65.7077563  90.6479420  69.1554632  66.1981075
  90.0493850  68.7897390  67.0324187  90.0247986  69.2221905  65.3062897
  91.4725492  68.4668625  66.0138472  92.2861921  69.9247889  70.2582099
  92.9797920  68.9733206  70.5606537  92.2665508  71.0792055  70.9620532
  91.6939923  71.8576722  70.6683430  93.1487010  71.2686121  72.0553739
  93.1133697  70.3086977  72.5705586  94.6018779  71.5368188  71.6116318
  94.6550406  72.4989456  71.1021362  95.2522668  71.5529624  72.4861796
  94.9263952  70.7482957  70.9326479  92.6958319  72.3938711  73.0854204
  92.0914094  73.3842194  72.7370230  93.1630709  72.3370221  74.3171172
  93.8029741  71.5839254  74.5256082  92.7047749  73.1902236  75.4253830
  92.6237358  74.2148511  75.0625191  91.3218172  72.7543448  76.0009294
  90.5868138  72.9248949  75.2143025  91.3906390  71.6863737  76.2078139
  90.8840703  73.5041682  77.2898377  90.0699726  72.9263704  77.7274397
  91.7400260  73.4936480  77.9646200  90.4407078  74.8975549  77.0790364
  90.7936889  75.4784529  77.9311285  90.9261659  75.2542671  76.1706388
  89.0109009  75.0891009  76.9470509  88.4704437  74.2573927  76.7566118
  88.3823001  76.2693636  76.9605774  88.9691978  77.3799503  77.0880456
  89.9738753  77.4082250  77.1876629  88.4311692  78.2347146  77.0897816
  87.0371430  76.2536886  76.9383136  86.5458013  75.3716352  76.9125226
  86.5248015  77.1240452  76.9474909  93.7478907  73.3003607  76.4844625
  94.1238910  72.3689185  77.1929660  94.2755610  74.4916932  76.5984311
  94.3428913  75.1260426  75.8153814  94.8584769  74.9190326  77.9110137
  95.2072889  74.0338039  78.4428026  96.0431002  75.8953240  77.7480636
  96.7922471  75.3692203  77.1563769  95.6723418  76.7520115  77.1852805
  96.6689422  76.3750636  79.0456605  96.2515923  75.9633053  80.1463504
  97.6072431  77.1985142  78.9928467  93.7089400  75.5538296  78.7186143
  93.0251993  76.3937323  78.1413180  93.4071896  75.0936334  79.9019875
  93.9809531  74.3698345  80.3106560  92.2630729  75.6039570  80.6826443
  91.4189985  75.9064400  80.0628528  91.8371966  74.3713858  81.5373130
  92.8100114  73.9540410  81.7972245  91.3051106  74.6459338  82.4481411
  91.0579905  73.2726986  80.9036622  89.6634032  73.2133563  81.1144195
  89.1973080  74.0238764  81.6746984  88.8789548  72.1538023  80.6276125
  87.8028933  72.0909670  80.7896126  89.5484901  71.1349234  79.8955141
  89.0001228  70.2560641  79.5563982  90.9640375  71.2662106  79.5998533
  91.4125877  70.6077615  78.8559798  91.7533012  72.2241329  80.2567008
  92.8395206  72.1338099  80.2483909  92.5472025  76.7796224  81.6185840
  91.6565508  77.2060591  82.2970471  93.8351830  77.1647934  81.8889052
  94.5328133  76.6756085  81.3465868  94.2725143  78.0015254  82.9522433
  94.0709711  77.5525071  83.9247977  95.7995244  78.1670334  82.7920336
  96.1255526  77.1270956  82.7737480  96.0071750  78.6293813  81.8270384
  96.5889476  78.9061589  83.8662023  96.8297321  80.1224248  83.8905951
  97.1328910  78.1453685  84.7831263  97.6715006  78.5640012  85.5279391
  97.0112006  77.1436063  84.7411160  93.4977420  79.2761027  83.1405058
  93.3570751  80.0749630  82.2020235  93.0707825  79.6090989  84.3703058
  93.0813434  78.7843906  85.6034443  94.1245027  78.6100206  85.8670994
  92.6045479  77.8344762  85.3617261  92.3038841  79.5794755  86.7121946
  92.9484297  80.2485783  87.2822484  91.7623431  78.9267625  87.3968847
  91.3504188  80.3487799  85.8353743  90.9170167  81.2058748  86.3507866
  90.5527123  79.7396082  85.4103168  92.3292821  80.8498193  84.6773566
  91.7192733  81.1058185  83.8110704  93.2858431  82.0354788  85.0069514
  93.5840176  82.3311920  86.1901398  93.7921210  82.7482206  83.9572392
  93.8634471  82.2854655  83.0623259  94.3175065  84.1191183  84.0784268
  94.5978607  84.3576299  85.1043961  95.5870862  84.1754792  83.1924716
  95.6984543  85.2594405  83.1655603  96.4848959  83.7290131  83.6199126
  95.4237077  83.6705546  81.7744946  94.4278844  84.0420844  81.1238406
  96.1794480  82.7254541  81.4123792  96.1068601  82.3555857  80.4753477
  96.8526736  82.3441899  82.0616139  93.1170085  85.0672587  83.6548334
  91.9916838  84.7352924  83.8506305  93.4215144  86.2861000  83.1532747
  94.3340108  86.6826064  83.3271489  92.4365480  87.1060587  82.5403783
  91.5655228  86.5357710  82.2175993  91.9951290  88.1043097  83.6389074
  92.8555456  88.6862737  83.9692108  91.2435565  88.7735864  83.2202101
  91.3830313  87.4887979  84.8845036  92.0886686  87.0285737  85.9204489
  93.1739481  87.1228004  85.8831717  91.2227997  86.5078252  86.8560305
  91.5858470  86.2294216  87.7564679  89.9133083  86.6277153  86.5401955
  88.7083804  86.4847684  87.1669115  88.7595136  86.0797115  88.1775613
  87.4796402  86.8539235  86.5068728  86.5215882  86.6831016  86.9978475
  87.4953067  87.4270154  85.2484491  86.6092021  87.7299799  84.6906583
  88.7833805  87.6352169  84.6371799  88.7113158  88.1793210  83.6954484
  90.0041114  87.2824369  85.2216295  92.9381174  87.6739214  81.2354350
  93.6701447  88.6861896  81.2433839  92.4527178  87.1799804  80.0940856
  91.7948884  86.4302850  80.2531973  92.8326206  87.4815705  78.7305922
  93.9130124  87.5683865  78.6151980  92.3481244  86.3052662  77.8982565
  92.3852779  85.3910367  78.4906275  91.3247995  86.4814971  77.5668221
  93.2734609  86.1579537  76.6621317  93.3348511  87.1633963  76.2456976
  94.2414062  85.8775881  77.0775580  92.8224469  84.9729371  75.3219605
  93.1886062  83.4773889  76.2744488  92.5600070  83.4498703  77.1645076
  92.9891048  82.5980364  75.6620445  94.2374651  83.4826029  76.5710447
  92.3741432  88.8132471  78.2379587  91.1661721  89.0939549  78.0743188
  93.3354984  89.5935796  77.6571228  94.2950539  89.3126578  77.8000762
  93.0756623  90.8706005  76.9593544  92.0737921  91.2326122  77.1902284
  94.1101577  91.9344723  77.4311989  93.8279216  92.9148121  77.0473032
  94.1334150  91.9643498  78.5205411  95.3640042  91.5951747  76.9523012
  96.0046575  92.2491018  77.2413384  93.0454132  90.6534073  75.4093124
  92.3784159  91.4570916  74.7721505  93.8052181  89.6662786  74.8463510
  94.3552702  89.0700210  75.4480311  93.9111721  89.4780318  73.3959676
  92.9107090  89.6346082  72.9926605  94.8681113  90.7009459  72.9037377
  95.8758056  90.5534344  73.2921868  94.8988280  90.7231053  71.8143958
  94.4709334  91.6457560  73.2747942  94.4393302  88.1379292  72.8335008
  95.2144905  87.5113490  73.5043814  94.1096683  87.7044756  71.6427545
  93.4344385  88.2525865  71.1291996  94.6260616  86.4734963  71.0224370
  95.6243371  86.1701193  71.3378852  93.6326828  85.3072163  71.3210443
  93.1044833  85.6393914  72.2147804  92.5972661  84.8526129  70.2435058
  93.1247688  84.5198387  69.3495801  91.9982343  84.0318400  70.6379589
  91.9452279  85.6884775  69.9899744  94.4041262  84.0793366  71.7715292
  94.9666508  84.3143020  72.6751106  93.7070005  83.2674953  71.9789638
  95.0932827  83.7735530  70.9843441  94.8464745  86.5144392  69.4932359
  94.1918006  87.2984642  68.7397527  95.7953235  85.6490901  69.0363219
  96.2866782  85.1405037  69.7574390  96.3217616  85.6046427  67.6793505
  95.4883842  85.5523781  66.9787439  97.1810266  86.8578609  67.3380092
  96.6119245  87.6732269  67.7845518  98.0920222  86.6935229  67.9134916
  97.5628290  87.2367386  65.8340771  98.2525413  88.0768773  65.7530545
  98.0026464  86.3592424  65.3600936  96.2416742  87.5894646  65.1324736
  95.6044465  86.6346940  64.6355420  95.8659861  88.7718646  65.1576465
  96.9821031  84.3014146  67.1644848  97.4201280  83.4099513  67.8594001
  97.0121723  84.1121645  65.8463607  96.7234143  84.8497535  65.2197183
  97.5278003  82.8528845  65.2590203  97.7040643  82.1341152  66.0592708
  96.3966307  82.3234906  64.3251298  96.0974895  83.1451831  63.6744098
  96.8327265  81.0995794  63.4524725  97.1315884  80.2772703  64.1025418
  95.9980688  80.7827770  62.8271059  97.6726625  81.3851171  62.8191678
  95.2023741  81.8087929  65.2119774  95.5335372  80.8900645  65.6960949
  95.0123311  82.5696486  65.9689991  93.9468304  81.5434960  64.4468379
  94.1359847  80.7823529  63.6898823  93.1724346  81.1923747  65.1288381
  93.6147798  82.4619372  63.9627843  98.7996434  83.1027427  64.3746974
  98.7563061  83.6567459  63.2499306 100.0042016  82.8588706  64.9274215
 100.0684962  82.6029540  65.9023431 101.2334503  83.0973397  64.1969655
 101.2652553  84.1060384  63.7851225 102.4147516  82.9360344  65.2239551
 102.3411967  81.8847961  65.5024995 103.3860860  83.1229318  64.7660480
 102.2591063  83.8372280  66.5182246 101.3030395  83.6334068  67.0004010
 103.3797185  83.5097132  67.4683037 104.3361635  83.7137311  66.9869633
 103.2869962  84.1221090  68.3652289 103.3286380  82.4557924  67.7416936
 102.1642814  85.3199515  66.1822776 101.2978533  85.4937575  65.5441607
 102.0587983  85.8953839  67.1019798 103.0682421  85.6332153  65.6599560
 101.4562546  82.2773709  62.9236535 101.9745358  82.7347069  61.8011343
 101.1129302  81.0145666  62.8772894 100.7795437  80.8069252  63.8077935
 101.0764358  79.9928194  61.9130125 100.6140463  80.3402641  60.9891201
 102.5550882  79.5727437  61.6059613 102.6813895  78.8358924  60.8127416
 102.9395205  80.5360793  61.2708548 103.3141900  79.1274316  62.8309150
 103.3096285  77.9221422  63.1112323 104.0613180  79.9477187  63.3740650
 100.3266939  78.6834805  62.3868574  99.5057228  78.7057045  63.3295904
 100.4671769  77.5641976  61.6604772 101.1028620  77.6420798  60.8794918
  99.7045341  76.3314032  61.8102904  98.6350939  76.5261682  61.8906861
  99.9626493  75.4882508  60.5216925 101.0364146  75.6755913  60.5272389
  99.7814062  74.4146146  60.5722535  99.3603583  76.0421818  59.2468862
  98.7251322  77.1063978  59.3227206  99.2263911  75.3534389  58.2110333
  99.9699605  75.5767477  63.1010935  99.0367842  74.9183228  63.6025600
 101.0662457  75.8911582  63.7915765 101.5938810  76.6738231  63.4322217
 101.5633209  75.2085795  65.0094844 100.9328459  74.3602878  65.2759457
 102.9123132  74.7142735  64.7090739 103.3719557  75.5377573  64.1625371
 103.5871719  74.3804604  65.4972582 102.6412199  73.5700496  63.7606647
 101.8594718  72.6524703  64.0581006 103.3453463  73.4412098  62.7587169
 101.6271953  76.1687677  66.2381205 101.9368331  75.6953452  67.3678698
 101.4571001  77.5051205  65.9969364 101.1434125  77.8308187  65.0938195
 101.8083967  78.4911786  66.9987219 101.8292272  78.0017046  67.9724161
 103.2009827  79.1577584  66.7442881 103.0531010  79.4028777  65.6925530
 103.5325371  80.0467212  67.2808669 104.2962008  78.0834588  66.8491764
 104.8525878  77.7584724  67.8610165 104.8172524  77.7432852  65.7258713
 105.5448842  77.0432415  65.7015689 104.4969550  78.1773951  64.8720218
 100.6991647  79.5273623  67.0592688 100.4761593  80.2417598  66.0709830
 100.1945267  79.7613606  68.2796635 100.6287281  79.2244078  69.0167185
  99.1481762  80.7026652  68.6382655  98.9008452  81.3495026  67.7965245
  97.8838575  79.8944132  69.0304545  97.9288446  79.6454998  70.0906985
  96.9717414  80.4557841  68.8279525  97.7594156  78.5688351  68.2741728
  97.5404988  78.5136181  66.8638528  97.2643133  79.4251642  66.3338481
  97.6783026  77.2917488  66.1517155  97.7361952  77.3212312  65.0636530
  97.7395703  76.0712897  66.8193949  97.7411064  75.1224634  66.2829005
  97.8010248  76.0848780  68.2348809  97.8246633  75.1316141  68.7629238
  97.8324287  77.3252404  68.9792793  97.9110209  77.3066543  70.0662834
  99.5832489  81.5577656  69.8742724  99.9107137  80.9491820  70.8649402
  99.4794089  82.9041983  69.7982629  99.0856529  83.2000283  68.9164805
  99.7770887  83.9098370  70.7844650 100.4892222  83.5848822  71.5429961
 100.4540229  85.0456954  69.9067840 101.3338330  84.5085322  69.5525396
  99.8516219  85.3578435  69.0536857 100.8937257  86.2774957  70.6974934
 100.0093449  86.7678015  71.1043985 101.8422560  85.8798319  71.8559302
 102.7271452  85.3898492  71.4497447 102.1416034  86.7731716  72.4040508
 101.3263716  85.1962722  72.5302520 101.4280664  87.3470112  69.7842215
 100.6516750  87.6450432  69.0795990 101.7329831  88.2108675  70.3748817
 102.2872236  86.9610939  69.2355726  98.6112751  84.5580666  71.5110000
  97.6565424  85.0425685  70.9143724  98.7387786  84.6614316  72.8210883
  99.5312297  84.2213881  73.2666020  97.7572052  85.4056042  73.6850298
  97.0758753  85.9696117  73.0480178  97.1893773  84.6897753  74.2793864
  98.4679130  86.3633969  74.6150128  99.6960662  86.2659947  74.8498268
  97.6154352  87.1429962  75.2632108  96.6246736  87.1008537  75.0716000
  98.0817095  88.0739720  76.2742189  98.9014228  87.6066407  76.8199026
  98.6229031  89.3341345  75.5507357  97.8115433  89.8182259  75.0071818
  99.0321182  90.0277869  76.2852353  99.4060245  89.0434930  74.8504875
  97.0071329  88.5648430  77.2904850  95.7936547  88.3943185  77.0096612
  97.4064668  88.9867304  78.4967572  98.3685044  89.2664842  78.6245099
  96.5252708  88.9910526  79.6583474  95.4895684  89.1865214  79.3804772
  96.6132820  87.5639717  80.2814486  95.8831807  87.5425156  81.0905165
  96.3057381  86.8727146  79.4967955  97.9708612  87.1505453  80.8151482
  98.0106457  86.0700818  80.9534113  98.6147375  87.4337169  79.9824800
  98.4584431  87.8553222  82.1083444  97.7975838  87.6478406  83.1668770
  99.5416878  88.5205065  82.1542021  96.7570633  90.0382062  80.7640709
  97.5704818  90.9315596  80.5762757  95.9280763  90.1038265  81.8299807
  95.2598119  89.3465145  81.8307678  95.7108508  91.2222673  82.7497204
  95.6421096  92.1431292  82.1705942  94.3977114  91.0627291  83.5965477
  93.5749747  90.7226904  82.9675983  94.6300601  90.2961803  84.3358156
  93.9459702  92.3737998  84.3536002  93.6170784  93.3590093  83.7360904
  93.8918730  92.2631397  85.6828823  93.6118379  93.0565385  86.2416295
  94.1312266  91.3865247  86.1237415  96.9405235  91.7033786  83.5712591
  96.9339804  92.8109961  84.1402385  97.9539922  90.8558237  83.6538121
  97.8108629  89.9554315  83.2191774  99.1838916  91.0668972  84.4312878
  99.0282788  91.9695020  85.0222095  99.4374528  89.8922697  85.3871748
  99.6041336  88.9828381  84.8098954 100.3169759  90.1018964  85.9959408
  98.5714996  89.7570597  86.0352046 100.3916818  91.3704348  83.4919307
 101.4494216  91.5050206  84.0604000 100.1573254  91.5430147  82.1642131
  99.2854476  91.1554276  81.8329960 101.1205314  92.0998004  81.1518017
 100.5313343  92.3720563  80.2761175 101.9323886  93.2990428  81.5789687
 102.8193214  93.0222394  82.1489068 102.2327918  93.8280481  80.6745289
 101.1803196  94.2718517  82.4098333 100.0221691  94.9000931  81.9187100
  99.6940552  94.6961806  80.8994647  99.2829260  95.7919624  82.7364494
  98.3774220  96.2549785  82.3443025  99.7032861  96.0758541  84.0231024
  99.2065017  96.8494061  84.6086983 100.7623764  95.3700536  84.5661165
 100.9707439  95.4543522  85.6326890 101.5660915  94.5502206  83.7558677
 102.4870137  94.1247961  84.1546361 102.0521473  91.0086768  80.5887608
 103.1759260  91.3597801  80.1942015 101.6375801  89.7370438  80.5151843
 100.7992268  89.4719781  81.0121785 102.4156913  88.6798914  79.8431561
 103.4413894  88.9960936  79.6532648 102.4416154  87.4874038  80.7837996
 101.4046207  87.1762764  80.9100574 102.9973029  86.6998271  80.2748455
 103.0567613  87.7049174  82.1630184 104.2491791  87.4830891  82.3469883
 102.2853418  88.1104533  83.0806400 102.6495252  88.2679928  84.0094304
 101.3092273  88.2746076  82.8797552 101.8762253  88.3423494  78.4136311
 100.6930918  88.1814847  78.1953843 102.7564937  88.2887841  77.3987693
 103.5545885  88.8988700  77.5033595 102.6702562  87.4508754  76.1865832
 101.6787404  87.5135610  75.7381791 103.7294144  87.9858035  75.1455112
 104.6842665  87.7316797  75.6057043 103.5204834  87.2882138  74.3344523
 103.7951909  89.4199375  74.5850085 103.8901651  90.1736980  75.3666259
 105.0860666  89.3955749  73.7331003 104.9916539  88.6423212  72.9509277
 105.2401367  90.3739301  73.2779253 105.9373378  89.1532804  74.3692851
 102.6570984  89.8771767  73.6350781 101.7019488  89.8184372  74.1569385
 102.8363412  90.9054643  73.3210754 102.6322283  89.2293473  72.7588375
 102.9677430  85.9922590  76.5045590 104.0914062  85.7583436  77.0055158
 102.2353532  85.0475559  75.8834830 101.4052248  85.4826159  75.5070406
 102.3586854  83.5958527  75.7906993 103.4090953  83.3075756  75.8311293
 101.6207487  82.9275636  76.9610022 101.6520300  81.8401294  76.8931228
 102.0883596  83.2465396  77.8925034 100.1586080  83.3141549  77.0553303
  99.2739145  82.3962454  76.3731422  99.7259878  81.5163106  75.9154912
  97.8634868  82.6028034  76.2836312  97.2091608  81.9498476  75.7060440
  97.3259057  83.6999569  76.9786195  96.2480862  83.8613992  76.9601426
  98.1737344  84.6006994  77.7050488  97.7257765  85.4433495  78.2317125
  99.5850868  84.4049005  77.7437426 100.2160133  85.0957122  78.3030377
 101.9719152  83.0094405  74.5002917 101.0088385  83.3511996  73.8523528
 102.6658325  81.8920438  74.1135406 103.3297241  81.4851595  74.7568077
 102.4168300  81.2098476  72.8618174 101.5002083  81.5499423  72.3799051
 103.5942259  81.3501443  71.8486186 104.4486815  80.8258545  72.2765498
 103.2967699  80.7894921  70.4610340 102.4426596  81.3136425  70.0322417
 104.1666711  80.9271417  69.8188308 103.0681843  79.7266134  70.5393860
 104.2111694  82.6698197  71.5612939 104.6213042  83.0876462  72.4807026
 105.0105576  82.5464146  70.8306439 103.4551817  83.3455415  71.1613146
 102.3402165  79.7379304  73.2002391 103.2581551  79.2003919  73.7832168
 101.2257432  79.1321021  72.8128383 100.5647319  79.7237145  72.3299737
 100.8472291  77.7845709  73.0961044 101.6199756  77.3136699  73.7037344
  99.4812355  77.7202304  73.8799092  99.2334067  76.7082966  74.2003310
  99.4647436  78.3878487  74.7413695  98.1134945  78.2574967  72.7968878
  97.1503661  78.0991308  73.7003269 100.8351008  77.0514666  71.7411147
 100.9606959  77.6613236  70.6660187 100.9061317  75.6958099  71.7706324
 100.9070071  75.1730874  72.6348429 101.0708102  74.9672795  70.5251664
 100.7146386  75.5472693  69.6737835 102.5971032  74.7051062  70.3458463
 103.0171386  75.6677240  70.0542363 102.9569613  74.4382786  71.3395290
 103.0205901  73.6600320  69.3660102 102.9772282  72.8042469  70.0396960
 102.2645665  73.5485904  68.5887643 104.3699070  73.6918887  68.7196015
 105.2331488  72.8570786  68.9276873 104.6439302  74.7353389  68.0610243
 105.5392455  74.8178351  67.6009088 103.9662549  75.4815924  67.9980694
 100.2320076  73.6721406  70.5291001 100.1749934  73.0343708  71.5759200
  99.6780191  73.2378947  69.4088233  99.6373855  73.8314467  68.5926466
  99.0340096  71.9602322  69.3517959  98.5183149  71.7698495  70.2930252
  98.0073097  71.9105780  68.2109709  97.5473756  70.9226708  68.2354516
  97.2526816  72.6675110  68.4247206  98.5961789  72.1589489  66.8381621
  99.0454353  73.1520586  66.8397596  99.3697526  71.4110744  66.6638937
  97.5686685  72.0774813  65.7497990  96.8994762  71.2231359  65.8516547
  96.9800823  72.9887135  65.6433956  98.4471668  71.8914820  64.5129551
  99.2779736  72.5903763  64.6099465  98.8262773  70.8701302  64.5478128
  97.7674679  72.1160858  63.2357708  97.4164747  73.0625717  63.2030917
  98.4192236  71.9723291  62.4777151  96.9978510  71.4682883  63.1455085
 100.2387125  70.9647011  69.2322859 101.1201192  71.2027150  68.4793864
 100.1905709  69.9021950  69.9747879  99.3977609  69.7432246  70.5799987
 101.3134765  68.9937822  70.0623276 101.8065044  68.8974246  69.0949921
 102.2962181  69.5383922  71.0468599 102.2981465  70.5634972  70.6763801
 101.9157885  69.5224415  72.0681918 103.7151764  68.9891580  71.0258570
 104.1325233  68.3444350  70.0282660 104.3564649  69.0304673  72.1023902
 100.7471516  67.5683075  70.3804784 100.3926503  67.3473359  71.5344929
 100.7399108  66.6929411  69.3436075 100.8696530  67.0852267  68.4219904
 100.2059796  65.3243374  69.4511964  99.7902816  65.1394477  70.4417065
  99.1009735  65.1842330  68.4298867  98.3014220  65.8813984  68.6804404
  99.5002135  65.4286258  67.4455191  98.5857928  63.8563059  68.4166500
  97.8866864  63.7908230  67.7620035 101.2866252  64.2566279  69.6055843
 101.0957473  63.0676005  69.3652253 102.5011126  64.6686346  69.9302528
 102.5381702  65.6710356  70.0482285 103.7078890  63.9268877  70.0746182
 103.9323301  63.3220508  69.1960412 104.8187923  64.9550067  70.2549468
 104.6128176  65.5624588  71.1362392 105.7720557  64.4420696  70.3825584
 104.8669927  65.5967018  69.3751722 103.6014278  62.9465519  71.2546918
 103.9845441  61.7476445  71.0900437 103.0297164  63.3547598  72.3762877
 102.9337299  64.3601854  72.3739675 102.7199664  62.6289858  73.6139973
 103.6968517  62.3674415  74.0206776 102.0431453  63.7285840  74.5706405
 101.0602059  63.9939482  74.1813951 101.9372748  63.3206242  75.5758571
 102.6722182  64.6180904  74.6044761 101.9714889  61.2952987  73.5006433
 101.3954762  60.9184079  72.4856011 102.0125473  60.5933557  74.6561121
 102.5015067  60.9777025  75.4519109 101.4087903  59.1959492  74.7828785
 101.0339989  58.8821435  73.8086319 102.4531418  58.1661190  75.2647735
 101.9874304  57.1847850  75.3553086 103.5567973  58.0995929  74.2782702
 104.0233262  59.0805193  74.1875301 104.2991281  57.3741738  74.6111535
 103.1609430  57.7950807  73.3094192 102.9589384  58.5784552  76.5183263
 103.6096485  57.9430038  76.8255369 100.1577122  58.9337240  75.6892440
  99.7088212  57.8462681  75.9972676  99.5090790  60.0001970  76.0399241
 100.0138308  60.8592741  75.8746624  98.1612247  60.0807616  76.7117358
  97.6240612  59.1323238  76.7072171  98.3660693  60.5088932  78.1348510
  97.3621038  60.6377653  78.5392586  99.1572480  59.6043352  79.0377204
 100.1615479  59.4753524  78.6341801  99.2197773  60.0467621  80.0319274
  98.6649663  58.6340075  79.1027076  99.0154771  61.8141019  78.1647293
  99.1455292  62.0860063  79.0761868  97.2702011  61.0576077  75.8838694
  97.7117818  62.1608119  75.5037379  96.0079043  60.7390053  75.6631764
  95.7311883  59.7896744  75.8688420  95.0079121  61.6453550  75.0524761
  95.2766146  61.8792206  74.0223280  93.6501163  60.9439590  75.0558053
  93.4967712  60.8740352  76.1326968  92.8650703  61.5596250  74.6167630
  93.6009233  59.5004689  74.4234768  93.3888606  59.4833579  73.2116787
  93.6034163  58.4583889  75.1077816  94.9336130  63.0120244  75.7308185
  94.9117818  64.0339570  75.0301088  94.9240386  63.0269374  77.0289541
  94.7390377  62.1021831  77.3904836  94.9801991  64.1439135  77.9748269
  94.1002151  64.7786705  77.8708516  95.0153262  63.5864256  79.3990774
  94.0334712  63.1423617  79.5629896  95.7711687  62.8011576  79.3865762
  95.3399565  64.6251266  80.5877629  95.3321502  64.1434206  81.5655150
  96.3628256  64.8937706  80.3238153  94.4811987  65.8822664  80.6346310
  94.8802454  66.8298473  81.4153725  93.5299772  66.0295856  79.8309566
  96.0934487  65.1093039  77.6335065  95.8428312  66.3320622  77.4759432
  97.3554634  64.6755464  77.6424014  97.5392748  63.7277135  77.9389238
  98.4616337  65.4938154  77.2708462  98.4336080  66.4147684  77.8532201
  99.8474133  64.7736142  77.5296477  99.8303532  64.3435997  78.5310945
  99.9641736  63.9771372  76.7947386 101.0345404  65.7618150  77.4125767
 101.3478012  65.6572016  76.3738157 100.6490088  66.7682276  77.5756667
 102.2031894  65.5254816  78.3105366 102.6879142  66.5000682  78.9525411
 102.6252035  64.3759665  78.2908863  98.4256811  65.8812534  75.8276386
  98.6472200  67.0790909  75.5104527  98.1131284  64.8916809  74.9277480
  97.9263959  63.9432539  75.2205220  98.0305877  65.2119090  73.4737528
  99.0114266  65.4936090  73.0907395  97.5345050  63.9553983  72.6965233
  96.8142983  63.4967736  73.3740665  97.0097193  64.3708608  71.8362380
  98.5711092  62.8575966  72.2042700  99.4656551  63.3384931  71.8085088
  98.8464202  62.2048642  73.0326698  97.9071890  62.0294291  71.1015091
  97.3792310  62.6993378  70.4228474  98.6768090  61.4881629  70.5512224
  96.9444585  61.0559568  71.6481383  95.9568336  61.1881938  71.4831844
  97.3481964  59.9289782  72.2739306  98.5326092  59.4994827  72.4953737
  99.3282010  60.0363663  72.1809064  98.6665232  58.6255383  72.9836235
  96.3804124  59.2221355  72.8158572  95.4246570  59.5402698  72.7422217
  96.5974957  58.3644972  73.3031253  97.0435499  66.3571925  73.2254829
  97.3643230  67.1325099  72.3354556  95.9937152  66.5306392  74.0210692
  95.7203402  65.6498648  74.4328967  95.0667846  67.5971359  74.0435718
  95.1187651  68.1657914  73.1151171  93.6456865  67.0303456  74.1935780
  92.9863258  67.7336334  73.6849239  93.6432806  66.0798728  73.6600093
  93.1498743  66.8117474  75.6297584  92.2092949  66.2699116  75.7288802
  93.9592949  66.2129116  76.0472942  93.0479616  68.1200242  76.4240698
  92.2563400  68.9774604  76.1674700  93.7384888  68.1967856  77.5120353
  93.7044201  69.0380734  78.0698664  94.3095616  67.4151929  77.8002888
  95.3231041  68.9471706  74.7705930  94.6127139  69.8995650  74.5176489
  96.3479533  69.1267752  75.5947819  96.7101934  68.3161411  76.0761901
  96.8573355  70.4243220  75.9625005  96.0953486  71.0892920  76.3690593
  97.8568600  70.0990264  77.0636883  97.7742161  69.2430623  77.7334605
  98.7515850  69.9944466  76.4499862  98.0613579  71.2546680  77.8959610
  97.0608229  72.0650451  78.3981700  97.6764025  73.0046411  79.1176191
  97.1129749  73.7202516  79.7164096  99.0174585  72.8547207  78.9319325
  99.7306625  73.4028761  79.3912425  99.2474616  71.8891158  78.0647182
 100.2474096  71.7534253  77.6526583  97.3883004  71.3131264  74.7979079
  97.8864363  70.7640638  73.7783345  97.3438305  72.6313779  74.9881408
  96.7949444  73.0147792  75.7443331  98.0672094  73.5306579  74.1564988
  98.2972090  73.0783501  73.1918138  97.1620848  74.7840510  73.9178496
  96.7499498  75.1890531  74.8420884  97.8717512  75.4950678  73.4948500
  96.0308409  74.5394621  72.9203425  95.4606761  73.6596893  73.2186925
  95.1133826  75.7572611  72.9023989  95.6827736  76.6374051  72.6036694
  94.3026563  75.5916095  72.1929039  94.6979522  75.9145355  73.8977796
  96.5459567  74.4807312  71.4895349  97.2675260  73.6691782  71.3956245
  95.7122614  74.3054572  70.8095846  97.0275533  75.4254326  71.2371407
  99.3058897  73.8495225  74.9835021  99.2914220  74.7021353  75.9008488
 100.4634227  73.2891156  74.6369613 100.4614006  72.7791608  73.7651578
 101.7470713  73.3666802  75.4137927 101.5152188  73.1842075  76.4631007
 102.8374706  72.3419185  74.9572081 103.1047741  72.5768149  73.9269306
 103.7092457  72.4755845  75.5977092 102.3692048  70.9167063  75.0402710
 101.3685772  71.0469446  74.6281021 102.9341234  70.2289840  74.4109801
 102.2476863  70.3163858  76.4256433 102.4428614  70.9174287  77.4934543
 102.1057869  69.0386325  76.5892161 102.0264522  68.6576545  77.5212371
 102.0752012  68.4298335  75.7839027 102.4334595  74.7668664  75.2858714
 102.5825721  75.2915964  74.1645874 102.8242028  75.4996660  76.3504827
 102.2672184  75.4244949  77.1896591 103.7580721  76.6267534  76.2334341
 103.3401213  77.3458045  75.5288904 104.0180319  77.3292018  77.5411822
 104.5314420  78.2705143  77.3451207 103.0667504  77.5305223  78.0337608
 104.8979498  76.4425112  78.4598982 105.0632616  75.4206149  78.1185759
 105.8392286  76.9913874  78.4311205 104.3577979  76.4206511  79.9108124
 103.2126531  76.1125141  80.1892796 105.1761867  76.5564521  80.8251641
 104.9977564  76.3888559  75.3602580 105.6815860  75.3887748  75.5852464
 105.2624521  77.3335494  74.4200604 104.4457539  77.8508992  74.1277374
 106.4725308  77.4601737  73.6351134 107.4042339  77.0826098  74.0563901
 106.2954490  76.8707502  72.2308168 107.2711913  76.8267375  71.7469893
 105.6600973  75.3914339  72.2931662 104.6840688  75.4347126  72.7764841
 105.5471367  75.0010345  71.2817668 106.3186481  74.7363444  72.8634908
 105.6434090  77.7716739  71.2717764 106.2379249  78.6787077  71.1624947
 105.5587482  77.2747232  70.3053540 104.6488948  78.0312465  71.6346322
 107.2249595  78.7735954  73.6273985 108.4707793  78.6858574  73.4125676
 106.5349384  79.8914014  73.7856443 105.5293723  79.9661824  73.7278185
 107.3061351  81.1039112  74.0656594 108.2993598  80.8218100  74.4149771
 107.3960155  81.6884824  73.1500736 106.6179802  81.9678408  75.1490497
 105.4082423  82.2291156  75.0529319 107.3146796  82.4124145  76.2347727
 108.3154716  82.2765059  76.2413665 106.6966137  83.1440307  77.3681703
 105.6557845  83.3905046  77.1583500 106.7446525  82.2273180  78.5901466
 107.7666794  82.0423658  78.9208321 106.2276888  82.8356973  79.3322540
 106.0117600  80.8912346  78.4249721 106.4749823  80.3098064  77.6278101
 106.1042161  80.1206201  79.7338472 105.6407573  80.7012540  80.5314493
 105.5867827  79.1667090  79.6317834 107.1514304  79.9411159  79.9772005
 104.5119427  81.1045418  78.2474783 104.3332700  81.7113703  77.3598215
 104.0182608  80.1395547  78.1326773 104.1109638  81.6153527  79.1229137
 107.5127027  84.3871635  77.7032845 108.7422379  84.2964526  77.7439766
 106.9023441  85.5075049  78.0404646 105.9108394  85.4381719  78.2199380
 107.5043492  86.7846650  78.0903242 108.3838155  86.7388065  78.7326132
 107.9425941  87.2765079  76.6824343 108.5321027  86.5089739  76.1809662
 107.0212649  87.4478320  76.1257470 108.7295880  88.5382582  76.6024607
 110.0730224  88.4147816  76.7137743 110.4414246  87.4069511  76.9052356
 110.9619931  89.4646407  76.6004562 112.0369587  89.3408752  76.7317266
 110.4320724  90.7307246  76.3036861 111.0685701  91.5875934  76.0829003
 109.0175514  90.8753293  76.2969158 108.5716973  91.8676928  76.2296172
 108.1949983  89.7399656  76.3769076 107.1163868  89.8386949  76.2546387
 106.6299351  87.8477443  78.7336362 105.5166870  88.2370115  78.3412859
 107.1841918  88.4363655  79.7762265 108.0518437  88.0665588  80.1375057
 106.5301375  89.5293376  80.5145333 105.4456971  89.4616158  80.4279189
 106.9164674  89.4068969  82.0120748 107.2220497  88.4589826  82.4549936
 107.7964535  90.0255976  81.8361945 106.0820524  90.1255881  83.0570358
 106.3386353  90.2610413  84.4460854 105.2212329  90.7178184  84.9796326
 105.2521972  91.0259859  86.0247034 104.1889775  90.7150144  84.0692597
 103.2084544  90.9087650  84.2146384 104.7326170  90.3984810  82.9132144
 104.1217445  90.3795048  82.0106758 106.8229412  90.9391973  79.9437140
 107.8427742  91.6343374  80.2150991 105.9065799  91.3715894  79.0421665
 105.1507152  90.7193068  78.8895386 105.9499054  92.5539161  78.2469404
 106.8676482  92.6434435  77.6657069 104.8018927  92.3911059  77.3045792
 105.0857158  91.4621837  76.8099608 103.8566776  92.2490631  77.8284993
 104.6426674  93.5074304  76.2500234 104.4753496  94.4398386  76.7892086
 105.8809995  93.6671250  75.3027678 106.0486729  92.7351996  74.7628608
 105.6929546  94.4703794  74.5903619 106.7638413  93.9070188  75.8953400
 103.3362279  93.3106137  75.4968038 102.5024265  93.3516073  76.1976562
 103.2233184  94.0985213  74.7521198 103.3452505  92.3404482  75.0000176
 105.9240514  93.8246458  79.0970665 106.4724009  94.8570900  78.7011412
 105.1967870  93.8209548  80.2268784 104.7175410  92.9870890  80.5352458
 105.0787046  95.0439334  81.0521697 104.6049608  94.7876464  81.9997894
 106.0758027  95.4417641  81.2409171 104.2326602  96.1239332  80.3432873
 104.4214241  97.3409743  80.4894350 103.2317528  95.6756013  79.5661665
 103.2394947  94.6945244  79.3263173 102.2059571  96.5085466  78.9977035
 101.8694143  97.2658502  79.7057497 102.8157754  97.2089906  77.7882503
 103.6415918  97.7919697  78.1960027 103.2112294  96.4006232  77.1732233
 101.9228685  98.1182475  76.9270500 102.5628308  98.6478353  76.2212980
 101.1708014  97.5503745  76.3793142 101.2306601  99.1283548  77.8445317
 101.8515090  99.7519843  78.7433170  99.9886345  99.2753292  77.6889336
 100.9729713  95.6604610  78.6577069 100.9990102  94.4629443  78.3234274
  99.8227798  96.2910750  78.6663926  99.8692296  97.2809218  78.8617003
  98.4975720  95.6756060  78.4936521  98.5244189  94.6463945  78.8515655
  97.3931479  96.4657602  79.3078099  97.6857410  96.7223490  80.3259703
  97.2732962  97.3783083  78.7238650  96.0485154  95.8383080  79.3970696
  95.0298065  96.1534627  78.3777666  95.2003153  96.8347576  77.5441815
  93.7762554  95.5166560  78.5251870  93.0537731  95.7495511  77.7429595
  93.4382830  94.6781621  79.5288053  92.4410954  94.2413792  79.5830029
  94.3922262  94.3719457  80.5101543  94.1156223  93.8003680  81.3960941
  95.7376113  94.8172523  80.3394059  96.5375819  94.3749876  80.9331643
  98.1066470  95.5832172  77.0048946  97.4079896  96.4916378  76.4733780
  98.5683568  94.5117126  76.3869237  99.2428808  93.9086731  76.8357666
  98.1507767  94.1903586  74.9682978  98.6750165  94.8722475  74.2987461
  98.5453276  92.7745764  74.6209791  98.0478276  92.1095264  75.3268837
  98.1508880  92.3666538  73.1456399  98.6484072  93.0310146  72.4390989
  98.4608454  91.3387958  72.9571326  97.0710290  92.4484615  73.0218920
 100.0600972  92.6251493  74.6946520 100.3997149  92.8551583  75.7045320
 100.3374061  91.6015097  74.4429353 100.5281804  93.3117510  73.9892606
  96.6261315  94.3849609  74.7470353  95.8939103  93.7996963  75.5381664
  96.1409728  95.0039100  73.6744212  96.8261902  95.2870897  72.9885745
  94.7219361  95.2399619  73.3793767  94.0989473  94.8856022  74.2006034
  94.4852862  96.7483843  73.1986206  95.4210658  97.2587644  73.4264975
  94.2538053  96.8703913  72.1404944  93.3823133  97.3801329  74.0089615
  92.5978786  96.7794697  74.7184677  93.3105730  98.7115257  73.9473539
  92.5949212  99.2001794  74.4661601  93.9722687  99.2242384  73.3822122
  94.2637660  94.6267753  72.0904433  93.0575985  94.5388405  71.8491604
  95.2577021  94.2863034  71.2418292  96.2221272  94.3992803  71.5197134
  94.9680381  94.0276810  69.8312165  94.3521228  93.1381677  69.6988778
  94.3715958  95.1723728  68.9810199  93.3917899  95.4544705  69.3663775
  95.3115855  96.3657487  69.0639797  96.2915359  96.0845346  68.6783415
  94.9101301  97.1870865  68.4703987  95.4075091  96.6818397  70.1027226
  93.9538909  94.9144494  67.5511447  93.1838534  94.1432698  67.5305018
  93.5594973  95.8327195  67.1160202  94.8167318  94.5811292  66.9745130
  96.2557664  93.3034713  69.2161840  97.3841544  93.8183964  69.4798634
  96.0815530  92.4078577  68.2655000  95.1518239  92.0785695  68.0480776
  97.2419743  91.8950325  67.4279759  98.1846321  92.3705148  67.6989222
  97.3421346  90.4314049  67.7240622  96.3086787  90.0860364  67.7521453
  97.8880687  89.8805710  66.9581391  97.9555903  90.0574237  69.0410869
  99.2062174  90.5813358  69.2976371  99.6014747  91.3030078  68.5827517
  99.9739480  90.2163280  70.4379340 100.9730789  90.6318719  70.5689348
  99.4591806  89.3377702  71.3799291  99.9982229  89.0492970  72.2823241
  98.1493729  88.8010135  71.1217473  97.7134048  88.1055812  71.8389683
  97.4321959  89.1607039  69.9645965  96.4465572  88.7336553  69.7795406
  96.8385823  92.1129595  65.9361131  95.6572980  91.9736131  65.6162320
  97.8059735  92.1698809  65.0296456  98.7403909  91.9593715  65.3500348
  97.6354948  92.6151152  63.6795847  96.7374035  92.1700437  63.2512826
  97.4929353  94.1338406  63.6412184  96.5875559  94.4073670  64.1830400
  98.3589253  94.5724780  64.1369589  97.3789795  94.9192209  62.0747529
  97.2758072  96.1580646  62.5475319  98.7658558  92.0796334  62.8733185
  99.8852925  92.5279698  63.0610254  98.5581351  91.0597858  62.0333918
  97.6822534  90.5598889  62.0884707  99.5222011  90.6489080  61.0315987
 100.4916160  90.5544473  61.5208952  99.1891241  89.3128623  60.3351487
  98.1772205  89.1846640  59.9508110  99.8924450  89.3412439  59.5029022
  99.4987305  88.1138128  61.1015932 100.4990483  87.1626381  60.7748749
 100.2906743  86.1755857  61.6243223 100.9437037  85.3074418  61.5350049
  99.2837957  86.4324959  62.4645138  98.9830264  85.8417867  63.2265507
  98.7148269  87.6356553  62.1292111  97.8329861  87.9892346  62.6634768
  99.6151968  91.7049613  59.8799250  98.5845304  92.0534125  59.2749147
 100.8850971  92.1155583  59.6902217 101.6756710  91.6725493  60.1361312
 101.1325220  93.2345637  58.8144604 100.9459487  92.8960530  57.7952941
 100.4166386  94.0142791  59.0745650 102.5239595  93.8007929  58.8952332
 103.1148747  93.6896875  59.9673698 103.0440778  94.3153191  57.7872370
 102.5429156  94.1660360  56.9231477 104.4122831  94.8431474  57.7160998
 104.8278264  94.9350271  58.7195842 105.3073402  93.8938005  56.8978026
 105.3344314  92.9046060  57.3548141 104.9418980  93.8106978  55.8742568
 106.6267772  94.4520253  56.8896155 107.2122221  93.8820919  56.3856015
 104.4852258  96.3438662  57.3410858 103.7190577  96.8043153  56.4782011
 105.4378581  97.1165299  57.9662479 105.8996733  96.6987923  58.7614343
 105.7838117  98.4866946  57.6071298 104.9297905  99.0100378  57.1771777
 106.2079322  99.2145542  58.9022874 107.0701570  98.6264938  59.2166958
 106.5101231 100.2514325  58.7550998 105.1421824  99.1486574  59.9633382
 104.9800682  98.0977266  60.2028466 105.5080817  99.9023137  61.2236988
 105.6699085 100.9534836  60.9850512 104.6980700  99.8151992  61.9478487
 106.4201748  99.4818372  61.6472388 103.6806756  99.5238644  59.6401127
 103.3012957  98.8677085  58.8567674 103.0694842  99.4109526  60.5355440
 103.6374352 100.5583385  59.2993890 106.8793649  98.6424395  56.5559820
 106.8826305  99.6725558  55.9163393 107.6521166  97.5829876  56.3789892
 107.4817232  96.8220337  57.0208728 108.7911467  97.4531765  55.4055881
 109.3437832  98.3924222  55.3830125 109.7967655  96.2804950  55.7882496
 109.2266520  95.3625509  55.9312476 110.8510702  96.0655636  54.6680250
 111.4219294  96.9830038  54.5247619 111.5262750  95.2589884  54.9537441
 110.3459103  95.8036581  53.7383365 110.5770672  96.5288540  57.0772345
 109.8807458  96.6396817  57.9084719 111.2401661  95.6853676  57.2694066
 111.1680379  97.4390399  56.9751756 108.1465121  97.2864043  54.0474580
 107.1970743  96.4595397  53.9065573 108.6494241  97.9662124  52.9807151
 109.3435080  98.6729702  53.1777943 108.2891891  97.7057372  51.5549268
 107.2508428  97.9402041  51.3204883 109.2259292  98.7096817  50.7642034
 108.8748338  99.7104345  51.0158483 110.2288370  98.5653296  51.1659975
 109.2571568  98.5536945  49.2929805 109.8640538  99.3949083  48.9581130
 109.8096406  97.6258892  49.1445187 107.7140778  98.4979013  48.3130558
 107.4657688 100.3046814  48.4612491 108.3163766 100.8260705  48.0222517
 106.5544232 100.5909722  47.9362849 107.3783778 100.5748352  49.5136183
 108.5822774  96.2876585  51.0618203 109.5849305  95.6374945  51.4101643
 107.7160460  95.7459843  50.1834000 106.9326598  96.2978026  49.8641790
 107.7439061  94.3074675  49.8452977 108.1937300  93.7417381  50.6612069
 106.3319692  93.7958699  49.6207711 106.4042835  92.7115848  49.7055987
 105.7503916  94.1871144  50.4555138 105.6137876  94.1741318  48.2502846
 104.5470572  94.2662624  48.4544884 105.9852721  95.1096844  47.8321429
 105.8221222  93.0510469  47.2096963 106.7390745  92.2912438  47.2001721
 104.9344064  93.0186604  46.2735912 104.9931429  92.3162451  45.5502210
 104.1851059  93.6958802  46.2687563 108.7042602  93.9672490  48.7687819
 108.7082647  94.6711501  47.7726633 109.5591539  92.9935858  49.0489171
 109.4593491  92.4477868  49.8928612 110.7838200  92.8346639  48.2593312
 110.6575123  93.3162878  47.2897003 111.9686126  93.4643455  48.9617957
 111.6252370  94.3675388  49.4662105 112.3139305  92.7437471  49.7031415
 113.1460852  93.8304250  48.0481163 113.0977722  94.0491599  46.8392876
 114.2292026  93.9208234  48.6219194 115.0578508  94.1581474  48.0954982
 114.2852445  93.7573381  49.6170237 111.0135052  91.3840323  47.8038328
 110.8730699  90.4048016  48.5048850 111.4148506  91.1871212  46.5114649
 111.2960410  91.9805604  45.8979196 111.8604693  89.9197664  45.9289731
 111.2443226  89.1380070  46.3731741 111.7781796  89.7948055  44.3557149
 110.8735611  90.1806254  43.8857068 112.6410563  90.3559007  43.9969449
 111.9518392  88.2762486  43.9891507 111.7381064  87.6790272  44.8755737
 111.0046181  87.8630279  42.8533797 111.2180720  88.4595380  41.9664119
 111.1500268  86.8073461  42.6242661 109.9724253  88.0284639  43.1621018
 113.3381231  88.0210355  43.3571774 114.1179719  88.3033906  44.0644332
 113.4368253  86.9637289  43.1112872 113.4391363  88.6156509  42.4492524
 113.2981016  89.4875276  46.3670872 113.5210331  88.2964492  46.7223444
 114.2215680  90.4184858  46.4779379 114.0030458  91.3762405  46.2433038
 115.5562287  90.1128994  46.9302295 115.9771756  89.3636243  46.2597896
 116.1498071  91.0253126  46.8730784 115.5998206  89.5829937  48.3537240
 114.7652322  89.9112137  49.1876682 116.5743826  88.7487371  48.6432563
 117.1266085  88.4855771  47.8395819 116.9150871  88.1517522  49.9553712
 116.0508499  87.6437728  50.3833316 118.0205025  87.1393039  49.7550850
 118.7365063  87.6528698  49.1134559 118.4486925  87.0149367  50.7497136
 117.6910040  85.7294737  49.1474721 118.5753087  85.0922220  49.1515151
 116.9291929  85.2970181  49.7961054 117.1396921  85.8370661  47.7053785
 117.8296026  86.4704994  46.8923479 116.0814048  85.2581452  47.3824923
 117.3693023  89.2175700  51.0195037 118.4290819  89.8465610  50.8432298
 116.6187651  89.4509163  52.0461377 115.6890004  89.0674001  51.9536588
 116.9238856  90.2585584  53.2344881 117.1738858  91.2542941  52.8682784
 115.7426002  90.3727813  54.1845549 114.8465875  90.3232283  53.5658417
 115.6639550  89.2825067  55.3039182 116.5594757  89.3317547  55.9233671
 114.7844124  89.4593822  55.9229651 115.5931104  88.2957288  54.8463692
 115.8758895  91.5896681  54.8706587 115.1430412  91.6943335  55.4818696
 118.1712518  89.6873754  53.9451904 118.6795913  88.6053911  53.6336780
 118.7579481  90.4230713  54.8928401 118.3848883  91.3512993  55.0318309
 119.8802300  90.0175679  55.6829036 120.1899679  89.0127214  55.3957709
 121.0506493  90.9656979  55.4723490 120.7524147  91.9809955  55.7337419
 121.8879558  90.6605566  56.0999689 121.4325657  90.9252261  54.1422415
 122.1714829  91.5221072  54.0031941 119.6345726  89.9317774  57.1820979
 120.3652583  89.1912581  57.9017217 118.5012678  90.4140229  57.6427035
 117.9939303  91.0826389  57.0808666 118.0752457  90.2081745  59.0384390
 118.9796228  90.3653969  59.6262165 117.0074456  91.1594708  59.5306901
 117.3972551  92.1715995  59.4223185 115.6365786  91.0348422  58.7453772
 115.2458956  90.0230434  58.8536802 114.9182283  91.7466144  59.1521356
 115.8013986  91.2490265  57.6894131 116.6078439  90.9445102  60.8249716
 115.9325514  91.5844137  61.0618343 117.7430532  88.7192751  59.3863452
 117.0424825  88.1303940  58.5664143 118.0093683  88.1554754  60.6225657
 118.7974150  88.7009345  61.7451639 118.3417769  89.6290879  62.0901644
 119.8155719  88.8991627  61.4102593 118.7353417  87.6025796  62.7830467
 117.8751663  87.7356053  63.4391728 119.6470320  87.5802427  63.3800586
 118.6022127  86.3194178  61.9307214 118.3001254  85.3816859  62.3970915
 119.5537393  86.1795056  61.4177679 117.5449282  86.7676143  60.9445517
 117.6982132  86.2275384  60.0102498 116.1176293  86.5028720  61.4618556
 115.7562507  85.5849051  62.1927374 115.1988328  87.3656041  60.9559778
 115.4884089  87.9280145  60.1686154 113.7988138  87.5469202  61.4880684
 113.4065864  86.8074479  62.1862356 113.6689487  88.9349918  62.1213845
 112.6017060  89.1105731  62.2565311 114.3958177  89.1274740  63.4679171
 115.4632466  88.9525005  63.3334577 114.2370973  90.1450648  63.8248708
 114.0015621  88.4210865  64.1984511 113.9758207  89.9871100  61.1653417
 113.8857408  90.8427254  61.5912621 112.7900551  87.3903106  60.2755519
 113.1238413  87.7037854  59.1348813 111.5528567  86.8917008  60.5462573
 111.3587158  86.8085330  61.5339272 110.5199805  86.4352238  59.5862222
 110.5269980  87.0415708  58.6804666 110.8508062  84.9764195  59.2057493
 111.9076708  85.0298022  58.9444319 110.7374635  84.4492121  60.1530116
 110.0856177  84.2180936  58.1005641 109.6618286  84.8941903  57.3580030
 110.8293874  83.5780742  57.6259233 108.9664210  83.3380179  58.6546356
 108.6306633  83.3316338  59.8383467 108.2730678  82.6078925  57.7808254
 107.5247826  82.0126265  58.1061392 108.4992529  82.6533718  56.7975283
 109.1680232  86.5701828  60.2244122 108.9025636  86.2853927  61.3803689
 108.2013017  86.9933396  59.3479757 108.3707301  87.0432102  58.3535380
 106.8975753  87.3828881  59.8424889 106.1949951  87.3811468  59.0091359
 106.5773064  86.6556387  60.5885690 106.9126530  88.7775898  60.4794918
 107.9740498  89.3526466  60.8536264 105.7294409  89.3658766  60.6204766
 104.9922581  88.8186841  60.1994762 105.3749485  90.7008343  61.2175226
 106.0438138  90.9151516  62.0510611 105.5067864  91.8145988  60.1896620
 106.4894111  91.7301735  59.7255281 104.7348770  91.6688291  59.4340119
 105.3645926  93.1144532  60.7719416 105.4547495  93.7827509  60.0886774
 103.9476382  90.5395574  61.7873517 102.9653031  90.3893890  61.0409321
 103.8962909  90.5386963  63.1533710 104.6940091  90.1171245  63.6072678
 102.6426670  90.8394303  64.0056128 101.8982249  91.2608435  63.3301011
 101.9859231  89.6893083  64.8111765 102.6053485  89.4785818  65.6829596
 100.5808892  90.0629084  65.2654227  99.9607052  90.2733410  64.3941070
 100.1481032  89.2353272  65.8274780 100.6269652  90.9477940  65.9002109
 101.9148139  88.4125841  63.9992628 102.9214980  88.1043747  63.7169577
 101.4488475  87.6278649  64.5952416 101.3228534  88.5854508  63.1004855
 102.8415944  92.1363760  64.8383018 103.5701919  92.1152476  65.7995974
 102.3072986  93.2872894  64.3461612 102.0909041  93.3182593  63.3601016
 102.1951116  94.5586291  65.1407696 103.1277583  94.7465301  65.6727118
 101.9257587  95.6930088  64.2526228 100.8903122  95.6186152  63.9203347
 102.0559196  96.6066682  64.8326095 102.8880970  95.7278860  62.9852765
 103.2404417  94.7088927  62.8252557 102.2306899  96.2458416  61.7067308
 101.8784804  97.2650230  61.8658422 102.9571890  96.2357271  60.8942054
 101.3868060  95.6067558  61.4468660 104.0467344  96.6532817  63.3411937
 104.5693737  96.2626792  64.2143358 104.7379062  96.7108963  62.5003231
 103.6622687  97.6486622  63.5636862 101.2164312  94.2939186  66.2286901
 100.1520426  93.8144909  65.9303983 101.4541586  94.6846288  67.4787494
 102.4086241  94.9922918  67.5989087 100.6063401  94.5978466  68.6531436
  99.6118194  94.2497746  68.3740847 101.1829634  93.6494755  69.6107430
 100.5306918  93.3342981  70.4251779 101.3421194  92.8138146  68.9292445
 102.5514259  93.9708365  70.2412155 102.6643826  94.6912923  71.4303389
 101.8069072  95.2253000  71.8398160 103.8947949  94.7243739  72.0992576
 103.9737451  95.3544173  72.9852107 105.0015741  93.9832739  71.6660330
 105.9208565  93.9045576  72.2463980 104.8915629  93.3162173  70.4118185
 105.7712848  92.8229873  69.9984014 103.6716386  93.2873259  69.7076515
 103.5989227  92.7440255  68.7655067 100.3015806  95.9629431  69.2677476
 101.2196151  96.7780924  69.4073873  98.9987200  96.2649283  69.5216867
  98.2853127  95.5549310  69.4377033  98.5954259  97.6027451  69.9173370
  99.4129172  98.3073705  69.7646608  97.7271806  97.9241728  69.3420686
  98.2470031  97.5815533  71.3264241  97.7579159  96.5822279  71.8071853
  98.5750839  98.7106921  71.9458381  98.9721982  99.5042607  71.4635016
  98.4970087  98.7545502  73.4034096  97.8002209  98.0128782  73.7939331
  99.8314231  98.5661213  74.0810833  99.6237311  98.3416112  75.1272953
 100.7123447  97.4478829  73.4796774 100.9208573  97.6719475  72.4335335
 101.6502946  97.3870975  74.0316324 100.1881073  96.4947510  73.5490700
 100.5987848  99.7232758  74.1318625 101.4307319  99.5364221  74.5729410
  97.8002935 100.0209986  73.9746864  97.6361407 101.0476333  73.2686439
  97.3814728  99.9397980  75.2765119  97.3735187  99.0713950  75.7921789
  96.7538061 101.1258935  75.8929962  95.9951696 101.6459525  75.3080957
  96.1099605 100.6216834  77.1957414  96.8704392 100.0339007  77.7098259
  95.5815366 101.7299135  78.1474075  94.8206339 102.3178652  77.6341427
  95.1472771 101.2703989  79.0353070  96.4053862 102.3802122  78.4414909
  94.9996639  99.6150399  76.9260852  95.4082979  98.7568355  76.3926009
  94.5712076  99.2838153  77.8720318  94.2235998 100.0828833  76.3203229
  97.5975064 102.3707460  76.0907363  97.1255434 103.4965589  75.9733817
  98.9327489 102.2672557  76.4043526  99.3753046 101.3646523  76.5020814
  99.7179384 103.4746419  76.7467051  99.0880997 104.2614205  77.1618941
 100.7601019 103.0355473  77.8401012 101.1588755 102.0910065  77.4700720
 101.5743853 103.7494718  77.9640146 100.1308353 102.7987551  79.1645056
  99.2923129 103.6228458  79.5458763 100.4666407 101.8458027  79.9992932
  99.9833291 101.7582373  80.8818135 101.2071649 101.2034453  79.7561848
 100.2973201 104.0898985  75.4958549 101.2730703 104.8589654  75.5541355
  99.9061357 103.7691603  74.2285958  99.1806315 103.0680459  74.1818884
 100.4164752 104.3215853  72.9771385  99.5944506 104.2725763  72.2630147
 100.6596071 105.3646819  73.1794641 101.6063038 103.6528344  72.3911743
 101.8853763 104.0150979  71.2605070 102.2247388 102.7316923  73.0973750
 102.0362359 102.6236055  74.0837234 103.2689410 101.9684802  72.5270951
 103.9120603 102.5985555  71.9126834 104.1282817 101.3463835  73.6745285
 104.6388079 102.1340586  74.2286315 103.4913918 100.7794483  74.3535394
 105.1589138 100.4158153  73.0501302 105.4132806 100.8280891  72.0736934
 106.0392318 100.4350823  73.6926027 104.6084442  98.7072827  72.8482052
 104.9026259  97.9247808  74.4080115 104.3336360  98.4359543  75.1845752
 104.5902970  96.8817584  74.3564802 105.9653984  97.9739840  74.6450660
 102.6642878 100.9617448  71.5359808 101.6067792 100.3961308  71.7536576
 103.4236467 100.7325343  70.4534534 104.3076368 101.2165115  70.3869188
 103.1078220  99.7375307  69.4483925 102.3349751  99.0349015  69.7600320
 102.7234676 100.3531955  68.1346172 103.5772928 100.9694639  67.8530214
 102.3505099  99.3920318  66.9374218 101.4964154  98.7757264  67.2181188
 102.0963998  99.9860240  66.0595254 103.2010437  98.7502936  66.7075014
 101.5893200 101.3961369  68.3016373 100.8690828 100.9203183  68.9671866
 102.0570212 102.2366036  68.8144440 100.8593719 101.9073621  67.0301270
 100.3909984 101.0674640  66.5170020 100.0950307 102.6302628  67.3152521
 101.5789378 102.3837477  66.3642580 104.4217683  99.0510894  69.2086188
 105.4028642  99.7036433  68.8165471 104.4461669  97.7606608  69.4476853
 103.6110123  97.3817246  69.8707969 105.5871159  96.8204537  69.1512920
 106.4298591  97.4590161  68.8864879 105.7983715  96.3125717  70.0923161
 105.3895879  95.7616493  68.0411867 104.4724432  95.8726752  67.2764169
 106.3367105  94.8657360  67.8850481 107.0581936  94.9135963  68.5902225
 106.4633217  93.8752842  66.8425205 105.5201015  93.7108301  66.3215696
 107.4971293  94.4406192  65.8306849 107.2087622  95.4374539  65.4971220
 108.3808294  94.5117280  66.4648124 107.8107407  93.5695604  64.6175549
 107.9992659  92.5406800  64.9240909 106.5960282  93.6111844  63.7018355
 106.4071426  94.6397561  63.3944900 106.7835565  92.9977972  62.8205352
 105.7260866  93.2258566  64.2336480 108.8640808  94.1475582  63.8327350
 109.7637025  94.2380835  64.4414923 109.0700608  93.5090925  62.9736453
 108.5596524  95.1351253  63.4861321 106.9089473  92.5225092  67.3103812
 107.8591427  92.4545112  68.1354357 106.2585044  91.4680434  66.8800245
 105.3765296  91.6567592  66.4254850 106.6633566  90.0641343  67.0627680
 107.5021521  90.0443613  67.7585627 105.4925395  89.2558254  67.6757451
 104.6227608  89.2293299  67.0193289 106.0844879  87.7798944  67.8349551
 106.9540801  87.8055150  68.4916544 105.3244118  87.1274234  68.2646834
 106.3792773  87.3986774  66.8572668 105.0381806  89.7312627  69.0734255
 104.7068023  90.7680336  69.0151460 104.2153672  89.1063432  69.4206333
 105.8712982  89.6553861  69.7721805 107.1328664  89.4575909  65.7088213
 106.3559348  89.6503630  64.7927278 108.2922946  88.8621981  65.5885688
 108.9495921  89.0975657  66.3184054 108.7456230  87.9795160  64.4972505
 107.8779703  87.8096403  63.8597394 109.8874104  88.6083309  63.6308544
 109.9747604  88.0086062  62.7248739 109.6409817  90.0686696  63.2529528
 109.5539791  90.6691339  64.1584763 110.4743257  90.4349615  62.6533969
 108.7186486  90.1448297  62.6771039 111.0428665  88.5740157  64.4460339
 111.7844616  88.9496867  63.9659211 109.2058636  86.6038950  65.0267185
 109.4717542  86.4198453  66.1871847 109.3041950  85.6190467  64.1034840
 108.6400963  85.6099001  63.3425710 110.2233174  84.4798717  64.2400974
 110.1117337  83.9549387  65.1888300 109.7994767  83.5093245  63.0752728
 108.7180545  83.3944335  63.1489286 110.0475850  84.0193571  62.1444618
 110.4008925  82.2549621  63.0909218 110.0821805  81.7379957  62.3474380
 111.7197645  84.8194277  64.2914370 112.0788123  85.8520133  63.7718231
 112.5887233  83.9288930  64.7804856 112.2224683  83.1266479  65.2727856
 114.0561499  84.1564013  64.7985222 114.3669991  84.8673957  64.0330427
 114.3935397  84.7729225  66.2364052 113.9055733  85.7436326  66.3242112
 113.9920372  84.0955173  66.9900749 115.9168934  84.9402272  66.4527010
 116.3599073  83.9447739  66.4225008 116.6003106  85.8396105  65.3995820
 116.1581128  86.8354341  65.4295041 117.6661145  85.9092181  65.6171079
 116.4597453  85.4098669  64.4077845 116.2245091  85.5768778  67.7916026
 115.8310740  84.9497915  68.5916470 117.3036573  85.6778494  67.9071242
 115.7605577  86.5619576  67.8412596 114.7943074  82.8968593  64.3784467
 114.4518894  81.8311025  64.8832916 115.8235799  83.0211813  63.4665162
 116.0491564  83.9257251  63.0779096 116.6285953  81.8703472  63.0574688
 116.0280161  81.2067094  62.4353846 117.8458212  82.3149672  62.2599663
 117.5270307  82.7421901  61.3092021 118.4031356  83.0622459  62.8248337
 118.6571389  81.2146364  62.0233447 119.4278164  81.4876136  61.5202150
 117.1423080  81.1104594  64.3540628 117.8474206  81.6174073  65.1614915
 116.8923995  79.8059565  64.2489731 116.1707387  79.4869557  63.6184625
 117.5195914  78.8185396  65.1537687 117.2726791  79.0500102  66.1898937
 117.0171070  77.4510274  64.8384263 115.9310386  77.4443562  64.9306775
 117.2958429  77.2001437  63.8149696 117.6291175  76.3982302  65.8175182
 118.6831569  76.3452259  65.5449518 117.5324881  76.8417700  66.8084947
 117.0269795  74.9710551  65.8300165 117.3421363  74.1028108  66.6537506
 116.1874749  74.6724451  64.9707406 119.1008126  78.9725361  65.1342844
 119.7555171  78.9134297  66.1696508 119.6398634  79.2361814  63.9276257
 119.0319391  79.1412136  63.1266835 121.1116528  79.4843951  63.6850970
 121.6867202  78.7501815  64.2493017 121.4996890  79.3740791  62.1900886
 121.3865256  80.3645885  61.7494249 122.5468429  79.0747392  62.1457675
 120.7183205  78.4511987  61.4741924 121.0069757  78.4296057  60.5588719
 121.5301409  80.8288403  64.3572903 122.7175113  81.0733145  64.3863586
 120.6948860  81.6802588  64.9204508 119.7130387  81.4441796  64.9389417
 121.1604288  82.9958652  65.6506801 122.2469971  83.0332163  65.7286117
 120.6715954  84.2366630  64.7987619 119.7112321  84.2377469  64.2832036
 120.6848471  85.0330951  65.5428186 121.7161277  84.5915857  63.7672885
 121.5202764  84.8020540  62.4197006 120.5113269  84.6177456  62.0507140
 122.7088115  85.2236623  61.7947358 122.8303679  85.3338821  60.7981541
 123.7006881  85.4092961  62.7567596 125.0849477  85.8280853  62.6834515
 125.3996142  86.2292468  61.7200445 125.9132041  85.7114434  63.7758740
 126.9812665  85.9252634  63.7355799 125.3368259  85.2901001  65.0147816
 125.9609002  85.2168099  65.9054327 123.9978382  84.9662263  65.1319935
 123.7393360  84.5064971  66.0858941 123.0778036  85.0206397  64.0008364
 120.4870217  83.1411132  67.0119343 121.0918851  83.7632325  67.8803355
 119.3778438  82.4451335  67.2929284 119.0162975  81.8808264  66.5373219
 118.6544780  82.4503368  68.5594321 118.3192765  83.4615294  68.7901458
 117.4143553  81.5241931  68.4768400 116.9246972  81.9375541  67.5950991
 117.7110515  80.4944060  68.2778179 116.4302058  81.5561159  69.6778611
 115.3648756  82.4970717  69.6630403 115.1629857  83.0641002  68.7542946
 114.5821806  82.6972859  70.7967403 113.7561614  83.4074657  70.8346727
 114.8281402  81.8176566  71.9118233 114.1004820  81.9738998  73.0667720
 113.4653560  82.6919584  73.0157172 115.8584737  80.8561534  71.9518043
 116.0368567  80.1937259  72.7988403 116.6861505  80.7788615  70.8064965
 117.5411933  80.1029147  70.7966003 119.5031828  81.9897135  69.7475501
 119.6731568  82.7199695  70.7103949 120.1240499  80.8071805  69.6757052
 119.8008959  80.1743725  68.9579135 120.9817141  80.2522990  70.7844435
 120.4736067  80.4198480  71.7341031 121.2604262  78.7182159  70.6295416
 121.8532830  78.5005003  69.7411611 121.8485658  78.4994650  71.5207991
 120.0199915  77.8128534  70.6257279 119.3126051  77.7538823  71.6186493
 119.7235050  77.2362923  69.4648919 118.9193216  76.6290222  69.3969811
 120.3038337  77.4082460  68.6563430 122.1738077  81.1783658  71.1320398
 122.3994505  81.4915310  72.2694504 122.8327461  81.7612451  70.1555497
 122.7218113  81.3796198  69.2270267 123.8587059  82.8081471  70.3663709
 124.5403944  82.5265896  71.1689450 124.6657575  82.9647359  69.0693876
 125.0018945  81.9850878  68.7296806 123.9776950  83.3864084  68.3366787
 125.8739748  83.8920752  69.2272567 126.2187559  83.7803753  70.2552402
 127.0254896  83.6224909  68.2755945 126.6815692  83.7344616  67.2473532
 127.8303959  84.3318010  68.4682230 127.3925252  82.6073584  68.4268934
 125.6547233  85.3177660  68.9821517 124.9040752  85.6951177  69.6765813
 126.5890146  85.8599228  69.1279834 125.3075092  85.4618786  67.9590325
 123.1735485  84.1064403  70.9511138 123.8672079  84.7019121  71.7859712
 122.0279405  84.5080199  70.4048894 121.6337966  84.0729529  69.5830216
 121.4178718  85.8090416  70.8928891 122.1921188  86.5444851  71.1114377
 120.5185927  86.3604434  69.7838376 119.8979729  85.5499235  69.4017540
 119.8806580  87.1449187  70.1909469 121.3861829  86.9454818  68.6204845
 122.2037697  86.2611811  68.3938010 120.4960682  87.1251800  67.3582225
 119.6784691  87.8097604  67.5840103 121.0963104  87.5326739  66.5447369
 120.0885815  86.1592495  67.0598380 121.9871818  88.3028481  69.0113117
 122.6190849  88.1812273  69.8910880 122.5854419  88.6872884  68.1852417
 121.1843787  89.0052285  69.2355168 120.7604714  85.7054421  72.3172994
 120.8324830  86.6355921  73.0410737 120.2496804  84.5083989  72.6932864
 120.0638828  83.8225566  71.9755128 119.9152816  84.1519186  74.1377268
 119.0625113  84.7363370  74.4831789 119.5498029  82.6264331  74.2317936
 118.7008031  82.3653344  73.6000295 120.4592430  82.1944934  73.8141252
 119.3208549  82.0662359  75.6652080 120.1305754  82.4086577  76.3095688
 117.9958883  82.5407264  76.2246650 117.1855933  82.1982725  75.5810454
 117.8584824  82.1360820  77.2274029 117.9886330  83.6298098  76.2687688
 119.1048763  80.5175195  75.6041359 119.9855697  80.0441666  75.1700671
 118.9452336  80.1324163  76.6112660 118.2331761  80.2957106  74.9884749
 121.0861023  84.4507476  75.0850574 120.7851405  84.9407940  76.1684546
 122.3020347  84.0306093  74.7692771 122.3401008  83.4565492  73.9391534
 123.5711397  84.2552862  75.5375947 123.4490966  83.9479567  76.5762252
 124.7029528  83.4090397  74.9003026 124.3974944  82.3682235  75.0075218
 124.7735231  83.6592425  73.8417572 126.0479193  83.6080703  75.5545488
 127.0233957  83.6346411  74.7794528 126.2038945  83.7087594  76.7894959
 123.8925189  85.7530216  75.5576952 124.3170498  86.3430010  76.5676916
 123.7975046  86.4965693  74.3530450 123.6721563  85.9844152  73.4916012
 123.9820431  87.9980936  74.2754865 124.9567168  88.2947246  74.6629403
 123.8974494  88.4028106  72.8069515 124.6561516  87.8029645  72.3043037
 122.9075840  88.0823574  72.4820265 124.0957230  89.8669924  72.4559211
 123.8412349  89.9550958  71.3997135 123.3662727  90.4155065  73.0518544
 125.7312329  90.5671791  72.7309773 126.3396084  90.5102374  71.0855667
 125.6975012  91.1086969  70.4393132 127.3538543  90.9085864  71.0586607
 126.3458145  89.4780144  70.7354547 122.9580010  88.7781402  75.1857254
 123.3979663  89.7557738  75.7895814 121.6791854  88.3724454  75.3433432
 121.2453357  87.7529633  74.6739288 120.8351309  88.9157133  76.4635089
 120.6007367  89.9677897  76.3013555 119.4985569  88.1059041  76.4990751
 119.2392962  87.9193412  75.4569247 119.7390556  87.1617295  76.9877414
 118.3094366  88.7616700  77.2118261 118.4529661  88.7874979  78.2920265
 118.2760729  89.7804773  76.8257942 116.9813520  88.0860600  76.9145072
 116.0685019  88.7224209  76.4476899 116.7972755  86.7494335  77.0782487
 115.8991044  86.3371924  76.8698080 117.5594839  86.1744139  77.4076304
 121.6253965  88.8731000  77.8222066 121.6739565  89.8556886  78.5762169
 122.2126303  87.7279388  78.2280542 121.9681849  86.8458201  77.8011909
 123.0275331  87.7078072  79.4606069 122.4972793  88.1773379  80.2891424
 123.3008814  86.2362215  79.8221731 123.9372816  86.0686562  78.9532566
 123.8834623  86.0912490  80.7319437 122.1833059  85.2287284  79.8011558
 121.0992947  85.3945411  80.4077561 122.4221082  84.0213475  79.3781384
 121.6775616  83.3391084  79.3608195 123.3508599  83.7722503  79.0691534
 124.2236004  88.5964676  79.4786536 124.3761774  89.4528820  80.3680246
 124.9536375  88.5522868  78.3462738 124.6671458  87.9680393  77.5738253
 126.2226760  89.2488848  78.2481600 126.8873927  88.9890735  79.0720222
 126.8749023  88.8022598  76.9319863 126.0688580  88.8616396  76.2006412
 127.6124345  89.5770996  76.7227744 127.5566011  87.3960512  76.8435662
 128.3519870  87.3126029  77.5841730 126.8226267  86.6073690  77.0089873
 128.1432972  87.2556227  75.4557794 127.3808394  87.4916390  74.7134497
 128.9824644  87.9423631  75.3449388 128.6204648  85.8888862  75.2210618
 127.8913656  85.3309817  74.8000436 129.8384039  85.3258541  75.4088601
 130.8229765  85.9961397  75.8138414 130.7139803  86.9814209  76.0073380
 131.7176373  85.5457308  75.9435081 129.8667720  84.0564562  75.2188777
 129.0226618  83.5697183  74.9530504 130.7330630  83.5506051  75.3361525
 125.9974763  90.7719014  78.3762483 126.8113892  91.5017684  78.7386112
 124.7994080  91.2628842  78.0600326 124.2392572  90.5784746  77.5722684
 124.2922547  92.5977495  78.1758213 125.1132019  93.3111621  78.1037981
 123.2945016  92.8902188  77.0634848 122.6193200  92.0345322  77.0580504
 122.7267896  93.7990706  77.2629630 123.9937226  93.0088709  75.6750390
 124.6176005  92.1289949  75.5178914 122.9509105  93.1058844  74.5474795
 122.3269115  93.9858385  74.7036999 123.4599679  93.1879383  73.5871522
 122.3261857  92.2126876  74.5518103 124.9779869  94.1730756  75.5505312
 125.7691045  94.0615784  76.2920166 125.4145145  94.1752478  74.5517619
 124.4527343  95.1132028  75.7189641 123.7772595  92.8296297  79.5826221
 124.2351082  93.7075738  80.2588741 122.9443537  92.0143629  80.1511964
 122.5669104  91.3193875  79.5229885 122.4014705  92.0843176  81.5324358
 121.8659754  93.0205895  81.6897221 121.4227771  90.9202292  81.7328314
 120.6405350  91.0752672  80.9897568 121.9153598  89.9657370  81.5473403
 120.7830242  90.8766315  83.1087716 121.2975388  91.2467062  84.1587785
 119.6225194  90.3423364  83.1769662 119.1476828  90.2852936  84.0665594
 119.1867665  89.9801460  82.3408810 123.4558224  92.1611008  82.5930213
 123.4091439  93.0453915  83.4535967 124.5201343  91.4018540  82.3463181
 124.4443431  90.8235790  81.5217254 125.7175110  91.3036319  83.1418621
 125.4744450  91.0177393  84.1652308 126.6535132  90.2053159  82.5229282
 126.5283627  90.1787270  81.4404636 127.6935473  90.4266592  82.7625866
 126.2849702  88.8907890  83.0942330 126.4179360  88.9373853  84.1750890
 125.2365344  88.6994782  82.8655749 127.1183767  87.7973359  82.5410143
 126.5463043  86.8726924  82.4644214 127.5091908  88.0645666  81.5592040
 128.2435439  87.6045119  83.4839770 128.9549560  88.4250134  83.3903249
 127.8709169  87.5624308  84.5074405 128.9145224  86.3311992  83.1518978
 129.2602586  86.3701465  82.2037157 129.6864849  86.1821182  83.7858921
 128.2555952  85.5707244  83.2390306 126.4858280  92.6134844  83.2466542
 127.2438840  92.7559611  84.2105175 126.3530413  93.5545599  82.2609516
 125.7086424  93.2669977  81.5383470 127.1818619  94.7794481  82.0266222
 127.7876424  95.0695143  82.8851038 128.1007849  94.5742674  80.8296270
 127.5246160  94.0790197  80.0480527 128.6727019  95.8898487  80.2869028
 129.2494256  96.3854805  81.0678253 129.3198345  95.6812568  79.4349584
 127.8558702  96.5390939  79.9716756 129.2328693  93.5983563  81.1499278
 128.8123358  92.6325078  81.4299104 129.8678065  93.4769507  80.2723089
 129.8268713  93.9887242  81.9762905 126.3954146  96.1021986  82.0176385
 126.8840495  97.0251145  82.6886230 125.2698020  96.1901556  81.2900028
 124.8704159  95.3523081  80.8917545 124.6390127  97.4987347  80.9605261
 125.2939846  98.3326350  80.7080954 123.5571031  97.3057980  79.8072911
 122.9419700  96.4401395  80.0529474 122.6455910  98.5666383  79.6577303
 123.2600059  99.4326723  79.4115999 121.9199138  98.3986655  78.8619425
 122.1202787  98.7491159  80.5951993 124.1870177  96.8050583  78.5447439
 124.7103584  95.8829695  78.7976621 123.3741394  96.5829480  77.8533719
 125.1762965  97.7937319  77.8777440 125.9897549  98.0159709  78.5683923
 125.5824863  97.3457381  76.9708754 124.6535359  98.7159509  77.6241041
 124.0503877  98.1196058  82.2349725 123.4674610  97.3957298  82.9924281
 124.2162944  99.4033326  82.4933725 124.8573543  99.8718017  81.8691303
 123.6189693 100.1686686  83.5614570 123.8208071  99.6932005  84.5212959
 124.2323011 101.6405431  83.5829094 124.2627350 102.0536768  82.5746963
 123.6364275 102.2906284  84.2235528 125.6465531 101.5444363  84.1339158
 125.6322911 100.8920408  85.0070008 126.2863208 101.1092159  83.3662032
 126.1855167 102.9042001  84.5287266 125.4281042 103.4761441  85.0647354
 127.0712380 102.7986015  85.1551817 126.5621891 103.6436694  83.2251776
 127.2345143 103.0028486  82.6547146 125.6485936 103.8103089  82.6544994
 127.2274832 104.9504337  83.4897093 128.0742898 104.7962046  84.0181330
 127.4545974 105.3962741  82.6123579 126.6044955 105.5445399  84.0179358
 122.0798897 100.2534600  83.4129492 121.5251988 100.3329014  82.2856111
 121.3166577 100.3244085  84.5206189 121.6595829  99.9514353  85.3943423
 119.9282885 100.7774477  84.4578373 119.7793083 101.4029505  83.5776950
 118.9745020  99.5578709  84.3663242 119.3309790  98.8841755  83.5871209
 118.9703607  99.0359297  85.3232256 117.6882758  99.9754990  84.0626487
 117.1083681  99.2123356  84.0089024 119.5599009 101.7379232  85.5699463
 119.9179864 101.4641019  86.6911420 118.8184109 102.7810552  85.1588963
 118.6615594 102.9214383  84.1710757 118.2360872 103.7451368  86.0997443
 119.0176128 104.2444139  86.6724915 117.4487134 104.8270544  85.2751506
 116.8419018 104.2817881  84.5522650 116.5449588 105.7635642  86.1017884
 117.1511717 106.3095519  86.8246330 116.0486629 106.4704995  85.4369325
 115.7952088 105.1736623  86.6290380 118.3900799 105.7649235  84.5144046
 118.9989743 105.1851206  83.8207345 117.8037428 106.4964626  83.9583840
 119.0386111 106.2817776  85.2217730 117.2888680 103.0802206  87.0960862
 116.5577054 102.2061930  86.6506504 117.4041609 103.4510767  88.4360990
 118.0677440 104.1959858  88.5937925 116.7049948 102.9060226  89.5736915
 116.8855931 103.5390207  90.4424819 115.6366002 102.8803777  89.3592742
 117.1899590 101.4714562  89.8867890 116.7892836 100.9191639  90.9079860
 118.1533404 100.9051358  89.1320569 118.2320419 101.3383466  88.2230828
 118.9103327  99.6668419  89.3833492 119.5387702  99.4386174  88.5224897
 119.7892979  99.8195407  90.5924990 119.1689753 100.1947638  91.4064442
 120.1690561  98.8312472  90.8516509 120.9402616 100.7542784  90.3699391
 121.6484334 100.4030864  89.6194341 120.6348314 101.7731732  90.1318889
 121.6055021 100.7300756  91.7504499 120.8364675 100.9834752  92.4801577
 121.9468823  99.7093517  91.9227337 122.7840190 101.6928781  91.8973994
 123.3822257 101.6120904  90.9898077 122.3717045 102.6991387  91.9718004
 123.6680542 101.4113934  93.1187155 124.0505586 100.4791731  93.0497552
 124.4216960 102.0830310  93.1507631 123.1140300 101.4866224  93.9598438
 118.0393951  98.4261277  89.3742331 118.4602683  97.4393313  90.0100432
 116.9385554  98.4496569  88.7400445 116.5683280  99.3650234  88.5275938
 116.0752540  97.2417838  88.4497716 115.8993928  96.6503452  89.3483106
 114.7134977  97.7186373  87.8685793 114.7923293  98.0777565  86.8424607
 113.8592899  96.4088746  87.8979653 113.7796189  96.0493823  88.9238885
 112.8628228  96.6155253  87.5075174 114.3392467  95.6475865  87.2830011
 114.0665168  98.8815810  88.6648856 113.9777593  98.5691064  89.7053578
 114.7298424  99.7441021  88.6004183 112.7256150  99.2485771  88.1424591
 112.0615565  98.3866282  88.2070374 112.3161094 100.0672152  88.7342664
 112.8136396  99.5616219  87.1020964 116.8125074  96.1794371  87.5936981
 117.7823265  96.4467458  86.8625026 116.5721466  94.8962796  87.9113687
 116.1687156  94.8059017  88.8328754 116.8958193  93.6607775  87.1626134
 117.9145701  93.6750750  86.7752612 116.7649312  92.4693117  88.1995630
 117.4179340  92.7193444  89.0357270 115.7281654  92.4700875  88.5360392
 117.1268818  91.0818248  87.6676864 117.2113425  90.5414656  88.6105434
 116.4552170  90.5428308  86.9995165 118.4719562  91.1917900  87.0364784
 118.6232591  90.6196292  85.9203787 119.5128291  91.6046941  87.6351710
 116.0111308  93.4313975  85.8417038 114.7830432  93.2268807  85.9256733
 116.6126348  93.5233467  84.6812193 117.5923645  93.7630902  84.6287592
 115.9041135  93.2073360  83.4314238 115.1073342  93.9252042  83.2367262
 116.9372586  93.2867022  82.2744955 117.1239284  94.3498993  82.1232818
 117.8814212  92.7758319  82.4633571 116.4119893  92.7520468  80.9697975
 116.5561878  91.4484116  80.5590775 115.8839119  91.3411986  79.4533473
 115.8452424  90.3716860  78.9567095 115.3385852  92.5185053  79.1247295
 114.7935421  92.6889565  78.2916783 115.6269974  93.4571511  80.0814858
 115.2356342  94.4700443  79.9867049 115.3357579  91.6710665  83.4623110
 114.2252590  91.3966547  82.9516532 116.0926746  90.7361303  84.0954189
 117.0450056  90.9222630  84.3756323 115.6133551  89.3533802  84.1409478
 115.2009197  89.1423924  83.1542967 116.6207072  88.2712961  84.4872899
 116.0690446  87.3443889  84.3304118 117.3851881  88.3733183  83.7170559
 117.2320878  88.2439907  85.7533872 117.8362928  87.4994963  85.8009703
 114.3413540  89.2504727  84.9589726 113.3367987  88.7414289  84.3704380
 114.2977770  89.8629063  86.1672636 115.1440172  90.2789707  86.5290193
 113.1086101  89.9318352  86.9691401 112.7944641  88.9295049  87.2602506
 113.3766253  90.7321152  88.2141738 114.2844433  90.4077884  88.7228759
 113.4743469  91.7799979  87.9304623 112.2730272  90.6626747  89.2221496
 111.4849331  91.8019355  89.4909910 111.7902965  92.7512804  89.0509942
 110.3421332  91.7391868  90.2948972 109.7040570  92.6172092  90.3950772
 110.0117074  90.5403871  90.9781988 109.1801190  90.4883671  91.6809466
 110.7803417  89.4158086  90.7308456 110.4949141  88.4629013  91.1764900
 111.9003999  89.4941707  89.9271355 112.5496809  88.6263829  89.8110389
 111.9523137  90.5720538  86.2135114 110.8193609  90.1994671  86.4437440
 112.1638419  91.5400394  85.3611472 113.1269341  91.8422683  85.3263547
 111.1761260  92.2992772  84.6132011 110.3094728  92.5486036  85.2254493
 111.8702074  93.6143448  84.1788542 111.6344283  94.2747292  85.0133600
 112.9521512  93.5403324  84.0692189 111.3447706  94.3064377  82.9071681
 112.1298980  94.4477818  81.7807513 113.0992223  93.9492754  81.7794867
 111.5032535  95.1992883  80.8954238 111.8756344  95.4236716  79.9837856
 110.2614706  95.6397945  81.4056312 109.2164001  96.4922959  80.9459617
 109.3824852  96.9759991  79.9833893 108.0802774  96.6636874  81.7096711
 107.2586521  97.2785947  81.3423554 107.9605453  96.0397125  82.9927582
 107.1008962  96.1633205  83.6514114 109.0003984  95.2291538  83.4242570
 108.8396149  94.7920971  84.4097674 110.1784628  95.0130920  82.6670644
 110.4791614  91.5239472  83.4570711 109.2617763  91.5977172  83.3695241
 111.2591818  90.7464073  82.6560344 112.2538024  90.9035563  82.7343516
 110.7847495  89.8375163  81.6279468 109.8665794  90.2238353  81.1854306
 111.8562866  89.6882237  80.5028645 112.7140697  89.2233375  80.9888565
 111.4211662  88.9892864  79.7885418 112.3120499  90.9587074  79.7642105
 113.1171275  91.4563960  80.3048184 112.6449694  90.7237003  78.7532514
 111.0451075  91.9212229  79.6952259 110.1384703  91.3304001  79.5647026
 110.9708474  92.5013234  80.6150457 111.1678285  92.8346370  78.5796978
 112.1169361  92.9305852  78.2479023 110.2358792  93.6608536  78.0943045
 109.0091483  93.7121699  78.5274037 108.7151584  93.1011978  79.2759911
 108.3572493  94.3627083  78.1127627 110.5048846  94.3420273  76.9676295
 111.3966697  94.2215443  76.5090412 109.8140645  94.9713894  76.5845243
 110.3316579  88.5050696  82.1635948 109.8066416  87.7425796  81.3641970
 110.5106989  88.0619522  83.3997118 111.1071339  88.6170686  83.9965454
 110.0656921  86.7475246  83.8869971 110.2618226  85.9953274  83.1229086
 110.8060042  86.3413511  85.1813707 111.8002448  86.7874609  85.1574772
 110.2496289  86.7402864  86.0295435 110.9227890  84.9328255  85.3128320
 111.3869966  84.7248366  86.1269890 108.5653370  86.6453768  83.9906383
 107.8900774  87.5376061  84.4638099 108.0132447  85.5216833  83.5987353
 108.6261731  84.7493349  83.3798835 106.5450201  85.3553906  83.3514433
 106.1320071  86.2060057  82.8092503 106.3762171  84.1026160  82.4953782
 107.0885546  84.1625909  81.6725310 106.6554139  83.2834018  83.1579772
 105.0856668  83.7435113  81.9065245 104.2654206  82.7190125  82.3257311
 104.5849529  82.0779671  83.1473514 102.9946841  82.4918006  81.6874132
 102.3402673  81.6988413  82.0494283 102.6044364  83.2753864  80.6193468
 101.6133984  83.1245748  80.1913286 103.4477279  84.2398350  80.0913427
 103.2710252  84.7666447  79.1536073 104.5931650  84.5235265  80.8503052
 105.1816277  85.4157008  80.6362102 105.8324478  85.3343019  84.7147470
 106.1883784  84.5106499  85.5386086 104.8523621  86.2111665  84.8901621
 104.7675425  86.9255030  84.1811993 104.0583901  86.3335247  86.0755948
 103.7934894  85.3482723  86.4592672 104.8927468  87.1043157  87.1878066
 105.8280832  86.6282193  87.4820466 105.0874376  88.1356621  86.8936633
 104.0630554  87.1613882  88.3784258 104.1532130  88.2168541  89.3219104
 103.3130944  87.9330219  90.3469661 103.2440123  88.5629294  91.2338388
 102.6801090  86.8268799  90.0230133 101.9429613  86.4190658  90.5801497
 103.1310950  86.3331745  88.8933198 102.7414395  85.3869228  88.5179833
 102.6806574  86.8826740  85.8050665 102.4732686  88.0950440  85.8173512
 101.8202735  85.9803220  85.2960258 102.2129238  85.0827337  85.0505457
 100.4291674  86.2329790  84.9750940 100.2510719  87.2014687  84.5077515
  99.8820325  85.1251589  84.0418459  98.9674051  85.5248195  83.6038639
 100.8322237  84.6515607  82.9111861 101.7469427  84.2513160  83.3484423
 100.3409114  83.8755507  82.3242280 101.0775439  85.4945081  82.2651535
  99.4223276  83.9356633  84.6726372  99.1071561  83.3211395  84.0058330
  99.5732588  86.4009534  86.2331700 100.0684936  86.3765727  87.4073510
  98.2656582  86.5317572  85.9663179  97.9674930  86.8517494  85.0559324
  97.2817958  86.4352095  87.0111524  97.5353242  87.1025480  87.8348525
  95.8913617  86.8477281  86.4468304  95.6568429  86.1862604  85.6128276
  95.1532475  86.7108612  87.2371183  95.8617635  88.3379225  85.9563626
  96.8917780  88.4045495  85.6060315  95.1828235  88.5304025  85.1256454
  95.6297232  89.3738938  87.0532471  96.4622489  89.4222379  87.9165553
  94.5103366  90.0184032  87.1823445  97.2331777  85.1071820  87.8294710
  96.6460086  85.1429141  88.9106711  97.7579283  83.9597973  87.3155965
  98.1972921  84.0325210  86.4090811  97.7210216  82.6421859  87.9691262
  97.5519525  82.6946785  89.0446537  96.5109805  81.9777243  87.3168898
  95.7334557  82.7399892  87.3669564  96.8151924  81.8373469  86.2796582
  95.9645906  80.6496766  87.8757990  95.0356984  80.4293402  87.3497647
  96.6985278  79.8742480  87.6563710  95.6982815  80.6897328  89.3926035
  95.1635574  79.7823571  89.6733856  96.6567353  80.7210840  89.9107567
  94.9242122  81.8194457  89.7942197  94.5118318  82.2817464  88.9965231
  94.7347662  82.3029058  90.9229803  95.0607874  81.7289671  92.0781676
  95.5026871  80.8207711  92.0803352  94.8648808  82.2041044  92.9476299
  94.1568157  83.3909520  90.9910290  93.8572158  83.8539589  90.1448820
  93.9862013  83.8131719  91.8925387  98.9982362  81.8128202  87.7609815
  99.1164872  80.7469526  88.3735212  99.9897426  82.3101581  87.0076667
  99.9989720  83.2599483  86.6642825 101.1450649  81.4296462  86.6797793
 101.2813394  80.6340854  87.4123169 100.7869735  80.7792129  85.2913676
  99.7176665  80.5717296  85.3317696 100.9787000  81.5522249  84.5471947
 101.5225876  79.5323206  84.9154454 102.5882798  79.7609091  84.9276239
 101.3044422  78.7789609  85.6723892 101.1241499  78.9866662  83.5091859
 100.1156936  78.6118742  83.6842455 101.0741468  79.8981754  82.9135768
 101.9102464  77.9654034  82.7822654 102.9511669  78.2826453  82.7194748
 101.8520408  77.0146967  83.3122352 101.3599794  77.8031711  81.4149081
 101.4142169  78.6839008  80.9235088 101.8953679  77.1063211  80.9170534
 100.3955708  77.5087971  81.4728655 102.4937510  82.1865111  86.5426247
 102.5514263  83.2239226  85.8339069 103.4827079  81.5180593  87.1259793
 103.3537251  80.5753189  87.4646579 104.7964270  82.1200169  87.2511966
 104.7079693  83.0733088  86.7301314 105.0903219  82.3978184  88.7422597
 104.8222524  81.4915816  89.2853748 106.5202262  82.7701465  89.0590425
 106.7888902  83.6766166  88.5166117 106.6220173  82.9446557  90.1301560
 107.1826289  81.9581093  88.7591779 104.4582959  83.5584283  89.2504690
 104.6851623  83.6666339  90.1769805 105.9149216  81.2020132  86.7541847
 105.9857561  80.0132873  87.1774639 106.6493293  81.6564723  85.7336759
 106.6235784  82.6405513  85.5077893 107.4355048  80.7760630  84.8873180
 107.7980079  79.9583548  85.5102497 106.6722511  80.1783446  83.6819655
 106.5274228  81.0476150  83.0404883 107.4162671  79.5182837  83.2360286
 105.3297007  79.4171357  83.8311817 104.6816193  80.0736722  84.4117427
 104.9295109  79.3114069  82.8228322 105.3921173  78.0894122  84.4778838
 104.3217613  77.6224054  84.8345302 106.4916276  77.4648774  84.6605811
 108.6892025  81.4541126  84.3388103 108.6922217  82.6444685  84.0334209
 109.7901298  80.7350866  84.1824820 109.9544416  79.4267853  84.7527567
 108.9959785  78.9087350  84.7200078 110.2730204  79.5352084  85.7895069
 111.0080741  78.7575045  83.8909877 110.5415324  78.2776859  83.0306319
 111.5512407  78.0120617  84.4718374 111.9298749  79.8901901  83.4633959
 112.3661998  79.7340612  82.4768142 112.7243881  80.0749238  84.1863910
 110.9460970  81.1132991  83.4243927 111.4047928  81.9640290  83.9283321
 110.6165169  81.5028879  81.9293651 110.0271664  80.6684875  81.2304811
 110.9683458  82.7434582  81.5652706 111.3301442  83.3769471  82.2637640
 110.8028579  83.2448228  80.1800745 109.7410251  83.1803788  79.9424669
 111.2320683  84.7130460  80.1085756 112.2952565  84.7927717  80.3352353
 111.0448716  85.0984541  79.1063190 110.6620215  85.2944701  80.8332079
 111.5874831  82.4545252  79.1132614 112.7119044  82.0538166  79.3614131
 111.0569385  82.1714059  77.8988563 110.1417880  82.5769156  77.7640940
 111.6040904  81.2677011  76.8225439 112.6699851  81.4496547  76.6852103
 111.4030306  79.8122014  77.1535779 111.8345514  79.6148047  78.1348651
 109.8909879  79.4439731  77.1685759 109.4588511  79.6406774  76.1874210
 109.7762053  78.3873444  77.4103607 109.3774015  80.0456346  77.9184646
 112.0571587  78.9241712  76.2358448 111.8931126  78.0153581  76.4980432
 110.9843974  81.6501242  75.4103360 110.0837055  82.4475215  75.4087128
 111.4433927  81.0540614  74.3025471 112.1680844  80.3581513  74.4056518
 110.9602505  81.3505353  72.9686693 111.6069659  80.7789075  72.3030117
 109.9519585  80.9376305  72.9377479 110.9177129  82.8020118  72.4947995
 110.4214759  82.9697941  71.3931717 111.4981781  83.7887227  73.1418805
 112.0907587  83.4635276  73.8923441 111.4669011  85.2654565  72.8452373
 111.3481592  85.3729414  71.7670691 110.3389779  86.0782262  73.5547178
 110.3472513  85.5616560  74.5145022 110.4768741  87.1472432  73.7168519
 108.9378450  85.9015430  72.9758105 108.4072641  86.6510944  71.9280732
 109.1236674  87.3244197  71.4574361 107.0876667  86.5992678  71.4655780
 106.7512383  87.1710802  70.6007385 106.1869906  85.7766421  72.1550201
 105.1484722  85.6871675  71.8363138 106.6432190  85.0590304  73.2762935
 105.9393541  84.4437840  73.8367810 107.9866966  85.1286937  73.6754438
 108.3244106  84.5748577  74.5514089 112.6742588  85.8919467  73.3690916
 113.1261461  85.5037126  74.4218409 113.0868250  86.9044514  72.5771570
 112.6789190  87.0705055  71.6682356 114.2807314  87.6518449  72.9447920
 114.4140680  87.4969075  74.0154530 115.5720370  87.1898217  72.1855012
 115.4651506  87.3321712  71.1101351 116.7293788  88.0763590  72.7110603
 116.8371840  87.9341912  73.7863589 117.6575518  87.7958675  72.2131445
 116.5085843  89.1234586  72.5038613 115.9596796  85.6978454  72.4532270
 116.2545338  85.6319794  73.5005204 115.0596347  85.1046087  72.2917063
 117.0812203  85.1649322  71.5770924 117.9817932  85.7574202  71.7384190
 117.2805435  84.1245506  71.8339498 116.7868946  85.2300518  70.5296041
 114.0275204  89.1259712  72.8551210 113.4536695  89.6092778  71.8683952
 114.4872562  89.9210889  73.8177055 115.1920188  89.5742677  74.4526260
 114.0269133  91.3327884  73.9738338 112.9665583  91.4426214  73.7464946
 114.2485209  91.6879739  75.4232524 113.9511207  90.9445681  76.1628471
 115.3356073  91.7650354  75.4031333 113.6455532  93.0511826  75.7966382
 112.9850334  93.7130247  74.9551143 113.6316070  93.3762391  76.9630433
 114.8868043  92.2750125  73.0708037 116.0440278  92.5784390  73.3854132
 114.2457636  92.7680274  71.9637314 113.3069687  92.4617125  71.7517537
 114.8726646  93.7237958  71.0757416 115.8042407  93.2639645  70.7458623
 114.2001859  93.8319329  70.2247550 115.1813213  95.1288974  71.6571006
 116.1100689  95.7804078  71.2334131 114.3890434  95.5012908  72.6875607
 113.5313159  95.0276489  72.9326448 114.7448863  96.6896540  73.4174859
 114.9624237  97.5161552  72.7409710 113.5432466  97.0777312  74.2977065
 113.3019185  96.2065043  74.9066594 113.8774427  97.8901268  74.9430176
 112.3167239  97.5134576  73.5357396 112.3480094  97.7497540  72.3218445
 111.2230657  97.6339673  74.1777740 116.0450266  96.5317759  74.2612256
 116.6582154  97.6022326  74.4319183 116.4949776  95.4225406  74.8203206
 115.8712478  94.6286968  74.7907822 117.8006776  95.2820800  75.5747311
 117.9976479  96.2208736  76.0923878 117.7969099  94.1245265  76.6241450
 116.9375647  94.3703881  77.2479857 117.6232326  93.1701131  76.1271226
 119.0519728  94.0234938  77.5000969 119.8986942  93.9411958  76.8186347
 119.2773993  95.1829501  78.4466300 118.4312449  95.2655998  79.1287521
 120.1895093  95.0134730  79.0188482 119.3740086  96.1059167  77.8748784
 119.0205252  92.7102812  78.2733966 118.9962804  91.8758216  77.5725480
 119.9109035  92.6341442  78.8975208 118.1318719  92.6804903  78.9038780
 118.9772465  95.1167398  74.6698392 119.9743537  95.7881136  74.8659601
 118.8423189  94.2723022  73.6650384 117.9577734  93.8069074  73.5198274
 119.9997627  93.8761071  72.8086050 120.9708449  93.7319369  73.2822225
 119.6646047  92.6250847  71.9038170 118.5867931  92.6551935  71.7440793
 120.3679907  92.5440168  70.5716522 121.4459041  92.5134017  70.7306056
 120.0526869  91.6415109  70.0480423 120.1143070  93.4184825  69.9724416
 119.7344884  91.3857231  72.8116827 120.7627661  91.2712931  73.1546864
 119.0825658  91.5533084  73.6690109 119.3064313  90.1424798  72.0949965
 119.9582251  89.9739708  71.2377512 119.3710268  89.2912678  72.7727611
 118.2780249  90.2559872  71.7520736 120.5648256  95.0183399  71.9479290
 121.7305419  94.9543703  71.6015022 119.7224384  96.0252426  71.7057376
 118.7372425  95.9967009  71.9263590 120.2452928  97.2060770  71.0308313
 120.7183250  96.9989910  70.0709068 118.9314522  98.0185190  70.7762006
 119.2507758  98.8367483  70.1307297 118.3048994  97.3312491  70.2077011
 118.1502459  98.5682530  71.9285734 117.1689560  98.7577712  71.4935403
 118.0450305  97.9017146  72.7845847 118.7819758  99.9180029  72.3948765
 119.5822922  99.8705591  73.3657590 118.3058074 100.9599975  71.8389951
 121.2974879  97.9646568  71.8402918 122.0539813  98.6403512  71.2128137
 121.4481174  97.7455872  73.1362367 120.7214250  97.2687031  73.6506288
 122.5821778  98.2817879  73.8785957 122.6325082  99.3606096  73.7312532
 122.4561483  98.0036778  75.3487332 123.2495500  98.5108860  75.8976894
 121.4872736  98.3432393  75.7149023 122.5664966  96.6395170  75.5360098
 122.4886920  96.4376060  76.4713056 124.0265965  97.8431553  73.4093295
 125.0516841  98.5620103  73.5492042 124.1122194  96.6630790  72.6654983
 123.3030804  96.0589539  72.6861443 125.3546356  96.1319297  72.1331005
 126.1010833  96.0627871  72.9243870 125.1217176  94.7354847  71.5581992
 124.7360413  94.0047267  72.2690760 124.4101684  94.8578159  70.7416009
 126.3934877  94.1248669  70.9458507 127.3279731  93.5398981  71.7984811
 127.1810823  93.5201276  72.8783571 128.4791774  92.9676616  71.2364989
 129.2476233  92.5327868  71.8756198 128.6402587  92.9573344  69.8205769
 129.4989867  92.4743366  69.3543161 127.6819451  93.5752931  69.0343986
 127.8933203  93.6534449  67.9679498 126.5014287  94.0809692  69.5434611
 125.7165971  94.4189050  68.8667494 126.0661777  97.1264160  71.3183896
 127.2969817  97.1134192  71.3104822 125.3351387  97.9170365  70.5616074
 124.3546556  97.8624414  70.7977672 125.7239314  98.7133814  69.4040354
 126.3660610  98.1229535  68.7504578 124.4964639  99.1501831  68.6151622
 123.9413462  99.8661009  69.2213017 124.8348922  99.6353441  67.6996377
 123.5584048  97.9304422  68.2492887 123.3534947  97.3125221  69.1235241
 122.2302049  98.5564099  67.7341639 122.4342575  99.1741427  66.8595968
 121.5347362  97.7621054  67.4630473 121.7899072  99.1720908  68.5184951
 124.1418197  97.0192478  67.1761239 125.0905590  96.6097202  67.5229384
 123.4470475  96.2040867  66.9738730 124.3057405  97.5912677  66.2628758
 126.6376713  99.8997424  69.7705066 127.0009805 100.6749992  68.8360194
 126.8019923 100.1749539  71.0866157 126.1491963  99.7156607  71.7054909
 127.7329511 101.1676112  71.6620878 128.5361547 101.3586704  70.9504280
 127.0263073 102.5011446  71.9771245 126.4461455 102.7535689  71.0895471
 126.3502915 102.3156908  72.8118158 127.9545653 103.6593982  72.3232682
 129.1102612 103.6120613  71.8973936 127.4870629 104.5993478  73.0396552
 128.5650293 100.7115580  72.9141172 128.1859849 101.0353227  74.0102612
 129.6803917  99.9741685  72.7679581 129.8698661  99.7284982  71.8067896
 130.6021706  99.5631394  73.7595904 130.6260964 100.2837903  74.5770187
 130.2722161  98.1665897  74.3167107 130.3264291  97.4768375  73.4744499
 131.2128750  97.6627222  75.4659393 131.1588402  98.3517666  76.3087908
 130.8954486  96.6707359  75.7873494 132.2390593  97.6149604  75.1015716
 128.7777299  98.0300262  74.8786248 128.7372781  98.6260159  75.7903598
 128.1255074  98.4733149  74.1261620 128.2957065  96.5544177  75.1912176
 128.9472158  96.1106079  75.9439913 127.2721870  96.5775619  75.5653452
 128.3354474  95.9579060  74.2797933 131.9309846  99.4760831  73.1099671
 132.0530779  98.8768728  72.0503043 132.9371769 100.0649937  73.7047950
 132.6920144 100.5787772  74.5390739 134.3637900 100.0688870  73.2647654
 134.5113796 100.7357111  72.4152584 135.2019967 100.5666355  74.4212705
 135.2715877  99.7504285  75.1403412 136.1934864 100.7873608  74.0258867
 134.6808578 101.7223205  75.0654680 135.2631326 101.9776845  75.7847351
 134.8849854  98.7158015  72.8266045 134.7080562  97.7046027  73.5082599
 135.6650115  98.6402192  71.7101321 135.8416198  99.4706285  71.1630223
 136.0816676  97.3951528  71.1906116 135.2241551  96.7294384  71.0926536
 136.7328038  97.5827724  69.7799995 137.4920405  98.3605009  69.8624454
 137.2065323  96.6412885  69.5019896 135.6966225  97.9833317  68.6902425
 135.1799709  98.8820632  69.0270712 136.2386518  98.1999029  67.7696974
 134.6468318  96.8447712  68.4240424 135.1633477  95.9674213  68.0347257
 134.1529811  96.5888230  69.3614332 133.6325583  97.2572364  67.4584236
 132.8761121  97.8498240  67.7694356 133.5996082  96.7897013  66.2260899
 134.4110727  95.8658558  65.7078110 135.1363990  95.4571637  66.2796260
 134.2962319  95.5795183  64.7460823 132.8152922  97.3019240  65.3730102
 132.2154395  98.0694299  65.6398652 132.7936980  96.9402724  64.4302268
 136.9475772  96.5224210  72.0913856 136.5810646  95.3721640  72.3175566
 137.9295826  97.1298105  72.8210783 138.5202071  98.4419627  72.6405230
 137.9808932  99.1622020  73.2557434 138.4383009  98.7274005  71.5917544
 140.0279933  98.2550285  73.1009548 140.5025095  99.1593115  73.4820135
 140.6750519  97.7921303  72.3558764 139.7077113  97.2766685  74.2275142
 139.2980497  97.8046433  75.0886292 140.6153549  96.7502777  74.5228031
 138.7055906  96.3072858  73.7044184 139.0912838  95.5006176  73.0810201
 138.0107391  95.7231154  74.9076409 138.4760718  94.6627616  75.3575434
 136.8971039  96.3274265  75.4216046 136.8563729  97.3030267  75.1634482
 135.8315455  95.7854673  76.3566973 136.3214699  95.1448663  77.0899801
 135.0461729  96.8645327  77.0987619 134.6222986  97.5489745  76.3639360
 134.2406417  96.3840107  77.6540259 135.9651328  97.6684008  78.0965262
 136.2441520  97.0666658  78.9614910 136.8655952  98.0383898  77.6062428
 135.1233346  98.8346978  78.5467675 134.9101335  99.4717859  77.6884185
 134.1877365  98.4590753  78.9610901 135.8745875  99.6583304  79.6285898
 135.8996890  99.0791491  80.5516388 136.8933235  99.8370630  79.2845974
 135.1859724 100.9885104  79.8842486 134.2421126 100.8231091  80.2034206
 135.6951294 101.5009968  80.5900934 135.1629882 101.5255257  79.0291548
 134.8381500  94.8273149  75.6095217 134.7384060  93.6997291  76.0387063
 134.1482137  95.2160636  74.4564409 134.2696912  96.1865810  74.2045710
 133.2582502  94.3868998  73.6289861 132.3419722  94.0964575  74.1429677
 132.8873608  95.3255063  72.4427467 132.3248307  96.1637532  72.8538442
 133.8197342  95.6906285  72.0120894 132.0588306  94.6401809  71.3565286
 132.6146720  93.7332834  71.1184567 131.1245896  94.3738746  71.8508733
 131.6903334  95.5266399  69.8315091 130.2577493  96.4885332  70.4500509
 130.5734341  97.1161927  71.2834089 129.8686630  97.1173806  69.6492616
 129.4780764  95.8048105  70.7858110 133.8606951  93.0539056  73.1298672
 133.0955556  92.0892058  73.0977765 135.1804195  92.9561181  72.8110599
 135.7351820  93.7995068  72.7789133 135.7768698  91.7215159  72.3345923
 135.1017964  91.2577546  71.6153562 137.1518856  91.9579958  71.6451730
 137.3592830  91.0542047  71.0722444 137.0048013  92.7947166  70.9622641
 138.3798347  92.2688844  72.6073326 138.1147589  93.0381869  73.3325975
 138.6062562  91.3397563  73.1303589 139.6298862  92.7207798  71.8502225
 139.6022777  92.8526655  70.6305061 140.6553438  92.9903619  72.6028734
 141.5209078  93.2957038  72.1813680 140.5814929  92.8931552  73.6054691
 135.8032495  90.6778653  73.4513135 135.8481452  89.4772056  73.2135096
 136.0219370  91.1604219  74.6909941 136.3014860  92.1218117  74.8239652
 136.0014782  90.2680561  75.8676239 136.3497028  89.2736814  75.5882358
 136.9250443  90.8217155  76.9641980 137.9082399  90.9462771  76.5104250
 136.5278903  91.7977177  77.2431039 137.0451495  89.9599415  78.1919347
 137.2672966  88.9279019  77.9205571 137.9491582  90.4387775  78.5682104
 135.9720057  89.9806260  79.2735041 136.1466645  89.3688464  80.3347845
 135.0024178  90.7996987  79.1431155 134.5684822  90.0106636  76.3578072
 134.2212887  88.9612541  76.8685649 133.5860105  90.8559623  76.0770218
 133.8751890  91.7676745  75.7525901 132.1279880  90.6028862  76.2685129
 131.9839352  90.3089765  77.3082075 131.1471791  91.7831573  75.9405493
 131.4651293  92.2109977  74.9897815 129.6348591  91.3525347  75.8426807
 129.3160342  90.9249954  76.7932920 129.0223546  92.2245310  75.6134181
 129.5183938  90.6097228  75.0535242 131.2428829  92.8357481  76.9708785
 132.2619462  93.2211466  77.0037440 130.5560545  93.6464480  76.7277079
 130.9814252  92.4180549  77.9431301 131.7111225  89.3780322  75.4313792
 131.0557395  88.5403970  76.0326683 132.0747080  89.3186102  74.1676108
 132.4660209  90.1505845  73.7495291 131.7958337  88.1737280  73.3025144
 131.1573535  87.3952373  73.7201199 131.1379180  88.7063585  71.9796023
 130.8083853  87.8433875  71.4009932 129.9336207  89.6417077  72.2413058
 130.2624879  90.5052034  72.8195121 129.5205924  89.9778619  71.2902492
 129.1681244  89.1019652  72.7987958 132.1492172  89.3834375  71.0056172
 132.9161753  88.6637638  70.7193531 131.6227077  89.7261606  70.1148713
 132.6169425  90.2345177  71.5005882 132.9929214  87.2064205  73.0255895
 133.1654916  86.6644198  71.8776140 133.7306931  86.9184657  74.1231513
 133.5899379  87.4308733  74.9820609 134.8550297  85.9798268  74.0498422
 135.4492732  86.3327475  73.2069776 135.7227289  86.0677311  75.3429489
 135.1442859  85.7090891  76.1943476 136.6146281  85.4523083  75.2251742
 136.0165169  87.1033139  75.5142852 134.4371272  84.5036320  73.7163342
 133.3279152  84.1055110  74.0770978 135.3922154  83.7348835  73.1962743
 136.2267383  84.0931300  72.7543125 135.1173293  82.3370542  73.0917513
 135.8288849  81.8653902  72.4140191 135.2412309  81.6720664  74.4768118
 136.1757605  82.0801533  74.8618037 134.4296448  81.9142387  75.1629464
 135.3667782  80.1998989  74.3936876 135.7746912  79.6545602  73.3794008
 134.8974363  79.4504476  75.3880090 134.9786256  78.4448562  75.3401140
 134.4621605  79.8906281  76.1860547 133.7640383  81.9521935  72.3514307
 132.9589510  81.3477858  72.9986276 133.4964547  82.2850297  71.0911212
 134.2518079  82.6617745  70.5365004 132.1569571  82.2434628  70.5023298
 131.6137286  81.3754155  70.8758215 131.3469218  83.5530396  70.8875328
 131.5731558  83.8452642  71.9129703 131.6826628  84.3339834  70.2052536
 129.8183909  83.3547488  70.7327680 129.6499090  82.9609137  69.7304663
 129.1926473  82.4138917  71.7610942 129.3603295  82.8073299  72.7636848
 128.1212450  82.3344292  71.5770194 129.6493051  81.4277186  71.6772683
 129.1481509  84.7130429  70.9421132 129.5153658  85.4186875  70.1969163
 128.0683548  84.6057004  70.8390634 129.3822669  85.0843899  71.9398056
 132.1991528  82.0222693  68.9878653 133.1048987  82.3185513  68.3000307
 131.1990807  81.3518672  68.3958097 130.4267318  81.1872423  69.0254725
 131.0853713  80.8742824  67.0221893 131.7450739  81.4030746  66.3342427
 131.5300402  79.4039329  67.0970750 130.8810852  78.9720662  67.8589463
 131.2629297  78.9990279  66.1209583 133.0152745  79.0498022  67.4178939
 133.3392542  79.7536850  68.1845014 133.1612991  78.0307203  67.7760151
 133.8199603  79.2438676  66.2487813 133.6302346  78.4816210  65.2772494
 134.8165750  80.1419424  66.2011391 135.3588736  80.2455608  65.3553987
 135.0195738  80.7099327  67.0112502 129.6210964  80.9746171  66.5190455
 128.7103513  80.9728416  67.2939373 129.4538257  80.9560311  65.2086497
 130.2508857  81.3298026  64.7135846 128.2168503  80.6981176  64.4485796
 127.6525745  79.9162685  64.9569141 127.3168080  81.9544677  64.3191752
 126.3401515  81.6030613  63.9863766 127.2075775  82.4906636  65.2618643
 127.9171929  82.9082538  63.2471366 128.8778157  83.8790491  63.5978464
 129.1945296  83.9261090  64.6397568 129.4388806  84.7912081  62.6316336
 130.2302993  85.4768540  62.9343676 128.9460235  84.8222448  61.3102349
 129.3277542  85.7712573  60.4676751 129.9460831  86.3931193  60.8582601
 128.0618132  83.7823348  60.9231208 127.8191289  83.6492218  59.8688505
 127.4810538  82.8983681  61.9196209 126.6865739  82.2071923  61.6382353
 128.5632903  79.9462631  63.1558089 129.7428679  79.8627419  62.8068133
 127.5748845  79.2953019  62.4962556 126.8119231  79.1940712  63.1502752
 127.5617003  78.4699256  61.2722306 128.1642597  77.5668694  61.3697538
 126.0856303  78.0604172  61.0913131 125.7001885  77.6640596  62.0306929
 125.6307650  79.0309559  60.8931915 125.7473554  77.1026246  59.9610111
 124.5766252  76.8246129  59.6261123 126.7245705  76.6776047  59.2849543
 128.4873667  78.9388272  60.0682647 128.4741963  80.0986195  59.6609450
 129.2165775  77.9954549  59.4443493 129.3577664  77.1498187  59.9782636
 130.0184957  78.1974885  58.2479265 129.6500161  79.0767412  57.7194979
 131.4734820  78.4030415  58.5664181 131.4588735  79.1204493  59.3869129
 131.8842892  77.4569677  58.9189545 132.3626053  78.9566969  57.4065925
 133.4704201  78.4247650  57.1811602 131.9604045  79.9603699  56.7715073
 129.7255844  77.1952737  57.0881660 130.4074891  77.2396793  56.0285098
 128.7865154  76.2377714  57.2508641 128.4123540  76.0888107  58.1771002
 128.2723536  75.3878653  56.1336509 127.1867859  75.3627524  56.2285788
 128.5437929  75.8883863  55.2041894 128.7985703  73.9636184  56.0999203
 130.0284912  73.7940155  56.1740174 127.9002171  72.9834573  56.0214177
 126.9310090  73.2438321  56.1351720 128.2456880  71.5150452  55.9729421
 127.3375019  70.9126090  55.9921193 129.0223593  71.2045437  54.6554231
 129.8478875  71.9162831  54.6608507 129.4105324  70.1975121  54.8080964
 128.3661915  71.2668654  53.4339237 128.9808506  71.0500759  52.7290859
 128.9225767  71.0819753  57.2703261 129.6233406  70.0720797  57.3083121
 128.6344847  71.7698407  58.3540037 128.1063229  72.6295340  58.3084882
 129.0903776  71.2855923  59.6986164 128.2246129  71.3329810  60.3591503
 129.3933163  70.2462763  59.5715348 130.2439012  72.0666378  60.3326323
 130.6845725  71.8593504  61.4911619 130.7751214  72.9677105  59.4703829
 130.5507253  72.8418936  58.4936968 131.7119269  74.0087420  59.8299019
 132.4666609  73.6234204  60.5154695 132.4204700  74.5167517  58.5475967
 131.6796785  74.6172538  57.7543587 132.8644178  75.4904203  58.7549123
 133.5112985  73.5442582  58.1046444 134.4510356  73.9704661  58.4558449
 133.3141623  72.6131913  58.6360142 133.6380411  73.2043251  56.3435632
 132.6022509  71.7040083  56.2949621 131.5975751  71.9440479  56.6429656
 132.5522372  71.3293602  55.2725932 133.0370113  70.9406605  56.9402410
 131.1200715  75.1889431  60.6323212 129.9626767  75.5153498  60.5078302
 131.9545152  75.8108582  61.4712456 132.7780293  75.2971518  61.7505831
 131.6597106  77.1247435  62.1622454 130.7954334  77.6055089  61.7040001
 131.3502739  76.8704246  63.6505145 132.2392578  76.4212629  64.0933020
 131.1653066  77.8402046  64.1124817 130.0971430  75.9186646  63.8951219
 129.2729370  76.2819667  63.2812841 130.3706001  74.9126829  63.5768075
 129.6577077  75.8886203  65.3881098 130.5797635  75.8760482  65.9692759
 129.1318492  76.8273678  65.5622516 128.7371415  74.6775925  65.8323741
 128.0475476  75.0067317  66.6096953 128.1706809  74.3135329  64.9752381
 129.6026282  73.5716132  66.3666396 130.1272870  73.9086289  67.1611540
 129.0209257  72.7966416  66.6514928 130.2414060  73.2661894  65.6463770
 132.7337504  78.1905875  61.9172612 133.7986860  77.9046005  61.4255707
 132.4961869  79.4142566  62.3650811 131.6005424  79.4693378  62.8286394
 133.2598702  80.6747133  62.1528202 134.3243450  80.4403731  62.1440288
 132.8985076  81.3751244  60.8272782 133.6807493  82.1066288  60.6245505
 132.9031306  80.6134689  60.0475607 131.5207361  82.0847837  60.8476339
 130.7713214  81.3668190  61.1808082 131.5722215  82.9109471  61.5567921
 131.1270722  82.6317045  59.4400472 131.1901671  81.8473643  58.6857738
 130.1183261  83.0445211  59.4506961 132.0948045  83.7299884  59.0771843
 133.0668380  83.5895822  59.3128459 131.7638423  84.8009272  58.3698123
 130.5983201  84.9650712  57.7434770 129.8961681  84.2406725  57.7917388
 130.4229084  85.8130583  57.2236231 132.6438451  85.7621435  58.4405460
 133.4770383  85.6398447  58.9981590 132.4875422  86.6238015  57.9373427
 133.0960342  81.5900602  63.4458244 132.0724974  81.6229106  64.1099910
 134.1012088  82.3855732  63.7706830 134.9062214  82.3677413  63.1609814
 134.1939508  83.1234789  64.9997545 133.7119601  82.5442037  65.7872978
 135.6281188  83.4127505  65.4173561 135.6335424  83.5279122  66.5012415
 136.2276390  82.5451823  65.1416732 136.2252042  84.6824571  64.7604914
 136.1709237  84.3925457  63.7111555 135.6256563  85.5785256  64.9208126
 137.6773618  84.9685677  65.1345569 138.1200547  86.0831704  64.9142467
 138.4818742  84.0462369  65.5104610 133.3259924  84.3674464  64.9722732
 133.1285657  85.0093284  63.9580404 132.5710804  84.5905020  66.0559595
 132.7685533  84.0104650  66.8588672 131.4124557  85.4954267  66.1171577
 131.0362305  85.6892782  65.1126801 130.2980506  84.9653513  66.9481459
 130.6570749  84.7748861  67.9595432 129.4897823  85.6958866  66.9816242
 129.9296684  84.0363705  66.5129579 132.0035783  86.7998120  66.5570204
 131.8675210  87.2690776  67.7101358 132.8891341  87.3492256  65.7395605
 133.1791269  86.8758168  64.8958261 133.5883790  88.5169956  66.1279466
 133.9359934  88.4082247  67.1552890 134.7802615  88.8368270  65.2438386
 135.4580348  87.9864160  65.3181673 134.4422370  89.1071947  63.7304802
 133.7648250  89.9578197  63.6553148 135.3608184  89.3256865  63.1858990
 133.9666557  88.2255694  63.3007596 135.5466617  89.9793623  65.6486678
 136.2760989  90.1080886  65.0379704 132.6877956  89.7319013  66.3137820
 131.6441302  89.7591736  65.6785531 133.1398898  90.7595215  67.0623730
 133.9478508  90.5226817  67.6202306 132.5825022  92.0715076  67.1976313
 131.7058636  92.0576569  67.8452515 133.6632777  92.9071680  67.8615455
 134.5444582  92.9380056  67.2207101 133.2940229  93.9204524  68.0196777
 133.9280254  92.4635727  68.8213533 132.1237517  92.6488590  65.8752368
 130.9778318  93.1153742  65.9261994 132.9813840  92.6396421  64.8082710
 133.9470000  92.3809392  64.9523468 132.5891303  93.1685349  63.4902276
 132.4005546  94.2390853  63.5706032 133.6772510  92.9453094  62.4645582
 133.9563734  91.8920737  62.4942998 133.2060606  93.1688884  61.5074312
 134.9464980  93.8212109  62.6327980 136.0898827  93.3657439  62.3361415
 134.7909711  95.0272347  63.0405723 131.1812897  92.6346698  63.0454253
 130.2476284  93.4209606  62.8990482 131.0796676  91.3248923  62.8619243
 131.9234679  90.8611871  63.1670108 129.9617397  90.4896595  62.3531988
 129.7939354  90.7957797  61.3206140 130.1482224  89.0058188  62.3875889
 130.5752176  88.7958919  63.3682546 129.2078169  88.4656676  62.2781619
 131.1471514  88.5443876  61.2743242 131.5847715  89.2743065  60.3696087
 131.4239507  87.3664575  61.2864745 128.6728648  90.6544789  63.1667939
 127.5316141  90.7919991  62.7019984 128.8698341  90.7652494  64.4878216
 129.8226719  90.6465236  64.8010368 127.8027751  91.0195996  65.5237699
 126.9494434  90.3630862  65.3537276 128.3512693  90.7476791  66.8926082
 129.3120531  91.2215781  67.0936391 127.5917765  91.1753309  67.5471193
 128.4580031  89.2758267  67.1474011 129.0748978  88.7652425  66.4079110
 129.1440168  89.2136525  68.5140322 128.5274509  89.7236646  69.2541895
 129.2764904  88.1723260  68.8076149 130.1174020  89.7006229  68.4550278
 127.1754945  88.5112376  67.3640973 126.5423689  88.6051909  66.4818138
 127.4036507  87.4594354  67.5366026 126.6526056  88.9159288  68.2306487
 127.2557871  92.4705154  65.4923597 126.0050600  92.6514427  65.4132762
 128.1675720  93.4272262  65.3749270 129.1386732  93.2273050  65.5675235
 127.7816057  94.8394497  65.0680900 127.0949801  95.2545792  65.8058650
 128.9979989  95.8040073  64.8883174 129.8720974  95.1807376  64.6996720
 128.8402753  96.8238736  63.7480148 127.9665868  97.4478553  63.9362056
 129.7298879  97.4515213  63.6955894 128.7124063  96.2960885  62.8029266
 129.3467823  96.4909210  66.1886465 129.7070345  95.6896734  66.8338762
 130.1748912  97.1528964  65.9354200 128.2512165  97.2956127  66.9286680
 127.4229214  96.6341592  67.1826493 128.6672849  97.7228185  67.8410722
 127.8907764  98.0973814  66.2841917 126.8530435  94.8514709  63.8040451
 125.9247142  95.6856404  63.7327226 127.0795753  94.0201651  62.8255442
 127.8828503  93.4216541  62.9545140 126.4174373  94.0057275  61.5514960
 126.1857317  95.0212663  61.2304154 127.3578929  93.3521533  60.4955277
 128.3349500  93.8331307  60.5415648 127.4648340  92.2911118  60.7210376
 126.7685883  93.5198197  59.0790596 125.8578668  92.9303731  58.9730416
 126.5473012  94.5684144  58.8801039 127.8899923  92.9873071  58.0122844
 128.7082634  93.7039722  57.9421237 128.2802881  92.0211841  58.3322455
 127.2112882  92.8368749  56.6188376 128.0357526  92.5859315  55.9514648
 126.5621644  91.9690856  56.7357962 126.4484109  93.9404589  56.0534823
 127.0498271  94.7445410  55.9446237 126.0820486  93.6695419  55.1521041
 125.6841403  94.1728641  56.6715253 125.0937974  93.4277893  61.6730308
 124.1004446  94.1654154  61.4161247 124.9916732  92.1814366  62.2054083
 125.8450760  91.7101667  62.4694303 123.7275989  91.4140375  62.2389344
 123.2657036  91.6818492  61.2886561 123.9099791  89.8377015  62.2879464
 124.6297291  89.5779141  61.5116927 124.3761230  89.3144806  63.5847045
 123.6566059  89.5734935  64.3614338 124.4723655  88.2303127  63.5262427
 125.3445993  89.7521693  63.8267457 122.5763376  89.1466175  62.1601641
 122.1145173  89.4195900  61.2113174 122.7211562  88.0668701  62.1958385
 121.9276662  89.4529917  62.9808109 122.8453832  91.9676566  63.3465076
 121.6504046  92.1666525  63.1434296 123.4142448  92.5210787  64.4999028
 124.3802657  92.3072502  64.7028322 122.5928969  93.1310184  65.5660380
 121.6984447  92.5080783  65.5657156 123.1769218  93.1444424  66.9748019
 124.0734196  93.7623068  66.9234739 122.2559320  93.6706945  68.0849472
 121.3593642  93.0530074  68.1371939 122.7791195  93.6323535  69.0404080
 121.9745758  94.7008386  67.8664444 123.4432762  91.7079066  67.4164717
 124.1502373  91.2414520  66.7303754 123.8611546  91.7083152  68.4231878
 122.5089195  91.1466083  67.4117102 121.9613298  94.4586159  65.2180224
 120.9321298  94.8384844  65.7294921 122.5480677  95.1914099  64.2637727
 123.5440132  95.0804505  64.1377575 121.8729297  96.2486288  63.5262369
 121.3559945  96.9262977  64.2056794 122.9749234  97.0807010  62.7133282
 123.8263012  97.2304562  63.3772773 123.2811188  96.4723833  61.8622736
 122.4634075  98.4605098  62.2069753 123.1180491  98.7700391  61.3922749
 121.4530549  98.3143118  61.8249898 122.4471663  99.5964834  63.3408644
 123.6318781 100.0093773  63.6145072 121.4219784 100.0556439  63.9198077
 120.7176307  95.8469748  62.6678732 119.5938556  96.2889361  62.9228277
 120.9228576  94.9314985  61.7132560 121.8982033  94.7595652  61.5151675
 119.9153630  94.2373363  60.9026819 119.4832213  94.9271072  60.1777206
 120.5520380  93.0731327  60.1487218 121.0682323  92.4273821  60.8591082
 119.7708797  92.5052079  59.6433969 121.5442992  93.5917056  59.1230222
 122.2383603  94.3171964  59.5473371 122.0784826  92.6696517  58.8937540
 120.9558620  94.1398602  57.8851849 119.7753447  94.5272286  57.8185388
 121.6035327  94.3745780  56.9226797 118.7652407  93.7720928  61.7361399
 117.6152728  94.1118282  61.4218169 118.9976926  93.0398746  62.7911354
 119.9467503  92.7195142  62.9205886 117.9870591  92.6051164  63.7431156
 117.2820501  91.8859726  63.3261098 118.8166928  91.9039022  64.8380332
 119.3385876  91.1140973  64.2977246 119.5449763  92.5893922  65.2713998
 117.9555674  91.2737827  65.9753113 117.2069382  91.9770094  66.3401776
 117.2713327  90.0891822  65.3631386 118.0193704  89.3852448  64.9984323
 116.6487797  89.6009666  66.1129213 116.6475106  90.4185743  64.5322071
 118.9506704  90.9950643  67.1337444 119.4102897  91.9308911  67.4516715
 118.4164953  90.5496976  67.9730338 119.7249301  90.3086247  66.7910760
 117.1181986  93.7920753  64.2645588 115.9061149  93.6985222  64.3354159
 117.7621518  94.8395527  64.8302597 118.7709440  94.8084155  64.7919447
 117.1279885  95.9346235  65.5715570 116.1506891  95.6724304  65.9768222
 117.9978928  96.4309060  66.6961543 117.4784690  97.2648773  67.1681618
 118.2999525  95.3772971  67.7307331 118.8198237  94.5431507  67.2595291
 118.9305213  95.8036714  68.5109171 117.3682686  95.0220243  68.1710135
 119.2586262  97.0391163  66.3080273 119.7338145  97.3196349  67.0935880
 116.6836798  97.1366245  64.7008409 115.9218079  98.0276319  65.1503940
 116.9057217  97.1057863  63.3950919 117.4891457  96.3230376  63.1362095
 116.6313347  98.1628607  62.3616126 116.2077764  99.0511969  62.8301811
 117.9598754  98.5557775  61.6648760 118.7036249  98.7133025  62.4459790
 118.2618886  97.7148428  61.0406029 117.8489583  99.8283324  60.7956427
 117.2110961  99.6260413  59.9352295 117.4158109 100.6352970  61.3866534
 119.2470656 100.2427457  60.3102835 119.1799507 101.2306260  59.8545566
 119.9168760 100.2841659  61.1692001 119.8045341  99.3042842  59.3221615
 119.1360348  98.6409239  58.9572490 120.9831468  99.3500178  58.7892276
 122.0094102 100.0098075  59.2503045 121.9193343 100.5484059  60.0999504
 122.8893910  99.9790451  58.7555449 121.2753223  98.5774006  57.7980564
 120.5815888  97.9369273  57.4394092 122.1963863  98.6167279  57.3855116
 115.4118098  97.7503375  61.4986771 115.5566228  97.2749958  60.3608069
 114.2767310  97.8409857  62.1522709 114.4247912  98.0181537  63.1355252
 112.9733582  97.6756399  61.7019888 112.8691092  96.7774245  61.0933506
 111.8604567  97.6889406  62.8097462 111.8429416  98.6878247  63.2456637
 110.5067865  97.3508449  62.2899179 110.5233985  96.3518450  61.8542300
 109.7859177  97.3783558  63.1070421 110.2186617  98.0744730  61.5273921
 112.2477879  96.7965099  64.0314463 113.1439206  97.2600615  64.4439591
 111.4231638  96.9115260  64.7349134 112.5084910  95.3084933  63.7907857
 113.3333488  95.1926669  63.0877255 112.7655576  94.8268963  64.7342264
 111.6125921  94.8441318  63.3786773 112.6774288  98.7828152  60.6626084
 112.1845223  98.4033961  59.5784288 112.8721365 100.0849267  60.9512822
 113.1450573 100.2911407  61.9015923 112.5934740 101.2365447  60.0230085
 111.7984324 100.9463300  59.3361435 112.1561196 102.5176179  60.7726335
 112.9626834 103.0999141  61.2181503 111.6134388 103.1367176  60.0582714
 111.2059498 102.2009610  61.8678835 110.0479884 101.3960689  61.7308713
 109.4527413 101.2893128  62.9397149 108.5708838 100.6707406  63.1064322
 110.1798008 102.0837466  63.8056944 109.9774181 102.2012609  64.7882072
 111.2157617 102.6890328  63.1367119 111.8503068 103.4098280  63.6523748
 113.7773982 101.5003464  59.1074310 114.8821910 101.7766412  59.6784618
 113.6282814 101.4400515  57.9045192 104.4402636  70.7886966  83.5573628
 121.8233116 106.0269220  66.5028410  84.3020275 136.1462146  90.9296702
  85.3499238  88.5599784 112.4040792  72.2206048 108.8351727  89.4154117
 105.7168159  68.1524715  64.9731867 106.1368999 129.2029309  70.6163085
  60.2478685  89.3622014  60.2363485  92.6281545  45.3690670  91.0190987
  68.0935489 115.5621511  63.4477488 124.5519378  82.0411913  54.0412389
  96.2166535 142.7707035 116.4614329  86.8157936 119.1857560  57.9726614
 111.9089186 134.3724730  87.9668337  57.3783410  78.3068845  93.9448925
  99.5886073 105.7503899  40.5627841  62.7650156 100.2956611  85.4452702
 109.6241515  71.4615530  78.1396444  74.6922669  63.1292657  65.4548711
  94.7147125  93.5385537 122.2940332 142.1262790  90.1233726  59.1144982
 123.5646628 125.3434296  84.7612367 111.4279522  82.9643754  48.3148617
  97.3386969  62.2113250 165.1796213  96.6874949  62.7967331 164.7930227
  98.1331332  62.7419445 165.2391251  91.2642596  59.3002387 165.5783348
  92.0373472  58.7531374 165.4396224  91.6167995  60.1646637 165.7897809
  93.6008874  55.4595053 163.2101798  93.8534395  54.9376575 162.4485261
  92.6633433  55.2961199 163.3128481  98.8162234  59.9003682 165.7165198
  98.1808067  59.9738309 166.4286102  98.4859641  60.4897281 165.0384277
  93.3205163  57.3623159 165.4126173  93.2041421  56.6868063 166.0807257
  93.4307423  56.8755533 164.5958326  95.3042191  51.8523206 164.1134210
  95.4716593  52.7203443 164.4804681  95.1139360  52.0150488 163.1895500
  95.2831412  54.3080864 165.0980877  95.1631037  54.7537914 165.9366358
  94.5884000  54.6566181 164.5394415  93.0438304  67.0784505 168.7471008
  92.9662334  68.0292330 168.8259489  92.4399948  66.7330378 169.4045935
 100.9816478  54.7802337 165.9261211 101.8934334  55.0129724 165.7508909
 100.4726125  55.3639381 165.3636290 103.4675292  60.6982593 170.6719157
 102.7826330  61.0781494 170.1216190 103.5519141  61.3077920 171.4051104
  95.1414022  59.5002563 170.5824878  95.6052368  59.7790266 169.7929500
  94.8770820  58.5986008 170.3997969  94.0782908  55.6225716 167.3914443
  94.7806952  56.0746759 167.8588369  93.7463537  54.9809535 168.0194336
  95.3176673  62.4366658 167.4676548  95.1822348  63.2818194 167.8961396
  95.8586485  62.6385936 166.7042482  88.7706070  59.9542096 168.0404473
  89.2830591  60.7485347 168.1910038  89.4228783  59.2568387 167.9738075
  90.5800955  63.0707853 170.1227226  90.7567583  63.9925817 169.9348210
  91.3757788  62.7566272 170.5521606  98.6319419  55.9505831 164.5047877
  98.1166043  56.7210436 164.7436264  98.3596728  55.2770967 165.1280938
 103.6053693  58.7038186 166.4401050 102.8283136  58.3649345 165.9956212
 104.2845174  58.7090809 165.7656015  98.4205722  53.8232923 166.3307658
  98.1155858  54.1379073 167.1817801  99.3736164  53.9014343 166.3734991
  96.8652154  59.9823147 167.9800612  96.3373516  59.2475906 167.6673849
  96.3639657  60.7597823 167.7340580 101.8445000  58.1772167 173.0967658
 101.1868675  58.8671429 173.1847787 102.6485399  58.5668599 173.4401645
 100.6550459  56.5316540 171.1471600 101.1682341  57.1646532 171.6493310
 101.3051683  55.9317735 170.7814960  91.9240469  52.6747274 164.3603109
  91.0877781  53.0121961 164.6812383  91.7845238  52.5396254 163.4230246
  95.0104754  57.8003357 160.9835585  94.1031816  57.5692610 161.1826734
  95.5075786  57.0040976 161.1709567  97.9172833  66.5100864 163.9032271
  97.2434532  66.8132561 164.5117229  98.3038655  67.3129945 163.5537728
  97.9166338  55.4057411 168.5232621  98.6638157  55.9178808 168.2139743
  98.1857927  55.0841464 169.3837014  96.1892988  57.9015952 165.5059575
  95.2804207  57.6174985 165.6032045  96.2188072  58.3215030 164.6462882
 101.4212255  61.5122541 169.2750743 100.9674582  60.6713451 169.3315933
 100.7906222  62.1483940 169.6125523  99.8645194  63.3499038 170.2100561
 100.1568169  63.9104095 169.4912926 100.3743815  63.6427599 170.9653720
  95.8869076  59.4424696 162.8447654  95.4488505  58.7260554 162.3853291
  96.6279516  59.6700810 162.2832745  94.8278820  64.1279389 171.2994014
  94.7854998  64.3540235 170.3702546  95.7441518  63.8942764 171.4479815
 104.0042190  57.7181893 168.9023972 103.8660089  57.9083489 167.9745161
 103.6478409  58.4801275 169.3592023 104.0311570  59.7858420 173.9135244
 104.4648077  59.6933709 174.7618298 104.7443151  59.7615920 173.2755260
  96.1164048  66.6780537 166.1179350  96.2915804  66.2068580 166.9324973
  95.4296836  67.3046303 166.3460611 100.0080303  58.3009077 162.4379711
  99.3909474  57.5755905 162.3412764  99.5396792  59.0618437 162.0946785
  90.6825134  69.8269899 172.8919210  90.9221732  70.4588424 173.5698229
  89.8394330  69.4757939 173.1784570  91.7978849  52.5194501 161.5601016
  90.9208315  52.3983302 161.1963262  92.2736602  51.7280580 161.3079904
  94.9842775  64.8720792 168.8063536  94.2010297  65.4142472 168.9001761
  95.6835520  65.3894771 169.2057777 106.1469183  56.3855787 173.0916033
 106.1359059  57.2680502 172.7209966 105.2786562  56.0327338 172.8970570
  99.3769206  59.4387109 169.0236165  98.4425485  59.5588571 168.8540869
  99.5545874  58.5359575 168.7596175 102.7641757  55.2804428 169.5586199
 103.2302209  56.1132419 169.4846502 103.2149258  54.8149409 170.2631457
 100.8317988  61.6248249 166.5572351 101.1077832  61.5104844 167.4666225
  99.9622487  61.2265734 166.5184524  97.4672052  65.8734600 170.2005165
  97.6494447  65.0556256 170.6632917  98.2905038  66.0902292 169.7630055
  97.8014218  64.8002785 167.4620213  98.3301984  64.2895240 166.8490375
  98.0642437  64.4845315 168.3265746  91.1569966  65.8517902 170.2217989
  90.4880341  66.3364029 169.7382029  91.0182836  66.0987122 171.1361368
  98.4343622  65.8343621 173.8064330  98.3094761  65.0333361 173.2975275
  99.0922713  66.3289814 173.3178300 100.4978530  63.6352641 175.4343880
  99.5508866  63.5157992 175.3622206 100.8461303  62.7475139 175.5170141
  97.5024963  63.4305357 171.6348232  97.3549926  62.5022065 171.8155802
  98.3278457  63.4525448 171.1505307 101.1059085  64.2533916 172.7213105
 102.0305633  64.0476777 172.5837556 100.9374389  64.0050317 173.6302446
  97.4986478  51.2843195 166.6280349  97.7150092  52.1667833 166.3269177
  97.0180545  50.8929408 165.8985991 100.8954401  64.7719583 168.0775196
 101.0691279  64.2066006 167.3249049 101.3883293  65.5720478 167.8954686
 106.7493793  57.5356006 169.6965496 107.1924939  56.7863331 169.2984619
 105.8720303  57.5266143 169.3139228 101.8829574  64.0886348 165.1772094
 102.5780479  64.7093040 165.3959409 102.2252724  63.2381699 165.4524472
 103.7820997  61.5386053 166.7059425 104.3072321  61.8773326 165.9808745
 103.6943350  60.6033069 166.5222560  95.4661658  67.6058037 171.0654678
  95.0266648  67.1134415 171.7587535  96.2169775  67.0631004 170.8246754
  92.4749037  61.6999969 166.6135441  92.6237157  62.3835433 165.9602113
  93.2815480  61.6805059 167.1284896 106.2926657  59.0061245 172.0887943
 107.1273549  59.4451049 172.2525504 106.4285786  58.5299898 171.2696189
  95.9744442  64.1948099 164.0847188  95.4018409  64.8138287 163.6317660
  96.5477236  64.7447461 164.6187110  99.1941702  64.4785250 165.2155770
 100.1272375  64.4130811 165.4188646  99.1064915  65.3141516 164.7570303
 101.8229719  63.7951120 162.1759718 101.7443350  63.4610983 163.0695476
 102.6439386  64.2872888 162.1751190  96.3591241  55.5308912 161.4263240
  97.3050346  55.4015120 161.4951658  95.9805486  54.7923574 161.9032669
  94.5434158  53.4558889 161.3618126  93.6365613  53.1592001 161.4380839
  94.8210139  53.1588707 160.4952412  93.3132943  50.3145824 161.5030105
  94.1752107  50.6400722 161.7625922  93.4983287  49.5277320 160.9903171
 100.2490457  51.3474441 167.7021676  99.3616312  51.6324091 167.4841871
 100.6644446  51.1868204 166.8548953  99.3933671  61.1119115 161.7969696
 100.0969521  61.3169118 162.4127352  98.6696319  61.6795877 162.0618780
 100.2231481  56.8628977 167.9171966 100.1666682  57.3197528 167.0779599
 100.7759823  56.1019661 167.7394809 104.0336287  52.6518708 168.7422086
 103.7773221  52.2515344 169.5730293 103.4089155  53.3662502 168.6172225
 108.3448625  55.3914782 171.2493377 107.7848183  55.4607971 172.0224939
 107.7392128  55.2155766 170.5292873  91.4143833  66.8251509 173.0011563
  91.2976218  67.7696941 172.8990254  90.5936280  66.5225070 173.3897363
 101.3020368  61.5501644 163.8468156 102.1365972  61.1182843 163.6645631
 101.1404711  61.3783658 164.7745051 100.9566260  58.0533758 165.2124495
 100.9015064  57.8878029 164.2712940 100.3312315  58.7609791 165.3686685
  94.1951950  66.2310757 172.8777571  93.2447581  66.2312619 172.7641943
  94.4984436  65.4843492 172.3613605 102.5981165  73.8734200 169.8681749
 102.0346030  73.7824137 169.0998036 102.4833560  73.0534105 170.3484241
 108.1780724  77.5405168 165.1796213 107.5268704  78.1259248 164.7930227
 108.9725087  78.0711363 165.2391251 102.1036351  74.6294305 165.5783348
 102.8767227  74.0823292 165.4396224 102.4561750  75.4938554 165.7897809
 104.4402629  70.7886971 163.2101798 104.6928149  70.2668492 162.4485261
 103.5027188  70.6253116 163.3128481 109.6555989  75.2295600 165.7165198
 109.0201822  75.3030226 166.4286102 109.3253395  75.8189199 165.0384277
 104.1598918  72.6915077 165.4126173 104.0435176  72.0159980 166.0807257
 104.2701177  72.2047451 164.5958326 106.5030458  72.1525224 169.1172862
 106.1388666  71.6255845 169.8285783 107.3597574  71.7623693 168.9439347
 106.1435945  67.1815124 164.1134210 106.3110348  68.0495360 164.4804681
 105.9533114  67.3442406 163.1895500 106.1225166  69.6372781 165.0980877
 106.0024791  70.0829832 165.9366358 105.4277755  69.9858099 164.5394415
 111.8210232  70.1094254 165.9261211 112.7328089  70.3421641 165.7508909
 111.3119880  70.6931299 165.3636290 104.9176663  70.9517633 167.3914443
 105.6200706  71.4038677 167.8588369 104.5857291  70.3101452 168.0194336
  98.6601997  69.2101186 172.6931577  97.8701051  69.4658715 172.2171687
  99.1513244  70.0249524 172.7983617 100.6116742  69.5745765 169.6515053
  99.8147905  69.6864460 170.1698549 100.3842334  69.9132418 168.7855944
  99.6099825  75.2834014 168.0404473 100.1224345  76.0777264 168.1910038
 100.2622538  74.5860305 167.9738075  97.5748741  73.6122668 168.8164044
  98.4123963  74.0219677 168.5997752  97.7527009  72.6722111 168.7864238
 109.4713174  71.2797749 164.5047877 108.9559797  72.0502354 164.7436264
 109.1990482  70.6062885 165.1280938 107.0560285  66.1247450 169.5633115
 106.2001881  65.7354300 169.3838754 107.4687236  66.2039411 168.7032901
 104.8302317  63.7432523 172.9690857 105.6955314  63.5475331 172.6096746
 104.8979826  63.5142875 173.8960213 109.2599477  69.1524841 166.3307658
 108.9549612  69.4670990 167.1817801 110.2129919  69.2306261 166.3734991
 107.7045909  75.3115064 167.9800612 107.1767270  74.5767824 167.6673849
 107.2033411  76.0889741 167.7340580 102.4364636  65.9734731 170.3407223
 103.0108388  65.7509912 169.6080416 103.0235619  66.0423425 171.0935825
 102.7634223  68.0039192 164.3603109 101.9271536  68.3413878 164.6812383
 102.6238993  67.8688172 163.4230246 104.7387304  62.8475980 169.0682293
 104.0851716  62.5324997 168.4438908 104.6967778  62.2251720 169.7942116
 105.8498509  73.1295275 160.9835585 104.9425571  72.8984528 161.1826734
 106.3469541  72.3332894 161.1709567 108.7560092  70.7349329 168.5232621
 109.5031911  71.2470726 168.2139743 109.0251682  70.4133382 169.3837014
 107.0286742  73.2307870 165.5059575 106.1197962  72.9466902 165.6032045
 107.0581826  73.6506948 164.6462882 111.2038929  67.7706445 170.5051410
 110.4661686  67.2583831 170.8361653 111.4565703  67.3306827 169.6934687
 111.3050557  60.5482697 171.0993179 111.6109433  59.6880061 170.8119094
 112.0303161  61.1400317 170.8992173  97.5974913  70.9513384 169.4874777
  97.3999312  70.3582744 168.7625844  97.0421577  70.6465594 170.2050716
 106.7262830  74.7716613 162.8447654 106.2882260  74.0552472 162.3853291
 107.4673271  74.9992728 162.2832745 103.5163996  69.4613550 169.3659749
 102.7031862  69.7607720 169.7724941 104.0122990  69.0669239 170.0834232
 100.0921138  70.4777418 167.1715729  99.1618726  70.4161873 167.3885692
 100.1878610  69.9553370 166.3752371 100.0106687  67.0032230 169.7593971
 100.2713505  67.9177564 169.6503132 100.8323860  66.5356673 169.9090584
 110.8474058  73.6300995 162.4379711 110.2303228  72.9047823 162.3412764
 110.3790546  74.3910355 162.0946785 102.6372604  67.8486419 161.5601016
 101.7602070  67.7275220 161.1963262 103.1130357  67.0572497 161.3079904
  94.1574744  72.6363579 171.6542523  94.8445784  72.3225309 171.0663538
  94.0022872  73.5404944 171.3809774  98.9609466  67.5253775 176.0827546
  98.8767655  66.9179445 175.3477956  98.1392172  68.0162794 176.0837043
 109.1333180  66.0107339 171.4497741 109.6301879  65.2577301 171.1298812
 108.3620161  66.0471656 170.8840951 105.7168148  68.1524722 171.1769426
 105.3465936  67.5995762 171.8650332 106.2127241  67.5482855 170.6244426
  93.7342720  70.7164172 173.9259990  93.7726819  70.1827763 174.7197108
  93.2283013  70.1899378 173.3070967  97.3651297  69.4428274 167.0013921
  97.6604738  68.5338953 166.9480975  96.4639333  69.4216014 166.6794924
 100.8945544  67.5184271 172.9841470 100.1732130  68.1320239 172.8448943
 101.6838800  68.0542036 172.9058116  99.0939139  67.1242372 167.1253246
  98.7651845  66.2439751 166.9428352  99.4478510  67.0690041 168.0129636
 102.2080962  67.4115342 167.4928724 102.5477035  67.9401263 166.7707332
 102.6553083  67.7495748 168.2687291 104.1949109  65.9089963 165.6922017
 104.9157472  66.2871216 165.1885734 103.5714413  66.6278840 165.7956995
 108.3380232  66.6135112 166.6280349 108.5543847  67.4959750 166.3269177
 107.8574299  66.2221326 165.8985991 104.9375836  66.5623374 173.2531983
 104.9237405  65.6664467 172.9164281 105.6548265  66.5694037 173.8870269
 104.3412732  65.4437754 168.5219553 104.4628644  64.5154400 168.7210441
 104.0514775  65.4576440 167.6097869 107.2103923  63.1292664 171.6586273
 107.2325620  63.1931997 170.7038253 107.6271982  62.2897173 171.8526779
 103.3142791  77.0291887 166.6135441 103.4630912  77.7127351 165.9602113
 104.1209235  77.0096977 167.1284896 101.0695424  73.0557064 167.6196509
 100.8241466  72.1519394 167.8176720 101.2391339  73.0574215 166.6775987
 100.3391072  68.7885422 165.1182671  99.6460317  68.8629777 164.4622707
 100.0942824  68.0245765 165.6404188 109.0104728  60.3481023 172.5222162
 109.2906482  59.6804212 173.1482588 109.7955335  60.5410119 172.0096825
 106.8138197  79.5240017 164.0847188 106.2412164  80.1430204 163.6317660
 107.3870991  80.0739379 164.6187110 112.6623473  79.1243038 162.1759718
 112.5837105  78.7902901 163.0695476 113.4833140  79.6164805 162.1751190
 107.1984995  70.8600830 161.4263240 108.1444100  70.7307038 161.4951658
 106.8199240  70.1215492 161.9032669 105.3827913  68.7850806 161.3618126
 104.4759368  68.4883919 161.4380839 105.6603894  68.4880624 160.4952412
  96.3005853  70.1057170 171.8117172  95.9808637  69.2522478 171.5191546
  95.7539281  70.3205748 172.5675139 106.9989978  63.3287696 167.5162367
 106.1890707  62.9834781 167.8917613 107.6874395  63.0195240 168.1049979
 108.9280527  62.4065743 169.1386664 109.4811565  62.8261196 169.7976687
 109.1650613  61.4801491 169.1809620 104.1526697  65.6437741 161.5030105
 105.0145861  65.9692640 161.7625922 104.3377041  64.8569237 160.9903171
 112.3059334  64.5166268 168.6465328 111.7258003  65.1751072 168.2643380
 112.0395266  63.6943612 168.2352745 110.7562900  63.9171326 170.8486648
 111.2562678  64.0287860 170.0400967 111.3998508  63.6132378 171.4887457
  98.0830855  73.6578335 171.6576309  98.0601544  73.7566022 170.7058192
  98.3931492  74.5043486 171.9793475 111.0884212  66.6766358 167.7021676
 110.2010067  66.9616009 167.4841871 111.5038201  66.5160122 166.8548953
 110.2327425  76.4411033 161.7969696 110.9363275  76.6461035 162.4127352
 109.5090074  77.0087795 162.0618780 111.0625235  72.1920894 167.9171966
 111.0060437  72.6489446 167.0779599 111.6153578  71.4311579 167.7394809
 114.8730041  67.9810626 168.7422086 114.6166976  67.5807262 169.5730293
 114.2482909  68.6954420 168.6172225 112.1414123  76.8793562 163.8468156
 112.9759726  76.4474761 163.6645631 111.9798465  76.7075576 164.7745051
 111.7960015  73.3825675 165.2124495 111.7408818  73.2169947 164.2712940
 111.1706070  74.0901708 165.3686685 105.1056140  62.8833784 164.7909814
 105.0934810  63.8275624 164.9478085 105.9979562  62.7003930 164.4969275
 108.9208260  59.4776561 169.0455751 108.1540655  58.9235048 169.1912433
 109.3318965  59.5498430 169.9069902  97.3386971  39.2175373 151.9041520
  96.6874950  39.8029453 151.5175534  98.1331333  39.7481568 151.9636558
  91.2642598  36.3064510 152.3028654  92.0373474  35.7593497 152.1641530
  91.6167997  37.1708759 152.5143116  93.6008876  32.4657176 149.9347104
  93.8534396  31.9438697 149.1730567  92.6633435  32.3023321 150.0373788
  98.8162236  36.9065805 152.4410504  98.1808069  36.9800431 153.1531409
  98.4859642  37.4959403 151.7629584  93.3205164  34.3685282 152.1371479
  93.2041422  33.6930185 152.8052564  93.4307424  33.8817656 151.3203632
  95.3042192  28.8585329 150.8379517  95.4716595  29.7265565 151.2049988
  95.1139361  29.0212610 149.9140806  95.2831413  31.3142986 151.8226184
  95.1631038  31.7600037 152.6611664  94.5884001  31.6628304 151.2639722
  93.0438305  44.0846628 155.4716315  92.9662335  45.0354453 155.5504796
  92.4399949  43.7392500 156.1291241 100.9816479  31.7864459 152.6506518
 101.8934335  32.0191846 152.4754215 100.4726126  32.3701504 152.0881597
 103.4675293  37.7044716 157.3964463 102.7826332  38.0843617 156.8461496
 103.5519143  38.3140042 158.1296411  95.1414023  36.5064686 157.3070184
  95.6052369  36.7852389 156.5174807  94.8770822  35.6048131 157.1243275
  94.0782909  32.6287838 154.1159750  94.7806953  33.0808882 154.5833676
  93.7463538  31.9871657 154.7439643  95.3176674  39.4428781 154.1921855
  95.1822349  40.2880317 154.6206703  95.8586487  39.6448059 153.4287789
  88.7706071  36.9604219 154.7649780  89.2830592  37.7547469 154.9155345
  89.4228784  36.2630509 154.6983381  90.5800956  40.0769975 156.8472533
  90.7567585  40.9987940 156.6593517  91.3757790  39.7628394 157.2766913
  98.6319420  32.9567954 151.2293183  98.1166044  33.7272559 151.4681571
  98.3596729  32.2833090 151.8526245 103.6053695  35.7100309 153.1646357
 102.8283137  35.3711468 152.7201519 104.2845175  35.7152932 152.4901322
  98.4205724  30.8295046 153.0552965  98.1155859  31.1441195 153.9063108
  99.3736166  30.9076466 153.0980298  96.8652155  36.9885269 154.7045919
  96.3373517  36.2538029 154.3919156  96.3639658  37.7659946 154.4585887
 101.8445001  35.1834290 159.8212965 101.1868676  35.8733551 159.9093094
 102.6485401  35.5730722 160.1646951 100.6550460  33.5378663 157.8716907
 101.1682342  34.1708654 158.3738616 101.3051684  32.9379858 157.5060267
  91.9240470  29.6809397 151.0848415  91.0877782  30.0184083 151.4057690
  91.7845240  29.5458376 150.1475552  95.0104756  34.8065480 147.7080892
  94.1031817  34.5754733 147.9072041  95.5075788  34.0103099 147.8954873
  97.9172834  43.5162987 150.6277578  97.2434533  43.8194684 151.2362536
  98.3038656  44.3192067 150.2783035  97.9166339  32.4119534 155.2477927
  98.6638158  32.9240931 154.9385049  98.1857928  32.0903586 156.1082321
  96.1892989  34.9078074 152.2304882  95.2804208  34.6237107 152.3277351
  96.2188073  35.3277153 151.3708189 101.4212256  38.5184664 155.9996049
 100.9674584  37.6775574 156.0561240 100.7906223  39.1546062 156.3370829
  99.8645196  40.3561161 156.9345867 100.1568170  40.9166218 156.2158233
 100.3743816  40.6489722 157.6899027  95.8869077  36.4486818 149.5692960
  95.4488507  35.7322677 149.1098598  96.6279518  36.6762933 149.0078052
  94.8278821  41.1341512 158.0239321  94.7855000  41.3602358 157.0947853
  95.7441520  40.9004886 158.1725122 104.0042192  34.7244015 155.6269279
 103.8660090  34.9145611 154.6990468 103.6478410  35.4863398 156.0837330
 104.0311571  36.7920542 160.6380550 104.4648078  36.6995831 161.4863604
 104.7443152  36.7678043 160.0000566  96.1164050  43.6842659 152.8424657
  96.2915805  43.2130702 153.6570280  95.4296838  44.3108425 153.0705918
 100.0080304  35.3071200 149.1625018  99.3909475  34.5818028 149.0658071
  99.5396793  36.0680560 148.8192092  90.6825135  46.8332022 159.6164517
  90.9221733  47.4650546 160.2943536  89.8394331  46.4820062 159.9029876
  91.7978850  29.5256624 148.2846322  90.9208317  29.4045425 147.9208569
  92.2736603  28.7342702 148.0325211  94.9842776  41.8782914 155.5308843
  94.2010298  42.4204595 155.6247067  95.6835522  42.3956894 155.9303084
 106.1469184  33.3917909 159.8161340 106.1359060  34.2742625 159.4455273
 105.2786563  33.0389460 159.6215877  99.3769207  36.4449231 155.7481471
  98.4425486  36.5650694 155.5786176  99.5545876  35.5421698 155.4841481
 102.7641759  32.2866550 156.2831506 103.2302211  33.1194542 156.2091808
 103.2149259  31.8211532 156.9876764 100.8317990  38.6310372 153.2817658
 101.1077834  38.5166966 154.1911532  99.9622488  38.2327857 153.2429831
  97.4672054  42.8796723 156.9250471  97.6494448  42.0618378 157.3878224
  98.2905040  43.0964415 156.4875361  97.8014219  41.8064908 154.1865520
  98.3301986  41.2957362 153.5735682  98.0642439  41.4907438 155.0511053
  91.1569967  42.8580024 156.9463296  90.4880342  43.3426152 156.4627336
  91.0182837  43.1049245 157.8606674  98.4343623  42.8405743 160.5309636
  98.3094762  42.0395483 160.0220582  99.0922714  43.3351937 160.0423606
 100.4978531  40.6414763 162.1589186  99.5508867  40.5220115 162.0867513
 100.8461304  39.7537262 162.2415448  97.5024965  40.4367480 158.3593538
  97.3549927  39.5084187 158.5401109  98.3278458  40.4587570 157.8750614
 101.1059086  41.2596038 159.4458411 102.0305634  41.0538900 159.3082862
 100.9374390  41.0112440 160.3547753  97.4986479  28.2905317 153.3525656
  97.7150093  29.1729955 153.0514484  97.0180546  27.8991531 152.6231298
 100.8954403  41.7781706 154.8020503 101.0691280  41.2128128 154.0494355
 101.3883294  42.5782601 154.6199993 106.7493794  34.5418129 156.4210802
 107.1924940  33.7925454 156.0229926 105.8720304  34.5328265 156.0384534
 101.8829575  41.0948470 151.9017401 102.5780480  41.7155163 152.1204716
 102.2252725  40.2443822 152.1769779 103.7820998  38.5448176 153.4304732
 104.3072322  38.8835449 152.7054052 103.6943351  37.6095191 153.2467866
  95.4661659  44.6120159 157.7899985  95.0266649  44.1196538 158.4832842
  96.2169776  44.0693127 157.5492060  92.4749038  38.7062092 153.3380747
  92.6237158  39.3897556 152.6847420  93.2815482  38.6867182 153.8530203
 106.2926659  36.0123367 158.8133250 107.1273550  36.4513171 158.9770810
 106.4285787  35.5362020 157.9941496  95.9744444  41.2010222 150.8092495
  95.4018411  41.8200409 150.3562966  96.5477237  41.7509584 151.3432417
  99.1941703  41.4847372 151.9401077 100.1272377  41.4192934 152.1433952
  99.1064916  42.3203639 151.4815610 101.8229720  40.8013242 148.9005024
 101.7443352  40.4673106 149.7940782 102.6439387  41.2935010 148.8996497
  96.3591242  32.5371035 148.1508547  97.3050347  32.4077243 148.2196965
  95.9805487  31.7985697 148.6277975  94.5434159  30.4621011 148.0863432
  93.6365615  30.1654124 148.1626146  94.8210140  30.1650829 147.2197719
  93.3132944  27.3207946 148.2275411  94.1752108  27.6462845 148.4871229
  93.4983288  26.5339442 147.7148477 100.2490458  28.3536563 154.4266983
  99.3616313  28.6386214 154.2087178 100.6644447  28.1930327 153.5794260
  99.3933672  38.1181238 148.5215003 100.0969522  38.3231240 149.1372658
  98.6696321  38.6858000 148.7864086 100.2231482  33.8691099 154.6417273
 100.1666684  34.3259651 153.8024905 100.7759825  33.1081784 154.4640116
 104.0336288  29.6580831 155.4667392 103.7773222  29.2577467 156.2975600
 103.4089156  30.3724625 155.3417532 108.3448626  32.3976904 157.9738684
 107.7848184  32.4670094 158.7470246 107.7392129  32.2217889 157.2538180
  91.4143835  43.8313631 159.7256870  91.2976219  44.7759064 159.6235560
  90.5936281  43.5287193 160.1142669 101.3020369  38.5563767 150.5713463
 102.1365973  38.1244966 150.3890938 101.1404712  38.3845781 151.4990357
 100.9566261  35.0595880 151.9369802 100.9015065  34.8940152 150.9958246
 100.3312317  35.7671913 152.0931992  94.1951951  43.2372880 159.6022877
  93.2447582  43.2374741 159.4887249  94.4984437  42.4905614 159.0858912
 109.9304644  49.0733418 160.6668640 110.5683054  48.9540166 159.9631980
 109.8125487  50.0214262 160.7256592 106.7394351  49.0260846 160.6030164
 106.4012862  48.9101911 159.7150699 107.6084119  48.6252011 160.5831170
 102.5981166  50.8796323 156.5927055 102.0346031  50.7886260 155.8243343
 102.4833561  50.0596227 157.0729548 107.2214134  50.1795698 166.5616370
 107.2102774  49.7848496 165.6896873 107.3834773  49.4461771 167.1550141
 100.1445598  52.3747514 159.4311276 100.9366890  52.0338339 159.0157575
 100.3842248  52.4842489 160.3513429 108.1780725  54.5467290 151.9041520
 107.5268705  55.1321371 151.5175534 108.9725088  55.0773485 151.9636558
 102.1036352  51.6356428 152.3028654 102.8767228  51.0885415 152.1641530
 102.4561751  52.5000677 152.5143116 103.9421395  52.9632810 165.5095554
 103.6511261  53.8678441 165.3942220 104.5778379  53.0049337 166.2239623
 104.8677602  50.3409658 162.0996913 105.4641174  50.1165681 161.3853876
 104.9252573  49.5994404 162.7022361 104.4402630  47.7949094 149.9347104
 104.6928151  47.2730615 149.1730567 103.5027189  47.6315239 150.0373788
 109.4845913  46.7984872 157.7421848 110.2709002  46.3804295 157.3912265
 109.7484617  47.7030964 157.9103496 109.6555990  52.2357722 152.4410504
 109.0201823  52.3092349 153.1531409 109.3253397  52.8251321 151.7629584
 114.8854340  46.7360105 158.6454826 115.6179512  46.1659322 158.8792656
 114.1293696  46.3481706 159.0861332 104.1598919  49.6977200 152.1371479
 104.0435177  49.0222103 152.8052564 104.2701179  49.2109574 151.3203632
 106.5030460  49.1587347 155.8418169 106.1388667  48.6317968 156.5531090
 107.3597576  48.7685816 155.6684654 106.1435947  44.1877246 150.8379517
 106.3110349  45.0557483 151.2049988 105.9533116  44.3504528 149.9140806
 108.9011280  52.6494225 162.5045347 108.6012003  53.5519264 162.3961155
 108.5562339  52.3826409 163.3566500 102.3523761  49.1008022 158.5382052
 101.4274258  48.9684236 158.7459744 102.6008175  49.8802241 159.0351994
 112.3008424  45.1676766 160.1842785 111.3925301  45.0992174 159.8901546
 112.2496019  45.6448710 161.0124610 106.1225168  46.6434904 151.8226184
 106.0024793  47.0891955 152.6611664 105.4277756  46.9920222 151.2639722
  99.7132572  48.7441296 159.3725841  99.8424954  48.9975775 160.2865253
  99.0330024  49.3369004 159.0530496 103.8832060  59.4138546 155.4716315
 103.8056089  60.3646371 155.5504796 103.2793703  59.0684418 156.1291241
 111.8210234  47.1156377 152.6506518 112.7328090  47.3483764 152.4754215
 111.3119881  47.6993421 152.0881597 104.6295662  49.3951864 167.6895649
 105.3710346  49.9336908 167.4130473 103.9232647  50.0218153 167.8467201
 110.1051001  51.5381005 166.2867811 110.5134357  51.0963415 165.5422443
 109.3828263  50.9633632 166.5402003 106.4582071  46.4753612 163.6601367
 107.3043267  46.8993025 163.8036016 106.3980709  45.8187236 164.3539931
 110.4279816  52.0982196 160.0420099 109.7988678  52.2627910 159.3396167
 110.0405478  52.5123805 160.8131063 114.3069048  53.0336633 157.3964463
 113.6220086  53.4135535 156.8461496 114.3912897  53.6431960 158.1296411
 111.5619980  50.6796592 163.9959807 111.7736875  51.3228352 163.3194188
 111.5149728  49.8458909 163.5281737 109.1646208  43.2914413 160.8996379
 108.3030688  43.5895667 161.1913116 109.1908643  43.5084812 159.9677411
 105.9807778  51.8356604 157.3070184 106.4446123  52.1144307 156.5174807
 105.7164576  50.9340048 157.1243275 102.8731859  51.3828085 160.2449948
 103.4433216  51.8115354 159.6067432 103.4639971  51.1010670 160.9434133
 104.9176664  47.9579756 154.1159750 105.6200707  48.4100800 154.5833676
 104.5857292  47.3163575 154.7439643  98.6601998  46.2163309 159.4176883
  97.8701052  46.4720837 158.9416994  99.1513245  47.0311647 159.5228924
 112.6765807  53.5568548 162.1682164 113.4983251  53.1548735 161.8864846
 112.6728210  53.4536782 163.1198280 100.6116743  46.5807888 156.3760360
  99.8147907  46.6926582 156.8943856 100.3842335  46.9194540 155.5101250
 106.4422411  53.1052591 164.3242875 106.5066843  53.5672998 165.1601046
 105.7333335  52.4749956 164.4525184  96.9439701  46.4693799 161.8491874
  97.1947739  47.3540809 162.1149450  97.4799249  46.2898401 161.0766966
 106.1570429  54.7720699 154.1921855 106.0216103  55.6172234 154.6206703
 106.6980241  54.9739976 153.4287789  99.6099826  52.2896137 154.7649780
 100.1224347  53.0839387 154.9155345 100.2622539  51.5922427 154.6983381
 101.4194711  55.4061893 156.8472533 101.5961339  56.3279858 156.6593517
 102.2151544  55.0920312 157.2766913 107.7838905  55.3944265 168.3222197
 107.3402759  54.6080644 168.0043101 108.4456119  55.5823416 167.6566088
 102.5426026  56.9240067 162.8482875 103.0933451  56.7957130 162.0759869
 101.7037502  57.2234956 162.4977768 109.8820143  55.6747065 166.3503598
 109.8638618  56.4955946 165.8583867 110.8040063  55.5501140 166.5753739
 106.3393197  53.1891195 167.1927107 106.8721534  52.4279483 166.9626415
 105.8107278  52.8964846 167.9351261  97.5748743  50.6184791 155.5409350
  98.4123965  51.0281799 155.3243058  97.7527010  49.6784233 155.5109544
 109.4713175  48.2859872 151.2293183 108.9559798  49.0564476 151.4681571
 109.1990483  47.6125008 151.8526245 107.0560286  43.1309572 156.2878422
 106.2001882  42.7416423 156.1084061 107.4687238  43.2101533 155.4278207
 108.5859433  40.6655916 160.6869982 108.0824228  40.6286051 159.8737787
 108.8790039  41.5748658 160.7466638 104.8302318  40.7494645 159.6936163
 105.6955315  40.5537454 159.3342053 104.8979827  40.5204997 160.6205520
 114.4447449  51.0392226 153.1646357 113.6676892  50.7003386 152.7201519
 115.1238930  51.0444849 152.4901322 109.2599478  46.1586964 153.0552965
 108.9549614  46.4733113 153.9063108 110.2129920  46.2368384 153.0980298
 107.7045910  52.3177187 154.7045919 107.1767271  51.5829947 154.3919156
 107.2033413  53.0951863 154.4585887 112.6838756  50.5126208 159.8212965
 112.0262430  51.2025469 159.9093094 113.4879155  50.9022639 160.1646951
 102.4364637  42.9796853 157.0652530 103.0108389  42.7572035 156.3325723
 103.0235620  43.0485548 157.8181131 111.4944215  48.8670580 157.8716907
 112.0076096  49.5000572 158.3738616 112.1445439  48.2671776 157.5060267
 102.7634225  45.0101314 151.0848415 101.9271537  45.3476001 151.4057690
 102.6238994  44.8750294 150.1475552 104.7387305  39.8538102 155.7927600
 104.0851718  39.5387119 155.1684214 104.6967779  39.2313843 156.5187422
 105.8498510  50.1357397 147.7080892 104.9425572  49.9046651 147.9072041
 106.3469542  49.3395017 147.8954873 108.7566589  58.8454904 150.6277578
 108.0828288  59.1486601 151.2362536 109.1432411  59.6483985 150.2783035
 107.9725046  46.3420036 160.1175247 107.0547607  46.5634983 159.9596935
 108.3885189  46.4166346 159.2586955 108.7560093  47.7411451 155.2477927
 109.5031912  48.2532849 154.9385049 109.0251683  47.4195504 156.1082321
 107.0286743  50.2369992 152.2304882 106.1197963  49.9529025 152.3277351
 107.0581827  50.6569071 151.3708189 112.2606011  53.8476582 155.9996049
 111.8068338  53.0067492 156.0561240 111.6299978  54.4837980 156.3370829
 111.2038930  44.7768568 157.2296717 110.4661687  44.2645954 157.5606959
 111.4565704  44.3368949 156.4179994 110.7038950  55.6853078 156.9345867
 110.9961925  56.2458135 156.2158233 111.2137571  55.9781639 157.6899027
 111.3050558  37.5544820 157.8238486 111.6109435  36.6942183 157.5364401
 112.0303163  38.1462440 157.6237480  97.5974914  47.9575506 156.2120084
  97.3999314  47.3644867 155.4871150  97.0421578  47.6527716 156.9296023
 105.5771638  47.8498613 158.3314677 105.6320247  46.8972449 158.2557154
 104.7662840  48.0058052 158.8155975 106.7262831  51.7778736 149.5692960
 106.2882261  51.0614595 149.1098598 107.4673272  52.0054851 149.0078052
 103.5163997  46.4675672 156.0905056 102.7031863  46.7669843 156.4970248
 104.0122992  46.0731361 156.8079538 105.6672575  56.4633429 158.0239321
 105.6248754  56.6894276 157.0947853 106.5835274  56.2296804 158.1725122
 109.1138209  46.9317497 164.9219950 109.4687597  47.1588970 165.7814416
 109.7610340  47.2635874 164.2997205 114.8435946  50.0535933 155.6269279
 114.7053845  50.2437529 154.6990468 114.4872165  50.8155316 156.0837330
 103.0078072  44.0394028 161.7066291 103.6477452  43.8982787 161.0089254
 102.1755603  43.7528541 161.3304893 114.8705326  52.1212460 160.6380550
 115.3041832  52.0287749 161.4863604 115.5836906  52.0969960 160.0000566
 103.7838376  53.3396458 157.8201283 104.5778975  52.8446779 157.6183858
 103.0730069  52.8114322 157.4568989 108.6033221  55.7214554 162.1713651
 108.6570243  56.2905490 162.9391367 107.7348002  55.8916439 161.8067688
 100.0921140  47.4839540 153.8961036  99.1618728  47.4223996 154.1130998
 100.1878612  46.9615493 153.0997677 100.0106689  44.0094353 156.4839278
 100.2713506  44.9239686 156.3748438 100.8323861  43.5418796 156.6335890
 101.4831614  45.4232110 163.6538102 102.1554667  45.2149472 163.0050751
 100.6561400  45.2254196 163.2143335 107.5621320  49.8874816 163.7300583
 108.4913380  50.0385976 163.5569550 107.1412350  49.9758837 162.8749229
 106.3609652  53.9125480 161.4999120 106.2220738  53.5444265 162.3725059
 105.5724248  54.4273120 161.3283078 106.9557804  59.0134577 152.8424657
 107.1309560  58.5422620 153.6570280 106.2690592  59.6400343 153.0705918
 107.9114867  53.2907083 158.8887958 107.5764700  53.2507853 159.7845608
 107.4118813  52.6251799 158.4158368 101.8859111  48.6974713 164.4140539
 101.7478909  47.9654952 165.0152078 102.7964035  48.6083613 164.1324727
 110.8474059  50.6363117 149.1625018 110.2303230  49.9109946 149.0658071
 110.3790547  51.3972478 148.8192092 104.5141412  48.4094672 163.9024219
 105.2241030  47.7687865 163.8610837 104.4710720  48.6607567 164.8250400
 112.5028191  55.3462026 166.8230798 112.4440737  54.6621246 166.1561381
 112.9047709  56.0881016 166.3711424 101.5218889  62.1623940 159.6164517
 101.7615488  62.7942464 160.2943536 100.6788086  61.8111980 159.9029876
 102.6372605  44.8548542 148.2846322 101.7602071  44.7337343 147.9208569
 103.1130358  44.0634620 148.0325211 112.5045598  53.3101610 165.0544778
 111.6172377  52.9727532 165.1771177 113.0744149  52.5784641 165.2913543
  94.1574745  49.6425701 158.3787829  94.8445785  49.3287432 157.7908845
  94.0022874  50.5467066 158.1055081  98.9609467  44.5315898 162.8072853
  98.8767656  43.9241568 162.0723263  98.1392174  45.0224916 162.8082349
 106.0346751  57.9703062 162.0206021 105.9616923  58.7758034 162.5325326
 105.5924144  58.1695028 161.1954042 105.8236531  57.2074832 155.5308843
 105.0404053  57.7496512 155.6247067 106.5229276  57.7248812 155.9303084
 109.1333181  43.0169462 158.1743048 109.6301881  42.2639424 157.8544118
 108.3620162  43.0533778 157.6086257 116.9862938  48.7209827 159.8161340
 116.9752815  49.6034543 159.4455273 116.1180318  48.3681378 159.6215877
 108.4945435  57.8689896 164.1764180 109.2073407  58.5037361 164.1040081
 108.0035463  57.9653762 163.3604182 110.2162962  51.7741149 155.7481471
 109.2819240  51.8942611 155.5786176 110.3939630  50.8713616 155.4841481
 105.7168150  45.1586845 157.9014733 105.3465937  44.6057885 158.5895638
 106.2127242  44.5544978 157.3489733 113.6035513  47.6158468 156.2831506
 114.0695965  48.4486460 156.2091808 114.0543014  47.1503450 156.9876764
 103.5457348  55.6184340 164.9969751 104.2466808  56.2520823 165.1499145
 103.0752463  55.9599071 164.2365390 111.6711744  53.9602289 153.2817658
 111.9471588  53.8458884 154.1911532 110.8016243  53.5619774 153.2429831
 111.3458634  48.1728947 162.8222301 110.6930084  48.4204854 162.1674754
 111.7239014  47.3593085 162.4884778 108.3065808  58.2088640 156.9250471
 108.4888203  57.3910296 157.3878224 109.1298794  58.4256332 156.4875361
 108.6407974  57.1356825 154.1865520 109.1695740  56.6249280 153.5735682
 108.9036193  56.8199356 155.0511053  99.1425066  55.1520695 161.9300853
  99.7278503  54.4064383 162.0628757  98.9449905  55.4624651 162.8137517
 101.9963722  58.1871942 156.9463296 101.3274097  58.6718070 156.4627336
 101.8576591  58.4341162 157.8606674  93.7342721  47.7226295 160.6505296
  93.7726821  47.1889886 161.4442415  93.2283014  47.1961500 160.0316274
 106.1368990  60.2215686 163.5445954 106.6887298  60.3847307 164.3095039
 106.4775184  60.8120123 162.8725979 110.9879864  55.0476943 169.3994608
 111.5319768  55.6606901 168.9049563 110.4066709  55.6056521 169.9161621
  97.3651299  46.4490397 153.7259228  97.6604740  45.5401075 153.6726282
  96.4639334  46.4278136 153.4040230 109.2737377  58.1697661 160.5309636
 109.1488517  57.3687401 160.0220582 109.9316469  58.6643854 160.0423606
 100.8945546  44.5246394 159.7086776 100.1732131  45.1382361 159.5694250
 101.6838801  45.0604158 159.6303422 111.3372286  55.9706681 162.1589186
 110.3902621  55.8512032 162.0867513 111.6855059  55.0829179 162.2415448
  99.0939140  44.1304495 153.8498553  98.7651846  43.2501874 153.6673659
  99.4478511  44.0752163 154.7374942 108.3418719  55.7659397 158.3593538
 108.1943682  54.8376105 158.5401109 109.1672213  55.7879488 157.8750614
 102.2080963  44.4177464 154.2174031 102.5477036  44.9463386 153.4952639
 102.6553084  44.7557871 154.9932597 111.9452841  56.5887956 159.4458411
 112.8699388  56.3830817 159.3082862 111.7768144  56.3404357 160.3547753
 104.9024404  42.8014515 163.6677099 104.5621225  42.0022328 164.0697779
 104.1963411  43.1016226 163.0953932 105.5540876  39.8863828 162.1204422
 106.3766945  39.4124306 161.9983312 105.7978940  40.6654311 162.6203108
 104.1949111  42.9152086 152.4167323 104.9157473  43.2933339 151.9131040
 103.5714415  43.6340963 152.5202301 108.3380233  43.6197235 153.3525656
 108.5543848  44.5021873 153.0514484 107.8574301  43.2283448 152.6231298
 103.0779455  46.5782948 159.9296400 102.9324036  46.8923251 160.8220682
 102.6004658  47.1967849 159.3767299 104.9375838  43.5685496 159.9777290
 104.9237406  42.6726590 159.6409588 105.6548266  43.5756160 160.6115576
 106.7901968  44.0022836 162.0230417 106.5319746  44.9239907 162.0214748
 106.2587009  43.6053271 162.7130881 111.7348157  57.1073624 154.8020503
 111.9085035  56.5420046 154.0494355 112.2277048  57.9074518 154.6199993
  97.5525117  49.1188293 162.8684062  97.0078585  49.8948101 163.0004336
  98.4304467  49.4659097 162.7103183 104.3412734  42.4499877 155.2464860
 104.4628645  41.5216523 155.4455748 104.0514776  42.4638562 154.3343175
 107.2103924  40.1354787 158.3831580 107.2325621  40.1994120 157.4283559
 107.6271983  39.2959296 158.5772086 117.5887548  49.8710047 156.4210802
 118.0318694  49.1217372 156.0229926 116.7114059  49.8620183 156.0384534
 112.7223330  56.4240388 151.9017401 113.4174234  57.0447081 152.1204716
 113.0646480  55.5735739 152.1769779 114.6214753  53.8740093 153.4304732
 115.1466077  54.2127366 152.7054052 114.5337105  52.9387109 153.2467866
 106.2834801  57.7874167 165.5594608 106.5921928  57.5423314 166.4317308
 107.0810284  57.9920806 165.0713479 106.3055414  59.9412077 157.7899985
 105.8660404  59.4488455 158.4832842 107.0563530  59.3985044 157.5492060
  98.7847753  56.1323618 157.7924613  99.6105772  55.8327389 157.4123257
  98.4341805  55.3631240 158.2414402 103.7529286  55.4850086 159.8622287
 103.1309295  54.8220791 159.5624514 104.4234153  55.5111218 159.1795934
  96.9856358  54.0509944 158.7513547  96.1488266  53.6232118 158.5697548
  96.9580003  54.2442387 159.6884338 103.3142793  54.0354009 153.3380747
 103.4630913  54.7189474 152.6847420 104.1209236  54.0159099 153.8530203
 106.0553102  44.7163246 166.2101151 105.1856411  45.0096812 165.9383740
 106.2912582  45.3003691 166.9308415 117.1320413  51.3415285 158.8133250
 117.9667304  51.7805089 158.9770810 117.2679542  50.8653938 157.9941496
 101.0695426  50.0619187 154.3441816 100.8241468  49.1581517 154.5422026
 101.2391340  50.0636337 153.4021294 100.3391073  45.7947544 151.8427978
  99.6460318  45.8691899 151.1868013 100.0942825  45.0307888 152.3649494
 109.0104730  37.3543146 159.2467468 109.2906483  36.6866335 159.8727895
 109.7955337  37.5472241 158.7342132 106.8138198  56.5302140 150.8092495
 106.2412165  57.1492327 150.3562966 107.3870992  57.0801501 151.3432417
 110.0335458  56.8139290 151.9401077 110.9666131  56.7484851 152.1433952
 109.9458671  57.6495557 151.4815610 112.6623475  56.1305160 148.9005024
 112.5837106  55.7965024 149.7940782 113.4833141  56.6226928 148.8996497
 107.1984997  47.8662952 148.1508547 108.1444101  47.7369161 148.2196965
 106.8199242  47.1277614 148.6277975 107.0823689  51.9180699 169.6109204
 108.0026699  52.0959298 169.8049251 107.0473272  50.9736744 169.4588903
 105.3827914  45.7912929 148.0863432 104.4759369  45.4946042 148.1626146
 105.6603895  45.4942747 147.2197719  96.3005854  47.1119292 158.5362479
  95.9808638  46.2584600 158.2436853  95.7539282  47.3267870 159.2920446
 100.0785762  49.8281733 162.2531985 100.2971771  50.7598841 162.2720019
 100.4911536  49.4689708 163.0386789 106.9989979  40.3349819 154.2407674
 106.1890708  39.9896903 154.6162920 107.6874396  40.0257362 154.8295285
 108.9280528  39.4127865 155.8631970 109.4811566  39.8323319 156.5221993
 109.1650614  38.4863613 155.9054926 104.1526698  42.6499864 148.2275411
 105.0145862  42.9754762 148.4871229 104.3377043  41.8631360 147.7148477
  96.1694114  50.7322204 160.5055600  95.4757586  50.3176156 159.9925555
  96.9167105  50.7742740 159.9089019 112.3059335  41.5228390 155.3710634
 111.7258004  42.1813194 154.9888687 112.0395268  40.7005735 154.9598052
 110.7562901  40.9233448 157.5731955 111.2562680  41.0349983 156.7646274
 111.3998509  40.6194501 158.2132763  98.0830857  50.6640457 158.3821615
  98.0601545  50.7628145 157.4303498  98.3931493  51.5105608 158.7038781
 100.7418235  52.7216612 162.4968230 101.6961488  52.6900555 162.4298161
 100.5430758  52.2607236 163.3118455 101.3317617  51.2917729 165.0639027
 102.1510506  51.7861807 165.0873865 101.6054424  50.3749697 165.0356595
 111.0884213  43.6828481 154.4266983 110.2010068  43.9678131 154.2087178
 111.5038202  43.5222244 153.5794260 114.4398749  43.7075002 158.1421322
 115.2159139  44.1971454 158.4145939 113.7146883  44.1333056 158.5993191
  99.0968463  58.2636232 159.5138427  98.9622931  57.5036633 158.9476425
  98.6800526  58.9877132 159.0467216 110.2327426  53.4473156 148.5215003
 110.9363276  53.6523158 149.1372658 109.5090075  54.0149917 148.7864086
 111.0625237  49.1983017 154.6417273 111.0060438  49.6551568 153.8024905
 111.6153579  48.4373701 154.4640116 114.8730043  44.9872749 155.4667392
 114.6166977  44.5869384 156.2975600 114.2482911  45.7016543 155.3417532
 119.1842380  47.7268822 157.9738684 118.6241938  47.7962011 158.7470246
 118.5785884  47.5509807 157.2538180 102.2537589  59.1605549 159.7256870
 102.1369973  60.1050981 159.6235560 101.4330035  58.8579111 160.1142669
 112.1414124  53.8855685 150.5713463 112.9759728  53.4536883 150.3890938
 111.9798467  53.7137698 151.4990357 111.7960016  50.3887798 151.9369802
 111.7408820  50.2232069 150.9958246 111.1706071  51.0963831 152.0931992
 105.1056141  39.8895907 151.5155120 105.0934811  40.8337747 151.6723391
 105.9979563  39.7066052 151.2214582 103.2792103  59.8133811 162.9412799
 104.1819350  59.8457421 163.2579293 103.0529473  58.8834262 162.9559134
 105.0345705  58.5664797 159.6022877 104.0841336  58.5666659 159.4887249
 105.3378192  57.8197532 159.0858912 108.9208261  36.4838684 155.7701057
 108.1540657  35.9297170 155.9157740 109.3318966  36.5560552 156.6315209
 120.7698399  64.4025336 160.6668640 121.4076809  64.2832083 159.9631980
 120.6519242  65.3506180 160.7256592 117.5788105  64.3552764 160.6030164
 117.2406617  64.2393829 159.7150699 118.4477873  63.9543929 160.5831170
 113.4374921  66.2088240 156.5927055 112.8739786  66.1178177 155.8243343
 113.3227316  65.3888145 157.0729548 118.0607888  65.5087616 166.5616370
 118.0496529  65.1140414 165.6896873 118.2228528  64.7753688 167.1550141
 110.9839353  67.7039432 159.4311276 111.7760645  67.3630257 159.0157575
 111.2236003  67.8134407 160.3513429 119.0174480  69.8759208 151.9041520
 118.3662459  70.4613288 151.5175534 119.8118842  70.4065403 151.9636558
 112.9430107  66.9648345 152.3028654 113.7160983  66.4177332 152.1641530
 113.2955506  67.8292595 152.5143116 114.7815149  68.2924727 165.5095554
 114.4905015  69.1970358 165.3942220 115.4172134  68.3341255 166.2239623
 115.7071356  65.6701576 162.0996913 116.3034928  65.4457598 161.3853876
 115.7646328  64.9286321 162.7022361 115.2796385  63.1241011 149.9347104
 115.5321905  62.6022533 149.1730567 114.3420944  62.9607157 150.0373788
 120.3239667  62.1276790 157.7421848 121.1102757  61.7096213 157.3912265
 120.5878372  63.0322882 157.9103496 120.4949745  67.5649640 152.4410504
 119.8595578  67.6384267 153.1531409 120.1647151  68.1543239 151.7629584
 125.7248094  62.0652023 158.6454826 126.4573266  61.4951240 158.8792656
 124.9687450  61.6773623 159.0861332 114.9992673  65.0269117 152.1371479
 114.8828931  64.3514021 152.8052564 115.1094933  64.5401491 151.3203632
 117.3424214  64.4879264 155.8418169 116.9782421  63.9609885 156.5531090
 118.1991330  64.0977733 155.6684654 116.9829701  59.5169164 150.8379517
 117.1504104  60.3849400 151.2049988 116.7926870  59.6796446 149.9140806
 119.7405034  67.9786143 162.5045347 119.4405757  68.8811182 162.3961155
 119.3956094  67.7118326 163.3566500 113.1917516  64.4299940 158.5382052
 112.2668012  64.2976154 158.7459744 113.4401929  65.2094159 159.0351994
 123.1402178  60.4968683 160.1842785 122.2319055  60.4284092 159.8901546
 123.0889774  60.9740628 161.0124610 116.9618922  61.9726822 151.8226184
 116.8418547  62.4183872 152.6611664 116.2671510  62.3212139 151.2639722
 110.5526327  64.0733213 159.3725841 110.6818708  64.3267692 160.2865253
 109.8723778  64.6660921 159.0530496 114.7225814  74.7430463 155.4716315
 114.6449844  75.6938288 155.5504796 114.1187458  74.3976336 156.1291241
 122.6603988  62.4448295 152.6506518 123.5721844  62.6775682 152.4754215
 122.1513635  63.0285339 152.0881597 115.4689416  64.7243782 167.6895649
 116.2104101  65.2628826 167.4130473 114.7626402  65.3510071 167.8467201
 120.9444756  66.8672923 166.2867811 121.3528112  66.4255333 165.5422443
 120.2222017  66.2925550 166.5402003 117.2975826  61.8045529 163.6601367
 118.1437021  62.2284943 163.8036016 117.2374464  61.1479154 164.3539931
 121.2673571  67.4274113 160.0420099 120.6382433  67.5919827 159.3396167
 120.8799233  67.8415723 160.8131063 125.1462802  68.3628551 157.3964463
 124.4613841  68.7427452 156.8461496 125.2306652  68.9723878 158.1296411
 122.4013734  66.0088510 163.9959807 122.6130629  66.6520270 163.3194188
 122.3543482  65.1750827 163.5281737 120.0039963  58.6206331 160.8996379
 119.1424442  58.9187584 161.1913116 120.0302398  58.8376730 159.9677411
 116.8201532  67.1648521 157.3070184 117.2839878  67.4436224 156.5174807
 116.5558330  66.2631966 157.1243275 113.7125613  66.7120003 160.2449948
 114.2826971  67.1407271 159.6067432 114.3033725  66.4302588 160.9434133
 115.7570418  63.2871674 154.1159750 116.4594462  63.7392717 154.5833676
 115.4251047  62.6455493 154.7439643 114.2050780  61.8783430 168.4910959
 113.5749441  62.5599711 168.7246356 114.0986868  61.7666512 167.5464097
 109.4995752  61.5455226 159.4176883 108.7094806  61.8012755 158.9416994
 109.9907000  62.3603564 159.5228924 123.5159562  68.8860466 162.1682164
 124.3377006  68.4840653 161.8864846 123.5121965  68.7828700 163.1198280
 111.4510498  61.9099806 156.3760360 110.6541661  62.0218500 156.8943856
 111.2236090  62.2486458 155.5101250 117.2816165  68.4344509 164.3242875
 117.3460598  68.8964916 165.1601046 116.5727089  67.8041874 164.4525184
 107.7833455  61.7985717 161.8491874 108.0341494  62.6832727 162.1149450
 108.3193004  61.6190318 161.0766966 116.9964183  70.1012616 154.1921855
 116.8609858  70.9464152 154.6206703 117.5373996  70.3031894 153.4287789
 110.4493580  67.6188054 154.7649780 110.9618101  68.4131305 154.9155345
 111.1016293  66.9214345 154.6983381 112.2588465  70.7353811 156.8472533
 112.4355093  71.6571775 156.6593517 113.0545299  70.4212230 157.2766913
 111.5440822  62.7818442 166.7234696 111.4294337  61.8803700 167.0241795
 110.6885339  63.0282139 166.3719513 113.3819781  72.2531984 162.8482875
 113.9327206  72.1249048 162.0759869 112.5431257  72.5526873 162.4977768
 117.1786952  68.5183112 167.1927107 117.7115288  67.7571400 166.9626415
 116.6501033  68.2256764 167.9351261 108.4142497  65.9476709 155.5409350
 109.2517719  66.3573717 155.3243058 108.5920765  65.0076151 155.5109544
 120.3106929  63.6151789 151.2293183 119.7953553  64.3856394 151.4681571
 120.0384238  62.9416925 151.8526245 117.8954040  58.4601490 156.2878422
 117.0395637  58.0708340 156.1084061 118.3080992  58.5393451 155.4278207
 119.4253187  55.9947833 160.6869982 118.9217983  55.9577968 159.8737787
 119.7183794  56.9040576 160.7466638 115.6696073  56.0786563 159.6936163
 116.5349070  55.8829372 159.3342053 115.7373582  55.8496915 160.6205520
 125.2841203  66.3684144 153.1646357 124.5070646  66.0295303 152.7201519
 125.9632684  66.3736767 152.4901322 120.0993233  61.4878881 153.0552965
 119.7943368  61.8025031 153.9063108 121.0523675  61.5660301 153.0980298
 118.5439664  67.6469105 154.7045919 118.0161026  66.9121864 154.3919156
 118.0427167  68.4243781 154.4585887 123.5232510  65.8418125 159.8212965
 122.8656185  66.5317387 159.9093094 124.3272910  66.2314557 160.1646951
 113.2758392  58.3088771 157.0652530 113.8502144  58.0863952 156.3325723
 113.8629374  58.3777465 157.8181131 122.3337969  64.1962498 157.8716907
 122.8469851  64.8292490 158.3738616 122.9839193  63.5963693 157.5060267
 113.6027979  60.3393232 151.0848415 112.7665291  60.6767919 151.4057690
 113.4632749  60.2042212 150.1475552 115.5781060  55.1830020 155.7927600
 114.9245472  54.8679037 155.1684214 115.5361534  54.5605760 156.5187422
 116.6892265  65.4649315 147.7080892 115.7819326  65.2338568 147.9072041
 117.1863297  64.6686934 147.8954873 119.5960343  74.1746822 150.6277578
 118.9222042  74.4778519 151.2362536 119.9826165  74.9775902 150.2783035
 118.8118800  61.6711953 160.1175247 117.8941361  61.8926900 159.9596935
 119.2278944  61.7458264 159.2586955 119.5953848  63.0703369 155.2477927
 120.3425667  63.5824766 154.9385049 119.8645437  62.7487422 156.1082321
 117.8680498  65.5661910 152.2304882 116.9591717  65.2820943 152.3277351
 117.8975582  65.9860988 151.3708189 123.0999765  69.1768499 155.9996049
 122.6462093  68.3359409 156.0561240 122.4693732  69.8129898 156.3370829
 122.0432685  60.1060485 157.2296717 121.3055442  59.5937872 157.5606959
 122.2959458  59.6660867 156.4179994 121.5432705  71.0144996 156.9345867
 121.8355679  71.5750053 156.2158233 122.0531325  71.3073557 157.6899027
 122.1444312  52.8836737 157.8238486 122.4503189  52.0234101 157.5364401
 122.8696917  53.4754358 157.6237480 108.4368668  63.2867424 156.2120084
 108.2393068  62.6936785 155.4871150 107.8815332  62.9819634 156.9296023
 116.4165392  63.1790530 158.3314677 116.4714002  62.2264367 158.2557154
 115.6056594  63.3349970 158.8155975 117.5656586  67.1070653 149.5692960
 117.1276016  66.3906512 149.1098598 118.3067027  67.3346768 149.0078052
 114.3557752  61.7967590 156.0905056 113.5425617  62.0961761 156.4970248
 114.8516746  61.4023279 156.8079538 116.5066330  71.7925347 158.0239321
 116.4642509  72.0186193 157.0947853 117.4229029  71.5588722 158.1725122
 119.9531964  62.2609415 164.9219950 120.3081351  62.4880888 165.7814416
 120.6004095  62.5927791 164.2997205 125.6829701  65.3827851 155.6269279
 125.5447599  65.5729447 154.6990468 125.3265919  66.1447233 156.0837330
 113.8471827  59.3685946 161.7066291 114.4871206  59.2274705 161.0089254
 113.0149357  59.0820459 161.3304893 125.7099080  67.4504378 160.6380550
 126.1435587  67.3579667 161.4863604 126.4230661  67.4261878 160.0000566
 114.6232131  68.6688376 157.8201283 115.4172729  68.1738696 157.6183858
 113.9123823  68.1406239 157.4568989 119.4426975  71.0506472 162.1713651
 119.4963997  71.6197408 162.9391367 118.5741756  71.2208357 161.8067688
 110.9314894  62.8131458 153.8961036 110.0012482  62.7515913 154.1130998
 111.0272366  62.2907411 153.0997677 110.8500443  59.3386271 156.4839278
 111.1107260  60.2531604 156.3748438 111.6717615  58.8710713 156.6335890
 112.3225368  60.7524028 163.6538102 112.9948422  60.5441390 163.0050751
 111.4955155  60.5546114 163.2143335 118.4015075  65.2166734 163.7300583
 119.3307135  65.3677893 163.5569550 117.9806105  65.3050754 162.8749229
 117.2003407  69.2417398 161.4999120 117.0614492  68.8736182 162.3725059
 116.4118003  69.7565038 161.3283078 117.7951559  74.3426495 152.8424657
 117.9703314  73.8714538 153.6570280 117.1084347  74.9692261 153.0705918
 118.7508622  68.6199001 158.8887958 118.4158454  68.5799771 159.7845608
 118.2512567  67.9543717 158.4158368 112.7252866  64.0266631 164.4140539
 112.5872664  63.2946870 165.0152078 113.6357789  63.9375531 164.1324727
 121.6867813  65.9655035 149.1625018 121.0696984  65.2401863 149.0658071
 121.2184302  66.7264395 148.8192092 115.3535166  63.7386590 163.9024219
 116.0634785  63.0979782 163.8610837 115.3104475  63.9899485 164.8250400
 114.0664100  60.7251808 165.7219858 113.5301457  60.2742546 166.3741455
 113.4780809  60.8597717 164.9790323 112.3612644  77.4915857 159.6164517
 112.6009242  78.1234381 160.2943536 111.5181840  77.1403897 159.9029876
 113.4766359  60.1840459 148.2846322 112.5995826  60.0629260 147.9208569
 113.9524112  59.3926538 148.0325211 123.3439352  68.6393527 165.0544778
 122.4566131  68.3019449 165.1771177 123.9137903  67.9076559 165.2913543
 104.9968499  64.9717619 158.3787829 105.6839539  64.6579349 157.7908845
 104.8416628  65.8758984 158.1055081 109.8003222  59.8607816 162.8072853
 109.7161410  59.2533485 162.0723263 108.9785928  60.3516834 162.8082349
 116.8740506  73.2994980 162.0206021 116.8010677  74.1049951 162.5325326
 116.4317899  73.4986946 161.1954042 116.6630285  72.5366750 155.5308843
 115.8797807  73.0788430 155.6247067 117.3623031  73.0540729 155.9303084
 119.9726935  58.3461379 158.1743048 120.4695635  57.5931342 157.8544118
 119.2013917  58.3825696 157.6086257 127.8256693  64.0501745 159.8161340
 127.8146569  64.9326460 159.4455273 126.9574072  63.6973296 159.6215877
 121.0556716  67.1033066 155.7481471 120.1212995  67.2234529 155.5786176
 121.2333385  66.2005533 155.4841481 116.5561904  60.4878762 157.9014733
 116.1859692  59.9349803 158.5895638 117.0520997  59.8836896 157.3489733
 124.4429268  62.9450386 156.2831506 124.9089720  63.7778377 156.2091808
 124.8936768  62.4795367 156.9876764 114.3851103  70.9476257 164.9969751
 115.0860562  71.5812740 165.1499145 113.9146218  71.2890989 164.2365390
 122.5105499  69.2894207 153.2817658 122.7865343  69.1750802 154.1911532
 121.6409997  68.8911692 153.2429831 122.1852389  63.5020865 162.8222301
 121.5323839  63.7496772 162.1674754 122.5632769  62.6885003 162.4884778
 119.1459563  73.5380558 156.9250471 119.3281957  72.7202214 157.3878224
 119.9692549  73.7548250 156.4875361 119.4801728  72.4648743 154.1865520
 120.0089495  71.9541198 153.5735682 119.7429948  72.1491273 155.0511053
 109.9818821  70.4812612 161.9300853 110.5672258  69.7356300 162.0628757
 109.7843659  70.7916569 162.8137517 112.8357476  73.5163860 156.9463296
 112.1667851  74.0009987 156.4627336 112.6970346  73.7633080 157.8606674
 104.5736476  63.0518213 160.6505296 104.6120575  62.5181803 161.4442415
 104.0676768  62.5253418 160.0316274 111.9527238  57.8982753 164.1467839
 112.0168564  58.7597584 163.7345236 111.8894358  57.2856755 163.4140197
 111.4279510  59.9705886 167.7940873 112.0551549  59.5882963 168.4078397
 110.5707429  59.7520088 168.1596565 108.2045053  61.7782315 153.7259228
 108.4998494  60.8692993 153.6726282 107.3033089  61.7570054 153.4040230
 120.1131132  73.4989579 160.5309636 119.9882271  72.6979319 160.0220582
 120.7710223  73.9935772 160.0423606 111.7339300  59.8538311 159.7086776
 111.0125886  60.4674279 159.5694250 112.5232556  60.3896076 159.6303422
 122.1766040  71.2998599 162.1589186 121.2296376  71.1803950 162.0867513
 122.5248813  70.4121097 162.2415448 114.5365614  57.1892738 165.9827428
 115.0600015  57.4355034 166.7453737 114.3177947  58.0212773 165.5630565
 109.9332895  59.4596412 153.8498553 109.6045601  58.5793791 153.6673659
 110.2872265  59.4044081 154.7374942 119.1812474  71.0951315 158.3593538
 119.0337436  70.1668022 158.5401109 120.0065967  71.1171406 157.8750614
 113.0474718  59.7469382 154.2174031 113.3870790  60.2755303 153.4952639
 113.4946838  60.0849788 154.9932597 122.7846595  71.9179874 159.4458411
 123.7093143  71.7122735 159.3082862 122.6161899  71.6696275 160.3547753
 115.7418159  58.1306433 163.6677099 115.4014979  57.3314246 164.0697779
 115.0357165  58.4308144 163.0953932 116.3934631  55.2155745 162.1204422
 117.2160700  54.7416223 161.9983312 116.6372694  55.9946229 162.6203108
 115.0342865  58.2444004 152.4167323 115.7551228  58.6225257 151.9131040
 114.4108169  58.9632881 152.5202301 119.1773988  58.9489153 153.3525656
 119.3937602  59.8313791 153.0514484 118.6968055  58.5575366 152.6231298
 113.9173209  61.9074866 159.9296400 113.7717790  62.2215169 160.8220682
 113.4398413  62.5259766 159.3767299 115.7769592  58.8977414 159.9777290
 115.7631161  58.0018507 159.6409588 116.4942020  58.9048078 160.6115576
 117.6295723  59.3314754 162.0230417 117.3713501  60.2531825 162.0214748
 117.0980763  58.9345189 162.7130881 122.5741912  72.4365541 154.8020503
 122.7478789  71.8711964 154.0494355 123.0670803  73.2366436 154.6199993
 108.3918871  64.4480210 162.8684062 107.8472340  65.2240018 163.0004336
 109.2698221  64.7951015 162.7103183 115.1806488  57.7791794 155.2464860
 115.3022399  56.8508440 155.4455748 114.8908530  57.7930480 154.3343175
 118.0497679  55.4646705 158.3831580 118.0719375  55.5286038 157.4283559
 118.4665738  54.6251213 158.5772086 128.4281303  65.2001964 156.4210802
 128.8712449  64.4509289 156.0229926 127.5507813  65.1912101 156.0384534
 123.5617084  71.7532306 151.9017401 124.2567989  72.3738998 152.1204716
 123.9040234  70.9027657 152.1769779 109.1784893  63.5750107 165.7614218
 108.4366629  63.7232742 166.3478849 108.8577638  63.8358372 164.8980968
 125.4608507  69.2032011 153.4304732 125.9859831  69.5419284 152.7054052
 125.3730860  68.2679026 153.2467866 117.1449168  75.2703994 157.7899985
 116.7054158  74.7780373 158.4832842 117.8957285  74.7276962 157.5492060
 109.6241507  71.4615535 157.7924613 110.4499527  71.1619307 157.4123257
 109.2735559  70.6923158 158.2414402 114.5923040  70.8142004 159.8622287
 113.9703049  70.1512709 159.5624514 115.2627907  70.8403135 159.1795934
 107.8250112  69.3801862 158.7513547 106.9882020  68.9524036 158.5697548
 107.7973757  69.5734305 159.6884338 114.1536547  69.3645927 153.3380747
 114.3024667  70.0481391 152.6847420 114.9602991  69.3451017 153.8530203
 116.8946856  60.0455164 166.2101151 116.0250166  60.3388730 165.9383740
 117.1306336  60.6295609 166.9308415 127.9714168  66.6707202 158.8133250
 128.8061059  67.1097007 158.9770810 128.1073296  66.1945856 157.9941496
 111.9089180  65.3911105 154.3441816 111.6635222  64.4873435 154.5422026
 112.0785095  65.3928255 153.4021294 111.1784828  61.1239462 151.8427978
 110.4854073  61.1983817 151.1868013 110.9336579  60.3599806 152.3649494
 119.8498484  52.6835063 159.2467468 120.1300238  52.0158252 159.8727895
 120.6349091  52.8764159 158.7342132 117.6531953  71.8594057 150.8092495
 117.0805920  72.4784244 150.3562966 118.2264746  72.4093419 151.3432417
 120.8729212  72.1431207 151.9401077 121.8059886  72.0776769 152.1433952
 120.7852425  72.9787474 151.4815610 123.5017229  71.4597078 148.9005024
 123.4230861  71.1256941 149.7940782 124.3226896  71.9518846 148.8996497
 118.0378751  63.1954870 148.1508547 118.9837856  63.0661078 148.2196965
 117.6592996  62.4569532 148.6277975 116.2221668  61.1204846 148.0863432
 115.3153124  60.8237959 148.1626146 116.4997649  60.8234665 147.2197719
 107.1399609  62.4411210 158.5362479 106.8202393  61.5876518 158.2436853
 106.5933037  62.6559788 159.2920446 110.9179516  65.1573651 162.2531985
 111.1365526  66.0890759 162.2720019 111.3305290  64.7981625 163.0386789
 117.8383734  55.6641736 154.2407674 117.0284462  55.3188821 154.6162920
 118.5268151  55.3549280 154.8295285 119.7674282  54.7419783 155.8631970
 120.3205321  55.1615236 156.5221993 120.0044369  53.8155531 155.9054926
 114.9920453  57.9791782 148.2275411 115.8539617  58.3046680 148.4871229
 115.1770797  57.1923278 147.7148477 107.0087869  66.0614121 160.5055600
 106.3151340  65.6468074 159.9925555 107.7560860  66.1034658 159.9089019
 123.1453089  56.8520308 155.3710634 122.5651758  57.5105112 154.9888687
 122.8789022  56.0297653 154.9598052 121.5956656  56.2525366 157.5731955
 122.0956434  56.3641900 156.7646274 122.2392264  55.9486419 158.2132763
 115.6538652  64.1603995 170.4599796 115.1705733  64.9604356 170.6663685
 115.7399591  64.1711940 169.5067240 108.9224611  65.9932375 158.3821615
 108.8995299  66.0920062 157.4303498 109.2325248  66.8397526 158.7038781
 111.5811989  68.0508530 162.4968230 112.5355243  68.0192473 162.4298161
 111.3824513  67.5899154 163.3118455 112.1711371  66.6209646 165.0639027
 112.9904260  67.1153725 165.0873865 112.4448179  65.7041614 165.0356595
 121.9277967  59.0120399 154.4266983 121.0403822  59.2970049 154.2087178
 122.3431956  58.8514162 153.5794260 125.2792504  59.0366920 158.1421322
 126.0552894  59.5263372 158.4145939 124.5540638  59.4624974 158.5993191
 109.9362218  73.5928150 159.5138427 109.8016686  72.8328551 158.9476425
 109.5194280  74.3169050 159.0467216 121.0721181  68.7765073 148.5215003
 121.7757031  68.9815076 149.1372658 120.3483830  69.3441835 148.7864086
 121.9018991  64.5274934 154.6417273 121.8454193  64.9843486 153.8024905
 122.4547334  63.7665619 154.4640116 125.7123797  60.3164666 155.4667392
 125.4560731  59.9161302 156.2975600 125.0876665  61.0308460 155.3417532
 130.0236135  63.0560740 157.9738684 129.4635693  63.1253929 158.7470246
 129.4179638  62.8801724 157.2538180 113.0931344  74.4897467 159.7256870
 112.9763728  75.4342899 159.6235560 112.2723790  74.1871028 160.1142669
 122.9807878  69.2147602 150.5713463 123.8153482  68.7828801 150.3890938
 122.8192221  69.0429616 151.4990357 122.6353770  65.7179716 151.9369802
 122.5802574  65.5523987 150.9958246 122.0099826  66.4255749 152.0931992
 107.4246285  60.9547780 165.7631224 108.0705149  60.4446734 166.2518449
 107.2163437  61.6916462 166.3374650 115.9449896  55.2187825 151.5155120
 115.9328566  56.1629665 151.6723391 116.8373318  55.0357970 151.2214582
 114.1185858  75.1425729 162.9412799 115.0213105  75.1749339 163.2579293
 113.8923228  74.2126180 162.9559134 115.8739460  73.8956715 159.6022877
 114.9235091  73.8958577 159.4887249 116.1771946  73.1489450 159.0858912
 119.7602015  51.8130601 155.7701057 118.9934411  51.2589088 155.9157740
 120.1712720  51.8852470 156.6315209 124.2768675  81.5380158 156.5927055
 123.7133540  81.4470095 155.8243343 124.1621070  80.7180062 157.0729548
 129.8568234  85.2051126 151.9041520 129.2056214  85.7905206 151.5175534
 130.6512597  85.7357321 151.9636558 123.7823861  82.2940263 152.3028654
 124.5554737  81.7469250 152.1641530 124.1349260  83.1584512 152.5143116
 126.1190139  78.4532929 149.9347104 126.3715660  77.9314450 149.1730567
 125.1814698  78.2899074 150.0373788 131.3343499  82.8941558 152.4410504
 130.6989332  82.9676184 153.1531409 131.0040906  83.4835157 151.7629584
 125.8386428  80.3561035 152.1371479 125.7222686  79.6805938 152.8052564
 125.9488688  79.8693409 151.3203632 128.1817969  79.8171182 155.8418169
 127.8176176  79.2901803 156.5531090 129.0385085  79.4269651 155.6684654
 127.8223456  74.8461082 150.8379517 127.9897858  75.7141318 151.2049988
 127.6320625  75.0088363 149.9140806 127.8012677  77.3018739 151.8226184
 127.6812302  77.7475790 152.6611664 127.1065265  77.6504057 151.2639722
 133.4997743  77.7740212 152.6506518 134.4115599  78.0067599 152.4754215
 132.9907390  78.3577257 152.0881597 126.5964173  78.6163591 154.1159750
 127.2988216  79.0684635 154.5833676 126.2644801  77.9747410 154.7439643
 120.3389507  76.8747144 159.4176883 119.5488561  77.1304673 158.9416994
 120.8300754  77.6895482 159.5228924 122.2904252  77.2391723 156.3760360
 121.4935416  77.3510418 156.8943856 122.0629844  77.5778375 155.5101250
 121.2887335  82.9479972 154.7649780 121.8011856  83.7423222 154.9155345
 121.9410048  82.2506262 154.6983381 119.2536252  81.2768626 155.5409350
 120.0911474  81.6865635 155.3243058 119.4314519  80.3368068 155.5109544
 131.1500684  78.9443707 151.2293183 130.6347307  79.7148312 151.4681571
 130.8777992  78.2708843 151.8526245 128.7347795  73.7893408 156.2878422
 127.8789391  73.4000258 156.1084061 129.1474747  73.8685369 155.4278207
 126.5089827  71.4078481 159.6936163 127.3742824  71.2121289 159.3342053
 126.5767336  71.1788832 160.6205520 130.9386987  76.8170799 153.0552965
 130.6337123  77.1316948 153.9063108 131.8917429  76.8952219 153.0980298
 129.3833419  82.9761022 154.7045919 128.8554780  82.2413782 154.3919156
 128.8820922  83.7535699 154.4585887 124.1152146  73.6380689 157.0652530
 124.6895898  73.4155870 156.3325723 124.7023129  73.7069383 157.8181131
 124.4421734  75.6685150 151.0848415 123.6059046  76.0059836 151.4057690
 124.3026503  75.5334129 150.1475552 126.4174814  70.5121938 155.7927600
 125.7639227  70.1970955 155.1684214 126.3755288  69.8897678 156.5187422
 127.5286019  80.7941233 147.7080892 126.6213081  80.5630486 147.9072041
 128.0257051  79.9978852 147.8954873 130.4347602  78.3995287 155.2477927
 131.1819421  78.9116684 154.9385049 130.7039192  78.0779339 156.1082321
 128.7074252  80.8953827 152.2304882 127.7985472  80.6112860 152.3277351
 128.7369336  81.3152906 151.3708189 132.8826439  75.4352403 157.2296717
 132.1449196  74.9229789 157.5606959 133.1353213  74.9952785 156.4179994
 132.9838067  68.2128655 157.8238486 133.2896944  67.3526018 157.5364401
 133.7090672  68.8046275 157.6237480 119.2762423  78.6159342 156.2120084
 119.0786823  78.0228702 155.4871150 118.7209087  78.3111552 156.9296023
 128.4050340  82.4362571 149.5692960 127.9669770  81.7198430 149.1098598
 129.1460781  82.6638686 149.0078052 125.1951506  77.1259508 156.0905056
 124.3819372  77.4253678 156.4970248 125.6910501  76.7315197 156.8079538
 121.7708649  78.1423376 153.8961036 120.8406237  78.0807831 154.1130998
 121.8666121  77.6199328 153.0997677 121.6894198  74.6678188 156.4839278
 121.9501015  75.5823522 156.3748438 122.5111370  74.2002631 156.6335890
 132.5261568  81.2946953 149.1625018 131.9090739  80.5693781 149.0658071
 132.0578056  82.0556313 148.8192092 124.3160114  75.5132377 148.2846322
 123.4389580  75.3921178 147.9208569 124.7917867  74.7218455 148.0325211
 115.8362254  80.3009537 158.3787829 116.5233294  79.9871267 157.7908845
 115.6810383  81.2050901 158.1055081 120.6396976  75.1899733 162.8072853
 120.5555165  74.5825403 162.0723263 119.8179682  75.6808752 162.8082349
 130.8120690  73.6753297 158.1743048 131.3089389  72.9223259 157.8544118
 130.0407671  73.7117614 157.6086257 127.3955659  75.8170680 157.9014733
 127.0253446  75.2641720 158.5895638 127.8914751  75.2128813 157.3489733
 115.4130230  78.3810130 160.6505296 115.4514330  77.8473721 161.4442415
 114.9070523  77.8545336 160.0316274 119.0438808  77.1074232 153.7259228
 119.3392249  76.1984911 153.6726282 118.1426843  77.0861972 153.4040230
 122.5733055  75.1830229 159.7086776 121.8519640  75.7966197 159.5694250
 123.3626310  75.7187994 159.6303422 120.7726649  74.7888330 153.8498553
 120.4439355  73.9085709 153.6673659 121.1266020  74.7335999 154.7374942
 123.8868472  75.0761300 154.2174031 124.2264545  75.6047221 153.4952639
 124.3340593  75.4141706 154.9932597 125.8736620  73.5735921 152.4167323
 126.5944982  73.9517174 151.9131040 125.2501924  74.2924798 152.5202301
 130.0167742  74.2781070 153.3525656 130.2331357  75.1605708 153.0514484
 129.5361810  73.8867284 152.6231298 126.6163347  74.2269332 159.9777290
 126.6024915  73.3310425 159.6409588 127.3335775  74.2339995 160.6115576
 126.0200243  73.1083712 155.2464860 126.1416154  72.1800358 155.4455748
 125.7302285  73.1222398 154.3343175 128.8891433  70.7938622 158.3831580
 128.9113130  70.8577955 157.4283559 129.3059492  69.9543131 158.5772086
 124.9930302  84.6937845 153.3380747 125.1418422  85.3773309 152.6847420
 125.7996745  84.6742935 153.8530203 122.7482935  80.7203022 154.3441816
 122.5028976  79.8165352 154.5422026 122.9178849  80.7220173 153.4021294
 122.0178582  76.4531380 151.8427978 121.3247827  76.5275735 151.1868013
 121.7730334  75.6891723 152.3649494 130.6892239  68.0126981 159.2467468
 130.9693992  67.3450170 159.8727895 131.4742846  68.2056077 158.7342132
 128.4925707  87.1885975 150.8092495 127.9199674  87.8076162 150.3562966
 129.0658501  87.7385337 151.3432417 134.3410984  86.7888995 148.9005024
 134.2624615  86.4548859 149.7940782 135.1620650  87.2810763 148.8996497
 128.8772506  78.5246788 148.1508547 129.8231610  78.3952996 148.2196965
 128.4986751  77.7861450 148.6277975 127.0615423  76.4496764 148.0863432
 126.1546878  76.1529877 148.1626146 127.3391404  76.1526582 147.2197719
 117.9793363  77.7703128 158.5362479 117.6596147  76.9168436 158.2436853
 117.4326791  77.9851706 159.2920446 128.6777488  70.9933654 154.2407674
 127.8678217  70.6480739 154.6162920 129.3661905  70.6841198 154.8295285
 130.6068037  70.0711701 155.8631970 131.1599075  70.4907154 156.5221993
 130.8438123  69.1447449 155.9054926 125.8314207  73.3083699 148.2275411
 126.6933371  73.6338598 148.4871229 126.0164552  72.5215195 147.7148477
 133.9846844  72.1812226 155.3710634 133.4045513  72.8397030 154.9888687
 133.7182777  71.3589570 154.9598052 132.4350410  71.5817284 157.5731955
 132.9350189  71.6933818 156.7646274 133.0786018  71.2778336 158.2132763
 119.7618366  81.3224293 158.3821615 119.7389054  81.4211980 157.4303498
 120.0719002  82.1689444 158.7038781 132.7671722  74.3412316 154.4266983
 131.8797577  74.6261967 154.2087178 133.1825711  74.1806080 153.5794260
 131.9114935  84.1056991 148.5215003 132.6150785  84.3106993 149.1372658
 131.1877584  84.6733753 148.7864086 132.7412746  79.8566852 154.6417273
 132.6847947  80.3135404 153.8024905 133.2941088  79.0957537 154.4640116
 136.5517552  75.6456584 155.4667392 136.2954486  75.2453220 156.2975600
 135.9270420  76.3600378 155.3417532 133.8201633  84.5439520 150.5713463
 134.6547237  84.1120719 150.3890938 133.6585976  84.3721534 151.4990357
 133.4747525  81.0471633 151.9369802 133.4196329  80.8815905 150.9958246
 132.8493580  81.7547666 152.0931992 126.7843650  70.5479742 151.5155120
 126.7722320  71.4921582 151.6723391 127.6767072  70.3649888 151.2214582
 130.5995770  67.1422519 155.7701057 129.8328166  66.5881006 155.9157740
 131.0106475  67.2144388 156.6315209  97.3386972  16.2237495 138.6286827
  96.6874952  16.8091576 138.2420841  98.1331335  16.7543690 138.6881864
  91.2642599  13.3126632 139.0273961  92.0373475  12.7655620 138.8886837
  91.6167998  14.1770882 139.2388422  93.6008877   9.4719299 136.6592411
  93.8534397   8.9500820 135.8975874  92.6633436   9.3085444 136.7619095
  98.8162237  13.9127927 139.1655811  98.1808070  13.9862554 139.8776716
  98.4859643  14.5021526 138.4874890  93.3205166  11.3747405 138.8616786
  93.2041424  10.6992308 139.5297870  93.4307425  10.8879778 138.0448939
  95.3042193   5.8647451 137.5624824  95.4716596   6.7327688 137.9295295
  95.1139363   6.0274733 136.6386113  95.2831414   8.3205109 138.5471491
  95.1631040   8.7662160 139.3856971  94.5884003   8.6690426 137.9885029
  93.0438306  21.0908751 142.1961622  92.9662336  22.0416576 142.2750102
  92.4399950  20.7454623 142.8536548 100.9816480   8.7926582 139.3751825
 101.8934337   9.0253969 139.1999522 100.4726128   9.3763626 138.8126903
 103.4675295  14.7106838 144.1209770 102.7826333  15.0905740 143.5706803
 103.5519144  15.3202165 144.8541718  95.1414025  13.5126809 144.0315491
  95.6052370  13.7914512 143.2420114  94.8770823  12.6110253 143.8488582
  94.0782911   9.6349961 140.8405056  94.7806954  10.0871005 141.3078983
  93.7463539   8.9933780 141.4684949  95.3176675  16.4490904 140.9167161
  95.1822350  17.2942439 141.3452009  95.8586488  16.6510181 140.1533095
  88.7706073  13.9666342 141.4895087  89.2830593  14.7609592 141.6400651
  89.4228786  13.2692632 141.4228688  90.5800957  17.0832098 143.5717840
  90.7567586  18.0050063 143.3838824  91.3757791  16.7690517 144.0012220
  98.6319422   9.9630077 137.9538490  98.1166045  10.7334681 138.1926877
  98.3596730   9.2895213 138.5771552 103.6053696  12.7162431 139.8891664
 102.8283139  12.3773591 139.4446826 104.2845177  12.7215054 139.2146629
  98.4205725   7.8357169 139.7798271  98.1155860   8.1503318 140.6308414
  99.3736167   7.9138589 139.8225604  96.8652157  13.9947392 141.4291225
  96.3373518  13.2600152 141.1164463  96.3639659  14.7722068 141.1831194
 101.8445003  12.1896412 146.5458272 101.1868677  12.8795674 146.6338400
 102.6485402  12.5792844 146.8892258 100.6550461  10.5440785 144.5962213
 101.1682343  11.1770777 145.0983923 101.3051685   9.9441981 144.2305573
  91.9240471   6.6871519 137.8093722  91.0877784   7.0246206 138.1302997
  91.7845241   6.5520499 136.8720859  95.0104757  11.8127602 134.4326198
  94.1031819  11.5816856 134.6317347  95.5075789  11.0165221 134.6200180
  97.9172836  20.5225109 137.3522884  97.2434534  20.8256806 137.9607842
  98.3038658  21.3254190 137.0028341  97.9166340   9.4181656 141.9723234
  98.6638159   9.9303054 141.6630356  98.1857930   9.0965709 142.8327628
  96.1892990  11.9140197 138.9550188  95.2804210  11.6299230 139.0522658
  96.2188074  12.3339276 138.0953495 101.4212258  15.5246787 142.7241356
 100.9674585  14.6837696 142.7806546 100.7906224  16.1608185 143.0616136
  99.8645197  17.3623283 143.6591174 100.1568171  17.9228340 142.9403540
 100.3743817  17.6551844 144.4144333  95.8869078  13.4548941 136.2938267
  95.4488508  12.7384800 135.8343904  96.6279519  13.6825056 135.7323358
  94.8278822  18.1403634 144.7484627  94.7855001  18.3664481 143.8193159
  95.7441521  17.9067009 144.8970428 104.0042193  11.7306138 142.3514585
 103.8660091  11.9207734 141.4235775 103.6478412  12.4925521 142.8082637
 104.0311572  13.7982665 147.3625857 104.4648079  13.7057954 148.2108911
 104.7443153  13.7740165 146.7245873  96.1164051  20.6904782 139.5669964
  96.2915807  20.2192825 140.3815586  95.4296839  21.3170548 139.7951224
 100.0080306  12.3133322 135.8870325  99.3909476  11.5880151 135.7903377
  99.5396794  13.0742683 135.5437399  90.6825136  23.8394145 146.3409824
  90.9221734  24.4712669 147.0188842  89.8394333  23.4882185 146.6275183
  91.7978852   6.5318747 135.0091629  90.9208318   6.4107547 134.6453875
  92.2736605   5.7404825 134.7570517  94.9842778  18.8845037 142.2554149
  94.2010300  19.4266717 142.3492374  95.6835523  19.4019017 142.6548390
 106.1469185  10.3980032 146.5406646 106.1359061  11.2804747 146.1700579
 105.2786565  10.0451583 146.3461183  99.3769208  13.4511354 142.4726778
  98.4425487  13.5712816 142.3031482  99.5545877  12.5483820 142.2086788
 102.7641760   9.2928673 143.0076812 103.2302212  10.1256665 142.9337115
 103.2149260   8.8273655 143.7122071 100.8317991  15.6372494 140.0062964
 101.1077835  15.5229089 140.9156838  99.9622490  15.2389979 139.9675137
  97.4672055  19.8858845 143.6495778  97.6494449  19.0680501 144.1123530
  98.2905041  20.1026537 143.2120668  97.8014220  18.8127030 140.9110826
  98.3301987  18.3019485 140.2980988  98.0642440  18.4969560 141.7756359
  91.1569968  19.8642147 143.6708602  90.4880344  20.3488275 143.1872642
  91.0182838  20.1111367 144.5851981  98.4343624  19.8467866 147.2554943
  98.3094764  19.0457606 146.7465888  99.0922715  20.3414059 146.7668913
 100.4978533  17.6476886 148.8834493  99.5508868  17.5282237 148.8112820
 100.8461306  16.7599384 148.9660754  97.5024966  17.4429602 145.0838845
  97.3549928  16.5146310 145.2646415  98.3278459  17.4649693 144.5995920
 101.1059088  18.2658161 146.1703718 102.0305635  18.0601022 146.0328169
 100.9374391  18.0174562 147.0793059  97.4986480   5.2967440 140.0770962
  97.7150095   6.1792078 139.7759791  97.0180547   4.9053653 139.3476604
 100.8954404  18.7843828 141.5265809 101.0691281  18.2190251 140.7739662
 101.3883295  19.5844723 141.3445299 106.7493795  11.5480251 143.1456109
 107.1924941  10.7987577 142.7475232 105.8720305  11.5390388 142.7629841
 101.8829576  18.1010593 138.6262708 102.5780481  18.7217286 138.8450022
 102.2252727  17.2505944 138.9015085 103.7821000  15.5510298 140.1550038
 104.3072324  15.8897571 139.4299358 103.6943352  14.6157314 139.9713173
  95.4661660  21.6182282 144.5145292  95.0266651  21.1258660 145.2078148
  96.2169777  21.0755249 144.2737367  92.4749039  15.7124214 140.0626054
  92.6237160  16.3959679 139.4092727  93.2815483  15.6929304 140.5775510
 106.2926660  13.0185490 145.5378557 107.1273551  13.4575294 145.7016117
 106.4285789  12.5424143 144.7186802  95.9744445  18.2072345 137.5337801
  95.4018412  18.8262532 137.0808273  96.5477239  18.7571706 138.0677723
  99.1941705  18.4909495 138.6646383 100.1272378  18.4255056 138.8679259
  99.1064917  19.3265762 138.2060916 101.8229721  17.8075365 135.6250331
 101.7443353  17.4735229 136.5186089 102.6439388  18.2997133 135.6241803
  96.3591243   9.5433157 134.8753854  97.3050348   9.4139365 134.9442272
  95.9805488   8.8047819 135.3523282  94.5434161   7.4683134 134.8108739
  93.6365616   7.1716246 134.8871453  94.8210142   7.1712952 133.9443025
  93.3132945   4.3270069 134.9520718  94.1752109   4.6524967 135.2116535
  93.4983289   3.5401565 134.4393784 100.2490460   5.3598686 141.1512289
  99.3616315   5.6448336 140.9332484 100.6644449   5.1992449 140.3039566
  99.3933673  15.1243360 135.2460309 100.0969523  15.3293363 135.8617965
  98.6696322  15.6920122 135.5109393 100.2231483  10.8753222 141.3662580
 100.1666685  11.3321773 140.5270212 100.7759826  10.1143906 141.1885422
 104.0336289   6.6642954 142.1912699 103.7773224   6.2639589 143.0220907
 103.4089157   7.3786748 142.0662838 108.3448627   9.4039027 144.6983990
 107.7848185   9.4732216 145.4715552 107.7392131   9.2280011 143.9783487
  91.4143836  20.8375754 146.4502177  91.2976220  21.7821186 146.3480867
  90.5936282  20.5349315 146.8387976 101.3020371  15.5625890 137.2958769
 102.1365974  15.1307088 137.1136244 101.1404713  15.3907903 138.2235664
 100.9566263  12.0658003 138.6615109 100.9015067  11.9002274 137.7203553
 100.3312318  12.7734036 138.8177298  94.1951952  20.2435002 146.3268184
  93.2447583  20.2436864 146.2132556  94.4984438  19.4967737 145.8104218
 109.9304646  26.0795541 147.3913946 110.5683056  25.9602288 146.6877286
 109.8125489  27.0276385 147.4501898 106.7394352  26.0322969 147.3275471
 106.4012863  25.9164034 146.4396006 107.6084120  25.6314134 147.3076477
 102.5981168  27.8858445 143.3172362 102.0346033  27.7948382 142.5488650
 102.4833563  27.0658350 143.7974854 107.2214135  27.1857821 153.2861676
 107.2102776  26.7910619 152.4142180 107.3834774  26.4523893 153.8795448
 100.1445600  29.3809637 146.1556582 100.9366891  29.0400462 145.7402882
 100.3842250  29.4904612 147.0758736 108.1780726  31.5529413 138.6286827
 107.5268706  32.1383493 138.2420841 108.9725089  32.0835608 138.6881864
 102.1036353  28.6418550 139.0273961 102.8767229  28.0947537 138.8886837
 102.4561752  29.5062799 139.2388422 103.9421396  29.9694932 152.2340860
 103.6511262  30.8740563 152.1187527 104.5778380  30.0111460 152.9484930
 104.8677603  27.3471781 148.8242220 105.4641175  27.1227803 148.1099183
 104.9252574  26.6056526 149.4267668 104.4402631  24.8011216 136.6592411
 104.6928152  24.2792738 135.8975874 103.5027190  24.6377362 136.7619095
 109.4845914  23.8046995 144.4667154 110.2709003  23.3866418 144.1157571
 109.7484618  24.7093087 144.6348803 109.6555991  29.2419845 139.1655811
 109.0201824  29.3154471 139.8776716 109.3253398  29.8313444 138.4874890
 114.8854341  23.7422228 145.3700133 115.6179513  23.1721445 145.6037962
 114.1293697  23.3543828 145.8106638 104.1598920  26.7039322 138.8616786
 104.0435178  26.0284226 139.5297870 104.2701180  26.2171696 138.0448939
 106.5030461  26.1649469 142.5663475 106.1388668  25.6380090 143.2776397
 107.3597577  25.7747938 142.3929961 106.1435948  21.1939369 137.5624824
 106.3110350  22.0619605 137.9295295 105.9533117  21.3566651 136.6386113
 108.9011281  29.6556348 149.2290654 108.6012004  30.5581387 149.1206461
 108.5562341  29.3888531 150.0811807 102.3523763  26.1070145 145.2627358
 101.4274259  25.9746359 145.4705050 102.6008176  26.8864364 145.7597301
 112.3008425  22.1738888 146.9088091 111.3925302  22.1054297 146.6146852
 112.2496021  22.6510833 147.7369917 106.1225169  23.6497026 138.5471491
 106.0024794  24.0954077 139.3856971 105.4277757  23.9982344 137.9885029
  99.7132574  25.7503418 146.0971148  99.8424955  26.0037897 147.0110559
  99.0330025  26.3431126 145.7775803 103.8832061  36.4200668 142.1961622
 103.8056091  37.3708493 142.2750102 103.2793705  36.0746541 142.8536548
 111.8210235  24.1218500 139.3751825 112.7328091  24.3545886 139.1999522
 111.3119882  24.7055544 138.8126903 104.6295663  26.4013987 154.4140956
 105.3710347  26.9399031 154.1375779 103.9232648  27.0280276 154.5712507
 110.1051003  28.5443128 153.0113117 110.5134359  28.1025538 152.2667750
 109.3828264  27.9695755 153.2647310 106.4582073  23.4815734 150.3846674
 107.3043268  23.9055148 150.5281323 106.3980710  22.8249359 151.0785237
 110.4279817  29.1044318 146.7665406 109.7988680  29.2690032 146.0641474
 110.0405479  29.5185928 147.5376370 114.3069049  30.0398756 144.1209770
 113.6220087  30.4197657 143.5706803 114.3912898  30.6494083 144.8541718
 111.5619981  27.6858715 150.7205113 111.7736876  28.3290475 150.0439494
 111.5149729  26.8521032 150.2527043 109.1646210  20.2976536 147.6241685
 108.3030689  20.5957789 147.9158423 109.1908644  20.5146935 146.6922718
 105.9807779  28.8418726 144.0315491 106.4446125  29.1206429 143.2420114
 105.7164577  27.9402171 143.8488582 102.8731860  28.3890208 146.9695254
 103.4433217  28.8177476 146.3312739 103.4639972  28.1072792 147.6679440
 104.9176665  24.9641879 140.8405056 105.6200709  25.4162922 141.3078983
 104.5857294  24.3225697 141.4684949  98.6601999  23.2225431 146.1422190
  97.8701053  23.4782960 145.6662300  99.1513247  24.0373769 146.2474230
 112.6765809  30.5630670 148.8927471 113.4983252  30.1610858 148.6110152
 112.6728212  30.4598905 149.8443586 100.6116745  23.5870010 143.1005667
  99.8147908  23.6988705 143.6189162 100.3842337  23.9256663 142.2346557
 106.4422412  30.1114714 151.0488181 106.5066845  30.5735121 151.8846353
 105.7333336  29.4812079 151.1770491  96.9439702  23.4755922 148.5737181
  97.1947741  24.3602932 148.8394757  97.4799251  23.2960523 147.8012272
 106.1570430  31.7782821 140.9167161 106.0216105  32.6234357 141.3452009
 106.6980242  31.9802099 140.1533095  99.6099827  29.2958259 141.4895087
 100.1224348  30.0901509 141.6400651 100.2622540  28.5984550 141.4228688
 101.4194712  32.4124016 143.5717840 101.5961340  33.3341980 143.3838824
 102.2151545  32.0982435 144.0012220 107.7838906  32.4006388 155.0467504
 107.3402760  31.6142766 154.7288408 108.4456120  32.5885538 154.3811394
 102.5426027  33.9302189 149.5728182 103.0933453  33.8019253 148.8005176
 101.7037503  34.2297078 149.2223075 109.8820144  32.6809188 153.0748905
 109.8638620  33.5018069 152.5829174 110.8040064  32.5563263 153.2999046
 106.3393198  30.1953317 153.9172413 106.8721535  29.4341605 153.6871721
 105.8107280  29.9026969 154.6596568  97.5748744  27.6246914 142.2654657
  98.4123966  28.0343922 142.0488365  97.7527012  26.6846356 142.2354851
 109.4713176  25.2921994 137.9538490 108.9559800  26.0626599 138.1926877
 109.1990485  24.6187130 138.5771552 107.0560287  20.1371695 143.0123728
 106.2001883  19.7478545 142.8329367 107.4687239  20.2163656 142.1523514
 108.5859434  17.6718038 147.4115288 108.0824229  17.6348173 146.5983093
 108.8790041  18.5810781 147.4711945 104.8302320  17.7556768 146.4181470
 105.6955316  17.5599577 146.0587359 104.8979829  17.5267120 147.3450827
 114.4447450  28.0454349 139.8891664 113.6676893  27.7065508 139.4446826
 115.1238931  28.0506972 139.2146629 109.2599479  23.1649086 139.7798271
 108.9549615  23.4795235 140.6308414 110.2129921  23.2430506 139.8225604
 107.7045911  29.3239310 141.4291225 107.1767273  28.5892069 141.1164463
 107.2033414  30.1013986 141.1831194 112.6838757  27.5188330 146.5458272
 112.0262432  28.2087591 146.6338400 113.4879156  27.9084762 146.8892258
 102.4364639  19.9858976 143.7897837 103.0108391  19.7634157 143.0571030
 103.0235621  20.0547670 144.5426438 111.4944216  25.8732703 144.5962213
 112.0076098  26.5062695 145.0983923 112.1445440  25.2733898 144.2305573
 102.7634226  22.0163437 137.8093722 101.9271538  22.3538123 138.1302997
 102.6238996  21.8812417 136.8720859 104.7387306  16.8600225 142.5172906
 104.0851719  16.5449242 141.8929521 104.6967781  16.2375965 143.2432729
 105.8498511  27.1419520 134.4326198 104.9425573  26.9108773 134.6317347
 106.3469543  26.3457139 134.6200180 108.7566590  35.8517027 137.3522884
 108.0828289  36.1548724 137.9607842 109.1432412  36.6546107 137.0028341
 107.9725047  23.3482158 146.8420554 107.0547608  23.5697105 146.6842242
 108.3885190  23.4228469 145.9832261 108.7560095  24.7473574 141.9723234
 109.5031914  25.2594971 141.6630356 109.0251684  24.4257627 142.8327628
 107.0286745  27.2432115 138.9550188 106.1197964  26.9591148 139.0522658
 107.0581829  27.6631193 138.0953495 112.2606012  30.8538704 142.7241356
 111.8068339  30.0129614 142.7806546 111.6299979  31.4900103 143.0616136
 111.2038932  21.7830690 143.9542023 110.4661689  21.2708076 144.2852266
 111.4565705  21.3431072 143.1425300 110.7038951  32.6915201 143.6591174
 110.9961926  33.2520258 142.9403540 111.2137572  32.9843762 144.4144333
 111.3050559  14.5606942 144.5483793 111.6109436  13.7004306 144.2609708
 112.0303164  15.1524562 144.3482787  97.5974915  24.9637629 142.9365391
  97.3999315  24.3706990 142.2116457  97.0421579  24.6589839 143.6541329
 105.5771639  24.8560735 145.0559984 105.6320249  23.9034572 144.9802460
 104.7662841  25.0120174 145.5401282 106.7262833  28.7840858 136.2938267
 106.2882262  28.0676717 135.8343904 107.4673273  29.0116973 135.7323358
 103.5163999  23.4737795 142.8150363 102.7031864  23.7731966 143.2215555
 104.0122993  23.0793484 143.5324845 105.6672577  33.4695552 144.7484627
 105.6248755  33.6956398 143.8193159 106.5835275  33.2358927 144.8970428
 109.1138210  23.9379620 151.6465256 109.4687598  24.1651093 152.5059722
 109.7610342  24.2697996 151.0242512 114.8435947  27.0598055 142.3514585
 114.7053846  27.2499651 141.4235775 114.4872166  27.8217438 142.8082637
 103.0078073  21.0456151 148.4311598 103.6477453  20.9044910 147.7334561
 102.1755604  20.7590664 148.0550200 114.8705327  29.1274582 147.3625857
 115.3041834  29.0349872 148.2108911 115.5836908  29.1032083 146.7245873
 103.7838377  30.3458581 144.5446590 104.5778976  29.8508901 144.3429165
 103.0730070  29.8176444 144.1814296 108.6033222  32.7276677 148.8958958
 108.6570244  33.2967613 149.6636673 107.7348003  32.8978562 148.5312995
 100.0921141  24.4901663 140.6206343  99.1618729  24.4286118 140.8376305
 100.1878613  23.9677616 139.8242984 100.0106690  21.0156476 143.2084584
 100.2713507  21.9301809 143.0993745 100.8323862  20.5480918 143.3581197
 101.4831615  22.4294233 150.3783409 102.1554669  22.2211595 149.7296058
 100.6561402  22.2316319 149.9388641 107.5621322  26.8936939 150.4545889
 108.4913382  27.0448098 150.2814857 107.1412352  26.9820959 149.5994536
 106.3609653  30.9187603 148.2244427 106.2220739  30.5506387 149.0970365
 105.5724250  31.4335242 148.0528385 106.9557805  36.0196699 139.5669964
 107.1309561  35.5484743 140.3815586 106.2690593  36.6462466 139.7951224
 107.9114869  30.2969206 145.6133265 107.5764701  30.2569976 146.5090915
 107.4118814  29.6313922 145.1403675 101.8859112  25.7036836 151.1385846
 101.7478910  24.9717075 151.7397385 102.7964036  25.6145736 150.8570034
 110.8474060  27.6425240 135.8870325 110.2303231  26.9172068 135.7903377
 110.3790549  28.4034600 135.5437399 104.5141413  25.4156795 150.6269526
 105.2241032  24.7749987 150.5856144 104.4710721  25.6669690 151.5495706
 112.5028192  32.3524148 153.5476105 112.4440738  31.6683369 152.8806688
 112.9047710  33.0943138 153.0956731 101.5218891  39.1686062 146.3409824
 101.7615489  39.8004586 147.0188842 100.6788087  38.8174102 146.6275183
 102.6372606  21.8610664 135.0091629 101.7602072  21.7399465 134.6453875
 103.1130359  21.0696743 134.7570517 112.5045599  30.3163732 151.7790085
 111.6172378  29.9789654 151.9016483 113.0744150  29.5846764 152.0158850
  94.1574746  26.6487824 145.1033136  94.8445786  26.3349554 144.5154151
  94.0022875  27.5529189 144.8300387  98.9609468  21.5378021 149.5318160
  98.8767657  20.9303690 148.7968570  98.1392175  22.0287039 149.5327656
 106.0346753  34.9765185 148.7451328 105.9616924  35.7820156 149.2570632
 105.5924146  35.1757151 147.9199349 105.8236532  34.2136955 142.2554149
 105.0404054  34.7558635 142.3492374 106.5229277  34.7310934 142.6548390
 109.1333182  20.0231584 144.8988355 109.6301882  19.2701547 144.5789425
 108.3620164  20.0595901 144.3331564 116.9862940  25.7271950 146.5406646
 116.9752816  26.6096665 146.1700579 116.1180319  25.3743501 146.3461183
 108.4945436  34.8752019 150.9009486 109.2073408  35.5099484 150.8285388
 108.0035465  34.9715885 150.0849488 110.2162963  28.7803271 142.4726778
 109.2819242  28.9004734 142.3031482 110.3939631  27.8775738 142.2086788
 105.7168151  22.1648967 144.6260039 105.3465939  21.6120008 145.3140945
 106.2127243  21.5607101 144.0735039 113.6035514  24.6220591 143.0076812
 114.0695966  25.4548582 142.9337115 114.0543015  24.1565572 143.7122071
 103.5457350  32.6246462 151.7215057 104.2466809  33.2582945 151.8744451
 103.0752465  32.9661194 150.9610696 111.6711745  30.9664412 140.0062964
 111.9471589  30.8521007 140.9156838 110.8016244  30.5681897 139.9675137
 111.3458636  25.1791070 149.5467608 110.6930086  25.4266977 148.8920060
 111.7239015  24.3655208 149.2130085 108.3065809  35.2150763 143.6495778
 108.4888204  34.3972419 144.1123530 109.1298795  35.4318455 143.2120668
 108.6407975  34.1418948 140.9110826 109.1695741  33.6311403 140.2980988
 108.9036194  33.8261478 141.7756359  99.1425068  32.1582817 148.6546160
  99.7278504  31.4126505 148.7874064  98.9449906  32.4686774 149.5382824
 101.9963723  35.1934065 143.6708602 101.3274098  35.6780192 143.1872642
 101.8576593  35.4403285 144.5851981  93.7342722  24.7288417 147.3750603
  93.7726822  24.1952008 148.1687721  93.2283015  24.2023623 146.7561580
 106.1368991  37.2277808 150.2691261 106.6887299  37.3909430 151.0340346
 106.4775185  37.8182246 149.5971285 110.9879866  32.0539066 156.1239915
 111.5319770  32.6669024 155.6294870 110.4066711  32.6118644 156.6406928
  97.3651300  23.4552520 140.4504534  97.6604741  22.5463198 140.3971588
  96.4639336  23.4340259 140.1285537 109.2737379  35.1759784 147.2554943
 109.1488518  34.3749524 146.7465888 109.9316470  35.6705977 146.7668913
 100.8945547  21.5308516 146.4332083 100.1732133  22.1444484 146.2939556
 101.6838803  22.0666281 146.3548729 111.3372287  32.9768804 148.8834493
 110.3902623  32.8574155 148.8112820 111.6855060  32.0891302 148.9660754
  99.0939142  21.1366617 140.5743860  98.7651848  20.2563996 140.3918966
  99.4478512  21.0814286 141.4620249 108.3418720  32.7721520 145.0838845
 108.1943683  31.8438227 145.2646415 109.1672214  32.7941611 144.5995920
 102.2080965  21.4239587 140.9419337 102.5477037  21.9525508 140.2197946
 102.6553085  21.7619993 141.7177904 111.9452842  33.5950079 146.1703718
 112.8699390  33.3892940 146.0328169 111.7768146  33.3466480 147.0793059
 104.9024405  19.8076638 150.3922405 104.5621226  19.0084451 150.7943085
 104.1963412  20.1078349 149.8199239 105.5540877  16.8925950 148.8449728
 106.3766947  16.4186428 148.7228619 105.7978941  17.6716434 149.3448415
 104.1949112  19.9214209 139.1412630 104.9157474  20.2995461 138.6376347
 103.5714416  20.6403085 139.2447608 108.3380235  20.6259358 140.0770962
 108.5543849  21.5083995 139.7759791 107.8574302  20.2345571 139.3476604
 103.0779456  23.5845071 146.6541707 102.9324037  23.8985374 147.5465988
 102.6004660  24.2029971 146.1012606 104.9375839  20.5747619 146.7022597
 104.9237408  19.6788712 146.3654894 105.6548267  20.5818283 147.3360883
 106.7901970  21.0084959 148.7475724 106.5319747  21.9302030 148.7460054
 106.2587010  20.6115394 149.4376188 111.7348158  34.1135746 141.5265809
 111.9085036  33.5482169 140.7739662 112.2277050  34.9136641 141.3445299
  97.5525118  26.1250415 149.5929368  97.0078586  26.9010223 149.7249642
  98.4304468  26.4721220 149.4348490 104.3412735  19.4561999 141.9710167
 104.4628646  18.5278645 142.1701054 104.0514777  19.4700685 141.0588482
 107.2103925  17.1416910 145.1076886 107.2325622  17.2056243 144.1528866
 107.6271984  16.3021418 145.3017393 117.5887550  26.8772169 143.1456109
 118.0318696  26.1279494 142.7475232 116.7114060  26.8682305 142.7629841
 112.7223331  33.4302511 138.6262708 113.4174236  34.0509203 138.8450022
 113.0646481  32.5797862 138.9015085 114.6214754  30.8802216 140.1550038
 115.1466078  31.2189489 139.4299358 114.5337107  29.9449231 139.9713173
 106.2834803  34.7936290 152.2839915 106.5921929  34.5485437 153.1562615
 107.0810285  34.9982928 151.7958785 106.3055415  36.9474199 144.5145292
 105.8660405  36.4550578 145.2078148 107.0563532  36.4047167 144.2737367
  98.7847754  33.1385740 144.5169920  99.6105774  32.8389512 144.1368563
  98.4341806  32.3693363 144.9659708 103.7529287  32.4912208 146.5867593
 103.1309296  31.8282913 146.2869821 104.4234154  32.5173340 145.9041241
  96.9856359  31.0572067 145.4758853  96.1488267  30.6294241 145.2942854
  96.9580004  31.2504510 146.4129644 103.3142794  31.0416132 140.0626054
 103.4630914  31.7251596 139.4092727 104.1209237  31.0221222 140.5775510
 106.0553103  21.7225369 152.9346458 105.1856412  22.0158935 152.6629046
 106.2912583  22.3065814 153.6553722 117.1320414  28.3477407 145.5378557
 117.9667306  28.7867211 145.7016117 117.2679543  27.8716061 144.7186802
 101.0695427  27.0681309 141.0687123 100.8241469  26.1643639 141.2667333
 101.2391341  27.0698460 140.1266601 100.3391074  22.8009667 138.5673284
  99.6460319  22.8754022 137.9113320 100.0942826  22.0370011 139.0894801
 109.0104731  14.3605268 145.9712775 109.2906485  13.6928457 146.5973201
 109.7955338  14.5534364 145.4587439 106.8138199  33.5364262 137.5337801
 106.2412166  34.1554449 137.0808273 107.3870993  34.0863624 138.0677723
 110.0335459  33.8201412 138.6646383 110.9666132  33.7546974 138.8679259
 109.9458672  34.6557679 138.2060916 112.6623476  33.1367283 135.6250331
 112.5837107  32.8027146 136.5186089 113.4833143  33.6289051 135.6241803
 107.1984998  24.8725075 134.8753854 108.1444103  24.7431283 134.9442272
 106.8199243  24.1339737 135.3523282 107.0823690  28.9242821 156.3354511
 108.0026700  29.1021420 156.5294557 107.0473273  27.9798866 156.1834210
 105.3827915  22.7975051 134.8108739 104.4759370  22.5008164 134.8871453
 105.6603896  22.5004869 133.9443025  96.3005855  24.1181415 145.2607785
  95.9808640  23.2646723 144.9682159  95.7539284  24.3329993 146.0165753
 100.0785763  26.8343856 148.9777292 100.2971773  27.7660964 148.9965326
 100.4911537  26.4751830 149.7632096 106.9989981  17.3411941 140.9652980
 106.1890709  16.9959026 141.3408226 107.6874398  17.0319485 141.5540592
 108.9280529  16.4189988 142.5877277 109.4811568  16.8385441 143.2467300
 109.1650615  15.4925736 142.6300233 104.1526700  19.6561987 134.9520718
 105.0145864  19.9816885 135.2116535 104.3377044  18.8693483 134.4393784
  96.1694115  27.7384326 147.2300907  95.4757587  27.3238279 146.7170861
  96.9167106  27.7804863 146.6334326 112.3059336  18.5290513 142.0955941
 111.7258005  19.1875317 141.7133994 112.0395269  17.7067858 141.6843359
 110.7562902  17.9295571 144.2977261 111.2562681  18.0412105 143.4891580
 111.3998510  17.6256624 144.9378070  98.0830858  27.6702580 145.1066922
  98.0601546  27.7690267 144.1548805  98.3931494  28.5167731 145.4284088
 100.7418236  29.7278735 149.2213536 101.6961489  29.6962677 149.1543468
 100.5430759  29.2669359 150.0363762 101.3317618  28.2979851 151.7884334
 102.1510507  28.7923930 151.8119171 101.6054426  27.3811819 151.7601901
 111.0884214  20.6890603 141.1512289 110.2010069  20.9740254 140.9332484
 111.5038203  20.5284367 140.3039566 114.4398750  20.7137124 144.8666629
 115.2159140  21.2033577 145.1391245 113.7146884  21.1395179 145.3238498
  99.0968465  35.2698355 146.2383734  98.9622933  34.5098755 145.6721732
  98.6800527  35.9939254 145.7712523 110.2327428  30.4535278 135.2460309
 110.9363278  30.6585281 135.8617965 109.5090076  31.0212040 135.5109393
 111.0625238  26.2045139 141.3662580 111.0060439  26.6613691 140.5270212
 111.6153580  25.4435824 141.1885422 114.8730044  21.9934871 142.1912699
 114.6166978  21.5931507 143.0220907 114.2482912  22.7078665 142.0662838
 119.1842382  24.7330944 144.6983990 118.6241940  24.8024134 145.4715552
 118.5785885  24.5571929 143.9783487 102.2537590  36.1667672 146.4502177
 102.1369975  37.1113104 146.3480867 101.4330037  35.8641233 146.8387976
 112.1414125  30.8917807 137.2958769 112.9759729  30.4599006 137.1136244
 111.9798468  30.7199821 138.2235664 111.7960017  27.3949921 138.6615109
 111.7408821  27.2294192 137.7203553 111.1706072  28.1025954 138.8177298
 105.1056143  16.8958030 138.2400427 105.0934812  17.8399870 138.3968698
 105.9979565  16.7128175 137.9459888 103.2792105  36.8195933 149.6658105
 104.1819351  36.8519544 149.9824600 103.0529475  35.8896384 149.6804441
 105.0345707  35.5726920 146.3268184 104.0841338  35.5728782 146.2132556
 105.3378193  34.8259655 145.8104218 108.9208262  13.4900806 142.4946364
 108.1540658  12.9359293 142.6403046 109.3318967  13.5622675 143.3560516
 120.7698400  41.4087458 147.3913946 121.4076810  41.2894206 146.6877286
 120.6519243  42.3568302 147.4501898 117.5788106  41.3614887 147.3275471
 117.2406618  41.2455951 146.4396006 118.4477875  40.9606052 147.3076477
 113.4374922  43.2150363 143.3172362 112.8739787  43.1240300 142.5488650
 113.3227317  42.3950267 143.7974854 118.0607889  42.5149738 153.2861676
 118.0496530  42.1202537 152.4142180 118.2228529  41.7815811 153.8795448
 110.9839354  44.7101555 146.1556582 111.7760646  44.3692379 145.7402882
 111.2236004  44.8196530 147.0758736 119.0174481  46.8821331 138.6286827
 118.3662461  47.4675411 138.2420841 119.8118844  47.4127526 138.6881864
 112.9430108  43.9710468 139.0273961 113.7160984  43.4239455 138.8886837
 113.2955507  44.8354717 139.2388422 114.7815151  45.2986850 152.2340860
 114.4905017  46.2032481 152.1187527 115.4172135  45.3403378 152.9484930
 115.7071357  42.6763699 148.8242220 116.3034930  42.4519721 148.1099183
 115.7646329  41.9348444 149.4267668 115.2796386  40.1303134 136.6592411
 115.5321906  39.6084655 135.8975874 114.3420945  39.9669279 136.7619095
 120.3239669  39.1338912 144.4667154 121.1102758  38.7158335 144.1157571
 120.5878373  40.0385004 144.6348803 120.4949746  44.5711763 139.1655811
 119.8595579  44.6446389 139.8776716 120.1647152  45.1605361 138.4874890
 125.7248096  39.0714145 145.3700133 126.4573268  38.5013362 145.6037962
 124.9687451  38.6835746 145.8106638 114.9992675  42.0331240 138.8616786
 114.8828933  41.3576143 139.5297870 115.1094934  41.5463614 138.0448939
 117.3424215  41.4941387 142.5663475 116.9782423  40.9672008 143.2776397
 118.1991331  41.1039856 142.3929961 116.9829702  36.5231287 137.5624824
 117.1504105  37.3911523 137.9295295 116.7926871  36.6858568 136.6386113
 119.7405036  44.9848266 149.2290654 119.4405759  45.8873304 149.1206461
 119.3956095  44.7180449 150.0811807 113.1917517  41.4362062 145.2627358
 112.2668014  41.3038277 145.4705050 113.4401930  42.2156282 145.7597301
 123.1402179  37.5030806 146.9088091 122.2319057  37.4346214 146.6146852
 123.0889775  37.9802751 147.7369917 116.9618923  38.9788944 138.5471491
 116.8418549  39.4245995 139.3856971 116.2671512  39.3274262 137.9885029
 110.5526328  41.0795336 146.0971148 110.6818709  41.3329815 147.0110559
 109.8723779  41.6723044 145.7775803 114.7225815  51.7492586 142.1961622
 114.6449845  52.7000411 142.2750102 114.1187459  51.4038458 142.8536548
 122.6603989  39.4510417 139.3751825 123.5721846  39.6837804 139.1999522
 122.1513637  40.0347462 138.8126903 115.4689417  41.7305905 154.4140956
 116.2104102  42.2690949 154.1375779 114.7626403  42.3572193 154.5712507
 120.9444757  43.8735045 153.0113117 121.3528113  43.4317456 152.2667750
 120.2222019  43.2987673 153.2647310 117.2975827  38.8107652 150.3846674
 118.1437022  39.2347066 150.5281323 117.2374465  38.1541276 151.0785237
 121.2673572  44.4336236 146.7665406 120.6382434  44.5981950 146.0641474
 120.8799234  44.8477845 147.5376370 125.1462804  45.3690674 144.1209770
 124.4613842  45.7489575 143.5706803 125.2306653  45.9786000 144.8541718
 122.4013735  43.0150633 150.7205113 122.6130631  43.6582393 150.0439494
 122.3543484  42.1812949 150.2527043 120.0039964  35.6268453 147.6241685
 119.1424443  35.9249707 147.9158423 120.0302399  35.8438852 146.6922718
 116.8201534  44.1710644 144.0315491 117.2839879  44.4498347 143.2420114
 116.5558332  43.2694088 143.8488582 113.7125615  43.7182125 146.9695254
 114.2826972  44.1469394 146.3312739 114.3033727  43.4364710 147.6679440
 115.7570420  40.2933796 140.8405056 116.4594463  40.7454840 141.3078983
 115.4251048  39.6517615 141.4684949 114.2050781  38.8845553 155.2156266
 113.5749442  39.5661834 155.4491662 114.0986869  38.7728634 154.2709404
 109.4995754  38.5517349 146.1422190 108.7094808  38.8074877 145.6662300
 109.9907001  39.3665687 146.2474230 123.5159563  45.8922588 148.8927471
 124.3377007  45.4902775 148.6110152 123.5121966  45.7890822 149.8443586
 111.4510499  38.9161928 143.1005667 110.6541662  39.0280622 143.6189162
 111.2236091  39.2548580 142.2346557 117.2816167  45.4406631 151.0488181
 117.3460599  45.9027039 151.8846353 116.5727091  44.8103996 151.1770491
 107.7833457  38.8047839 148.5737181 108.0341495  39.6894849 148.8394757
 108.3193005  38.6252441 147.8012272 116.9964184  47.1074739 140.9167161
 116.8609859  47.9526275 141.3452009 117.5373997  47.3094017 140.1533095
 110.4493582  44.6250177 141.4895087 110.9618102  45.4193427 141.6400651
 111.1016295  43.9276467 141.4228688 112.2588466  47.7415933 143.5717840
 112.4355095  48.6633898 143.3838824 113.0545300  47.4274352 144.0012220
 111.5440823  39.7880565 153.4480003 111.4294338  38.8865822 153.7487102
 110.6885341  40.0344262 153.0964819 118.6232661  47.7298305 155.0467504
 118.1796515  46.9434684 154.7288408 119.2849874  47.9177456 154.3811394
 113.3819782  49.2594107 149.5728182 113.9327207  49.1311170 148.8005176
 112.5431258  49.5588996 149.2223075 120.7213899  48.0101105 153.0748905
 120.7032374  48.8309986 152.5829174 121.6433819  47.8855181 153.2999046
 117.1786953  45.5245235 153.9172413 117.7115290  44.7633523 153.6871721
 116.6501034  45.2318887 154.6596568 108.4142498  42.9538831 142.2654657
 109.2517720  43.3635840 142.0488365 108.5920766  42.0138273 142.2354851
 120.3106931  40.6213912 137.9538490 119.7953554  41.3918517 138.1926877
 120.0384239  39.9479048 138.5771552 117.8954042  35.4663613 143.0123728
 117.0395638  35.0770463 142.8329367 118.3080993  35.5455573 142.1523514
 119.4253188  33.0009956 147.4115288 118.9217984  32.9640091 146.5983093
 119.7183795  33.9102699 147.4711945 115.6696074  33.0848686 146.4181470
 116.5349071  32.8891494 146.0587359 115.7373583  32.8559037 147.3450827
 125.2841205  43.3746267 139.8891664 124.5070648  43.0357426 139.4446826
 125.9632686  43.3798890 139.2146629 120.0993234  38.4941004 139.7798271
 119.7943369  38.8087153 140.6308414 121.0523676  38.5722424 139.8225604
 118.5439666  44.6531227 141.4291225 118.0161027  43.9183987 141.1164463
 118.0427168  45.4305904 141.1831194 123.5232512  42.8480248 146.5458272
 122.8656186  43.5379509 146.6338400 124.3272911  43.2376680 146.8892258
 113.2758393  35.3150894 143.7897837 113.8502145  35.0926075 143.0571030
 113.8629376  35.3839588 144.5426438 122.3337970  41.2024620 144.5962213
 122.8469852  41.8354612 145.0983923 122.9839194  40.6025816 144.2305573
 113.6027980  37.3455355 137.8093722 112.7665293  37.6830041 138.1302997
 113.4632750  37.2104334 136.8720859 115.5781061  32.1892142 142.5172906
 114.9245473  31.8741160 141.8929521 115.5361535  31.5667883 143.2432729
 116.6892266  42.4711438 134.4326198 115.7819328  42.2400691 134.6317347
 117.1863298  41.6749057 134.6200180 119.5960345  51.1808945 137.3522884
 118.9222043  51.4840641 137.9607842 119.9826167  51.9838025 137.0028341
 118.8118801  38.6774076 146.8420554 117.8941363  38.8989023 146.6842242
 119.2278945  38.7520386 145.9832261 119.5953849  40.0765492 141.9723234
 120.3425668  40.5886889 141.6630356 119.8645439  39.7549544 142.8327628
 117.8680499  42.5724032 138.9550188 116.9591719  42.2883065 139.0522658
 117.8975583  42.9923111 138.0953495 123.0999767  46.1830622 142.7241356
 122.6462094  45.3421532 142.7806546 122.4693733  46.8192020 143.0616136
 122.0432686  37.1122608 143.9542023 121.3055443  36.5999994 144.2852266
 122.2959460  36.6722990 143.1425300 121.5432706  48.0207119 143.6591174
 121.8355680  48.5812176 142.9403540 122.0531326  48.3135680 144.4144333
 122.1444314  29.8898860 144.5483793 122.4503190  29.0296223 144.2609708
 122.8696918  30.4816480 144.3482787 108.4368670  40.2929547 142.9365391
 108.2393069  39.6998907 142.2116457 107.8815334  39.9881757 143.6541329
 116.4165393  40.1852653 145.0559984 116.4714003  39.2326489 144.9802460
 115.6056595  40.3412092 145.5401282 117.5656587  44.1132776 136.2938267
 117.1276017  43.3968635 135.8343904 118.3067028  44.3408891 135.7323358
 114.3557753  38.8029713 142.8150363 113.5425619  39.1023883 143.2215555
 114.8516747  38.4085402 143.5324845 116.5066331  48.7987470 144.7484627
 116.4642510  49.0248316 143.8193159 117.4229030  48.5650844 144.8970428
 119.9531965  39.2671537 151.6465256 120.3081353  39.4943010 152.5059722
 120.6004096  39.5989914 151.0242512 125.6829702  42.3889973 142.3514585
 125.5447600  42.5791569 141.4235775 125.3265921  43.1509356 142.8082637
 113.8471828  36.3748068 148.4311598 114.4871207  36.2336827 147.7334561
 113.0149359  36.0882582 148.0550200 125.7099081  44.4566500 147.3625857
 126.1435588  44.3641789 148.2108911 126.4230662  44.4324001 146.7245873
 114.6232132  45.6750499 144.5446590 115.4172730  45.1800819 144.3429165
 113.9123824  45.1468362 144.1814296 119.4426976  48.0568594 148.8958958
 119.4963999  48.6259531 149.6636673 118.5741758  48.2270479 148.5312995
 110.9314895  39.8193580 140.6206343 110.0012483  39.7578036 140.8376305
 111.0272367  39.2969533 139.8242984 110.8500444  36.3448393 143.2084584
 111.1107262  37.2593727 143.0993745 111.6717617  35.8772836 143.3581197
 112.3225370  37.7586150 150.3783409 112.9948423  37.5503513 149.7296058
 111.4955156  37.5608236 149.9388641 118.4015076  42.2228856 150.4545889
 119.3307136  42.3740016 150.2814857 117.9806106  42.3112877 149.5994536
 117.2003408  46.2479521 148.2244427 117.0614494  45.8798305 149.0970365
 116.4118004  46.7627160 148.0528385 117.7951560  51.3488617 139.5669964
 117.9703316  50.8776660 140.3815586 117.1084348  51.9754383 139.7951224
 118.7508623  45.6261123 145.6133265 118.4158456  45.5861893 146.5090915
 118.2512569  44.9605839 145.1403675 112.7252867  41.0328753 151.1385846
 112.5872665  40.3008992 151.7397385 113.6357790  40.9437654 150.8570034
 121.6867815  42.9717158 135.8870325 121.0696985  42.2463986 135.7903377
 121.2184303  43.7326518 135.5437399 115.3535168  40.7448713 150.6269526
 116.0634786  40.1041905 150.5856144 115.3104476  40.9961608 151.5495706
 123.3421946  47.6816066 153.5476105 123.2834492  46.9975286 152.8806688
 123.7441465  48.4235056 153.0956731 114.0664102  37.7313931 152.4465165
 113.5301459  37.2804669 153.0986761 113.4780810  37.8659839 151.7035629
 112.3612645  54.4977980 146.3409824 112.6009243  55.1296504 147.0188842
 111.5181842  54.1466020 146.6275183 113.4766361  37.1902582 135.0091629
 112.5995827  37.0691383 134.6453875 113.9524114  36.3988660 134.7570517
 123.3439354  45.6455650 151.7790085 122.4566132  45.3081572 151.9016483
 123.9137905  44.9138681 152.0158850 104.9968501  41.9779742 145.1033136
 105.6839541  41.6641472 144.5154151 104.8416629  42.8821106 144.8300387
 109.8003223  36.8669938 149.5318160 109.7161412  36.2595608 148.7968570
 108.9785929  37.3578957 149.5327656 116.8740507  50.3057102 148.7451328
 116.8010678  51.1112074 149.2570632 116.4317900  50.5049068 147.9199349
 116.6630287  49.5428872 142.2554149 115.8797809  50.0850553 142.3492374
 117.3623032  50.0602852 142.6548390 119.9726937  35.3523502 144.8988355
 120.4695636  34.5993464 144.5789425 119.2013918  35.3887819 144.3331564
 127.8256694  41.0563867 146.5406646 127.8146570  41.9388583 146.1700579
 126.9574074  40.7035418 146.3461183 119.3339191  50.2043936 150.9009486
 120.0467163  50.8391401 150.8285388 118.8429219  50.3007802 150.0849488
 121.0556717  44.1095189 142.4726778 120.1212996  44.2296652 142.3031482
 121.2333386  43.2067656 142.2086788 116.5561905  37.4940885 144.6260039
 116.1859693  36.9411925 145.3140945 117.0520998  36.8899018 144.0735039
 124.4429269  39.9512508 143.0076812 124.9089721  40.7840500 142.9337115
 124.8936769  39.4857490 143.7122071 114.3851104  47.9538380 151.7215057
 115.0860564  48.5874863 151.8744451 113.9146219  48.2953111 150.9610696
 122.5105500  46.2956330 140.0062964 122.7865344  46.1812924 140.9156838
 121.6409999  45.8973815 139.9675137 122.1852390  40.5082987 149.5467608
 121.5323840  40.7558895 148.8920060 122.5632770  39.6947126 149.2130085
 119.1459564  50.5442680 143.6495778 119.3281958  49.7264336 144.1123530
 119.9692550  50.7610373 143.2120668 119.4801729  49.4710866 140.9110826
 120.0089496  48.9603320 140.2980988 119.7429949  49.1553396 141.7756359
 109.9818822  47.4874735 148.6546160 110.5672259  46.7418423 148.7874064
 109.7843661  47.7978692 149.5382824 112.8357477  50.5225982 143.6708602
 112.1667853  51.0072110 143.1872642 112.6970347  50.7695203 144.5851981
 104.5736477  40.0580335 147.3750603 104.6120576  39.5243926 148.1687721
 104.0676770  39.5315541 146.7561580 116.9762746  52.5569726 150.2691261
 117.5281054  52.7201347 151.0340346 117.3168939  53.1474164 149.5971285
 111.9527239  34.9044876 150.8713145 112.0168566  35.7659707 150.4590543
 111.8894359  34.2918877 150.1385504 111.4279512  36.9768008 154.5186180
 112.0551550  36.5945085 155.1323704 110.5707431  36.7582210 154.8841872
 121.8273620  47.3830983 156.1239915 122.3713524  47.9960942 155.6294870
 121.2460465  47.9410562 156.6406928 108.2045054  38.7844437 140.4504534
 108.4998496  37.8755116 140.3971588 107.3033090  38.7632177 140.1285537
 120.1131133  50.5051701 147.2554943 119.9882273  49.7041441 146.7465888
 120.7710224  50.9997895 146.7668913 111.7339301  36.8600434 146.4332083
 111.0125887  37.4736402 146.2939556 112.5232557  37.3958199 146.3548729
 122.1766042  48.3060721 148.8834493 121.2296377  48.1866073 148.8112820
 122.5248815  47.4183219 148.9660754 114.5365615  34.1954860 152.7072735
 115.0600017  34.4417157 153.4699044 114.3177948  35.0274895 152.2875872
 109.9332896  36.4658535 140.5743860 109.6045602  35.5855914 140.3918966
 110.2872267  36.4106204 141.4620249 119.1812475  48.1013438 145.0838845
 119.0337437  47.1730145 145.2646415 120.0065968  48.1233528 144.5995920
 113.0474719  36.7531505 140.9419337 113.3870792  37.2817426 140.2197946
 113.4946840  37.0911911 141.7177904 122.7846597  48.9241996 146.1703718
 123.7093144  48.7184858 146.0328169 122.6161900  48.6758398 147.0793059
 115.7418160  35.1368555 150.3922405 115.4014980  34.3376369 150.7943085
 115.0357166  35.4370266 149.8199239 116.3934632  32.2217868 148.8449728
 117.2160701  31.7478346 148.7228619 116.6372695  33.0008352 149.3448415
 115.0342866  35.2506126 139.1412630 115.7551229  35.6287379 138.6376347
 114.4108170  35.9695003 139.2447608 119.1773989  35.9551275 140.0770962
 119.3937604  36.8375913 139.7759791 118.6968056  35.5637489 139.3476604
 113.9173211  38.9136989 146.6541707 113.7717791  39.2277292 147.5465988
 113.4398414  39.5321889 146.1012606 115.7769593  35.9039537 146.7022597
 115.7631162  35.0080630 146.3654894 116.4942022  35.9110200 147.3360883
 117.6295724  36.3376877 148.7475724 117.3713502  37.2593947 148.7460054
 117.0980765  35.9407311 149.4376188 122.5741913  49.4427664 141.5265809
 122.7478790  48.8774086 140.7739662 123.0670804  50.2428559 141.3445299
 108.3918873  41.4542333 149.5929368 107.8472341  42.2302141 149.7249642
 109.2698223  41.8013137 149.4348490 115.1806489  34.7853917 141.9710167
 115.3022401  33.8570563 142.1701054 114.8908532  34.7992603 141.0588482
 118.0497680  32.4708827 145.1076886 118.0719377  32.5348160 144.1528866
 118.4665739  31.6313336 145.3017393 128.4281304  42.2064087 143.1456109
 128.8712450  41.4571412 142.7475232 127.5507814  42.1974223 142.7629841
 123.5617085  48.7594428 138.6262708 124.2567990  49.3801121 138.8450022
 123.9040236  47.9089779 138.9015085 109.1784895  40.5812229 152.4859525
 108.4366631  40.7294865 153.0724155 108.8577639  40.8420495 151.6226274
 125.4608509  46.2094134 140.1550038 125.9859833  46.5481407 139.4299358
 125.3730861  45.2741149 139.9713173 117.1228557  50.1228207 152.2839915
 117.4315684  49.8777354 153.1562615 117.9204039  50.3274846 151.7958785
 117.1449169  52.2766117 144.5145292 116.7054160  51.7842496 145.2078148
 117.8957286  51.7339085 144.2737367 109.6241508  48.4677658 144.5169920
 110.4499528  48.1681430 144.1368563 109.2735560  47.6985280 144.9659708
 114.5923041  47.8204126 146.5867593 113.9703051  47.1574831 146.2869821
 115.2627908  47.8465258 145.9041241 107.8250113  46.3863984 145.4758853
 106.9882022  45.9586159 145.2942854 107.7973759  46.5796428 146.4129644
 114.1536548  46.3708049 140.0626054 114.3024669  47.0543514 139.4092727
 114.9602992  46.3513140 140.5775510 116.8946857  37.0517287 152.9346458
 116.0250167  37.3450853 152.6629046 117.1306338  37.6357732 153.6553722
 127.9714169  43.6769325 145.5378557 128.8061060  44.1159129 145.7016117
 128.1073298  43.2007978 144.7186802 111.9089181  42.3973227 141.0687123
 111.6635223  41.4935557 141.2667333 112.0785096  42.3990378 140.1266601
 111.1784829  38.1301585 138.5673284 110.4854074  38.2045940 137.9113320
 110.9336581  37.3661928 139.0894801 119.8498485  29.6897186 145.9712775
 120.1300239  29.0220375 146.5973201 120.6349092  29.8826282 145.4587439
 117.6531954  48.8656180 137.5337801 117.0805921  49.4846367 137.0808273
 118.2264748  49.4155542 138.0677723 120.8729214  49.1493330 138.6646383
 121.8059887  49.0838892 138.8679259 120.7852426  49.9849597 138.2060916
 123.5017230  48.4659200 135.6250331 123.4230862  48.1319064 136.5186089
 124.3226897  48.9580968 135.6241803 118.0378752  40.2016993 134.8753854
 118.9837857  40.0723201 134.9442272 117.6592997  39.4631655 135.3523282
 117.9217445  44.2534739 156.3354511 118.8420454  44.4313338 156.5294557
 117.8867028  43.3090784 156.1834210 116.2221670  38.1266969 134.8108739
 115.3153125  37.8300082 134.8871453 116.4997651  37.8296787 133.9443025
 107.1399610  39.4473332 145.2607785 106.8202394  38.5938641 144.9682159
 106.5933038  39.6621911 146.0165753 110.9179517  42.1635773 148.9777292
 111.1365527  43.0952881 148.9965326 111.3305291  41.8043748 149.7632096
 117.8383735  32.6703859 140.9652980 117.0284464  32.3250944 141.3408226
 118.5268152  32.3611403 141.5540592 119.7674284  31.7481906 142.5877277
 120.3205322  32.1677359 143.2467300 120.0044370  30.8217654 142.6300233
 114.9920454  34.9853904 134.9520718 115.8539618  35.3108803 135.2116535
 115.1770798  34.1985400 134.4393784 107.0087870  43.0676244 147.2300907
 106.3151341  42.6530197 146.7170861 107.7560861  43.1096780 146.6334326
 123.1453091  33.8582431 142.0955941 122.5651760  34.5167235 141.7133994
 122.8789023  33.0359775 141.6843359 121.5956657  33.2587488 144.2977261
 122.0956435  33.3704023 143.4891580 122.2392265  32.9548541 144.9378070
 115.6538653  41.1666118 157.1845102 115.1705735  41.9666478 157.3908991
 115.7399592  41.1774063 156.2312546 108.9224612  42.9994498 145.1066922
 108.8995301  43.0982185 144.1548805 109.2325249  43.8459649 145.4284088
 111.5811990  45.0570653 149.2213536 112.5355244  45.0254595 149.1543468
 111.3824514  44.5961277 150.0363762 112.1711372  43.6271769 151.7884334
 112.9904261  44.1215847 151.8119171 112.4448180  42.7103737 151.7601901
 121.9277969  36.0182521 141.1512289 121.0403824  36.3032172 140.9332484
 122.3431958  35.8576284 140.3039566 125.2792505  36.0429042 144.8666629
 126.0552895  36.5325495 145.1391245 124.5540639  36.4687096 145.3238498
 109.9362219  50.5990272 146.2383734 109.8016687  49.8390673 145.6721732
 109.5194281  51.3231172 145.7712523 121.0721182  45.7827196 135.2460309
 121.7757032  45.9877198 135.8617965 120.3483831  46.3503958 135.5109393
 121.9018992  41.5337057 141.3662580 121.8454194  41.9905608 140.5270212
 122.4547335  40.7727742 141.1885422 125.7123798  37.3226789 142.1912699
 125.4560733  36.9223425 143.0220907 125.0876666  38.0370583 142.0662838
 130.0236136  40.0622862 144.6983990 129.4635694  40.1316051 145.4715552
 129.4179640  39.8863847 143.9783487 113.0931345  51.4959589 146.4502177
 112.9763729  52.4405022 146.3480867 112.2723791  51.1933151 146.8387976
 122.9807880  46.2209725 137.2958769 123.8153483  45.7890923 137.1136244
 122.8192222  46.0491739 138.2235664 122.6353772  42.7241838 138.6615109
 122.5802575  42.5586110 137.7203553 122.0099827  43.4317871 138.8177298
 107.4246287  37.9609903 152.4876531 108.0705150  37.4508857 152.9763756
 107.2163438  38.6978584 153.0619956 115.9449897  32.2249947 138.2400427
 115.9328567  33.1691787 138.3968698 116.8373319  32.0420093 137.9459888
 114.1185859  52.1487851 149.6658105 115.0213106  52.1811461 149.9824600
 113.8923229  51.2188302 149.6804441 115.8739461  50.9018838 146.3268184
 114.9235092  50.9020699 146.2132556 116.1771947  50.1551572 145.8104218
 119.7602017  28.8192724 142.4946364 118.9934412  28.2651211 142.6403046
 120.1712722  28.8914593 143.3560516 131.6092155  56.7379376 147.3913946
 132.2470565  56.6186123 146.6877286 131.4912997  57.6860220 147.4501898
 128.4181861  56.6906804 147.3275471 128.0800372  56.5747869 146.4396006
 129.2871629  56.2897969 147.3076477 124.2768677  58.5442281 143.3172362
 123.7133542  58.4532218 142.5488650 124.1621072  57.7242185 143.7974854
 128.9001644  57.8441656 153.2861676 128.8890285  57.4494454 152.4142180
 129.0622283  57.1107729 153.8795448 121.8233109  60.0393472 146.1556582
 122.6154400  59.6984297 145.7402882 122.0629759  60.1488447 147.0758736
 129.8568235  62.2113248 138.6286827 129.2056215  62.7967329 138.2420841
 130.6512598  62.7419443 138.6881864 123.7823862  59.3002385 139.0273961
 124.5554738  58.7531373 138.8886837 124.1349261  60.1646635 139.2388422
 125.6208905  60.6278768 152.2340860 125.3298771  61.5324399 152.1187527
 126.2565889  60.6695295 152.9484930 126.5465112  58.0055616 148.8242220
 127.1428684  57.7811639 148.1099183 126.6040083  57.2640362 149.4267668
 126.1190140  55.4595052 136.6592411 126.3715661  54.9376573 135.8975874
 125.1814699  55.2961197 136.7619095 131.1633423  54.4630830 144.4667154
 131.9496512  54.0450253 144.1157571 131.4272127  55.3676922 144.6348803
 131.3343500  59.9003680 139.1655811 130.6989333  59.9738307 139.8776716
 131.0040907  60.4897279 138.4874890 136.5641850  54.4006063 145.3700133
 137.2967022  53.8305280 145.6037962 135.8081206  54.0127664 145.8106638
 125.8386429  57.3623158 138.8616786 125.7222687  56.6868061 139.5297870
 125.9488689  56.8755531 138.0448939 128.1817970  56.8233305 142.5663475
 127.8176177  56.2963926 143.2776397 129.0385086  56.4331774 142.3929961
 127.8223457  51.8523204 137.5624824 127.9897859  52.7203441 137.9295295
 127.6320626  52.0150486 136.6386113 130.5798790  60.3140183 149.2290654
 130.2799513  61.2165222 149.1206461 130.2349850  60.0472366 150.0811807
 124.0311272  56.7653980 145.2627358 123.1061768  56.6330194 145.4705050
 124.2795685  57.5448199 145.7597301 133.9795934  52.8322723 146.9088091
 133.0712811  52.7638132 146.6146852 133.9283530  53.3094668 147.7369917
 127.8012678  54.3080862 138.5471491 127.6812303  54.7537913 139.3856971
 127.1065266  54.6566180 137.9885029 121.3920083  56.4087254 146.0971148
 121.5212464  56.6621733 147.0110559 120.7117534  57.0014962 145.7775803
 125.5619570  67.0784504 142.1961622 125.4843600  68.0292329 142.2750102
 124.9581213  66.7330376 142.8536548 133.4997744  54.7802335 139.3751825
 134.4115600  55.0129722 139.1999522 132.9907391  55.3639379 138.8126903
 126.3083172  57.0597822 154.4140956 127.0497856  57.5982866 154.1375779
 125.6020157  57.6864111 154.5712507 131.7838512  59.2026963 153.0113117
 132.1921868  58.7609373 152.2667750 131.0615773  58.6279590 153.2647310
 128.1369582  54.1399570 150.3846674 128.9830777  54.5638983 150.5281323
 128.0768219  53.4833194 151.0785237 132.1067326  59.7628153 146.7665406
 131.4776189  59.9273868 146.0641474 131.7192988  60.1769763 147.5376370
 135.9856558  60.6982591 144.1209770 135.3007596  61.0781493 143.5706803
 136.0700407  61.3077918 144.8541718 133.2407490  58.3442550 150.7205113
 133.4524385  58.9874310 150.0439494 133.1937238  57.5104867 150.2527043
 130.8433719  50.9560371 147.6241685 129.9818198  51.2541625 147.9158423
 130.8696153  51.1730770 146.6922718 127.6595288  59.5002562 144.0315491
 128.1233634  59.7790265 143.2420114 127.3952086  58.5986006 143.8488582
 124.5519369  59.0474043 146.9695254 125.1220726  59.4761311 146.3312739
 125.1427481  58.7656628 147.6679440 126.5964174  55.6225714 140.8405056
 127.2988218  56.0746758 141.3078983 126.2644803  54.9809533 141.4684949
 125.0444536  54.2137471 155.2156266 124.4143196  54.8953751 155.4491662
 124.9380624  54.1020552 154.2709404 120.3389508  53.8809267 146.1422190
 119.5488562  54.1366795 145.6662300 120.8300756  54.6957604 146.2474230
 134.3553318  61.2214506 148.8927471 135.1770761  60.8194693 148.6110152
 134.3515721  61.1182740 149.8443586 122.2904254  54.2453846 143.1005667
 121.4935417  54.3572540 143.6189162 122.0629846  54.5840498 142.2346557
 128.1209921  60.7698549 151.0488181 128.1854354  61.2318956 151.8846353
 127.4120845  60.1395914 151.1770491 118.6227211  54.1339757 148.5737181
 118.8735250  55.0186767 148.8394757 119.1586760  53.9544359 147.8012272
 127.8357939  62.4366657 140.9167161 127.7003614  63.2818192 141.3452009
 128.3767751  62.6385934 140.1533095 121.2887336  59.9542095 141.4895087
 121.8011857  60.7485345 141.6400651 121.9410049  59.2568385 141.4228688
 123.0982221  63.0707851 143.5717840 123.2748849  63.9925816 143.3838824
 123.8939054  62.7566270 144.0012220 122.3834577  55.1172483 153.4480003
 122.2688093  54.2157740 153.7487102 121.5279095  55.3636180 153.0964819
 129.4626415  63.0590223 155.0467504 129.0190269  62.2726602 154.7288408
 130.1243629  63.2469374 154.3811394 124.2213536  64.5886025 149.5728182
 124.7720961  64.4603088 148.8005176 123.3825012  64.8880914 149.2223075
 131.5607653  63.3393023 153.0748905 131.5426129  64.1601904 152.5829174
 132.4827573  63.2147098 153.2999046 128.0180707  60.8537152 153.9172413
 128.5509044  60.0925441 153.6871721 127.4894789  60.5610804 154.6596568
 119.2536253  58.2830749 142.2654657 120.0911475  58.6927757 142.0488365
 119.4314521  57.3430191 142.2354851 131.1500685  55.9505830 137.9538490
 130.6347309  56.7210434 138.1926877 130.8777994  55.2770966 138.5771552
 128.7347796  50.7955530 143.0123728 127.8789392  50.4062381 142.8329367
 129.1474748  50.8747491 142.1523514 130.2646943  48.3301874 147.4115288
 129.7611738  48.2932009 146.5983093 130.5577550  49.2394616 147.4711945
 126.5089829  48.4140603 146.4181470 127.3742825  48.2183412 146.0587359
 126.5767338  48.1850955 147.3450827 136.1234959  58.7038184 139.8891664
 135.3464402  58.3649344 139.4446826 136.8026440  58.7090807 139.2146629
 130.9386988  53.8232922 139.7798271 130.6337124  54.1379071 140.6308414
 131.8917430  53.9014342 139.8225604 129.3833420  59.9823145 141.4291225
 128.8554782  59.2475905 141.1164463 128.8820923  60.7597821 141.1831194
 134.3626266  58.1772165 146.5458272 133.7049941  58.8671427 146.6338400
 135.1666665  58.5668597 146.8892258 124.1152148  50.6442811 143.7897837
 124.6895900  50.4217993 143.0571030 124.7023130  50.7131506 144.5426438
 133.1731725  56.5316538 144.5962213 133.6863607  57.1646530 145.0983923
 133.8232949  55.9317734 144.2305573 124.4421735  52.6747272 137.8093722
 123.6059047  53.0121959 138.1302997 124.3026504  52.5396252 136.8720859
 126.4174815  47.5184060 142.5172906 125.7639228  47.2033077 141.8929521
 126.3755290  46.8959801 143.2432729 127.5286020  57.8003355 134.4326198
 126.6213082  57.5692609 134.6317347 128.0257052  57.0040974 134.6200180
 130.4354099  66.5100862 137.3522884 129.7615798  66.8132559 137.9607842
 130.8219921  67.3129943 137.0028341 129.6512556  54.0065994 146.8420554
 128.7335117  54.2280941 146.6842242 130.0672699  54.0812304 145.9832261
 130.4347604  55.4057409 141.9723234 131.1819423  55.9178807 141.6630356
 130.7039193  55.0841462 142.8327628 128.7074254  57.9015950 138.9550188
 127.7985473  57.6174983 139.0522658 128.7369338  58.3215029 138.0953495
 133.9393521  61.5122540 142.7241356 133.4855848  60.6713449 142.7806546
 133.3087488  62.1483938 143.0616136 132.8826441  52.4414526 143.9542023
 132.1449198  51.9291912 144.2852266 133.1353214  52.0014907 143.1425300
 132.3826460  63.3499036 143.6591174 132.6749435  63.9104093 142.9403540
 132.8925081  63.6427597 144.4144333 132.9838068  45.2190778 144.5483793
 133.2896945  44.3588141 144.2609708 133.7090673  45.8108398 144.3482787
 119.2762424  55.6221464 142.9365391 119.0786824  55.0290825 142.2116457
 118.7209088  55.3173674 143.6541329 127.2559148  55.5144571 145.0559984
 127.3107758  54.5618407 144.9802460 126.4450350  55.6704010 145.5401282
 128.4050342  59.4424694 136.2938267 127.9669771  58.7260553 135.8343904
 129.1460782  59.6700809 135.7323358 125.1951508  54.1321630 142.8150363
 124.3819373  54.4315801 143.2215555 125.6910502  53.7377319 143.5324845
 127.3460086  64.1279387 144.7484627 127.3036264  64.3540234 143.8193159
 128.2622784  63.8942762 144.8970428 130.7925719  54.5963455 151.6465256
 131.1475107  54.8234928 152.5059722 131.4397851  54.9281832 151.0242512
 136.5223456  57.7181891 142.3514585 136.3841355  57.9083487 141.4235775
 136.1659675  58.4801274 142.8082637 124.6865582  51.7039986 148.4311598
 125.3264962  51.5628745 147.7334561 123.8543113  51.4174499 148.0550200
 136.5492836  59.7858418 147.3625857 136.9829343  59.6933707 148.2108911
 137.2624417  59.7615918 146.7245873 125.4625886  61.0042416 144.5446590
 126.2566485  60.5092737 144.3429165 124.7517579  60.4760280 144.1814296
 130.2820731  63.3860512 148.8958958 130.3357753  63.9551448 149.6636673
 129.4135512  63.5562397 148.5312995 121.7708650  55.1485498 140.6206343
 120.8406238  55.0869954 140.8376305 121.8666122  54.6261451 139.8242984
 121.6894199  51.6740311 143.2084584 121.9501016  52.5885644 143.0993745
 122.5111371  51.2064754 143.3581197 123.1619124  53.0878068 150.3783409
 123.8342178  52.8795430 149.7296058 122.3348911  52.8900154 149.9388641
 129.2408831  57.5520774 150.4545889 130.1700891  57.7031934 150.2814857
 128.8199861  57.6404795 149.5994536 128.0397162  61.5771438 148.2244427
 127.9008248  61.2090223 149.0970365 127.2511759  62.0919078 148.0528385
 128.6345314  66.6780535 139.5669964 128.8097070  66.2068578 140.3815586
 127.9478102  67.3046301 139.7951224 129.5902378  60.9553041 145.6133265
 129.2552210  60.9153811 146.5090915 129.0906323  60.2897757 145.1403675
 123.5646621  56.3620671 151.1385846 123.4266419  55.6300910 151.7397385
 124.4751545  56.2729571 150.8570034 132.5261569  58.3009075 135.8870325
 131.9090740  57.5755904 135.7903377 132.0578058  59.0618436 135.5437399
 126.1928922  56.0740630 150.6269526 126.9028541  55.4333823 150.5856144
 126.1498230  56.3253525 151.5495706 134.1815701  63.0107984 153.5476105
 134.1228247  62.3267204 152.8806688 134.5835219  63.7526974 153.0956731
 124.9057856  53.0605848 152.4465165 124.3695213  52.6096587 153.0986761
 124.3174565  53.1951757 151.7035629 123.2006400  69.8269898 146.3409824
 123.4402998  70.4588422 147.0188842 122.3575596  69.4757938 146.6275183
 124.3160115  52.5194500 135.0091629 123.4389581  52.3983300 134.6453875
 124.7917868  51.7280578 134.7570517 134.1833108  60.9747568 151.7790085
 133.2959887  60.6373489 151.9016483 134.7531659  60.2430599 152.0158850
 115.8362255  57.3071659 145.1033136 116.5233295  56.9933389 144.5154151
 115.6810384  58.2113024 144.8300387 120.6396977  52.1961856 149.5318160
 120.5555166  51.5887526 148.7968570 119.8179684  52.6870874 149.5327656
 127.7134261  65.6349020 148.7451328 127.6404433  66.4403992 149.2570632
 127.2711655  65.8340986 147.9199349 127.5024041  64.8720790 142.2554149
 126.7191563  65.4142470 142.3492374 128.2016786  65.3894770 142.6548390
 130.8120691  50.6815420 144.8988355 131.3089391  49.9285382 144.5789425
 130.0407673  50.7179736 144.3331564 138.6650449  56.3855785 146.5406646
 138.6540325  57.2680500 146.1700579 137.7967828  56.0327336 146.3461183
 130.1732945  65.5335854 150.9009486 130.8860917  66.1683319 150.8285388
 129.6822974  65.6299720 150.0849488 131.8950472  59.4387107 142.4726778
 130.9606751  59.5588569 142.3031482 132.0727140  58.5359574 142.2086788
 127.3955660  52.8232803 144.6260039 127.0253447  52.2703843 145.3140945
 127.8914752  52.2190936 144.0735039 135.2823023  55.2804426 143.0076812
 135.7483475  56.1132418 142.9337115 135.7330524  54.8149408 143.7122071
 125.2244859  63.2830298 151.7215057 125.9254318  63.9166781 151.8744451
 124.7539974  63.6245029 150.9610696 133.3499254  61.6248247 140.0062964
 133.6259098  61.5104842 140.9156838 132.4803753  61.2265732 139.9675137
 133.0246144  55.8374905 149.5467608 132.3717595  56.0850812 148.8920060
 133.4026524  55.0239043 149.2130085 129.9853318  65.8734598 143.6495778
 130.1675713  65.0556254 144.1123530 130.8086304  66.0902290 143.2120668
 130.3195484  64.8002783 140.9110826 130.8483250  64.2895238 140.2980988
 130.5823703  64.4845314 141.7756359 120.8212577  62.8166653 148.6546160
 121.4066013  62.0710340 148.7874064 120.6237415  63.1270609 149.5382824
 123.6751232  65.8517900 143.6708602 123.0061607  66.3364028 143.1872642
 123.5364102  66.0987120 144.5851981 115.4130231  55.3872253 147.3750603
 115.4514331  54.8535843 148.1687721 114.9070524  54.8607458 146.7561580
 127.8156500  67.8861643 150.2691261 128.3674808  68.0493265 151.0340346
 128.1562694  68.4766081 149.5971285 122.7920994  50.2336793 150.8713145
 122.8562320  51.0951624 150.4590543 122.7288114  49.6210795 150.1385504
 122.2673266  52.3059926 154.5186180 122.8945305  51.9237003 155.1323704
 121.4101185  52.0874128 154.8841872 132.6667375  62.7122901 156.1239915
 133.2107279  63.3252859 155.6294870 132.0854220  63.2702479 156.6406928
 119.0438809  54.1136355 140.4504534 119.3392250  53.2047033 140.3971588
 118.1426845  54.0924094 140.1285537 130.9524888  65.8343619 147.2554943
 130.8276027  65.0333359 146.7465888 131.6103979  66.3289812 146.7668913
 122.5733056  52.1892352 146.4332083 121.8519642  52.8028319 146.2939556
 123.3626312  52.7250116 146.3548729 133.0159796  63.6352639 148.8834493
 132.0690132  63.5157990 148.8112820 133.3642569  62.7475137 148.9660754
 125.3759369  49.5246778 152.7072735 125.8993771  49.7709075 153.4699044
 125.1571703  50.3566813 152.2875872 120.7726650  51.7950453 140.5743860
 120.4439357  50.9147832 140.3918966 121.1266021  51.7398121 141.4620249
 130.0206229  63.4305355 145.0838845 129.8731192  62.5022063 145.2646415
 130.8459723  63.4525446 144.5995920 123.8868474  52.0823422 140.9419337
 124.2264546  52.6109344 140.2197946 124.3340594  52.4203829 141.7177904
 133.6240351  64.2533914 146.1703718 134.5486899  64.0476775 146.0328169
 133.4555655  64.0050315 147.0793059 126.5811914  50.4660473 150.3922405
 126.2408735  49.6668286 150.7943085 125.8750921  50.7662184 149.8199239
 127.2328386  47.5509786 148.8449728 128.0554456  47.0770264 148.7228619
 127.4766450  48.3300269 149.3448415 125.8736621  50.5798044 139.1412630
 126.5944983  50.9579297 138.6376347 125.2501925  51.2986921 139.2447608
 130.0167744  51.2843193 140.0770962 130.2331358  52.1667831 139.7759791
 129.5361811  50.8929406 139.3476604 124.7566965  54.2428906 146.6541707
 124.6111546  54.5569209 147.5465988 124.2792169  54.8613807 146.1012606
 126.6163348  51.2331454 146.7022597 126.6024917  50.3372547 146.3654894
 127.3335776  51.2402118 147.3360883 128.4689479  51.6668794 148.7475724
 128.2107256  52.5885865 148.7460054 127.9374519  51.2699229 149.4376188
 133.4135667  64.7719582 141.5265809 133.5872545  64.2066004 140.7739662
 133.9064559  65.5720476 141.3445299 119.2312627  56.7834251 149.5929368
 118.6866095  57.5594059 149.7249642 120.1091977  57.1305055 149.4348490
 126.0200244  50.1145834 141.9710167 126.1416155  49.1862481 142.1701054
 125.7302286  50.1284520 141.0588482 128.8891434  47.8000745 145.1076886
 128.9113131  47.8640078 144.1528866 129.3059493  46.9605254 145.3017393
 139.2675059  57.5356004 143.1456109 139.7106205  56.7863330 142.7475232
 138.3901569  57.5266141 142.7629841 134.4010840  64.0886346 138.6262708
 135.0961745  64.7093039 138.8450022 134.7433990  63.2381697 138.9015085
 120.0178649  55.9104147 152.4859525 119.2760385  56.0586782 153.0724155
 119.6971393  56.1712412 151.6226274 136.3002263  61.5386051 140.1550038
 136.8253587  61.8773324 139.4299358 136.2124616  60.6033067 139.9713173
 127.9622312  65.4520125 152.2839915 128.2709438  65.2069272 153.1562615
 128.7597794  65.6566764 151.7958785 127.9842924  67.6058035 144.5145292
 127.5447914  67.1134413 145.2078148 128.7351041  67.0631002 144.2737367
 120.4635263  63.7969576 144.5169920 121.2893283  63.4973347 144.1368563
 120.1129315  63.0277198 144.9659708 125.4316796  63.1496044 146.5867593
 124.8096805  62.4866749 146.2869821 126.1021663  63.1757176 145.9041241
 118.6643868  61.7155902 145.4758853 117.8275776  61.2878076 145.2942854
 118.6367513  61.9088345 146.4129644 124.9930303  61.6999967 140.0626054
 125.1418423  62.3835432 139.4092727 125.7996746  61.6805057 140.5775510
 127.7340612  52.3809204 152.9346458 126.8643921  52.6742770 152.6629046
 127.9700092  52.9649649 153.6553722 138.8107923  59.0061243 145.5378557
 139.6454815  59.4451047 145.7016117 138.9467052  58.5299896 144.7186802
 122.7482936  57.7265145 141.0687123 122.5028978  56.8227475 141.2667333
 122.9178850  57.7282295 140.1266601 122.0178583  53.4593502 138.5673284
 121.3247828  53.5337857 137.9113320 121.7730335  52.6953846 139.0894801
 130.6892240  45.0189104 145.9712775 130.9693994  44.3512293 146.5973201
 131.4742847  45.2118199 145.4587439 128.4925708  64.1948098 137.5337801
 127.9199675  64.8138285 137.0808273 129.0658502  64.7447459 138.0677723
 131.7122968  64.4785248 138.6646383 132.6453641  64.4130809 138.8679259
 131.6246181  65.3141515 138.2060916 134.3410985  63.7951118 135.6250331
 134.2624616  63.4610982 136.5186089 135.1620652  64.2872886 135.6241803
 128.8772507  55.5308910 134.8753854 129.8231612  55.4015118 134.9442272
 128.4986752  54.7923572 135.3523282 128.7611199  59.5826656 156.3354511
 129.6814209  59.7605255 156.5294557 128.7260782  58.6382702 156.1834210
 127.0615424  53.4558887 134.8108739 126.1546879  53.1591999 134.8871453
 127.3391405  53.1588705 133.9443025 117.9793364  54.7765250 145.2607785
 117.6596149  53.9230558 144.9682159 117.4326793  54.9913828 146.0165753
 121.7573272  57.4927691 148.9777292 121.9759282  58.4244799 148.9965326
 122.1699046  57.1335666 149.7632096 128.6777490  47.9995776 140.9652980
 127.8678218  47.6542861 141.3408226 129.3661907  47.6903320 141.5540592
 130.6068038  47.0773823 142.5877277 131.1599077  47.4969277 143.2467300
 130.8438124  46.1509571 142.6300233 125.8314209  50.3145822 134.9520718
 126.6933373  50.6400720 135.2116535 126.0164553  49.5277318 134.4393784
 117.8481624  58.3968162 147.2300907 117.1545096  57.9822114 146.7170861
 118.5954615  58.4388698 146.6334326 133.9846845  49.1874348 142.0955941
 133.4045514  49.8459152 141.7133994 133.7182778  48.3651693 141.6843359
 132.4350411  48.5879406 144.2977261 132.9350190  48.6995941 143.4891580
 133.0786019  48.2840459 144.9378070 126.4932407  56.4958036 157.1845102
 126.0099489  57.2958396 157.3908991 126.5793346  56.5065981 156.2312546
 119.7618367  58.3286415 145.1066922 119.7389055  58.4274103 144.1548805
 120.0719003  59.1751566 145.4284088 122.4205745  60.3862570 149.2213536
 123.3748998  60.3546513 149.1543468 122.2218268  59.9253194 150.0363762
 123.0105127  58.9563686 151.7884334 123.8298016  59.4507765 151.8119171
 123.2841935  58.0395655 151.7601901 132.7671723  51.3474439 141.1512289
 131.8797578  51.6324089 140.9332484 133.1825712  51.1868202 140.3039566
 136.1186259  51.3720960 144.8666629 136.8946649  51.8617412 145.1391245
 135.3934393  51.7979014 145.3238498 120.7755974  65.9282190 146.2383734
 120.6410442  65.1682591 145.6721732 120.3588036  66.6523090 145.7712523
 131.9114937  61.1119113 135.2460309 132.6150787  61.3169116 135.8617965
 131.1877585  61.6795875 135.5109393 132.7412747  56.8628975 141.3662580
 132.6847948  57.3197526 140.5270212 133.2941089  56.1019659 141.1885422
 136.5517553  52.6518707 142.1912699 136.2954487  52.2515342 143.0220907
 135.9270421  53.3662501 142.0662838 140.8629891  55.3914780 144.6983990
 140.3029449  55.4607969 145.4715552 140.2573394  55.2155764 143.9783487
 123.9325099  66.8251507 146.4502177 123.8157484  67.7696939 146.3480867
 123.1117546  66.5225069 146.8387976 133.8201634  61.5501643 137.2958769
 134.6547238  61.1182841 137.1136244 133.6585977  61.3783656 138.2235664
 133.4747526  58.0533756 138.6615109 133.4196330  57.8878027 137.7203553
 132.8493581  58.7609789 138.8177298 118.2640041  53.2901820 152.4876531
 118.9098905  52.7800774 152.9763756 118.0557192  54.0270502 153.0619956
 126.7843652  47.5541865 138.2400427 126.7722321  48.4983705 138.3968698
 127.6767074  47.3712010 137.9459888 124.9579614  67.4779769 149.6658105
 125.8606860  67.5103379 149.9824600 124.7316984  66.5480220 149.6804441
 126.7133216  66.2310755 146.3268184 125.7628847  66.2312617 146.2132556
 127.0165702  65.4843490 145.8104218 130.5995771  44.1484642 142.4946364
 129.8328167  43.5943128 142.6403046 131.0106476  44.2206510 143.3560516
 142.4485909  72.0671294 147.3913946 143.0864319  71.9478041 146.6877286
 142.3306752  73.0152138 147.4501898 139.2575615  72.0198722 147.3275471
 138.9194127  71.9039787 146.4396006 140.1265384  71.6189887 147.3076477
 135.1162431  73.8734198 143.3172362 134.5527296  73.7824135 142.5488650
 135.0014826  73.0534103 143.7974854 139.7395398  73.1733574 153.2861676
 139.7284039  72.7786372 152.4142180 139.9016038  72.4399646 153.8795448
 132.6626863  75.3685390 146.1556582 133.4548155  75.0276215 145.7402882
 132.9023513  75.4780365 147.0758736 140.6961990  77.5405166 138.6286827
 140.0449970  78.1259246 138.2420841 141.4906353  78.0711361 138.6881864
 134.6217617  74.6294303 139.0273961 135.3948493  74.0823290 138.8886837
 134.9743016  75.4938552 139.2388422 136.4602660  75.9570685 152.2340860
 136.1692525  76.8616316 152.1187527 137.0959644  75.9987213 152.9484930
 137.3858866  73.3347534 148.8242220 137.9822439  73.1103556 148.1099183
 137.4433838  72.5932279 149.4267668 136.9583895  70.7886969 136.6592411
 137.2109415  70.2668491 135.8975874 136.0208454  70.6253115 136.7619095
 142.0027178  69.7922748 144.4667154 142.7890267  69.3742171 144.1157571
 142.2665882  70.6968840 144.6348803 142.1737255  75.2295598 139.1655811
 141.5383088  75.3030224 139.8776716 141.8434661  75.8189197 138.4874890
 147.4035605  69.7297981 145.3700133 148.1360777  69.1597198 145.6037962
 146.6474960  69.3419581 145.8106638 136.6780183  72.6915075 138.8616786
 136.5616442  72.0159979 139.5297870 136.7882443  72.2047449 138.0448939
 139.0211724  72.1525222 142.5663475 138.6569932  71.6255843 143.2776397
 139.8778840  71.7623691 142.3929961 138.6617211  67.1815122 137.5624824
 138.8291614  68.0495358 137.9295295 138.4714380  67.3442404 136.6386113
 141.4192545  75.6432101 149.2290654 141.1193268  76.5457140 149.1206461
 141.0743604  75.3764284 150.0811807 134.8705026  72.0945898 145.2627358
 133.9455523  71.9622112 145.4705050 135.1189439  72.8740117 145.7597301
 144.8189688  68.1614641 146.9088091 143.9106566  68.0930050 146.6146852
 144.7677284  68.6386586 147.7369917 138.6406432  69.6372780 138.5471491
 138.5206057  70.0829830 139.3856971 137.9459021  69.9858097 137.9885029
 132.2313837  71.7379171 146.0971148 132.3606218  71.9913650 147.0110559
 131.5511288  72.3306879 145.7775803 136.4013324  82.4076421 142.1961622
 136.3237354  83.3584246 142.2750102 135.7974968  82.0622294 142.8536548
 144.3391498  70.1094253 139.3751825 145.2509355  70.3421639 139.1999522
 143.8301146  70.6931297 138.8126903 137.1476926  72.3889740 154.4140956
 137.8891611  72.9274784 154.1375779 136.4413912  73.0156029 154.5712507
 142.6232266  74.5318881 153.0113117 143.0315622  74.0901291 152.2667750
 141.9009528  73.9571508 153.2647310 138.9763336  69.4691487 150.3846674
 139.8224531  69.8930901 150.5281323 138.9161974  68.8125112 151.0785237
 142.9461081  75.0920071 146.7665406 142.3169943  75.2565785 146.0641474
 142.5586743  75.5061681 147.5376370 146.8250313  76.0274509 144.1209770
 146.1401351  76.4073410 143.5706803 146.9094162  76.6369836 144.8541718
 144.0801244  73.6734468 150.7205113 144.2918139  74.3166228 150.0439494
 144.0330993  72.8396785 150.2527043 141.6827473  66.2852289 147.6241685
 140.8211952  66.5833542 147.9158423 141.7089908  66.5022688 146.6922718
 138.4989043  74.8294479 144.0315491 138.9627388  75.1082182 143.2420114
 138.2345841  73.9277924 143.8488582 135.3913124  74.3765961 146.9695254
 135.9614481  74.8053229 146.3312739 135.9821236  74.0948545 147.6679440
 137.4357929  70.9517632 140.8405056 138.1381972  71.4038675 141.3078983
 137.1038557  70.3101450 141.4684949 135.8838290  69.5429388 155.2156266
 135.2536951  70.2245669 155.4491662 135.7774378  69.4312470 154.2709404
 131.1783263  69.2101184 146.1422190 130.3882317  69.4658713 145.6662300
 131.6694510  70.0249522 146.2474230 145.1947072  76.5506423 148.8927471
 146.0164516  76.1486611 148.6110152 145.1909475  76.4474658 149.8443586
 133.1298008  69.5745764 143.1005667 132.3329171  69.6864458 143.6189162
 132.9023600  69.9132416 142.2346557 138.9603676  76.0990467 151.0488181
 139.0248108  76.5610874 151.8846353 138.2514600  75.4687832 151.1770491
 129.4620966  69.4631675 148.5737181 129.7129004  70.3478685 148.8394757
 129.9980514  69.2836276 147.8012272 138.6751693  77.7658574 140.9167161
 138.5397368  78.6110110 141.3452009 139.2161506  77.9677852 140.1533095
 132.1281091  75.2834012 141.4895087 132.6405611  76.0777263 141.6400651
 132.7803804  74.5860303 141.4228688 133.9375975  78.3999769 143.5717840
 134.1142604  79.3217733 143.3838824 134.7332809  78.0858188 144.0012220
 133.2228332  70.4464400 153.4480003 133.1081847  69.5449658 153.7487102
 132.3672850  70.6928097 153.0964819 135.0607291  79.9177942 149.5728182
 135.6114716  79.7895006 148.8005176 134.2218767  80.2172831 149.2223075
 138.8574462  76.1829070 153.9172413 139.3902799  75.4217358 153.6871721
 138.3288543  75.8902722 154.6596568 130.0930007  73.6122667 142.2654657
 130.9305229  74.0219675 142.0488365 130.2708275  72.6722109 142.2354851
 141.9894440  71.2797747 137.9538490 141.4741063  72.0502352 138.1926877
 141.7171748  70.6062883 138.5771552 139.5741551  66.1247448 143.0123728
 138.7183147  65.7354298 142.8329367 139.9868502  66.2039409 142.1523514
 141.1040697  63.6593791 147.4115288 140.6005493  63.6223926 146.5983093
 141.3971304  64.5686534 147.4711945 137.3483583  63.7432521 146.4181470
 138.2136580  63.5475330 146.0587359 137.4161092  63.5142873 147.3450827
 146.9628714  74.0330102 139.8891664 146.1858156  73.6941261 139.4446826
 147.6420195  74.0382725 139.2146629 141.7780743  69.1524839 139.7798271
 141.4730878  69.4670988 140.6308414 142.7311185  69.2306259 139.8225604
 140.2227175  75.3115063 141.4291225 139.6948536  74.5767822 141.1164463
 139.7214677  76.0889739 141.1831194 145.2020021  73.5064083 146.5458272
 144.5443695  74.1963345 146.6338400 146.0060420  73.8960515 146.8892258
 134.9545902  65.9734729 143.7897837 135.5289654  65.7509910 143.0571030
 135.5416885  66.0423423 144.5426438 144.0125479  71.8608456 144.5962213
 144.5257361  72.4938448 145.0983923 144.6626703  71.2609651 144.2305573
 135.2815489  68.0039190 137.8093722 134.4452802  68.3413876 138.1302997
 135.1420259  67.8688170 136.8720859 137.2568570  62.8475978 142.5172906
 136.6032982  62.5324995 141.8929521 137.2149044  62.2251718 143.2432729
 138.3679775  73.1295273 134.4326198 137.4606837  72.8984526 134.6317347
 138.8650807  72.3332892 134.6200180 141.2747854  81.8392780 137.3522884
 140.6009552  82.1424477 137.9607842 141.6613676  82.6421860 137.0028341
 140.4906310  69.3357911 146.8420554 139.5728872  69.5572858 146.6842242
 140.9066454  69.4104222 145.9832261 141.2741358  70.7349327 141.9723234
 142.0213177  71.2470724 141.6630356 141.5432948  70.4133380 142.8327628
 139.5468008  73.2307868 138.9550188 138.6379227  72.9466901 139.0522658
 139.5763092  73.6506946 138.0953495 144.7787276  76.8414457 142.7241356
 144.3249603  76.0005367 142.7806546 144.1481242  77.4775856 143.0616136
 143.7220195  67.7706443 143.9542023 142.9842952  67.2583830 144.2852266
 143.9746969  67.3306825 143.1425300 143.2220215  78.6790954 143.6591174
 143.5143189  79.2396011 142.9403540 143.7318835  78.9719515 144.4144333
 143.8231823  60.5482695 144.5483793 144.1290699  59.6880059 144.2609708
 144.5484427  61.1400315 144.3482787 130.1156179  70.9513382 142.9365391
 129.9180578  70.3582743 142.2116457 129.5602843  70.6465592 143.6541329
 138.0952902  70.8436488 145.0559984 138.1501512  69.8910325 144.9802460
 137.2844104  70.9995927 145.5401282 139.2444096  74.7716611 136.2938267
 138.8063526  74.0552470 135.8343904 139.9854537  74.9992726 135.7323358
 136.0345262  69.4613548 142.8150363 135.2213128  69.7607719 143.2215555
 136.5304256  69.0669237 143.5324845 138.1853840  79.4571305 144.7484627
 138.1430019  79.6832151 143.8193159 139.1016539  79.2234680 144.8970428
 141.6319474  69.9255373 151.6465256 141.9868862  70.1526846 152.5059722
 142.2791605  70.2573749 151.0242512 147.3617211  73.0473808 142.3514585
 147.2235109  73.2375404 141.4235775 147.0053430  73.8093191 142.8082637
 135.5259337  67.0331904 148.4311598 136.1658716  66.8920663 147.7334561
 134.6936867  66.7466417 148.0550200 147.3886590  75.1150335 147.3625857
 147.8223097  75.0225625 148.2108911 148.1018171  75.0907836 146.7245873
 136.3019641  76.3334334 144.5446590 137.0960239  75.8384654 144.3429165
 135.5911333  75.8052197 144.1814296 141.1214485  78.7152430 148.8958958
 141.1751508  79.2843366 149.6636673 140.2529267  78.8854315 148.5312995
 132.6102404  70.4777416 140.6206343 131.6799992  70.4161871 140.8376305
 132.7059876  69.9553369 139.8242984 132.5287953  67.0032229 143.2084584
 132.7894771  67.9177562 143.0993745 133.3505126  66.5356671 143.3581197
 134.0012879  68.4169986 150.3783409 134.6735932  68.2087348 149.7296058
 133.1742665  68.2192072 149.9388641 140.0802585  72.8812692 150.4545889
 141.0094645  73.0323851 150.2814857 139.6593615  72.9696712 149.5994536
 138.8790917  76.9063356 148.2244427 138.7402003  76.5382140 149.0970365
 138.0905513  77.4210995 148.0528385 139.4739069  82.0072453 139.5669964
 139.6490825  81.5360496 140.3815586 138.7871857  82.6338219 139.7951224
 140.4296132  76.2844959 145.6133265 140.0945965  76.2445729 146.5090915
 139.9300078  75.6189675 145.1403675 134.4040376  71.6912589 151.1385846
 134.2660174  70.9592828 151.7397385 135.3145299  71.6021489 150.8570034
 143.3655324  73.6300993 135.8870325 142.7484494  72.9047821 135.7903377
 142.8971812  74.3910353 135.5437399 137.0322677  71.4032548 150.6269526
 137.7422295  70.7625740 150.5856144 136.9891985  71.6545443 151.5495706
 135.7451611  68.3897766 152.4465165 135.2088968  67.9388504 153.0986761
 135.1568319  68.5243675 151.7035629 134.0400154  85.1561815 146.3409824
 134.2796752  85.7880339 147.0188842 133.1969351  84.8049855 146.6275183
 135.1553870  67.8486417 135.0091629 134.2783336  67.7275218 134.6453875
 135.6311623  67.0572496 134.7570517 145.0226863  76.3039485 151.7790085
 144.1353641  75.9665407 151.9016483 145.5925414  75.5722517 152.0158850
 126.6756010  72.6363577 145.1033136 127.3627050  72.3225307 144.5154151
 126.5204138  73.5404942 144.8300387 131.4790732  67.5253774 149.5318160
 131.3948921  66.9179443 148.7968570 130.6573438  68.0162792 149.5327656
 138.5528016  80.9640938 148.7451328 138.4798187  81.7695909 149.2570632
 138.1105409  81.1632904 147.9199349 138.3417796  80.2012708 142.2554149
 137.5585317  80.7434388 142.3492374 139.0410541  80.7186687 142.6548390
 141.6514446  66.0107337 144.8988355 142.1483145  65.2577300 144.5789425
 140.8801427  66.0471654 144.3331564 149.5044203  71.7147703 146.5406646
 149.4934079  72.5972418 146.1700579 148.6361583  71.3619254 146.3461183
 142.7344226  74.7679024 142.4726778 141.8000505  74.8880487 142.3031482
 142.9120895  73.8651491 142.2086788 138.2349414  68.1524720 144.6260039
 137.8647202  67.5995761 145.3140945 138.7308507  67.5482854 144.0735039
 146.1216778  70.6096344 143.0076812 146.5877230  71.4424335 142.9337115
 146.5724278  70.1441325 143.7122071 136.0638613  78.6122215 151.7215057
 136.7648073  79.2458698 151.8744451 135.5933728  78.9536947 150.9610696
 144.1893009  76.9540165 140.0062964 144.4652853  76.8396760 140.9156838
 143.3197508  76.5557650 139.9675137 143.8639899  71.1666823 149.5467608
 143.2111349  71.4142730 148.8920060 144.2420279  70.3530961 149.2130085
 140.8247073  81.2026516 143.6495778 141.0069467  80.3848172 144.1123530
 141.6480059  81.4194208 143.2120668 141.1589238  80.1294701 140.9110826
 141.6877005  79.6187156 140.2980988 141.4217458  79.8137231 141.7756359
 131.6606331  78.1458570 148.6546160 132.2459768  77.4002258 148.7874064
 131.4631170  78.4562527 149.5382824 134.5144986  81.1809818 143.6708602
 133.8455362  81.6655945 143.1872642 134.3757856  81.4279038 144.5851981
 126.2523986  70.7164170 147.3750603 126.2908085  70.1827761 148.1687721
 125.7464279  70.1899376 146.7561580 133.6314748  65.5628711 150.8713145
 133.6956075  66.4243542 150.4590543 133.5681868  64.9502713 150.1385504
 133.1067021  67.6351844 154.5186180 133.7339059  67.2528921 155.1323704
 132.2494940  67.4166045 154.8841872 129.8832563  69.4428273 140.4504534
 130.1786004  68.5338951 140.3971588 128.9820599  69.4216012 140.1285537
 141.7918642  81.1635537 147.2554943 141.6669782  80.3625277 146.7465888
 142.4497733  81.6581730 146.7668913 133.4126810  67.5184269 146.4332083
 132.6913396  68.1320237 146.2939556 134.2020066  68.0542034 146.3548729
 143.8553551  78.9644557 148.8834493 142.9083886  78.8449908 148.8112820
 144.2036324  78.0767055 148.9660754 136.2153124  64.8538696 152.7072735
 136.7387526  65.1000992 153.4699044 135.9965457  65.6858731 152.2875872
 131.6120405  67.1242370 140.5743860 131.2833111  66.2439749 140.3918966
 131.9659776  67.0690039 141.4620249 140.8599984  78.7597273 145.0838845
 140.7124946  77.8313980 145.2646415 141.6853477  78.7817364 144.5995920
 134.7262228  67.4115340 140.9419337 135.0658301  67.9401261 140.2197946
 135.1734349  67.7495746 141.7177904 144.4634106  79.5825832 146.1703718
 145.3880653  79.3768693 146.0328169 144.2949409  79.3342233 147.0793059
 137.4205669  65.7952391 150.3922405 137.0802489  64.9960204 150.7943085
 136.7144675  66.0954102 149.8199239 138.0722141  62.8801703 148.8449728
 138.8948210  62.4062181 148.7228619 138.3160204  63.6592187 149.3448415
 136.7130375  65.9089962 139.1412630 137.4338738  66.2871214 138.6376347
 136.0895679  66.6278838 139.2447608 140.8561498  66.6135111 140.0770962
 141.0725113  67.4959749 139.7759791 140.3755565  66.2221324 139.3476604
 135.5960720  69.5720824 146.6541707 135.4505300  69.8861127 147.5465988
 135.1185923  70.1905724 146.1012606 137.4557102  66.5623372 146.7022597
 137.4418671  65.6664465 146.3654894 138.1729531  66.5694036 147.3360883
 139.3083233  66.9960712 148.7475724 139.0501011  67.9177783 148.7460054
 138.7768274  66.5991147 149.4376188 144.2529422  80.1011499 141.5265809
 144.4266299  79.5357922 140.7739662 144.7458313  80.9012394 141.3445299
 130.0706382  72.1126168 149.5929368 129.5259850  72.8885976 149.7249642
 130.9485732  72.4596973 149.4348490 136.8593998  65.4437752 141.9710167
 136.9809910  64.5154398 142.1701054 136.5696041  65.4576438 141.0588482
 139.7285189  63.1292663 145.1076886 139.7506886  63.1931996 144.1528866
 140.1453248  62.2897171 145.3017393 150.1068813  72.8647922 143.1456109
 150.5499959  72.1155247 142.7475232 149.2295323  72.8558058 142.7629841
 145.2404594  79.4178264 138.6262708 145.9355499  80.0384956 138.8450022
 145.5827745  78.5673615 138.9015085 130.8572404  71.2396065 152.4859525
 130.1154140  71.3878700 153.0724155 130.5365148  71.5004330 151.6226274
 147.1396018  76.8677969 140.1550038 147.6647342  77.2065242 139.4299358
 147.0518370  75.9324984 139.9713173 138.8236678  82.9349952 144.5145292
 138.3841669  82.4426331 145.2078148 139.5744795  82.3922920 144.2737367
 131.3029017  79.1261493 144.5169920 132.1287037  78.8265265 144.1368563
 130.9523069  78.3569116 144.9659708 136.2710550  78.4787961 146.5867593
 135.6490560  77.8158667 146.2869821 136.9415417  78.5049093 145.9041241
 129.5037622  77.0447820 145.4758853 128.6669531  76.6169994 145.2942854
 129.4761268  77.2380263 146.4129644 135.8324057  77.0291885 140.0626054
 135.9812178  77.7127349 139.4092727 136.6390501  77.0096975 140.5775510
 138.5734366  67.7101122 152.9346458 137.7037676  68.0034688 152.6629046
 138.8093847  68.2941567 153.6553722 149.6501678  74.3353160 145.5378557
 150.4848569  74.7742964 145.7016117 149.7860807  73.8591814 144.7186802
 133.5876690  73.0557062 141.0687123 133.3422732  72.1519392 141.2667333
 133.7572605  73.0574213 140.1266601 132.8572338  68.7885420 138.5673284
 132.1641583  68.8629775 137.9113320 132.6124090  68.0245764 139.0894801
 141.5285994  60.3481021 145.9712775 141.8087748  59.6804210 146.5973201
 142.3136601  60.5410117 145.4587439 139.3319463  79.5240015 137.5337801
 138.7593430  80.1430202 137.0808273 139.9052257  80.0739377 138.0677723
 142.5516723  79.8077165 138.6646383 143.4847396  79.7422727 138.8679259
 142.4639935  80.6433432 138.2060916 145.1804739  79.1243036 135.6250331
 145.1018371  78.7902899 136.5186089 146.0014406  79.6164804 135.6241803
 139.7166261  70.8600828 134.8753854 140.6625366  70.7307036 134.9442272
 139.3380506  70.1215490 135.3523282 137.9009178  68.7850804 134.8108739
 136.9940634  68.4883917 134.8871453 138.1785160  68.4880622 133.9443025
 128.8187119  70.1057168 145.2607785 128.4989903  69.2522476 144.9682159
 128.2720547  70.3205746 146.0165753 132.5967026  72.8219609 148.9777292
 132.8153036  73.7536717 148.9965326 133.0092800  72.4627583 149.7632096
 139.5171244  63.3287694 140.9652980 138.7071973  62.9834779 141.3408226
 140.2055661  63.0195238 141.5540592 141.4461793  62.4065741 142.5877277
 141.9992831  62.8261194 143.2467300 141.6831879  61.4801489 142.6300233
 136.6707963  65.6437740 134.9520718 137.5327127  65.9692638 135.2116535
 136.8558307  64.8569236 134.4393784 128.6875379  73.7260079 147.2300907
 127.9938850  73.3114032 146.7170861 129.4348370  73.7680616 146.6334326
 144.8240600  64.5166266 142.0955941 144.2439269  65.1751070 141.7133994
 144.5576532  63.6943611 141.6843359 143.2744166  63.9171324 144.2977261
 143.7743944  64.0287858 143.4891580 143.9179774  63.6132377 144.9378070
 137.3326162  71.8249953 157.1845102 136.8493243  72.6250314 157.3908991
 137.4187101  71.8357898 156.2312546 130.6012121  73.6578333 145.1066922
 130.5782810  73.7566020 144.1548805 130.9112758  74.5043484 145.4284088
 133.2599499  75.7154488 149.2213536 134.2142753  75.6838430 149.1543468
 133.0612023  75.2545112 150.0363762 133.8498881  74.2855604 151.7884334
 134.6691770  74.7799683 151.8119171 134.1235689  73.3687572 151.7601901
 143.6065478  66.6766356 141.1512289 142.7191333  66.9616007 140.9332484
 144.0219467  66.5160120 140.3039566 146.9580014  66.7012877 144.8666629
 147.7340404  67.1909330 145.1391245 146.2328148  67.1270932 145.3238498
 131.6149728  81.2574108 146.2383734 131.4804196  80.4974508 145.6721732
 131.1981790  81.9815007 145.7712523 142.7508691  76.4411031 135.2460309
 143.4544541  76.6461034 135.8617965 142.0271340  77.0087793 135.5109393
 143.5806501  72.1920892 141.3662580 143.5241703  72.6489444 140.5270212
 144.1334844  71.4311577 141.1885422 147.3911307  67.9810624 142.1912699
 147.1348242  67.5807260 143.0220907 146.7664175  68.6954418 142.0662838
 151.7023645  70.7206698 144.6983990 151.1423203  70.7899887 145.4715552
 151.0967148  70.5447682 143.9783487 134.7718854  82.1543425 146.4502177
 134.6551238  83.0988857 146.3480867 133.9511300  81.8516986 146.8387976
 144.6595388  76.8793560 137.2958769 145.4940992  76.4474759 137.1136244
 144.4979731  76.7075574 138.2235664 144.3141281  73.3825674 138.6615109
 144.2590084  73.2169945 137.7203553 143.6887336  74.0901707 138.8177298
 129.1033796  68.6193738 152.4876531 129.7492659  68.1092692 152.9763756
 128.8950947  69.3562420 153.0619956 137.6237406  62.8833783 138.2400427
 137.6116076  63.8275623 138.3968698 138.5160828  62.7003928 137.9459888
 135.7973368  82.8071687 149.6658105 136.7000615  82.8395297 149.9824600
 135.5710738  81.8772137 149.6804441 137.5526970  81.5602673 146.3268184
 136.6022601  81.5604535 146.2132556 137.8559456  80.8135408 145.8104218
 141.4389526  59.4776559 142.4946364 140.6721921  58.9235046 142.6403046
 141.8500231  59.5498428 143.3560516 145.9556186  89.2026116 143.3172362
 145.3921051  89.1116053 142.5488650 145.8408581  88.3826020 143.7974854
 151.5355744  92.8697084 138.6286827 150.8843724  93.4551164 138.2420841
 152.3300107  93.4003279 138.6881864 145.4611371  89.9586221 139.0273961
 146.2342247  89.4115208 138.8886837 145.8136770  90.8230470 139.2388422
 147.7977649  86.1178887 136.6592411 148.0503170  85.5960408 135.8975874
 146.8602208  85.9545032 136.7619095 153.0131009  90.5587516 139.1655811
 152.3776842  90.6322142 139.8776716 152.6828416  91.1481114 138.4874890
 147.5173938  88.0206993 138.8616786 147.4010196  87.3451896 139.5297870
 147.6276198  87.5339367 138.0448939 149.8605479  87.4817140 142.5663475
 149.4963686  86.9547761 143.2776397 150.7172595  87.0915609 142.3929961
 149.5010966  82.5107040 137.5624824 149.6685368  83.3787276 137.9295295
 149.3108135  82.6734321 136.6386113 149.4800187  84.9664697 138.5471491
 149.3599812  85.4121748 139.3856971 148.7852775  85.3150015 137.9885029
 155.1785253  85.4386170 139.3751825 156.0903109  85.6713557 139.1999522
 154.6694900  86.0223215 138.8126903 148.2751683  86.2809549 140.8405056
 148.9775727  86.7330593 141.3078983 147.9432312  85.6393368 141.4684949
 142.0177017  84.5393102 146.1422190 141.2276071  84.7950630 145.6662300
 142.5088265  85.3541440 146.2474230 143.9691763  84.9037681 143.1005667
 143.1722926  85.0156375 143.6189162 143.7417355  85.2424333 142.2346557
 142.9674845  90.6125930 141.4895087 143.4799366  91.4069180 141.6400651
 143.6197558  89.9152220 141.4228688 140.9323762  88.9414584 142.2654657
 141.7698984  89.3511593 142.0488365 141.1102030  88.0014026 142.2354851
 152.8288194  86.6089665 137.9538490 152.3134818  87.3794270 138.1926877
 152.5565503  85.9354801 138.5771552 150.4135305  81.4539366 143.0123728
 149.5576901  81.0646216 142.8329367 150.8262257  81.5331326 142.1523514
 148.1877338  79.0724439 146.4181470 149.0530334  78.8767247 146.0587359
 148.2554847  78.8434790 147.3450827 152.6174497  84.4816757 139.7798271
 152.3124633  84.7962906 140.6308414 153.5704939  84.5598177 139.8225604
 151.0620929  90.6406980 141.4291225 150.5342291  89.9059740 141.1164463
 150.5608432  91.4181657 141.1831194 145.7939657  81.3026647 143.7897837
 146.3683409  81.0801828 143.0571030 146.3810639  81.3715341 144.5426438
 146.1209244  83.3331108 137.8093722 145.2846556  83.6705794 138.1302997
 145.9814013  83.1980087 136.8720859 148.0962324  78.1767895 142.5172906
 147.4426737  77.8616913 141.8929521 148.0542799  77.5543636 143.2432729
 149.2073529  88.4587191 134.4326198 148.3000591  88.2276444 134.6317347
 149.7044561  87.6624810 134.6200180 152.1135113  86.0641245 141.9723234
 152.8606931  86.5762642 141.6630356 152.3826702  85.7425297 142.8327628
 150.3861763  88.5599785 138.9550188 149.4772982  88.2758818 139.0522658
 150.4156847  88.9798864 138.0953495 154.5613950  83.0998361 143.9542023
 153.8236706  82.5875747 144.2852266 154.8140723  82.6598743 143.1425300
 154.6625577  75.8774613 144.5483793 154.9684454  75.0171976 144.2609708
 155.3878182  76.4692233 144.3482787 140.9549933  86.2805300 142.9365391
 140.7574333  85.6874660 142.2116457 140.3996597  85.9757510 143.6541329
 150.0837851  90.1008529 136.2938267 149.6457280  89.3844388 135.8343904
 150.8248291  90.3284644 135.7323358 146.8739017  84.7905466 142.8150363
 146.0606882  85.0899636 143.2215555 147.3698011  84.3961155 143.5324845
 143.4496159  85.8069333 140.6206343 142.5193747  85.7453789 140.8376305
 143.5453631  85.2845286 139.8242984 143.3681708  82.3324146 143.2084584
 143.6288525  83.2469480 143.0993745 144.1898880  81.8648589 143.3581197
 154.2049078  88.9592911 135.8870325 153.5878249  88.2339739 135.7903377
 153.7365567  89.7202271 135.5437399 145.9947624  83.1778335 135.0091629
 145.1177090  83.0567136 134.6453875 146.4705377  82.3864413 134.7570517
 137.5149764  87.9655495 145.1033136 138.2020804  87.6517225 144.5154151
 137.3597893  88.8696859 144.8300387 142.3184486  82.8545691 149.5318160
 142.2342675  82.2471361 148.7968570 141.4967193  83.3454710 149.5327656
 152.4908200  81.3399255 144.8988355 152.9876900  80.5869217 144.5789425
 151.7195182  81.3763572 144.3331564 149.0743169  83.4816638 144.6260039
 148.7040956  82.9287678 145.3140945 149.5702261  82.8774771 144.0735039
 137.0917740  86.0456088 147.3750603 137.1301840  85.5119679 148.1687721
 136.5858033  85.5191294 146.7561580 140.7226318  84.7720190 140.4504534
 141.0179759  83.8630869 140.3971588 139.8214354  84.7507930 140.1285537
 144.2520565  82.8476187 146.4332083 143.5307151  83.4612155 146.2939556
 145.0413821  83.3833952 146.3548729 142.4514159  82.4534288 140.5743860
 142.1226866  81.5731667 140.3918966 142.8053530  82.3981957 141.4620249
 145.5655983  82.7407258 140.9419337 145.9052055  83.2693179 140.2197946
 146.0128103  83.0787664 141.7177904 147.5524130  81.2381879 139.1412630
 148.2732492  81.6163132 138.6376347 146.9289434  81.9570756 139.2447608
 151.6955253  81.9427028 140.0770962 151.9118867  82.8251666 139.7759791
 151.2149320  81.5513242 139.3476604 148.2950857  81.8915290 146.7022597
 148.2812426  80.9956383 146.3654894 149.0123285  81.8985953 147.3360883
 147.6987753  80.7729670 141.9710167 147.8203664  79.8446316 142.1701054
 147.4089795  80.7868356 141.0588482 150.5678943  78.4584580 145.1076886
 150.5900640  78.5223913 144.1528866 150.9847002  77.6189089 145.3017393
 146.6717812  92.3583803 140.0626054 146.8205932  93.0419267 139.4092727
 147.4784255  92.3388893 140.5775510 144.4270445  88.3848980 141.0687123
 144.1816487  87.4811310 141.2667333 144.5966359  88.3866131 140.1266601
 143.6966092  84.1177338 138.5673284 143.0035337  84.1921693 137.9113320
 143.4517844  83.3537681 139.0894801 152.3679749  75.6772939 145.9712775
 152.6481503  75.0096128 146.5973201 153.1530356  75.8702035 145.4587439
 150.1713217  94.8531933 137.5337801 149.5987184  95.4722120 137.0808273
 150.7446011  95.4031295 138.0677723 156.0198494  94.4534953 135.6250331
 155.9412125  94.1194817 136.5186089 156.8408161  94.9456721 135.6241803
 150.5560016  86.1892746 134.8753854 151.5019121  86.0598954 134.9442272
 150.1774261  85.4507408 135.3523282 148.7402933  84.1142722 134.8108739
 147.8334388  83.8175835 134.8871453 149.0178914  83.8172540 133.9443025
 139.6580873  85.4349086 145.2607785 139.3383658  84.5814394 144.9682159
 139.1114302  85.6497664 146.0165753 150.3564999  78.6579612 140.9652980
 149.5465727  78.3126697 141.3408226 151.0449416  78.3487156 141.5540592
 152.2855547  77.7357659 142.5877277 152.8386586  78.1553112 143.2467300
 152.5225633  76.8093407 142.6300233 147.5101718  80.9729657 134.9520718
 148.3720882  81.2984556 135.2116535 147.6952062  80.1861153 134.4393784
 155.6634354  79.8458184 142.0955941 155.0833023  80.5042988 141.7133994
 155.3970287  79.0235528 141.6843359 154.1137920  79.2463241 144.2977261
 154.6137699  79.3579776 143.4891580 154.7573528  78.9424294 144.9378070
 141.4405876  88.9870251 145.1066922 141.4176564  89.0857938 144.1548805
 141.7506512  89.8335402 145.4284088 154.4459232  82.0058274 141.1512289
 153.5585087  82.2907925 140.9332484 154.8613221  81.8452038 140.3039566
 153.5902446  91.7702949 135.2460309 154.2938296  91.9752951 135.8617965
 152.8665094  92.3379711 135.5109393 154.4200256  87.5212810 141.3662580
 154.3635457  87.9781362 140.5270212 154.9728598  86.7603495 141.1885422
 158.2305062  83.3102542 142.1912699 157.9741996  82.9099178 143.0220907
 157.6057930  84.0246336 142.0662838 155.4989143  92.2085478 137.2958769
 156.3334747  91.7766677 137.1136244 155.3373486  92.0367492 138.2235664
 155.1535035  88.7117591 138.6615109 155.0983839  88.5461863 137.7203553
 154.5281090  89.4193624 138.8177298 148.4631161  78.2125700 138.2400427
 148.4509830  79.1567540 138.3968698 149.3554582  78.0295846 137.9459888
 152.2783280  74.8068477 142.4946364 151.5115676  74.2526964 142.6403046
 152.6893985  74.8790346 143.3560516  90.6825137   0.8456267 133.0655130
  90.9221736   1.4774791 133.7434149  89.8394334   0.4944307 133.3520490
 102.5981169   4.8920568 130.0417668 102.0346034   4.8010505 129.2733956
 102.4833564   4.0720472 130.5220161 100.1445601   6.3871759 132.8801889
 100.9366893   6.0462584 132.4648188 100.3842251   6.4966735 133.8004042
 108.1780728   8.5591536 125.3532133 107.5268707   9.1445616 124.9666147
 108.9725090   9.0897730 125.4127171 102.1036355   5.6480673 125.7519268
 102.8767231   5.1009660 125.6132144 102.4561754   6.5124922 125.9633729
 103.9421397   6.9757055 138.9586167 103.6511263   7.8802686 138.8432833
 104.5778382   7.0173583 139.6730237 109.6555993   6.2481968 125.8901118
 109.0201826   6.3216594 126.6022022 109.3253399   6.8375566 125.2120197
 108.9011282   6.6618471 135.9535961 108.6012005   7.5643509 135.8451768
 108.5562342   6.3950654 136.8057114  99.7132575   2.7565541 132.8216454
  99.8424956   3.0100020 133.7355866  99.0330026   3.3493249 132.5021109
 103.8832062  13.4262791 128.9206928 103.8056092  14.3770616 128.9995409
 103.2793706  13.0808663 129.5781855 105.9807780   5.8480849 130.7560798
 106.4446126   6.1268552 129.9665420 105.7164579   4.9464293 130.5733888
 102.8731861   5.3952330 133.6940561 103.4433219   5.8239599 133.0558046
 103.4639973   5.1134915 134.3924747 106.4422413   7.1176836 137.7733488
 106.5066846   7.5797244 138.6091660 105.7333337   6.4874201 137.9015798
 106.1570431   8.7844944 127.6412468 106.0216106   9.6296480 128.0697316
 106.6980244   8.9864221 126.8778402  99.6099828   6.3020382 128.2140393
 100.1224349   7.0963632 128.3645958 100.2622541   5.6046672 128.1473995
 101.4194713   9.4186138 130.2963146 101.5961342  10.3404103 130.1084130
 102.2151547   9.1044557 130.7257526 107.7838907   9.4068510 141.7712810
 107.3402762   8.6204889 141.4533715 108.4456121   9.5947661 141.1056701
 102.5426029  10.9364312 136.2973489 103.0933454  10.8081375 135.5250483
 101.7037505  11.2359201 135.9468382 109.8820146   9.6871310 139.7994211
 109.8638621  10.5080191 139.3074481 110.8040066   9.5625385 140.0244353
 106.3393200   7.2015440 140.6417720 106.8721536   6.4403728 140.4117028
 105.8107281   6.9089092 141.3841874  97.5748745   4.6309036 128.9899964
  98.4123967   5.0406045 128.7733671  97.7527013   3.6908478 128.9600158
 107.7045912   6.3301432 128.1536532 107.1767274   5.5954192 127.8409769
 107.2033415   7.1076109 127.9076500 108.7566591  12.8579150 124.0768191
 108.0828290  13.1610846 124.6853149 109.1432413  13.6608230 123.7273648
 112.2606013   7.8600827 129.4486663 111.8068341   7.0191737 129.5051853
 111.6299980   8.4962225 129.7861443 110.7038953   9.6977324 130.3836481
 110.9961927  10.2582381 129.6648846 111.2137573   9.9905885 131.1389640
 106.7262834   5.7902981 123.0183574 106.2882264   5.0738840 122.5589211
 107.4673275   6.0179096 122.4568665 105.6672578  10.4757675 131.4729934
 105.6248757  10.7018521 130.5438466 106.5835277  10.2421049 131.6215735
 103.7838379   7.3520704 131.2691897 104.5778977   6.8571024 131.0674472
 103.0730071   6.8238567 130.9059602 108.6033223   9.7338799 135.6204264
 108.6570245  10.3029735 136.3881980 107.7348004   9.9040684 135.2558301
 106.3609655   7.9249726 134.9489734 106.2220740   7.5568510 135.8215672
 105.5724251   8.4397365 134.7773692 106.9557807  13.0258822 126.2915270
 107.1309562  12.5546865 127.1060893 106.2690595  13.6524588 126.5196531
 107.9114870   7.3031328 132.3378571 107.5764702   7.2632098 133.2336221
 107.4118815   6.6376044 131.8648982 112.5028193   9.3586271 140.2721412
 112.4440739   8.6745491 139.6051995 112.9047711  10.1005261 139.8202037
 101.5218892  16.1748185 133.0655130 101.7615490  16.8066709 133.7434149
 100.6788088  15.8236225 133.3520490  94.1574747   3.6549947 131.8278443
  94.8445787   3.3411677 131.2399458  94.0022876   4.5591311 131.5545694
 106.0346754  11.9827307 135.4696634 105.9616925  12.7882279 135.9815939
 105.5924147  12.1819273 134.6444656 105.8236533  11.2199077 128.9799456
 105.0404055  11.7620758 129.0737680 106.5229279  11.7373057 129.3793697
 108.4945437  11.8814141 137.6254793 109.2073409  12.5161606 137.5530695
 108.0035466  11.9778007 136.8094795 103.5457351   9.6308585 138.4460364
 104.2466810  10.2645068 138.5989758 103.0752466   9.9723316 137.6856003
 111.6711747   7.9726535 126.7308271 111.9471591   7.8583129 127.6402145
 110.8016245   7.5744019 126.6920444 108.3065811  12.2212885 130.3741085
 108.4888205  11.4034541 130.8368837 109.1298797  12.4380578 129.9365975
 108.6407976  11.1481071 127.6356133 109.1695743  10.6373525 127.0226295
 108.9036196  10.8323601 128.5001666  99.1425069   9.1644940 135.3791467
  99.7278506   8.4188628 135.5119371  98.9449907   9.4748897 136.2628130
 101.9963724  12.1996187 130.3953909 101.3274099  12.6842315 129.9117949
 101.8576594  12.4465408 131.3097287  93.7342724   1.7350540 134.0995910
  93.7726823   1.2014131 134.8933028  93.2283016   1.2085746 133.4806887
 106.1368993  14.2339931 136.9936567 106.6887301  14.3971552 137.7585653
 106.4775186  14.8244369 136.3216592 110.9879867   9.0601188 142.8485222
 111.5319771   9.6731147 142.3540177 110.4066712   9.6180767 143.3652235
 109.2737380  12.1821906 133.9800249 109.1488519  11.3811646 133.4711195
 109.9316471  12.6768100 133.4914219 111.3372288   9.9830926 135.6079800
 110.3902624   9.8636278 135.5358126 111.6855061   9.0953424 135.6906061
 108.3418722   9.7783643 131.8084152 108.1943684   8.8500350 131.9891722
 109.1672215   9.8003733 131.3241227 111.9452843  10.6012201 132.8949025
 112.8699391  10.3955063 132.7573476 111.7768147  10.3528602 133.8038366
 111.7348160  11.1197869 128.2511116 111.9085037  10.5544291 127.4984968
 112.2277051  11.9198764 128.0690606  97.5525119   3.1312538 136.3174675
  97.0078588   3.9072346 136.4494949  98.4304469   3.4783342 136.1593796
 112.7223332  10.4364633 125.3508014 113.4174237  11.0571326 125.5695329
 113.0646482   9.5859984 125.6260392 106.2834804  11.7998412 139.0085222
 106.5921930  11.5547559 139.8807921 107.0810286  12.0045051 138.5204092
 106.3055416  13.9536322 131.2390598 105.8660406  13.4612701 131.9323455
 107.0563533  13.4109290 130.9982673  98.7847755  10.1447863 131.2415226
  99.6105775   9.8451635 130.8613870  98.4341807   9.3755485 131.6905015
 103.7529288   9.4974331 133.3112900 103.1309297   8.8345036 133.0115128
 104.4234155   9.5235463 132.6286548  96.9856360   8.0634189 132.2004160
  96.1488268   7.6356364 132.0188161  96.9580006   8.2566633 133.1374951
 103.3142795   8.0478254 126.7871360 103.4630915   8.7313719 126.1338033
 104.1209239   8.0283344 127.3020816 101.0695428   4.0743432 127.7932429
 100.8241470   3.1705762 127.9912639 101.2391343   4.0760582 126.8511907
 106.8138201  10.5426385 124.2583108 106.2412168  11.1616572 123.8053580
 107.3870994  11.0925747 124.7923030 110.0335460  10.8263535 125.3891690
 110.9666134  10.7609097 125.5924566 109.9458673  11.6619802 124.9306223
 112.6623477  10.1429405 122.3495638 112.5837109   9.8089269 123.2431396
 113.4833144  10.6351173 122.3487110 100.0785764   3.8405978 135.7022598
 100.2971774   4.7723086 135.7210632 100.4911538   3.4813953 136.4877402
  96.1694117   4.7446449 133.9546214  95.4757588   4.3300402 133.4416168
  96.9167108   4.7866985 133.3579632  98.0830859   4.6764703 131.8312228
  98.0601547   4.7752390 130.8794112  98.3931496   5.5229853 132.1529395
 100.7418237   6.7340858 135.9458843 101.6961491   6.7024800 135.8788774
 100.5430761   6.2731481 136.7609069 101.3317619   5.3041974 138.5129641
 102.1510508   5.7986052 138.5364478 101.6054427   4.3873942 138.4847208
  99.0968466  12.2760477 132.9629041  98.9622934  11.5160878 132.3967039
  98.6800528  13.0001377 132.4957830 110.2327429   7.4597401 121.9705616
 110.9363279   7.6647403 122.5863272 109.5090078   8.0274163 122.2354700
 102.2537592  13.1729794 133.1747483 102.1369976  14.1175227 133.0726174
 101.4330038  12.8703356 133.5633283 112.1414126   7.8979930 124.0204076
 112.9759730   7.4661128 123.8381551 111.9798469   7.7261944 124.9480971
 103.2792106  13.8258056 136.3903412 104.1819353  13.8581666 136.7069907
 103.0529476  12.8958507 136.4049748 105.0345708  12.5789043 133.0513490
 104.0841339  12.5790904 132.9377863 105.3378194  11.8321777 132.5349525
 120.7698401  18.4149581 134.1159253 121.4076811  18.2956328 133.4122593
 120.6519244  19.3630425 134.1747205 117.5788108  18.3677009 134.0520778
 117.2406619  18.2518074 133.1641312 118.4477876  17.9668174 134.0321784
 113.4374923  20.2212486 130.0417668 112.8739788  20.1302422 129.2733956
 113.3227318  19.4012390 130.5220161 118.0607891  19.5211861 140.0106983
 118.0496531  19.1264659 139.1387487 118.2228530  18.7877933 140.6040754
 110.9839355  21.7163677 132.8801889 111.7760647  21.3754502 132.4648188
 111.2236005  21.8258652 133.8004042 119.0174482  23.8883453 125.3532133
 118.3662462  24.4737534 124.9666147 119.8118845  24.4189648 125.4127171
 112.9430109  20.9772590 125.7519268 113.7160985  20.4301577 125.6132144
 113.2955508  21.8416840 125.9633729 114.7815152  22.3048973 138.9586167
 114.4905018  23.2094604 138.8432833 115.4172136  22.3465500 139.6730237
 115.7071359  19.6825821 135.5487527 116.3034931  19.4581844 134.8344490
 115.7646330  18.9410567 136.1512975 115.2796387  17.1365257 123.3837718
 115.5321908  16.6146778 122.6221181 114.3420946  16.9731402 123.4864401
 120.3239670  16.1401035 131.1912461 121.1102759  15.7220458 130.8402878
 120.5878374  17.0447127 131.3594109 120.4949747  21.5773885 125.8901118
 119.8595580  21.6508512 126.6022022 120.1647154  22.1667484 125.2120197
 125.7248097  16.0776268 132.0945439 126.4573269  15.5075485 132.3283269
 124.9687453  15.6897869 132.5351945 114.9992676  19.0393362 125.5862093
 114.8828934  18.3638266 126.2543177 115.1094936  18.5525736 124.7694246
 117.3424217  18.5003510 129.2908782 116.9782424  17.9734131 130.0021703
 118.1991333  18.1101979 129.1175267 116.9829704  13.5293409 124.2870130
 117.1504106  14.3973646 124.6540601 116.7926873  13.6920691 123.3631420
 119.7405037  21.9910388 135.9535961 119.4405760  22.8935427 135.8451768
 119.3956096  21.7242571 136.8057114 113.1917518  18.4424185 131.9872665
 112.2668015  18.3100399 132.1950357 113.4401932  19.2218404 132.4842608
 123.1402181  14.5092928 133.6333398 122.2319058  14.4408337 133.3392159
 123.0889776  14.9864873 134.4615224 116.9618925  15.9851067 125.2716797
 116.8418550  16.4308118 126.1102277 116.2671513  16.3336384 124.7130335
 110.5526329  18.0857459 132.8216454 110.6818711  18.3391937 133.7355866
 109.8723781  18.6785167 132.5021109 114.7225817  28.7554709 128.9206928
 114.6449846  29.7062534 128.9995409 114.1187460  28.4100581 129.5781855
 122.6603991  16.4572540 126.0997131 123.5721847  16.6899927 125.9244829
 122.1513638  17.0409584 125.5372210 115.4689419  18.7368027 141.1386262
 116.2104103  19.2753071 140.8621086 114.7626404  19.3634316 141.2957814
 120.9444758  20.8797168 139.7358424 121.3528114  20.4379578 138.9913056
 120.2222020  20.3049795 139.9892617 117.2975828  15.8169775 137.1091981
 118.1437024  16.2409188 137.2526630 117.2374466  15.1603399 137.8030544
 121.2673573  21.4398358 133.4910713 120.6382435  21.6044073 132.7886781
 120.8799235  21.8539968 134.2621677 125.1462805  22.3752796 130.8455076
 124.4613843  22.7551698 130.2952110 125.2306654  22.9848123 131.5787024
 122.4013737  20.0212755 137.4450420 122.6130632  20.6644515 136.7684801
 122.3543485  19.1875072 136.9772350 120.0039965  12.6330576 134.3486992
 119.1424445  12.9311829 134.6403730 120.0302400  12.8500975 133.4168025
 116.8201535  21.1772766 130.7560798 117.2839880  21.4560469 129.9665420
 116.5558333  20.2756211 130.5733888 113.7125616  20.7244248 133.6940561
 114.2826973  21.1531516 133.0558046 114.3033728  20.4426833 134.3924747
 115.7570421  17.2995919 127.5650363 116.4594464  17.7516963 128.0324289
 115.4251049  16.6579738 128.1930256 114.2050782  15.8907675 141.9401572
 113.5749443  16.5723956 142.1736969 114.0986870  15.7790757 140.9954711
 109.4995755  15.5579472 132.8667496 108.7094809  15.8137000 132.3907607
 109.9907002  16.3727809 132.9719537 123.5159564  22.8984711 135.6172777
 124.3377008  22.4964898 135.3355459 123.5121967  22.7952945 136.5688893
 111.4510500  15.9224051 129.8250973 110.6541664  16.0342745 130.3434469
 111.2236092  16.2610703 128.9591864 117.2816168  22.4468754 137.7733488
 117.3460600  22.9089161 138.6091660 116.5727092  21.8166119 137.9015798
 107.7833458  15.8109962 135.2982487 108.0341496  16.6956972 135.5640063
 108.3193006  15.6314563 134.5257579 116.9964186  24.1136861 127.6412468
 116.8609860  24.9588397 128.0697316 117.5373998  24.3156139 126.8778402
 110.4493583  21.6312300 128.2140393 110.9618104  22.4255550 128.3645958
 111.1016296  20.9338590 128.1473995 112.2588468  24.7478056 130.2963146
 112.4355096  25.6696020 130.1084130 113.0545301  24.4336475 130.7257526
 111.5440824  16.7942688 140.1725310 111.4294339  15.8927945 140.4732409
 110.6885342  17.0406384 139.8210126 118.6232662  24.7360428 141.7712810
 118.1796516  23.9496807 141.4533715 119.2849876  24.9239578 141.1056701
 113.3819783  26.2656230 136.2973489 113.9327208  26.1373293 135.5250483
 112.5431259  26.5651119 135.9468382 120.7213900  25.0163228 139.7994211
 120.7032375  25.8372109 139.3074481 121.6433820  24.8917303 140.0244353
 117.1786954  22.5307357 140.6417720 117.7115291  21.7695646 140.4117028
 116.6501035  22.2381009 141.3841874 108.4142500  19.9600954 128.9899964
 109.2517722  20.3697962 128.7733671 108.5920767  19.0200396 128.9600158
 120.3106932  17.6276034 124.6783797 119.7953555  18.3980639 124.9172184
 120.0384240  16.9541171 125.3016858 117.8954043  12.4725735 129.7369035
 117.0395639  12.0832586 129.5574674 118.3080995  12.5517696 128.8768821
 119.4253190  10.0072079 134.1360595 118.9217985   9.9702214 133.3228400
 119.7183796  10.9164821 134.1957251 115.6696075  10.0910808 133.1426777
 116.5349072   9.8953617 132.7832666 115.7373584   9.8621160 134.0696133
 125.2841206  20.3808389 126.6136970 124.5070649  20.0419549 126.1692132
 125.9632687  20.3861012 125.9391935 120.0993235  15.5003127 126.5043578
 119.7943371  15.8149276 127.3553721 121.0523677  15.5784546 126.5470911
 118.5439667  21.6593350 128.1536532 118.0161028  20.9246109 127.8409769
 118.0427170  22.4368026 127.9076500 123.5232513  19.8542370 133.2703578
 122.8656187  20.5441632 133.3583707 124.3272912  20.2438802 133.6137565
 113.2758394  12.3213016 130.5143143 113.8502146  12.0988198 129.7816336
 113.8629377  12.3901711 131.2671745 122.3337972  18.2086743 131.3207520
 122.8469853  18.8416735 131.8229230 122.9839196  17.6087939 130.9550880
 113.6027982  14.3517477 124.5339029 112.7665294  14.6892164 124.8548303
 113.4632751  14.2166457 123.5966166 115.5781062   9.1954265 129.2418213
 114.9245475   8.8803282 128.6174828 115.5361536   8.5730006 129.9678036
 116.6892267  19.4773560 121.1571505 115.7819329  19.2462814 121.3562654
 117.1863299  18.6811179 121.3445486 119.5960346  28.1871067 124.0768191
 118.9222045  28.4902764 124.6853149 119.9826168  28.9900148 123.7273648
 118.8118803  15.6836199 133.5665860 117.8941364  15.9051146 133.4087548
 119.2278946  15.7582509 132.7077568 119.5953850  17.0827614 128.6968541
 120.3425669  17.5949012 128.3875663 119.8645440  16.7611667 129.5572934
 117.8680501  19.5786155 125.6795495 116.9591720  19.2945188 125.7767965
 117.8975584  19.9985234 124.8198802 123.0999768  23.1892745 129.4486663
 122.6462095  22.3483654 129.5051853 122.4693735  23.8254143 129.7861443
 122.0432687  14.1184731 130.6787330 121.3055444  13.6062117 131.0097573
 122.2959461  13.6785112 129.8670607 121.5432707  25.0269241 130.3836481
 121.8355682  25.5874298 129.6648846 122.0531328  25.3197802 131.1389640
 108.4368671  17.2991669 129.6610697 108.2393071  16.7061030 128.9361764
 107.8815335  16.9943879 130.3786636 116.4165395  17.1914776 131.7805290
 116.4714004  16.2388612 131.7047767 115.6056597  17.3474215 132.2646589
 117.5656588  21.1194899 123.0183574 117.1276018  20.4030758 122.5589211
 118.3067029  21.3471014 122.4568665 114.3557754  15.8091835 129.5395669
 113.5425620  16.1086006 129.9460861 114.8516749  15.4147524 130.2570151
 116.5066332  25.8049592 131.4729934 116.4642511  26.0310439 130.5438466
 117.4229031  25.5712967 131.6215735 119.9531966  16.2733660 138.3710563
 120.3081354  16.5005133 139.2305029 120.6004097  16.6052037 137.7487818
 125.6829703  19.3952096 129.0759892 125.5447602  19.5853692 128.1481081
 125.3265922  20.1571479 129.5327943 113.8471829  13.3810191 135.1556904
 114.4871209  13.2398950 134.4579867 113.0149360  13.0944704 134.7795506
 125.7099083  21.4628623 134.0871164 126.1435589  21.3703912 134.9354218
 126.4230663  21.4386123 133.4491180 114.6232133  22.6812621 131.2691897
 115.4172732  22.1862941 131.0674472 113.9123826  22.1530484 130.9059602
 119.4426978  25.0630717 135.6204264 119.4964000  25.6321653 136.3881980
 118.5741759  25.2332602 135.2558301 110.9314897  16.8255703 127.3451649
 110.0012485  16.7640159 127.5621611 111.0272369  16.3031656 126.5488291
 110.8500446  13.3510516 129.9329891 111.1107263  14.2655849 129.8239051
 111.6717618  12.8834958 130.0826504 112.3225371  14.7648273 137.1028715
 112.9948424  14.5565635 136.4541364 111.4955158  14.5670359 136.6633948
 118.4015077  19.2290979 137.1791196 119.3307137  19.3802138 137.0060163
 117.9806107  19.3175000 136.3239843 117.2003409  23.2541643 134.9489734
 117.0614495  22.8860428 135.8215672 116.4118005  23.7689283 134.7773692
 117.7951561  28.3550740 126.2915270 117.9703317  27.8838783 127.1060893
 117.1084349  28.9816506 126.5196531 118.7508624  22.6323246 132.3378571
 118.4158457  22.5924016 133.2336221 118.2512570  21.9667962 131.8648982
 112.7252868  18.0390876 137.8631153 112.5872666  17.3071115 138.4642692
 113.6357792  17.9499776 137.5815340 121.6867816  19.9779280 122.6115631
 121.0696987  19.2526108 122.5148684 121.2184304  20.7388641 122.2682705
 115.3535169  17.7510835 137.3514832 116.0634787  17.1104028 137.3101451
 115.3104477  18.0023730 138.2741013 123.3421948  24.6878189 140.2721412
 123.2834494  24.0037409 139.6051995 123.7441466  25.4297179 139.8202037
 114.0664103  14.7376053 139.1710472 113.5301460  14.2866792 139.8232068
 113.4780811  14.8721962 138.4280936 112.3612646  31.5040103 133.0655130
 112.6009245  32.1358627 133.7434149 111.5181843  31.1528143 133.3520490
 113.4766362  14.1964705 121.7336935 112.5995828  14.0753505 121.3699182
 113.9524115  13.4050783 121.4815824 123.3439355  22.6517773 138.5035391
 122.4566134  22.3143694 138.6261790 123.9137906  21.9200804 138.7404157
 104.9968502  18.9841864 131.8278443 105.6839542  18.6703594 131.2399458
 104.8416631  19.8883229 131.5545694 109.8003224  13.8732061 136.2563466
 109.7161413  13.2657730 135.5213876 108.9785931  14.3641079 136.2572963
 116.8740508  27.3119225 135.4696634 116.8010680  28.1174196 135.9815939
 116.4317901  27.5111191 134.6444656 116.6630288  26.5490995 128.9799456
 115.8797810  27.0912675 129.0737680 117.3623033  27.0664975 129.3793697
 119.9726938  12.3585624 131.6233661 120.4695638  11.6055587 131.3034732
 119.2013919  12.3949941 131.0576871 127.8256695  18.0625990 133.2651953
 127.8146572  18.9450705 132.8945886 126.9574075  17.7097541 133.0706490
 119.3339192  27.2106059 137.6254793 120.0467164  27.8453524 137.5530695
 118.8429220  27.3069925 136.8094795 121.0556719  21.1157312 129.1972085
 120.1212997  21.2358774 129.0276789 121.2333387  20.2129778 128.9332095
 116.5561907  14.5003007 131.3505346 116.1859694  13.9474048 132.0386251
 117.0520999  13.8961141 130.7980346 124.4429270  16.9574631 129.7322119
 124.9089722  17.7902623 129.6582422 124.8936771  16.4919613 130.4367377
 114.3851105  24.9600502 138.4460364 115.0860565  25.5936985 138.5989758
 113.9146220  25.3015234 137.6856003 122.5105501  23.3018452 126.7308271
 122.7865345  23.1875047 127.6402145 121.6410000  22.9035937 126.6920444
 122.1852391  17.5145110 136.2712914 121.5323842  17.7621017 135.6165367
 122.5632771  16.7009248 135.9375392 119.1459565  27.5504803 130.3741085
 119.3281960  26.7326459 130.8368837 119.9692551  27.7672495 129.9365975
 119.4801731  26.4772988 127.6356133 120.0089497  25.9665443 127.0226295
 119.7429950  26.1615518 128.5001666 109.9818823  24.4936858 135.3791467
 110.5672260  23.7480545 135.5119371 109.7843662  24.8040814 136.2628130
 112.8357479  27.5288105 130.3953909 112.1667854  28.0134233 129.9117949
 112.6970348  27.7757325 131.3097287 104.5736478  17.0642458 134.0995910
 104.6120578  16.5306048 134.8933028 104.0676771  16.5377663 133.4806887
 116.9762747  29.5631848 136.9936567 117.5281055  29.7263470 137.7585653
 117.3168941  30.1536286 136.3216592 111.9527240  11.9106998 137.5958452
 112.0168567  12.7721829 137.1835850 111.8894361  11.2981000 136.8630811
 111.4279513  13.9830131 141.2431486 112.0551552  13.6007208 141.8569011
 110.5707432  13.7644333 141.6087179 121.8273621  24.3893106 142.8485222
 122.3713525  25.0023064 142.3540177 121.2460466  24.9472684 143.3652235
 108.2045056  15.7906560 127.1749841 108.4998497  14.8817238 127.1216895
 107.3033091  15.7694299 126.8530843 120.1131134  27.5113824 133.9800249
 119.9882274  26.7103564 133.4711195 120.7710226  28.0060017 133.4914219
 111.7339303  13.8662556 133.1577390 111.0125888  14.4798524 133.0184863
 112.5232558  14.4020321 133.0794036 122.1766043  25.3122844 135.6079800
 121.2296378  25.1928195 135.5358126 122.5248816  24.4245342 135.6906061
 114.5365616  11.2016983 139.4318041 115.0600018  11.4479279 140.1944351
 114.3177949  12.0337018 139.0121179 109.9332897  13.4720658 127.2989166
 109.6045603  12.5918036 127.1164272 110.2872268  13.4168326 128.1865555
 119.1812476  25.1075560 131.8084152 119.0337439  24.1792268 131.9891722
 120.0065970  25.1295651 131.3241227 113.0474720  13.7593627 127.6664644
 113.3870793  14.2879549 126.9443252 113.4946841  14.0974033 128.4423210
 122.7846598  25.9304119 132.8949025 123.7093145  25.7246980 132.7573476
 122.6161901  25.6820520 133.8038366 115.7418161  12.1430678 137.1167712
 115.4014982  11.3438491 137.5188392 115.0357168  12.4432389 136.5444545
 115.0342868  12.2568249 125.8657937 115.7551230  12.6349502 125.3621654
 114.4108172  12.9757126 125.9692915 119.1773990  12.9613398 126.8016269
 119.3937605  13.8438036 126.5005097 118.6968058  12.5699611 126.0721911
 113.9173212  15.9199111 133.3787014 113.7717793  16.2339414 134.2711295
 113.4398415  16.5384011 132.8257912 115.7769595  12.9101659 133.4267903
 115.7631163  12.0142752 133.0900201 116.4942023  12.9172323 134.0606189
 117.6295725  13.3438999 135.4721031 117.3713503  14.2656070 135.4705361
 117.0980766  12.9469434 136.1621495 122.5741914  26.4489786 128.2511116
 122.7478792  25.8836209 127.4984968 123.0670805  27.2490681 128.0690606
 108.3918874  18.4604456 136.3174675 107.8472342  19.2364263 136.4494949
 109.2698224  18.8075260 136.1593796 115.1806491  11.7916039 128.6955473
 115.3022402  10.8632686 128.8946361 114.8908533  11.8054725 127.7833789
 128.4281305  19.2126209 129.8701416 128.8712451  18.4633535 129.4720539
 127.5507816  19.2036346 129.4875148 123.5617087  25.7656551 125.3508014
 124.2567991  26.3863244 125.5695329 123.9040237  24.9151902 125.6260392
 109.1784896  17.5874352 139.2104832 108.4366632  17.7356987 139.7969462
 108.8577640  17.8482617 138.3471581 125.4608510  23.2156256 126.8795345
 125.9859834  23.5543529 126.1544665 125.3730862  22.2803272 126.6958480
 117.1228558  27.1290330 139.0085222 117.4315685  26.8839477 139.8807921
 117.9204041  27.3336968 138.5204092 117.1449171  29.2828240 131.2390598
 116.7054161  28.7904618 131.9323455 117.8957287  28.7401207 130.9982673
 109.6241510  25.4739780 131.2415226 110.4499529  25.1743552 130.8613870
 109.2735562  24.7047403 131.6905015 114.5923043  24.8266249 133.3112900
 113.9703052  24.1636954 133.0115128 115.2627910  24.8527381 132.6286548
 107.8250115  23.3926107 132.2004160 106.9882023  22.9648281 132.0188161
 107.7973760  23.5858550 133.1374951 114.1536550  23.3770172 126.7871360
 114.3024670  24.0605636 126.1338033 114.9602993  23.3575262 127.3020816
 116.8946859  14.0579409 139.6591765 116.0250168  14.3512975 139.3874353
 117.1306339  14.6419854 140.3799028 127.9714170  20.6831448 132.2623863
 128.8061061  21.1221252 132.4261424 128.1073299  20.2070101 131.4432109
 111.9089183  19.4035350 127.7932429 111.6635225  18.4997680 127.9912639
 112.0785097  19.4052500 126.8511907 111.1784830  15.1363707 125.2918591
 110.4854075  15.2108062 124.6358627 110.9336582  14.3724051 125.8140108
 117.6531955  25.8718303 124.2583108 117.0805922  26.4908490 123.8053580
 118.2264749  26.4217664 124.7923030 120.8729215  26.1555453 125.3891690
 121.8059888  26.0901014 125.5924566 120.7852428  26.9911719 124.9306223
 123.5017232  25.4721323 122.3495638 123.4230863  25.1381187 123.2431396
 124.3226898  25.9643091 122.3487110 118.0378754  17.2079115 121.5999160
 118.9837858  17.0785323 121.6687578 117.6592999  16.4693777 122.0768589
 117.9217446  21.2596861 143.0599817 118.8420456  21.4375460 143.2539864
 117.8867029  20.3152907 142.9079517 116.2221671  15.1329092 121.5354046
 115.3153126  14.8362204 121.6116759 116.4997652  14.8358910 120.6688332
 107.1399611  16.4535455 131.9853092 106.8202396  15.6000763 131.6927466
 106.5933039  16.6684033 132.7411059 110.9179519  19.1697896 135.7022598
 111.1365528  20.1015004 135.7210632 111.3305293  18.8105870 136.4877402
 117.8383736   9.6765981 127.6898287 117.0284465   9.3313066 128.0653533
 118.5268153   9.3673525 128.2785898 114.9920455  11.9916027 121.6766025
 115.8539619  12.3170925 121.9361842 115.1770800  11.2047523 121.1639091
 107.0087871  20.0738367 133.9546214 106.3151343  19.6592319 133.4416168
 107.7560862  20.1158903 133.3579632 115.6538654  18.1728241 143.9090409
 115.1705736  18.9728601 144.1154298 115.7399593  18.1836186 142.9557853
 108.9224614  20.0056620 131.8312228 108.8995302  20.1044308 130.8794112
 109.2325250  20.8521771 132.1529395 111.5811992  22.0632775 135.9458843
 112.5355245  22.0316718 135.8788774 111.3824515  21.6023399 136.7609069
 112.1711374  20.6333891 138.5129641 112.9904263  21.1277970 138.5364478
 112.4448181  19.7165860 138.4847208 121.9277970  13.0244644 127.8757596
 121.0403825  13.3094294 127.6577791 122.3431959  12.8638407 127.0284873
 125.2792506  13.0491165 131.5911935 126.0552896  13.5387617 131.8636552
 124.5540640  13.4749219 132.0483805 109.9362220  27.6052395 132.9629041
 109.8016688  26.8452796 132.3967039 109.5194283  28.3293295 132.4957830
 121.0721183  22.7889318 121.9705616 121.7757033  22.9939321 122.5863272
 120.3483832  23.3566080 122.2354700 121.9018994  18.5399180 128.0907886
 121.8454195  18.9967731 127.2515519 122.4547336  17.7789864 127.9130729
 125.7123800  14.3288912 128.9158006 125.4560734  13.9285547 129.7466213
 125.0876668  15.0432705 128.7908145 130.0236137  17.0684985 131.4229297
 129.4635695  17.1378174 132.1960859 129.4179641  16.8925969 130.7028793
 113.0931346  28.5021712 133.1747483 112.9763730  29.4467144 133.0726174
 112.2723792  28.1995273 133.5633283 122.9807881  23.2271848 124.0204076
 123.8153485  22.7953046 123.8381551 122.8192224  23.0553861 124.9480971
 122.6353773  19.7303961 125.3860415 122.5802577  19.5648232 124.4448859
 122.0099828  20.4379994 125.5422605 107.4246288  14.9672025 139.2121838
 108.0705152  14.4570979 139.7009063 107.2163439  15.7040707 139.7865263
 115.9449898   9.2312070 124.9645734 115.9328568  10.1753910 125.1214005
 116.8373320   9.0482215 124.6705195 114.1185860  29.1549974 136.3903412
 115.0213107  29.1873584 136.7069907 113.8923230  28.2250425 136.4049748
 115.8739462  27.9080960 133.0513490 114.9235093  27.9082822 132.9377863
 116.1771949  27.1613695 132.5349525 131.6092156  33.7441499 134.1159253
 132.2470566  33.6248246 133.4122593 131.4912999  34.6922343 134.1747205
 128.4181862  33.6968927 134.0520778 128.0800374  33.5809992 133.1641312
 129.2871630  33.2960092 134.0321784 124.2768678  35.5504403 130.0417668
 123.7133543  35.4594340 129.2733956 124.1621073  34.7304308 130.5220161
 128.9001645  34.8503779 140.0106983 128.8890286  34.4556577 139.1387487
 129.0622285  34.1169851 140.6040754 121.8233110  37.0455595 132.8801889
 122.6154402  36.7046419 132.4648188 122.0629760  37.1550570 133.8004042
 129.8568237  39.2175371 125.3532133 129.2056216  39.8029451 124.9666147
 130.6512599  39.7481566 125.4127171 123.7823864  36.3064508 125.7519268
 124.5554740  35.7593495 125.6132144 124.1349263  37.1708757 125.9633729
 125.6208906  37.6340890 138.9586167 125.3298772  38.5386521 138.8432833
 126.2565891  37.6757418 139.6730237 126.5465113  35.0117739 135.5487527
 127.1428685  34.7873761 134.8344490 126.6040085  34.2702484 136.1512975
 126.1190142  32.4657174 123.3837718 126.3715662  31.9438695 122.6221181
 125.1814701  32.3023320 123.4864401 131.1633424  31.4692953 131.1912461
 131.9496514  31.0512376 130.8402878 131.4272129  32.3739045 131.3594109
 131.3343502  36.9065803 125.8901118 130.6989335  36.9800429 126.6022022
 131.0040908  37.4959402 125.2120197 136.5641851  31.4068186 132.0945439
 137.2967023  30.8367403 132.3283269 135.8081207  31.0189786 132.5351945
 125.8386430  34.3685280 125.5862093 125.7222688  33.6930184 126.2543177
 125.9488690  33.8817654 124.7694246 128.1817971  33.8295427 129.2908782
 127.8176178  33.3026048 130.0021703 129.0385087  33.4393896 129.1175267
 127.8223458  28.8585327 124.2870130 127.9897861  29.7265563 124.6540601
 127.6320627  29.0212609 123.3631420 130.5798791  37.3202306 135.9535961
 130.2799514  38.2227345 135.8451768 130.2349851  37.0534489 136.8057114
 124.0311273  33.7716103 131.9872665 123.1061769  33.6392317 132.1950357
 124.2795686  34.5510322 132.4842608 133.9795935  29.8384846 133.6333398
 133.0712812  29.7700254 133.3392159 133.9283531  30.3156791 134.4615224
 127.8012679  31.3142984 125.2716797 127.6812304  31.7600035 126.1102277
 127.1065267  31.6628302 124.7130335 121.3920084  33.4149376 132.8216454
 121.5212465  33.6683855 133.7355866 120.7117535  34.0077084 132.5021109
 125.5619571  44.0846626 128.9206928 125.4843601  45.0354451 128.9995409
 124.9581215  43.7392499 129.5781855 133.4997745  31.7864458 126.0997131
 134.4115601  32.0191844 125.9244829 132.9907392  32.3701502 125.5372210
 126.3083173  34.0659945 141.1386262 127.0497858  34.6044989 140.8621086
 125.6020159  34.6926234 141.2957814 131.7838513  36.2089085 139.7358424
 132.1921869  35.7671496 138.9913056 131.0615774  35.6341713 139.9892617
 128.1369583  31.1461692 137.1091981 128.9830778  31.5701106 137.2526630
 128.0768221  30.4895317 137.8030544 132.1067328  36.7690276 133.4910713
 131.4776190  36.9335990 132.7886781 131.7192990  37.1831886 134.2621677
 135.9856559  37.7044714 130.8455076 135.3007598  38.0843615 130.2952110
 136.0700409  38.3140041 131.5787024 133.2407491  35.3504673 137.4450420
 133.4524386  35.9936433 136.7684801 133.1937239  34.5166990 136.9772350
 130.8433720  27.9622494 134.3486992 129.9818199  28.2603747 134.6403730
 130.8696155  28.1792892 133.4168025 127.6595289  36.5064684 130.7560798
 128.1233635  36.7852387 129.9665420 127.3952087  35.6048129 130.5733888
 124.5519370  36.0536166 133.6940561 125.1220728  36.4823434 133.0558046
 125.1427482  35.7718750 134.3924747 126.5964175  32.6287837 127.5650363
 127.2988219  33.0808880 128.0324289 126.2644804  31.9871655 128.1930256
 125.0444537  31.2199593 141.9401572 124.4143198  31.9015874 142.1736969
 124.9380625  31.1082675 140.9954711 120.3389509  30.8871389 132.8667496
 119.5488563  31.1428918 132.3907607 120.8300757  31.7019727 132.9719537
 134.3553319  38.2276628 135.6172777 135.1770763  37.8256816 135.3355459
 134.3515722  38.1244863 136.5688893 122.2904255  31.2515968 129.8250973
 121.4935418  31.3634663 130.3434469 122.0629847  31.5902621 128.9591864
 128.1209922  37.7760672 137.7733488 128.1854355  38.2381079 138.6091660
 127.4120846  37.1458037 137.9015798 118.6227212  31.1401880 135.2982487
 118.8735251  32.0248890 135.5640063 119.1586761  30.9606481 134.5257579
 127.8357940  39.4428779 127.6412468 127.7003615  40.2880315 128.0697316
 128.3767753  39.6448057 126.8778402 121.2887337  36.9604217 128.2140393
 121.8011858  37.7547467 128.3645958 121.9410050  36.2630508 128.1473995
 123.0982222  40.0769973 130.2963146 123.2748850  40.9987938 130.1084130
 123.8939056  39.7628393 130.7257526 122.3834579  32.1234605 140.1725310
 122.2688094  31.2219863 140.4732409 121.5279096  32.3698302 139.8210126
 129.4626416  40.0652346 141.7712810 129.0190271  39.2788724 141.4533715
 130.1243630  40.2531496 141.1056701 124.2213538  41.5948147 136.2973489
 124.7720963  41.4665211 135.5250483 123.3825014  41.8943036 135.9468382
 131.5607655  40.3455146 139.7994211 131.5426130  41.1664027 139.3074481
 132.4827575  40.2209221 140.0244353 128.0180709  37.8599275 140.6417720
 128.5509045  37.0987563 140.4117028 127.4894790  37.5672927 141.3841874
 119.2536254  35.2892871 128.9899964 120.0911476  35.6989880 128.7733671
 119.4314522  34.3492314 128.9600158 131.1500686  32.9567952 124.6783797
 130.6347310  33.7272557 124.9172184 130.8777995  32.2833088 125.3016858
 128.7347797  27.8017653 129.7369035 127.8789394  27.4124503 129.5574674
 129.1474749  27.8809614 128.8768821 130.2646944  25.3363996 134.1360595
 129.7611740  25.2994131 133.3228400 130.5577551  26.2456739 134.1957251
 126.5089830  25.4202726 133.1426777 127.3742827  25.2245535 132.7832666
 126.5767339  25.1913078 134.0696133 136.1234960  35.7100307 126.6136970
 135.3464403  35.3711466 126.1692132 136.8026441  35.7152930 125.9391935
 130.9386990  30.8295044 126.5043578 130.6337125  31.1441193 127.3553721
 131.8917432  30.9076464 126.5470911 129.3833421  36.9885268 128.1536532
 128.8554783  36.2538027 127.8409769 128.8820924  37.7659944 127.9076500
 134.3626267  35.1834288 133.2703578 133.7049942  35.8733549 133.3583707
 135.1666667  35.5730720 133.6137565 124.1152149  27.6504934 130.5143143
 124.6895901  27.4280115 129.7816336 124.7023131  27.7193628 131.2671745
 133.1731726  33.5378661 131.3207520 133.6863608  34.1708653 131.8229230
 133.8232950  32.9379856 130.9550880 124.4421736  29.6809395 124.5339029
 123.6059048  30.0184081 124.8548303 124.3026506  29.5458375 123.5966166
 126.4174817  24.5246183 129.2418213 125.7639229  24.2095200 128.6174828
 126.3755291  23.9021923 129.9678036 127.5286022  34.8065478 121.1571505
 126.6213083  34.5754731 121.3562654 128.0257054  34.0103097 121.3445486
 130.4354100  43.5162985 124.0768191 129.7615799  43.8194682 124.6853149
 130.8219922  44.3192065 123.7273648 129.6512557  31.0128116 133.5665860
 128.7335118  31.2343063 133.4087548 130.0672701  31.0874427 132.7077568
 130.4347605  32.4119532 128.6968541 131.1819424  32.9240929 128.3875663
 130.7039194  32.0903585 129.5572934 128.7074255  34.9078073 125.6795495
 127.7985474  34.6237106 125.7767965 128.7369339  35.3277151 124.8198802
 133.9393522  38.5184662 129.4486663 133.4855850  37.6775572 129.5051853
 133.3087489  39.1546061 129.7861443 132.8826442  29.4476648 130.6787330
 132.1449199  28.9354034 131.0097573 133.1353216  29.0077030 129.8670607
 132.3826462  40.3561159 130.3836481 132.6749436  40.9166216 129.6648846
 132.8925082  40.6489720 131.1389640 132.9838069  22.2252900 131.2729099
 133.2896946  21.3650264 130.9855014 133.7090674  22.8170520 131.0728093
 119.2762425  32.6283587 129.6610697 119.0786825  32.0352948 128.9361764
 118.7209089  32.3235797 130.3786636 127.2559149  32.5206693 131.7805290
 127.3107759  31.5680530 131.7047767 126.4450351  32.6766132 132.2646589
 128.4050343  36.4486816 123.0183574 127.9669773  35.7322675 122.5589211
 129.1460784  36.6762931 122.4568665 125.1951509  31.1383753 129.5395669
 124.3819374  31.4377924 129.9460861 125.6910503  30.7439442 130.2570151
 127.3460087  41.1341510 131.4729934 127.3036266  41.3602356 130.5438466
 128.2622786  40.9004885 131.6215735 130.7925721  31.6025578 138.3710563
 131.1475108  31.8297051 139.2305029 131.4397852  31.9343954 137.7487818
 136.5223458  34.7244013 129.0759892 136.3841356  34.9145609 128.1481081
 136.1659676  35.4863396 129.5327943 124.6865584  28.7102109 135.1556904
 125.3264963  28.5690868 134.4579867 123.8543114  28.4236622 134.7795506
 136.5492837  36.7920540 134.0871164 136.9829344  36.6995830 134.9354218
 137.2624418  36.7678041 133.4491180 125.4625888  38.0104539 131.2691897
 126.2566486  37.5154859 131.0674472 124.7517580  37.4822402 130.9059602
 130.2820732  40.3922635 135.6204264 130.3357754  40.9613571 136.3881980
 129.4135513  40.5624520 135.2558301 121.7708651  32.1547621 127.3451649
 120.8406239  32.0932076 127.5621611 121.8666123  31.6323573 126.5488291
 121.6894200  28.6802434 129.9329891 121.9501017  29.5947767 129.8239051
 122.5111372  28.2126876 130.0826504 123.1619125  30.0940191 137.1028715
 123.8342179  29.8857553 136.4541364 122.3348912  29.8962277 136.6633948
 129.2408832  34.5582897 137.1791196 130.1700892  34.7094056 137.0060163
 128.8199862  34.6466917 136.3239843 128.0397164  38.5833561 134.9489734
 127.9008249  38.2152345 135.8215672 127.2511760  39.0981200 134.7773692
 128.6345316  43.6842657 126.2915270 128.8097071  43.2130701 127.1060893
 127.9478104  44.3108424 126.5196531 129.5902379  37.9615164 132.3378571
 129.2552211  37.9215934 133.2336221 129.0906324  37.2959880 131.8648982
 123.5646623  33.3682794 137.8631153 123.4266421  32.6363033 138.4642692
 124.4751546  33.2791694 137.5815340 132.5261570  35.3071198 122.6115631
 131.9090741  34.5818026 122.5148684 132.0578059  36.0680558 122.2682705
 126.1928923  33.0802753 137.3514832 126.9028542  32.4395945 137.3101451
 126.1498232  33.3315648 138.2741013 134.1815702  40.0170106 140.2721412
 134.1228248  39.3329326 139.6051995 134.5835220  40.7589096 139.8202037
 124.9057857  30.0667971 139.1710472 124.3695214  29.6158709 139.8232068
 124.3174566  30.2013880 138.4280936 123.2006401  46.8332020 133.0655130
 123.4402999  47.4650544 133.7434149 122.3575597  46.4820060 133.3520490
 124.3160116  29.5256622 121.7336935 123.4389583  29.4045423 121.3699182
 124.7917869  28.7342701 121.4815824 134.1833109  37.9809690 138.5035391
 133.2959888  37.6435612 138.6261790 134.7531660  37.2492722 138.7404157
 115.8362256  34.3133782 131.8278443 116.5233296  33.9995512 131.2399458
 115.6810385  35.2175147 131.5545694 120.6396979  29.2023979 136.2563466
 120.5555167  28.5949648 135.5213876 119.8179685  29.6932997 136.2572963
 127.7134263  42.6411143 135.4696634 127.6404434  43.4466114 135.9815939
 127.2711656  42.8403108 134.6444656 127.5024042  41.8782913 128.9799456
 126.7191564  42.4204593 129.0737680 128.2016788  42.3956892 129.3793697
 130.8120692  27.6877542 131.6233661 131.3089392  26.9347504 131.3034732
 130.0407674  27.7241859 131.0576871 138.6650450  33.3917908 133.2651953
 138.6540326  34.2742623 132.8945886 137.7967829  33.0389458 133.0706490
 130.1732946  42.5397977 137.6254793 130.8860918  43.1745441 137.5530695
 129.6822975  42.6361843 136.8094795 131.8950473  36.4449229 129.1972085
 130.9606752  36.5650692 129.0276789 132.0727142  35.5421696 128.9332095
 127.3955661  29.8294925 131.3505346 127.0253449  29.2765966 132.0386251
 127.8914754  29.2253059 130.7980346 135.2823025  32.2866549 129.7322119
 135.7483477  33.1194540 129.6582422 135.7330525  31.8211530 130.4367377
 125.2244860  40.2892420 138.4460364 125.9254319  40.9228903 138.5989758
 124.7539975  40.6307152 137.6856003 133.3499256  38.6310370 126.7308271
 133.6259100  38.5166965 127.6402145 132.4803754  38.2327855 126.6920444
 133.0246146  32.8437028 136.2712914 132.3717596  33.0912935 135.6165367
 133.4026526  32.0301166 135.9375392 129.9853320  42.8796721 130.3741085
 130.1675714  42.0618377 130.8368837 130.8086306  43.0964413 129.9365975
 130.3195485  41.8064906 127.6356133 130.8483252  41.2957360 127.0226295
 130.5823705  41.4907436 128.5001666 120.8212578  39.8228775 135.3791467
 121.4066015  39.0772463 135.5119371 120.6237416  40.1332732 136.2628130
 123.6751233  42.8580023 130.3953909 123.0061608  43.3426150 129.9117949
 123.5364103  43.1049243 131.3097287 115.4130233  32.3934375 134.0995910
 115.4514332  31.8597966 134.8933028 114.9070525  31.8669581 133.4806887
 127.8156502  44.8923766 136.9936567 128.3674810  45.0555388 137.7585653
 128.1562695  45.4828204 136.3216592 122.7920995  27.2398916 137.5958452
 122.8562321  28.1013747 137.1835850 122.7288115  26.6272918 136.8630811
 122.2673267  29.3122048 141.2431486 122.8945306  28.9299126 141.8569011
 121.4101186  29.0936250 141.6087179 132.6667376  39.7185024 142.8485222
 133.2107280  40.3314982 142.3540177 132.0854221  40.2764602 143.3652235
 119.0438810  31.1198478 127.1749841 119.3392251  30.2109156 127.1216895
 118.1426846  31.0986217 126.8530843 130.9524889  42.8405742 133.9800249
 130.8276028  42.0395481 133.4711195 131.6103980  43.3351935 133.4914219
 122.5733057  29.1954474 133.1577390 121.8519643  29.8090442 133.0184863
 123.3626313  29.7312239 133.0794036 133.0159797  40.6414762 135.6079800
 132.0690133  40.5220113 135.5358126 133.3642570  39.7537260 135.6906061
 125.3759371  26.5308901 139.4318041 125.8993772  26.7771197 140.1944351
 125.1571704  27.3628935 139.0121179 120.7726652  28.8012575 127.2989166
 120.4439358  27.9209954 127.1164272 121.1266022  28.7460244 128.1865555
 130.0206231  40.4367478 131.8084152 129.8731193  39.5084185 131.9891722
 130.8459724  40.4587569 131.3241227 123.8868475  29.0885545 127.6664644
 124.2264547  29.6171466 126.9443252 124.3340595  29.4265951 128.4423210
 133.6240352  41.2596037 132.8949025 134.5486900  41.0538898 132.7573476
 133.4555656  41.0112438 133.8038366 126.5811916  27.4722596 137.1167712
 126.2408736  26.6730409 137.5188392 125.8750922  27.7724307 136.5444545
 127.2328388  24.5571908 135.5695035 128.0554457  24.0832386 135.4473925
 127.4766451  25.3362392 136.0693721 125.8736622  27.5860167 125.8657937
 126.5944985  27.9641419 125.3621654 125.2501926  28.3049043 125.9692915
 130.0167745  28.2905316 126.8016269 130.2331359  29.1729953 126.5005097
 129.5361812  27.8991529 126.0721911 124.7566966  31.2491029 133.3787014
 124.6111547  31.5631332 134.2711295 124.2792170  31.8675929 132.8257912
 126.6163349  28.2393577 133.4267903 126.6024918  27.3434670 133.0900201
 127.3335777  28.2464241 134.0606189 128.4689480  28.6730917 135.4721031
 128.2107258  29.5947988 135.4705361 127.9374520  28.2761352 136.1621495
 133.4135669  41.7781704 128.2511116 133.5872546  41.2128127 127.4984968
 133.9064560  42.5782599 128.0690606 119.2312628  33.7896373 136.3174675
 118.6866097  34.5656181 136.4494949 120.1091978  34.1367178 136.1593796
 126.0200245  27.1207957 128.6955473 126.1416156  26.1924603 128.8946361
 125.7302287  27.1346643 127.7833789 128.8891436  24.8062867 131.8322193
 128.9113132  24.8702201 130.8774173 129.3059495  23.9667376 132.0262699
 139.2675060  34.5418127 129.8701416 139.7106206  33.7925452 129.4720539
 138.3901570  34.5328263 129.4875148 134.4010841  41.0948469 125.3508014
 135.0961746  41.7155161 125.5695329 134.7433991  40.2443820 125.6260392
 120.0178650  32.9166269 139.2104832 119.2760386  33.0648905 139.7969462
 119.6971395  33.1774535 138.3471581 136.3002264  38.5448174 126.8795345
 136.8253588  38.8835447 126.1544665 136.2124617  37.6095189 126.6958480
 127.9622313  42.4582248 139.0085222 128.2709439  42.2131394 139.8807921
 128.7597795  42.6628886 138.5204092 127.9842925  44.6120157 131.2390598
 127.5447915  44.1196536 131.9323455 128.7351042  44.0693125 130.9982673
 120.4635264  40.8031698 131.2415226 121.2893284  40.5035470 130.8613870
 120.1129316  40.0339321 131.6905015 125.4316797  40.1558166 133.3112900
 124.8096806  39.4928871 133.0115128 126.1021664  40.1819298 132.6286548
 118.6643869  38.7218025 132.2004160 117.8275777  38.2940199 132.0188161
 118.6367514  38.9150468 133.1374951 124.9930304  38.7062090 126.7871360
 125.1418424  39.3897554 126.1338033 125.7996748  38.6867180 127.3020816
 127.7340613  29.3871327 139.6591765 126.8643923  29.6804893 139.3874353
 127.9700093  29.9711772 140.3799028 138.8107925  36.0123365 132.2623863
 139.6454816  36.4513169 132.4261424 138.9467053  35.5362019 131.4432109
 122.7482937  34.7327267 127.7932429 122.5028979  33.8289597 127.9912639
 122.9178852  34.7344418 126.8511907 122.0178585  30.4655625 125.2918591
 121.3247830  30.5399980 124.6358627 121.7730337  29.7015969 125.8140108
 130.6892241  22.0251226 132.6958082 130.9693995  21.3574415 133.3218508
 131.4742848  22.2180322 132.1832745 128.4925710  41.2010220 124.2583108
 127.9199677  41.8200407 123.8053580 129.0658503  41.7509582 124.7923030
 131.7122969  41.4847370 125.3891690 132.6453643  41.4192932 125.5924566
 131.6246182  42.3203637 124.9306223 134.3410986  40.8013241 122.3495638
 134.2624618  40.4673104 123.2431396 135.1620653  41.2935009 122.3487110
 128.8772508  32.5371033 121.5999160 129.8231613  32.4077241 121.6687578
 128.4986753  31.7985695 122.0768589 128.7611201  36.5888779 143.0599817
 129.6814210  36.7667378 143.2539864 128.7260784  35.6444824 142.9079517
 127.0615425  30.4621009 121.5354046 126.1546881  30.1654122 121.6116759
 127.3391406  30.1650827 120.6688332 117.9793366  31.7827373 131.9853092
 117.6596150  30.9292681 131.6927466 117.4326794  31.9975951 132.7411059
 121.7573273  34.4989814 135.7022598 121.9759283  35.4306922 135.7210632
 122.1699047  34.1397788 136.4877402 128.6777491  25.0057899 127.6898287
 127.8678219  24.6604984 128.0653533 129.3661908  24.6965443 128.2785898
 130.6068039  24.0835946 129.3122584 131.1599078  24.5031399 129.9712607
 130.8438126  23.1571694 129.3545540 125.8314210  27.3207945 121.6766025
 126.6933374  27.6462843 121.9361842 126.0164554  26.5339440 121.1639091
 117.8481626  35.4030284 133.9546214 117.1545097  34.9884237 133.4416168
 118.5954617  35.4450821 133.3579632 133.9846846  26.1936471 128.8201248
 133.4045515  26.8521275 128.4379300 133.7182779  25.3713816 128.4088665
 132.4350413  25.5941529 131.0222568 132.9350191  25.7058063 130.2136887
 133.0786021  25.2902582 131.6623377 126.4932409  33.5020158 143.9090409
 126.0099490  34.3020518 144.1154298 126.5793348  33.5128103 142.9557853
 119.7618368  35.3348538 131.8312228 119.7389056  35.4336225 130.8794112
 120.0719005  36.1813689 132.1529395 122.4205746  37.3924693 135.9458843
 123.3749000  37.3608635 135.8788774 122.2218270  36.9315317 136.7609069
 123.0105128  35.9625809 138.5129641 123.8298017  36.4569888 138.5364478
 123.2841936  35.0457777 138.4847208 132.7671724  28.3536561 127.8757596
 131.8797579  28.6386212 127.6577791 133.1825713  28.1930325 127.0284873
 136.1186261  28.3783082 131.5911935 136.8946651  28.8679535 131.8636552
 135.3934395  28.8041137 132.0483805 120.7755975  42.9344313 132.9629041
 120.6410443  42.1744713 132.3967039 120.3588037  43.6585212 132.4957830
 131.9114938  38.1181236 121.9705616 132.6150788  38.3231239 122.5863272
 131.1877587  38.6857998 122.2354700 132.7412748  33.8691097 128.0907886
 132.6847950  34.3259649 127.2515519 133.2941091  33.1081782 127.9130729
 136.5517554  29.6580829 128.9158006 136.2954488  29.2577465 129.7466213
 135.9270422  30.3724623 128.7908145 140.8629892  32.3976902 131.4229297
 140.3029450  32.4670092 132.1960859 140.2573395  32.2217887 130.7028793
 123.9325101  43.8313630 133.1747483 123.8157485  44.7759062 133.0726174
 123.1117547  43.5287191 133.5633283 133.8201635  38.5563765 124.0204076
 134.6547239  38.1244964 123.8381551 133.6585978  38.3845779 124.9480971
 133.4747527  35.0595879 125.3860415 133.4196331  34.8940150 124.4448859
 132.8493583  35.7671911 125.5422605 118.2640042  30.2963943 139.2121838
 118.9098906  29.7862897 139.7009063 118.0557194  31.0332625 139.7865263
 126.7843653  24.5603988 124.9645734 126.7722323  25.5045827 125.1214005
 127.6767075  24.3774133 124.6705195 124.9579615  44.4841891 136.3903412
 125.8606862  44.5165502 136.7069907 124.7316985  43.5542342 136.4049748
 126.7133217  43.2372878 133.0513490 125.7628848  43.2374740 132.9377863
 127.0165703  42.4905613 132.5349525 130.5995772  21.1546764 129.2191671
 129.8328168  20.6005251 129.3648353 131.0106477  21.2268633 130.0805822
 142.4485910  49.0733416 134.1159253 143.0864320  48.9540164 133.4122593
 142.3306753  50.0214260 134.1747205 139.2575617  49.0260844 134.0520778
 138.9194128  48.9101909 133.1641312 140.1265385  48.6252010 134.0321784
 135.1162432  50.8796321 130.0417668 134.5527297  50.7886258 129.2733956
 135.0014827  50.0596225 130.5220161 139.7395400  50.1795696 140.0106983
 139.7284040  49.7848494 139.1387487 139.9016039  49.4461769 140.6040754
 132.6626864  52.3747512 132.8801889 133.4548156  52.0338337 132.4648188
 132.9023514  52.4842488 133.8004042 140.6961991  54.5467289 125.3532133
 140.0449971  55.1321369 124.9666147 141.4906354  55.0773484 125.4127171
 134.6217618  51.6356426 125.7519268 135.3948494  51.0885413 125.6132144
 134.9743017  52.5000675 125.9633729 136.4602661  52.9632808 138.9586167
 136.1692527  53.8678439 138.8432833 137.0959645  53.0049336 139.6730237
 137.3858868  50.3409657 135.5487527 137.9822440  50.1165679 134.8344490
 137.4433839  49.5994402 136.1512975 136.9583896  47.7949092 123.3837718
 137.2109417  47.2730613 122.6221181 136.0208455  47.6315237 123.4864401
 142.0027179  46.7984870 131.1912461 142.7890268  46.3804293 130.8402878
 142.2665883  47.7030962 131.3594109 142.1737256  52.2357721 125.8901118
 141.5383089  52.3092347 126.6022022 141.8434663  52.8251319 125.2120197
 147.4035606  46.7360103 132.0945439 148.1360778  46.1659320 132.3283269
 146.6474962  46.3481704 132.5351945 136.6780185  49.6977198 125.5862093
 136.5616443  49.0222101 126.2543177 136.7882445  49.2109572 124.7694246
 139.0211726  49.1587345 129.2908782 138.6569933  48.6317966 130.0021703
 139.8778842  48.7685814 129.1175267 138.6617213  44.1877245 124.2870130
 138.8291615  45.0557481 124.6540601 138.4714382  44.3504526 123.3631420
 141.4192546  52.6494224 135.9535961 141.1193269  53.5519262 135.8451768
 141.0743605  52.3826407 136.8057114 134.8705027  49.1008020 131.9872665
 133.9455524  48.9684234 132.1950357 135.1189441  49.8802240 132.4842608
 144.8189690  45.1676764 133.6333398 143.9106567  45.0992172 133.3392159
 144.7677285  45.6448709 134.4615224 138.6406434  46.6434902 125.2716797
 138.5206059  47.0891953 126.1102277 137.9459022  46.9920220 124.7130335
 132.2313838  48.7441294 132.8216454 132.3606220  48.9975773 133.7355866
 131.5511290  49.3369002 132.5021109 136.4013326  59.4138544 128.9206928
 136.3237355  60.3646369 128.9995409 135.7974969  59.0684416 129.5781855
 144.3391500  47.1156375 126.0997131 145.2509356  47.3483762 125.9244829
 143.8301147  47.6993420 125.5372210 137.1476928  49.3951863 141.1386262
 137.8891612  49.9336907 140.8621086 136.4413913  50.0218151 141.2957814
 142.6232267  51.5381003 139.7358424 143.0315623  51.0963414 138.9913056
 141.9009529  50.9633631 139.9892617 138.9763337  46.4753610 137.1091981
 139.8224533  46.8993023 137.2526630 138.9161975  45.8187234 137.8030544
 142.9461082  52.0982194 133.4910713 142.3169944  52.2627908 132.7886781
 142.5586744  52.5123803 134.2621677 146.8250314  53.0336632 130.8455076
 146.1401352  53.4135533 130.2952110 146.9094163  53.6431958 131.5787024
 144.0801246  50.6796591 137.4450420 144.2918141  51.3228351 136.7684801
 144.0330994  49.8458907 136.9772350 141.6827474  43.2914411 134.3486992
 140.8211954  43.5895665 134.6403730 141.7089909  43.5084810 133.4168025
 138.4989044  51.8356602 130.7560798 138.9627389  52.1144305 129.9665420
 138.2345842  50.9340046 130.5733888 135.3913125  51.3828083 133.6940561
 135.9614482  51.8115352 133.0558046 135.9821237  51.1010668 134.3924747
 137.4357930  47.9579754 127.5650363 138.1381973  48.4100798 128.0324289
 137.1038558  47.3163573 128.1930256 135.8838291  46.5491511 141.9401572
 135.2536952  47.2307792 142.1736969 135.7774379  46.4374592 140.9954711
 131.1783264  46.2163307 132.8667496 130.3882318  46.4720835 132.3907607
 131.6694511  47.0311645 132.9719537 145.1947073  53.5568546 135.6172777
 146.0164517  53.1548733 135.3355459 145.1909476  53.4536780 136.5688893
 133.1298009  46.5807886 129.8250973 132.3329173  46.6926580 130.3434469
 132.9023601  46.9194538 128.9591864 138.9603677  53.1052589 137.7733488
 139.0248109  53.5672997 138.6091660 138.2514601  52.4749954 137.9015798
 129.4620967  46.4693797 135.2982487 129.7129005  47.3540807 135.5640063
 129.9980515  46.2898399 134.5257579 138.6751695  54.7720697 127.6412468
 138.5397369  55.6172233 128.0697316 139.2161507  54.9739974 126.8778402
 132.1281092  52.2896135 128.2140393 132.6405613  53.0839385 128.3645958
 132.7803805  51.5922425 128.1473995 133.9375977  55.4061891 130.2963146
 134.1142605  56.3279856 130.1084130 134.7332810  55.0920310 130.7257526
 133.2228333  47.4526523 140.1725310 133.1081848  46.5511780 140.4732409
 132.3672851  47.6990220 139.8210126 140.3020171  55.3944263 141.7712810
 139.8584025  54.6080642 141.4533715 140.9637385  55.5823414 141.1056701
 135.0607292  56.9240065 136.2973489 135.6114717  56.7957128 135.5250483
 134.2218768  57.2234954 135.9468382 142.4001409  55.6747063 139.7994211
 142.3819884  56.4955944 139.3074481 143.3221329  55.5501138 140.0244353
 138.8574463  53.1891193 140.6417720 139.3902800  52.4279481 140.4117028
 138.3288544  52.8964845 141.3841874 130.0930009  50.6184789 128.9899964
 130.9305231  51.0281798 128.7733671 130.2708276  49.6784231 128.9600158
 141.9894441  48.2859870 124.6783797 141.4741064  49.0564474 124.9172184
 141.7171749  47.6125006 125.3016858 139.5741552  43.1309571 129.7369035
 138.7183148  42.7416421 129.5574674 139.9868504  43.2101531 128.8768821
 141.1040699  40.6655914 134.1360595 140.6005494  40.6286049 133.3228400
 141.3971305  41.5748657 134.1957251 137.3483584  40.7494644 133.1426777
 138.2136581  40.5537452 132.7832666 137.4161093  40.5204995 134.0696133
 146.9628715  51.0392224 126.6136970 146.1858158  50.7003384 126.1692132
 147.6420196  51.0444848 125.9391935 141.7780744  46.1586962 126.5043578
 141.4730880  46.4733111 127.3553721 142.7311186  46.2368382 126.5470911
 140.2227176  52.3177185 128.1536532 139.6948537  51.5829945 127.8409769
 139.7214679  53.0951862 127.9076500 145.2020022  50.5126206 133.2703578
 144.5443696  51.2025467 133.3583707 146.0060421  50.9022638 133.6137565
 134.9545903  42.9796852 130.5143143 135.5289655  42.7572033 129.7816336
 135.5416886  43.0485546 131.2671745 144.0125481  48.8670578 131.3207520
 144.5257362  49.5000570 131.8229230 144.6626705  48.2671774 130.9550880
 135.2815491  45.0101313 124.5339029 134.4452803  45.3475999 124.8548303
 135.1420260  44.8750292 123.5966166 137.2568571  39.8538100 129.2418213
 136.6032984  39.5387118 128.6174828 137.2149045  39.2313841 129.9678036
 138.3679776  50.1357395 121.1571505 137.4606838  49.9046649 121.3562654
 138.8650808  49.3395015 121.3445486 141.2747855  58.8454903 124.0768191
 140.6009554  59.1486599 124.6853149 141.6613677  59.6483983 123.7273648
 140.4906312  46.3420034 133.5665860 139.5728873  46.5634981 133.4087548
 140.9066455  46.4166344 132.7077568 141.2741359  47.7411450 128.6968541
 142.0213178  48.2532847 128.3875663 141.5432949  47.4195502 129.5572934
 139.5468009  50.2369990 125.6795495 138.6379229  49.9529023 125.7767965
 139.5763093  50.6569069 124.8198802 144.7787277  53.8476580 129.4486663
 144.3249604  53.0067490 129.5051853 144.1481244  54.4837978 129.7861443
 143.7220196  44.7768566 130.6787330 142.9842953  44.2645952 131.0097573
 143.9746970  44.3368948 129.8670607 143.2220216  55.6853077 130.3836481
 143.5143191  56.2458134 129.6648846 143.7318837  55.9781638 131.1389640
 143.8231824  37.5544818 131.2729099 144.1290701  36.6942181 130.9855014
 144.5484429  38.1462438 131.0728093 130.1156180  47.9575504 129.6610697
 129.9180580  47.3644865 128.9361764 129.5602844  47.6527715 130.3786636
 138.0952904  47.8498611 131.7805290 138.1501513  46.8972447 131.7047767
 137.2844106  48.0058050 132.2646589 139.2444097  51.7778734 123.0183574
 138.8063527  51.0614593 122.5589211 139.9854538  52.0054849 122.4568665
 136.0345263  46.4675671 129.5395669 135.2213129  46.7669841 129.9460861
 136.5304258  46.0731359 130.2570151 138.1853841  56.4633428 131.4729934
 138.1430020  56.6894274 130.5438466 139.1016540  56.2296802 131.6215735
 141.6319475  46.9317495 138.3710563 141.9868863  47.1588968 139.2305029
 142.2791606  47.2635872 137.7487818 147.3617212  50.0535931 129.0759892
 147.2235111  50.2437527 128.1481081 147.0053431  50.8155314 129.5327943
 135.5259338  44.0394026 135.1556904 136.1658718  43.8982785 134.4579867
 134.6936869  43.7528540 134.7795506 147.3886592  52.1212458 134.0871164
 147.8223098  52.0287747 134.9354218 148.1018172  52.0969959 133.4491180
 136.3019642  53.3396457 131.2691897 137.0960241  52.8446777 131.0674472
 135.5911334  52.8114320 130.9059602 141.1214487  55.7214552 135.6204264
 141.1751509  56.2905489 136.3881980 140.2529268  55.8916437 135.2558301
 132.6102406  47.4839538 127.3451649 131.6799994  47.4223994 127.5621611
 132.7059878  46.9615491 126.5488291 132.5287955  44.0094351 129.9329891
 132.7894772  44.9239684 129.8239051 133.3505127  43.5418794 130.0826504
 134.0012880  45.4232108 137.1028715 134.6735933  45.2149471 136.4541364
 133.1742666  45.2254194 136.6633948 140.0802586  49.8874814 137.1791196
 141.0094646  50.0385974 137.0060163 139.6593616  49.9758835 136.3239843
 138.8790918  53.9125479 134.9489734 138.7402004  53.5444263 135.8215672
 138.0905514  54.4273118 134.7773692 139.4739070  59.0134575 126.2915270
 139.6490826  58.5422618 127.1060893 138.7871858  59.6400341 126.5196531
 140.4296133  53.2907081 132.3378571 140.0945966  53.2507851 133.2336221
 139.9300079  52.6251797 131.8648982 134.4040377  48.6974711 137.8631153
 134.2660175  47.9654950 138.4642692 135.3145301  48.6083611 137.5815340
 143.3655325  50.6363116 122.6115631 142.7484496  49.9109944 122.5148684
 142.8971813  51.3972476 122.2682705 137.0322678  48.4094671 137.3514832
 137.7422296  47.7687863 137.3101451 136.9891986  48.6607566 138.2741013
 145.0209457  55.3462024 140.2721412 144.9622003  54.6621244 139.6051995
 145.4228975  56.0881014 139.8202037 135.7451612  45.3959889 139.1710472
 135.2088969  44.9450627 139.8232068 135.1568320  45.5305797 138.4280936
 134.0400155  62.1623938 133.0655130 134.2796754  62.7942462 133.7434149
 133.1969352  61.8111978 133.3520490 135.1553871  44.8548540 121.7336935
 134.2783337  44.7337341 121.3699182 135.6311624  44.0634618 121.4815824
 145.0226864  53.3101608 138.5035391 144.1353643  52.9727530 138.6261790
 145.5925415  52.5784639 138.7404157 126.6756011  49.6425700 131.8278443
 127.3627051  49.3287430 131.2399458 126.5204140  50.5467064 131.5545694
 131.4790733  44.5315896 136.2563466 131.3948922  43.9241566 135.5213876
 130.6573439  45.0224915 136.2572963 138.5528017  57.9703060 135.4696634
 138.4798189  58.7758032 135.9815939 138.1105410  58.1695026 134.6444656
 138.3417797  57.2074830 128.9799456 137.5585319  57.7496511 129.0737680
 139.0410542  57.7248810 129.3793697 141.6514447  43.0169460 131.6233661
 142.1483146  42.2639422 131.3034732 140.8801428  43.0533776 131.0576871
 149.5044204  48.7209825 133.2651953 149.4934081  49.6034541 132.8945886
 148.6361584  48.3681376 133.0706490 141.0126701  57.8689894 137.6254793
 141.7254673  58.5037359 137.5530695 140.5216729  57.9653760 136.8094795
 142.7344228  51.7741147 129.1972085 141.8000506  51.8942609 129.0276789
 142.9120896  50.8713614 128.9332095 138.2349416  45.1586843 131.3505346
 137.8647203  44.6057883 132.0386251 138.7308508  44.5544976 130.7980346
 146.1216779  47.6158466 129.7322119 146.5877231  48.4486458 129.6582422
 146.5724279  47.1503448 130.4367377 136.0638614  55.6184338 138.4460364
 136.7648074  56.2520821 138.5989758 135.5933729  55.9599069 137.6856003
 144.1893010  53.9602288 126.7308271 144.4652854  53.8458882 127.6402145
 143.3197509  53.5619772 126.6920444 143.8639900  48.1728945 136.2712914
 143.2111350  48.4204853 135.6165367 144.2420280  47.3593083 135.9375392
 140.8247074  58.2088638 130.3741085 141.0069469  57.3910294 130.8368837
 141.6480060  58.4256331 129.9365975 141.1589240  57.1356824 127.6356133
 141.6877006  56.6249278 127.0226295 141.4217459  56.8199354 128.5001666
 131.6606332  55.1520693 135.3791467 132.2459769  54.4064381 135.5119371
 131.4631171  55.4624650 136.2628130 134.5144988  58.1871940 130.3953909
 133.8455363  58.6718068 129.9117949 134.3757857  58.4341161 131.3097287
 126.2523987  47.7226293 134.0995910 126.2908087  47.1889884 134.8933028
 125.7464280  47.1961499 133.4806887 138.6550256  60.2215684 136.9936567
 139.2068564  60.3847305 137.7585653 138.9956450  60.8120122 136.3216592
 133.6314749  42.5690834 137.5958452 133.6956076  43.4305664 137.1835850
 133.5681870  41.9564835 136.8630811 133.1067022  44.6413966 141.2431486
 133.7339061  44.2591043 141.8569011 132.2494941  44.4228168 141.6087179
 143.5061130  55.0476941 142.8485222 144.0501034  55.6606900 142.3540177
 142.9247975  55.6056520 143.3652235 129.8832565  46.4490395 127.1749841
 130.1786006  45.5401074 127.1216895 128.9820600  46.4278135 126.8530843
 141.7918643  58.1697659 133.9800249 141.6669783  57.3687399 133.4711195
 142.4497735  58.6643853 133.4914219 133.4126812  44.5246392 133.1577390
 132.6913397  45.1382360 133.0184863 134.2020067  45.0604157 133.0794036
 143.8553552  55.9706679 135.6079800 142.9083887  55.8512031 135.5358126
 144.2036325  55.0829177 135.6906061 136.2153125  41.8600818 139.4318041
 136.7387527  42.1063115 140.1944351 135.9965458  42.6920853 139.0121179
 131.6120406  44.1304493 127.2989166 131.2833112  43.2501872 127.1164272
 131.9659777  44.0752162 128.1865555 140.8599985  55.7659396 131.8084152
 140.7124948  54.8376103 131.9891722 141.6853479  55.7879486 131.3241227
 134.7262229  44.4177463 127.6664644 135.0658302  44.9463384 126.9443252
 135.1734350  44.7557869 128.4423210 144.4634107  56.5887954 132.8949025
 145.3880654  56.3830816 132.7573476 144.2949410  56.3404355 133.8038366
 137.4205670  42.8014513 137.1167712 137.0802491  42.0022326 137.5188392
 136.7144676  43.1016224 136.5444545 138.0722142  39.8863826 135.5695035
 138.8948211  39.4124304 135.4473925 138.3160206  40.6654310 136.0693721
 136.7130377  42.9152084 125.8657937 137.4338739  43.2933337 125.3621654
 136.0895681  43.6340961 125.9692915 140.8561499  43.6197233 126.8016269
 141.0725114  44.5021871 126.5005097 140.3755567  43.2283447 126.0721911
 135.5960721  46.5782946 133.3787014 135.4505302  46.8923250 134.2711295
 135.1185924  47.1967847 132.8257912 137.4557104  43.5685494 133.4267903
 137.4418672  42.6726588 133.0900201 138.1729532  43.5756158 134.0606189
 139.3083234  44.0022835 135.4721031 139.0501012  44.9239905 135.4705361
 138.7768275  43.6053269 136.1621495 144.2529423  57.1073622 128.2511116
 144.4266301  56.5420044 127.4984968 144.7458314  57.9074517 128.0690606
 130.0706383  49.1188291 136.3174675 129.5259851  49.8948099 136.4494949
 130.9485733  49.4659095 136.1593796 136.8594000  42.4499875 128.6955473
 136.9809911  41.5216521 128.8946361 136.5696042  42.4638561 127.7833789
 139.7285190  40.1354785 131.8322193 139.7506887  40.1994118 130.8774173
 140.1453249  39.2959294 132.0262699 150.1068814  49.8710045 129.8701416
 150.5499960  49.1217370 129.4720539 149.2295325  49.8620181 129.4875148
 145.2404596  56.4240386 125.3508014 145.9355500  57.0447079 125.5695329
 145.5827746  55.5735737 125.6260392 130.8572405  48.2458187 139.2104832
 130.1154141  48.3940822 139.7969462 130.5365149  48.5066453 138.3471581
 147.1396019  53.8740092 126.8795345 147.6647343  54.2127364 126.1544665
 147.0518371  52.9387107 126.6958480 138.8016067  57.7874165 139.0085222
 139.1103194  57.5423312 139.8807921 139.5991549  57.9920804 138.5204092
 138.8236680  59.9412075 131.2390598 138.3841670  59.4488454 131.9323455
 139.5744796  59.3985043 130.9982673 131.3029018  56.1323616 131.2415226
 132.1287038  55.8327388 130.8613870 130.9523070  55.3631238 131.6905015
 136.2710552  55.4850084 133.3112900 135.6490561  54.8220789 133.0115128
 136.9415419  55.5111216 132.6286548 129.5037624  54.0509942 132.2004160
 128.6669532  53.6232117 132.0188161 129.4761269  54.2442386 133.1374951
 135.8324059  54.0354007 126.7871360 135.9812179  54.7189472 126.1338033
 136.6390502  54.0159097 127.3020816 138.5734368  44.7163245 139.6591765
 137.7037677  45.0096811 139.3874353 138.8093848  45.3003690 140.3799028
 149.6501679  51.3415283 132.2623863 150.4848570  51.7805087 132.4261424
 149.7860808  50.8653936 131.4432109 133.5876692  50.0619185 127.7932429
 133.3422733  49.1581515 127.9912639 133.7572606  50.0636336 126.8511907
 132.8572339  45.7947543 125.2918591 132.1641584  45.8691898 124.6358627
 132.6124091  45.0307886 125.8140108 141.5285996  37.3543144 132.6958082
 141.8087749  36.6866333 133.3218508 142.3136603  37.5472240 132.1832745
 139.3319464  56.5302138 124.2583108 138.7593431  57.1492325 123.8053580
 139.9052258  57.0801500 124.7923030 142.5516724  56.8139288 125.3891690
 143.4847397  56.7484850 125.5924566 142.4639937  57.6495555 124.9306223
 145.1804741  56.1305158 122.3495638 145.1018372  55.7965022 123.2431396
 146.0014407  56.6226926 122.3487110 139.7166263  47.8662951 121.5999160
 140.6625367  47.7369159 121.6687578 139.3380508  47.1277613 122.0768589
 139.6004955  51.9180697 143.0599817 140.5207965  52.0959296 143.2539864
 139.5654538  50.9736742 142.9079517 137.9009180  45.7912927 121.5354046
 136.9940635  45.4946040 121.6116759 138.1785161  45.4942745 120.6688332
 128.8187120  47.1119290 131.9853092 128.4989904  46.2584599 131.6927466
 128.2720548  47.3267869 132.7411059 132.5967028  49.8281731 135.7022598
 132.8153037  50.7598839 135.7210632 133.0092802  49.4689706 136.4877402
 139.5171245  40.3349817 127.6898287 138.7071974  39.9896902 128.0653533
 140.2055662  40.0257360 128.2785898 141.4461794  39.4127864 129.3122584
 141.9992832  39.8323317 129.9712607 141.6831880  38.4863612 129.3545540
 136.6707964  42.6499862 121.6766025 137.5327128  42.9754761 121.9361842
 136.8558309  41.8631358 121.1639091 128.6875380  50.7322202 133.9546214
 127.9938852  50.3176155 133.4416168 129.4348371  50.7742738 133.3579632
 144.8240601  41.5228389 128.8201248 144.2439270  42.1813193 128.4379300
 144.5576534  40.7005733 128.4088665 143.2744167  40.9233446 131.0222568
 143.7743946  41.0349981 130.2136887 143.9179775  40.6194499 131.6623377
 137.3326163  48.8312076 143.9090409 136.8493245  49.6312436 144.1154298
 137.4187102  48.8420021 142.9557853 130.6012123  50.6640456 131.8312228
 130.5782811  50.7628143 130.8794112 130.9112759  51.5105606 132.1529395
 133.2599501  52.7216611 135.9458843 134.2142754  52.6900553 135.8788774
 133.0612024  52.2607234 136.7609069 133.8498883  51.2917727 138.5129641
 134.6691772  51.7861805 138.5364478 134.1235690  50.3749695 138.4847208
 143.6065479  43.6828479 127.8757596 142.7191334  43.9678130 127.6577791
 144.0219468  43.5222242 127.0284873 146.9580015  43.7075000 131.5911935
 147.7340405  44.1971452 131.8636552 146.2328149  44.1333054 132.0483805
 131.6149729  58.2636230 132.9629041 131.4804197  57.5036631 132.3967039
 131.1981792  58.9877130 132.4957830 142.7508692  53.4473154 121.9705616
 143.4544542  53.6523156 122.5863272 142.0271341  54.0149916 122.2354700
 143.5806503  49.1983015 128.0907886 143.5241704  49.6551566 127.2515519
 144.1334845  48.4373700 127.9130729 147.3911309  44.9872747 128.9158006
 147.1348243  44.5869383 129.7466213 146.7664177  45.7016541 128.7908145
 151.7023646  47.7268820 131.4229297 151.1423204  47.7962009 132.1960859
 151.0967150  47.5509805 130.7028793 134.7718855  59.1605547 133.1747483
 134.6551239  60.1050980 133.0726174 133.9511301  58.8579109 133.5633283
 144.6595390  53.8855683 124.0204076 145.4940994  53.4536881 123.8381551
 144.4979733  53.7137697 124.9480971 144.3141282  50.3887796 125.3860415
 144.2590086  50.2232068 124.4448859 143.6887337  51.0963829 125.5422605
 129.1033797  45.6255861 139.2121838 129.7492661  45.1154815 139.7009063
 128.8950948  46.3624542 139.7865263 137.6237407  39.8895905 124.9645734
 137.6116077  40.8337745 125.1214005 138.5160829  39.7066051 124.6705195
 135.7973369  59.8133809 136.3903412 136.7000616  59.8457419 136.7069907
 135.5710739  58.8834260 136.4049748 137.5526971  58.5664796 133.0513490
 136.6022602  58.5666657 132.9377863 137.8559457  57.8197530 132.5349525
 141.4389527  36.4838682 129.2191671 140.6721923  35.9297169 129.3648353
 141.8500232  36.5560551 130.0805822 153.2879665  64.4025334 134.1159253
 153.9258075  64.2832081 133.4122593 153.1700508  65.3506178 134.1747205
 150.0969371  64.3552762 134.0520778 149.7587883  64.2393827 133.1641312
 150.9659139  63.9543927 134.0321784 145.9556187  66.2088239 130.0417668
 145.3921052  66.1178176 129.2733956 145.8408582  65.3888143 130.5220161
 150.5789154  65.5087614 140.0106983 150.5677795  65.1140412 139.1387487
 150.7409794  64.7753687 140.6040754 143.5020619  67.7039430 132.8801889
 144.2941911  67.3630255 132.4648188 143.7417269  67.8134405 133.8004042
 151.5355746  69.8759206 125.3532133 150.8843725  70.4613287 124.9666147
 152.3300108  70.4065401 125.4127171 145.4611373  66.9648343 125.7519268
 146.2342249  66.4177331 125.6132144 145.8136772  67.8292593 125.9633729
 147.2996415  68.2924726 138.9586167 147.0086281  69.1970357 138.8432833
 147.9353400  68.3341253 139.6730237 148.2252622  65.6701574 135.5487527
 148.8216194  65.4457597 134.8344490 148.2827594  64.9286320 136.1512975
 147.7977651  63.1241010 123.3837718 148.0503171  62.6022531 122.6221181
 146.8602210  62.9607155 123.4864401 152.8420933  62.1276788 131.1912461
 153.6284023  61.7096211 130.8402878 153.1059638  63.0322880 131.3594109
 153.0131011  67.5649638 125.8901118 152.3776844  67.6384265 126.6022022
 152.6828417  68.1543237 125.2120197 158.2429360  62.0652021 132.0945439
 158.9754532  61.4951238 132.3283269 157.4868716  61.6773622 132.5351945
 147.5173939  65.0269116 125.5862093 147.4010197  64.3514019 126.2543177
 147.6276199  64.5401489 124.7694246 149.8605480  64.4879263 129.2908782
 149.4963687  63.9609884 130.0021703 150.7172596  64.0977732 129.1175267
 149.5010967  59.5169162 124.2870130 149.6685370  60.3849399 124.6540601
 149.3108136  59.6796444 123.3631420 152.2586300  67.9786141 135.9535961
 151.9587023  68.8811180 135.8451768 151.9137360  67.7118324 136.8057114
 145.7098782  64.4299938 131.9872665 144.7849278  64.2976152 132.1950357
 145.9583195  65.2094157 132.4842608 155.6583444  60.4968681 133.6333398
 154.7500321  60.4284090 133.3392159 155.6071040  60.9740626 134.4615224
 149.4800188  61.9726820 125.2716797 149.3599813  62.4183871 126.1102277
 148.7852776  62.3212137 124.7130335 143.0707593  64.0733212 132.8216454
 143.1999974  64.3267691 133.7355866 142.3905044  64.6660920 132.5021109
 147.2407080  74.7430462 128.9206928 147.1631110  75.6938287 128.9995409
 146.6368724  74.3976334 129.5781855 155.1785254  62.4448293 126.0997131
 156.0903110  62.6775680 125.9244829 154.6694901  63.0285337 125.5372210
 147.9870682  64.7243780 141.1386262 148.7285367  65.2628824 140.8621086
 147.2807668  65.3510069 141.2957814 153.4626022  66.8672921 139.7358424
 153.8709378  66.4255331 138.9913056 152.7403283  66.2925548 139.9892617
 149.8157092  61.8045528 137.1091981 150.6618287  62.2284941 137.2526630
 149.7555730  61.1479152 137.8030544 153.7854836  67.4274111 133.4910713
 153.1563699  67.5919826 132.7886781 153.3980499  67.8415721 134.2621677
 157.6644068  68.3628549 130.8455076 156.9795107  68.7427451 130.2952110
 157.7487918  68.9723876 131.5787024 154.9195000  66.0088508 137.4450420
 155.1311895  66.6520268 136.7684801 154.8724748  65.1750825 136.9772350
 152.5221229  58.6206329 134.3486992 151.6605708  58.9187583 134.6403730
 152.5483664  58.8376728 133.4168025 149.3382798  67.1648520 130.7560798
 149.8021144  67.4436223 129.9665420 149.0739596  66.2631964 130.5733888
 146.2306879  66.7120001 133.6940561 146.8008237  67.1407269 133.0558046
 146.8214991  66.4302586 134.3924747 148.2751684  63.2871672 127.5650363
 148.9775728  63.7392716 128.0324289 147.9432313  62.6455491 128.1930256
 146.7232046  61.8783429 141.9401572 146.0930707  62.5599709 142.1736969
 146.6168134  61.7666510 140.9954711 142.0177018  61.5455225 132.8667496
 141.2276072  61.8012753 132.3907607 142.5088266  62.3603562 132.9719537
 156.0340828  68.8860464 135.6172777 156.8558272  68.4840651 135.3355459
 156.0303231  68.7828698 136.5688893 143.9691764  61.9099804 129.8250973
 143.1722927  62.0218498 130.3434469 143.7417356  62.2486456 128.9591864
 149.7997431  68.4344507 137.7733488 149.8641864  68.8964914 138.6091660
 149.0908355  67.8041872 137.9015798 140.3014721  61.7985715 135.2982487
 140.5522760  62.6832725 135.5640063 140.8374270  61.6190317 134.5257579
 149.5145449  70.1012615 127.6412468 149.3791124  70.9464150 128.0697316
 150.0555262  70.3031892 126.8778402 142.9674846  67.6188053 128.2140393
 143.4799367  68.4131303 128.3645958 143.6197559  66.9214343 128.1473995
 144.7769731  70.7353809 130.2963146 144.9536359  71.6571774 130.1084130
 145.5726565  70.4212228 130.7257526 144.0622088  62.7818441 140.1725310
 143.9475603  61.8803698 140.4732409 143.2066605  63.0282137 139.8210126
 151.1413925  70.7236181 141.7712810 150.6977780  69.9372560 141.4533715
 151.8031139  70.9115332 141.1056701 145.9001047  72.2531983 136.2973489
 146.4508472  72.1249046 135.5250483 145.0612523  72.5526872 135.9468382
 153.2395163  71.0038981 139.7994211 153.2213639  71.8247862 139.3074481
 154.1615084  70.8793056 140.0244353 149.6968218  68.5183110 140.6417720
 150.2296554  67.7571399 140.4117028 149.1682299  68.2256762 141.3841874
 140.9323763  65.9476707 128.9899964 141.7698985  66.3573715 128.7733671
 141.1102031  65.0076149 128.9600158 152.8288195  63.6151787 124.6783797
 152.3134819  64.3856392 124.9172184 152.5565504  62.9416924 125.3016858
 150.4135306  58.4601488 129.7369035 149.5576903  58.0708339 129.5574674
 150.8262258  58.5393449 128.8768821 151.9434453  55.9947832 134.1360595
 151.4399249  55.9577967 133.3228400 152.2365060  56.9040574 134.1957251
 148.1877339  56.0786561 133.1426777 149.0530336  55.8829370 132.7832666
 148.2554848  55.8496913 134.0696133 157.8022469  66.3684142 126.6136970
 157.0251912  66.0295302 126.1692132 158.4813950  66.3736765 125.9391935
 152.6174499  61.4878880 126.5043578 152.3124634  61.8025029 127.3553721
 153.5704941  61.5660299 126.5470911 151.0620930  67.6469103 128.1536532
 150.5342292  66.9121862 127.8409769 150.5608433  68.4243779 127.9076500
 156.0413776  65.8418123 133.2703578 155.3837451  66.5317385 133.3583707
 156.8454176  66.2314555 133.6137565 145.7939658  58.3088769 130.5143143
 146.3683410  58.0863951 129.7816336 146.3810640  58.3777464 131.2671745
 154.8519235  64.1962496 131.3207520 155.3651117  64.8292488 131.8229230
 155.5020459  63.5963692 130.9550880 146.1209245  60.3393230 124.5339029
 145.2846557  60.6767917 124.8548303 145.9814015  60.2042210 123.5966166
 148.0962326  55.1830018 129.2418213 147.4426738  54.8679035 128.6174828
 148.0542800  54.5605759 129.9678036 149.2073531  65.4649313 121.1571505
 148.3000592  65.2338567 121.3562654 149.7044563  64.6686932 121.3445486
 152.1141609  74.1746820 124.0768191 151.4403308  74.4778517 124.6853149
 152.5007431  74.9775901 123.7273648 151.3300066  61.6711952 133.5665860
 150.4122627  61.8926899 133.4087548 151.7460210  61.7458262 132.7077568
 152.1135114  63.0703367 128.6968541 152.8606933  63.5824765 128.3875663
 152.3826703  62.7487420 129.5572934 150.3861764  65.5661908 125.6795495
 149.4772983  65.2820941 125.7767965 150.4156848  65.9860987 124.8198802
 155.6181031  69.1768498 129.4486663 155.1643358  68.3359407 129.5051853
 154.9874998  69.8129896 129.7861443 154.5613951  60.1060484 130.6787330
 153.8236708  59.5937870 131.0097573 154.8140724  59.6660865 129.8670607
 154.0613971  71.0144994 130.3836481 154.3536945  71.5750051 129.6648846
 154.5712591  71.3073555 131.1389640 154.6625578  52.8836736 131.2729099
 154.9684455  52.0234099 130.9855014 155.3878183  53.4754356 131.0728093
 140.9549934  63.2867422 129.6610697 140.7574334  62.6936783 128.9361764
 140.3996598  62.9819632 130.3786636 148.9346658  63.1790529 131.7805290
 148.9895268  62.2264365 131.7047767 148.1237860  63.3349968 132.2646589
 150.0837852  67.1070652 123.0183574 149.6457282  66.3906511 122.5589211
 150.8248293  67.3346767 122.4568665 146.8739018  61.7967588 129.5395669
 146.0606883  62.0961759 129.9460861 147.3698012  61.4023277 130.2570151
 149.0247596  71.7925345 131.4729934 148.9823775  72.0186192 130.5438466
 149.9410295  71.5588720 131.6215735 152.4713230  62.2609413 138.3710563
 152.8262617  62.4880886 139.2305029 153.1185361  62.5927790 137.7487818
 158.2010967  65.3827849 129.0759892 158.0628865  65.5729445 128.1481081
 157.8447185  66.1447232 129.5327943 146.3653093  59.3685944 135.1556904
 147.0052472  59.2274703 134.4579867 145.5330623  59.0820457 134.7795506
 158.2280346  67.4504376 134.0871164 158.6616853  67.3579665 134.9354218
 158.9411927  67.4261876 133.4491180 147.1413397  68.6688374 131.2691897
 147.9353995  68.1738694 131.0674472 146.4305089  68.1406237 130.9059602
 151.9608241  71.0506470 135.6204264 152.0145263  71.6197406 136.3881980
 151.0923022  71.2208355 135.2558301 143.4496160  62.8131456 127.3451649
 142.5193748  62.7515912 127.5621611 143.5453632  62.2907409 126.5488291
 143.3681709  59.3386269 129.9329891 143.6288526  60.2531602 129.8239051
 144.1898881  58.8710711 130.0826504 144.8406634  60.7524026 137.1028715
 145.5129688  60.5441388 136.4541364 144.0136421  60.5546112 136.6633948
 150.9196341  65.2166732 137.1791196 151.8488401  65.3677892 137.0060163
 150.4987371  65.3050753 136.3239843 149.7184673  69.2417396 134.9489734
 149.5795758  68.8736181 135.8215672 148.9299269  69.7565036 134.7773692
 150.3132825  74.3426493 126.2915270 150.4884580  73.8714536 127.1060893
 149.6265613  74.9692259 126.5196531 151.2689888  68.6198999 132.3378571
 150.9339720  68.5799769 133.2336221 150.7693833  67.9543715 131.8648982
 145.2434132  64.0266629 137.8631153 145.1053930  63.2946868 138.4642692
 146.1539055  63.9375529 137.5815340 154.2049079  65.9655033 122.6115631
 153.5878250  65.2401862 122.5148684 153.7365568  66.7264394 122.2682705
 147.8716432  63.7386588 137.3514832 148.5816051  63.0979781 137.3101451
 147.8285741  63.9899483 138.2741013 155.8603211  70.6753942 140.2721412
 155.8015757  69.9913162 139.6051995 156.2622729  71.4172932 139.8202037
 146.5845366  60.7251806 139.1710472 146.0482723  60.2742545 139.8232068
 145.9962075  60.8597715 138.4280936 144.8793910  77.4915856 133.0655130
 145.1190508  78.1234380 133.7434149 144.0363106  77.1403896 133.3520490
 145.9947625  60.1840458 121.7336935 145.1177092  60.0629258 121.3699182
 146.4705378  59.3926536 121.4815824 155.8620618  68.6393526 138.5035391
 154.9747397  68.3019447 138.6261790 156.4319169  67.9076557 138.7404157
 137.5149765  64.9717617 131.8278443 138.2020805  64.6579347 131.2399458
 137.3597894  65.8758982 131.5545694 142.3184488  59.8607814 136.2563466
 142.2342676  59.2533484 135.5213876 141.4967194  60.3516832 136.2572963
 149.3921772  73.2994978 135.4696634 149.3191943  74.1049949 135.9815939
 148.9499165  73.4986944 134.6444656 149.1811551  72.5366748 128.9799456
 148.3979073  73.0788428 129.0737680 149.8804297  73.0540728 129.3793697
 152.4908201  58.3461377 131.6233661 152.9876901  57.5931340 131.3034732
 151.7195183  58.3825694 131.0576871 151.8520455  73.1981812 137.6254793
 152.5648427  73.8329277 137.5530695 151.3610484  73.2945678 136.8094795
 153.5737982  67.1033065 129.1972085 152.6394261  67.2234527 129.0276789
 153.7514651  66.2005531 128.9332095 149.0743170  60.4878760 131.3505346
 148.7040958  59.9349801 132.0386251 149.5702263  59.8836894 130.7980346
 156.9610533  62.9450384 129.7322119 157.4270986  63.7778376 129.6582422
 157.4118034  62.4795366 130.4367377 146.9032369  70.9476255 138.4460364
 147.6041828  71.5812738 138.5989758 146.4327484  71.2890987 137.6856003
 155.0286765  69.2894205 126.7308271 155.3046608  69.1750800 127.6402145
 154.1591263  68.8911690 126.6920444 154.7033655  63.5020863 136.2712914
 154.0505105  63.7496770 135.6165367 155.0814035  62.6885001 135.9375392
 151.6640829  73.5380556 130.3741085 151.8463223  72.7202212 130.8368837
 152.4873815  73.7548248 129.9365975 151.9982994  72.4648741 127.6356133
 152.5270761  71.9541196 127.0226295 152.2611214  72.1491271 128.5001666
 142.5000087  70.4812611 135.3791467 143.0853524  69.7356298 135.5119371
 142.3024925  70.7916567 136.2628130 145.3538742  73.5163858 130.3953909
 144.6849117  74.0009986 129.9117949 145.2151612  73.7633078 131.3097287
 137.0917742  63.0518211 134.0995910 137.1301841  62.5181801 134.8933028
 136.5858034  62.5253416 133.4806887 149.4944011  75.5507601 136.9936567
 150.0462319  75.7139223 137.7585653 149.8350204  76.1412039 136.3216592
 144.4708504  57.8982751 137.5958452 144.5349830  58.7597582 137.1835850
 144.4075624  57.2856753 136.8630811 143.9460776  59.9705884 141.2431486
 144.5732815  59.5882961 141.8569011 143.0888695  59.7520086 141.6087179
 154.3454885  70.3768859 142.8485222 154.8894789  70.9898817 142.3540177
 153.7641730  70.9348437 143.3652235 140.7226319  61.7782313 127.1749841
 141.0179760  60.8692991 127.1216895 139.8214355  61.7570052 126.8530843
 152.6312398  73.4989577 133.9800249 152.5063537  72.6979317 133.4711195
 153.2891489  73.9935770 133.4914219 144.2520566  59.8538309 133.1577390
 143.5307152  60.4674277 133.0184863 145.0413822  60.3896074 133.0794036
 154.6947306  71.2998597 135.6079800 153.7477642  71.1803948 135.5358126
 155.0430079  70.4121095 135.6906061 147.0546880  57.1892736 139.4318041
 147.5781281  57.4355033 140.1944351 146.8359213  58.0212771 139.0121179
 142.4514161  59.4596411 127.2989166 142.1226867  58.5793789 127.1164272
 142.8053531  59.4044079 128.1865555 151.6993740  71.0951313 131.8084152
 151.5518702  70.1668021 131.9891722 152.5247233  71.1171404 131.3241227
 145.5655984  59.7469380 127.6664644 145.9052056  60.2755302 126.9443252
 146.0128104  60.0849786 128.4423210 155.3027861  71.9179872 132.8949025
 156.2274409  71.7122733 132.7573476 155.1343165  71.6696273 133.8038366
 148.2599425  58.1306431 137.1167712 147.9196245  57.3314244 137.5188392
 147.5538431  58.4308142 136.5444545 148.9115897  55.2155743 135.5695035
 149.7341966  54.7416222 135.4473925 149.1553960  55.9946227 136.0693721
 147.5524131  58.2444002 125.8657937 148.2732494  58.6225255 125.3621654
 146.9289435  58.9632879 125.9692915 151.6955254  58.9489151 126.8016269
 151.9118868  59.8313789 126.5005097 151.2149321  58.5575364 126.0721911
 146.4354475  61.9074864 133.3787014 146.2899056  62.2215167 134.2711295
 145.9579679  62.5259764 132.8257912 148.2950858  58.8977412 133.4267903
 148.2812427  58.0018505 133.0900201 149.0123286  58.9048076 134.0606189
 150.1476989  59.3314752 135.4721031 149.8894767  60.2531823 135.4705361
 149.6162029  58.9345187 136.1621495 155.0923178  72.4365539 128.2511116
 155.2660055  71.8711962 127.4984968 155.5852069  73.2366434 128.0690606
 140.9100137  64.4480209 136.3174675 140.3653606  65.2240017 136.4494949
 141.7879487  64.7951013 136.1593796 147.6987754  57.7791792 128.6955473
 147.8203665  56.8508439 128.8946361 147.4089796  57.7930478 127.7833789
 150.5678944  55.4646703 131.8322193 150.5900641  55.5286036 130.8774173
 150.9847004  54.6251211 132.0262699 156.0798350  71.7532304 125.3508014
 156.7749255  72.3738997 125.5695329 156.4221500  70.9027655 125.6260392
 141.6966159  63.5750105 139.2104832 140.9547895  63.7232740 139.7969462
 141.3758904  63.8358370 138.3471581 157.9789773  69.2032009 126.8795345
 158.5041097  69.5419282 126.1544665 157.8912126  68.2679025 126.6958480
 149.6409822  73.1166083 139.0085222 149.9496948  72.8715230 139.8807921
 150.4385304  73.3212722 138.5204092 149.6630434  75.2703993 131.2390598
 149.2235424  74.7780371 131.9323455 150.4138551  74.7276960 130.9982673
 142.1422773  71.4615534 131.2415226 142.9680793  71.1619305 130.8613870
 141.7916825  70.6923156 131.6905015 147.1104306  70.8142002 133.3112900
 146.4884315  70.1512707 133.0115128 147.7809173  70.8403134 132.6286548
 140.3431378  69.3801860 132.2004160 139.5063286  68.9524034 132.0188161
 140.3155023  69.5734303 133.1374951 146.6717813  69.3645925 126.7871360
 146.8205933  70.0481389 126.1338033 147.4784257  69.3451015 127.3020816
 149.4128122  60.0455162 139.6591765 148.5431431  60.3388728 139.3874353
 149.6487602  60.6295607 140.3799028 144.4270446  65.3911103 127.7932429
 144.1816488  64.4873433 127.9912639 144.5966361  65.3928253 126.8511907
 143.6966094  61.1239460 125.2918591 143.0035339  61.1983815 124.6358627
 143.4517845  60.3599804 125.8140108 152.3679750  52.6835062 132.6958082
 152.6481504  52.0158251 133.3218508 153.1530357  52.8764157 132.1832745
 150.1713219  71.8594056 124.2583108 149.5987186  72.4784243 123.8053580
 150.7446012  72.4093417 124.7923030 153.3910478  72.1431206 125.3891690
 154.3241152  72.0776767 125.5924566 153.3033691  72.9787473 124.9306223
 156.0198495  71.4597076 122.3495638 155.9412127  71.1256940 123.2431396
 156.8408162  71.9518844 122.3487110 150.5560017  63.1954868 121.5999160
 151.5019122  63.0661076 121.6687578 150.1774262  62.4569530 122.0768589
 150.4398710  67.2472614 143.0599817 151.3601719  67.4251213 143.2539864
 150.4048293  66.3028660 142.9079517 148.7402934  61.1204845 121.5354046
 147.8334390  60.8237957 121.6116759 149.0178915  60.8234663 120.6688332
 139.6580875  62.4411208 131.9853092 139.3383659  61.5876516 131.6927466
 139.1114303  62.6559786 132.7411059 143.4360782  65.1573649 135.7022598
 143.6546792  66.0890757 135.7210632 143.8486556  64.7981623 136.4877402
 150.3565000  55.6641734 127.6898287 149.5465728  55.3188819 128.0653533
 151.0449417  55.3549278 128.2785898 152.2855548  54.7419781 129.3122584
 152.8386587  55.1615235 129.9712607 152.5225635  53.8155529 129.3545540
 147.5101719  57.9791780 121.6766025 148.3720883  58.3046678 121.9361842
 147.6952063  57.1923276 121.1639091 139.5269135  66.0614120 133.9546214
 138.8332606  65.6468072 133.4416168 140.2742126  66.1034656 133.3579632
 155.6634355  56.8520306 128.8201248 155.0833024  57.5105110 128.4379300
 155.3970288  56.0297651 128.4088665 154.1137922  56.2525364 131.0222568
 154.6137700  56.3641899 130.2136887 154.7573530  55.9486417 131.6623377
 148.1719918  64.1603994 143.9090409 147.6886999  64.9604354 144.1154298
 148.2580857  64.1711939 142.9557853 141.4405877  65.9932373 131.8312228
 141.4176565  66.0920061 130.8794112 141.7506514  66.8397524 132.1529395
 144.0993255  68.0508528 135.9458843 145.0536509  68.0192471 135.8788774
 143.9005779  67.5899152 136.7609069 144.6892637  66.6209644 138.5129641
 145.5085526  67.1153723 138.5364478 144.9629445  65.7041613 138.4847208
 154.4459233  59.0120397 127.8757596 153.5585088  59.2970047 127.6577791
 154.8613222  58.8514160 127.0284873 157.7973770  59.0366918 131.5911935
 158.5734160  59.5263370 131.8636552 157.0721904  59.4624972 132.0483805
 142.4543484  73.5928148 132.9629041 142.3197952  72.8328549 132.3967039
 142.0375546  74.3169048 132.4957830 153.5902447  68.7765071 121.9705616
 154.2938297  68.9815074 122.5863272 152.8665096  69.3441833 122.2354700
 154.4200257  64.5274933 128.0907886 154.3635459  64.9843484 127.2515519
 154.9728600  63.7665617 127.9130729 158.2305063  60.3164665 128.9158006
 157.9741997  59.9161300 129.7466213 157.6057931  61.0308458 128.7908145
 145.6112610  74.4897465 133.1747483 145.4944994  75.4342897 133.0726174
 144.7905056  74.1871026 133.5633283 155.4989144  69.2147601 124.0204076
 156.3334748  68.7828799 123.8381551 155.3373487  69.0429614 124.9480971
 155.1535036  65.7179714 125.3860415 155.0983840  65.5523985 124.4448859
 154.5281092  66.4255747 125.5422605 139.9427551  60.9547778 139.2121838
 140.5886415  60.4446732 139.7009063 139.7344703  61.6916460 139.7865263
 148.4631162  55.2187823 124.9645734 148.4509832  56.1629663 125.1214005
 149.3554584  55.0357968 124.6705195 146.6367124  75.1425727 136.3903412
 147.5394371  75.1749337 136.7069907 146.4104494  74.2126178 136.4049748
 148.3920726  73.8956713 133.0513490 147.4416357  73.8958575 132.9377863
 148.6953212  73.1489448 132.5349525 152.2783281  51.8130600 129.2191671
 151.5115677  51.2589086 129.3648353 152.6893986  51.8852468 130.0805822
 156.7949941  81.5380156 130.0417668 156.2314806  81.4470093 129.2733956
 156.6802336  80.7180061 130.5220161 154.3414373  83.0331348 132.8801889
 155.1335665  82.6922172 132.4648188 154.5811023  83.1426323 133.8004042
 156.3005127  82.2940261 125.7519268 157.0736003  81.7469248 125.6132144
 156.6530526  83.1584510 125.9633729 158.1390170  83.6216643 138.9586167
 157.8480036  84.5262274 138.8432833 158.7747154  83.6633171 139.6730237
 158.6371405  78.4532927 123.3837718 158.8896926  77.9314448 122.6221181
 157.6995964  78.2899073 123.4864401 158.3567694  80.3561033 125.5862093
 158.2403952  79.6805937 126.2543177 158.4669954  79.8693407 124.7694246
 156.5492536  79.7591856 131.9872665 155.6243033  79.6268070 132.1950357
 156.7976950  80.5386075 132.4842608 153.9101347  79.4025129 132.8216454
 154.0393729  79.6559608 133.7355866 153.2298799  79.9952837 132.5021109
 158.0800835  90.0722379 128.9206928 158.0024864  91.0230204 128.9995409
 157.4762478  89.7268252 129.5781855 157.0700634  82.0411919 133.6940561
 157.6401991  82.4699187 133.0558046 157.6608746  81.7594503 134.3924747
 157.5625800  77.2075346 141.9401572 156.9324461  77.8891627 142.1736969
 157.4561888  77.0958428 140.9954711 152.8570773  76.8747142 132.8667496
 152.0669827  77.1304671 132.3907607 153.3482020  77.6895480 132.9719537
 154.8085518  77.2391721 129.8250973 154.0116682  77.3510416 130.3434469
 154.5811110  77.5778374 128.9591864 151.1408476  77.1277633 135.2982487
 151.3916514  78.0124643 135.5640063 151.6768024  76.9482234 134.5257579
 153.8068601  82.9479970 128.2140393 154.3193121  83.7423220 128.3645958
 154.4591314  82.2506261 128.1473995 155.6163486  86.0645727 130.2963146
 155.7930114  86.9863691 130.1084130 156.4120319  85.7504146 130.7257526
 154.9015842  78.1110358 140.1725310 154.7869357  77.2095616 140.4732409
 154.0460360  78.3574055 139.8210126 156.7394801  87.5823900 136.2973489
 157.2902226  87.4540964 135.5250483 155.9006277  87.8818789 135.9468382
 151.7717518  81.2768625 128.9899964 152.6092740  81.6865633 128.7733671
 151.9495785  80.3368067 128.9600158 156.6333412  73.6380687 130.5143143
 157.2077164  73.4155868 129.7816336 157.2204395  73.7069381 131.2671745
 156.9603000  75.6685148 124.5339029 156.1240312  76.0059834 124.8548303
 156.8207769  75.5334128 123.5966166 158.9356080  70.5121936 129.2418213
 158.2820493  70.1970953 128.6174828 158.8936554  69.8897676 129.9678036
 151.7943689  78.6159340 129.6610697 151.5968089  78.0228701 128.9361764
 151.2390353  78.3111550 130.3786636 157.7132772  77.1259506 129.5395669
 156.9000638  77.4253677 129.9460861 158.2091767  76.7315195 130.2570151
 157.2046847  74.6977862 135.1556904 157.8446227  74.5566621 134.4579867
 156.3724378  74.4112375 134.7795506 157.9807151  83.9980292 131.2691897
 158.7747750  83.5030612 131.0674472 157.2698843  83.4698155 130.9059602
 154.2889915  78.1423374 127.3451649 153.3587503  78.0807829 127.5621611
 154.3847387  77.6199327 126.5488291 154.2075464  74.6678187 129.9329891
 154.4682281  75.5823520 129.8239051 155.0292636  74.2002629 130.0826504
 155.6800389  76.0815944 137.1028715 156.3523442  75.8733306 136.4541364
 154.8530175  75.8838030 136.6633948 156.0827886  79.3558547 137.8631153
 155.9447684  78.6238786 138.4642692 156.9932810  79.2667447 137.5815340
 157.4239121  76.0543724 139.1710472 156.8876478  75.6034462 139.8232068
 156.8355829  76.1889633 138.4280936 155.7187664  92.8207773 133.0655130
 155.9584263  93.4526297 133.7434149 154.8756861  92.4695813 133.3520490
 156.8341380  75.5132375 121.7336935 155.9570846  75.3921176 121.3699182
 157.3099133  74.7218454 121.4815824 148.3543520  80.3009535 131.8278443
 149.0414560  79.9871265 131.2399458 148.1991649  81.2050900 131.5545694
 153.1578242  75.1899732 136.2563466 153.0736431  74.5825401 135.5213876
 152.3360948  75.6808750 136.2572963 157.7426123  86.2768173 138.4460364
 158.4435583  86.9104656 138.5989758 157.2721238  86.6182905 137.6856003
 153.3393841  85.8104528 135.3791467 153.9247278  85.0648216 135.5119371
 153.1418680  86.1208485 136.2628130 156.1932497  88.8455776 130.3953909
 155.5242872  89.3301903 129.9117949 156.0545366  89.0924996 131.3097287
 147.9311496  78.3810128 134.0995910 147.9695596  77.8473719 134.8933028
 147.4251789  77.8545334 133.4806887 155.3102258  73.2274669 137.5958452
 155.3743585  74.0889500 137.1835850 155.2469379  72.6148671 136.8630811
 154.7854531  75.2997801 141.2431486 155.4126570  74.9174879 141.8569011
 153.9282450  75.0812003 141.6087179 151.5620074  77.1074231 127.1749841
 151.8573515  76.1984909 127.1216895 150.6608109  77.0861970 126.8530843
 155.0914321  75.1830227 133.1577390 154.3700906  75.7966195 133.0184863
 155.8807576  75.7187992 133.0794036 157.8940634  72.5184654 139.4318041
 158.4175036  72.7646950 140.1944351 157.6752967  73.3504688 139.0121179
 153.2907915  74.7888328 127.2989166 152.9620621  73.9085707 127.1164272
 153.6447286  74.7335997 128.1865555 156.4049738  75.0761298 127.6664644
 156.7445811  75.6047219 126.9443252 156.8521859  75.4141704 128.4423210
 159.0993179  73.4598349 137.1167712 158.7590000  72.6606162 137.5188392
 158.3932185  73.7600060 136.5444545 158.3917886  73.5735920 125.8657937
 159.1126248  73.9517172 125.3621654 157.7683190  74.2924796 125.9692915
 157.2748230  77.2366782 133.3787014 157.1292810  77.5507085 134.2711295
 156.7973433  77.8551682 132.8257912 151.7493892  79.7772126 136.3174675
 151.2047360  80.5531934 136.4494949 152.6273242  80.1242931 136.1593796
 158.5381509  73.1083710 128.6955473 158.6597420  72.1800356 128.8946361
 158.2483551  73.1222396 127.7833789 152.5359914  78.9042022 139.2104832
 151.7941650  79.0524658 139.7969462 152.2152658  79.1650288 138.3471581
 152.9816527  86.7907451 131.2415226 153.8074547  86.4911223 130.8613870
 152.6310579  86.0215074 131.6905015 157.9498061  86.1433919 133.3112900
 157.3278070  85.4804624 133.0115128 158.6202928  86.1695051 132.6286548
 151.1825133  84.7093778 132.2004160 150.3457041  84.2815952 132.0188161
 151.1548778  84.9026221 133.1374951 157.5111568  84.6937843 126.7871360
 157.6599688  85.3773307 126.1338033 158.3178011  84.6742933 127.3020816
 155.2664201  80.7203020 127.7932429 155.0210242  79.8165350 127.9912639
 155.4360115  80.7220171 126.8511907 154.5359848  76.4531378 125.2918591
 153.8429093  76.5275733 124.6358627 154.2911600  75.6891722 125.8140108
 150.4974629  77.7703126 131.9853092 150.1777413  76.9168434 131.6927466
 149.9508057  77.9851704 132.7411059 154.2754537  80.4865567 135.7022598
 154.4940546  81.4182675 135.7210632 154.6880310  80.1273541 136.4877402
 158.3495473  73.3083698 121.6766025 159.2114637  73.6338596 121.9361842
 158.5345818  72.5215193 121.1639091 150.3662889  81.3906037 133.9546214
 149.6726361  80.9759990 133.4416168 151.1135880  81.4326574 133.3579632
 159.0113672  79.4895911 143.9090409 158.5280754  80.2896271 144.1154298
 159.0974611  79.5003856 142.9557853 152.2799632  81.3224291 131.8312228
 152.2570320  81.4211978 130.8794112 152.5900268  82.1689442 132.1529395
 154.9387010  83.3800446 135.9458843 155.8930263  83.3484388 135.8788774
 154.7399533  82.9191070 136.7609069 155.5286392  81.9501562 138.5129641
 156.3479281  82.4445641 138.5364478 155.8023199  81.0333530 138.4847208
 153.2937238  88.9220066 132.9629041 153.1591706  88.1620466 132.3967039
 152.8769301  89.6460965 132.4957830 156.4506364  89.8189383 133.1747483
 156.3338748  90.7634815 133.0726174 155.6298810  89.5162944 133.5633283
 150.7821306  76.2839696 139.2121838 151.4280169  75.7738650 139.7009063
 150.5738457  77.0208378 139.7865263 157.4760878  90.4717644 136.3903412
 158.3788125  90.5041255 136.7069907 157.2498248  89.5418095 136.4049748
 158.7705251  93.7102046 134.0995910 158.8089350  93.1765637 134.8933028
 158.2645543  93.1837252 133.4806887 112.3612648   8.5102225 119.7900437
 112.6009246   9.1420749 120.4679456 111.5181844   8.1590265 120.0765796
 124.2768679  12.5566526 116.7662975 123.7133544  12.4656463 115.9979263
 124.1621074  11.7366430 117.2465468 121.8233111  14.0517717 119.6047196
 122.6154403  13.7108542 119.1893495 122.0629761  14.1612692 120.5249349
 129.8568238  16.2237494 112.0777440 129.2056218  16.8091574 111.6911454
 130.6512601  16.7543688 112.1372477 123.7823865  13.3126631 112.4764574
 124.5554741  12.7655618 112.3377450 124.1349264  14.1770880 112.6879036
 125.6208908  14.6403013 125.6831474 125.3298774  15.5448644 125.5678140
 126.2565892  14.6819541 126.3975543 131.3343503  13.9127925 112.6146424
 130.6989336  13.9862552 113.3267329 131.0040909  14.5021524 111.9365504
 130.5798793  14.3264428 122.6781267 130.2799516  15.2289467 122.5697075
 130.2349852  14.0596612 123.5302420 121.3920085  10.4211499 119.5461761
 121.5212466  10.6745978 120.4601173 120.7117536  11.0139207 119.2266416
 125.5619572  21.0908749 115.6452235 125.4843602  22.0416574 115.7240716
 124.9581216  20.7454621 116.3027161 127.6595291  13.5126807 117.4806104
 128.1233636  13.7914510 116.6910727 127.3952089  12.6110251 117.2979195
 124.5519372  13.0598288 120.4185868 125.1220729  13.4885557 119.7803352
 125.1427484  12.7780873 121.1170053 128.1209924  14.7822794 124.4978794
 128.1854356  15.2443201 125.3336966 127.4120848  14.1520159 124.6261104
 127.8357941  16.4490902 114.3657775 127.7003616  17.2942437 114.7942623
 128.3767754  16.6510179 113.6023709 121.2887339  13.9666340 114.9385700
 121.8011859  14.7609590 115.0891265 121.9410052  13.2692630 114.8719301
 123.0982223  17.0832096 117.0208453 123.2748852  18.0050061 116.8329437
 123.8939057  16.7690515 117.4502833 129.4626418  17.0714468 128.4958117
 129.0190272  16.2850847 128.1779021 130.1243631  17.2593619 127.8302008
 124.2213539  18.6010270 123.0218795 124.7720964  18.4727333 122.2495789
 123.3825015  18.9005159 122.6713688 131.5607656  17.3517268 126.5239518
 131.5426131  18.1726149 126.0319787 132.4827576  17.2271343 126.7489659
 128.0180710  14.8661398 127.3663026 128.5509047  14.1049686 127.1362334
 127.4894791  14.5735049 128.1087181 119.2536256  12.2954994 115.7145270
 120.0911478  12.7052002 115.4978978 119.4314523  11.3554436 115.6845464
 129.3833423  13.9947390 114.8781838 128.8554784  13.2600150 114.5655076
 128.8820925  14.7722066 114.6321807 130.4354102  20.5225108 110.8013498
 129.7615800  20.8256804 111.4098456 130.8219924  21.3254188 110.4518955
 133.9393524  15.5246785 116.1731969 133.4855851  14.6837695 116.2297160
 133.3087490  16.1608183 116.5106749 132.3826463  17.3623281 117.1081787
 132.6749437  17.9228339 116.3894153 132.8925083  17.6551842 117.8634946
 128.4050344  13.4548939 109.7428880 127.9669774  12.7384798 109.2834518
 129.1460785  13.6825054 109.1813972 127.3460088  18.1403633 118.1975241
 127.3036267  18.3664479 117.2683773 128.2622787  17.9067007 118.3461042
 125.4625889  15.0166662 117.9937203 126.2566487  14.5216982 117.7919778
 124.7517581  14.4884525 117.6304909 130.2820733  17.3984757 122.3449571
 130.3357756  17.9675693 123.1127287 129.4135515  17.5686642 121.9803608
 128.0397165  15.5895684 121.6735040 127.9008251  15.2214468 122.5460978
 127.2511761  16.1043323 121.5018998 128.6345317  20.6904780 113.0160577
 128.8097073  20.2192823 113.8306200 127.9478105  21.3170546 113.2441838
 129.5902380  14.9677286 119.0623878 129.2552213  14.9278056 119.9581528
 129.0906326  14.3022002 118.5894288 134.1815703  17.0232229 126.9966718
 134.1228249  16.3391449 126.3297301 134.5835222  17.7651219 126.5447344
 123.2006402  23.8394143 119.7900437 123.4403000  24.4712667 120.4679456
 122.3575599  23.4882183 120.0765796 115.8362258  11.3195905 118.5523749
 116.5233298  11.0057635 117.9644765 115.6810386  12.2237269 118.2791001
 127.7134264  19.6473265 122.1941941 127.6404435  20.4528237 122.7061246
 127.2711657  19.8465231 121.3689962 127.5024044  18.8845035 115.7044763
 126.7191566  19.4266715 115.7982987 128.2016789  19.4019015 116.1039004
 130.1732948  19.5460099 124.3500100 130.8860920  20.1807564 124.2776001
 129.6822976  19.6423965 123.5340102 125.2244861  17.2954543 125.1705671
 125.9254321  17.9291026 125.3235065 124.7539976  17.6369274 124.4101310
 133.3499257  15.6372493 113.4553578 133.6259101  15.5229087 114.3647452
 132.4803756  15.2389977 113.4165751 129.9853321  19.8858843 117.0986391
 130.1675715  19.0680499 117.5614143 130.8086307  20.1026536 116.6611281
 130.3195486  18.8127028 114.3601440 130.8483253  18.3019483 113.7471602
 130.5823706  18.4969559 115.2246973 120.8212579  16.8290898 122.1036773
 121.4066016  16.0834586 122.2364677 120.6237418  17.1394854 122.9873437
 123.6751234  19.8642145 117.1199216 123.0061610  20.3488273 116.6363256
 123.5364104  20.1111366 118.0342594 115.4130234   9.3996498 120.8241216
 115.4514333   8.8660089 121.6178334 114.9070527   8.8731704 120.2052194
 127.8156503  21.8985889 123.7181874 128.3674811  22.0617510 124.4830959
 128.1562696  22.4890327 123.0461899 132.6667377  16.7247146 129.5730528
 133.2107281  17.3377104 129.0785483 132.0854222  17.2826725 130.0897541
 130.9524890  19.8467864 120.7045556 130.8276030  19.0457604 120.1956502
 131.6103981  20.3414058 120.2159526 133.0159799  17.6476884 122.3325106
 132.0690134  17.5282235 122.2603433 133.3642572  16.7599382 122.4151368
 130.0206232  17.4429601 118.5329458 129.8731194  16.5146308 118.7137028
 130.8459725  17.4649691 118.0486534 133.6240354  18.2658159 119.6194331
 134.5486901  18.0601021 119.4818782 133.4555657  18.0174560 120.5283673
 133.4135670  18.7843827 114.9756423 133.5872547  18.2190249 114.2230275
 133.9064561  19.5844722 114.7935913 119.2312630  10.7958496 123.0419981
 118.6866098  11.5718304 123.1740256 120.1091980  11.1429300 122.8839103
 134.4010842  18.1010591 112.0753321 135.0961747  18.7217284 112.2940636
 134.7433993  17.2505942 112.3505699 120.0178652   9.9228392 125.9350138
 119.2760388  10.0711027 126.5214769 119.6971396  10.1836658 125.0716888
 127.9622314  19.4644370 125.7330528 128.2709441  19.2193517 126.6053228
 128.7597796  19.6691009 125.2449399 127.9842926  21.6182280 117.9635905
 127.5447917  21.1258659 118.6568762 128.7351043  21.0755248 117.7227980
 120.4635265  17.8093821 117.9660533 121.2893285  17.5097593 117.5859176
 120.1129317  17.0401443 118.4150322 125.4316798  17.1620289 120.0358207
 124.8096808  16.4990994 119.7360434 126.1021665  17.1881421 119.3531854
 118.6643870  15.7280147 118.9249467 117.8275779  15.3002322 118.7433468
 118.6367516  15.9212591 119.8620258 124.9930305  15.7124212 113.5116667
 125.1418426  16.3959677 112.8583340 125.7996749  15.6929302 114.0266123
 122.7482938  11.7389390 114.5177736 122.5028980  10.8351720 114.7157946
 122.9178853  11.7406540 113.5757214 128.4925711  18.2072343 110.9828414
 127.9199678  18.8262530 110.5298886 129.0658505  18.7571704 111.5168336
 131.7122971  18.4909493 112.1136997 132.6453644  18.4255055 112.3169872
 131.6246183  19.3265760 111.6551529 134.3410987  17.8075363 109.0740944
 134.2624619  17.4735227 109.9676702 135.1620654  18.2997131 109.0732417
 121.7573274  11.5051936 122.4267905 121.9759284  12.4369044 122.4455939
 122.1699048  11.1459911 123.2122709 117.8481627  12.4092407 120.6791520
 117.1545098  11.9946360 120.1661475 118.5954618  12.4512943 120.0824939
 119.7618369  12.3410661 118.5557535 119.7389058  12.4398348 117.6039418
 120.0719006  13.1875811 118.8774701 122.4205747  14.3986816 122.6704149
 123.3749001  14.3670758 122.6034081 122.2218271  13.9377439 123.4854375
 123.0105129  12.9687932 125.2374947 123.8298018  13.4632010 125.2609784
 123.2841937  12.0519900 125.2092515 120.7755976  19.9406435 119.6874347
 120.6410444  19.1806836 119.1212345 120.3588038  20.6647335 119.2203136
 131.9114939  15.1243359 108.6950923 132.6150789  15.3293361 109.3108578
 131.1877588  15.6920121 108.9600006 123.9325102  20.8375752 119.8992790
 123.8157486  21.7821185 119.7971480 123.1117548  20.5349314 120.2878589
 133.8201637  15.5625888 110.7449383 134.6547240  15.1307086 110.5626857
 133.6585979  15.3907902 111.6726277 124.9579616  21.4904014 123.1148718
 125.8606863  21.5227624 123.4315213 124.7316986  20.5604465 123.1295054
 126.7133218  20.2435001 119.7758797 125.7628849  20.2436862 119.6623169
 127.0165704  19.4967735 119.2594832 142.4485912  26.0795539 120.8404559
 143.0864322  25.9602286 120.1367900 142.3306754  27.0276383 120.8992512
 139.2575618  26.0322967 120.7766084 138.9194129  25.9164032 119.8886619
 140.1265386  25.6314132 120.7567090 135.1162434  27.8858443 116.7662975
 134.5527299  27.7948380 115.9979263 135.0014829  27.0658348 117.2465468
 139.7395401  27.1857819 126.7352290 139.7284042  26.7910617 125.8632793
 139.9016040  26.4523891 127.3286061 132.6626866  29.3809635 119.6047196
 133.4548157  29.0400460 119.1893495 132.9023516  29.4904610 120.5249349
 140.6961992  31.5529411 112.0777440 140.0449972  32.1383492 111.6911454
 141.4906355  32.0835606 112.1372477 134.6217619  28.6418548 112.4764574
 135.3948495  28.0947535 112.3377450 134.9743018  29.5062798 112.6879036
 136.4602662  29.9694931 125.6831474 136.1692528  30.8740561 125.5678140
 137.0959646  30.0111458 126.3975543 137.3858869  27.3471779 122.2732833
 137.9822441  27.1227802 121.5589796 137.4433840  26.6056525 122.8758281
 136.9583897  24.8011214 110.1083024 137.2109418  24.2792736 109.3466487
 136.0208456  24.6377360 110.2109708 142.0027180  23.8046993 117.9157767
 142.7890269  23.3866416 117.5648185 142.2665884  24.7093085 118.0839416
 142.1737257  29.2419843 112.6146424 141.5383090  29.3154470 113.3267329
 141.8434664  29.8313442 111.9365504 147.4035607  23.7422226 118.8190746
 148.1360779  23.1721443 119.0528575 146.6474963  23.3543826 119.2597252
 136.6780186  26.7039320 112.3107399 136.5616444  26.0284224 112.9788484
 136.7882446  26.2171694 111.4939552 139.0211727  26.1649468 116.0154088
 138.6569934  25.6380088 116.7267010 139.8778843  25.7747937 115.8420574
 138.6617214  21.1939367 111.0115437 138.8291616  22.0619604 111.3785908
 138.4714383  21.3566649 110.0876726 141.4192547  29.6556346 122.6781267
 141.1193270  30.5581385 122.5697075 141.0743607  29.3888529 123.5302420
 134.8705029  26.1070143 118.7117972 133.9455525  25.9746357 118.9195664
 135.1189442  26.8864362 119.2087914 144.8189691  22.1738886 120.3578705
 143.9106568  22.1054295 120.0637466 144.7677287  22.6510831 121.1860530
 138.6406435  23.6497025 111.9962104 138.5206060  24.0954075 112.8347584
 137.9459023  23.9982342 111.4375642 132.2313840  25.7503417 119.5461761
 132.3606221  26.0037895 120.4601173 131.5511291  26.3431125 119.2266416
 136.4013327  36.4200666 115.6452235 136.3237357  37.3708492 115.7240716
 135.7974970  36.0746539 116.3027161 144.3391501  24.1218498 112.8242438
 145.2509357  24.3545885 112.6490135 143.8301148  24.7055542 112.2617516
 137.1476929  26.4013985 127.8631569 137.8891613  26.9399029 127.5866393
 136.4413914  27.0280274 128.0203121 142.6232269  28.5443126 126.4603730
 143.0315625  28.1025536 125.7158363 141.9009530  27.9695753 126.7137923
 138.9763339  23.4815732 123.8337287 139.8224534  23.9055146 123.9771936
 138.9161976  22.8249357 124.5275850 142.9461083  29.1044316 120.2156019
 142.3169946  29.2690030 119.5132087 142.5586745  29.5185926 120.9866983
 146.8250315  30.0398754 117.5700383 146.1401353  30.4197656 117.0197416
 146.9094164  30.6494081 118.3032331 144.0801247  27.6858713 124.1695727
 144.2918142  28.3290473 123.4930108 144.0330995  26.8521030 123.7017657
 141.6827476  20.2976534 121.0732299 140.8211955  20.5957787 121.3649036
 141.7089910  20.5146933 120.1413331 138.4989045  28.8418724 117.4806104
 138.9627391  29.1206427 116.6910727 138.2345843  27.9402169 117.2979195
 135.3913126  28.3890206 120.4185868 135.9614483  28.8177474 119.7803352
 135.9821238  28.1072791 121.1170053 137.4357931  24.9641877 114.2895670
 138.1381975  25.4162920 114.7569596 137.1038560  24.3225696 114.9175563
 135.8838293  23.5553633 128.6646879 135.2536953  24.2369914 128.8982276
 135.7774381  23.4436715 127.7200017 131.1783265  23.2225429 119.5912803
 130.3882319  23.4782958 119.1152914 131.6694513  24.0373767 119.6964844
 145.1947075  30.5630669 122.3418084 146.0164518  30.1610856 122.0600766
 145.1909478  30.4598903 123.2934200 133.1298011  23.5870009 116.5496280
 132.3329174  23.6988703 117.0679775 132.9023603  23.9256661 115.6837170
 138.9603678  30.1114712 124.4978794 139.0248111  30.5735119 125.3336966
 138.2514602  29.4812077 124.6261104 129.4620968  23.4755920 122.0227794
 129.7129007  24.3602930 122.2885370 129.9980517  23.2960521 121.2502886
 138.6751696  31.7782819 114.3657775 138.5397371  32.6234355 114.7942623
 139.2161508  31.9802097 113.6023709 132.1281093  29.2958257 114.9385700
 132.6405614  30.0901508 115.0891265 132.7803806  28.5984548 114.8719301
 133.9375978  32.4124014 117.0208453 134.1142606  33.3341978 116.8329437
 134.7332811  32.0982433 117.4502833 133.2228334  24.4588646 126.8970616
 133.1081850  23.5573903 127.1977715 132.3672852  24.7052342 126.5455433
 140.3020172  32.4006386 128.4958117 139.8584026  31.6142764 128.1779021
 140.9637386  32.5885536 127.8302008 135.0607293  33.9302188 123.0218795
 135.6114718  33.8019251 122.2495789 134.2218769  34.2297077 122.6713688
 142.4001410  32.6809186 126.5239518 142.3819886  33.5018067 126.0319787
 143.3221330  32.5563261 126.7489659 138.8574464  30.1953315 127.3663026
 139.3902801  29.4341604 127.1362334 138.3288546  29.9026967 128.1087181
 130.0930010  27.6246912 115.7145270 130.9305232  28.0343920 115.4978978
 130.2708278  26.6846354 115.6845464 141.9894442  25.2921992 111.4029103
 141.4741066  26.0626597 111.6417491 141.7171751  24.6187129 112.0262165
 139.5741553  20.1371693 116.4614342 138.7183149  19.7478544 116.2819980
 139.9868505  20.2163654 115.6014127 141.1040700  17.6718036 120.8605901
 140.6005495  17.6348172 120.0473707 141.3971307  18.5810779 120.9202558
 137.3483586  17.7556766 119.8672083 138.2136582  17.5599575 119.5077973
 137.4161095  17.5267118 120.7941440 146.9628716  28.0454347 113.3382277
 146.1858159  27.7065507 112.8937439 147.6420197  28.0506970 112.6637242
 141.7780745  23.1649085 113.2288885 141.4730881  23.4795234 114.0799028
 142.7311187  23.2430504 113.2716218 140.2227177  29.3239308 114.8781838
 139.6948539  28.5892067 114.5655076 139.7214680  30.1013984 114.6321807
 145.2020023  27.5188328 119.9948885 144.5443698  28.2087590 120.0829013
 146.0060422  27.9084760 120.3382871 134.9545905  19.9858974 117.2388450
 135.5289657  19.7634156 116.5061643 135.5416887  20.0547669 117.9917051
 144.0125482  25.8732701 118.0452827 144.5257364  26.5062693 118.5474536
 144.6626706  25.2733897 117.6796187 135.2815492  22.0163435 111.2584335
 134.4452804  22.3538122 111.5793610 135.1420261  21.8812415 110.3211472
 137.2568572  16.8600223 115.9663519 136.6032985  16.5449240 115.3420134
 137.2149047  16.2375963 116.6923342 138.3679777  27.1419518 107.8816812
 137.4606839  26.9108772 108.0807960 138.8650809  26.3457137 108.0690793
 141.2747856  35.8517025 110.8013498 140.6009555  36.1548722 111.4098456
 141.6613678  36.6546106 110.4518955 140.4906313  23.3482157 120.2911167
 139.5728874  23.5697104 120.1332855 140.9066456  23.4228467 119.4322874
 141.2741361  24.7473572 115.4213847 142.0213180  25.2594969 115.1120969
 141.5432950  24.4257625 116.2818241 139.5468011  27.2432113 112.4040802
 138.6379230  26.9591146 112.5013271 139.5763095  27.6631192 111.5444108
 144.7787278  30.8538702 116.1731969 144.3249605  30.0129612 116.2297160
 144.1481245  31.4900101 116.5106749 143.7220198  21.7830688 117.4032637
 142.9842955  21.2708075 117.7342879 143.9746971  21.3431070 116.5915913
 143.2220217  32.6915199 117.1081787 143.5143192  33.2520256 116.3894153
 143.7318838  32.9843760 117.8634946 130.1156181  24.9637627 116.3856004
 129.9180581  24.3706988 115.6607070 129.5602845  24.6589837 117.1031943
 138.0952905  24.8560734 118.5050597 138.1501515  23.9034570 118.4293074
 137.2844107  25.0120173 118.9891895 139.2444099  28.7840857 109.7428880
 138.8063528  28.0676716 109.2834518 139.9854539  29.0116971 109.1813972
 136.0345265  23.4737793 116.2640976 135.2213130  23.7731964 116.6706168
 136.5304259  23.0793482 116.9815458 138.1853843  33.4695550 118.1975241
 138.1430021  33.6956397 117.2683773 139.1016541  33.2358925 118.3461042
 141.6319476  23.9379618 125.0955870 141.9868864  24.1651091 125.9550335
 142.2791608  24.2697995 124.4733125 147.3617213  27.0598054 115.8005199
 147.2235112  27.2499650 114.8726388 147.0053432  27.8217436 116.2573250
 135.5259339  21.0456149 121.8802211 136.1658719  20.9044908 121.1825174
 134.6936870  20.7590662 121.5040813 147.3886593  29.1274581 120.8116470
 147.8223100  29.0349870 121.6599524 148.1018174  29.1032081 120.1736486
 136.3019643  30.3458579 117.9937203 137.0960242  29.8508899 117.7919778
 135.5911336  29.8176442 117.6304909 141.1214488  32.7276675 122.3449571
 141.1751510  33.2967611 123.1127287 140.2529269  32.8978560 121.9803608
 132.6102407  24.4901661 114.0696956 131.6799995  24.4286116 114.2866918
 132.7059879  23.9677614 113.2733597 132.5287956  21.0156474 116.6575198
 132.7894773  21.9301807 116.5484358 133.3505128  20.5480916 116.8071810
 134.0012881  22.4294231 123.8274022 134.6735935  22.2211593 123.1786671
 133.1742668  22.2316317 123.3879254 140.0802588  26.8936937 123.9036503
 141.0094648  27.0448096 123.7305470 139.6593618  26.9820958 123.0485149
 138.8790919  30.9187601 121.6735040 138.7402005  30.5506386 122.5460978
 138.0905516  31.4335241 121.5018998 139.4739071  36.0196698 113.0160577
 139.6490827  35.5484741 113.8306200 138.7871859  36.6462464 113.2441838
 140.4296135  30.2969204 119.0623878 140.0945967  30.2569974 119.9581528
 139.9300080  29.6313920 118.5894288 134.4040378  25.7036834 124.5876459
 134.2660176  24.9717073 125.1887998 135.3145302  25.6145734 124.3060647
 143.3655326  27.6425238 109.3360938 142.7484497  26.9172066 109.2393990
 142.8971815  28.4034599 108.9928012 137.0322679  25.4156793 124.0760139
 137.7422298  24.7749985 124.0346757 136.9891987  25.6669688 124.9986320
 145.0209458  32.3524147 126.9966718 144.9622004  31.6683367 126.3297301
 145.4228976  33.0943137 126.5447344 135.7451613  22.4022011 125.8955778
 135.2088970  21.9512750 126.5477375 135.1568322  22.5367920 125.1526243
 134.0400157  39.1686060 119.7900437 134.2796755  39.8004585 120.4679456
 133.1969353  38.8174100 120.0765796 135.1553872  21.8610663 108.4582242
 134.2783338  21.7399463 108.0944489 135.6311625  21.0696741 108.2061131
 145.0226865  30.3163731 125.2280698 144.1353644  29.9789652 125.3507097
 145.5925416  29.5846762 125.4649463 126.6756012  26.6487822 118.5523749
 127.3627052  26.3349552 117.9644765 126.5204141  27.5529187 118.2791001
 131.4790734  21.5378019 122.9808773 131.3948923  20.9303688 122.2459183
 130.6573441  22.0287037 122.9818269 138.5528018  34.9765183 122.1941941
 138.4798190  35.7820154 122.7061246 138.1105412  35.1757149 121.3689962
 138.3417798  34.2136953 115.7044763 137.5585320  34.7558633 115.7982987
 139.0410543  34.7310933 116.1039004 141.6514448  20.0231582 118.3478968
 142.1483148  19.2701545 118.0280038 140.8801430  20.0595899 117.7822177
 149.5044206  25.7271948 119.9897259 149.4934082  26.6096663 119.6191193
 148.6361585  25.3743499 119.7951797 141.0126702  34.8752017 124.3500100
 141.7254674  35.5099482 124.2776001 140.5216731  34.9715883 123.5340102
 142.7344229  28.7803270 115.9217391 141.8000508  28.9004732 115.7522096
 142.9120897  27.8775736 115.6577401 138.2349417  22.1648965 118.0750653
 137.8647204  21.6120006 118.7631558 138.7308509  21.5607099 117.5225653
 146.1216780  24.6220589 116.4567425 146.5877232  25.4548580 116.3827728
 146.5724281  24.1565570 117.1612684 136.0638616  32.6246460 125.1705671
 136.7648075  33.2582943 125.3235065 135.5933731  32.9661192 124.4101310
 144.1893011  30.9664410 113.4553578 144.4652855  30.8521005 114.3647452
 143.3197510  30.5681895 113.4165751 143.8639902  25.1791068 122.9958221
 143.2111352  25.4266975 122.3410674 144.2420281  24.3655206 122.6620698
 140.8247075  35.2150761 117.0986391 141.0069470  34.3972417 117.5614143
 141.6480061  35.4318453 116.6611281 141.1589241  34.1418946 114.3601440
 141.6877007  33.6311401 113.7471602 141.4217460  33.8261476 115.2246973
 131.6606334  32.1582815 122.1036773 132.2459770  31.4126503 122.2364677
 131.4631172  32.4686772 122.9873437 134.5144989  35.1934063 117.1199216
 133.8455364  35.6780190 116.6363256 134.3757859  35.4403283 118.0342594
 126.2523988  24.7288416 120.8241216 126.2908088  24.1952006 121.6178334
 125.7464281  24.2023621 120.2052194 138.6550257  37.2277806 123.7181874
 139.2068565  37.3909428 124.4830959 138.9956451  37.8182244 123.0461899
 133.6314751  19.5752956 124.3203759 133.6956077  20.4367787 123.9081156
 133.5681871  18.9626958 123.5876117 133.1067023  21.6476089 127.9676793
 133.7339062  21.2653166 128.5814317 132.2494942  21.4290291 128.3332485
 143.5061132  32.0539064 129.5730528 144.0501036  32.6669022 129.0785483
 142.9247977  32.6118642 130.0897541 129.8832566  23.4552518 113.8995148
 130.1786007  22.5463196 113.8462201 128.9820602  23.4340257 113.5776150
 141.7918645  35.1759782 120.7045556 141.6669784  34.3749522 120.1956502
 142.4497736  35.6705975 120.2159526 133.4126813  21.5308514 119.8822696
 132.6913399  22.1444482 119.7430170 134.2020069  22.0666279 119.8039342
 143.8553553  32.9768802 122.3325106 142.9083889  32.8574153 122.2603433
 144.2036326  32.0891300 122.4151368 136.2153126  18.8662941 126.1563348
 136.7387528  19.1125237 126.9189657 135.9965460  19.6982976 125.7366485
 131.6120408  21.1366615 114.0234473 131.2833114  20.2563994 113.8409579
 131.9659778  21.0814284 114.9110862 140.8599986  32.7721518 118.5329458
 140.7124949  31.8438226 118.7137028 141.6853480  32.7941609 118.0486534
 134.7262231  21.4239585 114.3909951 135.0658303  21.9525507 113.6688559
 135.1734351  21.7619991 115.1668517 144.4634108  33.5950077 119.6194331
 145.3880656  33.3892938 119.4818782 144.2949412  33.3466478 120.5283673
 137.4205671  19.8076636 123.8413019 137.0802492  19.0084449 124.2433698
 136.7144678  20.1078347 123.2689852 136.7130378  19.9214207 112.5903243
 137.4338740  20.2995460 112.0866960 136.0895682  20.6403084 112.6938221
 140.8561501  20.6259356 113.5261576 141.0725115  21.5083994 113.2250404
 140.3755568  20.2345569 112.7967218 135.5960722  23.5845069 120.1032320
 135.4505303  23.8985372 120.9956602 135.1185926  24.2029969 119.5503219
 137.4557105  20.5747617 120.1513210 137.4418674  19.6788710 119.8145508
 138.1729533  20.5818281 120.7851496 139.3083236  21.0084957 122.1966337
 139.0501013  21.9302028 122.1950668 138.7768276  20.6115392 122.8866801
 144.2529424  34.1135744 114.9756423 144.4266302  33.5482167 114.2230275
 144.7458316  34.9136639 114.7935913 130.0706384  26.1250413 123.0419981
 129.5259852  26.9010221 123.1740256 130.9485734  26.4721218 122.8839103
 136.8594001  19.4561997 115.4200780 136.9809912  18.5278644 115.6191667
 136.5696043  19.4700683 114.5079095 150.1068816  26.8772167 116.5946722
 150.5499962  26.1279493 116.1965846 149.2295326  26.8682304 116.2120454
 145.2404597  33.4302509 112.0753321 145.9355502  34.0509201 112.2940636
 145.5827747  32.5797860 112.3505699 130.8572406  25.2520310 125.9350138
 130.1154142  25.4002945 126.5214769 130.5365150  25.5128575 125.0716888
 147.1396020  30.8802214 113.6040652 147.6647344  31.2189487 112.8789972
 147.0518373  29.9449230 113.4203786 138.8016069  34.7936288 125.7330528
 139.1103195  34.5485435 126.6053228 139.5991551  34.9982926 125.2449399
 138.8236681  36.9474198 117.9635905 138.3841671  36.4550576 118.6568762
 139.5744798  36.4047165 117.7227980 131.3029020  33.1385738 117.9660533
 132.1287040  32.8389510 117.5859176 130.9523072  32.3693361 118.4150322
 136.2710553  32.4912207 120.0358207 135.6490562  31.8282912 119.7360434
 136.9415420  32.5173339 119.3531854 129.5037625  31.0572065 118.9249467
 128.6669533  30.6294239 118.7433468 129.4761270  31.2504508 119.8620258
 135.8324060  31.0416130 113.5116667 135.9812180  31.7251594 112.8583340
 136.6390503  31.0221220 114.0266123 138.5734369  21.7225367 126.3837071
 137.7037678  22.0158933 126.1119660 138.8093849  22.3065812 127.1044335
 149.6501680  28.3477406 118.9869170 150.4848572  28.7867210 119.1506730
 149.7860809  27.8716059 118.1677416 133.5876693  27.0681308 114.5177736
 133.3422735  26.1643638 114.7157946 133.7572607  27.0698458 113.5757214
 132.8572340  22.8009665 112.0163897 132.1641585  22.8754020 111.3603933
 132.6124092  22.0370009 112.5385414 139.3319465  33.5364260 110.9828414
 138.7593432  34.1554448 110.5298886 139.9052259  34.0863622 111.5168336
 142.5516725  33.8201411 112.1136997 143.4847398  33.7546972 112.3169872
 142.4639938  34.6557677 111.6551529 145.1804742  33.1367281 109.0740944
 145.1018373  32.8027145 109.9676702 146.0014409  33.6289049 109.0732417
 139.7166264  24.8725073 108.3244467 140.6625369  24.7431281 108.3932885
 139.3380509  24.1339735 108.8013895 139.6004956  28.9242819 129.7845124
 140.5207966  29.1021418 129.9785170 139.5654539  27.9798865 129.6324823
 137.9009181  22.7975050 108.2599352 136.9940636  22.5008162 108.3362066
 138.1785162  22.5004868 107.3933638 128.8187121  24.1181413 118.7098399
 128.4989906  23.2646721 118.4172773 128.2720550  24.3329991 119.4656366
 132.5967029  26.8343854 122.4267905 132.8153039  27.7660962 122.4455939
 133.0092803  26.4751828 123.2122709 139.5171247  17.3411939 114.4143594
 138.7071975  16.9959024 114.7898840 140.2055664  17.0319483 115.0031205
 136.6707966  19.6561985 108.4011331 137.5327130  19.9816883 108.6607149
 136.8558310  18.8693481 107.8884397 128.6875381  27.7384324 120.6791520
 127.9938853  27.3238277 120.1661475 129.4348372  27.7804861 120.0824939
 137.3326164  25.8374199 130.6335716 136.8493246  26.6374559 130.8399605
 137.4187103  25.8482143 129.6803160 130.6012124  27.6702578 118.5557535
 130.5782812  27.7690266 117.6039418 130.9112760  28.5167729 118.8774701
 133.2599502  29.7278733 122.6704149 134.2142755  29.6962676 122.6034081
 133.0612025  29.2669357 123.4854375 133.8498884  28.2979849 125.2374947
 134.6691773  28.7923928 125.2609784 134.1235692  27.3811817 125.2092515
 143.6065480  20.6890602 114.6002903 142.7191335  20.9740252 114.3823097
 144.0219469  20.5284365 113.7530180 146.9580016  20.7137123 118.3157242
 147.7340406  21.2033575 118.5881859 146.2328150  21.1395177 118.7729111
 131.6149731  35.2698353 119.6874347 131.4804199  34.5098754 119.1212345
 131.1981793  35.9939253 119.2203136 142.7508694  30.4535276 108.6950923
 143.4544544  30.6585279 109.3108578 142.0271342  31.0212038 108.9600006
 143.5806504  26.2045138 114.8153193 143.5241705  26.6613689 113.9760825
 144.1334846  25.4435822 114.6376036 147.3911310  21.9934869 115.6403312
 147.1348244  21.5931505 116.4711520 146.7664178  22.7078663 115.5153451
 151.7023648  24.7330943 118.1474604 151.1423206  24.8024132 118.9206166
 151.0967151  24.5571927 117.4274100 134.7718856  36.1667670 119.8992790
 134.6551241  37.1113102 119.7971480 133.9511303  35.8641231 120.2878589
 144.6595391  30.8917806 110.7449383 145.4940995  30.4599004 110.5626857
 144.4979734  30.7199819 111.6726277 144.3141283  27.3949919 112.1105722
 144.2590087  27.2294190 111.1694166 143.6887338  28.1025952 112.2667912
 129.1033798  22.6317983 125.9367144 129.7492662  22.1216937 126.4254369
 128.8950949  23.3686665 126.5110569 137.6237409  16.8958028 111.6891040
 137.6116078  17.8399868 111.8459311 138.5160831  16.7128173 111.3950502
 135.7973371  36.8195932 123.1148718 136.7000617  36.8519542 123.4315213
 135.5710741  35.8896383 123.1295054 137.5526973  35.5726918 119.7758797
 136.6022604  35.5728780 119.6623169 137.8559459  34.8259653 119.2594832
 153.2879666  41.4087457 120.8404559 153.9258076  41.2894204 120.1367900
 153.1700509  42.3568301 120.8992512 150.0969372  41.3614885 120.7766084
 149.7587884  41.2455949 119.8886619 150.9659141  40.9606050 120.7567090
 145.9556188  43.2150361 116.7662975 145.3921053  43.1240298 115.9979263
 145.8408583  42.3950266 117.2465468 150.5789155  42.5149736 126.7352290
 150.5677796  42.1202535 125.8632793 150.7409795  41.7815809 127.3286061
 143.5020620  44.7101553 119.6047196 144.2941912  44.3692377 119.1893495
 143.7417270  44.8196528 120.5249349 151.5355747  46.8821329 112.0777440
 150.8843727  47.4675409 111.6911454 152.3300110  47.4127524 112.1372477
 145.4611374  43.9710466 112.4764574 146.2342250  43.4239453 112.3377450
 145.8136773  44.8354715 112.6879036 147.2996417  45.2986848 125.6831474
 147.0086282  46.2032479 125.5678140 147.9353401  45.3403376 126.3975543
 148.2252623  42.6763697 122.2732833 148.8216196  42.4519719 121.5589796
 148.2827595  41.9348442 122.8758281 147.7977652  40.1303132 110.1083024
 148.0503172  39.6084653 109.3466487 146.8602211  39.9669278 110.2109708
 152.8420935  39.1338910 117.9157767 153.6284024  38.7158334 117.5648185
 153.1059639  40.0385003 118.0839416 153.0131012  44.5711761 112.6146424
 152.3776845  44.6446387 113.3267329 152.6828418  45.1605360 111.9365504
 158.2429362  39.0714144 118.8190746 158.9754534  38.5013361 119.0528575
 157.4868717  38.6835744 119.2597252 147.5173941  42.0331238 112.3107399
 147.4010199  41.3576141 112.9788484 147.6276200  41.5463612 111.4939552
 149.8605481  41.4941385 116.0154088 149.4963689  40.9672006 116.7267010
 150.7172597  41.1039854 115.8420574 149.5010968  36.5231285 111.0115437
 149.6685371  37.3911521 111.3785908 149.3108137  36.6858567 110.0876726
 152.2586302  44.9848264 122.6781267 151.9587025  45.8873303 122.5697075
 151.9137361  44.7180447 123.5302420 145.7098783  41.4362061 118.7117972
 144.7849280  41.3038275 118.9195664 145.9583196  42.2156280 119.2087914
 155.6583445  37.5030804 120.3578705 154.7500323  37.4346212 120.0637466
 155.6071041  37.9802749 121.1860530 149.4800189  38.9788942 111.9962104
 149.3599814  39.4245993 112.8347584 148.7852778  39.3274260 111.4375642
 143.0707594  41.0795334 119.5461761 143.1999975  41.3329813 120.4601173
 142.3905045  41.6723042 119.2266416 147.2407081  51.7492584 115.6452235
 147.1631111  52.7000409 115.7240716 146.6368725  51.4038457 116.3027161
 155.1785255  39.4510416 112.8242438 156.0903112  39.6837802 112.6490135
 154.6694903  40.0347460 112.2617516 147.9870683  41.7305903 127.8631569
 148.7285368  42.2690947 127.5866393 147.2807669  42.3572192 128.0203121
 153.4626023  43.8735043 126.4603730 153.8709379  43.4317454 125.7158363
 152.7403285  43.2987671 126.7137923 149.8157093  38.8107650 123.8337287
 150.6618288  39.2347064 123.9771936 149.7555731  38.1541274 124.5275850
 153.7854838  44.4336234 120.2156019 153.1563700  44.5981948 119.5132087
 153.3980500  44.8477844 120.9866983 157.6644070  45.3690672 117.5700383
 156.9795108  45.7489573 117.0197416 157.7487919  45.9785999 118.3032331
 154.9195001  43.0150631 124.1695727 155.1311896  43.6582391 123.4930108
 154.8724750  42.1812947 123.7017657 152.5221230  35.6268452 121.0732299
 151.6605709  35.9249705 121.3649036 152.5483665  35.8438850 120.1413331
 149.3382800  44.1710642 117.4806104 149.8021145  44.4498345 116.6910727
 149.0739598  43.2694087 117.2979195 146.2306881  43.7182124 120.4185868
 146.8008238  44.1469392 119.7803352 146.8214993  43.4364708 121.1170053
 148.2751686  40.2933794 114.2895670 148.9775729  40.7454838 114.7569596
 147.9432314  39.6517613 114.9175563 146.7232047  38.8845551 128.6646879
 146.0930708  39.5661832 128.8982276 146.6168135  38.7728633 127.7200017
 142.0177020  38.5517347 119.5912803 141.2276074  38.8074876 119.1152914
 142.5088267  39.3665685 119.6964844 156.0340829  45.8922586 122.3418084
 156.8558273  45.4902774 122.0600766 156.0303232  45.7890820 123.2934200
 143.9691765  38.9161926 116.5496280 143.1722928  39.0280621 117.0679775
 143.7417357  39.2548579 115.6837170 149.7997433  45.4406630 124.4978794
 149.8641865  45.9027037 125.3336966 149.0908357  44.8103995 124.6261104
 140.3014723  38.8047838 122.0227794 140.5522761  39.6894848 122.2885370
 140.8374271  38.6252439 121.2502886 149.5145450  47.1074737 114.3657775
 149.3791125  47.9526273 114.7942623 150.0555263  47.3094015 113.6023709
 142.9674848  44.6250175 114.9385700 143.4799368  45.4193425 115.0891265
 143.6197561  43.9276466 114.8719301 144.7769732  47.7415931 117.0208453
 144.9536361  48.6633896 116.8329437 145.5726566  47.4274351 117.4502833
 144.0622089  39.7880563 126.8970616 143.9475604  38.8865821 127.1977715
 143.2066607  40.0344260 126.5455433 151.1413927  47.7298304 128.4958117
 150.6977781  46.9434682 128.1779021 151.8031140  47.9177454 127.8302008
 145.9001048  49.2594105 123.0218795 146.4508473  49.1311169 122.2495789
 145.0612524  49.5588994 122.6713688 153.2395165  48.0101104 126.5239518
 153.2213640  48.8309985 126.0319787 154.1615085  47.8855179 126.7489659
 149.6968219  45.5245233 127.3663026 150.2296556  44.7633521 127.1362334
 149.1682300  45.2318885 128.1087181 140.9323764  42.9538829 115.7145270
 141.7698986  43.3635838 115.4978978 141.1102032  42.0138272 115.6845464
 152.8288197  40.6213910 111.4029103 152.3134820  41.3918515 111.6417491
 152.5565505  39.9479046 112.0262165 150.4135308  35.4663611 116.4614342
 149.5576904  35.0770461 116.2819980 150.8262259  35.5455572 115.6014127
 151.9434454  33.0009954 120.8605901 151.4399250  32.9640089 120.0473707
 152.2365061  33.9102697 120.9202558 148.1877340  33.0848684 119.8672083
 149.0530337  32.8891493 119.5077973 148.2554849  32.8559036 120.7941440
 157.8022471  43.3746265 113.3382277 157.0251913  43.0357424 112.8937439
 158.4813952  43.3798888 112.6637242 152.6174500  38.4941002 113.2288885
 152.3124635  38.8087151 114.0799028 153.5704942  38.5722422 113.2716218
 151.0620932  44.6531226 114.8781838 150.5342293  43.9183985 114.5655076
 150.5608434  45.4305902 114.6321807 156.0413778  42.8480246 119.9948885
 155.3837452  43.5379507 120.0829013 156.8454177  43.2376678 120.3382871
 145.7939659  35.3150892 117.2388450 146.3683411  35.0926073 116.5061643
 146.3810642  35.3839586 117.9917051 154.8519236  41.2024619 118.0452827
 155.3651118  41.8354611 118.5474536 155.5020460  40.6025814 117.6796187
 146.1209246  37.3455353 111.2584335 145.2846559  37.6830039 111.5793610
 145.9814016  37.2104333 110.3211472 148.0962327  32.1892141 115.9663519
 147.4426739  31.8741158 115.3420134 148.0542801  31.5667881 116.6923342
 149.2073532  42.4711436 107.8816812 148.3000594  42.2400689 108.0807960
 149.7044564  41.6749055 108.0690793 152.1141611  51.1808943 110.8013498
 151.4403309  51.4840640 111.4098456 152.5007433  51.9838023 110.4518955
 151.3300067  38.6774074 120.2911167 150.4122629  38.8989021 120.1332855
 151.7460211  38.7520385 119.4322874 152.1135115  40.0765490 115.4213847
 152.8606934  40.5886887 115.1120969 152.3826705  39.7549543 116.2818241
 150.3861765  42.5724031 112.4040802 149.4772984  42.2883063 112.5013271
 150.4156849  42.9923109 111.5444108 155.6181033  46.1830620 116.1731969
 155.1643360  45.3421530 116.2297160 154.9874999  46.8192019 116.5106749
 154.5613952  37.1122606 117.4032637 153.8236709  36.5999992 117.7342879
 154.8140726  36.6722988 116.5915913 154.0613972  48.0207117 117.1081787
 154.3536946  48.5812174 116.3894153 154.5712592  48.3135678 117.8634946
 154.6625580  29.8898858 117.9974406 154.9684456  29.0296222 117.7100321
 155.3878184  30.4816478 117.7973400 140.9549936  40.2929545 116.3856004
 140.7574335  39.6998905 115.6607070 140.3996600  39.9881755 117.1031943
 148.9346659  40.1852651 118.5050597 148.9895269  39.2326488 118.4293074
 148.1237861  40.3412090 118.9891895 150.0837853  44.1132774 109.7428880
 149.6457283  43.3968633 109.2834518 150.8248294  44.3408889 109.1813972
 146.8739019  38.8029711 116.2640976 146.0606885  39.1023882 116.6706168
 147.3698013  38.4085400 116.9815458 149.0247597  48.7987468 118.1975241
 148.9823776  49.0248314 117.2683773 149.9410296  48.5650843 118.3461042
 152.4713231  39.2671535 125.0955870 152.8262619  39.4943009 125.9550335
 153.1185362  39.5989912 124.4733125 158.2010968  42.3889971 115.8005199
 158.0628866  42.5791567 114.8726388 157.8447187  43.1509354 116.2573250
 146.3653094  36.3748067 121.8802211 147.0052473  36.2336826 121.1825174
 145.5330624  36.0882580 121.5040813 158.2280347  44.4566498 120.8116470
 158.6616854  44.3641787 121.6599524 158.9411928  44.4323999 120.1736486
 147.1413398  45.6750497 117.9937203 147.9353996  45.1800817 117.7919778
 146.4305090  45.1468360 117.6304909 151.9608242  48.0568592 122.3449571
 152.0145265  48.6259529 123.1127287 151.0923024  48.2270477 121.9803608
 143.4496161  39.8193579 114.0696956 142.5193749  39.7578034 114.2866918
 143.5453633  39.2969531 113.2733597 143.3681710  36.3448391 116.6575198
 143.6288528  37.2593725 116.5484358 144.1898883  35.8772834 116.8071810
 144.8406636  37.7586149 123.8274022 145.5129689  37.5503511 123.1786671
 144.0136422  37.5608235 123.3879254 150.9196342  42.2228854 123.9036503
 151.8488402  42.3740014 123.7305470 150.4987372  42.3112875 123.0485149
 149.7184674  46.2479519 121.6735040 149.5795760  45.8798303 122.5460978
 148.9299270  46.7627158 121.5018998 150.3132826  51.3488615 113.0160577
 150.4884582  50.8776659 113.8306200 149.6265614  51.9754382 113.2441838
 151.2689889  45.6261122 119.0623878 150.9339722  45.5861892 119.9581528
 150.7693835  44.9605838 118.5894288 145.2434133  41.0328752 124.5876459
 145.1053931  40.3008990 125.1887998 146.1539056  40.9437652 124.3060647
 154.2049081  42.9717156 109.3360938 153.5878251  42.2463984 109.2393990
 153.7365569  43.7326516 108.9928012 147.8716434  40.7448711 124.0760139
 148.5816052  40.1041903 124.0346757 147.8285742  40.9961606 124.9986320
 155.8603212  47.6816064 126.9966718 155.8015758  46.9975284 126.3297301
 156.2622731  48.4235054 126.5447344 146.5845368  37.7313929 125.8955778
 146.0482725  37.2804667 126.5477375 145.9962076  37.8659838 125.1526243
 144.8793911  54.4977978 119.7900437 145.1190509  55.1296502 120.4679456
 144.0363108  54.1466018 120.0765796 145.9947627  37.1902580 108.4582242
 145.1177093  37.0691381 108.0944489 146.4705380  36.3988659 108.2061131
 155.8620620  45.6455648 125.2280698 154.9747398  45.3081570 125.3507097
 156.4319171  44.9138679 125.4649463 137.5149767  41.9779740 118.5523749
 138.2020807  41.6641470 117.9644765 137.3597895  42.8821105 118.2791001
 142.3184489  36.8669937 122.9808773 142.2342678  36.2595606 122.2459183
 141.4967195  37.3578955 122.9818269 149.3921773  50.3057101 122.1941941
 149.3191944  51.1112072 122.7061246 148.9499166  50.5049066 121.3689962
 149.1811553  49.5428871 115.7044763 148.3979074  50.0850551 115.7982987
 149.8804298  50.0602850 116.1039004 152.4908203  35.3523500 118.3478968
 152.9876902  34.5993462 118.0280038 151.7195184  35.3887817 117.7822177
 151.8520456  50.2043935 124.3500100 152.5648429  50.8391399 124.2776001
 151.3610485  50.3007801 123.5340102 153.5737983  44.1095187 115.9217391
 152.6394262  44.2296650 115.7522096 153.7514652  43.2067654 115.6577401
 149.0743171  37.4940883 118.0750653 148.7040959  36.9411923 118.7631558
 149.5702264  36.8899017 117.5225653 156.9610535  39.9512507 116.4567425
 157.4270987  40.7840498 116.3827728 157.4118035  39.4857488 117.1612684
 146.9032370  47.9538378 125.1705671 147.6041830  48.5874861 125.3235065
 146.4327485  48.2953110 124.4101310 155.0286766  46.2956328 113.4553578
 155.3046610  46.1812922 114.3647452 154.1591265  45.8973813 113.4165751
 154.7033656  40.5082986 122.9958221 154.0505106  40.7558893 122.3410674
 155.0814036  39.6947124 122.6620698 151.6640830  50.5442679 117.0986391
 151.8463224  49.7264335 117.5614143 152.4873816  50.7610371 116.6611281
 151.9982995  49.4710864 114.3601440 152.5270762  48.9603318 113.7471602
 152.2611215  49.1553394 115.2246973 142.5000088  47.4874733 122.1036773
 143.0853525  46.7418421 122.2364677 142.3024927  47.7978690 122.9873437
 145.3538743  50.5225981 117.1199216 144.6849119  51.0072108 116.6363256
 145.2151613  50.7695201 118.0342594 137.0917743  40.0580333 120.8241216
 137.1301842  39.5243924 121.6178334 136.5858036  39.5315539 120.2052194
 149.4944012  52.5569724 123.7181874 150.0462320  52.7201346 124.4830959
 149.8350205  53.1474162 123.0461899 144.4708505  34.9044874 124.3203759
 144.5349832  35.7659705 123.9081156 144.4075625  34.2918875 123.5876117
 143.9460778  36.9768006 127.9676793 144.5732816  36.5945084 128.5814317
 143.0888697  36.7582208 128.3332485 154.3454886  47.3830982 129.5730528
 154.8894790  47.9960940 129.0785483 153.7641731  47.9410560 130.0897541
 140.7226320  38.7844436 113.8995148 141.0179761  37.8755114 113.8462201
 139.8214356  38.7632175 113.5776150 152.6312399  50.5051700 120.7045556
 152.5063539  49.7041439 120.1956502 153.2891490  50.9997893 120.2159526
 144.2520567  36.8600432 119.8822696 143.5307153  37.4736400 119.7430170
 145.0413823  37.3958197 119.8039342 154.6947308  48.3060720 122.3325106
 153.7477643  48.1866071 122.2603433 155.0430081  47.4183218 122.4151368
 147.0546881  34.1954859 126.1563348 147.5781283  34.4417155 126.9189657
 146.8359214  35.0274893 125.7366485 142.4514162  36.4658533 114.0234473
 142.1226868  35.5855912 113.8409579 142.8053533  36.4106202 114.9110862
 151.6993741  48.1013436 118.5329458 151.5518703  47.1730143 118.7137028
 152.5247234  48.1233527 118.0486534 145.5655985  36.7531503 114.3909951
 145.9052058  37.2817424 113.6688559 146.0128106  37.0911909 115.1668517
 155.3027863  48.9241995 119.6194331 156.2274410  48.7184856 119.4818782
 155.1343166  48.6758396 120.5283673 148.2599426  35.1368554 123.8413019
 147.9196246  34.3376367 124.2433698 147.5538432  35.4370265 123.2689852
 148.9115898  32.2217866 122.2940342 149.7341967  31.7478344 122.1719232
 149.1553961  33.0008350 122.7939028 147.5524132  35.2506125 112.5903243
 148.2732495  35.6287377 112.0866960 146.9289436  35.9695001 112.6938221
 151.6955255  35.9551274 113.5261576 151.9118870  36.8375911 113.2250404
 151.2149322  35.5637487 112.7967218 146.4354477  38.9136987 120.1032320
 146.2899057  39.2277290 120.9956602 145.9579680  39.5321887 119.5503219
 148.2950859  35.9039535 120.1513210 148.2812428  35.0080628 119.8145508
 149.0123288  35.9110198 120.7851496 150.1476990  36.3376875 122.1966337
 149.8894768  37.2593946 122.1950668 149.6162031  35.9407309 122.8866801
 155.0923179  49.4427662 114.9756423 155.2660056  48.8774085 114.2230275
 155.5852070  50.2428557 114.7935913 140.9100139  41.4542331 123.0419981
 140.3653607  42.2302139 123.1740256 141.7879489  41.8013136 122.8839103
 147.6987755  34.7853915 115.4200780 147.8203667  33.8570561 115.6191667
 147.4089798  34.7992601 114.5079095 150.5678946  32.4708825 118.5567500
 150.5900643  32.5348159 117.6019479 150.9847005  31.6313334 118.7508006
 156.0798351  48.7594426 112.0753321 156.7749256  49.3801119 112.2940636
 156.4221502  47.9089778 112.3505699 141.6966161  40.5812227 125.9350138
 140.9547897  40.7294863 126.5214769 141.3758905  40.8420493 125.0716888
 157.9789775  46.2094132 113.6040652 158.5041099  46.5481405 112.8789972
 157.8912127  45.2741147 113.4203786 149.6409823  50.1228206 125.7330528
 149.9496950  49.8777352 126.6053228 150.4385305  50.3274844 125.2449399
 149.6630435  52.2766115 117.9635905 149.2235426  51.7842494 118.6568762
 150.4138552  51.7339083 117.7227980 142.1422774  48.4677656 117.9660533
 142.9680794  48.1681428 117.5859176 141.7916826  47.6985279 118.4150322
 147.1104307  47.8204124 120.0358207 146.4884317  47.1574829 119.7360434
 147.7809174  47.8465256 119.3531854 140.3431379  46.3863983 118.9249467
 139.5063288  45.9586157 118.7433468 140.3155025  46.5796426 119.8620258
 146.6717814  46.3708048 113.5116667 146.8205935  47.0543512 112.8583340
 147.4784258  46.3513138 114.0266123 149.4128123  37.0517285 126.3837071
 148.5431433  37.3450851 126.1119660 149.6487604  37.6357730 127.1044335
 144.4270447  42.3973225 114.5177736 144.1816489  41.4935555 114.7157946
 144.5966362  42.3990376 113.5757214 143.6966095  38.1301583 112.0163897
 143.0035340  38.2045938 111.3603933 143.4517847  37.3661927 112.5385414
 152.3679751  29.6897184 119.4203388 152.6481505  29.0220373 120.0463815
 153.1530358  29.8826280 118.9078052 150.1713220  48.8656178 110.9828414
 149.5987187  49.4846365 110.5298886 150.7446014  49.4155540 111.5168336
 153.3910480  49.1493328 112.1136997 154.3241153  49.0838890 112.3169872
 153.3033692  49.9849595 111.6551529 156.0198496  48.4659199 109.0740944
 155.9412128  48.1319062 109.9676702 156.8408163  48.9580967 109.0732417
 150.5560018  40.2016991 108.3244467 151.5019123  40.0723199 108.3932885
 150.1774263  39.4631653 108.8013895 150.4398711  44.2534737 129.7845124
 151.3601720  44.4313336 129.9785170 150.4048294  43.3090782 129.6324823
 148.7402936  38.1266967 108.2599352 147.8334391  37.8300080 108.3362066
 149.0178917  37.8296785 107.3933638 139.6580876  39.4473331 118.7098399
 139.3383660  38.5938639 118.4172773 139.1114304  39.6621909 119.4656366
 143.4360783  42.1635772 122.4267905 143.6546793  43.0952879 122.4455939
 143.8486557  41.8043746 123.2122709 150.3565001  32.6703857 114.4143594
 149.5465730  32.3250942 114.7898840 151.0449418  32.3611401 115.0031205
 152.2855550  31.7481904 116.0367890 152.8386588  32.1677357 116.6957913
 152.5225636  30.8217652 116.0790846 147.5101720  34.9853903 108.4011331
 148.3720884  35.3108801 108.6607149 147.6952064  34.1985398 107.8884397
 139.5269136  43.0676242 120.6791520 138.8332607  42.6530195 120.1661475
 140.2742127  43.1096779 120.0824939 155.6634357  33.8582429 115.5446554
 155.0833026  34.5167233 115.1624607 155.3970289  33.0359774 115.1333972
 154.1137923  33.2587487 117.7467875 154.6137701  33.3704021 116.9382194
 154.7573531  32.9548540 118.3868683 148.1719919  41.1666116 130.6335716
 147.6887001  41.9666476 130.8399605 148.2580858  41.1774061 129.6803160
 141.4405878  42.9994496 118.5557535 141.4176567  43.0982183 117.6039418
 141.7506515  43.8459647 118.8774701 144.0993256  45.0570651 122.6704149
 145.0536510  45.0254593 122.6034081 143.9005780  44.5961275 123.4854375
 144.6892638  43.6271767 125.2374947 145.5085527  44.1215846 125.2609784
 144.9629446  42.7103735 125.2092515 154.4459235  36.0182519 114.6002903
 153.5585090  36.3032170 114.3823097 154.8613224  35.8576283 113.7530180
 157.7973771  36.0429040 118.3157242 158.5734161  36.5325493 118.5881859
 157.0721905  36.4687095 118.7729111 142.4543485  50.5990270 119.6874347
 142.3197953  49.8390671 119.1212345 142.0375547  51.3231170 119.2203136
 153.5902448  45.7827194 108.6950923 154.2938298  45.9877197 109.3108578
 152.8665097  46.3503956 108.9600006 154.4200258  41.5337055 114.8153193
 154.3635460  41.9905607 113.9760825 154.9728601  40.7727740 114.6376036
 158.2305064  37.3226787 115.6403312 157.9741999  36.9223423 116.4711520
 157.6057932  38.0370581 115.5153451 145.6112611  51.4959588 119.8992790
 145.4944995  52.4405020 119.7971480 144.7905057  51.1933149 120.2878589
 155.4989145  46.2209723 110.7449383 156.3334749  45.7890922 110.5626857
 155.3373488  46.0491737 111.6726277 155.1535038  42.7241837 112.1105722
 155.0983841  42.5586108 111.1694166 154.5281093  43.4317869 112.2667912
 139.9427553  37.9609901 125.9367144 140.5886416  37.4508855 126.4254369
 139.7344704  38.6978583 126.5110569 148.4631163  32.2249946 111.6891040
 148.4509833  33.1691785 111.8459311 149.3554585  32.0420091 111.3950502
 146.6367125  52.1487849 123.1148718 147.5394372  52.1811460 123.4315213
 146.4104495  51.2188300 123.1295054 148.3920727  50.9018836 119.7758797
 147.4416358  50.9020698 119.6623169 148.6953213  50.1551571 119.2594832
 152.2783283  28.8192722 115.9436977 151.5115678  28.2651209 116.0893660
 152.6893988  28.8914591 116.8051129 156.7949943  58.5442279 116.7662975
 156.2314808  58.4532216 115.9979263 156.6802338  57.7242183 117.2465468
 154.3414374  60.0393470 119.6047196 155.1335666  59.6984295 119.1893495
 154.5811025  60.1488445 120.5249349 156.3005128  59.3002384 112.4764574
 157.0736004  58.7531371 112.3377450 156.6530527  60.1646633 112.6879036
 158.1390171  60.6278766 125.6831474 157.8480037  61.5324397 125.5678140
 158.7747155  60.6695294 126.3975543 158.6371406  55.4595050 110.1083024
 158.8896927  54.9376571 109.3466487 157.6995965  55.2961195 110.2109708
 158.3567695  57.3623156 112.3107399 158.2403953  56.6868059 112.9788484
 158.4669955  56.8755530 111.4939552 156.5492538  56.7653978 118.7117972
 155.6243034  56.6330192 118.9195664 156.7976951  57.5448198 119.2087914
 153.9101349  56.4087252 119.5461761 154.0393730  56.6621731 120.4601173
 153.2298800  57.0014960 119.2266416 158.0800836  67.0784502 115.6452235
 158.0024866  68.0292327 115.7240716 157.4762479  66.7330374 116.3027161
 157.0700635  59.0474041 120.4185868 157.6401992  59.4761310 119.7803352
 157.6608747  58.7656626 121.1170053 157.5625802  54.2137469 128.6646879
 156.9324462  54.8953750 128.8982276 157.4561890  54.1020550 127.7200017
 152.8570774  53.8809265 119.5912803 152.0669828  54.1366793 119.1152914
 153.3482022  54.6957603 119.6964844 154.8085520  54.2453844 116.5496280
 154.0116683  54.3572538 117.0679775 154.5811112  54.5840496 115.6837170
 151.1408477  54.1339755 122.0227794 151.3916516  55.0186765 122.2885370
 151.6768026  53.9544357 121.2502886 153.8068602  59.9542093 114.9385700
 154.3193123  60.7485343 115.0891265 154.4591315  59.2568383 114.8719301
 155.6163487  63.0707849 117.0208453 155.7930115  63.9925814 116.8329437
 156.4120320  62.7566268 117.4502833 154.9015843  55.1172481 126.8970616
 154.7869359  54.2157738 127.1977715 154.0460361  55.3636178 126.5455433
 156.7394802  64.5886023 123.0218795 157.2902227  64.4603086 122.2495789
 155.9006278  64.8880912 122.6713688 151.7717519  58.2830747 115.7145270
 152.6092741  58.6927755 115.4978978 151.9495787  57.3430189 115.6845464
 156.6333414  50.6442809 117.2388450 157.2077166  50.4217991 116.5061643
 157.2204396  50.7131504 117.9917051 156.9603001  52.6747270 111.2584335
 156.1240313  53.0121957 111.5793610 156.8207770  52.5396250 110.3211472
 158.9356081  47.5184058 115.9663519 158.2820494  47.2033076 115.3420134
 158.8936556  46.8959799 116.6923342 151.7943690  55.6221462 116.3856004
 151.5968090  55.0290823 115.6607070 151.2390354  55.3173673 117.1031943
 157.7132774  54.1321629 116.2640976 156.9000639  54.4315799 116.6706168
 158.2091768  53.7377317 116.9815458 157.2046848  51.7039984 121.8802211
 157.8446228  51.5628743 121.1825174 156.3724379  51.4174498 121.5040813
 157.9807152  61.0042415 117.9937203 158.7747751  60.5092735 117.7919778
 157.2698845  60.4760278 117.6304909 154.2889916  55.1485496 114.0696956
 153.3587504  55.0869952 114.2866918 154.3847388  54.6261449 113.2733597
 154.2075465  51.6740309 116.6575198 154.4682282  52.5885642 116.5484358
 155.0292637  51.2064752 116.8071810 155.6800390  53.0878066 123.8274022
 156.3523444  52.8795428 123.1786671 154.8530177  52.8900152 123.3879254
 156.0827887  56.3620669 124.5876459 155.9447685  55.6300908 125.1887998
 156.9932811  56.2729569 124.3060647 157.4239122  53.0605847 125.8955778
 156.8876479  52.6096585 126.5477375 156.8355831  53.1951755 125.1526243
 155.7187666  69.8269896 119.7900437 155.9584264  70.4588420 120.4679456
 154.8756862  69.4757936 120.0765796 156.8341381  52.5194498 108.4582242
 155.9570847  52.3983299 108.0944489 157.3099134  51.7280576 108.2061131
 148.3543521  57.3071658 118.5523749 149.0414561  56.9933388 117.9644765
 148.1991650  58.2113022 118.2791001 153.1578243  52.1961854 122.9808773
 153.0736432  51.5887524 122.2459183 152.3360950  52.6870873 122.9818269
 157.7426125  63.2830296 125.1705671 158.4435584  63.9166779 125.3235065
 157.2721240  63.6245027 124.4101310 153.3393843  62.8166651 122.1036773
 153.9247279  62.0710339 122.2364677 153.1418681  63.1270608 122.9873437
 156.1932498  65.8517898 117.1199216 155.5242873  66.3364026 116.6363256
 156.0545367  66.0987119 118.0342594 147.9311497  55.3872251 120.8241216
 147.9695597  54.8535842 121.6178334 147.4251790  54.8607457 120.2052194
 155.3102260  50.2336792 124.3203759 155.3743586  51.0951622 123.9081156
 155.2469380  49.6210793 123.5876117 154.7854532  52.3059924 127.9676793
 155.4126571  51.9237001 128.5814317 153.9282451  52.0874126 128.3332485
 151.5620075  54.1136353 113.8995148 151.8573516  53.2047032 113.8462201
 150.6608111  54.0924093 113.5776150 155.0914322  52.1892350 119.8822696
 154.3700908  52.8028317 119.7430170 155.8807578  52.7250115 119.8039342
 157.8940635  49.5246776 126.1563348 158.4175037  49.7709073 126.9189657
 157.6752969  50.3566811 125.7366485 153.2907916  51.7950451 114.0234473
 152.9620623  50.9147830 113.8409579 153.6447287  51.7398120 114.9110862
 156.4049740  52.0823421 114.3909951 156.7445812  52.6109342 113.6688559
 156.8521860  52.4203827 115.1668517 159.0993180  50.4660471 123.8413019
 158.7590001  49.6668284 124.2433698 158.3932187  50.7662182 123.2689852
 158.3917887  50.5798042 112.5903243 159.1126249  50.9579295 112.0866960
 157.7683191  51.2986919 112.6938221 157.2748231  54.2428904 120.1032320
 157.1292812  54.5569207 120.9956602 156.7973435  54.8613805 119.5503219
 151.7493893  56.7834249 123.0419981 151.2047361  57.5594057 123.1740256
 152.6273243  57.1305053 122.8839103 158.5381510  50.1145833 115.4200780
 158.6597421  49.1862479 115.6191667 158.2483552  50.1284519 114.5079095
 152.5359915  55.9104145 125.9350138 151.7941651  56.0586780 126.5214769
 152.2152659  56.1712411 125.0716888 152.9816529  63.7969574 117.9660533
 153.8074549  63.4973346 117.5859176 152.6310581  63.0277196 118.4150322
 157.9498062  63.1496042 120.0358207 157.3278071  62.4866747 119.7360434
 158.6202929  63.1757174 119.3531854 151.1825134  61.7155900 118.9249467
 150.3457042  61.2878075 118.7433468 151.1548779  61.9088344 119.8620258
 157.5111569  61.6999965 113.5116667 157.6599689  62.3835430 112.8583340
 158.3178012  61.6805055 114.0266123 155.2664202  57.7265143 114.5177736
 155.0210244  56.8227473 114.7157946 155.4360116  57.7282293 113.5757214
 154.5359849  53.4593501 112.0163897 153.8429094  53.5337856 111.3603933
 154.2911601  52.6953844 112.5385414 150.4974630  54.7765248 118.7098399
 150.1777415  53.9230557 118.4172773 149.9508059  54.9913827 119.4656366
 154.2754538  57.4927689 122.4267905 154.4940548  58.4244797 122.4455939
 154.6880312  57.1335664 123.2122709 158.3495475  50.3145820 108.4011331
 159.2114639  50.6400718 108.6607149 158.5345819  49.5277316 107.8884397
 150.3662890  58.3968160 120.6791520 149.6726362  57.9822113 120.1661475
 151.1135881  58.4388696 120.0824939 159.0113673  56.4958034 130.6335716
 158.5280755  57.2958394 130.8399605 159.0974612  56.5065979 129.6803160
 152.2799633  58.3286414 118.5557535 152.2570321  58.4274101 117.6039418
 152.5900269  59.1751564 118.8774701 154.9387011  60.3862569 122.6704149
 155.8930264  60.3546511 122.6034081 154.7399534  59.9253192 123.4854375
 155.5286393  58.9563685 125.2374947 156.3479282  59.4507763 125.2609784
 155.8023201  58.0395653 125.2092515 153.2937240  65.9282188 119.6874347
 153.1591707  65.1682589 119.1212345 152.8769302  66.6523088 119.2203136
 156.4506365  66.8251505 119.8992790 156.3338750  67.7696938 119.7971480
 155.6298812  66.5225067 120.2878589 150.7821307  53.2901819 125.9367144
 151.4280171  52.7800773 126.4254369 150.5738458  54.0270500 126.5110569
 157.4760880  67.4779767 123.1148718 158.3788126  67.5103377 123.4315213
 157.2498250  66.5480218 123.1295054 158.7705252  70.7164169 120.8241216
 158.8089351  70.1827759 121.6178334 158.2645545  70.1899374 120.2052194
 134.0400158  16.1748183 106.5145744 134.2796756  16.8066707 107.1924762
 133.1969354  15.8236223 106.8011103 145.9556189  20.2212484 103.4908282
 145.3921054  20.1302421 102.7224569 145.8408584  19.4012388 103.9710774
 143.5020621  21.7163675 106.3292502 144.2941913  21.3754500 105.9138801
 143.7417271  21.8258650 107.2494655 151.5355748  23.8883451  98.8022747
 150.8843728  24.4737532  98.4156760 152.3300111  24.4189646  98.8617784
 145.4611375  20.9772589  99.2009881 146.2342251  20.4301576  99.0622757
 145.8136774  21.8416838  99.4124342 147.2996418  22.3048971 112.4076780
 147.0086284  23.2094602 112.2923447 147.9353402  22.3465498 113.1220850
 153.0131013  21.5773883  99.3391731 152.3776846  21.6508510 100.0512636
 152.6828420  22.1667482  98.6610810 152.2586303  21.9910386 109.4026574
 151.9587026  22.8935425 109.2942381 151.9137362  21.7242570 110.2547727
 143.0707595  18.0857457 106.2707067 143.1999977  18.3391936 107.1846479
 142.3905047  18.6785165 105.9511723 147.2407083  28.7554707 102.3697542
 147.1631112  29.7062532 102.4486022 146.6368726  28.4100579 103.0272468
 149.3382801  21.1772765 104.2051411 149.8021146  21.4560468 103.4156034
 149.0739599  20.2756209 104.0224502 146.2306882  20.7244246 107.1431174
 146.8008239  21.1531515 106.5048659 146.8214994  20.4426831 107.8415360
 149.7997434  22.4468752 111.2224101 149.8641866  22.9089159 112.0582273
 149.0908358  21.8166117 111.3506411 149.5145452  24.1136860 101.0903081
 149.3791126  24.9588395 101.5187929 150.0555264  24.3156137 100.3269015
 142.9674849  21.6312298 101.6631006 143.4799370  22.4255548 101.8136571
 143.6197562  20.9338588 101.5964608 144.7769734  24.7478054 103.7453760
 144.9536362  25.6696019 103.5574744 145.5726567  24.4336473 104.1748139
 151.1413928  24.7360426 115.2203423 150.6977782  23.9496805 114.9024328
 151.8031142  24.9239577 114.5547314 145.9001049  26.2656228 109.7464102
 146.4508474  26.1373291 108.9741096 145.0612525  26.5651117 109.3958995
 153.2395166  25.0163226 113.2484825 153.2213641  25.8372107 112.7565094
 154.1615086  24.8917301 113.4734966 149.6968220  22.5307356 114.0908333
 150.2296557  21.7695644 113.8607641 149.1682301  22.2381007 114.8332488
 140.9323766  19.9600952 102.4390577 141.7698988  20.3697960 102.2224285
 141.1102033  19.0200394 102.4090771 151.0620933  21.6593348 101.6027145
 150.5342294  20.9246108 101.2900383 150.5608436  22.4368024 101.3567113
 152.1141612  28.1871066  97.5258804 151.4403311  28.4902762  98.1343762
 152.5007434  28.9900146  97.1764261 155.6181034  23.1892743 102.8977276
 155.1643361  22.3483653 102.9542466 154.9875001  23.8254141 103.2352056
 154.0613973  25.0269239 103.8327094 154.3536948  25.5874297 103.1139460
 154.5712594  25.3197800 104.5880253 150.0837854  21.1194897  96.4674187
 149.6457284  20.4030756  96.0079824 150.8248295  21.3471012  95.9059278
 149.0247598  25.8049591 104.9220547 148.9823777  26.0310437 103.9929079
 149.9410297  25.5712965 105.0706348 147.1413399  22.6812620 104.7182510
 147.9353998  22.1862940 104.5165085 146.4305091  22.1530483 104.3550215
 151.9608244  25.0630715 109.0694878 152.0145266  25.6321651 109.8372593
 151.0923025  25.2332600 108.7048915 149.7184675  23.2541642 108.3980347
 149.5795761  22.8860426 109.2706285 148.9299271  23.7689281 108.2264305
 150.3132827  28.3550738  99.7405884 150.4884583  27.8838781 100.5551506
 149.6265615  28.9816504  99.9687144 151.2689890  22.6323244 105.7869185
 150.9339723  22.5924014 106.6826835 150.7693836  21.9667960 105.3139595
 155.8603214  24.6878187 113.7212025 155.8015760  24.0037407 113.0542608
 156.2622732  25.4297177 113.2692651 144.8793912  31.5040101 106.5145744
 145.1190511  32.1358625 107.1924762 144.0363109  31.1528141 106.8011103
 137.5149768  18.9841863 105.2769056 138.2020808  18.6703593 104.6890071
 137.3597897  19.8883227 105.0036307 149.3921774  27.3119223 108.9187248
 149.3191946  28.1174195 109.4306552 148.9499167  27.5111189 108.0935269
 149.1811554  26.5490993 102.4290069 148.3979076  27.0912673 102.5228294
 149.8804299  27.0664973 102.8284310 151.8520458  27.2106057 111.0745406
 152.5648430  27.8453522 111.0021308 151.3610486  27.3069923 110.2585408
 146.9032371  24.9600501 111.8950977 147.6041831  25.5936984 112.0480371
 146.4327486  25.3015232 111.1346616 155.0286767  23.3018450 100.1798884
 155.3046611  23.1875045 101.0892758 154.1591266  22.9035935 100.1411057
 151.6640831  27.5504801 103.8231698 151.8463226  26.7326457 104.2859450
 152.4873817  27.7672494 103.3856588 151.9982997  26.4772986 101.0846746
 152.5270763  25.9665441 100.4716908 152.2611216  26.1615517 101.9492279
 142.5000089  24.4936856 108.8282080 143.0853526  23.7480544 108.9609984
 142.3024928  24.8040812 109.7118744 145.3538745  27.5288103 103.8444522
 144.6849120  28.0134231 103.3608562 145.2151614  27.7757324 104.7587901
 137.0917744  17.0642456 107.5486523 137.1301844  16.5306047 108.3423641
 136.5858037  16.5377661 106.9297500 149.4944013  29.5631847 110.4427181
 150.0462321  29.7263468 111.2076266 149.8350207  30.1536284 109.7707205
 154.3454887  24.3893104 116.2975835 154.8894791  25.0023062 115.8030790
 153.7641732  24.9472683 116.8142848 152.6312400  27.5113822 107.4290863
 152.5063540  26.7103562 106.9201808 153.2891492  28.0060016 106.9404833
 154.6947309  25.3122842 109.0570413 153.7477644  25.1928193 108.9848740
 155.0430082  24.4245340 109.1396674 151.6993742  25.1075558 105.2574765
 151.5518705  24.1792266 105.4382335 152.5247236  25.1295649 104.7731840
 155.3027864  25.9304117 106.3439638 156.2274411  25.7246979 106.2064089
 155.1343167  25.6820518 107.2528979 155.0923180  26.4489785 101.7001729
 155.2660058  25.8836207 100.9475582 155.5852071  27.2490680 101.5181219
 140.9100140  18.4604454 109.7665288 140.3653608  19.2364262 109.8985562
 141.7879490  18.8075258 109.6084409 156.0798353  25.7656549  98.7998628
 156.7749257  26.3863242  99.0185942 156.4221503  24.9151900  99.0751005
 141.6966162  17.5874350 112.6595445 140.9547898  17.7356985 113.2460075
 141.3758906  17.8482616 111.7962194 149.6409824  27.1290328 112.4575835
 149.9496951  26.8839475 113.3298535 150.4385306  27.3336967 111.9694705
 149.6630437  29.2828238 104.6881211 149.2235427  28.7904617 105.3814068
 150.4138553  28.7401206 104.4473287 142.1422776  25.4739779 104.6905840
 142.9680795  25.1743551 104.3104483 141.7916827  24.7047401 105.1395628
 147.1104309  24.8266247 106.7603513 146.4884318  24.1636952 106.4605741
 147.7809176  24.8527379 106.0777161 140.3431381  23.3926105 105.6494773
 139.5063289  22.9648280 105.4678774 140.3155026  23.5858549 106.5865564
 146.6717816  23.3770170 100.2361974 146.8205936  24.0605635  99.5828646
 147.4784259  23.3575260 100.7511429 144.4270449  19.4035348 101.2423043
 144.1816491  18.4997678 101.4403253 144.5966363  19.4052498 100.3002521
 150.1713221  25.8718301  97.7073721 149.5987188  26.4908488  97.2544193
 150.7446015  26.4217662  98.2413643 153.3910481  26.1555451  98.8382303
 154.3241154  26.0901013  99.0415179 153.3033694  26.9911718  98.3796836
 156.0198498  25.4721321  95.7986251 155.9412129  25.1381185  96.6922009
 156.8408164  25.9643089  95.7977723 143.4360785  19.1697894 109.1513212
 143.6546794  20.1015002 109.1701246 143.8486559  18.8105869 109.9368016
 139.5269137  20.0738365 107.4036827 138.8332609  19.6592318 106.8906781
 140.2742128  20.1158901 106.8070246 141.4405880  20.0056619 105.2802842
 141.4176568  20.1044306 104.3284725 141.7506516  20.8521769 105.6020008
 144.0993258  22.0632774 109.3949456 145.0536511  22.0316716 109.3279388
 143.9005781  21.6023397 110.2099682 144.6892640  20.6333890 111.9620254
 145.5085529  21.1277968 111.9855091 144.9629447  19.7165858 111.9337821
 142.4543486  27.6052393 106.4119654 142.3197954  26.8452794 105.8457652
 142.0375549  28.3293293 105.9448443 153.5902449  22.7889317  95.4196229
 154.2938299  22.9939319  96.0353885 152.8665098  23.3566079  95.6845313
 145.6112612  28.5021710 106.6238097 145.4944996  29.4467143 106.5216787
 144.7905058  28.1995272 107.0123896 155.4989147  23.2271846  97.4694689
 156.3334751  22.7953044  97.2872164 155.3373490  23.0553860  98.3971584
 146.6367126  29.1549972 109.8394025 147.5394373  29.1873582 110.1560520
 146.4104496  28.2250423 109.8540361 148.3920728  27.9080959 106.5004104
 147.4416359  27.9082820 106.3868476 148.6953214  27.1613693 105.9840138
 156.7949944  35.5504401 103.4908282 156.2314809  35.4594338 102.7224569
 156.6802339  34.7304306 103.9710774 154.3414376  37.0455593 106.3292502
 155.1335668  36.7046418 105.9138801 154.5811026  37.1550568 107.2494655
 156.3005130  36.3064506  99.2009881 157.0736006  35.7593493  99.0622757
 156.6530529  37.1708756  99.4124342 158.1390172  37.6340889 112.4076780
 157.8480038  38.5386519 112.2923447 158.7747157  37.6757416 113.1220850
 158.6371408  32.4657172  96.8328331 158.8896928  31.9438694  96.0711794
 157.6995967  32.3023318  96.9355014 158.3567696  34.3685278  99.0352706
 158.2403954  33.6930182  99.7033790 158.4669956  33.8817652  98.2184859
 156.5492539  33.7716101 105.4363278 155.6243035  33.6392315 105.6440970
 156.7976952  34.5510320 105.9333221 153.9101350  33.4149374 106.2707067
 154.0393731  33.6683853 107.1846479 153.2298801  34.0077082 105.9511723
 158.0800837  44.0846624 102.3697542 158.0024867  45.0354450 102.4486022
 157.4762481  43.7392497 103.0272468 157.0700636  36.0536164 107.1431174
 157.6401994  36.4823432 106.5048659 157.6608748  35.7718749 107.8415360
 157.5625803  31.2199591 115.3892186 156.9324464  31.9015872 115.6227582
 157.4561891  31.1082673 114.4445324 152.8570775  30.8871387 106.3158110
 152.0669829  31.1428916 105.8398220 153.3482023  31.7019725 106.4210150
 154.8085521  31.2515967 103.2741586 154.0116684  31.3634661 103.7925082
 154.5811113  31.5902619 102.4082477 151.1408478  31.1401878 108.7473101
 151.3916517  32.0248888 109.0130676 151.6768027  30.9606479 107.9748192
 153.8068603  36.9604215 101.6631006 154.3193124  37.7547466 101.8136571
 154.4591316  36.2630506 101.5964608 155.6163488  40.0769972 103.7453760
 155.7930116  40.9987936 103.5574744 156.4120322  39.7628391 104.1748139
 154.9015845  32.1234604 113.6215923 154.7869360  31.2219861 113.9223022
 154.0460362  32.3698300 113.2700739 156.7394804  41.5948145 109.7464102
 157.2902229  41.4665209 108.9741096 155.9006280  41.8943034 109.3958995
 151.7717520  35.2892870 102.4390577 152.6092742  35.6989878 102.2224285
 151.9495788  34.3492312 102.4090771 156.6333415  27.6504932 103.9633757
 157.2077167  27.4280114 103.2306950 157.2204397  27.7193627 104.7162358
 156.9603002  29.6809393  97.9829642 156.1240314  30.0184080  98.3038917
 156.8207772  29.5458373  97.0456779 158.9356083  24.5246181 102.6908826
 158.2820495  24.2095198 102.0665441 158.8936557  23.9021921 103.4168649
 151.7943691  32.6283585 103.1101310 151.5968091  32.0352946 102.3852377
 151.2390355  32.3235795 103.8277249 157.7132775  31.1383751 102.9886282
 156.9000640  31.4377922 103.3951475 158.2091769  30.7439440 103.7060765
 157.2046850  28.7102107 108.6047517 157.8446229  28.5690866 107.9070481
 156.3724380  28.4236620 108.2286119 157.9807154  38.0104537 104.7182510
 158.7747752  37.5154857 104.5165085 157.2698846  37.4822400 104.3550215
 154.2889917  32.1547619 100.7942263 153.3587505  32.0932074 101.0112225
 154.3847389  31.6323572  99.9978904 154.2075466  28.6802432 103.3820504
 154.4682283  29.5947765 103.2729665 155.0292638  28.2126874 103.5317117
 155.6800391  30.0940189 110.5519329 156.3523445  29.8857551 109.9031978
 154.8530178  29.8962275 110.1124561 156.0827889  33.3682792 111.3121766
 155.9447687  32.6363031 111.9133305 156.9932812  33.2791692 111.0305954
 157.4239123  30.0667969 112.6201085 156.8876480  29.6158708 113.2722681
 156.8355832  30.2013878 111.8771549 155.7187667  46.8332018 106.5145744
 155.9584265  47.4650543 107.1924762 154.8756863  46.4820058 106.8011103
 156.8341382  29.5256621  95.1827549 155.9570849  29.4045421  94.8189795
 157.3099135  28.7342699  94.9306437 148.3543522  34.3133780 105.2769056
 149.0414562  33.9995510 104.6890071 148.1991651  35.2175145 105.0036307
 153.1578245  29.2023977 109.7054080 153.0736433  28.5949646 108.9704489
 152.3360951  29.6932995 109.7063576 157.7426126  40.2892418 111.8950977
 158.4435585  40.9228901 112.0480371 157.2721241  40.6307150 111.1346616
 153.3393844  39.8228773 108.8282080 153.9247281  39.0772461 108.9609984
 153.1418682  40.1332730 109.7118744 156.1932499  42.8580021 103.8444522
 155.5242874  43.3426148 103.3608562 156.0545369  43.1049241 104.7587901
 147.9311499  32.3934374 107.5486523 147.9695598  31.8597964 108.3423641
 147.4251791  31.8669579 106.9297500 155.3102261  27.2398914 111.0449065
 155.3743587  28.1013745 110.6326463 155.2469381  26.6272916 110.3121424
 154.7854533  29.3122047 114.6922100 155.4126572  28.9299124 115.3059624
 153.9282452  29.0936249 115.0577792 151.5620076  31.1198476 100.6240454
 151.8573517  30.2109154 100.5707508 150.6608112  31.0986215 100.3021457
 155.0914323  29.1954472 106.6068003 154.3700909  29.8090440 106.4675476
 155.8807579  29.7312237 106.5284649 157.8940637  26.5308899 112.8808655
 158.4175038  26.7771195 113.6434964 157.6752970  27.3628934 112.4611792
 153.2907918  28.8012573 100.7479780 152.9620624  27.9209952 100.5654885
 153.6447288  28.7460242 101.6356169 156.4049741  29.0885543 101.1155257
 156.7445813  29.6171464 100.3933866 156.8521861  29.4265949 101.8913824
 159.0993182  27.4722594 110.5658325 158.7590002  26.6730407 110.9679005
 158.3932188  27.7724305 109.9935158 158.3917888  27.5860165  99.3148550
 159.1126251  27.9641418  98.8112267 157.7683192  28.3049042  99.4183528
 157.2748232  31.2491027 106.8277627 157.1292813  31.5631330 107.7201908
 156.7973436  31.8675927 106.2748526 151.7493894  33.7896371 109.7665288
 151.2047363  34.5656179 109.8985562 152.6273244  34.1367176 109.6084409
 158.5381511  27.1207955 102.1446087 158.6597422  26.1924601 102.3436974
 158.2483553  27.1346641 101.2324402 152.5359916  32.9166268 112.6595445
 151.7941652  33.0648903 113.2460075 152.2152661  33.1774533 111.7962194
 152.9816530  40.8031696 104.6905840 153.8074550  40.5035468 104.3104483
 152.6310582  40.0339319 105.1395628 157.9498063  40.1558165 106.7603513
 157.3278072  39.4928870 106.4605741 158.6202930  40.1819297 106.0777161
 151.1825135  38.7218023 105.6494773 150.3457043  38.2940197 105.4678774
 151.1548780  38.9150466 106.5865564 157.5111570  38.7062088 100.2361974
 157.6599690  39.3897552  99.5828646 158.3178014  38.6867178 100.7511429
 155.2664203  34.7327266 101.2423043 155.0210245  33.8289596 101.4403253
 155.4360118  34.7344416 100.3002521 154.5359851  30.4655623  98.7409204
 153.8429096  30.5399978  98.0849240 154.2911602  29.7015967  99.2630721
 150.4974632  31.7827371 105.4343705 150.1777416  30.9292679 105.1418079
 149.9508060  31.9975949 106.1901673 154.2754539  34.4989812 109.1513212
 154.4940549  35.4306920 109.1701246 154.6880313  34.1397786 109.9368016
 158.3495476  27.3207943  95.1256638 159.2114640  27.6462841  95.3852455
 158.5345820  26.5339439  94.6129704 150.3662892  35.4030282 107.4036827
 149.6726363  34.9884235 106.8906781 151.1135883  35.4450819 106.8070246
 159.0113675  33.5020157 117.3581022 158.5280756  34.3020517 117.5644911
 159.0974614  33.5128101 116.4048466 152.2799634  35.3348536 105.2802842
 152.2570322  35.4336224 104.3284725 152.5900271  36.1813687 105.6020008
 154.9387012  37.3924691 109.3949456 155.8930266  37.3608634 109.3279388
 154.7399536  36.9315315 110.2099682 155.5286394  35.9625807 111.9620254
 156.3479283  36.4569886 111.9855091 155.8023202  35.0457775 111.9337821
 153.2937241  42.9344311 106.4119654 153.1591709  42.1744712 105.8457652
 152.8769303  43.6585211 105.9448443 156.4506367  43.8313628 106.6238097
 156.3338751  44.7759060 106.5216787 155.6298813  43.5287189 107.0123896
 150.7821308  30.2963941 112.6612451 151.4280172  29.7862895 113.1499676
 150.5738460  31.0332623 113.2355876 157.4760881  44.4841890 109.8394025
 158.3788128  44.5165500 110.1560520 157.2498251  43.5542341 109.8540361
 158.7705253  47.7226291 107.5486523 158.8089353  47.1889882 108.3423641
 158.2645546  47.1961497 106.9297500 155.7187668  23.8394141  93.2391050
 155.9584266  24.4712665  93.9170069 154.8756865  23.4882181  93.5256410
 158.7705254  24.7288414  94.2731830 158.8089354  24.1952005  95.0668948
 158.2645547  24.2023619  93.6542807  75.6599460  77.5405168 165.1796210
  75.0087440  78.1259248 164.7930224  76.4543823  78.0711363 165.2391248
  69.5855087  74.6294305 165.5783345  70.3585963  74.0823292 165.4396221
  69.9380486  75.4938554 165.7897806  71.9221365  70.7886971 163.2101795
  72.1746886  70.2668492 162.4485258  70.9845924  70.6253116 163.3128478
  77.1374725  75.2295600 165.7165195  76.5020558  75.3030226 166.4286099
  76.8072132  75.8189199 165.0384274  71.6417654  72.6915077 165.4126170
  71.5253912  72.0159980 166.0807254  71.7519914  72.2047451 164.5958323
  73.6254682  67.1815124 164.1134207  73.7929084  68.0495360 164.4804678
  73.4351851  67.3442406 163.1895497  73.6043903  69.6372781 165.0980874
  73.4843528  70.0829832 165.9366354  72.9096491  69.9858099 164.5394412
  71.3650795  82.4076423 168.7471005  71.2874825  83.3584248 168.8259486
  70.7612439  82.0622296 169.4045932  79.3028969  70.1094254 165.9261208
  80.2146825  70.3421641 165.7508906  78.7938616  70.6931299 165.3636287
  81.7887783  76.0274511 170.6719153  81.1038821  76.4073412 170.1216187
  81.8731633  76.6369837 171.4051101  73.4626513  74.8294481 170.5824875
  73.9264859  75.1082184 169.7929497  73.1983311  73.9277926 170.3997965
  72.3995399  70.9517633 167.3914440  73.1019443  71.4038677 167.8588366
  72.0676028  70.3101452 168.0194333  88.2490536  72.8945174 171.7921826
  87.4954244  72.3252572 171.6365830  88.3838077  72.8607838 172.7392460
  73.6389164  77.7658576 167.4676545  73.5034839  78.6110112 167.8961393
  74.1798976  77.9677854 166.7042479  67.0918561  75.2834014 168.0404470
  67.6043082  76.0777264 168.1910035  67.7441274  74.5860305 167.9738072
  68.9013446  78.3999770 170.1227223  69.0780074  79.3217735 169.9348207
  69.6970279  78.0858190 170.5521603  76.9531910  71.2797749 164.5047874
  76.4378534  72.0502354 164.7436261  76.6809219  70.6062885 165.1280935
  81.9266184  74.0330104 166.4401047  81.1495627  73.6941263 165.9956209
  82.6057665  74.0382727 165.7656012  76.7418213  69.1524841 166.3307655
  76.4368349  69.4670990 167.1817798  77.6948655  69.2306261 166.3734988
  75.1864645  75.3115064 167.9800609  74.6586007  74.5767824 167.6673846
  74.6852148  76.0889741 167.7340577  80.1657491  73.5064085 173.0967655
  79.5081166  74.1963346 173.1847784  80.9697890  73.8960517 173.4401642
  78.9762950  71.8608458 171.1471597  79.4894832  72.4938449 171.6493307
  79.6264174  71.2609653 170.7814957  70.2452960  68.0039192 164.3603106
  69.4090272  68.3413878 164.6812380  70.1057730  67.8688172 163.4230243
  73.3317245  73.1295275 160.9835582  72.4244307  72.8984528 161.1826731
  73.8288277  72.3332894 161.1709563  76.2385324  81.8392782 163.9032268
  75.5647023  82.1424479 164.5117226  76.6251146  82.6421862 163.5537725
  76.2378829  70.7349329 168.5232618  76.9850648  71.2470726 168.2139740
  76.5070418  70.4133382 169.3837011  74.5105479  73.2307870 165.5059572
  73.6016698  72.9466902 165.6032042  74.5400563  73.6506948 164.6462879
  79.7424746  76.8414459 169.2750740  79.2887073  76.0005369 169.3315930
  79.1118713  77.4775857 169.6125520  78.1857685  78.6790956 170.2100558
  78.4780660  79.2396013 169.4912923  78.6956306  78.9719517 170.9653717
  74.2081567  74.7716613 162.8447651  73.7700997  74.0552472 162.3853288
  74.9492007  74.9992728 162.2832742  73.1491311  79.4571307 171.2994011
  73.1067489  79.6832153 170.3702543  74.0654009  79.2234681 171.4479812
  82.3254681  73.0473810 168.9023969  82.1872580  73.2375406 167.9745158
  81.9690900  73.8093193 169.3592020  82.3524061  75.1150337 173.9135241
  82.7860568  75.0225626 174.7618295  83.0655642  75.0907838 173.2755257
  74.4376539  82.0072454 166.1179347  74.6128295  81.5360497 166.9324970
  73.7509327  82.6338220 166.3460608  78.3292794  73.6300995 162.4379708
  77.7121965  72.9047823 162.3412761  77.8609283  74.3910355 162.0946782
  69.0037625  85.1561817 172.8919207  69.2434223  85.7880341 173.5698226
  68.1606821  84.8049857 173.1784567  70.1191340  67.8486419 161.5601012
  69.2420806  67.7275220 161.1963259  70.5949093  67.0572497 161.3079901
  73.3055266  80.2012710 168.8063533  72.5222788  80.7434390 168.9001757
  74.0048011  80.7186689 169.2057774  84.4681674  71.7147705 173.0916030
  84.4571550  72.5972420 172.7209963  83.5999053  71.3619255 172.8970567
  77.6981697  74.7679026 169.0236162  76.7637976  74.8880489 168.8540866
  77.8758365  73.8651493 168.7596172  81.0854248  70.6096345 169.5586196
  81.5514700  71.4424337 169.4846499  81.5361749  70.1441327 170.2631454
  79.1530479  76.9540167 166.5572348  79.4290323  76.8396761 167.4666222
  78.2834978  76.5557652 166.5184521  75.7884543  81.2026518 170.2005162
  75.9706938  80.3848174 170.6632914  76.6117529  81.4194210 169.7630052
  76.1226709  80.1294703 167.4620210  76.6514475  79.6187157 166.8490372
  76.3854928  79.8137233 168.3265743  69.4782457  81.1809819 170.2217986
  68.8092832  81.6655947 169.7382026  69.3395327  81.4279040 171.1361364
  76.7556113  81.1635538 173.8064326  76.6307252  80.3625278 173.2975272
  77.4135204  81.6581732 173.3178296  78.8191021  78.9644559 175.4343877
  77.8721357  78.8449910 175.3622203  79.1673794  78.0767057 175.5170138
  75.8237454  78.7597275 171.6348229  75.6762417  77.8313982 171.8155799
  76.6490948  78.7817365 171.1505304  79.4271576  79.5825834 172.7213102
  80.3518124  79.3768695 172.5837553  79.2586880  79.3342235 173.6302443
  75.8198969  66.6135112 166.6280346  76.0362583  67.4959750 166.3269174
  75.3393036  66.2221326 165.8985988  79.2166892  80.1011501 168.0775193
  79.3903770  79.5357923 167.3249045  79.7095784  80.9012396 167.8954683
  85.0706284  72.8647924 169.6965493  85.5137430  72.1155249 169.2984616
  84.1932794  72.8558060 169.3139225  80.2042065  79.4178265 165.1772091
  80.8992970  80.0384958 165.3959406  80.5465215  78.5673617 165.4524469
  82.1033488  76.8677971 166.7059422  82.6284812  77.2065244 165.9808742
  82.0155841  75.9324986 166.5222557  73.7874149  82.9349954 171.0654675
  73.3479139  82.4426333 171.7587532  74.5382266  82.3922922 170.8246750
  70.7961528  77.0291887 166.6135437  70.9449648  77.7127351 165.9602110
  71.6027971  77.0096977 167.1284893  84.6139148  74.3353162 172.0887940
  85.4486040  74.7742966 172.2525501  84.7498277  73.8591815 171.2696186
  74.2956933  79.5240017 164.0847185  73.7230900  80.1430204 163.6317657
  74.8689727  80.0739379 164.6187107  77.5154193  79.8077167 165.2155767
  78.4484866  79.7422729 165.4188643  77.4277406  80.6433434 164.7570300
  80.1442210  79.1243038 162.1759715  80.0655841  78.7902901 163.0695473
  80.9651877  79.6164805 162.1751187  74.6803732  70.8600830 161.4263237
  75.6262837  70.7307038 161.4951655  74.3017977  70.1215492 161.9032666
  88.6596951  73.0520784 174.5242070  89.3900339  72.7906072 175.0849773
  88.0503896  72.3149506 174.5644138  72.8646649  68.7850806 161.3618123
  71.9578104  68.4883919 161.4380836  73.1422630  68.4880624 160.4952409
  71.6345434  65.6437741 161.5030102  72.4964598  65.9692640 161.7625919
  71.8195778  64.8569237 160.9903168  78.5702948  66.6766358 167.7021673
  77.6828803  66.9616009 167.4841868  78.9856937  66.5160122 166.8548950
  77.7146162  76.4411033 161.7969693  78.4182012  76.6461035 162.4127349
  76.9908810  77.0087795 162.0618777  78.5443972  72.1920894 167.9171963
  78.4879173  72.6489446 167.0779596  79.0972314  71.4311579 167.7394806
  82.3548778  67.9810626 168.7422083  82.0985712  67.5807262 169.5730290
  81.7301646  68.6954420 168.6172222  86.6661116  70.7206699 171.2493374
  86.1060674  70.7899889 172.0224936  86.0604619  70.5447684 170.5292870
  69.7356324  82.1543426 173.0011560  69.6188709  83.0988859 172.8990251
  68.9148771  81.8516988 173.3897360  79.6232859  76.8793562 163.8468153
  80.4578463  76.4474761 163.6645628  79.4617202  76.7075576 164.7745048
  79.2778751  73.3825675 165.2124492  79.2227555  73.2169947 164.2712936
  78.6524806  74.0901708 165.3686682  72.5164441  81.5602675 172.8777567
  71.5660072  81.5604536 172.7641940  72.8196927  80.8135409 172.3613602
  80.9193656  89.2026118 169.8681745  80.3558521  89.1116055 169.0998033
  80.8046051  88.3826022 170.3484238  86.4993215  92.8697085 165.1796210
  85.8481195  93.4551166 164.7930224  87.2937578  93.4003280 165.2391248
  80.4248842  89.9586223 165.5783345  81.1979718  89.4115210 165.4396221
  80.7774241  90.8230472 165.7897806  82.7615120  86.1178889 163.2101795
  83.0140640  85.5960410 162.4485258  81.8239679  85.9545034 163.3128478
  87.9768480  90.5587517 165.7165195  87.3414313  90.6322144 166.4286099
  87.6465886  91.1481116 165.0384274  82.4811409  88.0206995 165.4126170
  82.3647667  87.3451898 166.0807254  82.5913668  87.5339369 164.5958323
  84.8242949  87.4817142 169.1172859  84.4601157  86.9547763 169.8285780
  85.6810065  87.0915611 168.9439344  84.4648436  82.5107041 164.1134207
  84.6322839  83.3787278 164.4804678  84.2745606  82.6734323 163.1895497
  84.4437657  84.9664699 165.0980874  84.3237283  85.4121750 165.9366354
  83.7490246  85.3150017 164.5394412  90.1422723  85.4386172 165.9261208
  91.0540580  85.6713559 165.7508906  89.6332371  86.0223216 165.3636287
  83.2389154  86.2809551 167.3914440  83.9413197  86.7330595 167.8588366
  82.9069782  85.6393370 168.0194333  76.9814488  84.5393104 172.6931573
  76.1913542  84.7950632 172.2171684  77.4725735  85.3541442 172.7983614
  78.9329233  84.9037683 169.6515050  78.1360396  85.0156377 170.1698546
  78.7054825  85.2424335 168.7855941  77.9312316  90.6125932 168.0404470
  78.4436836  91.4069182 168.1910035  78.5835029  89.9152222 167.9738072
  75.8961233  88.9414586 168.8164041  76.7336455  89.3511594 168.5997748
  76.0739500  88.0014028 168.7864235  87.7925665  86.6089667 164.5047874
  87.2772288  87.3794271 164.7436261  87.5202973  85.9354803 165.1280935
  85.3772776  81.4539367 169.5633112  84.5214372  81.0646218 169.3838751
  85.7899727  81.5331328 168.7032898  83.1514808  79.0724440 172.9690854
  84.0167805  78.8767249 172.6096743  83.2192317  78.8434792 173.8960210
  87.5811968  84.4816759 166.3307655  87.2762103  84.7962908 167.1817798
  88.5342410  84.5598179 166.3734988  86.0258400  90.6406982 167.9800609
  85.4979761  89.9059742 167.6673846  85.5245902  91.4181658 167.7340577
  80.7577127  81.3026648 170.3407220  81.3320879  81.0801830 169.6080413
  81.3448110  81.3715343 171.0935822  81.0846714  83.3331109 164.3603106
  80.2484027  83.6705796 164.6812380  80.9451484  83.1980089 163.4230243
  83.0599795  78.1767897 169.0682290  82.4064207  77.8616914 168.4438905
  83.0180269  77.5543638 169.7942113  84.1711000  88.4587192 160.9835582
  83.2638062  88.2276446 161.1826731  84.6682032  87.6624812 161.1709563
  87.0772583  86.0641246 168.5232618  87.8244402  86.5762644 168.2139740
  87.3464173  85.7425299 169.3837011  85.3499233  88.5599787 165.5059572
  84.4410453  88.2758820 165.6032042  85.3794317  88.9798866 164.6462879
  89.5251420  83.0998363 170.5051407  88.7874177  82.5875749 170.8361650
  89.7778194  82.6598744 169.6934684  89.6263048  75.8774615 171.0993176
  89.9321924  75.0171978 170.8119091  90.3515652  76.4692235 170.8992170
  75.9187404  86.2805301 169.4874774  75.7211803  85.6874662 168.7625841
  75.3634068  85.9757512 170.2050713  85.0475321  90.1008531 162.8447651
  84.6094751  89.3844390 162.3853288  85.7885762  90.3284646 162.2832742
  81.8376487  84.7905468 169.3659746  81.0244353  85.0899638 169.7724938
  82.3335481  84.3961156 170.0834228  78.4133629  85.8069335 167.1715726
  77.4831217  85.7453791 167.3885688  78.5091101  85.2845288 166.3752368
  78.3319178  82.3324148 169.7593968  78.5925996  83.2469481 169.6503128
  79.1536351  81.8648591 169.9090581  89.1686549  88.9592913 162.4379708
  88.5515719  88.2339741 162.3412761  88.7003037  89.7202273 162.0946782
  80.9585095  83.1778337 161.5601012  80.0814561  83.0567138 161.1963259
  81.4342848  82.3864415 161.3079901  72.4787235  87.9655497 171.6542520
  73.1658275  87.6517227 171.0663535  72.3235363  88.8696861 171.3809771
  77.2821957  82.8545693 176.0827543  77.1980146  82.2471363 175.3477953
  76.4604663  83.3454711 176.0837040  87.4545671  81.3399257 171.4497738
  87.9514370  80.5869219 171.1298809  86.6832652  81.3763573 170.8840948
  84.0380639  83.4816640 171.1769423  83.6678427  82.9287680 171.8650329
  84.5339732  82.8774773 170.6244423  72.0555211  86.0456090 173.9259987
  72.0939310  85.5119681 174.7197105  71.5495504  85.5191295 173.3070964
  75.6863788  84.7720192 167.0013918  75.9817230  83.8630870 166.9480972
  74.7851824  84.7507932 166.6794920  79.2158035  82.8476189 172.9841467
  78.4944621  83.4612156 172.8448940  80.0051291  83.3833953 172.9058113
  77.4151630  82.4534290 167.1253243  77.0864336  81.5731669 166.9428349
  77.7691001  82.3981958 168.0129632  80.5293453  82.7407260 167.4928721
  80.8689526  83.2693181 166.7707329  80.9765574  83.0787666 168.2687287
  82.5161600  81.2381881 165.6922014  83.2369963  81.6163134 165.1885731
  81.8926904  81.9570758 165.7956992  86.6592723  81.9427030 166.6280346
  86.8756338  82.8251668 166.3269174  86.1786790  81.5513244 165.8985988
  83.2588327  81.8915291 173.2531980  83.2449896  80.9956385 172.9164278
  83.9760756  81.8985955 173.8870266  82.6625223  80.7729672 168.5219550
  82.7841135  79.8446318 168.7210438  82.3727266  80.7868358 167.6097866
  85.5316414  78.4584582 171.6586270  85.5538111  78.5223915 170.7038250
  85.9484473  77.6189091 171.8526776  81.6355282  92.3583804 166.6135437
  81.7843403  93.0419269 165.9602110  82.4421726  92.3388894 167.1284893
  79.3907915  88.3848982 167.6196506  79.1453957  87.4811312 167.8176716
  79.5603830  88.3866132 166.6775984  78.6603563  84.1177339 165.1182668
  77.9672808  84.1921694 164.4622704  78.4155315  83.3537683 165.6404185
  87.3317219  75.6772941 172.5222159  87.6118973  75.0096130 173.1482585
  88.1167826  75.8702036 172.0096822  85.1350688  94.8531935 164.0847185
  84.5624655  95.4722122 163.6317657  85.7083482  95.4031296 164.6187107
  90.9835964  94.4534955 162.1759715  90.9049596  94.1194819 163.0695473
  91.8045631  94.9456723 162.1751187  85.5197486  86.1892747 161.4263237
  86.4656591  86.0598956 161.4951655  85.1411731  85.4507409 161.9032666
  91.4919371  77.8548754 171.3890129  91.2944192  77.5463842 172.2733461
  92.1019077  78.5810392 171.5188059  83.7040404  84.1142724 161.3618123
  82.7971859  83.8175837 161.4380836  83.9816385  83.8172542 160.4952409
  74.6218344  85.4349087 171.8117169  74.3021128  84.5814395 171.5191543
  74.0751772  85.6497665 172.5675136  85.3202469  78.6579614 167.5162364
  84.5103198  78.3126699 167.8917610  86.0086886  78.3487157 168.1049975
  87.2493018  77.7357660 169.1386661  87.8024056  78.1553114 169.7976684
  87.4863104  76.8093409 169.1809617  82.4739188  80.9729659 161.5030102
  83.3358352  81.2984557 161.7625919  82.6589532  80.1861155 160.9903168
  90.6271825  79.8458186 168.6465325  90.0470494  80.5042990 168.2643377
  90.3607757  79.0235530 168.2352742  89.0775391  79.2463243 170.8486645
  89.5775169  79.3579778 170.0400964  89.7210999  78.9424296 171.4887454
  76.4043346  88.9870253 171.6576305  76.3814035  89.0857940 170.7058189
  76.7143983  89.8335403 171.9793472  89.4096703  82.0058276 167.7021673
  88.5222558  82.2907927 167.4841868  89.8250692  81.8452039 166.8548950
  88.5539916  91.7702951 161.7969693  89.2575766  91.9752953 162.4127349
  87.8302565  92.3379712 162.0618777  89.3837726  87.5212812 167.9171963
  89.3272928  87.9781363 167.0779596  89.9366069  86.7603496 167.7394806
  93.1942532  83.3102544 168.7422083  92.9379467  82.9099179 169.5730290
  92.5695400  84.0246338 168.6172222  90.4626614  92.2085480 163.8468153
  91.2972217  91.7766678 163.6645628  90.3010956  92.0367493 164.7745048
  90.1172506  88.7117593 165.2124492  90.0621309  88.5461865 164.2712936
  89.4918561  89.4193626 165.3686682  83.4268631  78.2125702 164.7909811
  83.4147301  79.1567542 164.9478082  84.3192053  78.0295848 164.4969272
  87.2420751  74.8068479 169.0455748  86.4753146  74.2526965 169.1912430
  87.6531456  74.8790348 169.9069899  75.6599462  54.5467290 151.9041517
  75.0087441  55.1321371 151.5175531  76.4543824  55.0773485 151.9636554
  69.5855089  51.6356428 152.3028651  70.3585965  51.0885415 152.1641527
  69.9380488  52.5000677 152.5143113  71.9221367  47.7949094 149.9347101
  72.1746887  47.2730615 149.1730564  70.9845926  47.6315239 150.0373785
  77.1374727  52.2357722 152.4410501  76.5020560  52.3092349 153.1531406
  76.8072133  52.8251321 151.7629581  71.6417655  49.6977200 152.1371476
  71.5253913  49.0222103 152.8052561  71.7519915  49.2109574 151.3203629
  73.6254683  44.1877246 150.8379514  73.7929086  45.0557483 151.2049985
  73.4351852  44.3504528 149.9140803  73.6043904  46.6434904 151.8226181
  73.4843529  47.0891955 152.6611661  72.9096492  46.9920222 151.2639719
  71.3650796  59.4138546 155.4716312  71.2874826  60.3646371 155.5504793
  70.7612440  59.0684418 156.1291238  79.3028970  47.1156377 152.6506515
  80.2146826  47.3483764 152.4754212  78.7938617  47.6993421 152.0881593
  81.7887784  53.0336633 157.3964460  81.1038823  53.4135535 156.8461493
  81.8731634  53.6431960 158.1296408  73.4626514  51.8356604 157.3070181
  73.9264860  52.1144307 156.5174804  73.1983313  50.9340048 157.1243272
  72.3995400  47.9579756 154.1159747  73.1019444  48.4100800 154.5833673
  72.0676029  47.3163575 154.7439640  88.2490537  49.9007296 158.5167132
  87.4954245  49.3314694 158.3611137  88.3838078  49.8669961 159.4637767
  73.6389165  54.7720699 154.1921852  73.5034840  55.6172234 154.6206700
  74.1798978  54.9739976 153.4287786  67.0918562  52.2896137 154.7649777
  67.6043083  53.0839387 154.9155342  67.7441275  51.5922427 154.6983378
  68.9013447  55.4061893 156.8472530  69.0780076  56.3279858 156.6593514
  69.6970281  55.0920312 157.2766910  76.9531911  48.2859872 151.2293180
  76.4378535  49.0564476 151.4681568  76.6809220  47.6125008 151.8526242
  81.9266186  51.0392226 153.1646354  81.1495628  50.7003386 152.7201516
  82.6057667  51.0444849 152.4901319  76.7418215  46.1586964 153.0552962
  76.4368350  46.4733113 153.9063105  77.6948657  46.2368384 153.0980295
  75.1864646  52.3177187 154.7045915  74.6586008  51.5829947 154.3919153
  74.6852149  53.0951863 154.4585884  80.1657492  50.5126208 159.8212962
  79.5081167  51.2025469 159.9093090  80.9697892  50.9022639 160.1646948
  78.9762951  48.8670580 157.8716904  79.4894833  49.5000572 158.3738613
  79.6264175  48.2671776 157.5060264  70.2452961  45.0101314 151.0848412
  69.4090273  45.3476001 151.4057687  70.1057731  44.8750294 150.1475549
  73.3317247  50.1357397 147.7080889  72.4244308  49.9046651 147.9072038
  73.8288279  49.3395017 147.8954870  76.2385325  58.8454904 150.6277575
  75.5647024  59.1486601 151.2362533  76.6251147  59.6483985 150.2783032
  76.2378830  47.7411451 155.2477924  76.9850649  48.2532849 154.9385046
  76.5070419  47.4195504 156.1082318  74.5105480  50.2369992 152.2304879
  73.6016699  49.9529025 152.3277348  74.5400564  50.6569071 151.3708185
  79.7424747  53.8476582 155.9996046  79.2887075  53.0067492 156.0561237
  79.1118714  54.4837980 156.3370826  78.1857687  55.6853078 156.9345864
  78.4780661  56.2458135 156.2158230  78.6956307  55.9781639 157.6899023
  74.2081568  51.7778736 149.5692957  73.7700998  51.0614595 149.1098595
  74.9492009  52.0054851 149.0078049  73.1491312  56.4633429 158.0239318
  73.1067491  56.6894276 157.0947850  74.0654011  56.2296804 158.1725119
  82.3254683  50.0535933 155.6269276  82.1872581  50.2437529 154.6990465
  81.9690901  50.8155316 156.0837327  82.3524062  52.1212460 160.6380547
  82.7860569  52.0287749 161.4863601  83.0655643  52.0969960 160.0000563
  74.4376541  59.0134577 152.8424654  74.6128296  58.5422620 153.6570277
  73.7509329  59.6400343 153.0705915  78.3292795  50.6363117 149.1625015
  77.7121966  49.9109946 149.0658067  77.8609284  51.3972478 148.8192089
  69.0037626  62.1623940 159.6164514  69.2434224  62.7942464 160.2943533
  68.1606822  61.8111980 159.9029873  70.1191341  44.8548542 148.2846319
  69.2420808  44.7337343 147.9208566  70.5949094  44.0634620 148.0325208
  73.3055267  57.2074832 155.5308840  72.5222789  57.7496512 155.6247064
  74.0048013  57.7248812 155.9303081  84.4681675  48.7209827 159.8161336
  84.4571551  49.6034543 159.4455270  83.5999054  48.3681378 159.6215874
  77.6981698  51.7741149 155.7481468  76.7637977  51.8942611 155.5786173
  77.8758367  50.8713616 155.4841478  81.0854250  47.6158468 156.2831503
  81.5514702  48.4486460 156.2091805  81.5361750  47.1503450 156.9876761
  79.1530481  53.9602289 153.2817655  79.4290325  53.8458884 154.1911529
  78.2834979  53.5619774 153.2429828  75.7884545  58.2088640 156.9250468
  75.9706939  57.3910296 157.3878220  76.6117531  58.4256332 156.4875358
  76.1226710  57.1356825 154.1865517  76.6514477  56.6249280 153.5735679
  76.3854930  56.8199356 155.0511050  69.4782458  58.1871942 156.9463293
  68.8092833  58.6718070 156.4627333  69.3395328  58.4341162 157.8606671
  76.7556114  58.1697661 160.5309633  76.6307253  57.3687401 160.0220579
  77.4135205  58.6643854 160.0423603  78.8191022  55.9706681 162.1589183
  77.8721358  55.8512032 162.0867510  79.1673795  55.0829179 162.2415445
  75.8237456  55.7659397 158.3593535  75.6762418  54.8376105 158.5401105
  76.6490949  55.7879488 157.8750611  79.4271577  56.5887956 159.4458408
  80.3518125  56.3830817 159.3082859  79.2586881  56.3404357 160.3547750
  75.8198970  43.6197235 153.3525653  76.0362584  44.5021873 153.0514481
  75.3393037  43.2283448 152.6231295  79.2166894  57.1073624 154.8020500
  79.3903771  56.5420046 154.0494352  79.7095785  57.9074518 154.6199990
  85.0706285  49.8710047 156.4210799  85.5137431  49.1217372 156.0229923
  84.1932795  49.8620183 156.0384531  80.2042066  56.4240388 151.9017398
  80.8992971  57.0447081 152.1204713  80.5465216  55.5735739 152.1769776
  82.1033489  53.8740093 153.4304729  82.6284813  54.2127366 152.7054049
  82.0155842  52.9387109 153.2467863  73.7874150  59.9412077 157.7899982
  73.3479140  59.4488455 158.4832839  74.5382267  59.3985044 157.5492057
  70.7961529  54.0354009 153.3380744  70.9449649  54.7189474 152.6847417
  71.6027973  54.0159099 153.8530200  84.6139150  51.3415285 158.8133247
  85.4486041  51.7805089 158.9770807  84.7498278  50.8653938 157.9941493
  74.2956935  56.5302140 150.8092491  73.7230902  57.1492327 150.3562963
  74.8689728  57.0801501 151.3432413  77.5154194  56.8139290 151.9401074
  78.4484868  56.7484851 152.1433949  77.4277407  57.6495557 151.4815606
  80.1442211  56.1305160 148.9005021  80.0655843  55.7965024 149.7940779
  80.9651878  56.6226928 148.8996494  74.6803733  47.8662952 148.1508544
  75.6262838  47.7369161 148.2196962  74.3017978  47.1277614 148.6277972
  88.6596952  50.0582906 161.2487377  89.3900341  49.7968194 161.8095080
  88.0503898  49.3211628 161.2889445  72.8646650  45.7912929 148.0863429
  71.9578106  45.4946042 148.1626143  73.1422631  45.4942747 147.2197715
  71.6345435  42.6499864 148.2275408  72.4964599  42.9754762 148.4871226
  71.8195779  41.8631360 147.7148474  78.5702949  43.6828481 154.4266980
  77.6828804  43.9678131 154.2087174  78.9856938  43.5222244 153.5794257
  77.7146163  53.4473156 148.5215000  78.4182013  53.6523158 149.1372655
  76.9908812  54.0149917 148.7864083  78.5443973  49.1983017 154.6417270
  78.4879175  49.6551568 153.8024902  79.0972316  48.4373701 154.4640113
  82.3548779  44.9872749 155.4667389  82.0985713  44.5869384 156.2975597
  81.7301647  45.7016543 155.3417528  86.6661117  47.7268822 157.9738681
  86.1060675  47.7962011 158.7470243  86.0604620  47.5509807 157.2538177
  69.7356326  59.1605549 159.7256867  69.6188710  60.1050981 159.6235557
  68.9148772  58.8579111 160.1142666  79.6232860  53.8855685 150.5713460
  80.4578464  53.4536883 150.3890935  79.4617203  53.7137698 151.4990354
  79.2778752  50.3887798 151.9369799  79.2227556  50.2232069 150.9958243
  78.6524808  51.0963831 152.0931989  72.5164442  58.5664797 159.6022874
  71.5660073  58.5666659 159.4887246  72.8196928  57.8197532 159.0858909
  88.2517135  64.4025336 160.6668636  88.8895545  64.2832083 159.9631977
  88.1337978  65.3506180 160.7256589  85.0606842  64.3552764 160.6030161
  84.7225353  64.2393829 159.7150696  85.9296610  63.9543929 160.5831167
  80.9193657  66.2088240 156.5927052  80.3558522  66.1178177 155.8243340
  80.8046052  65.3888145 157.0729545  85.5426625  65.5087616 166.5616367
  85.5315265  65.1140414 165.6896870  85.7047264  64.7753688 167.1550138
  78.4658089  67.7039432 159.4311273  79.2579381  67.3630257 159.0157572
  78.7054739  67.8134407 160.3513426  86.4993216  69.8759208 151.9041517
  85.8481196  70.4613288 151.5175531  87.2937579  70.4065403 151.9636554
  80.4248843  66.9648345 152.3028651  81.1979719  66.4177332 152.1641527
  80.7774242  67.8292595 152.5143113  82.2633886  68.2924727 165.5095551
  81.9723752  69.1970358 165.3942217  82.8990870  68.3341255 166.2239620
  83.1890093  65.6701576 162.0996910  83.7853665  65.4457598 161.3853873
  83.2465064  64.9286321 162.7022358  82.7615121  63.1241011 149.9347101
  83.0140642  62.6022533 149.1730564  81.8239680  62.9607157 150.0373785
  87.8058404  62.1276790 157.7421844  88.5921493  61.7096213 157.3912262
  88.0697108  63.0322882 157.9103493  87.9768481  67.5649640 152.4410501
  87.3414314  67.6384267 153.1531406  87.6465888  68.1543239 151.7629581
  93.2066831  62.0652023 158.6454823  93.9392003  61.4951240 158.8792652
  92.4506187  61.6773623 159.0861329  82.4811410  65.0269117 152.1371476
  82.3647668  64.3514021 152.8052561  82.5913670  64.5401491 151.3203629
  84.8242951  64.4879264 155.8418165  84.4601158  63.9609885 156.5531087
  85.6810067  64.0977733 155.6684651  90.7292251  55.7773597 163.1049432
  90.3975576  56.6469008 162.8810647  90.1337865  55.4609881 163.7843462
  84.4648438  59.5169164 150.8379514  84.6322840  60.3849400 151.2049985
  84.2745607  59.6796446 149.9140803  87.2223771  67.9786143 162.5045344
  86.9224494  68.8811182 162.3961152  86.8774830  67.7118326 163.3566497
  80.6736252  64.4299940 158.5382049  79.7486749  64.2976154 158.7459741
  80.9220666  65.2094159 159.0351991  90.6220915  60.4968683 160.1842782
  89.7137792  60.4284092 159.8901543  90.5708510  60.9740628 161.0124607
  84.4437659  61.9726822 151.8226181  84.3237284  62.4183872 152.6611661
  83.7490247  62.3212139 151.2639719  78.0345063  64.0733213 159.3725838
  78.1637445  64.3267692 160.2865250  77.3542515  64.6660921 159.0530493
  82.2044551  74.7430463 155.4716312  82.1268580  75.6938288 155.5504793
  81.6006194  74.3976336 156.1291238  84.6961780  61.9158329 168.1277679
  83.9195115  62.4752249 168.1180544  85.3352344  62.4015112 168.6492549
  92.4882561  58.6985122 161.9620656  91.8456941  58.9917655 161.3160450
  91.9837490  58.5838042 162.7673852  90.1422725  62.4448295 152.6506515
  91.0540581  62.6775682 152.4754212  89.6332372  63.0285339 152.0881593
  82.9508153  64.7243782 167.6895646  83.6922837  65.2628826 167.4130470
  82.2445138  65.3510071 167.8467198  88.4263492  66.8672923 166.2867807
  88.8346848  66.4255333 165.5422440  87.7040754  66.2925550 166.5402000
  84.7794562  61.8045529 163.6601364  85.6255758  62.2284943 163.8036013
  84.7193200  61.1479154 164.3539927  88.7492307  67.4274113 160.0420096
  88.1201169  67.5919827 159.3396164  88.3617969  67.8415723 160.8131060
  92.6281539  68.3628551 157.3964460  91.9432577  68.7427452 156.8461493
  92.7125388  68.9723878 158.1296408  87.9294008  59.4649898 165.3182538
  87.6854940  60.2191958 164.7816814  88.2053938  59.8435245 166.1529785
  89.8832471  66.0088510 163.9959804  90.0949366  66.6520270 163.3194185
  89.8362219  65.1750827 163.5281734  87.4858700  58.6206331 160.8996376
  86.6243179  58.9187584 161.1913113  87.5121134  58.8376730 159.9677408
  84.3020269  67.1648521 157.3070181  84.7658614  67.4436224 156.5174804
  84.0377067  66.2631966 157.1243272  81.1944350  66.7120003 160.2449945
  81.7645707  67.1407271 159.6067429  81.7852462  66.4302588 160.9434130
  83.2389155  63.2871674 154.1159747  83.9413198  63.7392717 154.5833673
  82.9069783  62.6455493 154.7439640  76.9814489  61.5455226 159.4176880
  76.1913543  61.8012755 158.9416991  77.4725736  62.3603564 159.5228921
  90.9978298  68.8860466 162.1682161  91.8195742  68.4840653 161.8864843
  90.9940701  68.7828700 163.1198277  78.9329234  61.9099806 156.3760357
  78.1360398  62.0218500 156.8943852  78.7054827  62.2486458 155.5101247
  84.7634902  68.4344509 164.3242871  84.8279334  68.8964916 165.1601043
  84.0545826  67.8041874 164.4525181  75.2652192  61.7985717 161.8491871
  75.5160230  62.6832727 162.1149447  75.8011740  61.6190318 161.0766963
  99.0884292  65.2299214 158.5167132  98.3348000  64.6606612 158.3611137
  99.2231833  65.1961878 159.4637767  84.4782920  70.1012616 154.1921852
  84.3428594  70.9464152 154.6206700  85.0192732  70.3031894 153.4287786
  77.9312317  67.6188054 154.7649777  78.4436838  68.4131305 154.9155342
  78.5835030  66.9214345 154.6983378  79.7407202  70.7353811 156.8472530
  79.9173830  71.6571775 156.6593514  80.5364035  70.4212230 157.2766910
  86.1051396  70.7236183 168.3222194  85.6615250  69.9372561 168.0043098
  86.7668610  70.9115333 167.6566085  80.8638517  72.2531984 162.8482872
  81.4145942  72.1249048 162.0759866  80.0249993  72.5526873 162.4977765
  88.2032634  71.0038983 166.3503595  88.1851109  71.8247864 165.8583864
  89.1252554  70.8793058 166.5753736  84.6605688  68.5183112 167.1927103
  85.1934025  67.7571400 166.9626411  84.1319769  68.2256764 167.9351258
  87.8275383  53.6243178 162.7220745  87.4839653  54.5144820 162.6459856
  88.1954346  53.4344836 161.8590330  75.8961234  65.9476709 155.5409347
  76.7336456  66.3573717 155.3243055  76.0739501  65.0076151 155.5109541
  87.7925666  63.6151789 151.2293180  87.2772289  64.3856394 151.4681568
  87.5202974  62.9416925 151.8526242  85.3772777  58.4601490 156.2878419
  84.5214373  58.0708340 156.1084057  85.7899729  58.5393451 155.4278204
  86.9071924  55.9947833 160.6869978  86.4036719  55.9577968 159.8737784
  87.2002530  56.9040576 160.7466635  83.1514809  56.0786563 159.6936160
  84.0167806  55.8829372 159.3342050  83.2192318  55.8496915 160.6205517
  92.7659940  66.3684144 153.1646354  91.9889383  66.0295303 152.7201516
  93.4451421  66.3736767 152.4901319  87.5811969  61.4878881 153.0552962
  87.2762105  61.8025031 153.9063105  88.5342411  61.5660301 153.0980295
  86.0258401  67.6469105 154.7045915  85.4979762  66.9121864 154.3919153
  85.5245904  68.4243781 154.4585884  91.0051247  65.8418125 159.8212962
  90.3474921  66.5317387 159.9093090  91.8091646  66.2314557 160.1646948
  80.7577129  58.3088771 157.0652527  81.3320880  58.0863952 156.3325720
  81.3448111  58.3777465 157.8181128  89.8156706  64.1962498 157.8716904
  90.3288587  64.8292490 158.3738613  90.4657930  63.5963693 157.5060264
  81.0846716  60.3393232 151.0848412  80.2484028  60.6767919 151.4057687
  80.9451485  60.2042212 150.1475549  83.0599796  55.1830020 155.7927596
  82.4064209  54.8679037 155.1684211  83.0180270  54.5605760 156.5187419
  84.1711001  65.4649315 147.7080889  83.2638063  65.2338568 147.9072038
  84.6682033  64.6686934 147.8954870  87.0779080  74.1746822 150.6277575
  86.4040779  74.4778519 151.2362533  87.4644902  74.9775902 150.2783032
  86.2937537  61.6711953 160.1175244  85.3760098  61.8926900 159.9596932
  86.7097680  61.7458264 159.2586951  87.0772584  63.0703369 155.2477924
  87.8244403  63.5824766 154.9385046  87.3464174  62.7487422 156.1082318
  85.3499235  65.5661910 152.2304879  84.4410454  65.2820943 152.3277348
  85.3794318  65.9860988 151.3708185  90.5818502  69.1768499 155.9996046
  90.1280829  68.3359409 156.0561237  89.9512469  69.8129898 156.3370826
  89.5251421  60.1060485 157.2296714  88.7874178  59.5937872 157.5606956
  89.7778195  59.6660867 156.4179991  89.0251441  71.0144996 156.9345864
  89.3174416  71.5750053 156.2158230  89.5350062  71.3073557 157.6899023
  89.6263049  52.8836737 157.8238483  89.9321926  52.0234101 157.5364398
  90.3515654  53.4754358 157.6237477  75.9187405  63.2867424 156.2120081
  75.7211805  62.6936785 155.4871147  75.3634069  62.9819634 156.9296020
  83.8984129  63.1790530 158.3314674  83.9532738  62.2264367 158.2557151
  83.0875331  63.3349970 158.8155972  85.0475322  67.1070653 149.5692957
  84.6094752  66.3906512 149.1098595  85.7885763  67.3346768 149.0078049
  81.8376488  61.7967590 156.0905053  81.0244354  62.0961761 156.4970245
  82.3335483  61.4023279 156.8079535  83.9885066  71.7925347 158.0239318
  83.9461245  72.0186193 157.0947850  84.9047765  71.5588722 158.1725119
  87.4350700  62.2609415 164.9219947  87.7900088  62.4880888 165.7814412
  88.0822831  62.5927791 164.2997202  93.1648437  65.3827851 155.6269276
  93.0266336  65.5729447 154.6990465  92.8084656  66.1447233 156.0837327
  81.3290563  59.3685946 161.7066288  81.9689943  59.2274705 161.0089251
  80.4968094  59.0820459 161.3304890  93.1917817  67.4504378 160.6380547
  93.6254323  67.3579667 161.4863601  93.9049397  67.4261878 160.0000563
  82.1050867  68.6688376 157.8201280  82.8991466  68.1738696 157.6183855
  81.3942560  68.1406239 157.4568986  86.9245712  71.0506472 162.1713648
  86.9782734  71.6197408 162.9391364  86.0560493  71.2208357 161.8067685
  78.4133631  62.8131458 153.8961033  77.4831219  62.7515913 154.1130995
  78.5091103  62.2907411 153.0997674  78.3319180  59.3386271 156.4839275
  78.5925997  60.2531604 156.3748435  79.1536352  58.8710713 156.6335887
  79.8044105  60.7524028 163.6538099  80.4767158  60.5441390 163.0050748
  78.9773892  60.5546114 163.2143331  94.0533366  67.4928078 163.1713433
  94.2469256  68.3973889 163.4172708  93.9533984  67.0335497 164.0052018
  85.7069677  57.3785969 165.6703760  85.0597592  58.0775918 165.5768236
  86.4770692  57.8122113 166.0380008  89.1148475  67.6434821 168.7454313
  88.9633981  67.4145373 167.8284397  89.1053154  68.6005422 168.7585658
  85.8833811  65.2166734 163.7300580  86.8125871  65.3677893 163.5569547
  85.4624841  65.3050754 162.8749226  84.6822143  69.2417398 161.4999117
  84.5433229  68.8736182 162.3725055  83.8936739  69.7565038 161.3283075
  85.2770295  74.3426495 152.8424654  85.4522051  73.8714538 153.6570277
  84.5903083  74.9692261 153.0705915  86.2327358  68.6199001 158.8887955
  85.8977191  68.5799771 159.7845605  85.7331304  67.9543717 158.4158365
  80.2071602  64.0266631 164.4140536  80.0691400  63.2946870 165.0152075
  81.1176526  63.9375531 164.1324724  89.1686550  65.9655035 149.1625015
  88.5515721  65.2401863 149.0658067  88.7003038  66.7264395 148.8192089
  82.8353903  63.7386590 163.9024216  83.5453521  63.0979782 163.8610834
  82.7923211  63.9899485 164.8250397  90.8240682  70.6753943 166.8230795
  90.7653228  69.9913164 166.1561378  91.2260200  71.4172933 166.3711421
  79.8431380  77.4915857 159.6164514  80.0827979  78.1234381 160.2943533
  79.0000577  77.1403897 159.9029873  80.9585096  60.1840459 148.2846319
  80.0814562  60.0629260 147.9208566  81.4342849  59.3926538 148.0325208
  90.8258089  68.6393527 165.0544775  89.9384868  68.3019449 165.1771174
  91.3956640  67.9076559 165.2913540  72.4787236  64.9717619 158.3787826
  73.1658276  64.6579349 157.7908842  72.3235365  65.8758984 158.1055078
  77.2821958  59.8607816 162.8072850  77.1980147  59.2533485 162.0723260
  76.4604665  60.3516834 162.8082346  84.3559242  73.2994980 162.0206018
  84.2829414  74.1049951 162.5325323  83.9136635  73.4986946 161.1954039
  84.1449022  72.5366750 155.5308840  83.3616544  73.0788430 155.6247064
  84.8441767  73.0540729 155.9303081  87.4545672  58.3461379 158.1743045
  87.9514372  57.5931342 157.8544115  86.6832653  58.3825696 157.6086254
  95.3075429  64.0501745 159.8161336  95.2965306  64.9326460 159.4455270
  94.4392809  63.6973296 159.6215874  86.8157926  73.1981814 164.1764177
  87.5285898  73.8329279 164.1040078  86.3247954  73.2945680 163.3604179
  88.5375453  67.1033066 155.7481468  87.6031731  67.2234529 155.5786173
  88.7152121  66.2005533 155.4841478  84.0380641  60.4878762 157.9014730
  83.6678428  59.9349803 158.5895635  84.5339733  59.8836896 157.3489730
  91.9248004  62.9450386 156.2831503  92.3908456  63.7778377 156.2091805
  92.3755505  62.4795367 156.9876761  81.8669839  70.9476257 164.9969748
  82.5679299  71.5812740 165.1499142  81.3964954  71.2890989 164.2365387
  89.9924235  69.2894207 153.2817655  90.2684079  69.1750802 154.1911529
  89.1228734  68.8911692 153.2429828  89.8964667  55.3130973 160.3222404
  88.9827747  55.5435200 160.4904611  90.3257768  55.3969417 161.1736436
  89.6671125  63.5020865 162.8222298  89.0142576  63.7496772 162.1674751
  90.0451505  62.6885003 162.4884775  86.6278299  73.5380558 156.9250468
  86.8100694  72.7202214 157.3878220  87.4511285  73.7548250 156.4875358
  86.9620465  72.4648743 154.1865517  87.4908231  71.9541198 153.5735679
  87.2248684  72.1491273 155.0511050  77.4637557  70.4812612 161.9300850
  78.0490994  69.7356300 162.0628754  77.2662396  70.7916569 162.8137514
  80.3176213  73.5163860 156.9463293  79.6486588  74.0009987 156.4627333
  80.1789082  73.7633080 157.8606671  72.0555212  63.0518213 160.6505293
  72.0939312  62.5181803 161.4442411  71.5495505  62.5253418 160.0316271
  84.4581481  75.5507603 163.5445951  85.0099789  75.7139225 164.3095036
  84.7987675  76.1412041 162.8725976  89.3092356  70.3768861 169.3994605
  89.8532259  70.9898819 168.9049560  88.7279200  70.9348439 169.9161618
  75.6863790  61.7782315 153.7259225  75.9817231  60.8692993 153.6726278
  74.7851825  61.7570054 153.4040227  87.5949868  73.4989579 160.5309633
  87.4701008  72.6979319 160.0220579  88.2528960  73.9935772 160.0423603
  79.2158037  59.8538311 159.7086773  78.4944622  60.4674279 159.5694247
  80.0051292  60.3896076 159.6303419  89.6584777  71.2998599 162.1589183
  88.7115112  71.1803950 162.0867510  90.0067550  70.4121097 162.2415445
  77.4151631  59.4596412 153.8498550  77.0864337  58.5793791 153.6673656
  77.7691002  59.4044081 154.7374939  86.6631210  71.0951315 158.3593535
  86.5156173  70.1668022 158.5401105  87.4884704  71.1171406 157.8750611
  80.5293454  59.7469382 154.2174028  80.8689527  60.2755303 153.4952636
  80.9765575  60.0849788 154.9932594  90.2665332  71.9179874 159.4458408
  91.1911879  71.7122735 159.3082859  90.0980635  71.6696275 160.3547750
  83.2236895  58.1306433 163.6677096  82.8833716  57.3314246 164.0697775
  82.5175902  58.4308144 163.0953929  83.8753367  55.2155745 162.1204419
  84.6979436  54.7416223 161.9983309  84.1191431  55.9946229 162.6203105
  82.5161602  58.2444004 152.4167320  83.2369964  58.6225257 151.9131037
  81.8926906  58.9632881 152.5202298  86.6592724  58.9489153 153.3525653
  86.8756339  59.8313791 153.0514481  86.1786792  58.5575366 152.6231295
  81.3991946  61.9074866 159.9296397  81.2536527  62.2215169 160.8220679
  80.9217149  62.5259766 159.3767296  83.2588329  58.8977414 159.9777287
  83.2449897  58.0018507 159.6409585  83.9760757  58.9048078 160.6115573
  85.1114459  59.3314754 162.0230414  84.8532237  60.2531825 162.0214745
  84.5799500  58.9345189 162.7130878  90.0560648  72.4365541 154.8020500
  90.2297526  71.8711964 154.0494352  90.5489539  73.2366436 154.6199990
  75.8737608  64.4480210 162.8684058  75.3291076  65.2240018 163.0004333
  76.7516958  64.7951015 162.7103180  82.6625225  57.7791794 155.2464857
  82.7841136  56.8508440 155.4455744  82.3727267  57.7930480 154.3343172
  85.5316415  55.4646705 158.3831577  85.5538112  55.5286038 157.4283556
  85.9484474  54.6251213 158.5772083  95.9100039  65.2001964 156.4210799
  96.3531185  64.4509289 156.0229923  95.0326550  65.1912101 156.0384531
  91.0435821  71.7532306 151.9017398  91.7386725  72.3738998 152.1204713
  91.3858971  70.9027657 152.1769776  92.9427244  69.2032011 153.4304729
  93.4678568  69.5419284 152.7054049  92.8549596  68.2679026 153.2467863
  84.6047293  73.1166085 165.5594605  84.9134419  72.8715232 166.4317305
  85.4022775  73.3212723 165.0713476  84.6267905  75.2703994 157.7899982
  84.1872895  74.7780373 158.4832839  85.3776022  74.7276962 157.5492057
  77.1060244  71.4615535 157.7924610  77.9318263  71.1619307 157.4123253
  76.7554296  70.6923158 158.2414399  82.0741777  70.8142004 159.8622284
  81.4521786  70.1512709 159.5624511  82.7446644  70.8403135 159.1795931
  75.3068849  69.3801862 158.7513544  74.4700757  68.9524036 158.5697545
  75.2792494  69.5734305 159.6884335  92.6321150  69.8364915 168.7355927
  91.8416694  69.8189054 168.1960426  92.3954504  70.3753209 169.4904963
  92.7519025  66.6857381 166.0488655  92.8017030  66.5207389 166.9904178
  92.6432948  65.8184640 165.6586536  81.6355284  69.3645927 153.3380744
  81.7843404  70.0481391 152.6847417  82.4421727  69.3451017 153.8530200
  90.0422787  62.6688309 167.3647962  90.9432650  62.5294774 167.0731960
  90.1170762  62.8342764 168.3046139  84.3765593  60.0455164 166.2101148
  83.5068902  60.3388730 165.9383737  84.6125073  60.6295609 166.9308412
  94.2537222  69.1054323 166.2930677  93.9622030  69.4684303 167.1294138
  93.6409353  68.3921331 166.1144009  95.4532904  66.6707202 158.8133247
  96.2879795  67.1097007 158.9770807  95.5892033  66.1945856 157.9941493
  92.5024410  64.2286937 164.7610735  92.9778532  64.4214584 163.9529586
  91.5789975  64.2846123 164.5154118  79.3907917  65.3911105 154.3441813
  79.1453959  64.4873435 154.5422023  79.5603831  65.3928255 153.4021291
  87.0804626  56.2634781 163.7266569  87.5986570  56.9995808 163.4013057
  86.7259759  56.5698774 164.5613328  78.6603564  61.1239462 151.8427974
  77.9672809  61.1983817 151.1868010  78.4155316  60.3599806 152.3649491
  87.3317221  52.6835063 159.2467465  87.6118974  52.0158252 159.8727892
  88.1167828  52.8764159 158.7342129  85.1350689  71.8594057 150.8092491
  84.5624656  72.4784244 150.3562963  85.7083483  72.4093419 151.3432413
  91.2026079  61.1052697 162.9939040  92.1543502  61.2050795 163.0151264
  91.0329529  60.3130966 163.5037125  89.2240458  58.1908281 163.1798441
  88.6290391  58.4713293 162.4844930  88.9390155  58.6802182 163.9515182
  88.3547949  72.1431207 151.9401074  89.2878622  72.0776769 152.1433949
  88.2671162  72.9787474 151.4815606  90.9835966  71.4597078 148.9005021
  90.9049597  71.1256941 149.7940779  91.8045632  71.9518846 148.8996494
  93.6814157  64.3258817 162.1081340  93.6490477  63.3874818 162.2941024
  94.2914780  64.4042854 161.3747165  85.5197488  63.1954870 148.1508544
  86.4656592  63.0661078 148.2196962  85.1411733  62.4569532 148.6277972
  93.8308645  61.1169861 162.1539623  93.3147694  60.3328317 161.9669552
  94.7148594  60.7888577 162.3186143  91.4919372  54.8610876 158.1135436
  91.2944193  54.5525964 158.9978768  92.1019078  55.5872515 158.2433366
  99.4990707  65.3874824 161.2487377 100.2294095  65.1260112 161.8095080
  98.8897652  64.6503546 161.2889445  97.5806004  63.5282687 161.8461828
  96.8539167  63.3938651 161.2378320  97.1653291  63.8359515 162.6518546
  85.4036180  67.2472616 169.6109201  86.3239190  67.4251215 169.8049247
  85.3685763  66.3028662 169.4588900  83.7040405  61.1204846 148.0863429
  82.7971860  60.8237959 148.1626143  83.9816386  60.8234665 147.2197715
  74.6218345  62.4411210 158.5362476  74.3021130  61.5876518 158.2436850
  74.0751773  62.6559788 159.2920443  78.3998253  65.1573651 162.2531982
  78.6184262  66.0890759 162.2720016  78.8124027  64.7981625 163.0386786
  85.3202471  55.6641736 154.2407671  84.5103199  55.3188821 154.6162917
  86.0086887  55.3549280 154.8295282  87.2493019  54.7419783 155.8631967
  87.8024057  55.1615236 156.5221990  87.4863105  53.8155531 155.9054923
  82.4739189  57.9791782 148.2275408  83.3358353  58.3046680 148.4871226
  82.6589534  57.1923278 147.7148474  74.4906605  66.0614121 160.5055597
  73.7970077  65.6468074 159.9925552  75.2379596  66.1034658 159.9089016
  90.6271826  56.8520308 155.3710631  90.0470495  57.5105112 154.9888684
  90.3607759  56.0297653 154.9598049  89.0775392  56.2525366 157.5731952
  89.5775171  56.3641900 156.7646271  89.7211000  55.9486419 158.2132760
  76.4043348  65.9932375 158.3821612  76.3814036  66.0920062 157.4303495
  76.7143984  66.8397526 158.7038778  79.0630726  68.0508530 162.4968226
  80.0173979  68.0192473 162.4298158  78.8643249  67.5899154 163.3118452
  79.6530108  66.6209646 165.0639024  80.4722997  67.1153725 165.0873861
  79.9266915  65.7041614 165.0356592  89.4096704  59.0120399 154.4266980
  88.5222559  59.2970049 154.2087174  89.8250693  58.8514162 153.5794257
  92.7611240  59.0366920 158.1421319  93.5371630  59.5263372 158.4145936
  92.0359374  59.4624974 158.5993188  95.1983799  59.7494539 159.1995260
  95.7928289  59.5090275 158.4888568  95.2710382  59.0301669 159.8268796
  77.4180954  73.5928150 159.5138424  77.2835422  72.8328551 158.9476422
  77.0013017  74.3169050 159.0467213  88.5539917  68.7765073 148.5215000
  89.2575767  68.9815076 149.1372655  87.8302566  69.3441835 148.7864083
  89.3837728  64.5274934 154.6417270  89.3272929  64.9843486 153.8024902
  89.9366070  63.7665619 154.4640113  93.1942534  60.3164666 155.4667389
  92.9379468  59.9161302 156.2975597  92.5695402  61.0308460 155.3417528
  97.5054871  63.0560740 157.9738681  96.9454429  63.1253929 158.7470243
  96.8998375  62.8801724 157.2538177  80.5750080  74.4897467 159.7256867
  80.4582464  75.4342899 159.6235557  79.7542527  74.1871028 160.1142666
  90.4626615  69.2147602 150.5713460  91.2972219  68.7828801 150.3890935
  90.3010958  69.0429616 151.4990354  90.1172507  65.7179716 151.9369799
  90.0621311  65.5523987 150.9958243  89.4918562  66.4255749 152.0931989
  87.4318414  68.0228628 171.2623362  88.3009574  68.1969280 170.9009997
  86.9525166  68.8423044 171.1399091  83.4268632  55.2187825 151.5155117
  83.4147302  56.1629665 151.6723388  84.3192054  55.0357970 151.2214579
  81.6004594  75.1425729 162.9412795  82.5031841  75.1749339 163.2579290
  81.3741964  74.2126180 162.9559131  83.3558196  73.8956715 159.6022874
  82.4053827  73.8958577 159.4887246  83.6590683  73.1489450 159.0858909
  87.2420752  51.8130601 155.7701054  86.4753148  51.2589088 155.9157737
  87.6531457  51.8852470 156.6315206  99.0910890  79.7317254 160.6668636
  99.7289300  79.6124001 159.9631977  98.9731733  80.6798097 160.7256589
  95.9000596  79.6844682 160.6030161  95.5619108  79.5685746 159.7150696
  96.7690364  79.2835847 160.5831167  91.7587412  81.5380158 156.5927052
  91.1952277  81.4470095 155.8243340  91.6439807  80.7180062 157.0729545
  96.3820379  80.8379533 166.5616367  96.3709020  80.4432332 165.6896870
  96.5441019  80.1045606 167.1550138  89.3051844  83.0331350 159.4311273
  90.0973136  82.6922174 159.0157572  89.5448494  83.1426325 160.3513426
  97.3386971  85.2051126 151.9041517  96.6874950  85.7905206 151.5175531
  98.1331333  85.7357321 151.9636554  91.2642598  82.2940263 152.3028651
  92.0373474  81.7469250 152.1641527  91.6167997  83.1584512 152.5143113
  93.1027640  83.6216645 165.5095551  92.8117506  84.5262276 165.3942217
  93.7384625  83.6633173 166.2239620  94.0283847  80.9993494 162.0996910
  94.6247419  80.7749516 161.3853873  94.0858819  80.2578239 162.7022358
  93.6008876  78.4532929 149.9347101  93.8534396  77.9314450 149.1730564
  92.6633435  78.2899074 150.0373785  98.6452158  77.4568707 157.7421844
  99.4315248  77.0388131 157.3912262  98.9090863  78.3614800 157.9103493
  98.8162236  82.8941558 152.4410501  98.1808069  82.9676184 153.1531406
  98.4859642  83.4835157 151.7629581 104.0460585  77.3943941 158.6454823
 104.7785757  76.8243157 158.8792652 103.2899941  77.0065541 159.0861329
  93.3205164  80.3561035 152.1371476  93.2041422  79.6805938 152.8052561
  93.4307424  79.8693409 151.3203629  95.6636705  79.8171182 155.8418165
  95.2994912  79.2901803 156.5531087  96.5203821  79.4269651 155.6684651
 101.5686006  71.1065515 163.1049432 101.2369331  71.9760926 162.8810647
 100.9731619  70.7901799 163.7843462  95.3042192  74.8461082 150.8379514
  95.4716595  75.7141318 151.2049985  95.1139361  75.0088363 149.9140803
  98.0617525  83.3078061 162.5045344  97.7618248  84.2103099 162.3961152
  97.7168585  83.0410244 163.3566497  91.5130007  79.7591858 158.5382049
  90.5880503  79.6268072 158.7459741  91.7614420  80.5386077 159.0351991
 101.4614669  75.8260601 160.1842782 100.5531546  75.7576009 159.8901543
 101.4102265  76.3032546 161.0124607  95.2831413  77.3018739 151.8226181
  95.1631038  77.7475790 152.6611661  94.5884001  77.6504057 151.2639719
  88.8738818  79.4025131 159.3725838  89.0031199  79.6559610 160.2865250
  88.1936269  79.9952839 159.0530493  93.0438305  90.0722381 155.4716312
  92.9662335  91.0230206 155.5504793  92.4399949  89.7268254 156.1291238
  95.5355535  77.2450246 168.1277679  94.7588869  77.8044167 168.1180544
  96.1746098  77.7307029 168.6492549 103.3276316  74.0277039 161.9620656
 102.6850696  74.3209572 161.3160450 102.8231244  73.9129960 162.7673852
 100.9816479  77.7740212 152.6506515 101.8934335  78.0067599 152.4754212
 100.4726126  78.3577257 152.0881593  93.7901907  80.0535700 167.6895646
  94.5316592  80.5920744 167.4130470  93.0838893  80.6801989 167.8467198
  99.2657247  82.1964840 166.2867807  99.6740603  81.7547251 165.5422440
  98.5434508  81.6217468 166.5402000  95.6188317  77.1337447 163.6601364
  96.4649512  77.5576861 163.8036013  95.5586955  76.4771071 164.3539927
  99.5886062  82.7566031 160.0420096  98.9594924  82.9211745 159.3396164
  99.2011724  83.1707640 160.8131060 103.4675293  83.6920469 157.3964460
 102.7826332  84.0719370 156.8461493 103.5519143  84.3015795 158.1296408
  98.7687762  74.7941815 165.3182538  98.5248694  75.5483876 164.7816814
  99.0447693  75.1727163 166.1529785 100.7226225  81.3380428 163.9959804
 100.9343120  81.9812188 163.3194185 100.6755973  80.5042744 163.5281734
  98.3252454  73.9498248 160.8996376  97.4636933  74.2479502 161.1913113
  98.3514889  74.1668647 159.9677408  95.1414023  82.4940439 157.3070181
  95.6052369  82.7728142 156.5174804  94.8770822  81.5923884 157.1243272
  92.0338104  82.0411921 160.2449945  92.6039462  82.4699189 159.6067429
  92.6246216  81.7594505 160.9434130  94.0782909  78.6163591 154.1159747
  94.7806953  79.0684635 154.5833673  93.7463538  77.9747410 154.7439640
  92.5263271  77.2075348 168.4910956  91.8961932  77.8891629 168.7246353
  92.4199359  77.0958430 167.5464094  87.8208243  76.8747144 159.4176880
  87.0307297  77.1304673 158.9416991  88.3119491  77.6895482 159.5228921
 101.8372053  84.2152383 162.1682161 102.6589497  83.8132570 161.8864843
 101.8334456  84.1120617 163.1198277  89.7722989  77.2391723 156.3760357
  88.9754152  77.3510418 156.8943852  89.5448581  77.5778375 155.5101247
  95.6028656  83.7636426 164.3242871  95.6673089  84.2256834 165.1601043
  94.8939580  83.1333791 164.4525181  86.1045946  77.1277634 161.8491871
  86.3553985  78.0124644 162.1149447  86.6405495  76.9482236 161.0766963
 109.9278046  80.5591132 158.5167132 109.1741754  79.9898530 158.3611137
 110.0625587  80.5253796 159.4637767  95.3176674  85.4304534 154.1921852
  95.1822349  86.2756070 154.6206700  95.8586487  85.6323812 153.4287786
  91.8044014  71.5096114 170.8536207  91.4110959  70.9562312 171.5283851
  92.6210154  71.8206692 171.2442725  88.7706071  82.9479972 154.7649777
  89.2830592  83.7423222 154.9155342  89.4228784  82.2506262 154.6983378
  90.5800956  86.0645728 156.8472530  90.7567585  86.9863693 156.6593514
  91.3757790  85.7504147 157.2766910  94.7211975  72.9253993 168.4456464
  95.4621688  73.5261146 168.3660926  94.9529898  72.1831631 167.8874506
  89.8653313  78.1110360 166.7234693  89.7506828  77.2095617 167.0241792
  89.0097830  78.3574057 166.3719510  91.7032272  87.5823902 162.8482872
  92.2539697  87.4540965 162.0759866  90.8643748  87.8818791 162.4977765
  95.4999443  83.8475030 167.1927103  96.0327779  83.0863318 166.9626411
  94.9713524  83.5548682 167.9351258  98.6669138  68.9535096 162.7220745
  98.3233407  69.8436738 162.6459856  99.0348100  68.7636753 161.8590330
  86.7354988  81.2768626 155.5409347  87.5730210  81.6865635 155.3243055
  86.9133256  80.3368068 155.5109541  98.6319420  78.9443707 151.2293180
  98.1166044  79.7148312 151.4681568  98.3596729  78.2708843 151.8526242
  96.2166531  73.7893408 156.2878419  95.3608128  73.4000258 156.1084057
  96.6293483  73.8685369 155.4278204  97.7465678  71.3239751 160.6869978
  97.2430474  71.2869886 159.8737784  98.0396285  72.2332494 160.7466635
  93.9908564  71.4078481 159.6936160  94.8561561  71.2121289 159.3342050
  94.0586073  71.1788832 160.6205517 103.6053695  81.6976062 153.1646354
 102.8283137  81.3587221 152.7201516 104.2845175  81.7028685 152.4901319
  98.4205724  76.8170799 153.0552962  98.1155859  77.1316948 153.9063105
  99.3736166  76.8952219 153.0980295  96.8652155  82.9761022 154.7045915
  96.3373517  82.2413782 154.3919153  96.3639658  83.7535699 154.4585884
 101.8445001  81.1710043 159.8212962 101.1868676  81.8609304 159.9093090
 102.6485401  81.5606475 160.1646948  91.5970883  73.6380689 157.0652527
  92.1714635  73.4155870 156.3325720  92.1841865  73.7069383 157.8181128
 100.6550460  79.5254416 157.8716904 101.1682342  80.1584407 158.3738613
 101.3051684  78.9255611 157.5060264  91.9240470  75.6685150 151.0848412
  91.0877782  76.0059836 151.4057687  91.7845240  75.5334129 150.1475549
  93.8993551  70.5121938 155.7927596  93.2457963  70.1970955 155.1684211
  93.8574025  69.8897678 156.5187419  95.0104756  80.7941233 147.7080889
  94.1031817  80.5630486 147.9072038  95.5075788  79.9978852 147.8954870
  97.9172834  89.5038740 150.6277575  97.2434533  89.8070437 151.2362533
  98.3038656  90.3067820 150.2783032  97.1331291  77.0003871 160.1175244
  96.2153852  77.2218818 159.9596932  97.5491435  77.0750182 159.2586951
  97.9166339  78.3995287 155.2477924  98.6638158  78.9116684 154.9385046
  98.1857928  78.0779339 156.1082318  96.1892989  80.8953827 152.2304879
  95.2804208  80.6112860 152.3277348  96.2188073  81.3152906 151.3708185
 101.4212256  84.5060417 155.9996046 100.9674584  83.6651327 156.0561237
 100.7906223  85.1421815 156.3370826 100.3645176  75.4352403 157.2296714
  99.6267933  74.9229789 157.5606956 100.6171950  74.9952785 156.4179991
  99.8645196  86.3436914 156.9345864 100.1568170  86.9041971 156.2158230
 100.3743816  86.6365475 157.6899023 100.4656803  68.2128655 157.8238483
 100.7715680  67.3526018 157.5364398 101.1909408  68.8046275 157.6237477
  86.7581159  78.6159342 156.2120081  86.5605559  78.0228702 155.4871147
  86.2027823  78.3111552 156.9296020  94.7377883  78.5082448 158.3314674
  94.7926493  77.5556284 158.2557151  93.9269085  78.6641887 158.8155972
  95.8869077  82.4362571 149.5692957  95.4488507  81.7198430 149.1098595
  96.6279518  82.6638686 149.0078049  92.6770243  77.1259508 156.0905053
  91.8638109  77.4253678 156.4970245  93.1729237  76.7315197 156.8079535
  94.8278821  87.1217265 158.0239318  94.7855000  87.3478111 157.0947850
  95.7441520  86.8880639 158.1725119  98.2744455  77.5901332 164.9219947
  98.6293842  77.8172805 165.7814412  98.9216586  77.9219709 164.2997202
 104.0042192  80.7119768 155.6269276 103.8660090  80.9021364 154.6990465
 103.6478410  81.4739151 156.0837327  92.1684318  74.6977863 161.7066288
  92.8083697  74.5566622 161.0089251  91.3361848  74.4112377 161.3304890
 104.0311571  82.7796295 160.6380547 104.4648078  82.6871584 161.4863601
 104.7443152  82.7553796 160.0000563  92.9444622  83.9980294 157.8201280
  93.7385220  83.5030614 157.6183855  92.2336314  83.4698157 157.4568986
  97.7639466  86.3798389 162.1713648  97.8176488  86.9489326 162.9391364
  96.8954247  86.5500274 161.8067685  89.2527385  78.1423376 153.8961033
  88.3224973  78.0807831 154.1130995  89.3484857  77.6199328 153.0997674
  89.1712934  74.6678188 156.4839275  89.4319751  75.5823522 156.3748435
  89.9930106  74.2002631 156.6335887  90.6437859  76.0815946 163.6538099
  91.3160913  75.8733308 163.0050748  89.8167646  75.8838032 163.2143331
 104.8927121  82.8219996 163.1713433 105.0863011  83.7265806 163.4172708
 104.7927739  82.3627415 164.0052018  96.5463431  72.7077886 165.6703760
  95.8991347  73.4067836 165.5768236  97.3164447  73.1414030 166.0380008
  96.7227566  80.5458651 163.7300580  97.6519626  80.6969811 163.5569547
  96.3018596  80.6342672 162.8749226  95.5215898  84.5709316 161.4999117
  95.3826983  84.2028100 162.3725055  94.7330494  85.0856955 161.3283075
  96.1164050  89.6718412 152.8424654  96.2915805  89.2006455 153.6570277
  95.4296838  90.2984178 153.0705915  97.0721113  83.9490918 158.8887955
  96.7370945  83.9091688 159.7845605  96.5725058  83.2835634 158.4158365
  91.0465357  79.3558548 164.4140536  90.9085155  78.6238787 165.0152075
  91.9570280  79.2667449 164.1324724 100.0080304  81.2946953 149.1625015
  99.3909475  80.5693781 149.0658067  99.5396793  82.0556313 148.8192089
  93.6747657  79.0678508 163.9024216  94.3847276  78.4271700 163.8610834
  93.6316966  79.3191403 164.8250397  92.3876591  76.0543726 165.7219855
  91.8513948  75.6034464 166.3741452  91.7993300  76.1889635 164.9790320
  90.6825135  92.8207775 159.6164514  90.9221733  93.4526299 160.2943533
  89.8394331  92.4695815 159.9029873  91.7978850  75.5132377 148.2846319
  90.9208317  75.3921178 147.9208566  92.2736603  74.7218455 148.0325208
 101.6651843  83.9685445 165.0544775 100.7778622  83.6311367 165.1771174
 102.2350394  83.2368476 165.2913540  83.3180990  80.3009537 158.3787826
  84.0052030  79.9871267 157.7908842  83.1629119  81.2050901 158.1055078
  88.1215713  75.1899733 162.8072850  88.0373901  74.5825403 162.0723260
  87.2998419  75.6808752 162.8082346  95.1952997  88.6286897 162.0206018
  95.1223168  89.4341869 162.5325323  94.7530390  88.8278863 161.1954039
  94.9842776  87.8658667 155.5308840  94.2010298  88.4080348 155.6247064
  95.6835522  88.3832647 155.9303081  98.2939426  73.6753297 158.1743045
  98.7908126  72.9223259 157.8544115  97.5226408  73.7117614 157.6086254
 106.1469184  79.3793662 159.8161336 106.1359060  80.2618378 159.4455270
 105.2786563  79.0265213 159.6215874  99.3769207  82.4324984 155.7481468
  98.4425486  82.5526447 155.5786173  99.5545876  81.5297451 155.4841478
  94.8774395  75.8170680 157.9014730  94.5072183  75.2641720 158.5895635
  95.3733488  75.2128813 157.3489730 102.7641759  78.2742303 156.2831503
 103.2302211  79.1070295 156.2091805 103.2149259  77.8087285 156.9876761
  92.7063594  86.2768175 164.9969748  93.4073053  86.9104658 165.1499142
  92.2358709  86.6182906 164.2365387 100.8317990  84.6186125 153.2817655
 101.1077834  84.5042719 154.1911529  99.9622488  84.2203610 153.2429828
 100.7358421  70.6422890 160.3222404  99.8221501  70.8727117 160.4904611
 101.1651523  70.7261334 161.1736436 100.5064880  78.8312782 162.8222298
  99.8536330  79.0788690 162.1674751 100.8845260  78.0176921 162.4884775
  97.4672054  88.8672476 156.9250468  97.6494448  88.0494131 157.3878220
  98.2905040  89.0840168 156.4875358  97.8014219  87.7940661 154.1865517
  98.3301986  87.2833115 153.5735679  98.0642439  87.4783191 155.0511050
  96.5552453  79.5732593 169.3088335  95.8793090  79.4726723 169.9790710
  97.3780087  79.4171807 169.7724332  88.3031312  85.8104530 161.9300850
  88.8884749  85.0648218 162.0628754  88.1056150  86.1208487 162.8137514
  91.1569967  88.8455777 156.9463293  90.4880342  89.3301905 156.4627333
  91.0182837  89.0924998 157.8606671  82.8948967  78.3810130 160.6505293
  82.9333066  77.8473721 161.4442411  82.3889259  77.8545336 160.0316271
  90.2739729  73.2274671 164.1467836  90.3381055  74.0889502 163.7345233
  90.2106849  72.6148672 163.4140194  89.7492001  75.2997803 167.7940870
  90.3764040  74.9174881 168.4078394  88.8919920  75.0812005 168.1596562
  86.5257544  77.1074232 153.7259225  86.8210985  76.1984911 153.6726278
  85.6245580  77.0861972 153.4040227  98.4343623  88.8281496 160.5309633
  98.3094762  88.0271236 160.0220579  99.0922714  89.3227690 160.0423603
  90.0551791  75.1830229 159.7086773  89.3338377  75.7966197 159.5694247
  90.8445047  75.7187994 159.6303419 100.4978531  86.6290517 162.1589183
  99.5508867  86.5095868 162.0867510 100.8461304  85.7413015 162.2415445
  92.8578105  72.5184655 165.9827425  93.3812507  72.7646952 166.7453734
  92.6390438  73.3504690 165.5630562  88.2545386  74.7888330 153.8498550
  87.9258092  73.9085709 153.6673656  88.6084756  74.7335999 154.7374939
  97.5024965  86.4243233 158.3593535  97.3549927  85.4959940 158.5401105
  98.3278458  86.4463323 157.8750611  91.3687209  75.0761300 154.2174028
  91.7083281  75.6047221 153.4952636  91.8159329  75.4141706 154.9932594
 101.1059086  87.2471791 159.4458408 102.0305634  87.0414653 159.3082859
 100.9374390  86.9988193 160.3547750  94.0630650  73.4598351 163.6677096
  93.7227470  72.6606164 164.0697775  93.3569656  73.7600061 163.0953929
  94.7147122  70.5447663 162.1204419  95.5373191  70.0708141 161.9983309
  94.9585185  71.3238147 162.6203105  93.3555356  73.5735921 152.4167320
  94.0763719  73.9517174 151.9131037  92.7320660  74.2924798 152.5202298
  97.4986479  74.2781070 153.3525653  97.7150093  75.1605708 153.0514481
  97.0180546  73.8867284 152.6231295  92.2385700  77.2366784 159.9296397
  92.0930281  77.5507087 160.8220679  91.7610904  77.8551684 159.3767296
  94.0982083  74.2269332 159.9777287  94.0843652  73.3310425 159.6409585
  94.8154511  74.2339995 160.6115573  95.9508214  74.6606672 162.0230414
  95.6925992  75.5823742 162.0214745  95.4193254  74.2637106 162.7130878
 100.8954403  87.7657459 154.8020500 101.0691280  87.2003881 154.0494352
 101.3883294  88.5658354 154.6199990  86.7131362  79.7772128 162.8684058
  86.1684831  80.5531936 163.0004333  87.5910712  80.1242932 162.7103180
  93.5018979  73.1083712 155.2464857  93.6234890  72.1800358 155.4455744
  93.2121022  73.1222398 154.3343172  96.3710170  70.7938622 158.3831577
  96.3931866  70.8577955 157.4283556  96.7878229  69.9543131 158.5772083
 106.7493794  80.5293882 156.4210799 107.1924940  79.7801207 156.0229923
 105.8720304  80.5204018 156.0384531 101.8829575  87.0824223 151.9017398
 102.5780480  87.7030916 152.1204713 102.2252725  86.2319575 152.1769776
  87.4997384  78.9042024 165.7614215  86.7579120  79.0524660 166.3478846
  87.1790129  79.1650290 164.8980965 103.7820998  84.5323929 153.4304729
 104.3072322  84.8711202 152.7054049 103.6943351  83.5970944 153.2467863
  95.4661659  90.5995912 157.7899982  95.0266649  90.1072291 158.4832839
  96.2169776  90.0568880 157.5492057  87.9453998  86.7907453 157.7924610
  88.7712018  86.4911225 157.4123253  87.5948050  86.0215075 158.2414399
  92.9135531  86.1433921 159.8622284  92.2915540  85.4804626 159.5624511
  93.5840398  86.1695053 159.1795931  86.1462603  84.7093779 158.7513544
  85.3094511  84.2815954 158.5697545  86.1186248  84.9026223 159.6884335
  92.9860059  74.6215709 169.4554790  93.0348214  75.4977832 169.0732559
  93.5282573  74.0793102 168.8826433  92.4749038  84.6937845 153.3380744
  92.6237158  85.3773309 152.6847417  93.2815482  84.6742935 153.8530200
 100.8816542  77.9980227 167.3647962 101.7826405  77.8586692 167.0731960
 100.9564516  78.1634682 168.3046139  95.2159347  75.3747082 166.2101148
  94.3462657  75.6680648 165.9383737  95.4518827  75.9587527 166.9308412
 106.2926659  81.9999120 158.8133247 107.1273550  82.4388924 158.9770807
 106.4285787  81.5237773 157.9941493 103.3418164  79.5578855 164.7610735
 103.8172286  79.7506501 163.9529586 102.4183730  79.6138041 164.5154118
  90.2301671  80.7203022 154.3441813  89.9847713  79.8165352 154.5422023
  90.3997586  80.7220173 153.4021291  97.9198381  71.5926699 163.7266569
  98.4380325  72.3287725 163.4013057  97.5653514  71.8990692 164.5613328
  89.4997319  76.4531380 151.8427974  88.8066564  76.5275735 151.1868010
  89.2549071  75.6891723 152.3649491  98.1710975  68.0126981 159.2467465
  98.4512729  67.3450170 159.8727892  98.9561582  68.2056077 158.7342129
  95.9744444  87.1885975 150.8092491  95.4018411  87.8076162 150.3562963
  96.5477237  87.7385337 151.3432413 102.0419833  76.4344615 162.9939040
 102.9937256  76.5342713 163.0151264 101.8723284  75.6422884 163.5037125
 100.0634213  73.5200198 163.1798441  99.4684145  73.8005211 162.4844930
  99.7783910  74.0094099 163.9515182  99.1941703  87.4723125 151.9401074
 100.1272377  87.4068687 152.1433949  99.1064916  88.3079392 151.4815606
 101.8229720  86.7888995 148.9005021 101.7443352  86.4548859 149.7940779
 102.6439387  87.2810763 148.8996494 104.5207911  79.6550735 162.1081340
 104.4884231  78.7166736 162.2941024 105.1308535  79.7334771 161.3747165
  96.3591242  78.5246788 148.1508544  97.3050347  78.3952996 148.2196962
  95.9805487  77.7861450 148.6277972 104.6702400  76.4461778 162.1539623
 104.1541448  75.6620235 161.9669552 105.5542348  76.1180495 162.3186143
 102.3313127  70.1902794 158.1135436 102.1337948  69.8817882 158.9978768
 102.9412832  70.9164433 158.2433366 110.3384461  80.7166742 161.2487377
 111.0687850  80.4552030 161.8095080 109.7291407  79.9795464 161.2889445
 108.4199758  78.8574604 161.8461828 107.6932922  78.7230569 161.2378320
 108.0047045  79.1651433 162.6518546  94.5434159  76.4496764 148.0863429
  93.6365615  76.1529877 148.1626143  94.8210140  76.1526582 147.2197715
  85.4612100  77.7703128 158.5362476  85.1414884  76.9168436 158.2436850
  84.9145528  77.9851706 159.2920443  89.2392007  80.4865569 162.2531982
  89.4578017  81.4182676 162.2720016  89.6517781  80.1273543 163.0386786
  96.1596225  70.9933654 154.2407671  95.3496953  70.6480739 154.6162917
  96.8480642  70.6841198 154.8295282  98.0886773  70.0711701 155.8631967
  98.6417812  70.4907154 156.5221990  98.3256860  69.1447449 155.9054923
  94.1119873  76.0598774 171.6434731  94.0116599  77.0093131 171.5746822
  93.8941415  75.7317013 170.7710801  93.3132944  73.3083699 148.2275408
  94.1752108  73.6338598 148.4871226  93.4983288  72.5215195 147.7148474
  85.3300360  81.3906039 160.5055597  84.6363831  80.9759992 159.9925552
  86.0773351  81.4326576 159.9089016 101.4665580  72.1812226 155.3710631
 100.8864249  72.8397030 154.9888684 101.2001513  71.3589570 154.9598049
  99.9169147  71.5817284 157.5731952 100.4168925  71.6933818 156.7646271
 100.5604755  71.2778336 158.2132760  93.9751143  79.4895913 170.4599793
  93.4918224  80.2896273 170.6663682  94.0612082  79.5003858 169.5067237
  87.2437102  81.3224293 158.3821612  87.2207790  81.4211980 157.4303495
  87.5537739  82.1689444 158.7038778  89.9024480  83.3800448 162.4968226
  90.8567734  83.3484390 162.4298158  89.7037004  82.9191072 163.3118452
  90.4923862  81.9501564 165.0639024  91.3116751  82.4445643 165.0873861
  90.7660670  81.0333532 165.0356592 100.2490458  74.3412316 154.4266980
  99.3616313  74.6261967 154.2087174 100.6644447  74.1806080 153.5794257
 103.6004995  74.3658837 158.1421319 104.3765385  74.8555290 158.4145936
 102.8753129  74.7916891 158.5993188 106.0377553  75.0786456 159.1995260
 106.6322044  74.8382192 158.4888568 106.1104137  74.3593587 159.8268796
  88.2574709  88.9220067 159.5138424  88.1229177  88.1620468 158.9476422
  87.8406771  89.6460967 159.0467213  99.3933672  84.1056991 148.5215000
 100.0969522  84.3106993 149.1372655  98.6696321  84.6733753 148.7864083
 100.2231482  79.8566852 154.6417270 100.1666684  80.3135404 153.8024902
 100.7759825  79.0957537 154.4640113 104.0336288  75.6456584 155.4667389
 103.7773222  75.2453220 156.2975597 103.4089156  76.3600378 155.3417528
 108.3448626  78.3852657 157.9738681 107.7848184  78.4545847 158.7470243
 107.7392129  78.2093642 157.2538177  91.4143835  89.8189384 159.7256867
  91.2976219  90.7634817 159.6235557  90.5936281  89.5162946 160.1142666
 101.3020369  84.5439520 150.5713460 102.1365973  84.1120719 150.3890935
 101.1404712  84.3721534 151.4990354 100.9566261  81.0471633 151.9369799
 100.9015065  80.8815905 150.9958243 100.3312317  81.7547666 152.0931989
  85.7458776  76.2839698 165.7631221  86.3917640  75.7738652 166.2518446
  85.5375928  77.0208379 166.3374646  94.2662387  70.5479742 151.5155117
  94.2541057  71.4921582 151.6723388  95.1585809  70.3649888 151.2214579
  92.4398349  90.4717646 162.9412795  93.3425596  90.5041257 163.2579290
  92.2135719  89.5418097 162.9559131  94.1951951  89.2248633 159.6022874
  93.2447582  89.2250494 159.4887246  94.4984437  88.4781367 159.0858909
  98.0814506  67.1422519 155.7701054  97.3146902  66.5881006 155.9157737
  98.4925211  67.2144388 156.6315206  90.0856267  73.4307315 169.8606235
  90.9487729  73.0744120 170.0709560  89.5121678  73.0921210 170.5481640
 102.5981166  96.8672076 156.5927052 102.0346031  96.7762013 155.8243340
 102.4833561  96.0471980 157.0729545 108.1780725 100.5343043 151.9041517
 107.5268705 101.1197124 151.5175531 108.9725088 101.0649238 151.9636554
 102.1036352  97.6232181 152.3028651 102.8767228  97.0761168 152.1641527
 102.4561751  98.4876430 152.5143113 104.4402630  93.7824847 149.9347101
 104.6928151  93.2606368 149.1730564 103.5027189  93.6190992 150.0373785
 109.6555990  98.2233475 152.4410501 109.0201823  98.2968102 153.1531406
 109.3253397  98.8127074 151.7629581 104.1598919  95.6852953 152.1371476
 104.0435177  95.0097856 152.8052561 104.2701179  95.1985327 151.3203629
 106.5030460  95.1463100 155.8418165 106.1388667  94.6193721 156.5531087
 107.3597576  94.7561569 155.6684651 106.1435947  90.1752999 150.8379514
 106.3110349  91.0433236 151.2049985 105.9533116  90.3380281 149.9140803
 106.1225168  92.6310657 151.8226181 106.0024793  93.0767708 152.6611661
 105.4277756  92.9795975 151.2639719 111.8210234  93.1032130 152.6506515
 112.7328090  93.3359517 152.4754212 111.3119881  93.6869174 152.0881593
 104.9176664  93.9455509 154.1159747 105.6200707  94.3976553 154.5833673
 104.5857292  93.3039328 154.7439640  98.6601998  92.2039062 159.4176880
  97.8701052  92.4596590 158.9416991  99.1513245  93.0187400 159.5228921
 100.6116743  92.5683641 156.3760357  99.8147907  92.6802335 156.8943852
 100.3842335  92.9070293 155.5101247  99.6099826  98.2771890 154.7649777
 100.1224347  99.0715140 154.9155342 100.2622539  97.5798180 154.6983378
  97.5748743  96.6060544 155.5409347  98.4123965  97.0157552 155.3243055
  97.7527010  95.6659986 155.5109541 109.4713175  94.2735625 151.2293180
 108.9559798  95.0440229 151.4681568 109.1990483  93.6000761 151.8526242
 107.0560286  89.1185325 156.2878419 106.2001882  88.7292176 156.1084057
 107.4687238  89.1977286 155.4278204 104.8302318  86.7370398 159.6936160
 105.6955315  86.5413207 159.3342050 104.8979827  86.5080750 160.6205517
 109.2599478  92.1462717 153.0552962 108.9549614  92.4608866 153.9063105
 110.2129920  92.2244137 153.0980295 107.7045910  98.3052940 154.7045915
 107.1767271  97.5705700 154.3919153 107.2033413  99.0827616 154.4585884
 102.4364637  88.9672606 157.0652527 103.0108389  88.7447788 156.3325720
 103.0235620  89.0361301 157.8181128 102.7634225  90.9977067 151.0848412
 101.9271537  91.3351754 151.4057687 102.6238994  90.8626047 150.1475549
 104.7387305  85.8413855 155.7927596 104.0851718  85.5262872 155.1684211
 104.6967779  85.2189596 156.5187419 105.8498510  96.1233150 147.7080889
 104.9425572  95.8922404 147.9072038 106.3469542  95.3270770 147.8954870
 108.7560093  93.7287204 155.2477924 109.5031912  94.2408602 154.9385046
 109.0251683  93.4071257 156.1082318 107.0286743  96.2245745 152.2304879
 106.1197963  95.9404778 152.3277348 107.0581827  96.6444824 151.3708185
 111.2038930  90.7644321 157.2296714 110.4661687  90.2521707 157.5606956
 111.4565704  90.3244702 156.4179991 111.3050558  83.5420573 157.8238483
 111.6109435  82.6817936 157.5364398 112.0303163  84.1338193 157.6237477
  97.5974914  93.9451259 156.2120081  97.3999314  93.3520620 155.4871147
  97.0421578  93.6403469 156.9296020 106.7262831  97.7654489 149.5692957
 106.2882261  97.0490348 149.1098595 107.4673272  97.9930604 149.0078049
 103.5163997  92.4551426 156.0905053 102.7031863  92.7545596 156.4970245
 104.0122992  92.0607114 156.8079535 100.0921140  93.4715293 153.8961033
  99.1618728  93.4099749 154.1130995 100.1878612  92.9491246 153.0997674
 100.0106689  89.9970106 156.4839275 100.2713506  90.9115439 156.3748435
 100.8323861  89.5294549 156.6335887 110.8474059  96.6238870 149.1625015
 110.2303230  95.8985699 149.0658067 110.3790547  97.3848231 148.8192089
 102.6372605  90.8424295 148.2846319 101.7602071  90.7213096 147.9208566
 103.1130358  90.0510373 148.0325208  94.1574745  95.6301455 158.3787826
  94.8445785  95.3163185 157.7908842  94.0022874  96.5342819 158.1055078
  98.9609467  90.5191651 162.8072850  98.8767656  89.9117321 162.0723260
  98.1392174  91.0100669 162.8082346 109.1333181  89.0045215 158.1743045
 109.6301881  88.2515177 157.8544115 108.3620162  89.0409531 157.6086254
 105.7168150  91.1462598 157.9014730 105.3465937  90.5933638 158.5895635
 106.2127242  90.5420731 157.3489730  93.7342721  93.7102048 160.6505293
  93.7726821  93.1765639 161.4442411  93.2283014  93.1837253 160.0316271
  97.3651299  92.4366150 153.7259225  97.6604740  91.5276828 153.6726278
  96.4639334  92.4153889 153.4040227 100.8945546  90.5122147 159.7086773
 100.1732131  91.1258114 159.5694247 101.6838801  91.0479911 159.6303419
  99.0939140  90.1180248 153.8498550  98.7651846  89.2377627 153.6673656
  99.4478511  90.0627916 154.7374939 102.2080963  90.4053217 154.2174028
 102.5477036  90.9339139 153.4952636 102.6553084  90.7433624 154.9932594
 104.1949111  88.9027839 152.4167320 104.9157473  89.2809092 151.9131037
 103.5714415  89.6216716 152.5202298 108.3380233  89.6072988 153.3525653
 108.5543848  90.4897626 153.0514481 107.8574301  89.2159201 152.6231295
 104.9375838  89.5561249 159.9777287 104.9237406  88.6602343 159.6409585
 105.6548266  89.5631913 160.6115573 104.3412734  88.4375630 155.2464857
 104.4628645  87.5092276 155.4455744 104.0514776  88.4514316 154.3343172
 107.2103924  86.1230540 158.3831577 107.2325621  86.1869873 157.4283556
 107.6271983  85.2835049 158.5772083 103.3142793 100.0229762 153.3380744
 103.4630913 100.7065227 152.6847417 104.1209236 100.0034852 153.8530200
 101.0695426  96.0494940 154.3441813 100.8241468  95.1457270 154.5422023
 101.2391340  96.0512090 153.4021291 100.3391073  91.7823297 151.8427974
  99.6460318  91.8567652 151.1868010 100.0942825  91.0183641 152.3649491
 109.0104730  83.3418899 159.2467465 109.2906483  82.6742088 159.8727892
 109.7955337  83.5347994 158.7342129 106.8138198 102.5177893 150.8092491
 106.2412165 103.1368080 150.3562963 107.3870992 103.0677254 151.3432413
 112.6623475 102.1180913 148.9005021 112.5837106 101.7840777 149.7940779
 113.4833141 102.6102681 148.8996494 107.1984997  93.8538705 148.1508544
 108.1444101  93.7244914 148.2196962 106.8199242  93.1153367 148.6277972
 113.1706881  85.5194711 158.1135436 112.9731702  85.2109800 158.9978768
 113.7806587  86.2456350 158.2433366 105.3827914  91.7788682 148.0863429
 104.4759369  91.4821795 148.1626143 105.6603895  91.4818500 147.2197715
  96.3005854  93.0995045 158.5362476  95.9808638  92.2460353 158.2436850
  95.7539282  93.3143623 159.2920443 106.9989979  86.3225572 154.2407671
 106.1890708  85.9772657 154.6162917 107.6874396  86.0133115 154.8295282
 108.9280528  85.4003618 155.8631967 109.4811566  85.8199072 156.5221990
 109.1650614  84.4739366 155.9054923 104.1526698  88.6375617 148.2275408
 105.0145862  88.9630515 148.4871226 104.3377043  87.8507113 147.7148474
 112.3059335  87.5104143 155.3710631 111.7258004  88.1688948 154.9888684
 112.0395268  86.6881488 154.9598049 110.7562901  86.9109201 157.5731952
 111.2562680  87.0225736 156.7646271 111.3998509  86.6070254 158.2132760
  98.0830857  96.6516210 158.3821612  98.0601545  96.7503898 157.4303495
  98.3931493  97.4981361 158.7038778 111.0884213  89.6704234 154.4266980
 110.2010068  89.9553885 154.2087174 111.5038202  89.5097997 153.5794257
 110.2327426  99.4348909 148.5215000 110.9363276  99.6398911 149.1372655
 109.5090075 100.0025670 148.7864083 111.0625237  95.1858770 154.6417270
 111.0060438  95.6427321 153.8024902 111.6153579  94.4249454 154.4640113
 114.8730043  90.9748502 155.4667389 114.6166977  90.5745137 156.2975597
 114.2482911  91.6892296 155.3417528 112.1414124  99.8731438 150.5713460
 112.9759728  99.4412636 150.3890935 111.9798467  99.7013451 151.4990354
 111.7960016  96.3763551 151.9369799 111.7408820  96.2107822 150.9958243
 111.1706071  97.0839584 152.0931989 105.1056141  85.8771660 151.5155117
 105.0934811  86.8213500 151.6723388 105.9979563  85.6941805 151.2214579
 108.9208261  82.4714437 155.7701054 108.1540657  81.9172923 155.9157737
 109.3318966  82.5436305 156.6315206  75.6599463  31.5529413 138.6286824
  75.0087443  32.1383493 138.2420837  76.4543826  32.0835608 138.6881861
  69.5855090  28.6418550 139.0273958  70.3585966  28.0947537 138.8886834
  69.9380489  29.5062799 139.2388419  71.9221368  24.8011216 136.6592408
  72.1746888  24.2792738 135.8975871  70.9845927  24.6377362 136.7619092
  77.1374728  29.2419845 139.1655808  76.5020561  29.3154471 139.8776713
  76.8072134  29.8313444 138.4874887  71.6417657  26.7039322 138.8616783
  71.5253915  26.0284226 139.5297867  71.7519916  26.2171696 138.0448936
  73.6254684  21.1939369 137.5624821  73.7929087  22.0619605 137.9295292
  73.4351854  21.3566651 136.6386110  73.6043905  23.6497026 138.5471487
  73.4843531  24.0954077 139.3856968  72.9096494  23.9982344 137.9885026
  71.3650797  36.4200668 142.1961619  71.2874827  37.3708493 142.2750099
  70.7612441  36.0746541 142.8536545  79.3028972  24.1218500 139.3751821
  80.2146828  24.3545886 139.1999519  78.7938619  24.7055544 138.8126900
  81.7887786  30.0398756 144.1209767  81.1038824  30.4197657 143.5706800
  81.8731635  30.6494083 144.8541714  73.4626516  28.8418726 144.0315488
  73.9264861  29.1206429 143.2420111  73.1983314  27.9402171 143.8488579
  72.3995402  24.9641879 140.8405053  73.1019445  25.4162922 141.3078980
  72.0676030  24.3225697 141.4684946  88.2490538  26.9069419 145.2412439
  87.4954247  26.3376817 145.0856443  88.3838080  26.8732083 146.1883074
  73.6389166  31.7782821 140.9167158  73.5034841  32.6234357 141.3452006
  74.1798979  31.9802099 140.1533092  67.0918564  29.2958259 141.4895083
  67.6043084  30.0901509 141.6400648  67.7441277  28.5984550 141.4228685
  68.9013448  32.4124016 143.5717837  69.0780077  33.3341980 143.3838821
  69.6970282  32.0982435 144.0012216  76.9531913  25.2921994 137.9538487
  76.4378536  26.0626599 138.1926874  76.6809221  24.6187130 138.5771548
  81.9266187  28.0454349 139.8891660  81.1495630  27.7065508 139.4446823
  82.6057668  28.0506972 139.2146626  76.7418216  23.1649086 139.7798268
  76.4368351  23.4795235 140.6308411  77.6948658  23.2430506 139.8225601
  75.1864648  29.3239310 141.4291222  74.6586009  28.5892069 141.1164460
  74.6852150  30.1013986 141.1831190  80.1657494  27.5188330 146.5458268
  79.5081168  28.2087591 146.6338397  80.9697893  27.9084762 146.8892255
  78.9762952  25.8732703 144.5962210  79.4894834  26.5062695 145.0983920
  79.6264176  25.2733898 144.2305570  70.2452962  22.0163437 137.8093719
  69.4090275  22.3538123 138.1302994  70.1057732  21.8812417 136.8720856
  73.3317248  27.1419520 134.4326195  72.4244310  26.9108773 134.6317344
  73.8288280  26.3457139 134.6200177  76.2385327  35.8517027 137.3522881
  75.5647025  36.1548724 137.9607839  76.6251149  36.6546107 137.0028338
  76.2378831  24.7473574 141.9723231  76.9850650  25.2594971 141.6630353
  76.5070421  24.4257627 142.8327625  74.5105481  27.2432115 138.9550185
  73.6016701  26.9591148 139.0522655  74.5400565  27.6631193 138.0953492
  79.7424749  30.8538704 142.7241353  79.2887076  30.0129614 142.7806543
  79.1118715  31.4900103 143.0616133  78.1857688  32.6915201 143.6591171
  78.4780662  33.2520258 142.9403537  78.6956309  32.9843762 144.4144330
  74.2081569  28.7840858 136.2938264  73.7700999  28.0676717 135.8343901
  74.9492010  29.0116973 135.7323355  73.1491313  33.4695552 144.7484624
  73.1067492  33.6956398 143.8193156  74.0654012  33.2358927 144.8970425
  82.3254684  27.0598055 142.3514582  82.1872582  27.2499651 141.4235772
  81.9690903  27.8217438 142.8082634  82.3524063  29.1274582 147.3625854
  82.7860570  29.0349872 148.2108908  83.0655644  29.1032083 146.7245870
  74.4376542  36.0196699 139.5669961  74.6128298  35.5484743 140.3815583
  73.7509330  36.6462466 139.7951221  78.3292797  27.6425240 135.8870321
  77.7121967  26.9172068 135.7903374  77.8609285  28.4034600 135.5437396
  69.0037627  39.1686062 146.3409821  69.2434225  39.8004586 147.0188839
  68.1606824  38.8174102 146.6275180  70.1191343  21.8610664 135.0091626
  69.2420809  21.7399465 134.6453872  70.5949096  21.0696743 134.7570514
  73.3055269  34.2136955 142.2554146  72.5222791  34.7558635 142.3492371
  74.0048014  34.7310934 142.6548387  84.4681676  25.7271950 146.5406643
  84.4571552  26.6096665 146.1700576  83.5999056  25.3743501 146.3461180
  77.6981699  28.7803271 142.4726775  76.7637978  28.9004734 142.3031479
  77.8758368  27.8775738 142.2086785  81.0854251  24.6220591 143.0076809
  81.5514703  25.4548582 142.9337112  81.5361751  24.1565572 143.7122068
  79.1530482  30.9664412 140.0062961  79.4290326  30.8521007 140.9156835
  78.2834981  30.5681897 139.9675134  75.7884546  35.2150763 143.6495775
  75.9706940  34.3972419 144.1123527  76.6117532  35.4318455 143.2120665
  76.1226711  34.1418948 140.9110823  76.6514478  33.6311403 140.2980985
  76.3854931  33.8261478 141.7756356  69.4782459  35.1934065 143.6708599
  68.8092835  35.6780192 143.1872639  69.3395329  35.4403285 144.5851978
  76.7556115  35.1759784 147.2554940  76.6307255  34.3749524 146.7465885
  77.4135206  35.6705977 146.7668910  78.8191024  32.9768804 148.8834490
  77.8721359  32.8574155 148.8112817  79.1673797  32.0891302 148.9660751
  75.8237457  32.7721520 145.0838842  75.6762419  31.8438227 145.2646412
  76.6490950  32.7941611 144.5995917  79.4271579  33.5950079 146.1703715
  80.3518126  33.3892940 146.0328166  79.2586882  33.3466480 147.0793056
  75.8198971  20.6259358 140.0770959  76.0362586  21.5083995 139.7759787
  75.3393038  20.2345571 139.3476601  79.2166895  34.1135746 141.5265806
  79.3903772  33.5482169 140.7739659  79.7095786  34.9136641 141.3445296
  85.0706286  26.8772169 143.1456106  85.5137432  26.1279494 142.7475229
  84.1932796  26.8682305 142.7629838  80.2042067  33.4302511 138.6262705
  80.8992972  34.0509203 138.8450019  80.5465218  32.5797862 138.9015082
  82.1033491  30.8802216 140.1550035  82.6284815  31.2189489 139.4299355
  82.0155843  29.9449231 139.9713170  73.7874151  36.9474199 144.5145288
  73.3479142  36.4550578 145.2078145  74.5382268  36.4047167 144.2737364
  70.7961530  31.0416132 140.0626051  70.9449651  31.7251596 139.4092723
  71.6027974  31.0221222 140.5775506  84.6139151  28.3477407 145.5378554
  85.4486042  28.7867211 145.7016114  84.7498280  27.8716061 144.7186799
  74.2956936  33.5364262 137.5337798  73.7230903  34.1554449 137.0808270
  74.8689730  34.0863624 138.0677720  77.5154196  33.8201412 138.6646380
  78.4484869  33.7546974 138.8679256  77.4277409  34.6557679 138.2060913
  80.1442212  33.1367283 135.6250328  80.0655844  32.8027146 136.5186086
  80.9651879  33.6289051 135.6241800  74.6803734  24.8725075 134.8753851
  75.6262839  24.7431283 134.9442269  74.3017979  24.1339737 135.3523279
  88.6596953  27.0645029 147.9732683  89.3900342  26.8030317 148.5340387
  88.0503899  26.3273751 148.0134751  72.8646652  22.7975051 134.8108736
  71.9578107  22.5008164 134.8871449  73.1422633  22.5004869 133.9443022
  71.6345436  19.6561987 134.9520715  72.4964600  19.9816885 135.2116532
  71.8195780  18.8693483 134.4393781  78.5702951  20.6890603 141.1512286
  77.6828806  20.9740254 140.9332481  78.9856940  20.5284367 140.3039563
  77.7146164  30.4535278 135.2460306  78.4182014  30.6585281 135.8617962
  76.9908813  31.0212040 135.5109390  78.5443974  26.2045139 141.3662576
  78.4879176  26.6613691 140.5270209  79.0972317  25.4435824 141.1885419
  82.3548780  21.9934871 142.1912696  82.0985715  21.5931507 143.0220904
  81.7301648  22.7078665 142.0662835  86.6661118  24.7330944 144.6983987
  86.1060676  24.8024134 145.4715549  86.0604622  24.5571929 143.9783484
  69.7356327  36.1667672 146.4502174  69.6188711  37.1113104 146.3480864
  68.9148773  35.8641233 146.8387973  79.6232862  30.8917807 137.2958766
  80.4578465  30.4599006 137.1136241  79.4617204  30.7199821 138.2235661
  79.2778754  27.3949921 138.6615106  79.2227558  27.2294192 137.7203550
  78.6524809  28.1025954 138.8177295  72.5164443  35.5726920 146.3268181
  71.5660074  35.5728782 146.2132553  72.8196929  34.8259655 145.8104215
  88.2517137  41.4087458 147.3913943  88.8895547  41.2894206 146.6877283
  88.1337980  42.3568302 147.4501895  85.0606843  41.3614887 147.3275468
  84.7225354  41.2455951 146.4396003  85.9296611  40.9606052 147.3076474
  80.9193659  43.2150363 143.3172359  80.3558524  43.1240300 142.5488646
  80.8046054  42.3950267 143.7974851  85.5426626  42.5149738 153.2861673
  85.5315267  42.1202537 152.4142177  85.7047265  41.7815811 153.8795445
  78.4658091  44.7101555 146.1556579  79.2579382  44.3692379 145.7402878
  78.7054741  44.8196530 147.0758733  86.4993217  46.8821331 138.6286824
  85.8481197  47.4675411 138.2420837  87.2937580  47.4127526 138.6881861
  80.4248844  43.9710468 139.0273958  81.1979720  43.4239455 138.8886834
  80.7774243  44.8354717 139.2388419  82.2633887  45.2986850 152.2340857
  81.9723753  46.2032481 152.1187524  82.8990871  45.3403378 152.9484927
  83.1890094  42.6763699 148.8242217  83.7853666  42.4519721 148.1099180
  83.2465065  41.9348444 149.4267665  82.7615122  40.1303134 136.6592408
  83.0140643  39.6084655 135.8975871  81.8239681  39.9669279 136.7619092
  87.8058405  39.1338912 144.4667151  88.5921494  38.7158335 144.1157568
  88.0697109  40.0385004 144.6348800  87.9768482  44.5711763 139.1655808
  87.3414315  44.6446389 139.8776713  87.6465889  45.1605361 138.4874887
  93.2066832  39.0714145 145.3700130  93.9392004  38.5013362 145.6037959
  92.4506188  38.6835746 145.8106635  82.4811411  42.0331240 138.8616783
  82.3647669  41.3576143 139.5297867  82.5913671  41.5463614 138.0448936
  84.8242952  41.4941387 142.5663472  84.4601159  40.9672008 143.2776394
  85.6810068  41.1039856 142.3929958  90.7292253  32.7835720 149.8294738
  90.3975577  33.6531131 149.6055953  90.1337866  32.4672004 150.5088769
  84.4648439  36.5231287 137.5624821  84.6322841  37.3911523 137.9295292
  84.2745608  36.6858568 136.6386110  87.2223772  44.9848266 149.2290651
  86.9224495  45.8873304 149.1206458  86.8774832  44.7180449 150.0811804
  80.6736254  41.4362062 145.2627355  79.7486750  41.3038277 145.4705047
  80.9220667  42.2156282 145.7597298  90.6220916  37.5030806 146.9088088
  89.7137793  37.4346214 146.6146849  90.5708512  37.9802751 147.7369914
  84.4437660  38.9788944 138.5471487  84.3237285  39.4245995 139.3856968
  83.7490248  39.3274262 137.9885026  78.0345065  41.0795336 146.0971144
  78.1637446  41.3329815 147.0110556  77.3542516  41.6723044 145.7775800
  82.2044552  51.7492586 142.1961619  82.1268582  52.7000411 142.2750099
  81.6006196  51.4038458 142.8536545  84.6961782  38.9220451 154.8522986
  83.9195116  39.4814371 154.8425850  85.3352345  39.4077234 155.3737856
  92.4882562  35.7047244 148.6865962  91.8456943  35.9979777 148.0405757
  91.9837491  35.5900164 149.4919159  90.1422726  39.4510417 139.3751821
  91.0540582  39.6837804 139.1999519  89.6332373  40.0347462 138.8126900
  82.9508154  41.7305905 154.4140953  83.6922838  42.2690949 154.1375776
  82.2445139  42.3572193 154.5712504  88.4263494  43.8735045 153.0113114
  88.8346850  43.4317456 152.2667746  87.7040755  43.2987673 153.2647307
  84.7794564  38.8107652 150.3846671  85.6255759  39.2347066 150.5281320
  84.7193201  38.1541276 151.0785234  88.7492308  44.4336236 146.7665403
  88.1201171  44.5981950 146.0641471  88.3617970  44.8477845 147.5376367
  92.6281540  45.3690674 144.1209767  91.9432578  45.7489575 143.5706800
  92.7125390  45.9786000 144.8541714  87.9294009  36.4712020 152.0427845
  87.6854941  37.2254081 151.5062120  88.2053940  36.8497368 152.8775092
  89.8832472  43.0150633 150.7205110  90.0949367  43.6582393 150.0439491
  89.8362220  42.1812949 150.2527040  87.4858701  35.6268453 147.6241682
  86.6243180  35.9249707 147.9158420  87.5121135  35.8438852 146.6922715
  84.3020270  44.1710644 144.0315488  84.7658616  44.4498347 143.2420111
  84.0377068  43.2694088 143.8488579  81.1944351  43.7182125 146.9695251
  81.7645708  44.1469394 146.3312736  81.7852463  43.4364710 147.6679437
  83.2389156  40.2933796 140.8405053  83.9413200  40.7454840 141.3078980
  82.9069785  39.6517615 141.4684946  76.9814490  38.5517349 146.1422187
  76.1913544  38.8074877 145.6662297  77.4725738  39.3665687 146.2474227
  90.9978300  45.8922588 148.8927468  91.8195743  45.4902775 148.6110149
  90.9940703  45.7890822 149.8443583  78.9329236  38.9161928 143.1005663
  78.1360399  39.0280622 143.6189159  78.7054828  39.2548580 142.2346554
  84.7634903  45.4406631 151.0488178  84.8279336  45.9027039 151.8846350
  84.0545827  44.8103996 151.1770488  75.2652193  38.8047839 148.5737178
  75.5160232  39.6894849 148.8394753  75.8011742  38.6252441 147.8012269
  99.0884293  42.2361337 145.2412439  98.3348001  41.6668735 145.0856443
  99.2231834  42.2024001 146.1883074  84.4782921  47.1074739 140.9167158
  84.3428596  47.9526275 141.3452006  85.0192733  47.3094017 140.1533092
  77.9312318  44.6250177 141.4895083  78.4436839  45.4193427 141.6400648
  78.5835031  43.9276467 141.4228685  79.7407203  47.7415933 143.5717837
  79.9173831  48.6633898 143.3838821  80.5364036  47.4274352 144.0012216
  86.1051397  47.7298305 155.0467500  85.6615251  46.9434684 154.7288405
  86.7668611  47.9177456 154.3811391  80.8638518  49.2594107 149.5728179
  81.4145944  49.1311170 148.8005173  80.0249994  49.5588996 149.2223072
  88.2032635  48.0101105 153.0748902  88.1851111  48.8309986 152.5829171
  89.1252555  47.8855181 153.2999043  84.6605689  45.5245235 153.9172410
  85.1934026  44.7633523 153.6871718  84.1319771  45.2318887 154.6596565
  87.8275384  30.6305301 149.4466052  87.4839654  31.5206942 149.3705162
  88.1954347  30.4406958 148.5835637  75.8961235  42.9538831 142.2654654
  76.7336457  43.3635840 142.0488362  76.0739503  42.0138273 142.2354848
  87.7925667  40.6213912 137.9538487  87.2772291  41.3918517 138.1926874
  87.5202976  39.9479048 138.5771548  85.3772778  35.4663613 143.0123725
  84.5214375  35.0770463 142.8329364  85.7899730  35.5455573 142.1523511
  86.9071925  33.0009956 147.4115285  86.4036720  32.9640091 146.5983090
  87.2002532  33.9102699 147.4711942  83.1514811  33.0848686 146.4181467
  84.0167807  32.8891494 146.0587356  83.2192320  32.8559037 147.3450824
  92.7659941  43.3746267 139.8891660  91.9889384  43.0357426 139.4446823
  93.4451422  43.3798890 139.2146626  87.5811970  38.4941004 139.7798268
  87.2762106  38.8087153 140.6308411  88.5342412  38.5722424 139.8225601
  86.0258402  44.6531227 141.4291222  85.4979764  43.9183987 141.1164460
  85.5245905  45.4305904 141.1831190  91.0051248  42.8480248 146.5458268
  90.3474923  43.5379509 146.6338397  91.8091647  43.2376680 146.8892255
  80.7577130  35.3150894 143.7897834  81.3320882  35.0926075 143.0571027
  81.3448112  35.3839588 144.5426435  89.8156707  41.2024620 144.5962210
  90.3288589  41.8354612 145.0983920  90.4657931  40.6025816 144.2305570
  81.0846717  37.3455355 137.8093719  80.2484029  37.6830041 138.1302994
  80.9451487  37.2104334 136.8720856  83.0599797  32.1892142 142.5172903
  82.4064210  31.8741160 141.8929518  83.0180272  31.5667883 143.2432726
  84.1711002  42.4711438 134.4326195  83.2638064  42.2400691 134.6317344
  84.6682034  41.6749057 134.6200177  87.0779081  51.1808945 137.3522881
  86.4040780  51.4840641 137.9607839  87.4644903  51.9838025 137.0028338
  86.2937538  38.6774076 146.8420551  85.3760099  38.8989023 146.6842239
  86.7097681  38.7520386 145.9832258  87.0772586  40.0765492 141.9723231
  87.8244405  40.5886889 141.6630353  87.3464175  39.7549544 142.8327625
  85.3499236  42.5724032 138.9550185  84.4410455  42.2883065 139.0522655
  85.3794320  42.9923111 138.0953492  90.5818503  46.1830622 142.7241353
  90.1280830  45.3421532 142.7806543  89.9512470  46.8192020 143.0616133
  89.5251423  37.1122608 143.9542020  88.7874180  36.5999994 144.2852263
  89.7778196  36.6722990 143.1425297  89.0251442  48.0207119 143.6591171
  89.3174417  48.5812176 142.9403537  89.5350063  48.3135680 144.4144330
  89.6263050  29.8898860 144.5483790  89.9321927  29.0296223 144.2609705
  90.3515655  30.4816480 144.3482783  75.9187406  40.2929547 142.9365387
  75.7211806  39.6998907 142.2116454  75.3634070  39.9881757 143.6541326
  83.8984130  40.1852653 145.0559981  83.9532740  39.2326489 144.9802457
  83.0875332  40.3412092 145.5401279  85.0475324  44.1132776 136.2938264
  84.6094754  43.3968635 135.8343901  85.7885764  44.3408891 135.7323355
  81.8376490  38.8029713 142.8150359  81.0244355  39.1023883 143.2215552
  82.3335484  38.4085402 143.5324842  83.9885068  48.7987470 144.7484624
  83.9461246  49.0248316 143.8193156  84.9047766  48.5650844 144.8970425
  87.4350701  39.2671537 151.6465253  87.7900089  39.4943010 152.5059719
  88.0822833  39.5989914 151.0242509  93.1648438  42.3889973 142.3514582
  93.0266337  42.5791569 141.4235772  92.8084657  43.1509356 142.8082634
  81.3290564  36.3748068 148.4311594  81.9689944  36.2336827 147.7334558
  80.4968095  36.0882582 148.0550196  93.1917818  44.4566500 147.3625854
  93.6254325  44.3641789 148.2108908  93.9049399  44.4324001 146.7245870
  82.1050868  45.6750499 144.5446587  82.8991467  45.1800819 144.3429162
  81.3942561  45.1468362 144.1814292  86.9245713  48.0568594 148.8958955
  86.9782735  48.6259531 149.6636670  86.0560494  48.2270479 148.5312992
  78.4133632  39.8193580 140.6206340  77.4831220  39.7578036 140.8376302
  78.5091104  39.2969533 139.8242981  78.3319181  36.3448393 143.2084581
  78.5925998  37.2593727 143.0993742  79.1536353  35.8772836 143.3581194
  79.8044106  37.7586150 150.3783406  80.4767160  37.5503513 149.7296055
  78.9773893  37.5608236 149.9388638  94.0533368  44.4990201 149.8958739
  94.2469258  45.4036011 150.1418014  93.9533986  44.0397620 150.7297324
  85.7069678  34.3848091 152.3949067  85.0597593  35.0838041 152.3013543
  86.4770694  34.8184235 152.7625315  89.1148476  44.6496944 155.4699620
  88.9633983  44.4207495 154.5529704  89.1053156  45.6067545 155.4830965
  85.8833813  42.2228856 150.4545886  86.8125873  42.3740016 150.2814854
  85.4624843  42.3112877 149.5994533  84.6822144  46.2479521 148.2244424
  84.5433230  45.8798305 149.0970362  83.8936741  46.7627160 148.0528382
  85.2770296  51.3488617 139.5669961  85.4522052  50.8776660 140.3815583
  84.5903084  51.9754383 139.7951221  86.2327360  45.6261123 145.6133262
  85.8977192  45.5861893 146.5090912  85.7331305  44.9605839 145.1403672
  80.2071604  41.0328753 151.1385843  80.0691401  40.3008992 151.7397382
  81.1176527  40.9437654 150.8570031  89.1686551  42.9717158 135.8870321
  88.5515722  42.2463986 135.7903374  88.7003040  43.7326518 135.5437396
  82.8353904  40.7448713 150.6269523  83.5453523  40.1041905 150.5856141
  82.7923212  40.9961608 151.5495703  90.8240683  47.6816066 153.5476102
  90.7653229  46.9975286 152.8806685  91.2260201  48.4235056 153.0956728
  79.8431382  54.4977980 146.3409821  80.0827980  55.1296504 147.0188839
  79.0000578  54.1466020 146.6275180  80.9585097  37.1902582 135.0091626
  80.0814563  37.0691383 134.6453872  81.4342850  36.3988660 134.7570514
  90.8258090  45.6455650 151.7790081  89.9384869  45.3081572 151.9016480
  91.3956641  44.9138681 152.0158847  72.4787237  41.9779742 145.1033133
  73.1658277  41.6641472 144.5154148  72.3235366  42.8821106 144.8300384
  77.2821959  36.8669938 149.5318157  77.1980148  36.2595608 148.7968566
  76.4604666  37.3578957 149.5327653  84.3559244  50.3057102 148.7451325
  84.2829415  51.1112074 149.2570629  83.9136637  50.5049068 147.9199346
  84.1449023  49.5428872 142.2554146  83.3616545  50.0850553 142.3492371
  84.8441768  50.0602852 142.6548387  87.4545673  35.3523502 144.8988352
  87.9514373  34.5993464 144.5789422  86.6832655  35.3887819 144.3331561
  95.3075431  41.0563867 146.5406643  95.2965307  41.9388583 146.1700576
  94.4392810  40.7035418 146.3461180  86.8157927  50.2043936 150.9009483
  87.5285899  50.8391401 150.8285385  86.3247956  50.3007802 150.0849485
  88.5375454  44.1095189 142.4726775  87.6031733  44.2296652 142.3031479
  88.7152122  43.2067656 142.2086785  84.0380642  37.4940885 144.6260036
  83.6678430  36.9411925 145.3140942  84.5339734  36.8899018 144.0735036
  91.9248005  39.9512508 143.0076809  92.3908457  40.7840500 142.9337112
  92.3755506  39.4857490 143.7122068  81.8669841  47.9538380 151.7215054
  82.5679300  48.5874863 151.8744448  81.3964956  48.2953111 150.9610693
  89.9924236  46.2956330 140.0062961  90.2684080  46.1812924 140.9156835
  89.1228735  45.8973815 139.9675134  89.8964668  32.3193095 147.0467710
  88.9827748  32.5497322 147.2149917  90.3257770  32.4031539 147.8981743
  89.6671127  40.5082987 149.5467604  89.0142577  40.7558895 148.8920057
  90.0451506  39.6947126 149.2130082  86.6278300  50.5442680 143.6495775
  86.8100695  49.7264336 144.1123527  87.4511286  50.7610373 143.2120665
  86.9620466  49.4710866 140.9110823  87.4908232  48.9603320 140.2980985
  87.2248685  49.1553396 141.7756356  77.4637559  47.4874735 148.6546157
  78.0490995  46.7418423 148.7874061  77.2662397  47.7978692 149.5382821
  80.3176214  50.5225982 143.6708599  79.6486589  51.0072110 143.1872639
  80.1789084  50.7695203 144.5851978  72.0555213  40.0580335 147.3750600
  72.0939313  39.5243926 148.1687718  71.5495506  39.5315541 146.7561577
  84.4581482  52.5569726 150.2691258  85.0099790  52.7201347 151.0340343
  84.7987676  53.1474164 149.5971282  89.3092357  47.3830983 156.1239912
  89.8532261  47.9960942 155.6294867  88.7279202  47.9410562 156.6406925
  75.6863791  38.7844437 140.4504531  75.9817232  37.8755116 140.3971585
  74.7851827  38.7632177 140.1285534  87.5949870  50.5051701 147.2554940
  87.4701009  49.7041441 146.7465885  88.2528961  50.9997895 146.7668910
  79.2158038  36.8600434 146.4332080  78.4944624  37.4736402 146.2939553
  80.0051294  37.3958199 146.3548726  89.6584778  48.3060721 148.8834490
  88.7115114  48.1866073 148.8112817  90.0067551  47.4183219 148.9660751
  77.4151633  36.4658535 140.5743857  77.0864339  35.5855914 140.3918962
  77.7691003  36.4106204 141.4620246  86.6631211  48.1013438 145.0838842
  86.5156174  47.1730145 145.2646412  87.4884705  48.1233528 144.5995917
  80.5293456  36.7531505 140.9419334  80.8689528  37.2817426 140.2197943
  80.9765576  37.0911911 141.7177901  90.2665333  48.9241996 146.1703715
  91.1911881  48.7184858 146.0328166  90.0980637  48.6758398 147.0793056
  83.2236897  35.1368555 150.3922402  82.8833717  34.3376369 150.7943082
  82.5175903  35.4370266 149.8199235  83.8753368  32.2217868 148.8449725
  84.6979438  31.7478346 148.7228616  84.1191432  33.0008352 149.3448412
  82.5161603  35.2506126 139.1412627  83.2369965  35.6287379 138.6376344
  81.8926907  35.9695003 139.2447605  86.6592726  35.9551275 140.0770959
  86.8756340  36.8375913 139.7759787  86.1786793  35.5637489 139.3476601
  81.3991947  38.9136989 146.6541704  81.2536528  39.2277292 147.5465985
  80.9217151  39.5321889 146.1012603  83.2588330  35.9039537 146.7022593
  83.2449899  35.0080630 146.3654891  83.9760758  35.9110200 147.3360879
  85.1114461  36.3376877 148.7475721  84.8532239  37.2593947 148.7460051
  84.5799501  35.9407311 149.4376185  90.0560649  49.4427664 141.5265806
  90.2297527  48.8774086 140.7739659  90.5489541  50.2428559 141.3445296
  75.8737609  41.4542333 149.5929365  75.3291077  42.2302141 149.7249639
  76.7516959  41.8013137 149.4348486  82.6625226  34.7853917 141.9710164
  82.7841137  33.8570563 142.1701051  82.3727268  34.7992603 141.0588479
  85.5316416  32.4708827 145.1076883  85.5538113  32.5348160 144.1528863
  85.9484475  31.6313336 145.3017390  95.9100041  42.2064087 143.1456106
  96.3531187  41.4571412 142.7475229  95.0326551  42.1974223 142.7629838
  91.0435822  48.7594428 138.6262705  91.7386727  49.3801121 138.8450019
  91.3858972  47.9089779 138.9015082  92.9427245  46.2094134 140.1550035
  93.4678569  46.5481407 139.4299355  92.8549598  45.2741149 139.9713170
  84.6047294  50.1228207 152.2839912  84.9134420  49.8777354 153.1562612
  85.4022776  50.3274846 151.7958782  84.6267906  52.2766117 144.5145288
  84.1872896  51.7842496 145.2078145  85.3776023  51.7339085 144.2737364
  77.1060245  48.4677658 144.5169917  77.9318265  48.1681430 144.1368560
  76.7554297  47.6985280 144.9659705  82.0741778  47.8204126 146.5867590
  81.4521787  47.1574831 146.2869818  82.7446645  47.8465258 145.9041238
  75.3068850  46.3863984 145.4758850  74.4700758  45.9586159 145.2942851
  75.2792495  46.5796428 146.4129641  92.6321151  46.8427037 155.4601233
  91.8416695  46.8251176 154.9205733  92.3954506  47.3815331 156.2150270
  92.7519026  43.6919504 152.7733962  92.8017031  43.5269511 153.7149485
  92.6432950  42.8246763 152.3831843  81.6355285  46.3708049 140.0626051
  81.7843405  47.0543514 139.4092723  82.4421728  46.3513140 140.5775506
  90.0422789  39.6750432 154.0893269  90.9432651  39.5356897 153.7977266
  90.1170763  39.8404887 155.0291446  84.3765594  37.0517287 152.9346455
  83.5068903  37.3450853 152.6629043  84.6125074  37.6357732 153.6553718
  94.2537223  46.1116445 153.0175983  93.9622031  46.4746426 153.8539444
  93.6409354  45.3983454 152.8389315  95.4532905  43.6769325 145.5378554
  96.2879797  44.1159129 145.7016114  95.5892034  43.2007978 144.7186799
  92.5024411  41.2349060 151.4856041  92.9778533  41.4276706 150.6774893
  91.5789977  41.2908246 151.2399425  79.3907918  42.3973227 141.0687120
  79.1453960  41.4935557 141.2667330  79.5603832  42.3990378 140.1266598
  87.0804628  33.2696903 150.4511875  87.5986572  34.0057930 150.1258364
  86.7259761  33.5760897 151.2858634  78.6603565  38.1301585 138.5673281
  77.9672810  38.2045940 137.9113317  78.4155317  37.3661928 139.0894798
  87.3317222  29.6897186 145.9712772  87.6118976  29.0220375 146.5973198
  88.1167829  29.8826282 145.4587436  85.1350690  48.8656180 137.5337798
  84.5624657  49.4846367 137.0808270  85.7083484  49.4155542 138.0677720
  91.2026080  38.1114820 149.7184347  92.1543503  38.2112918 149.7396571
  91.0329531  37.3193089 150.2282431  89.2240460  35.1970403 149.9043748
  88.6290392  35.4775416 149.2090236  88.9390156  35.6864304 150.6760489
  88.3547950  49.1493330 138.6646380  89.2878623  49.0838892 138.8679256
  88.2671163  49.9849597 138.2060913  90.9835967  48.4659200 135.6250328
  90.9049598  48.1319064 136.5186086  91.8045634  48.9580968 135.6241800
  93.6814158  41.3320940 148.8326647  93.6490478  40.3936940 149.0186330
  94.2914782  41.4104976 148.0992471  85.5197489  40.2016993 134.8753851
  86.4656594  40.0723201 134.9442269  85.1411734  39.4631655 135.3523279
  93.8308647  38.1231983 148.8784930  93.3147695  37.3390440 148.6914859
  94.7148595  37.7950700 149.0431449  91.4919373  31.8672999 144.8380742
  91.2944195  31.5588087 145.7224074  92.1019079  32.5934638 144.9678672
  99.4990708  42.3936947 147.9732683 100.2294096  42.1322235 148.5340387
  98.8897653  41.6565668 148.0134751  97.5806005  40.5344809 148.5707135
  96.8539169  40.4000774 147.9623626  97.1653292  40.8421638 149.3763853
  85.4036181  44.2534739 156.3354508  86.3239191  44.4313338 156.5294554
  85.3685764  43.3090784 156.1834207  83.7040406  38.1266969 134.8108736
  82.7971861  37.8300082 134.8871449  83.9816387  37.8296787 133.9443022
  74.6218346  39.4473332 145.2607782  74.3021131  38.5938641 144.9682156
  74.0751775  39.6621911 146.0165750  78.3998254  42.1635773 148.9777289
  78.6184264  43.0952881 148.9965323  78.8124028  41.8043748 149.7632093
  85.3202472  32.6703859 140.9652977  84.5103200  32.3250944 141.3408223
  86.0086889  32.3611403 141.5540589  87.2493020  31.7481906 142.5877274
  87.8024059  32.1677359 143.2467297  87.4863106  30.8217654 142.6300230
  82.4739191  34.9853904 134.9520715  83.3358355  35.3108803 135.2116532
  82.6589535  34.1985400 134.4393781  74.4906606  43.0676244 147.2300904
  73.7970078  42.6530197 146.7170858  75.2379597  43.1096780 146.6334323
  90.6271827  33.8582431 142.0955938  90.0470496  34.5167235 141.7133990
  90.3607760  33.0359775 141.6843356  89.0775394  33.2587488 144.2977258
  89.5775172  33.3704023 143.4891577  89.7211001  32.9548541 144.9378067
  76.4043349  42.9994498 145.1066919  76.3814037  43.0982185 144.1548802
  76.7143985  43.8459649 145.4284085  79.0630727  45.0570653 149.2213533
  80.0173980  45.0254595 149.1543465  78.8643250  44.5961277 150.0363759
  79.6530109  43.6271769 151.7884331  80.4722998  44.1215847 151.8119168
  79.9266917  42.7103737 151.7601898  89.4096705  36.0182521 141.1512286
  88.5222560  36.3032172 140.9332481  89.8250694  35.8576284 140.3039563
  92.7611241  36.0429042 144.8666626  93.5371631  36.5325495 145.1391242
  92.0359375  36.4687096 145.3238495  95.1983800  36.7556661 145.9240566
  95.7928291  36.5152397 145.2133874  95.2710384  36.0363792 146.5514102
  77.4180956  50.5990272 146.2383731  77.2835424  49.8390673 145.6721729
  77.0013018  51.3231172 145.7712520  88.5539919  45.7827196 135.2460306
  89.2575769  45.9877198 135.8617962  87.8302567  46.3503958 135.5109390
  89.3837729  41.5337057 141.3662576  89.3272930  41.9905608 140.5270209
  89.9366071  40.7727742 141.1885419  93.1942535  37.3226789 142.1912696
  92.9379469  36.9223425 143.0220904  92.5695403  38.0370583 142.0662835
  97.5054873  40.0622862 144.6983987  96.9454431  40.1316051 145.4715549
  96.8998376  39.8863847 143.9783484  80.5750081  51.4959589 146.4502174
  80.4582466  52.4405022 146.3480864  79.7542528  51.1933151 146.8387973
  90.4626616  46.2209725 137.2958766  91.2972220  45.7890923 137.1136241
  90.3010959  46.0491739 138.2235661  90.1172508  42.7241838 138.6615106
  90.0621312  42.5586110 137.7203550  89.4918563  43.4317871 138.8177295
  87.4318415  45.0290750 157.9868668  88.3009575  45.2031402 157.6255303
  86.9525167  45.8485167 157.8644398  83.4268634  32.2249947 138.2400424
  83.4147304  33.1691787 138.3968695  84.3192056  32.0420093 137.9459885
  81.6004596  52.1487851 149.6658102  82.5031842  52.1811461 149.9824597
  81.3741966  51.2188302 149.6804438  83.3558198  50.9018838 146.3268181
  82.4053829  50.9020699 146.2132553  83.6590684  50.1551572 145.8104215
  87.2420753  28.8192724 142.4946361  86.4753149  28.2651211 142.6403043
  87.6531458  28.8914593 143.3560512  99.0910891  56.7379376 147.3913943
  99.7289301  56.6186123 146.6877283  98.9731734  57.6860220 147.4501895
  95.9000597  56.6906804 147.3275468  95.5619109  56.5747869 146.4396003
  96.7690366  56.2897969 147.3076474  91.7587413  58.5442281 143.3172359
  91.1952278  58.4532218 142.5488646  91.6439808  57.7242185 143.7974851
  96.3820380  57.8441656 153.2861673  96.3709021  57.4494454 152.4142177
  96.5441020  57.1107729 153.8795445  89.3051845  60.0393472 146.1556579
  90.0973137  59.6984297 145.7402878  89.5448495  60.1488447 147.0758733
  97.3386972  62.2113248 138.6286824  96.6874952  62.7967329 138.2420837
  98.1331335  62.7419443 138.6881861  91.2642599  59.3002385 139.0273958
  92.0373475  58.7531373 138.8886834  91.6167998  60.1646635 139.2388419
  93.1027642  60.6278768 152.2340857  92.8117508  61.5324399 152.1187524
  93.7384626  60.6695295 152.9484927  94.0283848  58.0055616 148.8242217
  94.6247421  57.7811639 148.1099180  94.0858820  57.2640362 149.4267665
  93.6008877  55.4595052 136.6592408  93.8534397  54.9376573 135.8975871
  92.6633436  55.2961197 136.7619092  98.6452160  54.4630830 144.4667151
  99.4315249  54.0450253 144.1157568  98.9090864  55.3676922 144.6348800
  98.8162237  59.9003680 139.1655808  98.1808070  59.9738307 139.8776713
  98.4859643  60.4897279 138.4874887 104.0460587  54.4006063 145.3700130
 104.7785759  53.8305280 145.6037959 103.2899942  54.0127664 145.8106635
  93.3205166  57.3623158 138.8616783  93.2041424  56.6868061 139.5297867
  93.4307425  56.8755531 138.0448936  95.6636706  56.8233305 142.5663472
  95.2994914  56.2963926 143.2776394  96.5203822  56.4331774 142.3929958
 101.5686007  48.1127637 149.8294738 101.2369332  48.9823048 149.6055953
 100.9731620  47.7963921 150.5088769  95.3042193  51.8523204 137.5624821
  95.4716596  52.7203441 137.9295292  95.1139363  52.0150486 136.6386110
  98.0617527  60.3140183 149.2290651  97.7618250  61.2165222 149.1206458
  97.7168586  60.0472366 150.0811804  91.5130008  56.7653980 145.2627355
  90.5880505  56.6330194 145.4705047  91.7614421  57.5448199 145.7597298
 101.4614670  52.8322723 146.9088088 100.5531548  52.7638132 146.6146849
 101.4102266  53.3094668 147.7369914  95.2831414  54.3080862 138.5471487
  95.1631040  54.7537913 139.3856968  94.5884003  54.6566180 137.9885026
  88.8738819  56.4087254 146.0971144  89.0031200  56.6621733 147.0110556
  88.1936270  57.0014962 145.7775800  93.0438306  67.0784504 142.1961619
  92.9662336  68.0292329 142.2750099  92.4399950  66.7330376 142.8536545
  95.5355536  54.2512369 154.8522986  94.7588870  54.8106289 154.8425850
  96.1746099  54.7369152 155.3737856 103.3276317  51.0339162 148.6865962
 102.6850697  51.3271695 148.0405757 102.8231245  50.9192082 149.4919159
 100.9816480  54.7802335 139.3751821 101.8934337  55.0129722 139.1999519
 100.4726128  55.3639379 138.8126900  93.7901909  57.0597822 154.4140953
  94.5316593  57.5982866 154.1375776  93.0838894  57.6864111 154.5712504
  99.2657248  59.2026963 153.0113114  99.6740604  58.7609373 152.2667746
  98.5434510  58.6279590 153.2647307  95.6188318  54.1399570 150.3846671
  96.4649513  54.5638983 150.5281320  95.5586956  53.4833194 151.0785234
  99.5886063  59.7628153 146.7665403  98.9594925  59.9273868 146.0641471
  99.2011725  60.1769763 147.5376367 103.4675295  60.6982591 144.1209767
 102.7826333  61.0781493 143.5706800 103.5519144  61.3077918 144.8541714
  98.7687764  51.8003938 152.0427845  98.5248695  52.5545999 151.5062120
  99.0447694  52.1789286 152.8775092 100.7226226  58.3442550 150.7205110
 100.9343122  58.9874310 150.0439491 100.6755975  57.5104867 150.2527040
  98.3252455  50.9560371 147.6241682  97.4636934  51.2541625 147.9158420
  98.3514890  51.1730770 146.6922715  95.1414025  59.5002562 144.0315488
  95.6052370  59.7790265 143.2420111  94.8770823  58.5986006 143.8488579
  92.0338106  59.0474043 146.9695251  92.6039463  59.4761311 146.3312736
  92.6246218  58.7656628 147.6679437  94.0782911  55.6225714 140.8405053
  94.7806954  56.0746758 141.3078980  93.7463539  54.9809533 141.4684946
  92.5263272  54.2137471 155.2156263  91.8961933  54.8953751 155.4491659
  92.4199360  54.1020552 154.2709401  87.8208245  53.8809267 146.1422187
  87.0307299  54.1366795 145.6662297  88.3119492  54.6957604 146.2474227
 101.8372054  61.2214506 148.8927468 102.6589498  60.8194693 148.6110149
 101.8334457  61.1182740 149.8443583  89.7722990  54.2453846 143.1005663
  88.9754153  54.3572540 143.6189159  89.5448582  54.5840498 142.2346554
  95.6028658  60.7698549 151.0488178  95.6673090  61.2318956 151.8846350
  94.8939582  60.1395914 151.1770488  86.1045948  54.1339757 148.5737178
  86.3553986  55.0186767 148.8394753  86.6405496  53.9544359 147.8012269
 109.9278047  57.5653254 145.2412439 109.1741756  56.9960652 145.0856443
 110.0625589  57.5315919 146.1883074  95.3176675  62.4366657 140.9167158
  95.1822350  63.2818192 141.3452006  95.8586488  62.6385934 140.1533092
  91.8044015  48.5158236 157.5781514  91.4110961  47.9624435 158.2529158
  92.6210155  48.8268815 157.9688031  88.7706073  59.9542095 141.4895083
  89.2830593  60.7485345 141.6400648  89.4228786  59.2568385 141.4228685
  90.5800957  63.0707851 143.5717837  90.7567586  63.9925816 143.3838821
  91.3757791  62.7566270 144.0012216  94.7211976  49.9316116 155.1701770
  95.4621689  50.5323269 155.0906233  94.9529899  49.1893753 154.6119813
  89.8653314  55.1172483 153.4480000  89.7506829  54.2157740 153.7487099
  89.0097832  55.3636180 153.0964816  96.9445152  63.0590223 155.0467500
  96.5009006  62.2726602 154.7288405  97.6062365  63.2469374 154.3811391
  91.7032273  64.5886025 149.5728179  92.2539698  64.4603088 148.8005173
  90.8643749  64.8880914 149.2223072  99.0426390  63.3393023 153.0748902
  99.0244865  64.1601904 152.5829171  99.9646310  63.2147098 153.2999043
  95.4999444  60.8537152 153.9172410  96.0327781  60.0925441 153.6871718
  94.9713525  60.5610804 154.6596565  98.6669139  45.9597218 149.4466052
  98.3233408  46.8498860 149.3705162  99.0348102  45.7698876 148.5835637
  86.7354990  58.2830749 142.2654654  87.5730212  58.6927757 142.0488362
  86.9133257  57.3430191 142.2354848  98.6319422  55.9505830 137.9538487
  98.1166045  56.7210434 138.1926874  98.3596730  55.2770966 138.5771548
  96.2166533  50.7955530 143.0123725  95.3608129  50.4062381 142.8329364
  96.6293484  50.8747491 142.1523511  97.7465679  48.3301874 147.4115285
  97.2430475  48.2932009 146.5983090  98.0396286  49.2394616 147.4711942
  93.9908565  48.4140603 146.4181467  94.8561562  48.2183412 146.0587356
  94.0586074  48.1850955 147.3450824 103.6053696  58.7038184 139.8891660
 102.8283139  58.3649344 139.4446823 104.2845177  58.7090807 139.2146626
  98.4205725  53.8232922 139.7798268  98.1155860  54.1379071 140.6308411
  99.3736167  53.9014342 139.8225601  96.8652157  59.9823145 141.4291222
  96.3373518  59.2475905 141.1164460  96.3639659  60.7597821 141.1831190
 101.8445003  58.1772165 146.5458268 101.1868677  58.8671427 146.6338397
 102.6485402  58.5668597 146.8892255  91.5970884  50.6442811 143.7897834
  92.1714636  50.4217993 143.0571027  92.1841867  50.7131506 144.5426435
 100.6550461  56.5316538 144.5962210 101.1682343  57.1646530 145.0983920
 101.3051685  55.9317734 144.2305570  91.9240471  52.6747272 137.8093719
  91.0877784  53.0121959 138.1302994  91.7845241  52.5396252 136.8720856
  93.8993552  47.5184060 142.5172903  93.2457964  47.2033077 141.8929518
  93.8574026  46.8959801 143.2432726  95.0104757  57.8003355 134.4326195
  94.1031819  57.5692609 134.6317344  95.5075789  57.0040974 134.6200177
  97.9172836  66.5100862 137.3522881  97.2434534  66.8132559 137.9607839
  98.3038658  67.3129943 137.0028338  97.1331292  54.0065994 146.8420551
  96.2153854  54.2280941 146.6842239  97.5491436  54.0812304 145.9832258
  97.9166340  55.4057409 141.9723231  98.6638159  55.9178807 141.6630353
  98.1857930  55.0841462 142.8327625  96.1892990  57.9015950 138.9550185
  95.2804210  57.6174983 139.0522655  96.2188074  58.3215029 138.0953492
 101.4212258  61.5122540 142.7241353 100.9674585  60.6713449 142.7806543
 100.7906224  62.1483938 143.0616133 100.3645177  52.4414526 143.9542020
  99.6267934  51.9291912 144.2852263 100.6171951  52.0014907 143.1425297
  99.8645197  63.3499036 143.6591171 100.1568171  63.9104093 142.9403537
 100.3743817  63.6427597 144.4144330 100.4656805  45.2190778 144.5483790
 100.7715681  44.3588141 144.2609705 101.1909409  45.8108398 144.3482783
  86.7581161  55.6221464 142.9365387  86.5605560  55.0290825 142.2116454
  86.2027825  55.3173674 143.6541326  94.7377884  55.5144571 145.0559981
  94.7926494  54.5618407 144.9802457  93.9269086  55.6704010 145.5401279
  95.8869078  59.4424694 136.2938264  95.4488508  58.7260553 135.8343901
  96.6279519  59.6700809 135.7323355  92.6770244  54.1321630 142.8150359
  91.8638110  54.4315801 143.2215552  93.1729238  53.7377319 143.5324842
  94.8278822  64.1279387 144.7484624  94.7855001  64.3540234 143.8193156
  95.7441521  63.8942762 144.8970425  98.2744456  54.5963455 151.6465253
  98.6293844  54.8234928 152.5059719  98.9216587  54.9281832 151.0242509
 104.0042193  57.7181891 142.3514582 103.8660091  57.9083487 141.4235772
 103.6478412  58.4801274 142.8082634  92.1684319  51.7039986 148.4311594
  92.8083698  51.5628745 147.7334558  91.3361850  51.4174499 148.0550196
 104.0311572  59.7858418 147.3625854 104.4648079  59.6933707 148.2108908
 104.7443153  59.7615918 146.7245870  92.9444623  61.0042416 144.5446587
  93.7385221  60.5092737 144.3429162  92.2336315  60.4760280 144.1814292
  97.7639467  63.3860512 148.8958955  97.8176490  63.9551448 149.6636670
  96.8954249  63.5562397 148.5312992  89.2527386  55.1485498 140.6206340
  88.3224974  55.0869954 140.8376302  89.3484858  54.6261451 139.8242981
  89.1712935  51.6740311 143.2084581  89.4319753  52.5885644 143.0993742
  89.9930108  51.2064754 143.3581194  90.6437861  53.0878068 150.3783406
  91.3160914  52.8795430 149.7296055  89.8167647  52.8900154 149.9388638
 104.8927122  59.8282118 149.8958739 105.0863012  60.7327929 150.1418014
 104.7927740  59.3689538 150.7297324  96.5463433  49.7140009 152.3949067
  95.8991348  50.4129959 152.3013543  97.3164448  50.1476153 152.7625315
  99.9542231  59.9788861 155.4699620  99.8027737  59.7499413 154.5529704
  99.9446910  60.9359463 155.4830965  96.7227567  57.5520774 150.4545886
  97.6519627  57.7031934 150.2814854  96.3018597  57.6404795 149.5994533
  95.5215899  61.5771438 148.2244424  95.3826985  61.2090223 149.0970362
  94.7330495  62.0919078 148.0528382  96.1164051  66.6780535 139.5669961
  96.2915807  66.2068578 140.3815583  95.4296839  67.3046301 139.7951221
  97.0721114  60.9553041 145.6133262  96.7370947  60.9153811 146.5090912
  96.5725060  60.2897757 145.1403672  91.0465358  56.3620671 151.1385843
  90.9085156  55.6300910 151.7397382  91.9570281  56.2729571 150.8570031
 100.0080306  58.3009075 135.8870321  99.3909476  57.5755904 135.7903374
  99.5396794  59.0618436 135.5437396  93.6747659  56.0740630 150.6269523
  94.3847277  55.4333823 150.5856141  93.6316967  56.3253525 151.5495703
 101.6634437  63.0107984 153.5476102 101.6046983  62.3267204 152.8806685
 102.0653956  63.7526974 153.0956728  92.3876593  53.0605848 152.4465162
  91.8513950  52.6096587 153.0986758  91.7993301  53.1951757 151.7035626
  90.6825136  69.8269898 146.3409821  90.9221734  70.4588422 147.0188839
  89.8394333  69.4757938 146.6275180  91.7978852  52.5194500 135.0091626
  90.9208318  52.3983300 134.6453872  92.2736605  51.7280578 134.7570514
 101.6651845  60.9747568 151.7790081 100.7778623  60.6373489 151.9016480
 102.2350396  60.2430599 152.0158847  83.3180992  57.3071659 145.1033133
  84.0052032  56.9933389 144.5154148  83.1629120  58.2113024 144.8300384
  88.1215714  52.1961856 149.5318157  88.0373903  51.5887526 148.7968566
  87.2998420  52.6870874 149.5327653  95.1952998  65.6349020 148.7451325
  95.1223169  66.4403992 149.2570629  94.7530391  65.8340986 147.9199346
  94.9842778  64.8720790 142.2554146  94.2010300  65.4142470 142.3492371
  95.6835523  65.3894770 142.6548387  98.2939428  50.6815420 144.8988352
  98.7908127  49.9285382 144.5789422  97.5226409  50.7179736 144.3331561
 106.1469185  56.3855785 146.5406643 106.1359061  57.2680500 146.1700576
 105.2786565  56.0327336 146.3461180  97.6551682  65.5335854 150.9009483
  98.3679654  66.1683319 150.8285385  97.1641710  65.6299720 150.0849485
  99.3769208  59.4387107 142.4726775  98.4425487  59.5588569 142.3031479
  99.5545877  58.5359574 142.2086785  94.8774396  52.8232803 144.6260036
  94.5072184  52.2703843 145.3140942  95.3733489  52.2190936 144.0735036
 102.7641760  55.2804426 143.0076809 103.2302212  56.1132418 142.9337112
 103.2149260  54.8149408 143.7122068  92.7063595  63.2830298 151.7215054
  93.4073055  63.9166781 151.8744448  92.2358710  63.6245029 150.9610693
 100.8317991  61.6248247 140.0062961 101.1077835  61.5104842 140.9156835
  99.9622490  61.2265732 139.9675134 100.7358423  47.6485013 147.0467710
  99.8221502  47.8789240 147.2149917 101.1651524  47.7323457 147.8981743
 100.5064881  55.8374905 149.5467604  99.8536331  56.0850812 148.8920057
 100.8845261  55.0239043 149.2130082  97.4672055  65.8734598 143.6495775
  97.6494449  65.0556254 144.1123527  98.2905041  66.0902290 143.2120665
  97.8014220  64.8002783 140.9110823  98.3301987  64.2895238 140.2980985
  98.0642440  64.4845314 141.7756356  96.5552454  56.5794716 156.0333642
  95.8793091  56.4788845 156.7036017  97.3780088  56.4233930 156.4969639
  88.3031313  62.8166653 148.6546157  88.8884750  62.0710340 148.7874061
  88.1056152  63.1270609 149.5382821  91.1569968  65.8517900 143.6708599
  90.4880344  66.3364028 143.1872639  91.0182838  66.0987120 144.5851978
  82.8948968  55.3872253 147.3750600  82.9333067  54.8535843 148.1687718
  82.3889261  54.8607458 146.7561577  95.2975237  67.8861643 150.2691258
  95.8493545  68.0493265 151.0340343  95.6381430  68.4766081 149.5971282
  90.2739730  50.2336793 150.8713142  90.3381057  51.0951624 150.4590540
  90.2106850  49.6210795 150.1385501  89.7492003  52.3059926 154.5186177
  90.3764041  51.9237003 155.1323701  88.8919922  52.0874128 154.8841869
 100.1486111  62.7122901 156.1239912 100.6926015  63.3252859 155.6294867
  99.5672956  63.2702479 156.6406925  86.5257545  54.1136355 140.4504531
  86.8210987  53.2047033 140.3971585  85.6245581  54.0924094 140.1285534
  98.4343624  65.8343619 147.2554940  98.3094764  65.0333359 146.7465885
  99.0922715  66.3289812 146.7668910  90.0551792  52.1892352 146.4332080
  89.3338378  52.8028319 146.2939553  90.8445048  52.7250116 146.3548726
 100.4978533  63.6352639 148.8834490  99.5508868  63.5157990 148.8112817
 100.8461306  62.7475137 148.9660751  92.8578106  49.5246778 152.7072732
  93.3812508  49.7709075 153.4699041  92.6390439  50.3566813 152.2875869
  88.2545387  51.7950453 140.5743857  87.9258093  50.9147832 140.3918962
  88.6084758  51.7398121 141.4620246  97.5024966  63.4305355 145.0838842
  97.3549928  62.5022063 145.2646412  98.3278459  63.4525446 144.5995917
  91.3687210  52.0823422 140.9419334  91.7083283  52.6109344 140.2197943
  91.8159331  52.4203829 141.7177901 101.1059088  64.2533914 146.1703715
 102.0305635  64.0476775 146.0328166 100.9374391  64.0050315 147.0793056
  94.0630651  50.4660473 150.3922402  93.7227471  49.6668286 150.7943082
  93.3569657  50.7662184 149.8199235  94.7147123  47.5509786 148.8449725
  95.5373192  47.0770264 148.7228616  94.9585186  48.3300269 149.3448412
  93.3555357  50.5798044 139.1412627  94.0763720  50.9579297 138.6376344
  92.7320661  51.2986921 139.2447605  97.4986480  51.2843193 140.0770959
  97.7150095  52.1667831 139.7759787  97.0180547  50.8929406 139.3476601
  92.2385702  54.2428906 146.6541704  92.0930282  54.5569209 147.5465985
  91.7610905  54.8613807 146.1012603  94.0982084  51.2331454 146.7022593
  94.0843653  50.3372547 146.3654891  94.8154513  51.2402118 147.3360879
  95.9508215  51.6668794 148.7475721  95.6925993  52.5885865 148.7460051
  95.4193256  51.2699229 149.4376185 100.8954404  64.7719582 141.5265806
 101.0691281  64.2066004 140.7739659 101.3883295  65.5720476 141.3445296
  86.7131364  56.7834251 149.5929365  86.1684832  57.5594059 149.7249639
  87.5910714  57.1305055 149.4348486  93.5018980  50.1145834 141.9710164
  93.6234892  49.1862481 142.1701051  93.2121023  50.1284520 141.0588479
  96.3710171  47.8000745 145.1076883  96.3931868  47.8640078 144.1528863
  96.7878230  46.9605254 145.3017390 106.7493795  57.5356004 143.1456106
 107.1924941  56.7863330 142.7475229 105.8720305  57.5266141 142.7629838
 101.8829576  64.0886346 138.6262705 102.5780481  64.7093039 138.8450019
 102.2252727  63.2381697 138.9015082  87.4997386  55.9104147 152.4859522
  86.7579122  56.0586782 153.0724152  87.1790130  56.1712412 151.6226271
 103.7821000  61.5386051 140.1550035 104.3072324  61.8773324 139.4299355
 103.6943352  60.6033067 139.9713170  95.4441048  65.4520125 152.2839912
  95.7528175  65.2069272 153.1562612  96.2416530  65.6566764 151.7958782
  95.4661660  67.6058035 144.5145288  95.0266651  67.1134413 145.2078145
  96.2169777  67.0631002 144.2737364  87.9453999  63.7969576 144.5169917
  88.7712019  63.4973347 144.1368560  87.5948051  63.0277198 144.9659705
  92.9135532  63.1496044 146.5867590  92.2915542  62.4866749 146.2869818
  93.5840399  63.1757176 145.9041238  86.1462604  61.7155902 145.4758850
  85.3094513  61.2878076 145.2942851  86.1186250  61.9088345 146.4129641
  92.9860060  51.6277832 156.1800096  93.0348215  52.5039955 155.7977866
  93.5282574  51.0855225 155.6071739 103.4714906  62.1718955 155.4601233
 102.6810449  62.1543094 154.9205733 103.2348260  62.7107249 156.2150270
 103.5912781  59.0211421 152.7733962 103.6410786  58.8561429 153.7149485
 103.4826704  58.1538680 152.3831843  92.4749039  61.6999967 140.0626051
  92.6237160  62.3835432 139.4092723  93.2815483  61.6805057 140.5775506
 100.8816543  55.0042349 154.0893269 101.7826406  54.8648814 153.7977266
 100.9564518  55.1696804 155.0291446  95.2159348  52.3809204 152.9346455
  94.3462658  52.6742770 152.6629043  95.4518829  52.9649649 153.6553718
 105.0930977  61.4408363 153.0175983 104.8015786  61.8038344 153.8539444
 104.4803109  60.7275371 152.8389315 106.2926660  59.0061243 145.5378554
 107.1273551  59.4451047 145.7016114 106.4285789  58.5299896 144.7186799
 103.3418166  56.5640978 151.4856041 103.8172287  56.7568624 150.6774893
 102.4183731  56.6200163 151.2399425  90.2301672  57.7265145 141.0687120
  89.9847714  56.8227475 141.2667330  90.3997587  57.7282295 140.1266598
  97.9198382  48.5988821 150.4511875  98.4380326  49.3349848 150.1258364
  97.5653515  48.9052814 151.2858634  89.4997320  53.4593502 138.5673281
  88.8066565  53.5337857 137.9113317  89.2549072  52.6953846 139.0894798
  98.1710976  45.0189104 145.9712772  98.4512730  44.3512293 146.5973198
  98.9561583  45.2118199 145.4587436  95.9744445  64.1948098 137.5337798
  95.4018412  64.8138285 137.0808270  96.5477239  64.7447459 138.0677720
 102.0419835  53.4406738 149.7184347 102.9937258  53.5404835 149.7396571
 101.8723285  52.6485006 150.2282431 100.0634214  50.5262321 149.9043748
  99.4684146  50.8067334 149.2090236  99.7783911  51.0156222 150.6760489
  99.1941705  64.4785248 138.6646380 100.1272378  64.4130809 138.8679256
  99.1064917  65.3141515 138.2060913 101.8229721  63.7951118 135.6250328
 101.7443353  63.4610982 136.5186086 102.6439388  64.2872886 135.6241800
 104.5207913  56.6612857 148.8326647 104.4884233  55.7228858 149.0186330
 105.1308536  56.7396894 148.0992471  96.3591243  55.5308910 134.8753851
  97.3050348  55.4015118 134.9442269  95.9805488  54.7923572 135.3523279
 104.6702401  53.4523901 148.8784930 104.1541450  52.6682357 148.6914859
 105.5542350  53.1242617 149.0431449 102.3313128  47.1964916 144.8380742
 102.1337949  46.8880005 145.7224074 102.9412834  47.9226555 144.9678672
 110.3384462  57.7228864 147.9732683 111.0687851  57.4614152 148.5340387
 109.7291408  56.9857586 148.0134751 108.4199759  55.8636727 148.5707135
 107.6932923  55.7292692 147.9623626 108.0047046  56.1713555 149.3763853
  96.2429936  59.5826656 156.3354508  97.1632945  59.7605255 156.5294554
  96.2079519  58.6382702 156.1834207  94.5434161  53.4558887 134.8108736
  93.6365616  53.1591999 134.8871449  94.8210142  53.1588705 133.9443022
  85.4612101  54.7765250 145.2607782  85.1414885  53.9230558 144.9682156
  84.9145529  54.9913828 146.0165750  89.2392008  57.4927691 148.9777289
  89.4578018  58.4244799 148.9965323  89.6517782  57.1335666 149.7632093
  96.1596226  47.9995776 140.9652977  95.3496955  47.6542861 141.3408223
  96.8480643  47.6903320 141.5540589  98.0886775  47.0773823 142.5877274
  98.6417813  47.4969277 143.2467297  98.3256861  46.1509571 142.6300230
  94.1119874  53.0660897 158.3680038  94.0116601  54.0155254 158.2992129
  93.8941416  52.7379136 157.4956108  93.3132945  50.3145822 134.9520715
  94.1752109  50.6400720 135.2116532  93.4983289  49.5277318 134.4393781
  85.3300361  58.3968162 147.2300904  84.6363832  57.9822114 146.7170858
  86.0773352  58.4388698 146.6334323 101.4665582  49.1874348 142.0955938
 100.8864251  49.8459152 141.7133990 101.2001514  48.3651693 141.6843356
  99.9169148  48.5879406 144.2977258 100.4168926  48.6995941 143.4891577
 100.5604756  48.2840459 144.9378067  93.9751144  56.4958036 157.1845099
  93.4918226  57.2958396 157.3908988  94.0612083  56.5065981 156.2312543
  87.2437103  58.3286415 145.1066919  87.2207792  58.4274103 144.1548802
  87.5537740  59.1751566 145.4284085  89.9024481  60.3862570 149.2213533
  90.8567735  60.3546513 149.1543465  89.7037005  59.9253194 150.0363759
  90.4923863  58.9563686 151.7884331  91.3116752  59.4507765 151.8119168
  90.7660671  58.0395655 151.7601898 100.2490460  51.3474439 141.1512286
  99.3616315  51.6324089 140.9332481 100.6644449  51.1868202 140.3039563
 103.6004996  51.3720960 144.8666626 104.3765386  51.8617412 145.1391242
 102.8753130  51.7979014 145.3238495 106.0377554  52.0848579 145.9240566
 106.6322045  51.8444315 145.2133874 106.1104138  51.3655710 146.5514102
  88.2574710  65.9282190 146.2383731  88.1229178  65.1682591 145.6721729
  87.8406772  66.6523090 145.7712520  99.3933673  61.1119113 135.2460306
 100.0969523  61.3169116 135.8617962  98.6696322  61.6795875 135.5109390
 100.2231483  56.8628975 141.3662576 100.1666685  57.3197526 140.5270209
 100.7759826  56.1019659 141.1885419 104.0336289  52.6518707 142.1912696
 103.7773224  52.2515342 143.0220904 103.4089157  53.3662501 142.0662835
 108.3448627  55.3914780 144.6983987 107.7848185  55.4607969 145.4715549
 107.7392131  55.2155764 143.9783484  91.4143836  66.8251507 146.4502174
  91.2976220  67.7696939 146.3480864  90.5936282  66.5225069 146.8387973
 101.3020371  61.5501643 137.2958766 102.1365974  61.1182841 137.1136241
 101.1404713  61.3783656 138.2235661 100.9566263  58.0533756 138.6615106
 100.9015067  57.8878027 137.7203550 100.3312318  58.7609789 138.8177295
  85.7458778  53.2901820 152.4876528  86.3917641  52.7800774 152.9763753
  85.5375929  54.0270502 153.0619953  98.2712170  60.3582668 157.9868668
  99.1403330  60.5323320 157.6255303  97.7918921  61.1777085 157.8644398
  94.2662388  47.5541865 138.2400424  94.2541058  48.4983705 138.3968695
  95.1585810  47.3712010 137.9459885  92.4398350  67.4779769 149.6658102
  93.3425597  67.5103379 149.9824597  92.2135720  66.5480220 149.6804438
  94.1951952  66.2310755 146.3268181  93.2447583  66.2312617 146.2132553
  94.4984438  65.4843490 145.8104215  98.0814508  44.1484642 142.4946361
  97.3146903  43.5943128 142.6403043  98.4925213  44.2206510 143.3560512
  90.0856269  50.4369437 156.5851542  90.9487730  50.0806242 156.7954867
  89.5121679  50.0983332 157.2726946 109.9304646  72.0671294 147.3913943
 110.5683056  71.9478041 146.6877283 109.8125489  73.0152138 147.4501895
 106.7394352  72.0198722 147.3275468 106.4012863  71.9039787 146.4396003
 107.6084120  71.6189887 147.3076474 102.5981168  73.8734198 143.3172359
 102.0346033  73.7824135 142.5488646 102.4833563  73.0534103 143.7974851
 107.2214135  73.1733574 153.2861673 107.2102776  72.7786372 152.4142177
 107.3834774  72.4399646 153.8795445 100.1445600  75.3685390 146.1556579
 100.9366891  75.0276215 145.7402878 100.3842250  75.4780365 147.0758733
 108.1780726  77.5405166 138.6286824 107.5268706  78.1259246 138.2420837
 108.9725089  78.0711361 138.6881861 102.1036353  74.6294303 139.0273958
 102.8767229  74.0823290 138.8886834 102.4561752  75.4938552 139.2388419
 103.9421396  75.9570685 152.2340857 103.6511262  76.8616316 152.1187524
 104.5778380  75.9987213 152.9484927 104.8677603  73.3347534 148.8242217
 105.4641175  73.1103556 148.1099180 104.9252574  72.5932279 149.4267665
 104.4402631  70.7886969 136.6592408 104.6928152  70.2668491 135.8975871
 103.5027190  70.6253115 136.7619092 109.4845914  69.7922748 144.4667151
 110.2709003  69.3742171 144.1157568 109.7484618  70.6968840 144.6348800
 109.6555991  75.2295598 139.1655808 109.0201824  75.3030224 139.8776713
 109.3253398  75.8189197 138.4874887 114.8854341  69.7297981 145.3700130
 115.6179513  69.1597198 145.6037959 114.1293697  69.3419581 145.8106635
 104.1598920  72.6915075 138.8616783 104.0435178  72.0159979 139.5297867
 104.2701180  72.2047449 138.0448936 106.5030461  72.1525222 142.5663472
 106.1388668  71.6255843 143.2776394 107.3597577  71.7623691 142.3929958
 112.4079762  63.4419555 149.8294738 112.0763086  64.3114966 149.6055953
 111.8125375  63.1255839 150.5088769 106.1435948  67.1815122 137.5624821
 106.3110350  68.0495358 137.9295292 105.9533117  67.3442404 136.6386110
 108.9011281  75.6432101 149.2290651 108.6012004  76.5457140 149.1206458
 108.5562341  75.3764284 150.0811804 102.3523763  72.0945898 145.2627355
 101.4274259  71.9622112 145.4705047 102.6008176  72.8740117 145.7597298
 112.3008425  68.1614641 146.9088088 111.3925302  68.0930050 146.6146849
 112.2496021  68.6386586 147.7369914 106.1225169  69.6372780 138.5471487
 106.0024794  70.0829830 139.3856968 105.4277757  69.9858097 137.9885026
  99.7132574  71.7379171 146.0971144  99.8424955  71.9913650 147.0110556
  99.0330025  72.3306879 145.7775800 103.8832061  82.4076421 142.1961619
 103.8056091  83.3584246 142.2750099 103.2793705  82.0622294 142.8536545
 106.3749291  69.5804287 154.8522986 105.5982625  70.1398207 154.8425850
 107.0139854  70.0661070 155.3737856 114.1670071  66.3631080 148.6865962
 113.5244452  66.6563613 148.0405757 113.6625000  66.2484000 149.4919159
 111.8210235  70.1094253 139.3751821 112.7328091  70.3421639 139.1999519
 111.3119882  70.6931297 138.8126900 104.6295663  72.3889740 154.4140953
 105.3710347  72.9274784 154.1375776 103.9232648  73.0156029 154.5712504
 110.1051003  74.5318881 153.0113114 110.5134359  74.0901291 152.2667746
 109.3828264  73.9571508 153.2647307 106.4582073  69.4691487 150.3846671
 107.3043268  69.8930901 150.5281320 106.3980710  68.8125112 151.0785234
 110.4279817  75.0920071 146.7665403 109.7988680  75.2565785 146.0641471
 110.0405479  75.5061681 147.5376367 114.3069049  76.0274509 144.1209767
 113.6220087  76.4073410 143.5706800 114.3912898  76.6369836 144.8541714
 109.6081518  67.1295856 152.0427845 109.3642450  67.8837916 151.5062120
 109.8841449  67.5081203 152.8775092 111.5619981  73.6734468 150.7205110
 111.7736876  74.3166228 150.0439491 111.5149729  72.8396785 150.2527040
 109.1646210  66.2852289 147.6241682 108.3030689  66.5833542 147.9158420
 109.1908644  66.5022688 146.6922715 105.9807779  74.8294479 144.0315488
 106.4446125  75.1082182 143.2420111 105.7164577  73.9277924 143.8488579
 102.8731860  74.3765961 146.9695251 103.4433217  74.8053229 146.3312736
 103.4639972  74.0948545 147.6679437 104.9176665  70.9517632 140.8405053
 105.6200709  71.4038675 141.3078980 104.5857294  70.3101450 141.4684946
 103.3657027  69.5429388 155.2156263 102.7355687  70.2245669 155.4491659
 103.2593115  69.4312470 154.2709401  98.6601999  69.2101184 146.1422187
  97.8701053  69.4658713 145.6662297  99.1513247  70.0249522 146.2474227
 112.6765809  76.5506423 148.8927468 113.4983252  76.1486611 148.6110149
 112.6728212  76.4474658 149.8443583 100.6116745  69.5745764 143.1005663
  99.8147908  69.6864458 143.6189159 100.3842337  69.9132416 142.2346554
 106.4422412  76.0990467 151.0488178 106.5066845  76.5610874 151.8846350
 105.7333336  75.4687832 151.1770488  96.9439702  69.4631675 148.5737178
  97.1947741  70.3478685 148.8394753  97.4799251  69.2836276 147.8012269
 120.7671802  72.8945172 145.2412439 120.0135510  72.3252570 145.0856443
 120.9019343  72.8607836 146.1883074 106.1570430  77.7658574 140.9167158
 106.0216105  78.6110110 141.3452006 106.6980242  77.9677852 140.1533092
 102.6437769  63.8450154 157.5781514 102.2504715  63.2916353 158.2529158
 103.4603910  64.1560733 157.9688031  99.6099827  75.2834012 141.4895083
 100.1224348  76.0777263 141.6400648 100.2622540  74.5860303 141.4228685
 101.4194712  78.3999769 143.5717837 101.5961340  79.3217733 143.3838821
 102.2151545  78.0858188 144.0012216 105.5605730  65.2608033 155.1701770
 106.3015444  65.8615186 155.0906233 105.7923653  64.5185671 154.6119813
 100.7047068  70.4464400 153.4480000 100.5900584  69.5449658 153.7487099
  99.8491586  70.6928097 153.0964816 107.7838906  78.3882141 155.0467500
 107.3402760  77.6018519 154.7288405 108.4456120  78.5761291 154.3811391
 102.5426027  79.9177942 149.5728179 103.0933453  79.7895006 148.8005173
 101.7037503  80.2172831 149.2223072 109.8820144  78.6684941 153.0748902
 109.8638620  79.4893822 152.5829171 110.8040064  78.5439016 153.2999043
 106.3393198  76.1829070 153.9172410 106.8721535  75.4217358 153.6871718
 105.8107280  75.8902722 154.6596565 109.5062893  61.2889136 149.4466052
 109.1627163  62.1790778 149.3705162 109.8741856  61.0990794 148.5835637
  97.5748744  73.6122667 142.2654654  98.4123966  74.0219675 142.0488362
  97.7527012  72.6722109 142.2354848 109.4713176  71.2797747 137.9538487
 108.9559800  72.0502352 138.1926874 109.1990485  70.6062883 138.5771548
 107.0560287  66.1247448 143.0123725 106.2001883  65.7354298 142.8329364
 107.4687239  66.2039409 142.1523511 108.5859434  63.6593791 147.4115285
 108.0824229  63.6223926 146.5983090 108.8790041  64.5686534 147.4711942
 104.8302320  63.7432521 146.4181467 105.6955316  63.5475330 146.0587356
 104.8979829  63.5142873 147.3450824 114.4447450  74.0330102 139.8891660
 113.6676893  73.6941261 139.4446823 115.1238931  74.0382725 139.2146626
 109.2599479  69.1524839 139.7798268 108.9549615  69.4670988 140.6308411
 110.2129921  69.2306259 139.8225601 107.7045911  75.3115063 141.4291222
 107.1767273  74.5767822 141.1164460 107.2033414  76.0889739 141.1831190
 112.6838757  73.5064083 146.5458268 112.0262432  74.1963345 146.6338397
 113.4879156  73.8960515 146.8892255 102.4364639  65.9734729 143.7897834
 103.0108391  65.7509910 143.0571027 103.0235621  66.0423423 144.5426435
 111.4944216  71.8608456 144.5962210 112.0076098  72.4938448 145.0983920
 112.1445440  71.2609651 144.2305570 102.7634226  68.0039190 137.8093719
 101.9271538  68.3413876 138.1302994 102.6238996  67.8688170 136.8720856
 104.7387306  62.8475978 142.5172903 104.0851719  62.5324995 141.8929518
 104.6967781  62.2251718 143.2432726 105.8498511  73.1295273 134.4326195
 104.9425573  72.8984526 134.6317344 106.3469543  72.3332892 134.6200177
 108.7566590  81.8392780 137.3522881 108.0828289  82.1424477 137.9607839
 109.1432412  82.6421860 137.0028338 107.9725047  69.3357911 146.8420551
 107.0547608  69.5572858 146.6842239 108.3885190  69.4104222 145.9832258
 108.7560095  70.7349327 141.9723231 109.5031914  71.2470724 141.6630353
 109.0251684  70.4133380 142.8327625 107.0286745  73.2307868 138.9550185
 106.1197964  72.9466901 139.0522655 107.0581829  73.6506946 138.0953492
 112.2606012  76.8414457 142.7241353 111.8068339  76.0005367 142.7806543
 111.6299979  77.4775856 143.0616133 111.2038932  67.7706443 143.9542020
 110.4661689  67.2583830 144.2852263 111.4565705  67.3306825 143.1425297
 110.7038951  78.6790954 143.6591171 110.9961926  79.2396011 142.9403537
 111.2137572  78.9719515 144.4144330 111.3050559  60.5482695 144.5483790
 111.6109436  59.6880059 144.2609705 112.0303164  61.1400315 144.3482783
  97.5974915  70.9513382 142.9365387  97.3999315  70.3582743 142.2116454
  97.0421579  70.6465592 143.6541326 105.5771639  70.8436488 145.0559981
 105.6320249  69.8910325 144.9802457 104.7662841  70.9995927 145.5401279
 106.7262833  74.7716611 136.2938264 106.2882262  74.0552470 135.8343901
 107.4673273  74.9992726 135.7323355 103.5163999  69.4613548 142.8150359
 102.7031864  69.7607719 143.2215552 104.0122993  69.0669237 143.5324842
 105.6672577  79.4571305 144.7484624 105.6248755  79.6832151 143.8193156
 106.5835275  79.2234680 144.8970425 109.1138210  69.9255373 151.6465253
 109.4687598  70.1526846 152.5059719 109.7610342  70.2573749 151.0242509
 114.8435947  73.0473808 142.3514582 114.7053846  73.2375404 141.4235772
 114.4872166  73.8093191 142.8082634 103.0078073  67.0331904 148.4311594
 103.6477453  66.8920663 147.7334558 102.1755604  66.7466417 148.0550196
 114.8705327  75.1150335 147.3625854 115.3041834  75.0225625 148.2108908
 115.5836908  75.0907836 146.7245870 103.7838377  76.3334334 144.5446587
 104.5778976  75.8384654 144.3429162 103.0730070  75.8052197 144.1814292
 108.6033222  78.7152430 148.8958955 108.6570244  79.2843366 149.6636670
 107.7348003  78.8854315 148.5312992 100.0921141  70.4777416 140.6206340
  99.1618729  70.4161871 140.8376302 100.1878613  69.9553369 139.8242981
 100.0106690  67.0032229 143.2084581 100.2713507  67.9177562 143.0993742
 100.8323862  66.5356671 143.3581194 101.4831615  68.4169986 150.3783406
 102.1554669  68.2087348 149.7296055 100.6561402  68.2192072 149.9388638
 115.7320877  75.1574036 149.8958739 115.9256767  76.0619847 150.1418014
 115.6321495  74.6981455 150.7297324 107.3857187  65.0431927 152.3949067
 106.7385102  65.7421876 152.3013543 108.1558203  65.4768071 152.7625315
 110.7935985  75.3080779 155.4699620 110.6421492  75.0791331 154.5529704
 110.7840665  76.2651380 155.4830965 107.5621322  72.8812692 150.4545886
 108.4913382  73.0323851 150.2814854 107.1412352  72.9696712 149.5994533
 106.3609653  76.9063356 148.2244424 106.2220739  76.5382140 149.0970362
 105.5724250  77.4210995 148.0528382 106.9557805  82.0072453 139.5669961
 107.1309561  81.5360496 140.3815583 106.2690593  82.6338219 139.7951221
 107.9114869  76.2844959 145.6133262 107.5764701  76.2445729 146.5090912
 107.4118814  75.6189675 145.1403672 101.8859112  71.6912589 151.1385843
 101.7478910  70.9592828 151.7397382 102.7964036  71.6021489 150.8570031
 110.8474060  73.6300993 135.8870321 110.2303231  72.9047821 135.7903374
 110.3790549  74.3910353 135.5437396 104.5141413  71.4032548 150.6269523
 105.2241032  70.7625740 150.5856141 104.4710721  71.6545443 151.5495703
 112.5028192  78.3399901 153.5476102 112.4440738  77.6559122 152.8806685
 112.9047710  79.0818891 153.0956728 103.2270347  68.3897766 152.4465162
 102.6907704  67.9388504 153.0986758 102.6387056  68.5243675 151.7035626
 101.5218891  85.1561815 146.3409821 101.7615489  85.7880339 147.0188839
 100.6788087  84.8049855 146.6275180 102.6372606  67.8486417 135.0091626
 101.7602072  67.7275218 134.6453872 103.1130359  67.0572496 134.7570514
 112.5045599  76.3039485 151.7790081 111.6172378  75.9665407 151.9016480
 113.0744150  75.5722517 152.0158847  94.1574746  72.6363577 145.1033133
  94.8445786  72.3225307 144.5154148  94.0022875  73.5404942 144.8300384
  98.9609468  67.5253774 149.5318157  98.8767657  66.9179443 148.7968566
  98.1392175  68.0162792 149.5327653 106.0346753  80.9640938 148.7451325
 105.9616924  81.7695909 149.2570629 105.5924146  81.1632904 147.9199346
 105.8236532  80.2012708 142.2554146 105.0404054  80.7434388 142.3492371
 106.5229277  80.7186687 142.6548387 109.1333182  66.0107337 144.8988352
 109.6301882  65.2577300 144.5789422 108.3620164  66.0471654 144.3331561
 116.9862940  71.7147703 146.5406643 116.9752816  72.5972418 146.1700576
 116.1180319  71.3619254 146.3461180 108.4945436  80.8627772 150.9009483
 109.2073408  81.4975237 150.8285385 108.0035465  80.9591638 150.0849485
 110.2162963  74.7679024 142.4726775 109.2819242  74.8880487 142.3031479
 110.3939631  73.8651491 142.2086785 105.7168151  68.1524720 144.6260036
 105.3465939  67.5995761 145.3140942 106.2127243  67.5482854 144.0735036
 113.6035514  70.6096344 143.0076809 114.0695966  71.4424335 142.9337112
 114.0543015  70.1441325 143.7122068 103.5457350  78.6122215 151.7215054
 104.2466809  79.2458698 151.8744448 103.0752465  78.9536947 150.9610693
 111.6711745  76.9540165 140.0062961 111.9471589  76.8396760 140.9156835
 110.8016244  76.5557650 139.9675134 111.5752177  62.9776931 147.0467710
 110.6615257  63.2081158 147.2149917 112.0045278  63.0615375 147.8981743
 111.3458636  71.1666823 149.5467604 110.6930086  71.4142730 148.8920057
 111.7239015  70.3530961 149.2130082 108.3065809  81.2026516 143.6495775
 108.4888204  80.3848172 144.1123527 109.1298795  81.4194208 143.2120665
 108.6407975  80.1294701 140.9110823 109.1695741  79.6187156 140.2980985
 108.9036194  79.8137231 141.7756356 107.3946209  71.9086634 156.0333642
 106.7186846  71.8080763 156.7036017 108.2173842  71.7525847 156.4969639
  99.1425068  78.1458570 148.6546157  99.7278504  77.4002258 148.7874061
  98.9449906  78.4562527 149.5382821 101.9963723  81.1809818 143.6708599
 101.3274098  81.6655945 143.1872639 101.8576593  81.4279038 144.5851978
  93.7342722  70.7164170 147.3750600  93.7726822  70.1827761 148.1687718
  93.2283015  70.1899376 146.7561577 106.1368991  83.2153561 150.2691258
 106.6887299  83.3785183 151.0340343 106.4775185  83.8057999 149.5971282
 101.1133485  65.5628711 150.8713142 101.1774811  66.4243542 150.4590540
 101.0500605  64.9502713 150.1385501 100.5885757  67.6351844 154.5186177
 101.2157796  67.2528921 155.1323701  99.7313676  67.4166045 154.8841869
 110.9879866  78.0414819 156.1239912 111.5319770  78.6544777 155.6294867
 110.4066711  78.5994397 156.6406925  97.3651300  69.4428273 140.4504531
  97.6604741  68.5338951 140.3971585  96.4639336  69.4216012 140.1285534
 109.2737379  81.1635537 147.2554940 109.1488518  80.3625277 146.7465885
 109.9316470  81.6581730 146.7668910 100.8945547  67.5184269 146.4332080
 100.1732133  68.1320237 146.2939553 101.6838803  68.0542034 146.3548726
 111.3372287  78.9644557 148.8834490 110.3902623  78.8449908 148.8112817
 111.6855060  78.0767055 148.9660751 103.6971860  64.8538696 152.7072732
 104.2206262  65.1000992 153.4699041 103.4784194  65.6858731 152.2875869
  99.0939142  67.1242370 140.5743857  98.7651848  66.2439749 140.3918962
  99.4478512  67.0690039 141.4620246 108.3418720  78.7597273 145.0838842
 108.1943683  77.8313980 145.2646412 109.1672214  78.7817364 144.5995917
 102.2080965  67.4115340 140.9419334 102.5477037  67.9401261 140.2197943
 102.6553085  67.7495746 141.7177901 111.9452842  79.5825832 146.1703715
 112.8699390  79.3768693 146.0328166 111.7768146  79.3342233 147.0793056
 104.9024405  65.7952391 150.3922402 104.5621226  64.9960204 150.7943082
 104.1963412  66.0954102 149.8199235 105.5540877  62.8801703 148.8449725
 106.3766947  62.4062181 148.7228616 105.7978941  63.6592187 149.3448412
 104.1949112  65.9089962 139.1412627 104.9157474  66.2871214 138.6376344
 103.5714416  66.6278838 139.2447605 108.3380235  66.6135111 140.0770959
 108.5543849  67.4959749 139.7759787 107.8574302  66.2221324 139.3476601
 103.0779456  69.5720824 146.6541704 102.9324037  69.8861127 147.5465985
 102.6004660  70.1905724 146.1012603 104.9375839  66.5623372 146.7022593
 104.9237408  65.6664465 146.3654891 105.6548267  66.5694036 147.3360879
 106.7901970  66.9960712 148.7475721 106.5319747  67.9177783 148.7460051
 106.2587010  66.5991147 149.4376185 111.7348158  80.1011499 141.5265806
 111.9085036  79.5357922 140.7739659 112.2277050  80.9012394 141.3445296
  97.5525118  72.1126168 149.5929365  97.0078586  72.8885976 149.7249639
  98.4304468  72.4596973 149.4348486 104.3412735  65.4437752 141.9710164
 104.4628646  64.5154398 142.1701051 104.0514777  65.4576438 141.0588479
 107.2103925  63.1292663 145.1076883 107.2325622  63.1931996 144.1528863
 107.6271984  62.2897171 145.3017390 117.5887550  72.8647922 143.1456106
 118.0318696  72.1155247 142.7475229 116.7114060  72.8558058 142.7629838
 112.7223331  79.4178264 138.6262705 113.4174236  80.0384956 138.8450019
 113.0646481  78.5673615 138.9015082  98.3391140  71.2396065 152.4859522
  97.5972876  71.3878700 153.0724152  98.0183884  71.5004330 151.6226271
 114.6214754  76.8677969 140.1550035 115.1466078  77.2065242 139.4299355
 114.5337107  75.9324984 139.9713170 106.2834803  80.7812043 152.2839912
 106.5921929  80.5361190 153.1562612 107.0810285  80.9858681 151.7958782
 106.3055415  82.9349952 144.5145288 105.8660405  82.4426331 145.2078145
 107.0563532  82.3922920 144.2737364  98.7847754  79.1261493 144.5169917
  99.6105774  78.8265265 144.1368560  98.4341806  78.3569116 144.9659705
 103.7529287  78.4787961 146.5867590 103.1309296  77.8158667 146.2869818
 104.4234154  78.5049093 145.9041238  96.9856359  77.0447820 145.4758850
  96.1488267  76.6169994 145.2942851  96.9580004  77.2380263 146.4129641
 103.8253814  66.9569750 156.1800096 103.8741970  67.8331872 155.7977866
 104.3676329  66.4147143 155.6071739 114.3108660  77.5010873 155.4601233
 113.5204204  77.4835012 154.9205733 114.0742015  78.0399166 156.2150270
 114.4306535  74.3503339 152.7733962 114.4804540  74.1853347 153.7149485
 114.3220459  73.4830598 152.3831843 103.3142794  77.0291885 140.0626051
 103.4630914  77.7127349 139.4092723 104.1209237  77.0096975 140.5775506
 111.7210298  70.3334267 154.0893269 112.6220160  70.1940732 153.7977266
 111.7958272  70.4988722 155.0291446 106.0553103  67.7101122 152.9346455
 105.1856412  68.0034688 152.6629043 106.2912583  68.2941567 153.6553718
 115.9324732  76.7700281 153.0175983 115.6409540  77.1330261 153.8539444
 115.3196863  76.0567289 152.8389315 117.1320414  74.3353160 145.5378554
 117.9667306  74.7742964 145.7016114 117.2679543  73.8591814 144.7186799
 114.1811920  71.8932895 151.4856041 114.6566042  72.0860542 150.6774893
 113.2577486  71.9492081 151.2399425 101.0695427  73.0557062 141.0687120
 100.8241469  72.1519392 141.2667330 101.2391341  73.0574213 140.1266598
 108.7592137  63.9280739 150.4511875 109.2774081  64.6641766 150.1258364
 108.4047269  64.2344732 151.2858634 100.3391074  68.7885420 138.5673281
  99.6460319  68.8629775 137.9113317 100.0942826  68.0245764 139.0894798
 109.0104731  60.3481021 145.9712772 109.2906485  59.6804210 146.5973198
 109.7955338  60.5410117 145.4587436 106.8138199  79.5240015 137.5337798
 106.2412166  80.1430202 137.0808270 107.3870993  80.0739377 138.0677720
 112.8813589  68.7698655 149.7184347 113.8331012  68.8696753 149.7396571
 112.7117040  67.9776924 150.2282431 110.9027969  65.8554239 149.9043748
 110.3077901  66.1359251 149.2090236 110.6177665  66.3448140 150.6760489
 110.0335459  79.8077165 138.6646380 110.9666132  79.7422727 138.8679256
 109.9458672  80.6433432 138.2060913 112.6623476  79.1243036 135.6250328
 112.5837107  78.7902899 136.5186086 113.4833143  79.6164804 135.6241800
 115.3601667  71.9904775 148.8326647 115.3277987  71.0520776 149.0186330
 115.9702291  72.0688812 148.0992471 107.1984998  70.8600828 134.8753851
 108.1444103  70.7307036 134.9442269 106.8199243  70.1215490 135.3523279
 115.5096155  68.7815818 148.8784930 114.9935204  67.9974275 148.6914859
 116.3936104  68.4534535 149.0431449 113.1706882  62.5256834 144.8380742
 112.9731704  62.2171922 145.7224074 113.7806588  63.2518473 144.9678672
 121.1778217  73.0520782 147.9732683 121.9081605  72.7906070 148.5340387
 120.5685162  72.3149504 148.0134751 119.2593514  71.1928644 148.5707135
 118.5326678  71.0584609 147.9623626 118.8440801  71.5005473 149.3763853
 107.0823690  74.9118574 156.3354508 108.0026700  75.0897173 156.5294554
 107.0473273  73.9674620 156.1834207 105.3827915  68.7850804 134.8108736
 104.4759370  68.4883917 134.8871449 105.6603896  68.4880622 133.9443022
  96.3005855  70.1057168 145.2607782  95.9808640  69.2522476 144.9682156
  95.7539284  70.3205746 146.0165750 100.0785763  72.8219609 148.9777289
 100.2971773  73.7536717 148.9965323 100.4911537  72.4627583 149.7632093
 106.9989981  63.3287694 140.9652977 106.1890709  62.9834779 141.3408223
 107.6874398  63.0195238 141.5540589 108.9280529  62.4065741 142.5877274
 109.4811568  62.8261194 143.2467297 109.1650615  61.4801489 142.6300230
 104.9513628  68.3952815 158.3680038 104.8510355  69.3447172 158.2992129
 104.7335170  68.0671053 157.4956108 104.1526700  65.6437740 134.9520715
 105.0145864  65.9692638 135.2116532 104.3377044  64.8569236 134.4393781
  96.1694115  73.7260079 147.2300904  95.4757587  73.3114032 146.7170858
  96.9167106  73.7680616 146.6334323 112.3059336  64.5166266 142.0955938
 111.7258005  65.1751070 141.7133990 112.0395269  63.6943611 141.6843356
 110.7562902  63.9171324 144.2977258 111.2562681  64.0287858 143.4891577
 111.3998510  63.6132377 144.9378067 104.8144898  71.8249953 157.1845099
 104.3311980  72.6250314 157.3908988 104.9005837  71.8357898 156.2312543
  98.0830858  73.6578333 145.1066919  98.0601546  73.7566020 144.1548802
  98.3931494  74.5043484 145.4284085 100.7418236  75.7154488 149.2213533
 101.6961489  75.6838430 149.1543465 100.5430759  75.2545112 150.0363759
 101.3317618  74.2855604 151.7884331 102.1510507  74.7799683 151.8119168
 101.6054426  73.3687572 151.7601898 111.0884214  66.6766356 141.1512286
 110.2010069  66.9616007 140.9332481 111.5038203  66.5160120 140.3039563
 114.4398750  66.7012877 144.8666626 115.2159140  67.1909330 145.1391242
 113.7146884  67.1270932 145.3238495 116.8771309  67.4140497 145.9240566
 117.4715800  67.1736233 145.2133874 116.9497893  66.6947627 146.5514102
  99.0968465  81.2574108 146.2383731  98.9622933  80.4974508 145.6721729
  98.6800527  81.9815007 145.7712520 110.2327428  76.4411031 135.2460306
 110.9363278  76.6461034 135.8617962 109.5090076  77.0087793 135.5109390
 111.0625238  72.1920892 141.3662576 111.0060439  72.6489444 140.5270209
 111.6153580  71.4311577 141.1885419 114.8730044  67.9810624 142.1912696
 114.6166978  67.5807260 143.0220904 114.2482912  68.6954418 142.0662835
 119.1842382  70.7206698 144.6983987 118.6241940  70.7899887 145.4715549
 118.5785885  70.5447682 143.9783484 102.2537590  82.1543425 146.4502174
 102.1369975  83.0988857 146.3480864 101.4330037  81.8516986 146.8387973
 112.1414125  76.8793560 137.2958766 112.9759729  76.4474759 137.1136241
 111.9798468  76.7075574 138.2235661 111.7960017  73.3825674 138.6615106
 111.7408821  73.2169945 137.7203550 111.1706072  74.0901707 138.8177295
  96.5852532  68.6193738 152.4876528  97.2311396  68.1092692 152.9763753
  96.3769683  69.3562420 153.0619953 109.1105924  75.6874586 157.9868668
 109.9797084  75.8615238 157.6255303 108.6312676  76.5069002 157.8644398
 105.1056143  62.8833783 138.2400424 105.0934812  63.8275623 138.3968695
 105.9979565  62.7003928 137.9459885 103.2792105  82.8071687 149.6658102
 104.1819351  82.8395297 149.9824597 103.0529475  81.8772137 149.6804438
 105.0345707  81.5602673 146.3268181 104.0841338  81.5604535 146.2132553
 105.3378193  80.8135408 145.8104215 108.9208262  59.4776559 142.4946361
 108.1540658  58.9235046 142.6403043 109.3318967  59.5498428 143.3560512
 100.9250023  65.7661355 156.5851542 101.7881485  65.4098160 156.7954867
 100.3515434  65.4275250 157.2726946 120.7698400  87.3963211 147.3913943
 121.4076810  87.2769959 146.6877283 120.6519243  88.3444055 147.4501895
 117.5788106  87.3490640 147.3275468 117.2406618  87.2331704 146.4396003
 118.4477875  86.9481805 147.3076474 113.4374922  89.2026116 143.3172359
 112.8739787  89.1116053 142.5488646 113.3227317  88.3826020 143.7974851
 118.0607889  88.5025491 153.2861673 118.0496530  88.1078290 152.4142177
 118.2228529  87.7691564 153.8795445 110.9839354  90.6977308 146.1556579
 111.7760646  90.3568132 145.7402878 111.2236004  90.8072283 147.0758733
 119.0174481  92.8697084 138.6286824 118.3662461  93.4551164 138.2420837
 119.8118844  93.4003279 138.6881861 112.9430108  89.9586221 139.0273958
 113.7160984  89.4115208 138.8886834 113.2955507  90.8230470 139.2388419
 114.7815151  91.2862603 152.2340857 114.4905017  92.1908234 152.1187524
 115.4172135  91.3279131 152.9484927 115.7071357  88.6639452 148.8242217
 116.3034930  88.4395474 148.1099180 115.7646329  87.9224197 149.4267665
 115.2796386  86.1178887 136.6592408 115.5321906  85.5960408 135.8975871
 114.3420945  85.9545032 136.7619092 120.3239669  85.1214665 144.4667151
 121.1102758  84.7034088 144.1157568 120.5878373  86.0260757 144.6348800
 120.4949746  90.5587516 139.1655808 119.8595579  90.6322142 139.8776713
 120.1647152  91.1481114 138.4874887 125.7248096  85.0589899 145.3700130
 126.4573268  84.4889115 145.6037959 124.9687451  84.6711499 145.8106635
 114.9992675  88.0206993 138.8616783 114.8828933  87.3451896 139.5297867
 115.1094934  87.5339367 138.0448936 117.3424215  87.4817140 142.5663472
 116.9782423  86.9547761 143.2776394 118.1991331  87.0915609 142.3929958
 123.2473516  78.7711473 149.8294738 122.9156841  79.6406884 149.6055953
 122.6519129  78.4547757 150.5088769 116.9829702  82.5107040 137.5624821
 117.1504105  83.3787276 137.9295292 116.7926871  82.6734321 136.6386110
 119.7405036  90.9724019 149.2290651 119.4405759  91.8749057 149.1206458
 119.3956095  90.7056202 150.0811804 113.1917517  87.4237815 145.2627355
 112.2668014  87.2914030 145.4705047 113.4401930  88.2032035 145.7597298
 123.1402179  83.4906559 146.9088088 122.2319057  83.4221967 146.6146849
 123.0889775  83.9678504 147.7369914 116.9618923  84.9664697 138.5471487
 116.8418549  85.4121748 139.3856968 116.2671512  85.3150015 137.9885026
 110.5526328  87.0671089 146.0971144 110.6818709  87.3205568 147.0110556
 109.8723779  87.6598797 145.7775800 114.7225815  97.7368339 142.1961619
 114.6449845  98.6876164 142.2750099 114.1187459  97.3914211 142.8536545
 117.2143045  84.9096204 154.8522986 116.4376379  85.4690125 154.8425850
 117.8533608  85.3952987 155.3737856 125.0063826  81.6922997 148.6865962
 124.3638206  81.9855530 148.0405757 124.5018754  81.5775918 149.4919159
 122.6603989  85.4386170 139.3751821 123.5721846  85.6713557 139.1999519
 122.1513637  86.0223215 138.8126900 115.4689417  87.7181658 154.4140953
 116.2104102  88.2566702 154.1375776 114.7626403  88.3447946 154.5712504
 120.9444757  89.8610798 153.0113114 121.3528113  89.4193209 152.2667746
 120.2222019  89.2863426 153.2647307 117.2975827  84.7983405 150.3846671
 118.1437022  85.2222819 150.5281320 117.2374465  84.1417029 151.0785234
 121.2673572  90.4211989 146.7665403 120.6382434  90.5857703 146.0641471
 120.8799234  90.8353598 147.5376367 125.1462804  91.3566427 144.1209767
 124.4613842  91.7365328 143.5706800 125.2306653  91.9661753 144.8541714
 120.4475273  82.4587773 152.0427845 120.2036204  83.2129834 151.5062120
 120.7235203  82.8373121 152.8775092 122.4013735  89.0026386 150.7205110
 122.6130631  89.6458146 150.0439491 122.3543484  88.1688702 150.2527040
 120.0039964  81.6144206 147.6241682 119.1424443  81.9125460 147.9158420
 120.0302399  81.8314605 146.6922715 116.8201534  90.1586397 144.0315488
 117.2839879  90.4374100 143.2420111 116.5558332  89.2569841 143.8488579
 113.7125615  89.7057878 146.9695251 114.2826972  90.1345147 146.3312736
 114.3033727  89.4240463 147.6679437 115.7570420  86.2809549 140.8405053
 116.4594463  86.7330593 141.3078980 115.4251048  85.6393368 141.4684946
 114.2050781  84.8721306 155.2156263 113.5749442  85.5537587 155.4491659
 114.0986869  84.7604388 154.2709401 109.4995754  84.5393102 146.1422187
 108.7094808  84.7950630 145.6662297 109.9907001  85.3541440 146.2474227
 123.5159563  91.8798341 148.8927468 124.3377007  91.4778528 148.6110149
 123.5121966  91.7766575 149.8443583 111.4510499  84.9037681 143.1005663
 110.6541662  85.0156375 143.6189159 111.2236091  85.2424333 142.2346554
 117.2816167  91.4282384 151.0488178 117.3460599  91.8902792 151.8846350
 116.5727091  90.7979749 151.1770488 107.7833457  84.7923592 148.5737178
 108.0341495  85.6770602 148.8394753 108.3193005  84.6128194 147.8012269
 131.6065556  88.2237090 145.2412439 130.8529265  87.6544488 145.0856443
 131.7413097  88.1899754 146.1883074 116.9964184  93.0950492 140.9167158
 116.8609859  93.9402028 141.3452006 117.5373997  93.2969770 140.1533092
 113.4831524  79.1742072 157.5781514 113.0898470  78.6208270 158.2529158
 114.2997664  79.4852650 157.9688031 110.4493582  90.6125930 141.4895083
 110.9618102  91.4069180 141.6400648 111.1016295  89.9152220 141.4228685
 112.2588466  93.7291686 143.5717837 112.4355095  94.6509651 143.3838821
 113.0545300  93.4150105 144.0012216 116.3999485  80.5899951 155.1701770
 117.1409198  81.1907104 155.0906233 116.6317408  79.8477589 154.6119813
 111.5440823  85.7756318 153.4480000 111.4294338  84.8741575 153.7487099
 110.6885341  86.0220015 153.0964816 113.3819782  95.2469860 149.5728179
 113.9327207  95.1186923 148.8005173 112.5431258  95.5464749 149.2223072
 117.1786953  91.5120988 153.9172410 117.7115290  90.7509276 153.6871718
 116.6501034  91.2194640 154.6596565 120.3456648  76.6181054 149.4466052
 120.0020917  77.5082695 149.3705162 120.7135610  76.4282711 148.5835637
 108.4142498  88.9414584 142.2654654 109.2517720  89.3511593 142.0488362
 108.5920766  88.0014026 142.2354848 120.3106931  86.6089665 137.9538487
 119.7953554  87.3794270 138.1926874 120.0384239  85.9354801 138.5771548
 117.8954042  81.4539366 143.0123725 117.0395638  81.0646216 142.8329364
 118.3080993  81.5331326 142.1523511 119.4253188  78.9885709 147.4115285
 118.9217984  78.9515844 146.5983090 119.7183795  79.8978452 147.4711942
 115.6696074  79.0724439 146.4181467 116.5349071  78.8767247 146.0587356
 115.7373583  78.8434790 147.3450824 125.2841205  89.3622020 139.8891660
 124.5070648  89.0233179 139.4446823 125.9632686  89.3674643 139.2146626
 120.0993234  84.4816757 139.7798268 119.7943369  84.7962906 140.6308411
 121.0523676  84.5598177 139.8225601 118.5439666  90.6406980 141.4291222
 118.0161027  89.9059740 141.1164460 118.0427168  91.4181657 141.1831190
 123.5232512  88.8356001 146.5458268 122.8656186  89.5255262 146.6338397
 124.3272911  89.2252433 146.8892255 113.2758393  81.3026647 143.7897834
 113.8502145  81.0801828 143.0571027 113.8629376  81.3715341 144.5426435
 122.3337970  87.1900373 144.5962210 122.8469852  87.8230365 145.0983920
 122.9839194  86.5901569 144.2305570 113.6027980  83.3331108 137.8093719
 112.7665293  83.6705794 138.1302994 113.4632750  83.1980087 136.8720856
 115.5781061  78.1767895 142.5172903 114.9245473  77.8616913 141.8929518
 115.5361535  77.5543636 143.2432726 116.6892266  88.4587191 134.4326195
 115.7819328  88.2276444 134.6317344 117.1863298  87.6624810 134.6200177
 119.5960345  97.1684698 137.3522881 118.9222043  97.4716395 137.9607839
 119.9826167  97.9713778 137.0028338 118.8118801  84.6649829 146.8420551
 117.8941363  84.8864776 146.6842239 119.2278945  84.7396140 145.9832258
 119.5953849  86.0641245 141.9723231 120.3425668  86.5762642 141.6630353
 119.8645439  85.7425297 142.8327625 117.8680499  88.5599785 138.9550185
 116.9591719  88.2758818 139.0522655 117.8975583  88.9798864 138.0953492
 123.0999767  92.1706375 142.7241353 122.6462094  91.3297285 142.7806543
 122.4693733  92.8067773 143.0616133 122.0432686  83.0998361 143.9542020
 121.3055443  82.5875747 144.2852263 122.2959460  82.6598743 143.1425297
 121.5432706  94.0082872 143.6591171 121.8355680  94.5687929 142.9403537
 122.0531326  94.3011433 144.4144330 122.1444314  75.8774613 144.5483790
 122.4503190  75.0171976 144.2609705 122.8696918  76.4692233 144.3482783
 108.4368670  86.2805300 142.9365387 108.2393069  85.6874660 142.2116454
 107.8815334  85.9757510 143.6541326 116.4165393  86.1728406 145.0559981
 116.4714003  85.2202242 144.9802457 115.6056595  86.3287845 145.5401279
 117.5656587  90.1008529 136.2938264 117.1276017  89.3844388 135.8343901
 118.3067028  90.3284644 135.7323355 114.3557753  84.7905466 142.8150359
 113.5425619  85.0899636 143.2215552 114.8516747  84.3961155 143.5324842
 116.5066331  94.7863223 144.7484624 116.4642510  95.0124069 143.8193156
 117.4229030  94.5526597 144.8970425 119.9531965  85.2547290 151.6465253
 120.3081353  85.4818763 152.5059719 120.6004096  85.5865667 151.0242509
 125.6829702  88.3765726 142.3514582 125.5447600  88.5667322 141.4235772
 125.3265921  89.1385109 142.8082634 113.8471828  82.3623821 148.4311594
 114.4871207  82.2212580 147.7334558 113.0149359  82.0758335 148.0550196
 125.7099081  90.4442253 147.3625854 126.1435588  90.3517542 148.2108908
 126.4230662  90.4199754 146.7245870 114.6232132  91.6626252 144.5446587
 115.4172730  91.1676572 144.3429162 113.9123824  91.1344115 144.1814292
 119.4426976  94.0444347 148.8958955 119.4963999  94.6135284 149.6636670
 118.5741758  94.2146232 148.5312992 110.9314895  85.8069333 140.6206340
 110.0012483  85.7453789 140.8376302 111.0272367  85.2845286 139.8242981
 110.8500444  82.3324146 143.2084581 111.1107262  83.2469480 143.0993742
 111.6717617  81.8648589 143.3581194 112.3225370  83.7461903 150.3783406
 112.9948423  83.5379266 149.7296055 111.4955156  83.5483989 149.9388638
 126.5714631  90.4865954 149.8958739 126.7650521  91.3911764 150.1418014
 126.4715249  90.0273373 150.7297324 118.2250942  80.3723844 152.3949067
 117.5778857  81.0713794 152.3013543 118.9951957  80.8059988 152.7625315
 118.4015076  88.2104609 150.4545886 119.3307136  88.3615769 150.2814854
 117.9806106  88.2988630 149.5994533 117.2003408  92.2355274 148.2244424
 117.0614494  91.8674058 149.0970362 116.4118004  92.7502913 148.0528382
 117.7951560  97.3364370 139.5669961 117.9703316  96.8652413 140.3815583
 117.1084348  97.9630136 139.7951221 118.7508623  91.6136876 145.6133262
 118.4158456  91.5737646 146.5090912 118.2512569  90.9481592 145.1403672
 112.7252867  87.0204506 151.1385843 112.5872665  86.2884745 151.7397382
 113.6357790  86.9313407 150.8570031 121.6867815  88.9592911 135.8870321
 121.0696985  88.2339739 135.7903374 121.2184303  89.7202271 135.5437396
 115.3535168  86.7324466 150.6269523 116.0634786  86.0917658 150.5856141
 115.3104476  86.9837361 151.5495703 114.0664102  83.7189684 152.4465162
 113.5301459  83.2680422 153.0986758 113.4780810  83.8535592 151.7035626
 112.3612645 100.4853733 146.3409821 112.6009243 101.1172257 147.0188839
 111.5181842 100.1341773 146.6275180 113.4766361  83.1778335 135.0091626
 112.5995827  83.0567136 134.6453872 113.9524114  82.3864413 134.7570514
 123.3439354  91.6331403 151.7790081 122.4566132  91.2957325 151.9016480
 123.9137905  90.9014434 152.0158847 104.9968501  87.9655495 145.1033133
 105.6839541  87.6517225 144.5154148 104.8416629  88.8696859 144.8300384
 109.8003223  82.8545691 149.5318157 109.7161412  82.2471361 148.7968566
 108.9785929  83.3454710 149.5327653 116.8740507  96.2932855 148.7451325
 116.8010678  97.0987827 149.2570629 116.4317900  96.4924821 147.9199346
 116.6630287  95.5304625 142.2554146 115.8797809  96.0726306 142.3492371
 117.3623032  96.0478605 142.6548387 119.9726937  81.3399255 144.8988352
 120.4695636  80.5869217 144.5789422 119.2013918  81.3763572 144.3331561
 127.8256694  87.0439620 146.5406643 127.8146570  87.9264336 146.1700576
 126.9574074  86.6911171 146.3461180 121.0556717  90.0970942 142.4726775
 120.1212996  90.2172405 142.3031479 121.2333386  89.1943409 142.2086785
 116.5561905  83.4816638 144.6260036 116.1859693  82.9287678 145.3140942
 117.0520998  82.8774771 144.0735036 124.4429269  85.9388261 143.0076809
 124.9089721  86.7716253 142.9337112 124.8936769  85.4733243 143.7122068
 114.3851104  93.9414133 151.7215054 115.0860564  94.5750616 151.8744448
 113.9146219  94.2828864 150.9610693 122.5105500  92.2832083 140.0062961
 122.7865344  92.1688677 140.9156835 121.6409999  91.8849568 139.9675134
 122.4145932  78.3068848 147.0467710 121.5009011  78.5373075 147.2149917
 122.8439033  78.3907292 147.8981743 122.1852390  86.4958740 149.5467604
 121.5323840  86.7434648 148.8920057 122.5632770  85.6822879 149.2130082
 119.1459564  96.5318434 143.6495775 119.3281958  95.7140089 144.1123527
 119.9692550  96.7486126 143.2120665 119.4801729  95.4586619 140.9110823
 120.0089496  94.9479073 140.2980985 119.7429949  95.1429149 141.7756356
 118.2339963  87.2378551 156.0333642 117.5580600  87.1372681 156.7036017
 119.0567597  87.0817765 156.4969639 109.9818822  93.4750488 148.6546157
 110.5672259  92.7294176 148.7874061 109.7843661  93.7854445 149.5382821
 112.8357477  96.5101735 143.6708599 112.1667853  96.9947863 143.1872639
 112.6970347  96.7570956 144.5851978 104.5736477  86.0456088 147.3750600
 104.6120576  85.5119679 148.1687718 104.0676770  85.5191294 146.7561577
 111.9527239  80.8920629 150.8713142 112.0168566  81.7535460 150.4590540
 111.8894359  80.2794630 150.1385501 111.4279512  82.9643761 154.5186177
 112.0551550  82.5820839 155.1323701 110.5707431  82.7457963 154.8841869
 108.2045054  84.7720190 140.4504531 108.4998496  83.8630869 140.3971585
 107.3033090  84.7507930 140.1285534 120.1131133  96.4927454 147.2554940
 119.9882273  95.6917194 146.7465885 120.7710224  96.9873648 146.7668910
 111.7339301  82.8476187 146.4332080 111.0125887  83.4612155 146.2939553
 112.5232557  83.3833952 146.3548726 122.1766042  94.2936474 148.8834490
 121.2296377  94.1741826 148.8112817 122.5248815  93.4058973 148.9660751
 114.5365615  80.1830613 152.7072732 115.0600017  80.4292910 153.4699041
 114.3177948  81.0150648 152.2875869 109.9332896  82.4534288 140.5743857
 109.6045602  81.5731667 140.3918962 110.2872267  82.3981957 141.4620246
 119.1812475  94.0889191 145.0838842 119.0337437  93.1605898 145.2646412
 120.0065968  94.1109281 144.5995917 113.0474719  82.7407258 140.9419334
 113.3870792  83.2693179 140.2197943 113.4946840  83.0787664 141.7177901
 122.7846597  94.9117749 146.1703715 123.7093144  94.7060611 146.0328166
 122.6161900  94.6634151 147.0793056 115.7418160  81.1244308 150.3922402
 115.4014980  80.3252122 150.7943082 115.0357166  81.4246019 149.8199235
 116.3934632  78.2093621 148.8449725 117.2160701  77.7354099 148.7228616
 116.6372695  78.9884105 149.3448412 115.0342866  81.2381879 139.1412627
 115.7551229  81.6163132 138.6376344 114.4108170  81.9570756 139.2447605
 119.1773989  81.9427028 140.0770959 119.3937604  82.8251666 139.7759787
 118.6968056  81.5513242 139.3476601 113.9173211  84.9012742 146.6541704
 113.7717791  85.2153045 147.5465985 113.4398414  85.5197642 146.1012603
 115.7769593  81.8915290 146.7022593 115.7631162  80.9956383 146.3654891
 116.4942022  81.8985953 147.3360879 117.6295724  82.3252630 148.7475721
 117.3713502  83.2469700 148.7460051 117.0980765  81.9283064 149.4376185
 122.5741913  95.4303417 141.5265806 122.7478790  94.8649839 140.7739659
 123.0670804  96.2304312 141.3445296 108.3918873  87.4418086 149.5929365
 107.8472341  88.2177894 149.7249639 109.2698223  87.7888890 149.4348486
 115.1806489  80.7729670 141.9710164 115.3022401  79.8446316 142.1701051
 114.8908532  80.7868356 141.0588479 118.0497680  78.4584580 145.1076883
 118.0719377  78.5223913 144.1528863 118.4665739  77.6189089 145.3017390
 128.4281304  88.1939840 143.1456106 128.8712450  87.4447165 142.7475229
 127.5507814  88.1849976 142.7629838 123.5617085  94.7470181 138.6262705
 124.2567990  95.3676874 138.8450019 123.9040236  93.8965532 138.9015082
 109.1784895  86.5687982 152.4859522 108.4366631  86.7170618 153.0724152
 108.8577639  86.8296248 151.6226271 125.4608509  92.1969887 140.1550035
 125.9859833  92.5357160 139.4299355 125.3730861  91.2616902 139.9713170
 117.1449169  98.2641870 144.5145288 116.7054160  97.7718249 145.2078145
 117.8957286  97.7214838 144.2737364 109.6241508  94.4553411 144.5169917
 110.4499528  94.1557183 144.1368560 109.2735560  93.6861033 144.9659705
 114.5923041  93.8079879 146.5867590 113.9703051  93.1450584 146.2869818
 115.2627908  93.8341011 145.9041238 107.8250113  92.3739737 145.4758850
 106.9882022  91.9461912 145.2942851 107.7973759  92.5672181 146.4129641
 114.6647569  82.2861667 156.1800096 114.7135724  83.1623790 155.7977866
 115.2070083  81.7439060 155.6071739 114.1536548  92.3583803 140.0626051
 114.3024669  93.0419267 139.4092723 114.9602992  92.3388893 140.5775506
 122.5604052  85.6626185 154.0893269 123.4613915  85.5232650 153.7977266
 122.6352027  85.8280640 155.0291446 116.8946857  83.0393040 152.9346455
 116.0250167  83.3326606 152.6629043 117.1306338  83.6233485 153.6553718
 127.9714169  89.6645078 145.5378554 128.8061060  90.1034882 145.7016114
 128.1073298  89.1883731 144.7186799 125.0205675  87.2224813 151.4856041
 125.4959796  87.4152459 150.6774893 124.0971240  87.2783999 151.2399425
 111.9089181  88.3848980 141.0687120 111.6635223  87.4811310 141.2667330
 112.0785096  88.3866131 140.1266598 119.5985891  79.2572657 150.4511875
 120.1167835  79.9933683 150.1258364 119.2441024  79.5636650 151.2858634
 111.1784829  84.1177338 138.5673281 110.4854074  84.1921693 137.9113317
 110.9336581  83.3537681 139.0894798 119.8498485  75.6772939 145.9712772
 120.1300239  75.0096128 146.5973198 120.6349092  75.8702035 145.4587436
 117.6531954  94.8531933 137.5337798 117.0805921  95.4722120 137.0808270
 118.2264748  95.4031295 138.0677720 123.7207344  84.0990573 149.7184347
 124.6724767  84.1988671 149.7396571 123.5510794  83.3068842 150.2282431
 121.7421723  81.1846156 149.9043748 121.1471655  81.4651169 149.2090236
 121.4571420  81.6740057 150.6760489 120.8729214  95.1369083 138.6646380
 121.8059887  95.0714645 138.8679256 120.7852426  95.9725350 138.2060913
 123.5017230  94.4534953 135.6250328 123.4230862  94.1194817 136.5186086
 124.3226897  94.9456721 135.6241800 126.1995422  87.3196693 148.8326647
 126.1671742  86.3812693 149.0186330 126.8096045  87.3980729 148.0992471
 118.0378752  86.1892746 134.8753851 118.9837857  86.0598954 134.9442269
 117.6592997  85.4507408 135.3523279 126.3489910  84.1107736 148.8784930
 125.8328959  83.3266193 148.6914859 127.2329859  83.7826453 149.0431449
 124.0100637  77.8548752 144.8380742 123.8125458  77.5463840 145.7224074
 124.6200342  78.5810391 144.9678672 132.0171971  88.3812700 147.9732683
 132.7475360  88.1197988 148.5340387 131.4078917  87.6441422 148.0134751
 130.0987268  86.5220562 148.5707135 129.3720432  86.3876527 147.9623626
 129.6834555  86.8297391 149.3763853 116.2221670  84.1142722 134.8108736
 115.3153125  83.8175835 134.8871449 116.4997651  83.8172540 133.9443022
 107.1399610  85.4349086 145.2607782 106.8202394  84.5814394 144.9682156
 106.5933038  85.6497664 146.0165750 110.9179517  88.1511527 148.9777289
 111.1365527  89.0828634 148.9965323 111.3305291  87.7919501 149.7632093
 117.8383735  78.6579612 140.9652977 117.0284464  78.3126697 141.3408223
 118.5268152  78.3487156 141.5540589 119.7674284  77.7357659 142.5877274
 120.3205322  78.1553112 143.2467297 120.0044370  76.8093407 142.6300230
 115.7907383  83.7244732 158.3680038 115.6904110  84.6739089 158.2992129
 115.5728925  83.3962971 157.4956108 114.9920454  80.9729657 134.9520715
 115.8539618  81.2984556 135.2116532 115.1770798  80.1861153 134.4393781
 107.0087870  89.0551997 147.2300904 106.3151341  88.6405950 146.7170858
 107.7560861  89.0972534 146.6334323 123.1453091  79.8458184 142.0955938
 122.5651760  80.5042988 141.7133990 122.8789023  79.0235528 141.6843356
 121.5956657  79.2463241 144.2977258 122.0956435  79.3579776 143.4891577
 122.2392265  78.9424294 144.9378067 115.6538653  87.1541871 157.1845099
 115.1705735  87.9542231 157.3908988 115.7399592  87.1649816 156.2312543
 108.9224612  88.9870251 145.1066919 108.8995301  89.0857938 144.1548802
 109.2325249  89.8335402 145.4284085 111.5811990  91.0446406 149.2213533
 112.5355244  91.0130348 149.1543465 111.3824514  90.5837030 150.0363759
 112.1711372  89.6147522 151.7884331 112.9904261  90.1091601 151.8119168
 112.4448180  88.6979490 151.7601898 121.9277969  82.0058274 141.1512286
 121.0403824  82.2907925 140.9332481 122.3431958  81.8452038 140.3039563
 125.2792505  82.0304795 144.8666626 126.0552895  82.5201248 145.1391242
 124.5540639  82.4562849 145.3238495 127.7165063  82.7432414 145.9240566
 128.3109554  82.5028150 145.2133874 127.7891647  82.0239545 146.5514102
 109.9362219  96.5866025 146.2383731 109.8016687  95.8266426 145.6721729
 109.5194281  97.3106925 145.7712520 121.0721182  91.7702949 135.2460306
 121.7757032  91.9752951 135.8617962 120.3483831  92.3379711 135.5109390
 121.9018992  87.5212810 141.3662576 121.8454194  87.9781362 140.5270209
 122.4547335  86.7603495 141.1885419 125.7123798  83.3102542 142.1912696
 125.4560733  82.9099178 143.0220904 125.0876666  84.0246336 142.0662835
 130.0236136  86.0498615 144.6983987 129.4635694  86.1191805 145.4715549
 129.4179640  85.8739600 143.9783484 113.0931345  97.4835342 146.4502174
 112.9763729  98.4280775 146.3480864 112.2723791  97.1808904 146.8387973
 122.9807880  92.2085478 137.2958766 123.8153483  91.7766677 137.1136241
 122.8192222  92.0367492 138.2235661 122.6353772  88.7117591 138.6615106
 122.5802575  88.5461863 137.7203550 122.0099827  89.4193624 138.8177295
 107.4246287  83.9485656 152.4876528 108.0705150  83.4384610 152.9763753
 107.2163438  84.6854337 153.0619953 115.9449897  78.2125700 138.2400424
 115.9328567  79.1567540 138.3968695 116.8373319  78.0295846 137.9459885
 114.1185859  98.1363604 149.6658102 115.0213106  98.1687214 149.9824597
 113.8923229  97.2064055 149.6804438 115.8739461  96.8894591 146.3268181
 114.9235092  96.8896452 146.2132553 116.1771947  96.1427325 145.8104215
 119.7602017  74.8068477 142.4946361 118.9934412  74.2526964 142.6403043
 120.1712722  74.8790346 143.3560512 111.7643778  81.0953273 156.5851542
 112.6275239  80.7390078 156.7954867 111.1909188  80.7567168 157.2726946
 124.2768677 104.5318034 143.3172359 123.7133542 104.4407971 142.5488646
 124.1621072 103.7117938 143.7974851 129.8568235 108.1989001 138.6286824
 129.2056215 108.7843082 138.2420837 130.6512598 108.7295196 138.6881861
 123.7823862 105.2878139 139.0273958 124.5554738 104.7407126 138.8886834
 124.1349261 106.1522388 139.2388419 126.1190140 101.4470805 136.6592408
 126.3715661 100.9252326 135.8975871 125.1814699 101.2836950 136.7619092
 131.3343500 105.8879433 139.1655808 130.6989333 105.9614060 139.8776713
 131.0040907 106.4773032 138.4874887 125.8386429 103.3498911 138.8616783
 125.7222687 102.6743814 139.5297867 125.9488689 102.8631285 138.0448936
 128.1817970 102.8109058 142.5663472 127.8176177 102.2839679 143.2776394
 129.0385086 102.4207527 142.3929958 127.8223457  97.8398957 137.5624821
 127.9897859  98.7079194 137.9295292 127.6320626  98.0026239 136.6386110
 127.8012678 100.2956615 138.5471487 127.6812303 100.7413666 139.3856968
 127.1065266 100.6441933 137.9885026 133.4997744 100.7678088 139.3751821
 134.4115600 101.0005475 139.1999519 132.9907391 101.3515132 138.8126900
 126.5964174 101.6101467 140.8405053 127.2988218 102.0622511 141.3078980
 126.2644803 100.9685286 141.4684946 120.3389508  99.8685020 146.1422187
 119.5488562 100.1242548 145.6662297 120.8300756 100.6833357 146.2474227
 122.2904254 100.2329599 143.1005663 121.4935417 100.3448293 143.6189159
 122.0629846 100.5716251 142.2346554 121.2887336 105.9417848 141.4895083
 121.8011857 106.7361098 141.6400648 121.9410049 105.2444138 141.4228685
 119.2536253 104.2706502 142.2654654 120.0911475 104.6803510 142.0488362
 119.4314521 103.3305944 142.2354848 131.1500685 101.9381583 137.9538487
 130.6347309 102.7086187 138.1926874 130.8777994 101.2646719 138.5771548
 128.7347796  96.7831283 143.0123725 127.8789392  96.3938134 142.8329364
 129.1474748  96.8623244 142.1523511 126.5089829  94.4016356 146.4181467
 127.3742825  94.2059165 146.0587356 126.5767338  94.1726708 147.3450824
 130.9386988  99.8108675 139.7798268 130.6337124 100.1254824 140.6308411
 131.8917430  99.8890095 139.8225601 129.3833420 105.9698898 141.4291222
 128.8554782 105.2351658 141.1164460 128.8820923 106.7473574 141.1831190
 124.1152148  96.6318564 143.7897834 124.6895900  96.4093746 143.0571027
 124.7023130  96.7007259 144.5426435 124.4421735  98.6623025 137.8093719
 123.6059047  98.9997712 138.1302994 124.3026504  98.5272005 136.8720856
 126.4174815  93.5059813 142.5172903 125.7639228  93.1908830 141.8929518
 126.3755290  92.8835554 143.2432726 127.5286020 103.7879108 134.4326195
 126.6213082 103.5568362 134.6317344 128.0257052 102.9916728 134.6200177
 130.4347604 101.3933162 141.9723231 131.1819423 101.9054560 141.6630353
 130.7039193 101.0717215 142.8327625 128.7074254 103.8891703 138.9550185
 127.7985473 103.6050736 139.0522655 128.7369338 104.3090782 138.0953492
 132.8826441  98.4290279 143.9542020 132.1449198  97.9167665 144.2852263
 133.1353214  97.9890660 143.1425297 132.9838068  91.2066531 144.5483790
 133.2896945  90.3463894 144.2609705 133.7090673  91.7984151 144.3482783
 119.2762424 101.6097217 142.9365387 119.0786824 101.0166578 142.2116454
 118.7209088 101.3049427 143.6541326 128.4050342 105.4300447 136.2938264
 127.9669771 104.7136306 135.8343901 129.1460782 105.6576562 135.7323355
 125.1951508 100.1197383 142.8150359 124.3819373 100.4191554 143.2215552
 125.6910502  99.7253072 143.5324842 121.7708650 101.1361251 140.6206340
 120.8406238 101.0745707 140.8376302 121.8666122 100.6137204 139.8242981
 121.6894199  97.6616064 143.2084581 121.9501016  98.5761397 143.0993742
 122.5111371  97.1940507 143.3581194 132.5261569 104.2884828 135.8870321
 131.9090740 103.5631657 135.7903374 132.0578058 105.0494189 135.5437396
 124.3160115  98.5070253 135.0091626 123.4389581  98.3859054 134.6453872
 124.7917868  97.7156331 134.7570514 115.8362255 103.2947412 145.1033133
 116.5233295 102.9809142 144.5154148 115.6810384 104.1988777 144.8300384
 120.6396977  98.1837609 149.5318157 120.5555166  97.5763279 148.7968566
 119.8179684  98.6746627 149.5327653 130.8120691  96.6691173 144.8988352
 131.3089391  95.9161135 144.5789422 130.0407673  96.7055489 144.3331561
 127.3955660  98.8108556 144.6260036 127.0253447  98.2579596 145.3140942
 127.8914752  98.2066689 144.0735036 115.4130231 101.3748006 147.3750600
 115.4514331 100.8411597 148.1687718 114.9070524 100.8483211 146.7561577
 119.0438809 100.1012108 140.4504531 119.3392250  99.1922786 140.3971585
 118.1426845 100.0799847 140.1285534 122.5733056  98.1768105 146.4332080
 121.8519642  98.7904072 146.2939553 123.3626312  98.7125869 146.3548726
 120.7726650  97.7826206 140.5743857 120.4439357  96.9023585 140.3918962
 121.1266021  97.7273874 141.4620246 123.8868474  98.0699175 140.9419334
 124.2264546  98.5985097 140.2197943 124.3340594  98.4079582 141.7177901
 125.8736621  96.5673797 139.1412627 126.5944983  96.9455050 138.6376344
 125.2501925  97.2862674 139.2447605 130.0167744  97.2718946 140.0770959
 130.2331358  98.1543584 139.7759787 129.5361811  96.8805159 139.3476601
 126.6163348  97.2207207 146.7022593 126.6024917  96.3248301 146.3654891
 127.3335776  97.2277871 147.3360879 126.0200244  96.1021587 141.9710164
 126.1416155  95.1738234 142.1701051 125.7302286  96.1160273 141.0588479
 128.8891434  93.7876498 145.1076883 128.9113131  93.8515831 144.1528863
 129.3059493  92.9481007 145.3017390 124.9930303 107.6875720 140.0626051
 125.1418423 108.3711185 139.4092723 125.7996746 107.6680810 140.5775506
 122.7482936 103.7140898 141.0687120 122.5028978 102.8103228 141.2667330
 122.9178850 103.7158048 140.1266598 122.0178583  99.4469255 138.5673281
 121.3247828  99.5213610 137.9113317 121.7730335  98.6829599 139.0894798
 130.6892240  91.0064857 145.9712772 130.9693994  90.3388046 146.5973198
 131.4742847  91.1993952 145.4587436 128.4925708 110.1823851 137.5337798
 127.9199675 110.8014038 137.0808270 129.0658502 110.7323212 138.0677720
 134.3410985 109.7826871 135.6250328 134.2624616 109.4486735 136.5186086
 135.1620652 110.2748639 135.6241800 128.8772507 101.5184663 134.8753851
 129.8231612 101.3890871 134.9442269 128.4986752 100.7799325 135.3523279
 134.8494391  93.1840669 144.8380742 134.6519213  92.8755758 145.7224074
 135.4594097  93.9102308 144.9678672 127.0615424  99.4434640 134.8108736
 126.1546879  99.1467752 134.8871449 127.3391405  99.1464458 133.9443022
 117.9793364 100.7641003 145.2607782 117.6596149  99.9106311 144.9682156
 117.4326793 100.9789581 146.0165750 128.6777490  93.9871529 140.9652977
 127.8678218  93.6418614 141.3408223 129.3661907  93.6779073 141.5540589
 130.6068038  93.0649576 142.5877274 131.1599077  93.4845030 143.2467297
 130.8438124  92.1385324 142.6300230 125.8314209  96.3021575 134.9520715
 126.6933373  96.6276473 135.2116532 126.0164553  95.5153071 134.4393781
 133.9846845  95.1750101 142.0955938 133.4045514  95.8334905 141.7133990
 133.7182778  94.3527446 141.6843356 132.4350411  94.5755159 144.2977258
 132.9350190  94.6871694 143.4891577 133.0786019  94.2716212 144.9378067
 119.7618367 104.3162168 145.1066919 119.7389055 104.4149856 144.1548802
 120.0719003 105.1627319 145.4284085 132.7671723  97.3350192 141.1512286
 131.8797578  97.6199842 140.9332481 133.1825712  97.1743955 140.3039563
 131.9114937 107.0994866 135.2460306 132.6150787 107.3044869 135.8617962
 131.1877585 107.6671628 135.5109390 132.7412747 102.8504728 141.3662576
 132.6847948 103.3073279 140.5270209 133.2941089 102.0895412 141.1885419
 136.5517553  98.6394460 142.1912696 136.2954487  98.2391095 143.0220904
 135.9270421  99.3538254 142.0662835 133.8201634 107.5377396 137.2958766
 134.6547238 107.1058594 137.1136241 133.6585977 107.3659409 138.2235661
 133.4747526 104.0409509 138.6615106 133.4196330 103.8753780 137.7203550
 132.8493581 104.7485542 138.8177295 126.7843652  93.5417618 138.2400424
 126.7722321  94.4859458 138.3968695 127.6767074  93.3587763 137.9459885
 130.5995771  90.1360395 142.4946361 129.8328167  89.5818881 142.6403043
 131.0106476  90.2082263 143.3560512  75.6599464   8.5591536 125.3532130
  75.0087444   9.1445616 124.9666144  76.4543827   9.0897730 125.4127168
  69.5855091   5.6480673 125.7519265  70.3585967   5.1009660 125.6132140
  69.9380490   6.5124922 125.9633726  71.9221369   1.8073339 123.3837715
  72.1746890   1.2854860 122.6221178  70.9845928   1.6439484 123.4864398
  77.1374729   6.2481968 125.8901115  76.5020562   6.3216594 126.6022019
  76.8072136   6.8375566 125.2120194  71.6417658   3.7101445 125.5862089
  71.5253916   3.0346348 126.2543174  71.7519918   3.2233819 124.7694243
  73.6254686  -1.7998508 124.2870127  73.7929088  -0.9318272 124.6540598
  73.4351855  -1.6371227 123.3631416  73.6043907   0.6559149 125.2716794
  73.4843532   1.1016200 126.1102274  72.9096495   1.0044467 124.7130332
  71.3650799  13.4262791 128.9206925  71.2874828  14.3770616 128.9995406
  70.7612442  13.0808663 129.5781852  79.3028973   1.1280622 126.0997128
  80.2146829   1.3608009 125.9244826  78.7938620   1.7117666 125.5372207
  81.7887787   7.0460879 130.8455073  81.1038825   7.4259780 130.2952107
  81.8731636   7.6556205 131.5787021  73.4626517   5.8480849 130.7560795
  73.9264862   6.1268552 129.9665417  73.1983315   4.9464293 130.5733885
  72.3995403   1.9704001 127.5650360  73.1019446   2.4225045 128.0324286
  72.0676031   1.3287820 128.1930253  88.2490540   3.9131541 131.9657746
  87.4954248   3.3438940 131.8101750  88.3838081   3.8794206 132.9128380
  73.6389168   8.7844944 127.6412465  73.5034842   9.6296480 128.0697313
  74.1798980   8.9864221 126.8778399  67.0918565   6.3020382 128.2140390
  67.6043086   7.0963632 128.3645955  67.7441278   5.6046672 128.1473992
  68.9013450   9.4186138 130.2963143  69.0780078  10.3404103 130.1084127
  69.6970283   9.1044557 130.7257523  76.9531914   2.2984117 124.6783794
  76.4378537   3.0688721 124.9172181  76.6809222   1.6249253 125.3016855
  81.9266188   5.0516471 126.6136967  81.1495631   4.7127631 126.1692129
  82.6057669   5.0569095 125.9391932  76.7418217   0.1711209 126.5043575
  76.4368353   0.4857358 127.3553718  77.6948659   0.2492629 126.5470908
  75.1864649   6.3301432 128.1536529  74.6586010   5.5954192 127.8409766
  74.6852152   7.1076109 127.9076497  80.1657495   4.5250453 133.2703575
  79.5081169   5.2149714 133.3583704  80.9697894   4.9146885 133.6137561
  78.9762954   2.8794825 131.3207517  79.4894835   3.5124817 131.8229227
  79.6264178   2.2796021 130.9550877  70.2452964  -0.9774440 124.5339026
  69.4090276  -0.6399754 124.8548300  70.1057733  -1.1125461 123.5966163
  73.3317249   4.1481642 121.1571502  72.4244311   3.9170896 121.3562651
  73.8288281   3.3519262 121.3445483  76.2385328  12.8579150 124.0768188
  75.5647027  13.1610846 124.6853146  76.6251150  13.6608230 123.7273645
  76.2378832   1.7535697 128.6968538  76.9850651   2.2657094 128.3875660
  76.5070422   1.4319749 129.5572931  74.5105483   4.2494237 125.6795492
  73.6016702   3.9653270 125.7767962  74.5400566   4.6693316 124.8198799
  79.7424750   7.8600827 129.4486659  79.2887077   7.0191737 129.5051850
  79.1118717   8.4962225 129.7861440  78.1857689   9.6977324 130.3836478
  78.4780664  10.2582381 129.6648843  78.6956310   9.9905885 131.1389637
  74.2081570   5.7902981 123.0183570  73.7701000   5.0738840 122.5589208
  74.9492011   6.0179096 122.4568662  73.1491314  10.4757675 131.4729931
  73.1067493  10.7018521 130.5438463  74.0654013  10.2421049 131.6215732
  82.3254685   4.0660178 129.0759889  82.1872584   4.2561774 128.1481078
  81.9690904   4.8279561 129.5327940  82.3524065   6.1336705 134.0871161
  82.7860571   6.0411994 134.9354215  83.0655645   6.1094206 133.4491177
  74.4376543  13.0258822 126.2915267  74.6128299  12.5546865 127.1060890
  73.7509331  13.6524588 126.5196528  78.3292798   4.6487363 122.6115628
  77.7121969   3.9234191 122.5148681  77.8609286   5.4096723 122.2682702
  69.0037628  16.1748185 133.0655127  69.2434227  16.8066709 133.7434146
  68.1606825  15.8236225 133.3520487  70.1191344  -1.1327213 121.7336932
  69.2420810  -1.2538412 121.3699179  70.5949097  -1.9241135 121.4815821
  73.3055270  11.2199077 128.9799453  72.5222792  11.7620758 129.0737677
  74.0048015  11.7373057 129.3793694  84.4681677   2.7334072 133.2651950
  84.4571554   3.6158788 132.8945883  83.5999057   2.3805623 133.0706487
  77.6981701   5.7865394 129.1972082  76.7637979   5.9066856 129.0276786
  77.8758369   4.8837861 128.9332091  81.0854252   1.6282713 129.7322116
  81.5514704   2.4610705 129.6582418  81.5361753   1.1627695 130.4367374
  79.1530483   7.9726535 126.7308268  79.4290327   7.8583129 127.6402142
  78.2834982   7.5744019 126.6920441  75.7884547  12.2212885 130.3741081
  75.9706942  11.4034541 130.8368834  76.6117533  12.4380578 129.9365971
  76.1226713  11.1481071 127.6356130  76.6514479  10.6373525 127.0226292
  76.3854932  10.8323601 128.5001663  69.4782461  12.1996187 130.3953906
  68.8092836  12.6842315 129.9117946  69.3395330  12.4465408 131.3097284
  76.7556116  12.1821906 133.9800246  76.6307256  11.3811646 133.4711192
  77.4135208  12.6768100 133.4914216  78.8191025   9.9830926 135.6079796
  77.8721360   9.8636278 135.5358123  79.1673798   9.0953424 135.6906058
  75.8237458   9.7783643 131.8084149  75.6762421   8.8500350 131.9891719
  76.6490952   9.8003733 131.3241224  79.4271580  10.6012201 132.8949021
  80.3518127  10.3955063 132.7573473  79.2586883  10.3528602 133.8038363
  75.8198972  -2.3678520 126.8016266  76.0362587  -1.4853882 126.5005094
  75.3393040  -2.7592306 126.0721908  79.2166896  11.1197869 128.2511113
  79.3903774  10.5544291 127.4984965  79.7095787  11.9198764 128.0690603
  85.0706287   3.8834292 129.8701413  85.5137433   3.1341617 129.4720536
  84.1932798   3.8744428 129.4875145  80.2042069  10.4364633 125.3508011
  80.8992973  11.0571326 125.5695326  80.5465219   9.5859984 125.6260389
  82.1033492   7.8864339 126.8795342  82.6284816   8.2251611 126.1544662
  82.0155844   6.9511354 126.6958477  73.7874153  13.9536322 131.2390595
  73.3479143  13.4612701 131.9323452  74.5382270  13.4109290 130.9982670
  70.7961532   8.0478254 126.7871357  70.9449652   8.7313719 126.1338030
  71.6027975   8.0283344 127.3020813  84.6139152   5.3539530 132.2623860
  85.4486043   5.7929334 132.4261421  84.7498281   4.8778183 131.4432106
  74.2956937  10.5426385 124.2583105  73.7230904  11.1616572 123.8053577
  74.8689731  11.0925747 124.7923027  77.5154197  10.8263535 125.3891687
  78.4484870  10.7609097 125.5924563  77.4277410  11.6619802 124.9306220
  80.1442214  10.1429405 122.3495635  80.0655845   9.8089269 123.2431393
  80.9651880  10.6351173 122.3487107  74.6803736   1.8787198 121.5999157
  75.6262840   1.7493406 121.6687575  74.3017981   1.1401860 122.0768585
  88.6596955   4.0707151 134.6977990  89.3900343   3.8092440 135.2585693
  88.0503900   3.3335873 134.7380058  72.8646653  -0.1962826 121.5354042
  71.9578108  -0.4929713 121.6116756  73.1422634  -0.4933008 120.6688329
  71.6345437  -3.3375891 121.6766022  72.4964601  -3.0120992 121.9361839
  71.8195782  -4.1244395 121.1639087  78.5702952  -2.3047274 127.8757593
  77.6828807  -2.0197623 127.6577788  78.9856941  -2.4653511 127.0284870
  77.7146165   7.4597401 121.9705613  78.4182016   7.6647403 122.5863269
  76.9908814   8.0274163 122.2354696  78.5443976   3.2107262 128.0907883
  78.4879177   3.6675813 127.2515516  79.0972318   2.4497947 127.9130726
  82.3548782  -1.0003006 128.9158003  82.0985716  -1.4006370 129.7466210
  81.7301650  -0.2859212 128.7908142  86.6661119   1.7393067 131.4229294
  86.1060677   1.8086256 132.1960856  86.0604623   1.5634052 130.7028790
  69.7356328  13.1729794 133.1747480  69.6188712  14.1175227 133.0726171
  68.9148775  12.8703356 133.5633279  79.6232863   7.8979930 124.0204073
  80.4578467   7.4661128 123.8381548  79.4617206   7.7261944 124.9480967
  79.2778755   4.4012043 125.3860412  79.2227559   4.2356315 124.4448856
  78.6524810   5.1088076 125.5422602  72.5164444  12.5789043 133.0513487
  71.5660075  12.5790904 132.9377860  72.8196931  11.8321777 132.5349522
  88.2517138  18.4149581 134.1159250  88.8895548  18.2956328 133.4122590
  88.1337981  19.3630425 134.1747202  85.0606844  18.3677009 134.0520774
  84.7225356  18.2518074 133.1641309  85.9296612  17.9668174 134.0321781
  80.9193660  20.2212486 130.0417665  80.3558525  20.1302422 129.2733953
  80.8046055  19.4012390 130.5220158  85.5426627  19.5211861 140.0106980
  85.5315268  19.1264659 139.1387484  85.7047267  18.7877933 140.6040751
  78.4658092  21.7163677 132.8801886  79.2579384  21.3754502 132.4648185
  78.7054742  21.8258652 133.8004039  86.4993219  23.8883453 125.3532130
  85.8481198  24.4737534 124.9666144  87.2937581  24.4189648 125.4127168
  80.4248846  20.9772590 125.7519265  81.1979722  20.4301577 125.6132140
  80.7774245  21.8416840 125.9633726  82.2633888  22.3048973 138.9586164
  81.9723754  23.2094604 138.8432830  82.8990873  22.3465500 139.6730233
  83.1890095  19.6825821 135.5487524  83.7853667  19.4581844 134.8344487
  83.2465067  18.9410567 136.1512971  82.7615124  17.1365257 123.3837715
  83.0140644  16.6146778 122.6221178  81.8239683  16.9731402 123.4864398
  87.8058406  16.1401035 131.1912458  88.5921496  15.7220458 130.8402875
  88.0697111  17.0447127 131.3594106  87.9768484  21.5773885 125.8901115
  87.3414317  21.6508512 126.6022019  87.6465890  22.1667484 125.2120194
  93.2066834  16.0776268 132.0945436  93.9392005  15.5075485 132.3283266
  92.4506189  15.6897869 132.5351942  82.4811412  19.0393362 125.5862089
  82.3647670  18.3638266 126.2543174  82.5913672  18.5525736 124.7694243
  84.8242953  18.5003510 129.2908779  84.4601160  17.9734131 130.0021700
  85.6810069  18.1101979 129.1175264  90.7292254   9.7897842 136.5540045
  90.3975579  10.6593253 136.3301260  90.1337867   9.4734126 137.2334075
  84.4648440  13.5293409 124.2870127  84.6322843  14.3973646 124.6540598
  84.2745609  13.6920691 123.3631416  87.2223773  21.9910388 135.9535958
  86.9224496  22.8935427 135.8451765  86.8774833  21.7242571 136.8057110
  80.6736255  18.4424185 131.9872662  79.7486751  18.3100399 132.1950354
  80.9220668  19.2218404 132.4842604  90.6220917  14.5092928 133.6333395
  89.7137795  14.4408337 133.3392156  90.5708513  14.9864873 134.4615220
  84.4437661  15.9851067 125.2716794  84.3237286  16.4308118 126.1102274
  83.7490249  16.3336384 124.7130332  78.0345066  18.0857459 132.8216451
  78.1637447  18.3391937 133.7355863  77.3542517  18.6785167 132.5021106
  82.2044553  28.7554709 128.9206925  82.1268583  29.7062534 128.9995406
  81.6006197  28.4100581 129.5781852  84.6961783  15.9282574 141.5768292
  83.9195117  16.4876494 141.5671157  85.3352346  16.4139357 142.0983162
  92.4882564  12.7109367 135.4111269  91.8456944  13.0041900 134.7651063
  91.9837492  12.5962287 136.2164466  90.1422727  16.4572540 126.0997128
  91.0540583  16.6899927 125.9244826  89.6332374  17.0409584 125.5372207
  82.9508155  18.7368027 141.1386259  83.6922840  19.2753071 140.8621083
  82.2445141  19.3634316 141.2957811  88.4263495  20.8797168 139.7358421
  88.8346851  20.4379578 138.9913053  87.7040756  20.3049795 139.9892614
  84.7794565  15.8169775 137.1091978  85.6255760  16.2409188 137.2526627
  84.7193203  15.1603399 137.8030541  88.7492310  21.4398358 133.4910710
  88.1201172  21.6044073 132.7886777  88.3617972  21.8539968 134.2621674
  92.6281541  22.3752796 130.8455073  91.9432580  22.7551698 130.2952107
  92.7125391  22.9848123 131.5787021  87.9294010  13.4774143 138.7673151
  87.6854942  14.2316203 138.2307427  88.2053941  13.8559491 139.6020398
  89.8832473  20.0212755 137.4450417  90.0949368  20.6644515 136.7684798
  89.8362221  19.1875072 136.9772347  87.4858702  12.6330576 134.3486989
  86.6243181  12.9311829 134.6403727  87.5121137  12.8500975 133.4168022
  84.3020271  21.1772766 130.7560795  84.7658617  21.4560469 129.9665417
  84.0377070  20.2756211 130.5733885  81.1944352  20.7244248 133.6940558
  81.7645710  21.1531516 133.0558042  81.7852464  20.4426833 134.3924744
  83.2389157  17.2995919 127.5650360  83.9413201  17.7516963 128.0324286
  82.9069786  16.6579738 128.1930253  76.9814491  15.5579472 132.8667493
  76.1913545  15.8137000 132.3907604  77.4725739  16.3727809 132.9719534
  90.9978301  22.8984711 135.6172774  91.8195745  22.4964898 135.3355456
  90.9940704  22.7952945 136.5688890  78.9329237  15.9224051 129.8250970
  78.1360400  16.0342745 130.3434466  78.7054829  16.2610703 128.9591861
  84.7634904  22.4468754 137.7733485  84.8279337  22.9089161 138.6091657
  84.0545828  21.8166119 137.9015795  75.2652194  15.8109962 135.2982484
  75.5160233  16.6956972 135.5640060  75.8011743  15.6314563 134.5257576
  99.0884294  19.2423459 131.9657746  98.3348002  18.6730857 131.8101750
  99.2231835  19.2086124 132.9128380  84.4782922  24.1136861 127.6412465
  84.3428597  24.9588397 128.0697313  85.0192735  24.3156139 126.8778399
  77.9312320  21.6312300 128.2140390  78.4436840  22.4255550 128.3645955
  78.5835032  20.9338590 128.1473992  79.7407204  24.7478056 130.2963143
  79.9173833  25.6696020 130.1084127  80.5364038  24.4336475 130.7257523
  86.1051398  24.7360428 141.7712807  85.6615253  23.9496807 141.4533712
  86.7668612  24.9239578 141.1056698  80.8638520  26.2656230 136.2973486
  81.4145945  26.1373293 135.5250480  80.0249996  26.5651119 135.9468378
  88.2032637  25.0163228 139.7994208  88.1851112  25.8372109 139.3074478
  89.1252557  24.8917303 140.0244350  84.6605691  22.5307357 140.6417717
  85.1934028  21.7695646 140.4117025  84.1319772  22.2381009 141.3841871
  87.8275386   7.6367423 136.1711359  87.4839655   8.5269065 136.0950469
  88.1954348   7.4469081 135.3080944  75.8961236  19.9600954 128.9899961
  76.7336458  20.3697962 128.7733668  76.0739504  19.0200396 128.9600155
  87.7925668  17.6276034 124.6783794  87.2772292  18.3980639 124.9172181
  87.5202977  16.9541171 125.3016855  85.3772779  12.4725735 129.7369032
  84.5214376  12.0832586 129.5574671  85.7899731  12.5517696 128.8768818
  86.9071926  10.0072079 134.1360592  86.4036722   9.9702214 133.3228397
  87.2002533  10.9164821 134.1957248  83.1514812  10.0910808 133.1426773
  84.0167809   9.8953617 132.7832663  83.2192321   9.8621160 134.0696130
  92.7659943  20.3808389 126.6136967  91.9889385  20.0419549 126.1692129
  93.4451424  20.3861012 125.9391932  87.5811972  15.5003127 126.5043575
  87.2762107  15.8149276 127.3553718  88.5342414  15.5784546 126.5470908
  86.0258403  21.6593350 128.1536529  85.4979765  20.9246109 127.8409766
  85.5245906  22.4368026 127.9076497  91.0051249  19.8542370 133.2703575
  90.3474924  20.5441632 133.3583704  91.8091649  20.2438802 133.6137561
  80.7577131  12.3213016 130.5143140  81.3320883  12.0988198 129.7816333
  81.3448113  12.3901711 131.2671742  89.8156708  18.2086743 131.3207517
  90.3288590  18.8416735 131.8229227  90.4657932  17.6087939 130.9550877
  81.0846718  14.3517477 124.5339026  80.2484030  14.6892164 124.8548300
  80.9451488  14.2166457 123.5966163  83.0599799   9.1954265 129.2418210
  82.4064211   8.8803282 128.6174824  83.0180273   8.5730006 129.9678033
  84.1711004  19.4773560 121.1571502  83.2638065  19.2462814 121.3562651
  84.6682036  18.6811179 121.3445483  87.0779082  28.1871067 124.0768188
  86.4040781  28.4902764 124.6853146  87.4644904  28.9900148 123.7273645
  86.2937539  15.6836199 133.5665857  85.3760100  15.9051146 133.4087545
  86.7097683  15.7582509 132.7077565  87.0772587  17.0827614 128.6968538
  87.8244406  17.5949012 128.3875660  87.3464176  16.7611667 129.5572931
  85.3499237  19.5786155 125.6795492  84.4410456  19.2945188 125.7767962
  85.3794321  19.9985234 124.8198799  90.5818504  23.1892745 129.4486659
  90.1280832  22.3483654 129.5051850  89.9512471  23.8254143 129.7861440
  89.5251424  14.1184731 130.6787327  88.7874181  13.6062117 131.0097569
  89.7778198  13.6785112 129.8670604  89.0251444  25.0269241 130.3836478
  89.3174418  25.5874298 129.6648843  89.5350064  25.3197802 131.1389637
  89.6263051   6.8960983 131.2729096  89.9321928   6.0358346 130.9855011
  90.3515656   7.4878603 131.0728090  75.9187407  17.2991669 129.6610694
  75.7211807  16.7061030 128.9361761  75.3634071  16.9943879 130.3786633
  83.8984131  17.1914776 131.7805287  83.9532741  16.2388612 131.7047764
  83.0875333  17.3474215 132.2646586  85.0475325  21.1194899 123.0183570
  84.6094755  20.4030758 122.5589208  85.7885766  21.3471014 122.4568662
  81.8376491  15.8091835 129.5395666  81.0244357  16.1086006 129.9460858
  82.3335485  15.4147524 130.2570148  83.9885069  25.8049592 131.4729931
  83.9461248  26.0310439 130.5438463  84.9047768  25.5712967 131.6215732
  87.4350703  16.2733660 138.3710560  87.7900090  16.5005133 139.2305026
  88.0822834  16.6052037 137.7487815  93.1648440  19.3952096 129.0759889
  93.0266338  19.5853692 128.1481078  92.8084658  20.1571479 129.5327940
  81.3290566  13.3810191 135.1556901  81.9689945  13.2398950 134.4579864
  80.4968096  13.0944704 134.7795503  93.1917819  21.4628623 134.0871161
  93.6254326  21.3703912 134.9354215  93.9049400  21.4386123 133.4491177
  82.1050870  22.6812621 131.2691894  82.8991468  22.1862941 131.0674468
  81.3942562  22.1530484 130.9059599  86.9245714  25.0630717 135.6204261
  86.9782736  25.6321653 136.3881977  86.0560495  25.2332602 135.2558298
  78.4133633  16.8255703 127.3451646  77.4831221  16.7640159 127.5621608
  78.5091105  16.3031656 126.5488287  78.3319182  13.3510516 129.9329888
  78.5925999  14.2655849 129.8239048  79.1536355  12.8834958 130.0826501
  79.8044108  14.7648273 137.1028712  80.4767161  14.5565635 136.4541361
  78.9773894  14.5670359 136.6633945  94.0533369  21.5052323 136.6204046
  94.2469259  22.4098134 136.8663321  93.9533987  21.0459742 137.4542631
  85.7069680  11.3910214 139.1194373  85.0597595  12.0900164 139.0258850
  86.4770695  11.8246358 139.4870621  89.1148477  21.6559066 142.1944927
  88.9633984  21.4269618 141.2775010  89.1053157  22.6129668 142.2076272
  85.8833814  19.2290979 137.1791193  86.8125874  19.3802138 137.0060160
  85.4624844  19.3175000 136.3239840  84.6822146  23.2541643 134.9489731
  84.5433231  22.8860428 135.8215669  83.8936742  23.7689283 134.7773688
  85.2770298  28.3550740 126.2915267  85.4522053  27.8838783 127.1060890
  84.5903086  28.9816506 126.5196528  86.2327361  22.6323246 132.3378568
  85.8977193  22.5924016 133.2336218  85.7331306  21.9667962 131.8648979
  80.2071605  18.0390876 137.8631150  80.0691403  17.3071115 138.4642689
  81.1176528  17.9499776 137.5815337  89.1686552  19.9779280 122.6115628
  88.5515723  19.2526108 122.5148681  88.7003041  20.7388641 122.2682702
  82.8353905  17.7510835 137.3514829  83.5453524  17.1104028 137.3101448
  82.7923214  18.0023730 138.2741010  90.8240684  24.6878189 140.2721408
  90.7653230  24.0037409 139.6051991  91.2260202  25.4297179 139.8202034
  79.8431383  31.5040103 133.0655127  80.0827981  32.1358627 133.7434146
  79.0000579  31.1528143 133.3520487  80.9585098  14.1964705 121.7336932
  80.0814565  14.0753505 121.3699179  81.4342851  13.4050783 121.4815821
  90.8258091  22.6517773 138.5035388  89.9384870  22.3143694 138.6261787
  91.3956642  21.9200804 138.7404153  72.4787238  18.9841864 131.8278439
  73.1658278  18.6703594 131.2399455  72.3235367  19.8883229 131.5545691
  77.2821961  13.8732061 136.2563463  77.1980149  13.2657730 135.5213873
  76.4604667  14.3641079 136.2572960  84.3559245  27.3119225 135.4696631
  84.2829416  28.1174196 135.9815936  83.9136638  27.5111191 134.6444653
  84.1449024  26.5490995 128.9799453  83.3616546  27.0912675 129.0737677
  84.8441770  27.0664975 129.3793694  87.4545675  12.3585624 131.6233658
  87.9514374  11.6055587 131.3034728  86.6832656  12.3949941 131.0576868
  95.3075432  18.0625990 133.2651950  95.2965308  18.9450705 132.8945883
  94.4392811  17.7097541 133.0706487  86.8157928  27.2106059 137.6254790
  87.5285900  27.8453524 137.5530691  86.3247957  27.3069925 136.8094792
  88.5375455  21.1157312 129.1972082  87.6031734  21.2358774 129.0276786
  88.7152124  20.2129778 128.9332091  84.0380643  14.5003007 131.3505343
  83.6678431  13.9474048 132.0386248  84.5339736  13.8961141 130.7980343
  91.9248007  16.9574631 129.7322116  92.3908459  17.7902623 129.6582418
  92.3755507  16.4919613 130.4367374  81.8669842  24.9600502 138.4460361
  82.5679301  25.5936985 138.5989755  81.3964957  25.3015234 137.6856000
  89.9924238  23.3018452 126.7308268  90.2684082  23.1875047 127.6402142
  89.1228736  22.9035937 126.6920441  89.8964669   9.3255218 133.7713017
  88.9827749   9.5559445 133.9395224  90.3257771   9.4093662 134.6227049
  89.6671128  17.5145110 136.2712911  89.0142578  17.7621017 135.6165364
  90.0451508  16.7009248 135.9375388  86.6278302  27.5504803 130.3741081
  86.8100696  26.7326459 130.8368834  87.4511288  27.7672495 129.9365971
  86.9620467  26.4772988 127.6356130  87.4908234  25.9665443 127.0226292
  87.2248687  26.1615518 128.5001663  77.4637560  24.4936858 135.3791463
  78.0490997  23.7480545 135.5119368  77.2662398  24.8040814 136.2628127
  80.3176215  27.5288105 130.3953906  79.6486590  28.0134233 129.9117946
  80.1789085  27.7757325 131.3097284  72.0555215  17.0642458 134.0995907
  72.0939314  16.5306048 134.8933025  71.5495507  16.5377663 133.4806884
  84.4581484  29.5631848 136.9936564  85.0099792  29.7263470 137.7585649
  84.7987677  30.1536286 136.3216589  89.3092358  24.3893106 142.8485219
  89.8532262  25.0023064 142.3540173  88.7279203  24.9472684 143.3652232
  75.6863792  15.7906560 127.1749838  75.9817233  14.8817238 127.1216892
  74.7851828  15.7694299 126.8530840  87.5949871  27.5113824 133.9800246
  87.4701010  26.7103564 133.4711192  88.2528962  28.0060017 133.4914216
  79.2158039  13.8662556 133.1577387  78.4944625  14.4798524 133.0184860
  80.0051295  14.4020321 133.0794033  89.6584779  25.3122844 135.6079796
  88.7115115  25.1928195 135.5358123  90.0067552  24.4245342 135.6906058
  77.4151634  13.4720658 127.2989163  77.0864340  12.5918036 127.1164269
  77.7691004  13.4168326 128.1865552  86.6631213  25.1075560 131.8084149
  86.5156175  24.1792268 131.9891719  87.4884706  25.1295651 131.3241224
  80.5293457  13.7593627 127.6664641  80.8689529  14.2879549 126.9443249
  80.9765577  14.0974033 128.4423207  90.2665334  25.9304119 132.8949021
  91.1911882  25.7246980 132.7573473  90.0980638  25.6820520 133.8038363
  83.2236898  12.1430678 137.1167709  82.8833718  11.3438491 137.5188389
  82.5175904  12.4432389 136.5444542  83.8753370   9.2279990 135.5695032
  84.6979439   8.7540469 135.4473922  84.1191433  10.0070474 136.0693718
  82.5161604  12.2568249 125.8657934  83.2369967  12.6349502 125.3621650
  81.8926908  12.9757126 125.9692912  86.6592727  12.9613398 126.8016266
  86.8756341  13.8438036 126.5005094  86.1786794  12.5699611 126.0721908
  81.3991948  15.9199111 133.3787011  81.2536529  16.2339414 134.2711292
  80.9217152  16.5384011 132.8257909  83.2588331  12.9101659 133.4267900
  83.2449900  12.0142752 133.0900198  83.9760759  12.9172323 134.0606186
  85.1114462  13.3438999 135.4721028  84.8532240  14.2656070 135.4705358
  84.5799502  12.9469434 136.1621492  90.0560651  26.4489786 128.2511113
  90.2297528  25.8836209 127.4984965  90.5489542  27.2490681 128.0690603
  75.8737611  18.4604456 136.3174672  75.3291079  19.2364263 136.4494946
  76.7516960  18.8075260 136.1593793  82.6625227  11.7916039 128.6955470
  82.7841138  10.8632686 128.8946358  82.3727270  11.8054725 127.7833786
  85.5316418   9.4770950 131.8322190  85.5538114   9.5410283 130.8774170
  85.9484477   8.6375458 132.0262696  95.9100042  19.2126209 129.8701413
  96.3531188  18.4633535 129.4720536  95.0326552  19.2036346 129.4875145
  91.0435823  25.7656551 125.3508011  91.7386728  26.3863244 125.5695326
  91.3858973  24.9151902 125.6260389  92.9427246  23.2156256 126.8795342
  93.4678570  23.5543529 126.1544662  92.8549599  22.2803272 126.6958477
  84.6047295  27.1290330 139.0085219  84.9134421  26.8839477 139.8807918
  85.4022777  27.3336968 138.5204089  84.6267907  29.2828240 131.2390595
  84.1872897  28.7904618 131.9323452  85.3776024  28.7401207 130.9982670
  77.1060246  25.4739780 131.2415223  77.9318266  25.1743552 130.8613867
  76.7554298  24.7047403 131.6905012  82.0741779  24.8266249 133.3112897
  81.4521789  24.1636954 133.0115125  82.7446646  24.8527381 132.6286545
  75.3068851  23.3926107 132.2004157  74.4700759  22.9648281 132.0188158
  75.2792497  23.5858550 133.1374948  92.6321152  23.8489160 142.1846540
  91.8416696  23.8313299 141.6451039  92.3954507  24.3877454 142.9395576
  92.7519027  20.6981626 139.4979268  92.8017032  20.5331634 140.4394791
  92.6432951  19.8308885 139.1077149  81.6355286  23.3770172 126.7871357
  81.7843406  24.0605636 126.1338030  82.4421730  23.3575262 127.3020813
  90.0422790  16.6812554 140.8138575  90.9432653  16.5419019 140.5222573
  90.1170764  16.8467009 141.7536753  84.3765595  14.0579409 139.6591761
  83.5068905  14.3512975 139.3874350  84.6125076  14.6419854 140.3799025
  94.2537224  23.1178568 139.7421290  93.9622033  23.4808548 140.5784751
  93.6409356  22.4045576 139.5634622  95.4532907  20.6831448 132.2623860
  96.2879798  21.1221252 132.4261421  95.5892035  20.2070101 131.4432106
  92.5024413  18.2411183 138.2101348  92.9778534  18.4338829 137.4020199
  91.5789978  18.2970368 137.9644732  79.3907919  19.4035350 127.7932426
  79.1453961  18.4997680 127.9912636  79.5603834  19.4052500 126.8511904
  87.0804629  10.2759026 137.1757182  87.5986573  11.0120053 136.8503670
  86.7259762  10.5823019 138.0103941  78.6603567  15.1363707 125.2918588
  77.9672812  15.2108062 124.6358624  78.4155319  14.3724051 125.8140105
  87.3317223   6.6959309 132.6958078  87.6118977   6.0282498 133.3218505
  88.1167830   6.8888404 132.1832742  85.1350692  25.8718303 124.2583105
  84.5624659  26.4908490 123.8053577  85.7083485  26.4217664 124.7923027
  91.2026082  15.1176943 136.4429654  92.1543504  15.2175040 136.4641878
  91.0329532  14.3255211 136.9527738  89.2240461  12.2032526 136.6289054
  88.6290393  12.4837539 135.9335543  88.9390158  12.6926427 137.4005796
  88.3547951  26.1555453 125.3891687  89.2878625  26.0901014 125.5924563
  88.2671164  26.9911719 124.9306220  90.9835968  25.4721323 122.3495635
  90.9049600  25.1381187 123.2431393  91.8045635  25.9643091 122.3487107
  93.6814159  18.3383062 135.5571953  93.6490479  17.3999063 135.7431637
  94.2914783  18.4167099 134.8237778  85.5197490  17.2079115 121.5999157
  86.4656595  17.0785323 121.6687575  85.1411735  16.4693777 122.0768585
  93.8308648  15.1294106 135.6030236  93.3147696  14.3452562 135.4160165
  94.7148596  14.8012822 135.7676756  91.4919375   8.8735121 131.5626049
  91.2944196   8.5650209 132.4469381  92.1019080   9.5996760 131.6923979
  99.4990709  19.3999069 134.6977990 100.2294098  19.1384357 135.2585693
  98.8897655  18.6627791 134.7380058  97.5806006  17.5406932 135.2952441
  96.8539170  17.4062897 134.6868933  97.1653293  17.8483760 136.1009159
  85.4036183  21.2596861 143.0599814  86.3239192  21.4375460 143.2539861
  85.3685766  20.3152907 142.9079514  83.7040407  15.1329092 121.5354042
  82.7971863  14.8362204 121.6116756  83.9816388  14.8358910 120.6688329
  74.6218348  16.4535455 131.9853089  74.3021132  15.6000763 131.6927463
  74.0751776  16.6684033 132.7411056  78.3998255  19.1697896 135.7022595
  78.6184265  20.1015004 135.7210629  78.8124029  18.8105870 136.4877399
  85.3202473   9.6765981 127.6898284  84.5103201   9.3313066 128.0653530
  86.0086890   9.3673525 128.2785895  87.2493021   8.7544028 129.3122580
  87.8024060   9.1739482 129.9712604  87.4863108   7.8279776 129.3545536
  82.4739192  11.9916027 121.6766022  83.3358356  12.3170925 121.9361839
  82.6589536  11.2047523 121.1639087  74.4906608  20.0738367 133.9546210
  73.7970079  19.6592319 133.4416165  75.2379599  20.1158903 133.3579629
  90.6271828  10.8644553 128.8201245  90.0470497  11.5229357 128.4379297
  90.3607761  10.0421898 128.4088662  89.0775395  10.2649611 131.0222565
  89.5775173  10.3766146 130.2136884  89.7211003   9.9610664 131.6623373
  76.4043350  20.0056620 131.8312225  76.3814038  20.1044308 130.8794108
  76.7143987  20.8521771 132.1529391  79.0630728  22.0632775 135.9458840
  80.0173982  22.0316718 135.8788771  78.8643252  21.6023399 136.7609066
  79.6530110  20.6333891 138.5129637  80.4722999  21.1277970 138.5364475
  79.9266918  19.7165860 138.4847205  89.4096706  13.0244644 127.8757593
  88.5222561  13.3094294 127.6577788  89.8250695  12.8638407 127.0284870
  92.7611243  13.0491165 131.5911932  93.5371633  13.5387617 131.8636549
  92.0359377  13.4749219 132.0483802  95.1983801  13.7618784 132.6485873
  95.7928292  13.5214520 131.9379181  95.2710385  13.0425914 133.2759409
  77.4180957  27.6052395 132.9629038  77.2835425  26.8452796 132.3967036
  77.0013019  28.3293295 132.4957827  88.5539920  22.7889318 121.9705613
  89.2575770  22.9939321 122.5863269  87.8302569  23.3566080 122.2354696
  89.3837730  18.5399180 128.0907883  89.3272932  18.9967731 127.2515516
  89.9366073  17.7789864 127.9130726  93.1942536  14.3288912 128.9158003
  92.9379470  13.9285547 129.7466210  92.5695404  15.0432705 128.7908142
  97.5054874  17.0684985 131.4229294  96.9454432  17.1378174 132.1960856
  96.8998377  16.8925969 130.7028790  80.5750083  28.5021712 133.1747480
  80.4582467  29.4467144 133.0726171  79.7542529  28.1995273 133.5633279
  90.4626617  23.2271848 124.0204073  91.2972221  22.7953046 123.8381548
  90.3010960  23.0553861 124.9480967  90.1172509  19.7303961 125.3860412
  90.0621313  19.5648232 124.4448856  89.4918565  20.4379994 125.5422602
  87.4318417  22.0352873 144.7113975  88.3009576  22.2093525 144.3500610
  86.9525168  22.8547290 144.5889704  83.4268635   9.2312070 124.9645731
  83.4147305  10.1753910 125.1214002  84.3192057   9.0482215 124.6705192
  81.6004597  29.1549974 136.3903409  82.5031844  29.1873584 136.7069904
  81.3741967  28.2250425 136.4049744  83.3558199  27.9080960 133.0513487
  82.4053830  27.9082822 132.9377860  83.6590685  27.1613695 132.5349522
  87.2420754   5.8254847 129.2191667  86.4753150   5.2713333 129.3648350
  87.6531459   5.8976715 130.0805819  99.0910892  33.7441499 134.1159250
  99.7289302  33.6248246 133.4122590  98.9731735  34.6922343 134.1747202
  95.9000599  33.6968927 134.0520774  95.5619110  33.5809992 133.1641309
  96.7690367  33.2960092 134.0321781  91.7587414  35.5504403 130.0417665
  91.1952279  35.4594340 129.2733953  91.6439809  34.7304308 130.5220158
  96.3820382  34.8503779 140.0106980  96.3709022  34.4556577 139.1387484
  96.5441021  34.1169851 140.6040751  89.3051846  37.0455595 132.8801886
  90.0973138  36.7046419 132.4648185  89.5448496  37.1550570 133.8004039
  97.3386973  39.2175371 125.3532130  96.6874953  39.8029451 124.9666144
  98.1331336  39.7481566 125.4127168  91.2642600  36.3064508 125.7519265
  92.0373476  35.7593495 125.6132140  91.6167999  37.1708757 125.9633726
  93.1027643  37.6340890 138.9586164  92.8117509  38.5386521 138.8432830
  93.7384627  37.6757418 139.6730233  94.0283850  35.0117739 135.5487524
  94.6247422  34.7873761 134.8344487  94.0858821  34.2702484 136.1512971
  93.6008878  32.4657174 123.3837715  93.8534399  31.9438695 122.6221178
  92.6633437  32.3023320 123.4864398  98.6452161  31.4692953 131.1912458
  99.4315250  31.0512376 130.8402875  98.9090865  32.3739045 131.3594106
  98.8162238  36.9065803 125.8901115  98.1808071  36.9800429 126.6022019
  98.4859645  37.4959402 125.2120194 104.0460588  31.4068186 132.0945436
 104.7785760  30.8367403 132.3283266 103.2899944  31.0189786 132.5351942
  93.3205167  34.3685280 125.5862089  93.2041425  33.6930184 126.2543174
  93.4307427  33.8817654 124.7694243  95.6636708  33.8295427 129.2908779
  95.2994915  33.3026048 130.0021700  96.5203824  33.4393896 129.1175264
 101.5686008  25.1189760 136.5540045 101.2369333  25.9885171 136.3301260
 100.9731622  24.8026044 137.2334075  95.3042195  28.8585327 124.2870127
  95.4716597  29.7265563 124.6540598  95.1139364  29.0212609 123.3631416
  98.0617528  37.3202306 135.9535958  97.7618251  38.2227345 135.8451765
  97.7168587  37.0534489 136.8057110  91.5130009  33.7716103 131.9872662
  90.5880506  33.6392317 132.1950354  91.7614423  34.5510322 132.4842604
 101.4614672  29.8384846 133.6333395 100.5531549  29.7700254 133.3392156
 101.4102267  30.3156791 134.4615220  95.2831416  31.3142984 125.2716794
  95.1631041  31.7600035 126.1102274  94.5884004  31.6628302 124.7130332
  88.8738820  33.4149376 132.8216451  89.0031202  33.6683855 133.7355863
  88.1936272  34.0077084 132.5021106  93.0438308  44.0846626 128.9206925
  92.9662337  45.0354451 128.9995406  92.4399951  43.7392499 129.5781852
  95.5355537  31.2574492 141.5768292  94.7588872  31.8168412 141.5671157
  96.1746101  31.7431275 142.0983162 103.3276318  28.0401284 135.4111269
 102.6850698  28.3333818 134.7651063 102.8231247  27.9254205 136.2164466
 100.9816482  31.7864458 126.0997128 101.8934338  32.0191844 125.9244826
 100.4726129  32.3701502 125.5372207  93.7901910  34.0659945 141.1386259
  94.5316594  34.6044989 140.8621083  93.0838895  34.6926234 141.2957811
  99.2657249  36.2089085 139.7358421  99.6740605  35.7671496 138.9913053
  98.5434511  35.6341713 139.9892614  95.6188319  31.1461692 137.1091978
  96.4649515  31.5701106 137.2526627  95.5586957  30.4895317 137.8030541
  99.5886064  36.7690276 133.4910710  98.9594926  36.9335990 132.7886777
  99.2011726  37.1831886 134.2621674 103.4675296  37.7044714 130.8455073
 102.7826334  38.0843615 130.2952107 103.5519145  38.3140041 131.5787021
  98.7687765  28.8066061 138.7673151  98.5248697  29.5608121 138.2307427
  99.0447695  29.1851408 139.6020398 100.7226228  35.3504673 137.4450417
 100.9343123  35.9936433 136.7684798 100.6755976  34.5166990 136.9772347
  98.3252457  27.9622494 134.3486989  97.4636936  28.2603747 134.6403727
  98.3514891  28.1792892 133.4168022  95.1414026  36.5064684 130.7560795
  95.6052371  36.7852387 129.9665417  94.8770824  35.6048129 130.5733885
  92.0338107  36.0536166 133.6940558  92.6039464  36.4823434 133.0558042
  92.6246219  35.7718750 134.3924744  94.0782912  32.6287837 127.5650360
  94.7806955  33.0808880 128.0324286  93.7463540  31.9871655 128.1930253
  92.5263274  31.2199593 141.9401569  91.8961934  31.9015874 142.1736966
  92.4199361  31.1082675 140.9954707  87.8208246  30.8871389 132.8667493
  87.0307300  31.1428918 132.3907604  88.3119493  31.7019727 132.9719534
 101.8372055  38.2276628 135.6172774 102.6589499  37.8256816 135.3355456
 101.8334458  38.1244863 136.5688890  89.7722991  31.2515968 129.8250970
  88.9754155  31.3634663 130.3434466  89.5448584  31.5902621 128.9591861
  95.6028659  37.7760672 137.7733485  95.6673091  38.2381079 138.6091657
  94.8939583  37.1458037 137.9015795  86.1045949  31.1401880 135.2982484
  86.3553987  32.0248890 135.5640060  86.6405497  30.9606481 134.5257576
 109.9278049  34.5715377 131.9657746 109.1741757  34.0022775 131.8101750
 110.0625590  34.5378041 132.9128380  95.3176677  39.4428779 127.6412465
  95.1822351  40.2880315 128.0697313  95.8586489  39.6448057 126.8778399
  91.8044016  25.5220359 144.3026820  91.4110962  24.9686558 144.9774464
  92.6210157  25.8330937 144.6933338  88.7706074  36.9604217 128.2140390
  89.2830595  37.7547467 128.3645955  89.4228787  36.2630508 128.1473992
  90.5800959  40.0769973 130.2963143  90.7567587  40.9987938 130.1084127
  91.3757792  39.7628393 130.7257523  94.7211977  26.9378238 141.8947077
  95.4621691  27.5385391 141.8151539  94.9529900  26.1955876 141.3365119
  89.8653315  32.1234605 140.1725307  89.7506830  31.2219863 140.4732405
  89.0097833  32.3698302 139.8210123  96.9445153  40.0652346 141.7712807
  96.5009007  39.2788724 141.4533712  97.6062367  40.2531496 141.1056698
  91.7032274  41.5948147 136.2973486  92.2539699  41.4665211 135.5250480
  90.8643750  41.8943036 135.9468378  99.0426391  40.3455146 139.7994208
  99.0244866  41.1664027 139.3074478  99.9646311  40.2209221 140.0244350
  95.4999445  37.8599275 140.6417717  96.0327782  37.0987563 140.4117025
  94.9713526  37.5672927 141.3841871  98.6669140  22.9659341 136.1711359
  98.3233410  23.8560983 136.0950469  99.0348103  22.7760999 135.3080944
  86.7354991  35.2892871 128.9899961  87.5730213  35.6989880 128.7733668
  86.9133258  34.3492314 128.9600155  98.6319423  32.9567952 124.6783794
  98.1166046  33.7272557 124.9172181  98.3596731  32.2833088 125.3016855
  96.2166534  27.8017653 129.7369032  95.3608130  27.4124503 129.5574671
  96.6293486  27.8809614 128.8768818  97.7465681  25.3363996 134.1360592
  97.2430476  25.2994131 133.3228397  98.0396287  26.2456739 134.1957248
  93.9908566  25.4202726 133.1426773  94.8561563  25.2245535 132.7832663
  94.0586075  25.1913078 134.0696130 103.6053697  35.7100307 126.6136967
 102.8283140  35.3711466 126.1692129 104.2845178  35.7152930 125.9391932
  98.4205726  30.8295044 126.5043575  98.1155862  31.1441193 127.3553718
  99.3736168  30.9076464 126.5470908  96.8652158  36.9885268 128.1536529
  96.3373519  36.2538027 127.8409766  96.3639661  37.7659944 127.9076497
 101.8445004  35.1834288 133.2703575 101.1868678  35.8733549 133.3583704
 102.6485403  35.5730720 133.6137561  91.5970886  27.6504934 130.5143140
  92.1714637  27.4280115 129.7816333  92.1841868  27.7193628 131.2671742
 100.6550463  33.5378661 131.3207517 101.1682344  34.1708653 131.8229227
 101.3051687  32.9379856 130.9550877  91.9240473  29.6809395 124.5339026
  91.0877785  30.0184081 124.8548300  91.7845242  29.5458375 123.5966163
  93.8993553  24.5246183 129.2418210  93.2457966  24.2095200 128.6174824
  93.8574027  23.9021923 129.9678033  95.0104758  34.8065478 121.1571502
  94.1031820  34.5754731 121.3562651  95.5075790  34.0103097 121.3445483
  97.9172837  43.5162985 124.0768188  97.2434536  43.8194682 124.6853146
  98.3038659  44.3192065 123.7273645  97.1331294  31.0128116 133.5665857
  96.2153855  31.2343063 133.4087545  97.5491437  31.0874427 132.7077565
  97.9166341  32.4119532 128.6968538  98.6638160  32.9240929 128.3875660
  98.1857931  32.0903585 129.5572931  96.1892992  34.9078073 125.6795492
  95.2804211  34.6237106 125.7767962  96.2188075  35.3277151 124.8198799
 101.4212259  38.5184662 129.4486659 100.9674586  37.6775572 129.5051850
 100.7906226  39.1546061 129.7861440 100.3645179  29.4476648 130.6787327
  99.6267935  28.9354034 131.0097569 100.6171952  29.0077030 129.8670604
  99.8645198  40.3561159 130.3836478 100.1568173  40.9166216 129.6648843
 100.3743819  40.6489720 131.1389637 100.4656806  22.2252900 131.2729096
 100.7715683  21.3650264 130.9855011 101.1909411  22.8170520 131.0728090
  86.7581162  32.6283587 129.6610694  86.5605562  32.0352948 128.9361761
  86.2027826  32.3235797 130.3786633  94.7377886  32.5206693 131.7805287
  94.7926495  31.5680530 131.7047764  93.9269088  32.6766132 132.2646586
  95.8869079  36.4486816 123.0183570  95.4488509  35.7322675 122.5589208
  96.6279520  36.6762931 122.4568662  92.6770245  31.1383753 129.5395666
  91.8638111  31.4377924 129.9460858  93.1729240  30.7439442 130.2570148
  94.8278823  41.1341510 131.4729931  94.7855002  41.3602356 130.5438463
  95.7441522  40.9004885 131.6215732  98.2744457  31.6025578 138.3710560
  98.6293845  31.8297051 139.2305026  98.9216588  31.9343954 137.7487815
 104.0042194  34.7244013 129.0759889 103.8660093  34.9145609 128.1481078
 103.6478413  35.4863396 129.5327940  92.1684320  28.7102109 135.1556901
  92.8083700  28.5690868 134.4579864  91.3361851  28.4236622 134.7795503
 104.0311574  36.7920540 134.0871161 104.4648080  36.6995830 134.9354215
 104.7443154  36.7678041 133.4491177  92.9444624  38.0104539 131.2691894
  93.7385223  37.5154859 131.0674468  92.2336317  37.4822402 130.9059599
  97.7639469  40.3922635 135.6204261  97.8176491  40.9613571 136.3881977
  96.8954250  40.5624520 135.2558298  89.2527388  32.1547621 127.3451646
  88.3224976  32.0932076 127.5621608  89.3484860  31.6323573 126.5488287
  89.1712937  28.6802434 129.9329888  89.4319754  29.5947767 129.8239048
  89.9930109  28.2126876 130.0826501  90.6437862  30.0940191 137.1028712
  91.3160915  29.8857553 136.4541361  89.8167649  29.8962277 136.6633945
 104.8927123  36.8344241 136.6204046 105.0863013  37.7390052 136.8663321
 104.7927741  36.3751660 137.4542631  96.5463434  26.7202132 139.1194373
  95.8991349  27.4192081 139.0258850  97.3164449  27.1538276 139.4870621
  99.9542232  36.9850984 142.1944927  99.8027738  36.7561535 141.2775010
  99.9446911  37.9421585 142.2076272  96.7227568  34.5582897 137.1791193
  97.6519628  34.7094056 137.0060160  96.3018598  34.6466917 136.3239840
  95.5215900  38.5833561 134.9489731  95.3826986  38.2152345 135.8215669
  94.7330496  39.0981200 134.7773688  96.1164052  43.6842657 126.2915267
  96.2915808  43.2130701 127.1060890  95.4296840  44.3108424 126.5196528
  97.0721115  37.9615164 132.3378568  96.7370948  37.9215934 133.2336218
  96.5725061  37.2959880 131.8648979  91.0465359  33.3682794 137.8631150
  90.9085157  32.6363033 138.4642689  91.9570283  33.2791694 137.5815337
 100.0080307  35.3071198 122.6115628  99.3909478  34.5818026 122.5148681
  99.5396795  36.0680558 122.2682702  93.6747660  33.0802753 137.3514829
  94.3847278  32.4395945 137.3101448  93.6316968  33.3315648 138.2741010
 101.6634439  40.0170106 140.2721408 101.6046985  39.3329326 139.6051991
 102.0653957  40.7589096 139.8202034  92.3876594  30.0667971 139.1710469
  91.8513951  29.6158709 139.8232065  91.7993302  30.2013880 138.4280933
  90.6825137  46.8332020 133.0655127  90.9221736  47.4650544 133.7434146
  89.8394334  46.4820060 133.3520487  91.7978853  29.5256622 121.7336932
  90.9208319  29.4045423 121.3699179  92.2736606  28.7342701 121.4815821
 101.6651846  37.9809690 138.5035388 100.7778625  37.6435612 138.6261787
 102.2350397  37.2492722 138.7404153  83.3180993  34.3133782 131.8278439
  84.0052033  33.9995512 131.2399455  83.1629122  35.2175147 131.5545691
  88.1215715  29.2023979 136.2563463  88.0373904  28.5949648 135.5213873
  87.2998422  29.6932997 136.2572960  95.1952999  42.6411143 135.4696631
  95.1223171  43.4466114 135.9815936  94.7530392  42.8403108 134.6444653
  94.9842779  41.8782913 128.9799453  94.2010301  42.4204593 129.0737677
  95.6835524  42.3956892 129.3793694  98.2939429  27.6877542 131.6233658
  98.7908129  26.9347504 131.3034728  97.5226411  27.7241859 131.0576868
 106.1469186  33.3917908 133.2651950 106.1359063  34.2742623 132.8945883
 105.2786566  33.0389458 133.0706487  97.6551683  42.5397977 137.6254790
  98.3679655  43.1745441 137.5530691  97.1641711  42.6361843 136.8094792
  99.3769210  36.4449229 129.1972082  98.4425488  36.5650692 129.0276786
  99.5545878  35.5421696 128.9332091  94.8774398  29.8294925 131.3505343
  94.5072185  29.2765966 132.0386248  95.3733490  29.2253059 130.7980343
 102.7641761  32.2866549 129.7322116 103.2302213  33.1194540 129.6582418
 103.2149262  31.8211530 130.4367374  92.7063596  40.2892420 138.4460361
  93.4073056  40.9228903 138.5989755  92.2358711  40.6307152 137.6856000
 100.8317992  38.6310370 126.7308268 101.1077836  38.5166965 127.6402142
  99.9622491  38.2327855 126.6920441 100.7358424  24.6547136 133.7713017
  99.8221504  24.8851362 133.9395224 101.1651525  24.7385580 134.6227049
 100.5064882  32.8437028 136.2712911  99.8536333  33.0912935 135.6165364
 100.8845262  32.0301166 135.9375388  97.4672056  42.8796721 130.3741081
  97.6494451  42.0618377 130.8368834  98.2905042  43.0964413 129.9365971
  97.8014222  41.8064906 127.6356130  98.3301988  41.2957360 127.0226292
  98.0642441  41.4907436 128.5001663  96.5552455  33.5856839 142.7578948
  95.8793092  33.4850968 143.4281323  97.3780089  33.4296052 143.2214945
  88.3031314  39.8228775 135.3791463  88.8884751  39.0772463 135.5119368
  88.1056153  40.1332732 136.2628127  91.1569970  42.8580023 130.3953906
  90.4880345  43.3426150 129.9117946  91.0182839  43.1049243 131.3097284
  82.8948969  32.3934375 134.0995907  82.9333069  31.8597966 134.8933025
  82.3889262  31.8669581 133.4806884  95.2975238  44.8923766 136.9936564
  95.8493546  45.0555388 137.7585649  95.6381432  45.4828204 136.3216589
  90.2739731  27.2398916 137.5958449  90.3381058  28.1013747 137.1835847
  90.2106852  26.6272918 136.8630807  89.7492004  29.3122048 141.2431483
  90.3764043  28.9299126 141.8569007  88.8919923  29.0936250 141.6087176
 100.1486113  39.7185024 142.8485219 100.6926016  40.3314982 142.3540173
  99.5672957  40.2764602 143.3652232  86.5257547  31.1198478 127.1749838
  86.8210988  30.2109156 127.1216892  85.6245582  31.0986217 126.8530840
  98.4343625  42.8405742 133.9800246  98.3094765  42.0395481 133.4711192
  99.0922717  43.3351935 133.4914216  90.0551794  29.1954474 133.1577387
  89.3338379  29.8090442 133.0184860  90.8445049  29.7312239 133.0794033
 100.4978534  40.6414762 135.6079796  99.5508869  40.5220113 135.5358123
 100.8461307  39.7537260 135.6906058  92.8578107  26.5308901 139.4318038
  93.3812509  26.7771197 140.1944348  92.6390440  27.3628935 139.0121176
  88.2545388  28.8012575 127.2989163  87.9258094  27.9209954 127.1164269
  88.6084759  28.7460244 128.1865552  97.5024967  40.4367478 131.8084149
  97.3549930  39.5084185 131.9891719  98.3278461  40.4587569 131.3241224
  91.3687211  29.0885545 127.6664641  91.7083284  29.6171466 126.9443249
  91.8159332  29.4265951 128.4423207 101.1059089  41.2596037 132.8949021
 102.0305636  41.0538898 132.7573473 100.9374392  41.0112438 133.8038363
  94.0630652  27.4722596 137.1167709  93.7227473  26.6730409 137.5188389
  93.3569659  27.7724307 136.5444542  94.7147124  24.5571908 135.5695032
  95.5373193  24.0832386 135.4473922  94.9585188  25.3362392 136.0693718
  93.3555359  27.5860167 125.8657934  94.0763721  27.9641419 125.3621650
  92.7320663  28.3049043 125.9692912  97.4986481  28.2905316 126.8016266
  97.7150096  29.1729953 126.5005094  97.0180549  27.8991529 126.0721908
  92.2385703  31.2491029 133.3787011  92.0930284  31.5631332 134.2711292
  91.7610906  31.8675929 132.8257909  94.0982086  28.2393577 133.4267900
  94.0843654  27.3434670 133.0900198  94.8154514  28.2464241 134.0606186
  95.9508216  28.6730917 135.4721028  95.6925994  29.5947988 135.4705358
  95.4193257  28.2761352 136.1621492 100.8954405  41.7781704 128.2511113
 101.0691283  41.2128127 127.4984965 101.3883296  42.5782599 128.0690603
  86.7131365  33.7896373 136.3174672  86.1684833  34.5656181 136.4494946
  87.5910715  34.1367178 136.1593793  93.5018982  27.1207957 128.6955470
  93.6234893  26.1924603 128.8946358  93.2121024  27.1346643 127.7833786
  96.3710172  24.8062867 131.8322190  96.3931869  24.8702201 130.8774170
  96.7878231  23.9667376 132.0262696 106.7493796  34.5418127 129.8701413
 107.1924942  33.7925452 129.4720536 105.8720307  34.5328263 129.4875145
 101.8829578  41.0948469 125.3508011 102.5780482  41.7155161 125.5695326
 102.2252728  40.2443820 125.6260389  87.4997387  32.9166269 139.2104829
  86.7579123  33.0648905 139.7969459  87.1790131  33.1774535 138.3471578
 103.7821001  38.5448174 126.8795342 104.3072325  38.8835447 126.1544662
 103.6943353  37.6095189 126.6958477  95.4441050  42.4582248 139.0085219
  95.7528176  42.2131394 139.8807918  96.2416532  42.6628886 138.5204089
  95.4661662  44.6120157 131.2390595  95.0266652  44.1196536 131.9323452
  96.2169779  44.0693125 130.9982670  87.9454001  40.8031698 131.2415223
  88.7712020  40.5035470 130.8613867  87.5948053  40.0339321 131.6905012
  92.9135534  40.1558166 133.3112897  92.2915543  39.4928871 133.0115125
  93.5840401  40.1819298 132.6286545  86.1462606  38.7218025 132.2004157
  85.3094514  38.2940199 132.0188158  86.1186251  38.9150468 133.1374948
  92.9860061  28.6339954 142.9045403  93.0348217  29.5102077 142.5223172
  93.5282575  28.0917347 142.3317046 103.4714907  39.1781078 142.1846540
 102.6810451  39.1605217 141.6451039 103.2348261  39.7169371 142.9395576
 103.5912782  36.0273544 139.4979268 103.6410787  35.8623551 140.4394791
 103.4826705  35.1600803 139.1077149  92.4749041  38.7062090 126.7871357
  92.6237161  39.3897554 126.1338030  93.2815484  38.6867180 127.3020813
 100.8816544  32.0104472 140.8138575 101.7826407  31.8710937 140.5222573
 100.9564519  32.1758927 141.7536753  95.2159350  29.3871327 139.6591761
  94.3462659  29.6804893 139.3874350  95.4518830  29.9711772 140.3799025
 105.0930979  38.4470486 139.7421290 104.8015787  38.8100466 140.5784751
 104.4803110  37.7337494 139.5634622 106.2926661  36.0123365 132.2623860
 107.1273552  36.4513169 132.4261421 106.4285790  35.5362019 131.4432106
 103.3418167  33.5703100 138.2101348 103.8172289  33.7630747 137.4020199
 102.4183732  33.6262286 137.9644732  90.2301674  34.7327267 127.7932426
  89.9847716  33.8289597 127.9912636  90.3997588  34.7344418 126.8511904
  97.9198383  25.6050944 137.1757182  98.4380327  26.3411971 136.8503670
  97.5653516  25.9114937 138.0103941  89.4997321  30.4655625 125.2918588
  88.8066566  30.5399980 124.6358624  89.2549073  29.7015969 125.8140105
  98.1710978  22.0251226 132.6958078  98.4512731  21.3574415 133.3218505
  98.9561585  22.2180322 132.1832742  95.9744446  41.2010220 124.2583105
  95.4018413  41.8200407 123.8053577  96.5477240  41.7509582 124.7923027
 102.0419836  30.4468860 136.4429654 102.9937259  30.5466958 136.4641878
 101.8723286  29.6547129 136.9527738 100.0634215  27.5324443 136.6289054
  99.4684148  27.8129456 135.9335543  99.7783912  28.0218344 137.4005796
  99.1941706  41.4847370 125.3891687 100.1272379  41.4192932 125.5924563
  99.1064919  42.3203637 124.9306220 101.8229723  40.8013241 122.3495635
 101.7443354  40.4673104 123.2431393 102.6439389  41.2935009 122.3487107
 104.5207914  33.6674980 135.5571953 104.4884234  32.7290981 135.7431637
 105.1308537  33.7459017 134.8237778  96.3591245  32.5371033 121.5999157
  97.3050349  32.4077241 121.6687575  95.9805490  31.7985695 122.0768585
 104.6702402  30.4586023 135.6030236 104.1541451  29.6744480 135.4160165
 105.5542351  30.1304740 135.7676756 102.3313129  24.2027039 131.5626049
 102.1337950  23.8942127 132.4469381 102.9412835  24.9288678 131.6923979
 110.3384464  34.7290987 134.6977990 111.0687852  34.4676275 135.2585693
 109.7291409  33.9919709 134.7380058 108.4199761  32.8698849 135.2952441
 107.6932924  32.7354814 134.6868933 108.0047048  33.1775678 136.1009159
  96.2429937  36.5888779 143.0599814  97.1632947  36.7667378 143.2539861
  96.2079520  35.6444824 142.9079514  94.5434162  30.4621009 121.5354042
  93.6365617  30.1654122 121.6116756  94.8210143  30.1650827 120.6688329
  85.4612102  31.7827373 131.9853089  85.1414887  30.9292681 131.6927463
  84.9145530  31.9975951 132.7411056  89.2392010  34.4989814 135.7022595
  89.4578020  35.4306922 135.7210629  89.6517784  34.1397788 136.4877399
  96.1596228  25.0057899 127.6898284  95.3496956  24.6604984 128.0653530
  96.8480644  24.6965443 128.2785895  98.0886776  24.0835946 129.3122580
  98.6417814  24.5031399 129.9712604  98.3256862  23.1571694 129.3545536
  94.1119875  30.0723019 145.0925344  94.0116602  31.0217376 145.0237435
  93.8941417  29.7441258 144.2201414  93.3132946  27.3207945 121.6766022
  94.1752110  27.6462843 121.9361839  93.4983291  26.5339440 121.1639087
  85.3300362  35.4030284 133.9546210  84.6363834  34.9884237 133.4416165
  86.0773353  35.4450821 133.3579629 101.4665583  26.1936471 128.8201245
 100.8864252  26.8521275 128.4379297 101.2001516  25.3713816 128.4088662
  99.9169149  25.5941529 131.0222565 100.4168928  25.7058063 130.2136884
 100.5604757  25.2902582 131.6623373  93.9751145  33.5020158 143.9090406
  93.4918227  34.3020518 144.1154295  94.0612084  33.5128103 142.9557850
  87.2437105  35.3348538 131.8312225  87.2207793  35.4336225 130.8794108
  87.5537741  36.1813689 132.1529391  89.9024483  37.3924693 135.9458840
  90.8567736  37.3608635 135.8788771  89.7037006  36.9315317 136.7609066
  90.4923865  35.9625809 138.5129637  91.3116754  36.4569888 138.5364475
  90.7660672  35.0457777 138.4847205 100.2490461  28.3536561 127.8757593
  99.3616316  28.6386212 127.6577788 100.6644450  28.1930325 127.0284870
 103.6004997  28.3783082 131.5911932 104.3765387  28.8679535 131.8636549
 102.8753131  28.8041137 132.0483802 106.0377556  29.0910702 132.6485873
 106.6322046  28.8506438 131.9379181 106.1104139  28.3717832 133.2759409
  88.2574711  42.9344313 132.9629038  88.1229179  42.1744713 132.3967036
  87.8406774  43.6585212 132.4957827  99.3933674  38.1181236 121.9705613
 100.0969525  38.3231239 122.5863269  98.6696323  38.6857998 122.2354696
 100.2231485  33.8691097 128.0907883 100.1666686  34.3259649 127.2515516
 100.7759827  33.1081782 127.9130726 104.0336291  29.6580829 128.9158003
 103.7773225  29.2577465 129.7466210 103.4089159  30.3724623 128.7908142
 108.3448628  32.3976902 131.4229294 107.7848186  32.4670092 132.1960856
 107.7392132  32.2217887 130.7028790  91.4143837  43.8313630 133.1747480
  91.2976221  44.7759062 133.0726171  90.5936284  43.5287191 133.5633279
 101.3020372  38.5563765 124.0204073 102.1365976  38.1244964 123.8381548
 101.1404715  38.3845779 124.9480967 100.9566264  35.0595879 125.3860412
 100.9015068  34.8940150 124.4448856 100.3312319  35.7671911 125.5422602
  85.7458779  30.2963943 139.2121834  86.3917643  29.7862897 139.7009060
  85.5375930  31.0332625 139.7865260  98.2712171  37.3644790 144.7113975
  99.1403331  37.5385443 144.3500610  97.7918923  38.1839207 144.5889704
  94.2662389  24.5603988 124.9645731  94.2541059  25.5045827 125.1214002
  95.1585811  24.3774133 124.6705192  92.4398351  44.4841891 136.3903409
  93.3425598  44.5165502 136.7069904  92.2135721  43.5542342 136.4049744
  94.1951953  43.2372878 133.0513487  93.2447584  43.2374740 132.9377860
  94.4984440  42.4905613 132.5349522  98.0814509  21.1546764 129.2191667
  97.3146905  20.6005251 129.3648350  98.4925214  21.2268633 130.0805819
  90.0856270  27.4431560 143.3096849  90.9487732  27.0868365 143.5200173
  89.5121681  27.1045455 143.9972253 109.9304647  49.0733416 134.1159250
 110.5683057  48.9540164 133.4122590 109.8125490  50.0214260 134.1747202
 106.7394353  49.0260844 134.0520774 106.4012865  48.9101909 133.1641309
 107.6084121  48.6252010 134.0321781 102.5981169  50.8796321 130.0417665
 102.0346034  50.7886258 129.2733953 102.4833564  50.0596225 130.5220158
 107.2214136  50.1795696 140.0106980 107.2102777  49.7848494 139.1387484
 107.3834776  49.4461769 140.6040751 100.1445601  52.3747512 132.8801886
 100.9366893  52.0338337 132.4648185 100.3842251  52.4842488 133.8004039
 108.1780728  54.5467289 125.3532130 107.5268707  55.1321369 124.9666144
 108.9725090  55.0773484 125.4127168 102.1036355  51.6356426 125.7519265
 102.8767231  51.0885413 125.6132140 102.4561754  52.5000675 125.9633726
 103.9421397  52.9632808 138.9586164 103.6511263  53.8678439 138.8432830
 104.5778382  53.0049336 139.6730233 104.8677604  50.3409657 135.5487524
 105.4641176  50.1165679 134.8344487 104.9252576  49.5994402 136.1512971
 104.4402633  47.7949092 123.3837715 104.6928153  47.2730613 122.6221178
 103.5027192  47.6315237 123.4864398 109.4845915  46.7984870 131.1912458
 110.2709005  46.3804293 130.8402875 109.7484620  47.7030962 131.3594106
 109.6555993  52.2357721 125.8901115 109.0201826  52.3092347 126.6022019
 109.3253399  52.8251319 125.2120194 114.8854343  46.7360103 132.0945436
 115.6179514  46.1659320 132.3283266 114.1293698  46.3481704 132.5351942
 104.1598921  49.6977198 125.5862089 104.0435179  49.0222101 126.2543174
 104.2701181  49.2109572 124.7694243 106.5030462  49.1587345 129.2908779
 106.1388669  48.6317966 130.0021700 107.3597578  48.7685814 129.1175264
 112.4079763  40.4481678 136.5540045 112.0763088  41.3177089 136.3301260
 111.8125376  40.1317962 137.2334075 106.1435949  44.1877245 124.2870127
 106.3110352  45.0557481 124.6540598 105.9533118  44.3504526 123.3631416
 108.9011282  52.6494224 135.9535958 108.6012005  53.5519262 135.8451765
 108.5562342  52.3826407 136.8057110 102.3523764  49.1008020 131.9872662
 101.4274260  48.9684234 132.1950354 102.6008177  49.8802240 132.4842604
 112.3008426  45.1676764 133.6333395 111.3925304  45.0992172 133.3392156
 112.2496022  45.6448709 134.4615220 106.1225170  46.6434902 125.2716794
 106.0024795  47.0891953 126.1102274 105.4277758  46.9920220 124.7130332
  99.7132575  48.7441294 132.8216451  99.8424956  48.9975773 133.7355863
  99.0330026  49.3369002 132.5021106 103.8832062  59.4138544 128.9206925
 103.8056092  60.3646369 128.9995406 103.2793706  59.0684416 129.5781852
 106.3749292  46.5866409 141.5768292 105.5982626  47.1460329 141.5671157
 107.0139855  47.0723192 142.0983162 114.1670073  43.3693202 135.4111269
 113.5244453  43.6625735 134.7651063 113.6625001  43.2546122 136.2164466
 111.8210236  47.1156375 126.0997128 112.7328092  47.3483762 125.9244826
 111.3119883  47.6993420 125.5372207 104.6295664  49.3951863 141.1386259
 105.3710349  49.9336907 140.8621083 103.9232650  50.0218151 141.2957811
 110.1051004  51.5381003 139.7358421 110.5134360  51.0963414 138.9913053
 109.3828265  50.9633631 139.9892614 106.4582074  46.4753610 137.1091978
 107.3043269  46.8993023 137.2526627 106.3980712  45.8187234 137.8030541
 110.4279819  52.0982194 133.4910710 109.7988681  52.2627908 132.7886777
 110.0405481  52.5123803 134.2621674 114.3069050  53.0336632 130.8455073
 113.6220089  53.4135533 130.2952107 114.3912900  53.6431958 131.5787021
 109.6081519  44.1357978 138.7673151 109.3642451  44.8900039 138.2307427
 109.8841450  44.5143326 139.6020398 111.5619982  50.6796591 137.4450417
 111.7736877  51.3228351 136.7684798 111.5149730  49.8458907 136.9772347
 109.1646211  43.2914411 134.3486989 108.3030690  43.5895665 134.6403727
 109.1908646  43.5084810 133.4168022 105.9807780  51.8356602 130.7560795
 106.4446126  52.1144305 129.9665417 105.7164579  50.9340046 130.5733885
 102.8731861  51.3828083 133.6940558 103.4433219  51.8115352 133.0558042
 103.4639973  51.1010668 134.3924744 104.9176666  47.9579754 127.5650360
 105.6200710  48.4100798 128.0324286 104.5857295  47.3163573 128.1930253
 103.3657028  46.5491511 141.9401569 102.7355689  47.2307792 142.1736966
 103.2593116  46.4374592 140.9954707  98.6602000  46.2163307 132.8667493
  97.8701054  46.4720835 132.3907604  99.1513248  47.0311645 132.9719534
 112.6765810  53.5568546 135.6172774 113.4983254  53.1548733 135.3355456
 112.6728213  53.4536780 136.5688890 100.6116746  46.5807886 129.8250970
  99.8147909  46.6926580 130.3434466 100.3842338  46.9194538 128.9591861
 106.4422413  53.1052589 137.7733485 106.5066846  53.5672997 138.6091657
 105.7333337  52.4749954 137.9015795  96.9439703  46.4693797 135.2982484
  97.1947742  47.3540807 135.5640060  97.4799252  46.2898399 134.5257576
 120.7671803  49.9007295 131.9657746 120.0135511  49.3314693 131.8101750
 120.9019344  49.8669959 132.9128380 106.1570431  54.7720697 127.6412465
 106.0216106  55.6172233 128.0697313 106.6980244  54.9739974 126.8778399
 102.6437771  40.8512277 144.3026820 102.2504716  40.2978475 144.9774464
 103.4603911  41.1622855 144.6933338  99.6099828  52.2896135 128.2140390
 100.1224349  53.0839385 128.3645955 100.2622541  51.5922425 128.1473992
 101.4194713  55.4061891 130.2963143 101.5961342  56.3279856 130.1084127
 102.2151547  55.0920310 130.7257523 105.5605732  42.2670156 141.8947077
 106.3015445  42.8677309 141.8151539 105.7923655  41.5247794 141.3365119
 100.7047070  47.4526523 140.1725307 100.5900585  46.5511780 140.4732405
  99.8491587  47.6990220 139.8210123 107.7838907  55.3944263 141.7712807
 107.3402762  54.6080642 141.4533712 108.4456121  55.5823414 141.1056698
 102.5426029  56.9240065 136.2973486 103.0933454  56.7957128 135.5250480
 101.7037505  57.2234954 135.9468378 109.8820146  55.6747063 139.7994208
 109.8638621  56.4955944 139.3074478 110.8040066  55.5501138 140.0244350
 106.3393200  53.1891193 140.6417717 106.8721536  52.4279481 140.4117025
 105.8107281  52.8964845 141.3841871 109.5062895  38.2951259 136.1711359
 109.1627164  39.1852900 136.0950469 109.8741857  38.1052916 135.3080944
  97.5748745  50.6184789 128.9899961  98.4123967  51.0281798 128.7733668
  97.7527013  49.6784231 128.9600155 109.4713177  48.2859870 124.6783794
 108.9559801  49.0564474 124.9172181 109.1990486  47.6125006 125.3016855
 107.0560288  43.1309571 129.7369032 106.2001885  42.7416421 129.5574671
 107.4687240  43.2101531 128.8768818 108.5859435  40.6655914 134.1360592
 108.0824231  40.6286049 133.3228397 108.8790042  41.5748657 134.1957248
 104.8302321  40.7494644 133.1426773 105.6955318  40.5537452 132.7832663
 104.8979830  40.5204995 134.0696130 114.4447452  51.0392224 126.6136967
 113.6676894  50.7003384 126.1692129 115.1238932  51.0444848 125.9391932
 109.2599481  46.1586962 126.5043575 108.9549616  46.4733111 127.3553718
 110.2129923  46.2368382 126.5470908 107.7045912  52.3177185 128.1536529
 107.1767274  51.5829945 127.8409766 107.2033415  53.0951862 127.9076497
 112.6838758  50.5126206 133.2703575 112.0262433  51.2025467 133.3583704
 113.4879158  50.9022638 133.6137561 102.4364640  42.9796852 130.5143140
 103.0108392  42.7572033 129.7816333 103.0235622  43.0485546 131.2671742
 111.4944217  48.8670578 131.3207517 112.0076099  49.5000570 131.8229227
 112.1445441  48.2671774 130.9550877 102.7634227  45.0101313 124.5339026
 101.9271539  45.3475999 124.8548300 102.6238997  44.8750292 123.5966163
 104.7387308  39.8538100 129.2418210 104.0851720  39.5387118 128.6174824
 104.6967782  39.2313841 129.9678033 105.8498513  50.1357395 121.1571502
 104.9425574  49.9046649 121.3562651 106.3469545  49.3395015 121.3445483
 108.7566591  58.8454903 124.0768188 108.0828290  59.1486599 124.6853146
 109.1432413  59.6483983 123.7273645 107.9725048  46.3420034 133.5665857
 107.0547609  46.5634981 133.4087545 108.3885192  46.4166344 132.7077565
 108.7560096  47.7411450 128.6968538 109.5031915  48.2532847 128.3875660
 109.0251685  47.4195502 129.5572931 107.0286746  50.2369990 125.6795492
 106.1197965  49.9529023 125.7767962 107.0581830  50.6569069 124.8198799
 112.2606013  53.8476580 129.4486659 111.8068341  53.0067490 129.5051850
 111.6299980  54.4837978 129.7861440 111.2038933  44.7768566 130.6787327
 110.4661690  44.2645952 131.0097569 111.4565707  44.3368948 129.8670604
 110.7038953  55.6853077 130.3836478 110.9961927  56.2458134 129.6648843
 111.2137573  55.9781638 131.1389637 111.3050560  37.5544818 131.2729096
 111.6109437  36.6942181 130.9855011 112.0303165  38.1462438 131.0728090
  97.5974916  47.9575504 129.6610694  97.3999316  47.3644865 128.9361761
  97.0421580  47.6527715 130.3786633 105.5771640  47.8498611 131.7805287
 105.6320250  46.8972447 131.7047764 104.7662842  48.0058050 132.2646586
 106.7262834  51.7778734 123.0183570 106.2882264  51.0614593 122.5589208
 107.4673275  52.0054849 122.4568662 103.5164000  46.4675671 129.5395666
 102.7031866  46.7669841 129.9460858 104.0122994  46.0731359 130.2570148
 105.6672578  56.4633428 131.4729931 105.6248757  56.6894274 130.5438463
 106.5835277  56.2296802 131.6215732 109.1138212  46.9317495 138.3710560
 109.4687599  47.1588968 139.2305026 109.7610343  47.2635872 137.7487815
 114.8435949  50.0535931 129.0759889 114.7053847  50.2437527 128.1481078
 114.4872167  50.8155314 129.5327940 103.0078075  44.0394026 135.1556901
 103.6477454  43.8982785 134.4579864 102.1755605  43.7528540 134.7795503
 114.8705328  52.1212458 134.0871161 115.3041835  52.0287747 134.9354215
 115.5836909  52.0969959 133.4491177 103.7838379  53.3396457 131.2691894
 104.5778977  52.8446777 131.0674468 103.0730071  52.8114320 130.9059599
 108.6033223  55.7214552 135.6204261 108.6570245  56.2905489 136.3881977
 107.7348004  55.8916437 135.2558298 100.0921142  47.4839538 127.3451646
  99.1618730  47.4223994 127.5621608 100.1878614  46.9615491 126.5488287
 100.0106691  44.0094351 129.9329888 100.2713508  44.9239684 129.8239048
 100.8323863  43.5418794 130.0826501 101.4831616  45.4232108 137.1028712
 102.1554670  45.2149471 136.4541361 100.6561403  45.2254194 136.6633945
 115.7320878  52.1636159 136.6204046 115.9256768  53.0681969 136.8663321
 115.6321496  51.7043578 137.4542631 107.3857188  42.0494049 139.1194373
 106.7385104  42.7483999 139.0258850 108.1558204  42.4830193 139.4870621
 110.7935986  52.3142901 142.1944927 110.6421493  52.0853453 141.2775010
 110.7840666  53.2713503 142.2076272 107.5621323  49.8874814 137.1791193
 108.4913383  50.0385974 137.0060160 107.1412353  49.9758835 136.3239840
 106.3609655  53.9125479 134.9489731 106.2220740  53.5444263 135.8215669
 105.5724251  54.4273118 134.7773688 106.9557807  59.0134575 126.2915267
 107.1309562  58.5422618 127.1060890 106.2690595  59.6400341 126.5196528
 107.9114870  53.2907081 132.3378568 107.5764702  53.2507851 133.2336218
 107.4118815  52.6251797 131.8648979 101.8859114  48.6974711 137.8631150
 101.7478912  47.9654950 138.4642689 102.7964037  48.6083611 137.5815337
 110.8474061  50.6363116 122.6115628 110.2303232  49.9109944 122.5148681
 110.3790550  51.3972476 122.2682702 104.5141414  48.4094671 137.3514829
 105.2241033  47.7687863 137.3101448 104.4710723  48.6607566 138.2741010
 112.5028193  55.3462024 140.2721408 112.4440739  54.6621244 139.6051991
 112.9047711  56.0881014 139.8202034 103.2270348  45.3959889 139.1710469
 102.6907705  44.9450627 139.8232065 102.6387057  45.5305797 138.4280933
 101.5218892  62.1623938 133.0655127 101.7615490  62.7942462 133.7434146
 100.6788088  61.8111978 133.3520487 102.6372607  44.8548540 121.7336932
 101.7602074  44.7337341 121.3699179 103.1130360  44.0634618 121.4815821
 112.5045600  53.3101608 138.5035388 111.6172379  52.9727530 138.6261787
 113.0744151  52.5784639 138.7404153  94.1574747  49.6425700 131.8278439
  94.8445787  49.3287430 131.2399455  94.0022876  50.5467064 131.5545691
  98.9609470  44.5315896 136.2563463  98.8767658  43.9241566 135.5213873
  98.1392176  45.0224915 136.2572960 106.0346754  57.9703060 135.4696631
 105.9616925  58.7758032 135.9815936 105.5924147  58.1695026 134.6444653
 105.8236533  57.2074830 128.9799453 105.0404055  57.7496511 129.0737677
 106.5229279  57.7248810 129.3793694 109.1333183  43.0169460 131.6233658
 109.6301883  42.2639422 131.3034728 108.3620165  43.0533776 131.0576868
 116.9862941  48.7209825 133.2651950 116.9752817  49.6034541 132.8945883
 116.1180320  48.3681376 133.0706487 108.4945437  57.8689894 137.6254790
 109.2073409  58.5037359 137.5530691 108.0035466  57.9653760 136.8094792
 110.2162964  51.7741147 129.1972082 109.2819243  51.8942609 129.0276786
 110.3939633  50.8713614 128.9332091 105.7168152  45.1586843 131.3505343
 105.3465940  44.6057883 132.0386248 106.2127245  44.5544976 130.7980343
 113.6035516  47.6158466 129.7322116 114.0695968  48.4486458 129.6582418
 114.0543016  47.1503448 130.4367374 103.5457351  55.6184338 138.4460361
 104.2466810  56.2520821 138.5989755 103.0752466  55.9599069 137.6856000
 111.6711747  53.9602288 126.7308268 111.9471591  53.8458882 127.6402142
 110.8016245  53.5619772 126.6920441 111.5752178  39.9839053 133.7713017
 110.6615258  40.2143280 133.9395224 112.0045280  40.0677497 134.6227049
 111.3458637  48.1728945 136.2712911 110.6930087  48.4204853 135.6165364
 111.7239017  47.3593083 135.9375388 108.3065811  58.2088638 130.3741081
 108.4888205  57.3910294 130.8368834 109.1298797  58.4256331 129.9365971
 108.6407976  57.1356824 127.6356130 109.1695743  56.6249278 127.0226292
 108.9036196  56.8199354 128.5001663 107.3946210  48.9148756 142.7578948
 106.7186847  48.8142886 143.4281323 108.2173844  48.7587970 143.2214945
  99.1425069  55.1520693 135.3791463  99.7278506  54.4064381 135.5119368
  98.9449907  55.4624650 136.2628127 101.9963724  58.1871940 130.3953906
 101.3274099  58.6718068 129.9117946 101.8576594  58.4341161 131.3097284
  93.7342724  47.7226293 134.0995907  93.7726823  47.1889884 134.8933025
  93.2283016  47.1961499 133.4806884 106.1368993  60.2215684 136.9936564
 106.6887301  60.3847305 137.7585649 106.4775186  60.8120122 136.3216589
 101.1133486  42.5690834 137.5958449 101.1774812  43.4305664 137.1835847
 101.0500606  41.9564835 136.8630807 100.5885758  44.6413966 141.2431483
 101.2157797  44.2591043 141.8569007  99.7313677  44.4228168 141.6087176
 110.9879867  55.0476941 142.8485219 111.5319771  55.6606900 142.3540173
 110.4066712  55.6056520 143.3652232  97.3651301  46.4490395 127.1749838
  97.6604742  45.5401074 127.1216892  96.4639337  46.4278135 126.8530840
 109.2737380  58.1697659 133.9800246 109.1488519  57.3687399 133.4711192
 109.9316471  58.6643853 133.4914216 100.8945548  44.5246392 133.1577387
 100.1732134  45.1382360 133.0184860 101.6838804  45.0604157 133.0794033
 111.3372288  55.9706679 135.6079796 110.3902624  55.8512031 135.5358123
 111.6855061  55.0829177 135.6906058 103.6971862  41.8600818 139.4318038
 104.2206264  42.1063115 140.1944348 103.4784195  42.6920853 139.0121176
  99.0939143  44.1304493 127.2989163  98.7651849  43.2501872 127.1164269
  99.4478513  44.0752162 128.1865552 108.3418722  55.7659396 131.8084149
 108.1943684  54.8376103 131.9891719 109.1672215  55.7879486 131.3241224
 102.2080966  44.4177463 127.6664641 102.5477038  44.9463384 126.9443249
 102.6553086  44.7557869 128.4423207 111.9452843  56.5887954 132.8949021
 112.8699391  56.3830816 132.7573473 111.7768147  56.3404355 133.8038363
 104.9024407  42.8014513 137.1167709 104.5621227  42.0022326 137.5188389
 104.1963413  43.1016224 136.5444542 105.5540879  39.8863826 135.5695032
 106.3766948  39.4124304 135.4473922 105.7978942  40.6654310 136.0693718
 104.1949113  42.9152084 125.8657934 104.9157476  43.2933337 125.3621650
 103.5714417  43.6340961 125.9692912 108.3380236  43.6197233 126.8016266
 108.5543850  44.5021871 126.5005094 107.8574303  43.2283447 126.0721908
 103.0779457  46.5782946 133.3787011 102.9324038  46.8923250 134.2711292
 102.6004661  47.1967847 132.8257909 104.9375840  43.5685494 133.4267900
 104.9237409  42.6726588 133.0900198 105.6548268  43.5756158 134.0606186
 106.7901971  44.0022835 135.4721028 106.5319749  44.9239905 135.4705358
 106.2587011  43.6053269 136.1621492 111.7348160  57.1073622 128.2511113
 111.9085037  56.5420044 127.4984965 112.2277051  57.9074517 128.0690603
  97.5525119  49.1188291 136.3174672  97.0078588  49.8948099 136.4494946
  98.4304469  49.4659095 136.1593793 104.3412736  42.4499875 128.6955470
 104.4628647  41.5216521 128.8946358 104.0514779  42.4638561 127.7833786
 107.2103927  40.1354785 131.8322190 107.2325623  40.1994118 130.8774170
 107.6271986  39.2959294 132.0262696 117.5887551  49.8710045 129.8701413
 118.0318697  49.1217370 129.4720536 116.7114061  49.8620181 129.4875145
 112.7223332  56.4240386 125.3508011 113.4174237  57.0447079 125.5695326
 113.0646482  55.5735737 125.6260389  98.3391141  48.2458187 139.2104829
  97.5972877  48.3940822 139.7969459  98.0183886  48.5066453 138.3471578
 114.6214755  53.8740092 126.8795342 115.1466079  54.2127364 126.1544662
 114.5337108  52.9387107 126.6958477 106.2834804  57.7874165 139.0085219
 106.5921930  57.5423312 139.8807918 107.0810286  57.9920804 138.5204089
 106.3055416  59.9412075 131.2390595 105.8660406  59.4488454 131.9323452
 107.0563533  59.3985043 130.9982670  98.7847755  56.1323616 131.2415223
  99.6105775  55.8327388 130.8613867  98.4341807  55.3631238 131.6905012
 103.7529288  55.4850084 133.3112897 103.1309297  54.8220789 133.0115125
 104.4234155  55.5111216 132.6286545  96.9856360  54.0509942 132.2004157
  96.1488268  53.6232117 132.0188158  96.9580006  54.2442386 133.1374948
 103.8253816  43.9631872 142.9045403 103.8741971  44.8393995 142.5223172
 104.3676330  43.4209265 142.3317046 114.3108661  54.5072995 142.1846540
 113.5204205  54.4897134 141.6451039 114.0742016  55.0461289 142.9395576
 114.4306536  51.3565462 139.4979268 114.4804541  51.1915469 140.4394791
 114.3220460  50.4892721 139.1077149 103.3142795  54.0354007 126.7871357
 103.4630915  54.7189472 126.1338030 104.1209239  54.0159097 127.3020813
 111.7210299  47.3396390 140.8138575 112.6220162  47.2002855 140.5222573
 111.7958273  47.5050845 141.7536753 106.0553104  44.7163245 139.6591761
 105.1856414  45.0096811 139.3874350 106.2912584  45.3003690 140.3799025
 115.9324733  53.7762403 139.7421290 115.6409542  54.1392384 140.5784751
 115.3196865  53.0629412 139.5634622 117.1320416  51.3415283 132.2623860
 117.9667307  51.7805087 132.4261421 117.2679544  50.8653936 131.4432106
 114.1811921  48.8995018 138.2101348 114.6566043  49.0922664 137.4020199
 113.2577487  48.9554204 137.9644732 101.0695428  50.0619185 127.7932426
 100.8241470  49.1581515 127.9912636 101.2391343  50.0636336 126.8511904
 108.7592138  40.9342861 137.1757182 109.2774082  41.6703888 136.8503670
 108.4047271  41.2406855 138.0103941 100.3391076  45.7947543 125.2918588
  99.6460321  45.8691898 124.6358624 100.0942828  45.0307886 125.8140105
 109.0104732  37.3543144 132.6958078 109.2906486  36.6866333 133.3218505
 109.7955339  37.5472240 132.1832742 106.8138201  56.5302138 124.2583105
 106.2412168  57.1492325 123.8053577 107.3870994  57.0801500 124.7923027
 112.8813590  45.7760778 136.4429654 113.8331013  45.8758876 136.4641878
 112.7117041  44.9839047 136.9527738 110.9027970  42.8616361 136.6289054
 110.3077902  43.1421374 135.9335543 110.6177667  43.3510262 137.4005796
 110.0335460  56.8139288 125.3891687 110.9666134  56.7484850 125.5924563
 109.9458673  57.6495555 124.9306220 112.6623477  56.1305158 122.3495635
 112.5837109  55.7965022 123.2431393 113.4833144  56.6226926 122.3487107
 115.3601668  48.9966898 135.5571953 115.3277988  48.0582898 135.7431637
 115.9702292  49.0750934 134.8237778 107.1984999  47.8662951 121.5999157
 108.1444104  47.7369159 121.6687575 106.8199244  47.1277613 122.0768585
 115.5096157  45.7877941 135.6030236 114.9935205  45.0036398 135.4160165
 116.3936105  45.4596658 135.7676756 113.1706884  39.5318957 131.5626049
 112.9731705  39.2234045 132.4469381 113.7806589  40.2580596 131.6923979
 121.1778218  50.0582904 134.6977990 121.9081607  49.7968193 135.2585693
 120.5685164  49.3211626 134.7380058 119.2593515  48.1990767 135.2952441
 118.5326679  48.0646732 134.6868933 118.8440802  48.5067596 136.1009159
 107.0823692  51.9180697 143.0599814 108.0026701  52.0959296 143.2539861
 107.0473275  50.9736742 142.9079514 105.3827916  45.7912927 121.5354042
 104.4759372  45.4946040 121.6116756 105.6603897  45.4942745 120.6688329
  96.3005857  47.1119290 131.9853089  95.9808641  46.2584599 131.6927463
  95.7539285  47.3267869 132.7411056 100.0785764  49.8281731 135.7022595
 100.2971774  50.7598839 135.7210629 100.4911538  49.4689706 136.4877399
 106.9989982  40.3349817 127.6898284 106.1890710  39.9896902 128.0653530
 107.6874399  40.0257360 128.2785895 108.9280530  39.4127864 129.3122580
 109.4811569  39.8323317 129.9712604 109.1650617  38.4863612 129.3545536
 104.9513630  45.4014937 145.0925344 104.8510356  46.3509294 145.0237435
 104.7335172  45.0733176 144.2201414 104.1526701  42.6499862 121.6766022
 105.0145865  42.9754761 121.9361839 104.3377045  41.8631358 121.1639087
  96.1694117  50.7322202 133.9546210  95.4757588  50.3176155 133.4416165
  96.9167108  50.7742738 133.3579629 112.3059337  41.5228389 128.8201245
 111.7258006  42.1813193 128.4379297 112.0395270  40.7005733 128.4088662
 110.7562904  40.9233446 131.0222565 111.2562682  41.0349981 130.2136884
 111.3998512  40.6194499 131.6623373 104.8144900  48.8312076 143.9090406
 104.3311981  49.6312436 144.1154295 104.9005839  48.8420021 142.9557850
  98.0830859  50.6640456 131.8312225  98.0601547  50.7628143 130.8794108
  98.3931496  51.5105606 132.1529391 100.7418237  52.7216611 135.9458840
 101.6961491  52.6900553 135.8788771 100.5430761  52.2607234 136.7609066
 101.3317619  51.2917727 138.5129637 102.1510508  51.7861805 138.5364475
 101.6054427  50.3749695 138.4847205 111.0884215  43.6828479 127.8757593
 110.2010070  43.9678130 127.6577788 111.5038204  43.5222242 127.0284870
 114.4398752  43.7075000 131.5911932 115.2159142  44.1971452 131.8636549
 113.7146886  44.1333054 132.0483802 116.8771310  44.4202619 132.6485873
 117.4715801  44.1798355 131.9379181 116.9497894  43.7009750 133.2759409
  99.0968466  58.2636230 132.9629038  98.9622934  57.5036631 132.3967036
  98.6800528  58.9877130 132.4957827 110.2327429  53.4473154 121.9705613
 110.9363279  53.6523156 122.5863269 109.5090078  54.0149916 122.2354696
 111.0625239  49.1983015 128.0907883 111.0060441  49.6551566 127.2515516
 111.6153582  48.4373700 127.9130726 114.8730045  44.9872747 128.9158003
 114.6166979  44.5869383 129.7466210 114.2482913  45.7016541 128.7908142
 119.1842383  47.7268820 131.4229294 118.6241941  47.7962009 132.1960856
 118.5785886  47.5509805 130.7028790 102.2537592  59.1605547 133.1747480
 102.1369976  60.1050980 133.0726171 101.4330038  58.8579109 133.5633279
 112.1414126  53.8855683 124.0204073 112.9759730  53.4536881 123.8381548
 111.9798469  53.7137697 124.9480967 111.7960018  50.3887796 125.3860412
 111.7408822  50.2232068 124.4448856 111.1706074  51.0963829 125.5422602
  96.5852533  45.6255861 139.2121834  97.2311397  45.1154815 139.7009060
  96.3769685  46.3624542 139.7865260 109.1105926  52.6936708 144.7113975
 109.9797085  52.8677360 144.3500610 108.6312677  53.5131125 144.5889704
 105.1056144  39.8895905 124.9645731 105.0934814  40.8337745 125.1214002
 105.9979566  39.7066051 124.6705192 103.2792106  59.8133809 136.3903409
 104.1819353  59.8457419 136.7069904 103.0529476  58.8834260 136.4049744
 105.0345708  58.5664796 133.0513487 104.0841339  58.5666657 132.9377860
 105.3378194  57.8197530 132.5349522 108.9208263  36.4838682 129.2191667
 108.1540659  35.9297169 129.3648350 109.3318968  36.5560551 130.0805819
 100.9250024  42.7723478 143.3096849 101.7881486  42.4160283 143.5200173
 100.3515435  42.4337373 143.9972253 120.7698401  64.4025334 134.1159250
 121.4076811  64.2832081 133.4122590 120.6519244  65.3506178 134.1747202
 117.5788108  64.3552762 134.0520774 117.2406619  64.2393827 133.1641309
 118.4477876  63.9543927 134.0321781 113.4374923  66.2088239 130.0417665
 112.8739788  66.1178176 129.2733953 113.3227318  65.3888143 130.5220158
 118.0607891  65.5087614 140.0106980 118.0496531  65.1140412 139.1387484
 118.2228530  64.7753687 140.6040751 110.9839355  67.7039430 132.8801886
 111.7760647  67.3630255 132.4648185 111.2236005  67.8134405 133.8004039
 119.0174482  69.8759206 125.3532130 118.3662462  70.4613287 124.9666144
 119.8118845  70.4065401 125.4127168 112.9430109  66.9648343 125.7519265
 113.7160985  66.4177331 125.6132140 113.2955508  67.8292593 125.9633726
 114.7815152  68.2924726 138.9586164 114.4905018  69.1970357 138.8432830
 115.4172136  68.3341253 139.6730233 115.7071359  65.6701574 135.5487524
 116.3034931  65.4457597 134.8344487 115.7646330  64.9286320 136.1512971
 115.2796387  63.1241010 123.3837715 115.5321908  62.6022531 122.6221178
 114.3420946  62.9607155 123.4864398 120.3239670  62.1276788 131.1912458
 121.1102759  61.7096211 130.8402875 120.5878374  63.0322880 131.3594106
 120.4949747  67.5649638 125.8901115 119.8595580  67.6384265 126.6022019
 120.1647154  68.1543237 125.2120194 125.7248097  62.0652021 132.0945436
 126.4573269  61.4951238 132.3283266 124.9687453  61.6773622 132.5351942
 114.9992676  65.0269116 125.5862089 114.8828934  64.3514019 126.2543174
 115.1094936  64.5401489 124.7694243 117.3424217  64.4879263 129.2908779
 116.9782424  63.9609884 130.0021700 118.1991333  64.0977732 129.1175264
 123.2473517  55.7773595 136.5540045 122.9156842  56.6469006 136.3301260
 122.6519131  55.4609879 137.2334075 116.9829704  59.5169162 124.2870127
 117.1504106  60.3849399 124.6540598 116.7926873  59.6796444 123.3631416
 119.7405037  67.9786141 135.9535958 119.4405760  68.8811180 135.8451765
 119.3956096  67.7118324 136.8057110 113.1917518  64.4299938 131.9872662
 112.2668015  64.2976152 132.1950354 113.4401932  65.2094157 132.4842604
 123.1402181  60.4968681 133.6333395 122.2319058  60.4284090 133.3392156
 123.0889776  60.9740626 134.4615220 116.9618925  61.9726820 125.2716794
 116.8418550  62.4183871 126.1102274 116.2671513  62.3212137 124.7130332
 110.5526329  64.0733212 132.8216451 110.6818711  64.3267691 133.7355863
 109.8723781  64.6660920 132.5021106 114.7225817  74.7430462 128.9206925
 114.6449846  75.6938287 128.9995406 114.1187460  74.3976334 129.5781852
 117.2143046  61.9158327 141.5768292 116.4376380  62.4752247 141.5671157
 117.8533609  62.4015110 142.0983162 125.0063827  58.6985120 135.4111269
 124.3638207  58.9917653 134.7651063 124.5018756  58.5838040 136.2164466
 122.6603991  62.4448293 126.0997128 123.5721847  62.6775680 125.9244826
 122.1513638  63.0285337 125.5372207 115.4689419  64.7243780 141.1386259
 116.2104103  65.2628824 140.8621083 114.7626404  65.3510069 141.2957811
 120.9444758  66.8672921 139.7358421 121.3528114  66.4255331 138.9913053
 120.2222020  66.2925548 139.9892614 117.2975828  61.8045528 137.1091978
 118.1437024  62.2284941 137.2526627 117.2374466  61.1479152 137.8030541
 121.2673573  67.4274111 133.4910710 120.6382435  67.5919826 132.7886777
 120.8799235  67.8415721 134.2621674 125.1462805  68.3628549 130.8455073
 124.4613843  68.7427451 130.2952107 125.2306654  68.9723876 131.5787021
 120.4475274  59.4649896 138.7673151 120.2036206  60.2191956 138.2307427
 120.7235204  59.8435244 139.6020398 122.4013737  66.0088508 137.4450417
 122.6130632  66.6520268 136.7684798 122.3543485  65.1750825 136.9772347
 120.0039965  58.6206329 134.3486989 119.1424445  58.9187583 134.6403727
 120.0302400  58.8376728 133.4168022 116.8201535  67.1648520 130.7560795
 117.2839880  67.4436223 129.9665417 116.5558333  66.2631964 130.5733885
 113.7125616  66.7120001 133.6940558 114.2826973  67.1407269 133.0558042
 114.3033728  66.4302586 134.3924744 115.7570421  63.2871672 127.5650360
 116.4594464  63.7392716 128.0324286 115.4251049  62.6455491 128.1930253
 114.2050782  61.8783429 141.9401569 113.5749443  62.5599709 142.1736966
 114.0986870  61.7666510 140.9954707 109.4995755  61.5455225 132.8667493
 108.7094809  61.8012753 132.3907604 109.9907002  62.3603562 132.9719534
 123.5159564  68.8860464 135.6172774 124.3377008  68.4840651 135.3355456
 123.5121967  68.7828698 136.5688890 111.4510500  61.9099804 129.8250970
 110.6541664  62.0218498 130.3434466 111.2236092  62.2486456 128.9591861
 117.2816168  68.4344507 137.7733485 117.3460600  68.8964914 138.6091657
 116.5727092  67.8041872 137.9015795 107.7833458  61.7985715 135.2982484
 108.0341496  62.6832725 135.5640060 108.3193006  61.6190317 134.5257576
 131.6065558  65.2299212 131.9657746 130.8529266  64.6606610 131.8101750
 131.7413099  65.1961877 132.9128380 116.9964186  70.1012615 127.6412465
 116.8609860  70.9464150 128.0697313 117.5373998  70.3031892 126.8778399
 113.4831525  56.1804194 144.3026820 113.0898471  55.6270393 144.9774464
 114.2997666  56.4914773 144.6933338 110.4493583  67.6188053 128.2140390
 110.9618104  68.4131303 128.3645955 111.1016296  66.9214343 128.1473992
 112.2588468  70.7353809 130.2963143 112.4355096  71.6571774 130.1084127
 113.0545301  70.4212228 130.7257523 116.3999486  57.5962073 141.8947077
 117.1409200  58.1969227 141.8151539 116.6317409  56.8539711 141.3365119
 111.5440824  62.7818441 140.1725307 111.4294339  61.8803698 140.4732405
 110.6885342  63.0282137 139.8210123 118.6232662  70.7236181 141.7712807
 118.1796516  69.9372560 141.4533712 119.2849876  70.9115332 141.1056698
 113.3819783  72.2531983 136.2973486 113.9327208  72.1249046 135.5250480
 112.5431259  72.5526872 135.9468378 120.7213900  71.0038981 139.7994208
 120.7032375  71.8247862 139.3074478 121.6433820  70.8793056 140.0244350
 117.1786954  68.5183110 140.6417717 117.7115291  67.7571399 140.4117025
 116.6501035  68.2256762 141.3841871 120.3456649  53.6243176 136.1711359
 120.0020919  54.5144818 136.0950469 120.7135612  53.4344834 135.3080944
 108.4142500  65.9476707 128.9899961 109.2517722  66.3573715 128.7733668
 108.5920767  65.0076149 128.9600155 120.3106932  63.6151787 124.6783794
 119.7953555  64.3856392 124.9172181 120.0384240  62.9416924 125.3016855
 117.8954043  58.4601488 129.7369032 117.0395639  58.0708339 129.5574671
 118.3080995  58.5393449 128.8768818 119.4253190  55.9947832 134.1360592
 118.9217985  55.9577967 133.3228397 119.7183796  56.9040574 134.1957248
 115.6696075  56.0786561 133.1426773 116.5349072  55.8829370 132.7832663
 115.7373584  55.8496913 134.0696130 125.2841206  66.3684142 126.6136967
 124.5070649  66.0295302 126.1692129 125.9632687  66.3736765 125.9391932
 120.0993235  61.4878880 126.5043575 119.7943371  61.8025029 127.3553718
 121.0523677  61.5660299 126.5470908 118.5439667  67.6469103 128.1536529
 118.0161028  66.9121862 127.8409766 118.0427170  68.4243779 127.9076497
 123.5232513  65.8418123 133.2703575 122.8656187  66.5317385 133.3583704
 124.3272912  66.2314555 133.6137561 113.2758394  58.3088769 130.5143140
 113.8502146  58.0863951 129.7816333 113.8629377  58.3777464 131.2671742
 122.3337972  64.1962496 131.3207517 122.8469853  64.8292488 131.8229227
 122.9839196  63.5963692 130.9550877 113.6027982  60.3393230 124.5339026
 112.7665294  60.6767917 124.8548300 113.4632751  60.2042210 123.5966163
 115.5781062  55.1830018 129.2418210 114.9245475  54.8679035 128.6174824
 115.5361536  54.5605759 129.9678033 116.6892267  65.4649313 121.1571502
 115.7819329  65.2338567 121.3562651 117.1863299  64.6686932 121.3445483
 119.5960346  74.1746820 124.0768188 118.9222045  74.4778517 124.6853146
 119.9826168  74.9775901 123.7273645 118.8118803  61.6711952 133.5665857
 117.8941364  61.8926899 133.4087545 119.2278946  61.7458262 132.7077565
 119.5953850  63.0703367 128.6968538 120.3425669  63.5824765 128.3875660
 119.8645440  62.7487420 129.5572931 117.8680501  65.5661908 125.6795492
 116.9591720  65.2820941 125.7767962 117.8975584  65.9860987 124.8198799
 123.0999768  69.1768498 129.4486659 122.6462095  68.3359407 129.5051850
 122.4693735  69.8129896 129.7861440 122.0432687  60.1060484 130.6787327
 121.3055444  59.5937870 131.0097569 122.2959461  59.6660865 129.8670604
 121.5432707  71.0144994 130.3836478 121.8355682  71.5750051 129.6648843
 122.0531328  71.3073555 131.1389637 122.1444315  52.8836736 131.2729096
 122.4503192  52.0234099 130.9855011 122.8696920  53.4754356 131.0728090
 108.4368671  63.2867422 129.6610694 108.2393071  62.6936783 128.9361761
 107.8815335  62.9819632 130.3786633 116.4165395  63.1790529 131.7805287
 116.4714004  62.2264365 131.7047764 115.6056597  63.3349968 132.2646586
 117.5656588  67.1070652 123.0183570 117.1276018  66.3906511 122.5589208
 118.3067029  67.3346767 122.4568662 114.3557754  61.7967588 129.5395666
 113.5425620  62.0961759 129.9460858 114.8516749  61.4023277 130.2570148
 116.5066332  71.7925345 131.4729931 116.4642511  72.0186192 130.5438463
 117.4229031  71.5588720 131.6215732 119.9531966  62.2609413 138.3710560
 120.3081354  62.4880886 139.2305026 120.6004097  62.5927790 137.7487815
 125.6829703  65.3827849 129.0759889 125.5447602  65.5729445 128.1481078
 125.3265922  66.1447232 129.5327940 113.8471829  59.3685944 135.1556901
 114.4871209  59.2274703 134.4579864 113.0149360  59.0820457 134.7795503
 125.7099083  67.4504376 134.0871161 126.1435589  67.3579665 134.9354215
 126.4230663  67.4261876 133.4491177 114.6232133  68.6688374 131.2691894
 115.4172732  68.1738694 131.0674468 113.9123826  68.1406237 130.9059599
 119.4426978  71.0506470 135.6204261 119.4964000  71.6197406 136.3881977
 118.5741759  71.2208355 135.2558298 110.9314897  62.8131456 127.3451646
 110.0012485  62.7515912 127.5621608 111.0272369  62.2907409 126.5488287
 110.8500446  59.3386269 129.9329888 111.1107263  60.2531602 129.8239048
 111.6717618  58.8710711 130.0826501 112.3225371  60.7524026 137.1028712
 112.9948424  60.5441388 136.4541361 111.4955158  60.5546112 136.6633945
 126.5714632  67.4928076 136.6204046 126.7650522  68.3973887 136.8663321
 126.4715250  67.0335495 137.4542631 118.2250943  57.3785967 139.1194373
 117.5778858  58.0775917 139.0258850 118.9951958  57.8122111 139.4870621
 121.6329741  67.6434819 142.1944927 121.4815247  67.4145371 141.2775010
 121.6234420  68.6005421 142.2076272 118.4015077  65.2166732 137.1791193
 119.3307137  65.3677892 137.0060160 117.9806107  65.3050753 136.3239840
 117.2003409  69.2417396 134.9489731 117.0614495  68.8736181 135.8215669
 116.4118005  69.7565036 134.7773688 117.7951561  74.3426493 126.2915267
 117.9703317  73.8714536 127.1060890 117.1084349  74.9692259 126.5196528
 118.7508624  68.6198999 132.3378568 118.4158457  68.5799769 133.2336218
 118.2512570  67.9543715 131.8648979 112.7252868  64.0266629 137.8631150
 112.5872666  63.2946868 138.4642689 113.6357792  63.9375529 137.5815337
 121.6867816  65.9655033 122.6115628 121.0696987  65.2401862 122.5148681
 121.2184304  66.7264394 122.2682702 115.3535169  63.7386588 137.3514829
 116.0634787  63.0979781 137.3101448 115.3104477  63.9899483 138.2741010
 123.3421948  70.6753942 140.2721408 123.2834494  69.9913162 139.6051991
 123.7441466  71.4172932 139.8202034 114.0664103  60.7251806 139.1710469
 113.5301460  60.2742545 139.8232065 113.4780811  60.8597715 138.4280933
 112.3612646  77.4915856 133.0655127 112.6009245  78.1234380 133.7434146
 111.5181843  77.1403896 133.3520487 113.4766362  60.1840458 121.7336932
 112.5995828  60.0629258 121.3699179 113.9524115  59.3926536 121.4815821
 123.3439355  68.6393526 138.5035388 122.4566134  68.3019447 138.6261787
 123.9137906  67.9076557 138.7404153 104.9968502  64.9717617 131.8278439
 105.6839542  64.6579347 131.2399455 104.8416631  65.8758982 131.5545691
 109.8003224  59.8607814 136.2563463 109.7161413  59.2533484 135.5213873
 108.9785931  60.3516832 136.2572960 116.8740508  73.2994978 135.4696631
 116.8010680  74.1049949 135.9815936 116.4317901  73.4986944 134.6444653
 116.6630288  72.5366748 128.9799453 115.8797810  73.0788428 129.0737677
 117.3623033  73.0540728 129.3793694 119.9726938  58.3461377 131.6233658
 120.4695638  57.5931340 131.3034728 119.2013919  58.3825694 131.0576868
 127.8256695  64.0501743 133.2651950 127.8146572  64.9326458 132.8945883
 126.9574075  63.6973294 133.0706487 119.3339192  73.1981812 137.6254790
 120.0467164  73.8329277 137.5530691 118.8429220  73.2945678 136.8094792
 121.0556719  67.1033065 129.1972082 120.1212997  67.2234527 129.0276786
 121.2333387  66.2005531 128.9332091 116.5561907  60.4878760 131.3505343
 116.1859694  59.9349801 132.0386248 117.0520999  59.8836894 130.7980343
 124.4429270  62.9450384 129.7322116 124.9089722  63.7778376 129.6582418
 124.8936771  62.4795366 130.4367374 114.3851105  70.9476255 138.4460361
 115.0860565  71.5812738 138.5989755 113.9146220  71.2890987 137.6856000
 122.5105501  69.2894205 126.7308268 122.7865345  69.1750800 127.6402142
 121.6410000  68.8911690 126.6920441 122.4145933  55.3130971 133.7713017
 121.5009013  55.5435198 133.9395224 122.8439034  55.3969415 134.6227049
 122.1852391  63.5020863 136.2712911 121.5323842  63.7496770 135.6165364
 122.5632771  62.6885001 135.9375388 119.1459565  73.5380556 130.3741081
 119.3281960  72.7202212 130.8368834 119.9692551  73.7548248 129.9365971
 119.4801731  72.4648741 127.6356130 120.0089497  71.9541196 127.0226292
 119.7429950  72.1491271 128.5001663 118.2339964  64.2440674 142.7578948
 117.5580601  64.1434803 143.4281323 119.0567598  64.0879888 143.2214945
 109.9818823  70.4812611 135.3791463 110.5672260  69.7356298 135.5119368
 109.7843662  70.7916567 136.2628127 112.8357479  73.5163858 130.3953906
 112.1667854  74.0009986 129.9117946 112.6970348  73.7633078 131.3097284
 104.5736478  63.0518211 134.0995907 104.6120578  62.5181801 134.8933025
 104.0676771  62.5253416 133.4806884 116.9762747  75.5507601 136.9936564
 117.5281055  75.7139223 137.7585649 117.3168941  76.1412039 136.3216589
 111.9527240  57.8982751 137.5958449 112.0168567  58.7597582 137.1835847
 111.8894361  57.2856753 136.8630807 111.4279513  59.9705884 141.2431483
 112.0551552  59.5882961 141.8569007 110.5707432  59.7520086 141.6087176
 121.8273621  70.3768859 142.8485219 122.3713525  70.9898817 142.3540173
 121.2460466  70.9348437 143.3652232 108.2045056  61.7782313 127.1749838
 108.4998497  60.8692991 127.1216892 107.3033091  61.7570052 126.8530840
 120.1131134  73.4989577 133.9800246 119.9882274  72.6979317 133.4711192
 120.7710226  73.9935770 133.4914216 111.7339303  59.8538309 133.1577387
 111.0125888  60.4674277 133.0184860 112.5232558  60.3896074 133.0794033
 122.1766043  71.2998597 135.6079796 121.2296378  71.1803948 135.5358123
 122.5248816  70.4121095 135.6906058 114.5365616  57.1892736 139.4318038
 115.0600018  57.4355033 140.1944348 114.3177949  58.0212771 139.0121176
 109.9332897  59.4596411 127.2989163 109.6045603  58.5793789 127.1164269
 110.2872268  59.4044079 128.1865552 119.1812476  71.0951313 131.8084149
 119.0337439  70.1668021 131.9891719 120.0065970  71.1171404 131.3241224
 113.0474720  59.7469380 127.6664641 113.3870793  60.2755302 126.9443249
 113.4946841  60.0849786 128.4423207 122.7846598  71.9179872 132.8949021
 123.7093145  71.7122733 132.7573473 122.6161901  71.6696273 133.8038363
 115.7418161  58.1306431 137.1167709 115.4014982  57.3314244 137.5188389
 115.0357168  58.4308142 136.5444542 116.3934633  55.2155743 135.5695032
 117.2160702  54.7416222 135.4473922 116.6372697  55.9946227 136.0693718
 115.0342868  58.2444002 125.8657934 115.7551230  58.6225255 125.3621650
 114.4108172  58.9632879 125.9692912 119.1773990  58.9489151 126.8016266
 119.3937605  59.8313789 126.5005094 118.6968058  58.5575364 126.0721908
 113.9173212  61.9074864 133.3787011 113.7717793  62.2215167 134.2711292
 113.4398415  62.5259764 132.8257909 115.7769595  58.8977412 133.4267900
 115.7631163  58.0018505 133.0900198 116.4942023  58.9048076 134.0606186
 117.6295725  59.3314752 135.4721028 117.3713503  60.2531823 135.4705358
 117.0980766  58.9345187 136.1621492 122.5741914  72.4365539 128.2511113
 122.7478792  71.8711962 127.4984965 123.0670805  73.2366434 128.0690603
 108.3918874  64.4480209 136.3174672 107.8472342  65.2240017 136.4494946
 109.2698224  64.7951013 136.1593793 115.1806491  57.7791792 128.6955470
 115.3022402  56.8508439 128.8946358 114.8908533  57.7930478 127.7833786
 118.0497681  55.4646703 131.8322190 118.0719378  55.5286036 130.8774170
 118.4665740  54.6251211 132.0262696 128.4281305  65.2001962 129.8701413
 128.8712451  64.4509288 129.4720536 127.5507816  65.1912099 129.4875145
 123.5617087  71.7532304 125.3508011 124.2567991  72.3738997 125.5695326
 123.9040237  70.9027655 125.6260389 109.1784896  63.5750105 139.2104829
 108.4366632  63.7232740 139.7969459 108.8577640  63.8358370 138.3471578
 125.4608510  69.2032009 126.8795342 125.9859834  69.5419282 126.1544662
 125.3730862  68.2679025 126.6958477 117.1228558  73.1166083 139.0085219
 117.4315685  72.8715230 139.8807918 117.9204041  73.3212722 138.5204089
 117.1449171  75.2703993 131.2390595 116.7054161  74.7780371 131.9323452
 117.8957287  74.7276960 130.9982670 109.6241510  71.4615534 131.2415223
 110.4499529  71.1619305 130.8613867 109.2735562  70.6923156 131.6905012
 114.5923043  70.8142002 133.3112897 113.9703052  70.1512707 133.0115125
 115.2627910  70.8403134 132.6286545 107.8250115  69.3801860 132.2004157
 106.9882023  68.9524034 132.0188158 107.7973760  69.5734303 133.1374948
 114.6647570  59.2923790 142.9045403 114.7135726  60.1685913 142.5223172
 115.2070084  58.7501183 142.3317046 125.1502416  69.8364913 142.1846540
 124.3597960  69.8189052 141.6451039 124.9135770  70.3753207 142.9395576
 125.2700291  66.6857379 139.4979268 125.3198296  66.5207387 140.4394791
 125.1614214  65.8184638 139.1077149 114.1536550  69.3645925 126.7871357
 114.3024670  70.0481389 126.1338030 114.9602993  69.3451015 127.3020813
 122.5604053  62.6688307 140.8138575 123.4613916  62.5294772 140.5222573
 122.6352028  62.8342762 141.7536753 116.8946859  60.0455162 139.6591761
 116.0250168  60.3388728 139.3874350 117.1306339  60.6295607 140.3799025
 126.7718488  69.1054321 139.7421290 126.4803296  69.4684301 140.5784751
 126.1590619  68.3921329 139.5634622 127.9714170  66.6707201 132.2623860
 128.8061061  67.1097005 132.4261421 128.1073299  66.1945854 131.4432106
 125.0205676  64.2286936 138.2101348 125.4959798  64.4214582 137.4020199
 124.0971241  64.2846121 137.9644732 111.9089183  65.3911103 127.7932426
 111.6635225  64.4873433 127.9912636 112.0785097  65.3928253 126.8511904
 119.5985892  56.2634779 137.1757182 120.1167836  56.9995806 136.8503670
 119.2441025  56.5698772 138.0103941 111.1784830  61.1239460 125.2918588
 110.4854075  61.1983815 124.6358624 110.9336582  60.3599804 125.8140105
 119.8498487  52.6835062 132.6958078 120.1300240  52.0158251 133.3218505
 120.6349094  52.8764157 132.1832742 117.6531955  71.8594056 124.2583105
 117.0805922  72.4784243 123.8053577 118.2264749  72.4093417 124.7923027
 123.7207345  61.1052696 136.4429654 124.6724768  61.2050793 136.4641878
 123.5510795  60.3130964 136.9527738 121.7421724  58.1908279 136.6289054
 121.1471657  58.4713292 135.9335543 121.4571421  58.6802180 137.4005796
 120.8729215  72.1431206 125.3891687 121.8059888  72.0776767 125.5924563
 120.7852428  72.9787473 124.9306220 123.5017232  71.4597076 122.3495635
 123.4230863  71.1256940 123.2431393 124.3226898  71.9518844 122.3487107
 126.1995423  64.3258815 135.5571953 126.1671743  63.3874816 135.7431637
 126.8096046  64.4042852 134.8237778 118.0378754  63.1954868 121.5999157
 118.9837858  63.0661076 121.6687575 117.6592999  62.4569530 122.0768585
 126.3489911  61.1169859 135.6030236 125.8328960  60.3328315 135.4160165
 127.2329860  60.7888575 135.7676756 124.0100638  54.8610874 131.5626049
 123.8125459  54.5525963 132.4469381 124.6200344  55.5872513 131.6923979
 132.0171973  65.3874822 134.6977990 132.7475361  65.1260110 135.2585693
 131.4078918  64.6503544 134.7380058 130.0987270  63.5282685 135.2952441
 129.3720433  63.3938650 134.6868933 129.6834557  63.8359513 136.1009159
 117.9217446  67.2472614 143.0599814 118.8420456  67.4251213 143.2539861
 117.8867029  66.3028660 142.9079514 116.2221671  61.1204845 121.5354042
 115.3153126  60.8237957 121.6116756 116.4997652  60.8234663 120.6688329
 107.1399611  62.4411208 131.9853089 106.8202396  61.5876516 131.6927463
 106.5933039  62.6559786 132.7411056 110.9179519  65.1573649 135.7022595
 111.1365528  66.0890757 135.7210629 111.3305293  64.7981623 136.4877399
 117.8383736  55.6641734 127.6898284 117.0284465  55.3188819 128.0653530
 118.5268153  55.3549278 128.2785895 119.7674285  54.7419781 129.3122580
 120.3205323  55.1615235 129.9712604 120.0044371  53.8155529 129.3545536
 115.7907384  60.7306855 145.0925344 115.6904111  61.6801212 145.0237435
 115.5728926  60.4025094 144.2201414 114.9920455  57.9791780 121.6766022
 115.8539619  58.3046678 121.9361839 115.1770800  57.1923276 121.1639087
 107.0087871  66.0614120 133.9546210 106.3151343  65.6468072 133.4416165
 107.7560862  66.1034656 133.3579629 123.1453092  56.8520306 128.8201245
 122.5651761  57.5105110 128.4379297 122.8789025  56.0297651 128.4088662
 121.5956658  56.2525364 131.0222565 122.0956437  56.3641899 130.2136884
 122.2392266  55.9486417 131.6623373 115.6538654  64.1603994 143.9090406
 115.1705736  64.9604354 144.1154295 115.7399593  64.1711939 142.9557850
 108.9224614  65.9932373 131.8312225 108.8995302  66.0920061 130.8794108
 109.2325250  66.8397524 132.1529391 111.5811992  68.0508528 135.9458840
 112.5355245  68.0192471 135.8788771 111.3824515  67.5899152 136.7609066
 112.1711374  66.6209644 138.5129637 112.9904263  67.1153723 138.5364475
 112.4448181  65.7041613 138.4847205 121.9277970  59.0120397 127.8757593
 121.0403825  59.2970047 127.6577788 122.3431959  58.8514160 127.0284870
 125.2792506  59.0366918 131.5911932 126.0552896  59.5263370 131.8636549
 124.5540640  59.4624972 132.0483802 127.7165065  59.7494537 132.6485873
 128.3109555  59.5090273 131.9379181 127.7891648  59.0301668 133.2759409
 109.9362220  73.5928148 132.9629038 109.8016688  72.8328549 132.3967036
 109.5194283  74.3169048 132.4957827 121.0721183  68.7765071 121.9705613
 121.7757033  68.9815074 122.5863269 120.3483832  69.3441833 122.2354696
 121.9018994  64.5274933 128.0907883 121.8454195  64.9843484 127.2515516
 122.4547336  63.7665617 127.9130726 125.7123800  60.3164665 128.9158003
 125.4560734  59.9161300 129.7466210 125.0876668  61.0308458 128.7908142
 130.0236137  63.0560738 131.4229294 129.4635695  63.1253927 132.1960856
 129.4179641  62.8801722 130.7028790 113.0931346  74.4897465 133.1747480
 112.9763730  75.4342897 133.0726171 112.2723792  74.1871026 133.5633279
 122.9807881  69.2147601 124.0204073 123.8153485  68.7828799 123.8381548
 122.8192224  69.0429614 124.9480967 122.6353773  65.7179714 125.3860412
 122.5802577  65.5523985 124.4448856 122.0099828  66.4255747 125.5422602
 107.4246288  60.9547778 139.2121834 108.0705152  60.4446732 139.7009060
 107.2163439  61.6916460 139.7865260 119.9499680  68.0228626 144.7113975
 120.8190840  68.1969278 144.3500610 119.4706432  68.8423043 144.5889704
 115.9449898  55.2187823 124.9645731 115.9328568  56.1629663 125.1214002
 116.8373320  55.0357968 124.6705192 114.1185860  75.1425727 136.3903409
 115.0213107  75.1749337 136.7069904 113.8923230  74.2126178 136.4049744
 115.8739462  73.8956713 133.0513487 114.9235093  73.8958575 132.9377860
 116.1771949  73.1489448 132.5349522 119.7602018  51.8130600 129.2191667
 118.9934414  51.2589086 129.3648350 120.1712723  51.8852468 130.0805819
 111.7643779  58.1015395 143.3096849 112.6275240  57.7452200 143.5200173
 111.1909190  57.7629290 143.9972253 131.6092156  79.7317252 134.1159250
 132.2470566  79.6123999 133.4122590 131.4912999  80.6798096 134.1747202
 128.4181862  79.6844680 134.0520774 128.0800374  79.5685745 133.1641309
 129.2871630  79.2835845 134.0321781 124.2768678  81.5380156 130.0417665
 123.7133543  81.4470093 129.2733953 124.1621073  80.7180061 130.5220158
 128.9001645  80.8379532 140.0106980 128.8890286  80.4432330 139.1387484
 129.0622285  80.1045604 140.6040751 121.8233110  83.0331348 132.8801886
 122.6154402  82.6922172 132.4648185 122.0629760  83.1426323 133.8004039
 129.8568237  85.2051124 125.3532130 129.2056216  85.7905204 124.9666144
 130.6512599  85.7357319 125.4127168 123.7823864  82.2940261 125.7519265
 124.5554740  81.7469248 125.6132140 124.1349263  83.1584510 125.9633726
 125.6208906  83.6216643 138.9586164 125.3298772  84.5262274 138.8432830
 126.2565891  83.6633171 139.6730233 126.5465113  80.9993492 135.5487524
 127.1428685  80.7749514 134.8344487 126.6040085  80.2578237 136.1512971
 126.1190142  78.4532927 123.3837715 126.3715662  77.9314448 122.6221178
 125.1814701  78.2899073 123.4864398 131.1633424  77.4568706 131.1912458
 131.9496514  77.0388129 130.8402875 131.4272129  78.3614798 131.3594106
 131.3343502  82.8941556 125.8901115 130.6989335  82.9676182 126.6022019
 131.0040908  83.4835155 125.2120194 136.5641851  77.3943939 132.0945436
 137.2967023  76.8243156 132.3283266 135.8081207  77.0065539 132.5351942
 125.8386430  80.3561033 125.5862089 125.7222688  79.6805937 126.2543174
 125.9488690  79.8693407 124.7694243 128.1817971  79.8171180 129.2908779
 127.8176178  79.2901801 130.0021700 129.0385087  79.4269649 129.1175264
 134.0867272  71.1065513 136.5540045 133.7550597  71.9760924 136.3301260
 133.4912885  70.7901797 137.2334075 127.8223458  74.8461080 124.2870127
 127.9897861  75.7141316 124.6540598 127.6320627  75.0088362 123.3631416
 130.5798791  83.3078059 135.9535958 130.2799514  84.2103098 135.8451765
 130.2349851  83.0410242 136.8057110 124.0311273  79.7591856 131.9872662
 123.1061769  79.6268070 132.1950354 124.2795686  80.5386075 132.4842604
 133.9795935  75.8260599 133.6333395 133.0712812  75.7576007 133.3392156
 133.9283531  76.3032544 134.4615220 127.8012679  77.3018737 125.2716794
 127.6812304  77.7475788 126.1102274 127.1065267  77.6504055 124.7130332
 121.3920084  79.4025129 132.8216451 121.5212465  79.6559608 133.7355863
 120.7117535  79.9952837 132.5021106 125.5619571  90.0722379 128.9206925
 125.4843601  91.0230204 128.9995406 124.9581215  89.7268252 129.5781852
 128.0536801  77.2450245 141.5768292 127.2770135  77.8044165 141.5671157
 128.6927364  77.7307028 142.0983162 135.8457582  74.0277037 135.4111269
 135.2031962  74.3209571 134.7651063 135.3412510  73.9129958 136.2164466
 133.4997745  77.7740211 126.0997128 134.4115601  78.0067597 125.9244826
 132.9907392  78.3577255 125.5372207 126.3083173  80.0535698 141.1386259
 127.0497858  80.5920742 140.8621083 125.6020159  80.6801987 141.2957811
 131.7838513  82.1964838 139.7358421 132.1921869  81.7547249 138.9913053
 131.0615774  81.6217466 139.9892614 128.1369583  77.1337445 137.1091978
 128.9830778  77.5576859 137.2526627 128.0768221  76.4771070 137.8030541
 132.1067328  82.7566029 133.4910710 131.4776190  82.9211743 132.7886777
 131.7192990  83.1707639 134.2621674 135.9856559  83.6920467 130.8455073
 135.3007598  84.0719368 130.2952107 136.0700409  84.3015794 131.5787021
 131.2869028  74.7941814 138.7673151 131.0429960  75.5483874 138.2307427
 131.5628959  75.1727161 139.6020398 133.2407491  81.3380426 137.4450417
 133.4524386  81.9812186 136.7684798 133.1937239  80.5042743 136.9772347
 130.8433720  73.9498247 134.3486989 129.9818199  74.2479500 134.6403727
 130.8696155  74.1668646 133.4168022 127.6595289  82.4940437 130.7560795
 128.1233635  82.7728140 129.9665417 127.3952087  81.5923882 130.5733885
 124.5519370  82.0411919 133.6940558 125.1220728  82.4699187 133.0558042
 125.1427482  81.7594503 134.3924744 126.5964175  78.6163590 127.5650360
 127.2988219  79.0684633 128.0324286 126.2644804  77.9747408 128.1930253
 125.0444537  77.2075346 141.9401569 124.4143198  77.8891627 142.1736966
 124.9380625  77.0958428 140.9954707 120.3389509  76.8747142 132.8667493
 119.5488563  77.1304671 132.3907604 120.8300757  77.6895480 132.9719534
 134.3553319  84.2152381 135.6172774 135.1770763  83.8132569 135.3355456
 134.3515722  84.1120616 136.5688890 122.2904255  77.2391721 129.8250970
 121.4935418  77.3510416 130.3434466 122.0629847  77.5778374 128.9591861
 128.1209922  83.7636425 137.7733485 128.1854355  84.2256832 138.6091657
 127.4120846  83.1333790 137.9015795 118.6227212  77.1277633 135.2982484
 118.8735251  78.0124643 135.5640060 119.1586761  76.9482234 134.5257576
 142.4459312  80.5591130 131.9657746 141.6923020  79.9898528 131.8101750
 142.5806853  80.5253794 132.9128380 127.8357940  85.4304532 127.6412465
 127.7003615  86.2756068 128.0697313 128.3767753  85.6323810 126.8778399
 124.3225280  71.5096112 144.3026820 123.9292225  70.9562311 144.9774464
 125.1391420  71.8206691 144.6933338 121.2887337  82.9479970 128.2140390
 121.8011858  83.7423220 128.3645955 121.9410050  82.2506261 128.1473992
 123.0982222  86.0645727 130.2963143 123.2748850  86.9863691 130.1084127
 123.8939056  85.7504146 130.7257523 127.2393241  72.9253991 141.8947077
 127.9802954  73.5261144 141.8151539 127.4711164  72.1831629 141.3365119
 122.3834579  78.1110358 140.1725307 122.2688094  77.2095616 140.4732405
 121.5279096  78.3574055 139.8210123 129.4626416  86.0528099 141.7712807
 129.0190271  85.2664477 141.4533712 130.1243630  86.2407249 141.1056698
 124.2213538  87.5823900 136.2973486 124.7720963  87.4540964 135.5250480
 123.3825014  87.8818789 135.9468378 131.5607655  86.3330899 139.7994208
 131.5426130  87.1539780 139.3074478 132.4827575  86.2084974 140.0244350
 128.0180709  83.8475028 140.6417717 128.5509045  83.0863316 140.4117025
 127.4894790  83.5548680 141.3841871 131.1850404  68.9535094 136.1711359
 130.8414673  69.8436736 136.0950469 131.5529366  68.7636752 135.3080944
 119.2536254  81.2768625 128.9899961 120.0911476  81.6865633 128.7733668
 119.4314522  80.3368067 128.9600155 131.1500686  78.9443705 124.6783794
 130.6347310  79.7148310 124.9172181 130.8777995  78.2708841 125.3016855
 128.7347797  73.7893406 129.7369032 127.8789394  73.4000256 129.5574671
 129.1474749  73.8685367 128.8768818 130.2646944  71.3239749 134.1360592
 129.7611740  71.2869884 133.3228397 130.5577551  72.2332492 134.1957248
 126.5089830  71.4078479 133.1426773 127.3742827  71.2121288 132.7832663
 126.5767339  71.1788831 134.0696130 136.1234960  81.6976060 126.6136967
 135.3464403  81.3587219 126.1692129 136.8026441  81.7028683 125.9391932
 130.9386990  76.8170797 126.5043575 130.6337125  77.1316946 127.3553718
 131.8917432  76.8952217 126.5470908 129.3833421  82.9761021 128.1536529
 128.8554783  82.2413780 127.8409766 128.8820924  83.7535697 127.9076497
 134.3626267  81.1710041 133.2703575 133.7049942  81.8609302 133.3583704
 135.1666667  81.5606473 133.6137561 124.1152149  73.6380687 130.5143140
 124.6895901  73.4155868 129.7816333 124.7023131  73.7069381 131.2671742
 133.1731726  79.5254414 131.3207517 133.6863608  80.1584406 131.8229227
 133.8232950  78.9255609 130.9550877 124.4421736  75.6685148 124.5339026
 123.6059048  76.0059834 124.8548300 124.3026506  75.5334128 123.5966163
 126.4174817  70.5121936 129.2418210 125.7639229  70.1970953 128.6174824
 126.3755291  69.8897676 129.9678033 127.5286022  80.7941231 121.1571502
 126.6213083  80.5630484 121.3562651 128.0257054  79.9978850 121.3445483
 130.4354100  89.5038738 124.0768188 129.7615799  89.8070435 124.6853146
 130.8219922  90.3067818 123.7273645 129.6512557  77.0003869 133.5665857
 128.7335118  77.2218816 133.4087545 130.0672701  77.0750180 132.7077565
 130.4347605  78.3995285 128.6968538 131.1819424  78.9116682 128.3875660
 130.7039194  78.0779338 129.5572931 128.7074255  80.8953826 125.6795492
 127.7985474  80.6112859 125.7767962 128.7369339  81.3152904 124.8198799
 133.9393522  84.5060415 129.4486659 133.4855850  83.6651325 129.5051850
 133.3087489  85.1421814 129.7861440 132.8826442  75.4352401 130.6787327
 132.1449199  74.9229787 131.0097569 133.1353216  74.9952783 129.8670604
 132.3826462  86.3436912 130.3836478 132.6749436  86.9041969 129.6648843
 132.8925082  86.6365473 131.1389637 132.9838069  68.2128653 131.2729096
 133.2896946  67.3526017 130.9855011 133.7090674  68.8046273 131.0728090
 119.2762425  78.6159340 129.6610694 119.0786825  78.0228701 128.9361761
 118.7209089  78.3111550 130.3786633 127.2559149  78.5082446 131.7805287
 127.3107759  77.5556283 131.7047764 126.4450351  78.6641885 132.2646586
 128.4050343  82.4362569 123.0183570 127.9669773  81.7198428 122.5589208
 129.1460784  82.6638684 122.4568662 125.1951509  77.1259506 129.5395666
 124.3819374  77.4253677 129.9460858 125.6910503  76.7315195 130.2570148
 127.3460087  87.1217263 131.4729931 127.3036266  87.3478109 130.5438463
 128.2622786  86.8880638 131.6215732 130.7925721  77.5901331 138.3710560
 131.1475108  77.8172804 139.2305026 131.4397852  77.9219707 137.7487815
 136.5223458  80.7119766 129.0759889 136.3841356  80.9021362 128.1481078
 136.1659676  81.4739149 129.5327940 124.6865584  74.6977862 135.1556901
 125.3264963  74.5566621 134.4579864 123.8543114  74.4112375 134.7795503
 136.5492837  82.7796293 134.0871161 136.9829344  82.6871583 134.9354215
 137.2624418  82.7553794 133.4491177 125.4625888  83.9980292 131.2691894
 126.2566486  83.5030612 131.0674468 124.7517580  83.4698155 130.9059599
 130.2820732  86.3798388 135.6204261 130.3357754  86.9489324 136.3881977
 129.4135513  86.5500273 135.2558298 121.7708651  78.1423374 127.3451646
 120.8406239  78.0807829 127.5621608 121.8666123  77.6199327 126.5488287
 121.6894200  74.6678187 129.9329888 121.9501017  75.5823520 129.8239048
 122.5111372  74.2002629 130.0826501 123.1619125  76.0815944 137.1028712
 123.8342179  75.8733306 136.4541361 122.3348912  75.8838030 136.6633945
 137.4108387  82.8219994 136.6204046 137.6044277  83.7265805 136.8663321
 137.3109005  82.3627413 137.4542631 129.0644697  72.7077885 139.1194373
 128.4172613  73.4067834 139.0258850 129.8345713  73.1414029 139.4870621
 132.4723495  82.9726737 142.1944927 132.3209002  82.7437289 141.2775010
 132.4628175  83.9297338 142.2076272 129.2408832  80.5458650 137.1791193
 130.1700892  80.6969809 137.0060160 128.8199862  80.6342670 136.3239840
 128.0397164  84.5709314 134.9489731 127.9008249  84.2028098 135.8215669
 127.2511760  85.0856953 134.7773688 128.6345316  89.6718410 126.2915267
 128.8097071  89.2006454 127.1060890 127.9478104  90.2984177 126.5196528
 129.5902379  83.9490917 132.3378568 129.2552211  83.9091687 133.2336218
 129.0906324  83.2835633 131.8648979 123.5646623  79.3558547 137.8631150
 123.4266421  78.6238786 138.4642689 124.4751546  79.2667447 137.5815337
 132.5261570  81.2946951 122.6115628 131.9090741  80.5693779 122.5148681
 132.0578059  82.0556311 122.2682702 126.1928923  79.0678506 137.3514829
 126.9028542  78.4271698 137.3101448 126.1498232  79.3191401 138.2741010
 134.1815702  86.0045859 140.2721408 134.1228248  85.3205080 139.6051991
 134.5835220  86.7464849 139.8202034 124.9057857  76.0543724 139.1710469
 124.3695214  75.6034462 139.8232065 124.3174566  76.1889633 138.4280933
 123.2006401  92.8207773 133.0655127 123.4402999  93.4526297 133.7434146
 122.3575597  92.4695813 133.3520487 124.3160116  75.5132375 121.7336932
 123.4389583  75.3921176 121.3699179 124.7917869  74.7218454 121.4815821
 134.1833109  83.9685443 138.5035388 133.2959888  83.6311365 138.6261787
 134.7531660  83.2368475 138.7404153 115.8362256  80.3009535 131.8278439
 116.5233296  79.9871265 131.2399455 115.6810385  81.2050900 131.5545691
 120.6396979  75.1899732 136.2563463 120.5555167  74.5825401 135.5213873
 119.8179685  75.6808750 136.2572960 127.7134263  88.6286896 135.4696631
 127.6404434  89.4341867 135.9815936 127.2711656  88.8278861 134.6444653
 127.5024042  87.8658666 128.9799453 126.7191564  88.4080346 129.0737677
 128.2016788  88.3832645 129.3793694 130.8120692  73.6753295 131.6233658
 131.3089392  72.9223257 131.3034728 130.0407674  73.7117612 131.0576868
 138.6650450  79.3793661 133.2651950 138.6540326  80.2618376 132.8945883
 137.7967829  79.0265212 133.0706487 130.1732946  88.5273730 137.6254790
 130.8860918  89.1621195 137.5530691 129.6822975  88.6237596 136.8094792
 131.8950473  82.4324982 129.1972082 130.9606752  82.5526445 129.0276786
 132.0727142  81.5297449 128.9332091 127.3955661  75.8170678 131.3505343
 127.0253449  75.2641719 132.0386248 127.8914754  75.2128812 130.7980343
 135.2823025  78.2742302 129.7322116 135.7483477  79.1070293 129.6582418
 135.7330525  77.8087283 130.4367374 125.2244860  86.2768173 138.4460361
 125.9254319  86.9104656 138.5989755 124.7539975  86.6182905 137.6856000
 133.3499256  84.6186123 126.7308268 133.6259100  84.5042718 127.6402142
 132.4803754  84.2203608 126.6920441 133.2539687  70.6422889 133.7713017
 132.3402767  70.8727115 133.9395224 133.6832789  70.7261333 134.6227049
 133.0246146  78.8312781 136.2712911 132.3717596  79.0788688 135.6165364
 133.4026526  78.0176919 135.9375388 129.9853320  88.8672474 130.3741081
 130.1675714  88.0494130 130.8368834 130.8086306  89.0840166 129.9365971
 130.3195485  87.7940659 127.6356130 130.8483252  87.2833114 127.0226292
 130.5823705  87.4783189 128.5001663 129.0733719  79.5732592 142.7578948
 128.3974356  79.4726721 143.4281323 129.8961353  79.4171805 143.2214945
 120.8212578  85.8104528 135.3791463 121.4066015  85.0648216 135.5119368
 120.6237416  86.1208485 136.2628127 123.6751233  88.8455776 130.3953906
 123.0061608  89.3301903 129.9117946 123.5364103  89.0924996 131.3097284
 115.4130233  78.3810128 134.0995907 115.4514332  77.8473719 134.8933025
 114.9070525  77.8545334 133.4806884 127.8156502  90.8799519 136.9936564
 128.3674810  91.0431141 137.7585649 128.1562695  91.4703957 136.3216589
 122.7920995  73.2274669 137.5958449 122.8562321  74.0889500 137.1835847
 122.7288115  72.6148671 136.8630807 122.2673267  75.2997801 141.2431483
 122.8945306  74.9174879 141.8569007 121.4101186  75.0812003 141.6087176
 132.6667376  85.7060777 142.8485219 133.2107280  86.3190735 142.3540173
 132.0854221  86.2640355 143.3652232 119.0438810  77.1074231 127.1749838
 119.3392251  76.1984909 127.1216892 118.1426846  77.0861970 126.8530840
 130.9524889  88.8281495 133.9800246 130.8276028  88.0271234 133.4711192
 131.6103980  89.3227688 133.4914216 122.5733057  75.1830227 133.1577387
 121.8519643  75.7966195 133.0184860 123.3626313  75.7187992 133.0794033
 133.0159797  86.6290515 135.6079796 132.0690133  86.5095866 135.5358123
 133.3642570  85.7413013 135.6906058 125.3759371  72.5184654 139.4318038
 125.8993772  72.7646950 140.1944348 125.1571704  73.3504688 139.0121176
 120.7726652  74.7888328 127.2989163 120.4439358  73.9085707 127.1164269
 121.1266022  74.7335997 128.1865552 130.0206231  86.4243231 131.8084149
 129.8731193  85.4959938 131.9891719 130.8459724  86.4463322 131.3241224
 123.8868475  75.0761298 127.6664641 124.2264547  75.6047219 126.9443249
 124.3340595  75.4141704 128.4423207 133.6240352  87.2471790 132.8949021
 134.5486900  87.0414651 132.7573473 133.4555656  86.9988191 133.8038363
 126.5811916  73.4598349 137.1167709 126.2408736  72.6606162 137.5188389
 125.8750922  73.7600060 136.5444542 127.2328388  70.5447661 135.5695032
 128.0554457  70.0708139 135.4473922 127.4766451  71.3238145 136.0693718
 125.8736622  73.5735920 125.8657934 126.5944985  73.9517172 125.3621650
 125.2501926  74.2924796 125.9692912 130.0167745  74.2781069 126.8016266
 130.2331359  75.1605706 126.5005094 129.5361812  73.8867282 126.0721908
 124.7566966  77.2366782 133.3787011 124.6111547  77.5507085 134.2711292
 124.2792170  77.8551682 132.8257909 126.6163349  74.2269330 133.4267900
 126.6024918  73.3310423 133.0900198 127.3335777  74.2339994 134.0606186
 128.4689480  74.6606670 135.4721028 128.2107258  75.5823741 135.4705358
 127.9374520  74.2637105 136.1621492 133.4135669  87.7657457 128.2511113
 133.5872546  87.2003880 127.4984965 133.9064560  88.5658352 128.0690603
 119.2312628  79.7772126 136.3174672 118.6866097  80.5531934 136.4494946
 120.1091978  80.1242931 136.1593793 126.0200245  73.1083710 128.6955470
 126.1416156  72.1800356 128.8946358 125.7302287  73.1222396 127.7833786
 128.8891436  70.7938621 131.8322190 128.9113132  70.8577954 130.8774170
 129.3059495  69.9543129 132.0262696 139.2675060  80.5293880 129.8701413
 139.7106206  79.7801205 129.4720536 138.3901570  80.5204016 129.4875145
 134.4010841  87.0824222 125.3508011 135.0961746  87.7030914 125.5695326
 134.7433991  86.2319573 125.6260389 120.0178650  78.9042022 139.2104829
 119.2760386  79.0524658 139.7969459 119.6971395  79.1650288 138.3471578
 136.3002264  84.5323927 126.8795342 136.8253588  84.8711200 126.1544662
 136.2124617  83.5970942 126.6958477 127.9622313  88.4458001 139.0085219
 128.2709439  88.2007147 139.8807918 128.7597795  88.6504639 138.5204089
 127.9842925  90.5995910 131.2390595 127.5447915  90.1072289 131.9323452
 128.7351042  90.0568878 130.9982670 120.4635264  86.7907451 131.2415223
 121.2893284  86.4911223 130.8613867 120.1129316  86.0215074 131.6905012
 125.4316797  86.1433919 133.3112897 124.8096806  85.4804624 133.0115125
 126.1021664  86.1695051 132.6286545 118.6643869  84.7093778 132.2004157
 117.8275777  84.2815952 132.0188158 118.6367514  84.9026221 133.1374948
 125.5041325  74.6215707 142.9045403 125.5529480  75.4977830 142.5223172
 126.0463839  74.0793101 142.3317046 135.9896170  85.1656831 142.1846540
 135.1991714  85.1480970 141.6451039 135.7529525  85.7045124 142.9395576
 136.1094045  82.0149297 139.4979268 136.1592050  81.8499305 140.4394791
 136.0007969  81.1476556 139.1077149 124.9930304  84.6937843 126.7871357
 125.1418424  85.3773307 126.1338030 125.7996748  84.6742933 127.3020813
 133.3997808  77.9980225 140.8138575 134.3007671  77.8586690 140.5222573
 133.4745782  78.1634680 141.7536753 127.7340613  75.3747080 139.6591761
 126.8643923  75.6680646 139.3874350 127.9700093  75.9587525 140.3799025
 137.6112242  84.4346239 139.7421290 137.3197051  84.7976219 140.5784751
 136.9984374  83.7213247 139.5634622 138.8107925  81.9999118 132.2623860
 139.6454816  82.4388922 132.4261421 138.9467053  81.5237772 131.4432106
 135.8599430  79.5578853 138.2101348 136.3353552  79.7506500 137.4020199
 134.9364996  79.6138039 137.9644732 122.7482937  80.7203020 127.7932426
 122.5028979  79.8165350 127.9912636 122.9178852  80.7220171 126.8511904
 130.4379647  71.5926697 137.1757182 130.9561591  72.3287724 136.8503670
 130.0834780  71.8990690 138.0103941 122.0178585  76.4531378 125.2918588
 121.3247830  76.5275733 124.6358624 121.7730337  75.6891722 125.8140105
 130.6892241  68.0126979 132.6958078 130.9693995  67.3450168 133.3218505
 131.4742848  68.2056075 132.1832742 128.4925710  87.1885973 124.2583105
 127.9199677  87.8076160 123.8053577 129.0658503  87.7385335 124.7923027
 134.5601099  76.4344613 136.4429654 135.5118522  76.5342711 136.4641878
 134.3904550  75.6422882 136.9527738 132.5815479  73.5200197 136.6289054
 131.9865411  73.8005209 135.9335543 132.2965176  74.0094097 137.4005796
 131.7122969  87.4723123 125.3891687 132.6453643  87.4068685 125.5924563
 131.6246182  88.3079390 124.9306220 134.3410986  86.7888994 122.3495635
 134.2624618  86.4548857 123.2431393 135.1620653  87.2810762 122.3487107
 137.0389177  79.6550733 135.5571953 137.0065497  78.7166734 135.7431637
 137.6489801  79.7334770 134.8237778 128.8772508  78.5246786 121.5999157
 129.8231613  78.3952994 121.6687575 128.4986753  77.7861448 122.0768585
 137.1883666  76.4461776 135.6030236 136.6722714  75.6620233 135.4160165
 138.0723614  76.1180493 135.7676756 134.8494393  70.1902792 131.5626049
 134.6519214  69.8817880 132.4469381 135.4594098  70.9164431 131.6923979
 142.8565727  80.7166740 134.6977990 143.5869116  80.4552028 135.2585693
 142.2472673  79.9795462 134.7380058 140.9381024  78.8574602 135.2952441
 140.2114188  78.7230567 134.6868933 140.5228311  79.1651431 136.1009159
 128.7611201  82.5764532 143.0599814 129.6814210  82.7543131 143.2539861
 128.7260784  81.6320577 142.9079514 127.0615425  76.4496762 121.5354042
 126.1546881  76.1529875 121.6116756 127.3391406  76.1526580 120.6688329
 117.9793366  77.7703126 131.9853089 117.6596150  76.9168434 131.6927463
 117.4326794  77.9851704 132.7411056 121.7573273  80.4865567 135.7022595
 121.9759283  81.4182675 135.7210629 122.1699047  80.1273541 136.4877399
 128.6777491  70.9933652 127.6898284 127.8678219  70.6480737 128.0653530
 129.3661908  70.6841196 128.2785895 130.6068039  70.0711699 129.3122580
 131.1599078  70.4907152 129.9712604 130.8438126  69.1447447 129.3545536
 126.6301139  76.0598773 145.0925344 126.5297865  77.0093129 145.0237435
 126.4122681  75.7317011 144.2201414 125.8314210  73.3083698 121.6766022
 126.6933374  73.6338596 121.9361839 126.0164554  72.5215193 121.1639087
 117.8481626  81.3906037 133.9546210 117.1545097  80.9759990 133.4416165
 118.5954617  81.4326574 133.3579629 133.9846846  72.1812224 128.8201245
 133.4045515  72.8397028 128.4379297 133.7182779  71.3589569 128.4088662
 132.4350413  71.5817282 131.0222565 132.9350191  71.6933816 130.2136884
 133.0786021  71.2778335 131.6623373 126.4932409  79.4895911 143.9090406
 126.0099490  80.2896271 144.1154295 126.5793348  79.5003856 142.9557850
 119.7618368  81.3224291 131.8312225 119.7389056  81.4211978 130.8794108
 120.0719005  82.1689442 132.1529391 122.4205746  83.3800446 135.9458840
 123.3749000  83.3484388 135.8788771 122.2218270  82.9191070 136.7609066
 123.0105128  81.9501562 138.5129637 123.8298017  82.4445641 138.5364475
 123.2841936  81.0333530 138.4847205 132.7671724  74.3412314 127.8757593
 131.8797579  74.6261965 127.6577788 133.1825713  74.1806078 127.0284870
 136.1186261  74.3658835 131.5911932 136.8946651  74.8555288 131.8636549
 135.3934395  74.7916890 132.0483802 138.5558819  75.0786455 132.6485873
 139.1503310  74.8382191 131.9379181 138.6285403  74.3593585 133.2759409
 120.7755975  88.9220066 132.9629038 120.6410443  88.1620466 132.3967036
 120.3588037  89.6460965 132.4957827 131.9114938  84.1056989 121.9705613
 132.6150788  84.3106992 122.5863269 131.1877587  84.6733751 122.2354696
 132.7412748  79.8566850 128.0907883 132.6847950  80.3135402 127.2515516
 133.2941091  79.0957535 127.9130726 136.5517554  75.6456582 128.9158003
 136.2954488  75.2453218 129.7466210 135.9270422  76.3600376 128.7908142
 140.8629892  78.3852655 131.4229294 140.3029450  78.4545845 132.1960856
 140.2573395  78.2093640 130.7028790 123.9325101  89.8189383 133.1747480
 123.8157485  90.7634815 133.0726171 123.1117547  89.5162944 133.5633279
 133.8201635  84.5439518 124.0204073 134.6547239  84.1120717 123.8381548
 133.6585978  84.3721532 124.9480967 133.4747527  81.0471632 125.3860412
 133.4196331  80.8815903 124.4448856 132.8493583  81.7547665 125.5422602
 118.2640042  76.2839696 139.2121834 118.9098906  75.7738650 139.7009060
 118.0557194  77.0208378 139.7865260 130.7893435  83.3520543 144.7113975
 131.6584594  83.5261196 144.3500610 130.3100186  84.1714960 144.5889704
 126.7843653  70.5479741 124.9645731 126.7722323  71.4921581 125.1214002
 127.6767075  70.3649886 124.6705192 124.9579615  90.4717644 136.3903409
 125.8606862  90.5041255 136.7069904 124.7316985  89.5418095 136.4049744
 126.7133217  89.2248631 133.0513487 125.7628848  89.2250493 132.9377860
 127.0165703  88.4781366 132.5349522 130.5995772  67.1422517 129.2191667
 129.8328168  66.5881004 129.3648350 131.0106477  67.2144386 130.0805819
 122.6037533  73.4307313 143.3096849 123.4668995  73.0744118 143.5200173
 122.0302944  73.0921208 143.9972253 142.4485910  95.0609169 134.1159250
 143.0864320  94.9415917 133.4122590 142.3306753  96.0090013 134.1747202
 139.2575617  95.0136598 134.0520774 138.9194128  94.8977662 133.1641309
 140.1265385  94.6127763 134.0321781 135.1162432  96.8672074 130.0417665
 134.5527297  96.7762011 129.2733953 135.0014827  96.0471978 130.5220158
 139.7395400  96.1671449 140.0106980 139.7284040  95.7724248 139.1387484
 139.9016039  95.4337522 140.6040751 132.6626864  98.3623266 132.8801886
 133.4548156  98.0214090 132.4648185 132.9023514  98.4718241 133.8004039
 140.6961991 100.5343042 125.3532130 140.0449971 101.1197122 124.9666144
 141.4906354 101.0649237 125.4127168 134.6217618  97.6232179 125.7519265
 135.3948494  97.0761166 125.6132140 134.9743017  98.4876428 125.9633726
 136.4602661  98.9508561 138.9586164 136.1692527  99.8554192 138.8432830
 137.0959645  98.9925089 139.6730233 137.3858868  96.3285410 135.5487524
 137.9822440  96.1041432 134.8344487 137.4433839  95.5870155 136.1512971
 136.9583896  93.7824845 123.3837715 137.2109417  93.2606366 122.6221178
 136.0208455  93.6190990 123.4864398 142.0027179  92.7860623 131.1912458
 142.7890268  92.3680046 130.8402875 142.2665883  93.6906715 131.3594106
 142.1737256  98.2233474 125.8901115 141.5383089  98.2968100 126.6022019
 141.8434663  98.8127072 125.2120194 147.4035606  92.7235856 132.0945436
 148.1360778  92.1535073 132.3283266 146.6474962  92.3357457 132.5351942
 136.6780185  95.6852951 125.5862089 136.5616443  95.0097854 126.2543174
 136.7882445  95.1985325 124.7694243 139.0211726  95.1463098 129.2908779
 138.6569933  94.6193719 130.0021700 139.8778842  94.7561567 129.1175264
 144.9261026  86.4357431 136.5540045 144.5944351  87.3052842 136.3301260
 144.3306640  86.1193715 137.2334075 138.6617213  90.1752998 124.2870127
 138.8291615  91.0433234 124.6540598 138.4714382  90.3380279 123.3631416
 141.4192546  98.6369977 135.9535958 141.1193269  99.5395015 135.8451765
 141.0743605  98.3702160 136.8057110 134.8705027  95.0883773 131.9872662
 133.9455524  94.9559988 132.1950354 135.1189441  95.8677993 132.4842604
 144.8189690  91.1552517 133.6333395 143.9106567  91.0867925 133.3392156
 144.7677285  91.6324462 134.4615220 138.6406434  92.6310655 125.2716794
 138.5206059  93.0767706 126.1102274 137.9459022  92.9795973 124.7130332
 132.2313838  94.7317047 132.8216451 132.3606220  94.9851526 133.7355863
 131.5511290  95.3244755 132.5021106 136.4013326 105.4014297 128.9206925
 136.3237355 106.3522122 128.9995406 135.7974969 105.0560169 129.5781852
 138.8930555  92.5742162 141.5768292 138.1163889  93.1336082 141.5671157
 139.5321118  93.0598945 142.0983162 146.6851336  89.3568955 135.4111269
 146.0425716  89.6501488 134.7651063 146.1806265  89.2421875 136.2164466
 144.3391500  93.1032128 126.0997128 145.2509356  93.3359515 125.9244826
 143.8301147  93.6869173 125.5372207 137.1476928  95.3827616 141.1386259
 137.8891612  95.9212660 140.8621083 136.4413913  96.0093904 141.2957811
 142.6232267  97.5256756 139.7358421 143.0315623  97.0839167 138.9913053
 141.9009529  96.9509384 139.9892614 138.9763337  92.4629363 137.1091978
 139.8224533  92.8868776 137.2526627 138.9161975  91.8062987 137.8030541
 142.9461082  98.0857947 133.4910710 142.3169944  98.2503661 132.7886777
 142.5586744  98.4999556 134.2621674 146.8250314  99.0212385 130.8455073
 146.1401352  99.4011286 130.2952107 146.9094163  99.6307711 131.5787021
 142.1262783  90.1233731 138.7673151 141.8823715  90.8775792 138.2307427
 142.4022713  90.5019079 139.6020398 144.0801246  96.6672344 137.4450417
 144.2918141  97.3104104 136.7684798 144.0330994  95.8334660 136.9772347
 141.6827474  89.2790164 134.3486989 140.8211954  89.5771418 134.6403727
 141.7089909  89.4960563 133.4168022 138.4989044  97.8232355 130.7560795
 138.9627389  98.1020058 129.9665417 138.2345842  96.9215799 130.5733885
 135.3913125  97.3703836 133.6940558 135.9614482  97.7991105 133.0558042
 135.9821237  97.0886421 134.3924744 137.4357930  93.9455507 127.5650360
 138.1381973  94.3976551 128.0324286 137.1038558  93.3039326 128.1930253
 135.8838291  92.5367264 141.9401569 135.2536952  93.2183545 142.1736966
 135.7774379  92.4250345 140.9954707 131.1783264  92.2039060 132.8667493
 130.3882318  92.4596588 132.3907604 131.6694511  93.0187398 132.9719534
 145.1947073  99.5444299 135.6172774 146.0164517  99.1424486 135.3355456
 145.1909476  99.4412533 136.5688890 133.1298009  92.5683639 129.8250970
 132.3329173  92.6802333 130.3434466 132.9023601  92.9070291 128.9591861
 138.9603677  99.0928342 137.7733485 139.0248109  99.5548750 138.6091657
 138.2514601  98.4625707 137.9015795 129.4620967  92.4569550 135.2982484
 129.7129005  93.3416560 135.5640060 129.9980515  92.2774152 134.5257576
 153.2853067  95.8883048 131.9657746 152.5316775  95.3190446 131.8101750
 153.4200608  95.8545712 132.9128380 138.6751695 100.7596450 127.6412465
 138.5397369 101.6047986 128.0697313 139.2161507 100.9615728 126.8778399
 135.1619034  86.8388030 144.3026820 134.7685980  86.2854228 144.9774464
 135.9785175  87.1498608 144.6933338 132.1281092  98.2771888 128.2140390
 132.6405613  99.0715138 128.3645955 132.7803805  97.5798178 128.1473992
 133.9375977 101.3937644 130.2963143 134.1142605 102.3155609 130.1084127
 134.7332810 101.0796063 130.7257523 138.0786995  88.2545909 141.8947077
 138.8196709  88.8553062 141.8151539 138.3104918  87.5123547 141.3365119
 133.2228333  93.4402276 140.1725307 133.1081848  92.5387533 140.4732405
 132.3672851  93.6865973 139.8210123 135.0607292 102.9115818 136.2973486
 135.6114717 102.7832881 135.5250480 134.2218768 103.2110707 135.9468378
 138.8574463  99.1766946 140.6417717 139.3902800  98.4155234 140.4117025
 138.3288544  98.8840598 141.3841871 142.0244158  84.2827012 136.1711359
 141.6808428  85.1728653 136.0950469 142.3923121  84.0928669 135.3080944
 130.0930009  96.6060542 128.9899961 130.9305231  97.0157551 128.7733668
 130.2708276  95.6659984 128.9600155 141.9894441  94.2735623 124.6783794
 141.4741064  95.0440227 124.9172181 141.7171749  93.6000759 125.3016855
 139.5741552  89.1185324 129.7369032 138.7183148  88.7292174 129.5574671
 139.9868504  89.1977284 128.8768818 141.1040699  86.6531667 134.1360592
 140.6005494  86.6161802 133.3228397 141.3971305  87.5624410 134.1957248
 137.3483584  86.7370397 133.1426773 138.2136581  86.5413205 132.7832663
 137.4161093  86.5080748 134.0696130 146.9628715  97.0267978 126.6136967
 146.1858158  96.6879137 126.1692129 147.6420196  97.0320601 125.9391932
 141.7780744  92.1462715 126.5043575 141.4730880  92.4608864 127.3553718
 142.7311186  92.2244135 126.5470908 140.2227176  98.3052938 128.1536529
 139.6948537  97.5705698 127.8409766 139.7214679  99.0827615 127.9076497
 145.2020022  96.5001959 133.2703575 144.5443696  97.1901220 133.3583704
 146.0060421  96.8898391 133.6137561 134.9545903  88.9672605 130.5143140
 135.5289655  88.7447786 129.7816333 135.5416886  89.0361299 131.2671742
 144.0125481  94.8546331 131.3207517 144.5257362  95.4876323 131.8229227
 144.6626705  94.2547527 130.9550877 135.2815491  90.9977066 124.5339026
 134.4452803  91.3351752 124.8548300 135.1420260  90.8626045 123.5966163
 137.2568571  85.8413853 129.2418210 136.6032984  85.5262871 128.6174824
 137.2149045  85.2189594 129.9678033 138.3679776  96.1233149 121.1571502
 137.4606838  95.8922402 121.3562651 138.8650808  95.3270768 121.3445483
 141.2747855 104.8330656 124.0768188 140.6009554 105.1362352 124.6853146
 141.6613677 105.6359736 123.7273645 140.4906312  92.3295787 133.5665857
 139.5728873  92.5510734 133.4087545 140.9066455  92.4042097 132.7077565
 141.2741359  93.7287203 128.6968538 142.0213178  94.2408600 128.3875660
 141.5432949  93.4071255 129.5572931 139.5468009  96.2245743 125.6795492
 138.6379229  95.9404776 125.7767962 139.5763093  96.6444822 124.8198799
 144.7787277  99.8352333 129.4486659 144.3249604  98.9943243 129.5051850
 144.1481244 100.4713731 129.7861440 143.7220196  90.7644319 130.6787327
 142.9842953  90.2521705 131.0097569 143.9746970  90.3244701 129.8670604
 143.2220216 101.6728830 130.3836478 143.5143191 102.2333887 129.6648843
 143.7318837 101.9657391 131.1389637 143.8231824  83.5420571 131.2729096
 144.1290701  82.6817934 130.9855011 144.5484429  84.1338191 131.0728090
 130.1156180  93.9451258 129.6610694 129.9180580  93.3520618 128.9361761
 129.5602844  93.6403468 130.3786633 138.0952904  93.8374364 131.7805287
 138.1501513  92.8848200 131.7047764 137.2844106  93.9933803 132.2646586
 139.2444097  97.7654487 123.0183570 138.8063527  97.0490346 122.5589208
 139.9854538  97.9930602 122.4568662 136.0345263  92.4551424 129.5395666
 135.2213129  92.7545594 129.9460858 136.5304258  92.0607113 130.2570148
 138.1853841 102.4509181 131.4729931 138.1430020 102.6770027 130.5438463
 139.1016540 102.2172555 131.6215732 141.6319475  92.9193248 138.3710560
 141.9868863  93.1464721 139.2305026 142.2791606  93.2511625 137.7487815
 147.3617212  96.0411684 129.0759889 147.2235111  96.2313280 128.1481078
 147.0053431  96.8031067 129.5327940 135.5259338  90.0269779 135.1556901
 136.1658718  89.8858538 134.4579864 134.6936869  89.7404293 134.7795503
 147.3886592  98.1088211 134.0871161 147.8223098  98.0163500 134.9354215
 148.1018172  98.0845712 133.4491177 136.3019642  99.3272210 131.2691894
 137.0960241  98.8322530 131.0674468 135.5911334  98.7990073 130.9059599
 141.1214487 101.7090305 135.6204261 141.1751509 102.2781242 136.3881977
 140.2529268 101.8792190 135.2558298 132.6102406  93.4715291 127.3451646
 131.6799994  93.4099747 127.5621608 132.7059878  92.9491244 126.5488287
 132.5287955  89.9970104 129.9329888 132.7894772  90.9115438 129.8239048
 133.3505127  89.5294547 130.0826501 134.0012880  91.4107861 137.1028712
 134.6735933  91.2025224 136.4541361 133.1742666  91.2129947 136.6633945
 148.2502141  98.1511912 136.6204046 148.4438031  99.0557722 136.8663321
 148.1502759  97.6919331 137.4542631 139.9038452  88.0369802 139.1194373
 139.2566367  88.7359752 139.0258850 140.6739467  88.4705946 139.4870621
 140.0802586  95.8750567 137.1791193 141.0094646  96.0261727 137.0060160
 139.6593616  95.9634588 136.3239840 138.8790918  99.9001232 134.9489731
 138.7402004  99.5320016 135.8215669 138.0905514 100.4148871 134.7773688
 139.4739070 105.0010328 126.2915267 139.6490826 104.5298371 127.1060890
 138.7871858 105.6276094 126.5196528 140.4296133  99.2782834 132.3378568
 140.0945966  99.2383604 133.2336218 139.9300079  98.6127550 131.8648979
 134.4040377  94.6850464 137.8631150 134.2660175  93.9530703 138.4642689
 135.3145301  94.5959365 137.5815337 143.3655325  96.6238869 122.6115628
 142.7484496  95.8985697 122.5148681 142.8971813  97.3848229 122.2682702
 137.0322678  94.3970424 137.3514829 137.7422296  93.7563616 137.3101448
 136.9891986  94.6483319 138.2741010 135.7451612  91.3835642 139.1710469
 135.2088969  90.9326380 139.8232065 135.1568320  91.5181550 138.4280933
 134.0400155 108.1499691 133.0655127 134.2796754 108.7818215 133.7434146
 133.1969352 107.7987731 133.3520487 135.1553871  90.8424293 121.7336932
 134.2783337  90.7213094 121.3699179 135.6311624  90.0510371 121.4815821
 145.0226864  99.2977361 138.5035388 144.1353643  98.9603283 138.6261787
 145.5925415  98.5660392 138.7404153 126.6756011  95.6301453 131.8278439
 127.3627051  95.3163183 131.2399455 126.5204140  96.5342817 131.5545691
 131.4790733  90.5191649 136.2563463 131.3948922  89.9117319 135.5213873
 130.6573439  91.0100668 136.2572960 138.5528017 103.9578813 135.4696631
 138.4798189 104.7633785 135.9815936 138.1105410 104.1570779 134.6444653
 138.3417797 103.1950583 128.9799453 137.5585319 103.7372264 129.0737677
 139.0410542 103.7124563 129.3793694 141.6514447  89.0045213 131.6233658
 142.1483146  88.2515175 131.3034728 140.8801428  89.0409529 131.0576868
 149.5044204  94.7085578 133.2651950 149.4934081  95.5910294 132.8945883
 148.6361584  94.3557129 133.0706487 142.7344228  97.7616900 129.1972082
 141.8000506  97.8818363 129.0276786 142.9120896  96.8589367 128.9332091
 138.2349416  91.1462596 131.3505343 137.8647203  90.5933636 132.0386248
 138.7308508  90.5420729 130.7980343 146.1216779  93.6034219 129.7322116
 146.5877231  94.4362211 129.6582418 146.5724279  93.1379201 130.4367374
 136.0638614 101.6060091 138.4460361 136.7648074 102.2396574 138.5989755
 135.5933729 101.9474822 137.6856000 144.1893010  99.9478041 126.7308268
 144.4652854  99.8334635 127.6402142 143.3197509  99.5495525 126.6920441
 144.0933442  85.9714806 133.7713017 143.1796522  86.2019033 133.9395224
 144.5226543  86.0553250 134.6227049 143.8639900  94.1604698 136.2712911
 143.2111350  94.4080606 135.6165364 144.2420280  93.3468836 135.9375388
 140.8247074 104.1964391 130.3741081 141.0069469 103.3786047 130.8368834
 141.6480060 104.4132084 129.9365971 141.1589240 103.1232577 127.6356130
 141.6877006 102.6125031 127.0226292 141.4217459 102.8075107 128.5001663
 139.9127473  94.9024509 142.7578948 139.2368110  94.8018639 143.4281323
 140.7355107  94.7463723 143.2214945 131.6606332 101.1396446 135.3791463
 132.2459769 100.3940134 135.5119368 131.4631171 101.4500403 136.2628127
 134.5144988 104.1747693 130.3953906 133.8455363 104.6593821 129.9117946
 134.3757857 104.4216914 131.3097284 126.2523987  93.7102046 134.0995907
 126.2908087  93.1765637 134.8933025 125.7464280  93.1837252 133.4806884
 133.6314749  88.5566587 137.5958449 133.6956076  89.4181418 137.1835847
 133.5681870  87.9440588 136.8630807 133.1067022  90.6289719 141.2431483
 133.7339061  90.2466796 141.8569007 132.2494941  90.4103921 141.6087176
 129.8832565  92.4366148 127.1749838 130.1786006  91.5276827 127.1216892
 128.9820600  92.4153888 126.8530840 141.7918643 104.1573412 133.9800246
 141.6669783 103.3563152 133.4711192 142.4497735 104.6519606 133.4914216
 133.4126812  90.5122145 133.1577387 132.6913397  91.1258113 133.0184860
 134.2020067  91.0479910 133.0794033 143.8553552 101.9582432 135.6079796
 142.9083887 101.8387784 135.5358123 144.2036325 101.0704930 135.6906058
 136.2153125  87.8476571 139.4318038 136.7387527  88.0938868 140.1944348
 135.9965458  88.6796606 139.0121176 131.6120406  90.1180246 127.2989163
 131.2833112  89.2377625 127.1164269 131.9659777  90.0627915 128.1865552
 140.8599985 101.7535149 131.8084149 140.7124948 100.8251856 131.9891719
 141.6853479 101.7755239 131.3241224 134.7262229  90.4053216 127.6664641
 135.0658302  90.9339137 126.9443249 135.1734350  90.7433622 128.4423207
 144.4634107 102.5763707 132.8949021 145.3880654 102.3706569 132.7573473
 144.2949410 102.3280109 133.8038363 137.4205670  88.7890266 137.1167709
 137.0802491  87.9898079 137.5188389 136.7144676  89.0891977 136.5444542
 138.0722142  85.8739579 135.5695032 138.8948211  85.4000057 135.4473922
 138.3160206  86.6530063 136.0693718 136.7130377  88.9027837 125.8657934
 137.4338739  89.2809090 125.3621650 136.0895681  89.6216714 125.9692912
 140.8561499  89.6072986 126.8016266 141.0725114  90.4897624 126.5005094
 140.3755567  89.2159200 126.0721908 135.5960721  92.5658700 133.3787011
 135.4505302  92.8799003 134.2711292 135.1185924  93.1843600 132.8257909
 137.4557104  89.5561247 133.4267900 137.4418672  88.6602341 133.0900198
 138.1729532  89.5631911 134.0606186 139.3083234  89.9898588 135.4721028
 139.0501012  90.9115658 135.4705358 138.7768275  89.5929022 136.1621492
 144.2529423 103.0949375 128.2511113 144.4266301 102.5295797 127.4984965
 144.7458314 103.8950270 128.0690603 130.0706383  95.1064044 136.3174672
 129.5259851  95.8823852 136.4494946 130.9485733  95.4534848 136.1593793
 136.8594000  88.4375628 128.6955470 136.9809911  87.5092274 128.8946358
 136.5696042  88.4514314 127.7833786 139.7285190  86.1230538 131.8322190
 139.7506887  86.1869871 130.8774170 140.1453249  85.2835047 132.0262696
 150.1068814  95.8585798 129.8701413 150.5499960  95.1093123 129.4720536
 149.2295325  95.8495934 129.4875145 145.2404596 102.4116139 125.3508011
 145.9355500 103.0322832 125.5695326 145.5827746 101.5611490 125.6260389
 130.8572405  94.2333940 139.2104829 130.1154141  94.3816576 139.7969459
 130.5365149  94.4942206 138.3471578 147.1396019  99.8615845 126.8795342
 147.6647343 100.2003118 126.1544662 147.0518371  98.9262860 126.6958477
 138.8236680 105.9287828 131.2390595 138.3841670 105.4364207 131.9323452
 139.5744796 105.3860796 130.9982670 131.3029018 102.1199369 131.2415223
 132.1287038 101.8203141 130.8613867 130.9523070 101.3506991 131.6905012
 136.2710552 101.4725837 133.3112897 135.6490561 100.8096542 133.0115125
 136.9415419 101.4986969 132.6286545 129.5037624 100.0385695 132.2004157
 128.6669532  99.6107870 132.0188158 129.4761269 100.2318139 133.1374948
 136.3435079  89.9507625 142.9045403 136.3923235  90.8269748 142.5223172
 136.8857593  89.4085018 142.3317046 135.8324059 100.0229760 126.7871357
 135.9812179 100.7065225 126.1338030 136.6390502 100.0034851 127.3020813
 144.2391562  93.3272143 140.8138575 145.1401425  93.1878608 140.5222573
 144.3139537  93.4926598 141.7536753 138.5734368  90.7038998 139.6591761
 137.7037677  90.9972564 139.3874350 138.8093848  91.2879443 140.3799025
 149.6501679  97.3291036 132.2623860 150.4848570  97.7680840 132.4261421
 149.7860808  96.8529689 131.4432106 146.6993185  94.8870771 138.2101348
 147.1747307  95.0798417 137.4020199 145.7758750  94.9429957 137.9644732
 133.5876692  96.0494938 127.7932426 133.3422733  95.1457268 127.9912636
 133.7572606  96.0512089 126.8511904 141.2773401  86.9218614 137.1757182
 141.7955345  87.6579641 136.8503670 140.9228534  87.2282608 138.0103941
 132.8572339  91.7823296 125.2918588 132.1641584  91.8567651 124.6358624
 132.6124091  91.0183639 125.8140105 141.5285996  83.3418897 132.6958078
 141.8087749  82.6742086 133.3218505 142.3136603  83.5347993 132.1832742
 139.3319464 102.5177891 124.2583105 138.7593431 103.1368078 123.8053577
 139.9052258 103.0677253 124.7923027 145.3994854  91.7636531 136.4429654
 146.3512277  91.8634629 136.4641878 145.2298304  90.9714800 136.9527738
 143.4209233  88.8492114 136.6289054 142.8259166  89.1297127 135.9335543
 143.1358930  89.3386015 137.4005796 142.5516724 102.8015041 125.3891687
 143.4847397 102.7360603 125.5924563 142.4639937 103.6371308 124.9306220
 145.1804741 102.1180911 122.3495635 145.1018372 101.7840775 123.2431393
 146.0014407 102.6102679 122.3487107 147.8782932  94.9842651 135.5571953
 147.8459252  94.0458651 135.7431637 148.4883555  95.0626687 134.8237778
 139.7166263  93.8538704 121.5999157 140.6625367  93.7244912 121.6687575
 139.3380508  93.1153366 122.0768585 148.0277420  91.7753694 135.6030236
 147.5116469  90.9912151 135.4160165 148.9117369  91.4472411 135.7676756
 145.6888147  85.5194710 131.5626049 145.4912968  85.2109798 132.4469381
 146.2987853  86.2456349 131.6923979 153.6959482  96.0458658 134.6977990
 154.4262870  95.7843946 135.2585693 153.0866427  95.3087379 134.7380058
 151.7774779  94.1866520 135.2952441 151.0507942  94.0522485 134.6868933
 151.3622066  94.4943349 136.1009159 137.9009180  91.7788680 121.5354042
 136.9940635  91.4821793 121.6116756 138.1785161  91.4818498 120.6688329
 128.8187120  93.0995043 131.9853089 128.4989904  92.2460352 131.6927463
 128.2720548  93.3143622 132.7411056 132.5967028  95.8157484 135.7022595
 132.8153037  96.7474592 135.7210629 133.0092802  95.4565459 136.4877399
 139.5171245  86.3225570 127.6898284 138.7071974  85.9772655 128.0653530
 140.2055662  86.0133113 128.2785895 141.4461794  85.4003617 129.3122580
 141.9992832  85.8199070 129.9712604 141.6831880  84.4739365 129.3545536
 137.4694893  91.3890690 145.0925344 137.3691620  92.3385047 145.0237435
 137.2516435  91.0608929 144.2201414 136.6707964  88.6375615 121.6766022
 137.5327128  88.9630514 121.9361839 136.8558309  87.8507111 121.1639087
 128.6875380  96.7197955 133.9546210 127.9938852  96.3051908 133.4416165
 129.4348371  96.7618491 133.3579629 144.8240601  87.5104142 128.8201245
 144.2439270  88.1688946 128.4379297 144.5576534  86.6881486 128.4088662
 143.2744167  86.9109199 131.0222565 143.7743946  87.0225734 130.2136884
 143.9179775  86.6070252 131.6623373 137.3326163  94.8187829 143.9090406
 136.8493245  95.6188189 144.1154295 137.4187102  94.8295774 142.9557850
 130.6012123  96.6516209 131.8312225 130.5782811  96.7503896 130.8794108
 130.9112759  97.4981360 132.1529391 133.2599501  98.7092364 135.9458840
 134.2142754  98.6776306 135.8788771 133.0612024  98.2482987 136.7609066
 133.8498883  97.2793480 138.5129637 134.6691772  97.7737558 138.5364475
 134.1235690  96.3625448 138.4847205 143.6065479  89.6704232 127.8757593
 142.7191334  89.9553883 127.6577788 144.0219468  89.5097995 127.0284870
 146.9580015  89.6950753 131.5911932 147.7340405  90.1847206 131.8636549
 146.2328149  90.1208807 132.0483802 149.3952574  90.4078372 132.6485873
 149.9897064  90.1674108 131.9379181 149.4679157  89.6885503 133.2759409
 131.6149729 104.2511983 132.9629038 131.4804197 103.4912384 132.3967036
 131.1981792 104.9752883 132.4957827 142.7508692  99.4348907 121.9705613
 143.4544542  99.6398909 122.5863269 142.0271341 100.0025669 122.2354696
 143.5806503  95.1858768 128.0907883 143.5241704  95.6427319 127.2515516
 144.1334845  94.4249453 127.9130726 147.3911309  90.9748500 128.9158003
 147.1348243  90.5745136 129.7466210 146.7664177  91.6892294 128.7908142
 151.7023646  93.7144573 131.4229294 151.1423204  93.7837762 132.1960856
 151.0967150  93.5385558 130.7028790 134.7718855 105.1481300 133.1747480
 134.6551239 106.0926733 133.0726171 133.9511301 104.8454862 133.5633279
 144.6595390  99.8731436 124.0204073 145.4940994  99.4412634 123.8381548
 144.4979733  99.7013450 124.9480967 144.3141282  96.3763549 125.3860412
 144.2590086  96.2107821 124.4448856 143.6887337  97.0839582 125.5422602
 129.1033797  91.6131614 139.2121834 129.7492661  91.1030568 139.7009060
 128.8950948  92.3500295 139.7865260 137.6237407  85.8771658 124.9645731
 137.6116077  86.8213498 125.1214002 138.5160829  85.6941804 124.6705192
 135.7973369 105.8009562 136.3903409 136.7000616 105.8333172 136.7069904
 135.5710739 104.8710013 136.4049744 137.5526971 104.5540549 133.0513487
 136.6022602 104.5542410 132.9377860 137.8559457 103.8073283 132.5349522
 141.4389527  82.4714435 129.2191667 140.6721923  81.9172922 129.3648350
 141.8500232  82.5436304 130.0805819 133.4431288  88.7599231 143.3096849
 134.3062749  88.4036036 143.5200173 132.8696699  88.4213126 143.9972253
 145.9556187 112.1963992 130.0417665 145.3921052 112.1053929 129.2733953
 145.8408582 111.3763896 130.5220158 151.5355746 115.8634959 125.3532130
 150.8843725 116.4489040 124.9666144 152.3300108 116.3941154 125.4127168
 145.4611373 112.9524096 125.7519265 146.2342249 112.4053084 125.6132140
 145.8136772 113.8168346 125.9633726 147.7977651 109.1116763 123.3837715
 148.0503171 108.5898284 122.6221178 146.8602210 108.9482908 123.4864398
 153.0131011 113.5525391 125.8901115 152.3776844 113.6260018 126.6022019
 152.6828417 114.1418990 125.2120194 147.5173939 111.0144869 125.5862089
 147.4010197 110.3389772 126.2543174 147.6276199 110.5277242 124.7694243
 149.8605480 110.4755016 129.2908779 149.4963687 109.9485637 130.0021700
 150.7172596 110.0853485 129.1175264 149.5010967 105.5044915 124.2870127
 149.6685370 106.3725152 124.6540598 149.3108136 105.6672197 123.3631416
 149.4800188 107.9602573 125.2716794 149.3599813 108.4059624 126.1102274
 148.7852776 108.3087891 124.7130332 155.1785254 108.4324046 126.0997128
 156.0903110 108.6651433 125.9244826 154.6694901 109.0161090 125.5372207
 148.2751684 109.2747425 127.5650360 148.9775728 109.7268469 128.0324286
 147.9432313 108.6331244 128.1930253 142.0177018 107.5330978 132.8667493
 141.2276072 107.7888506 132.3907604 142.5088266 108.3479315 132.9719534
 143.9691764 107.8975557 129.8250970 143.1722927 108.0094251 130.3434466
 143.7417356 108.2362209 128.9591861 142.9674846 113.6063806 128.2140390
 143.4799367 114.4007056 128.3645955 143.6197559 112.9090096 128.1473992
 140.9323763 111.9352460 128.9899961 141.7698985 112.3449468 128.7733668
 141.1102031 110.9951902 128.9600155 152.8288195 109.6027541 124.6783794
 152.3134819 110.3732145 124.9172181 152.5565504 108.9292677 125.3016855
 150.4135306 104.4477241 129.7369032 149.5576903 104.0584092 129.5574671
 150.8262258 104.5269202 128.8768818 148.1877339 102.0662314 133.1426773
 149.0530336 101.8705123 132.7832663 148.2554848 101.8372666 134.0696130
 152.6174499 107.4754633 126.5043575 152.3124634 107.7900782 127.3553718
 153.5704941 107.5536053 126.5470908 151.0620930 113.6344856 128.1536529
 150.5342292 112.8997616 127.8409766 150.5608433 114.4119532 127.9076497
 145.7939658 104.2964522 130.5143140 146.3683410 104.0739704 129.7816333
 146.3810640 104.3653217 131.2671742 146.1209245 106.3268983 124.5339026
 145.2846557 106.6643670 124.8548300 145.9814015 106.1917963 123.5966163
 148.0962326 101.1705771 129.2418210 147.4426738 100.8554788 128.6174824
 148.0542800 100.5481512 129.9678033 149.2073531 111.4525066 121.1571502
 148.3000592 111.2214320 121.3562651 149.7044563 110.6562685 121.3445483
 152.1135114 109.0579120 128.6968538 152.8606933 109.5700518 128.3875660
 152.3826703 108.7363173 129.5572931 150.3861764 111.5537661 125.6795492
 149.4772983 111.2696694 125.7767962 150.4156848 111.9736740 124.8198799
 154.5613951 106.0936237 130.6787327 153.8236708 105.5813623 131.0097569
 154.8140724 105.6536618 129.8670604 154.6625578  98.8712489 131.2729096
 154.9684455  98.0109852 130.9855011 155.3878183  99.4630109 131.0728090
 140.9549934 109.2743175 129.6610694 140.7574334 108.6812536 128.9361761
 140.3996598 108.9695385 130.3786633 150.0837852 113.0946405 123.0183570
 149.6457282 112.3782264 122.5589208 150.8248293 113.3222520 122.4568662
 146.8739018 107.7843341 129.5395666 146.0606883 108.0837512 129.9460858
 147.3698012 107.3899030 130.2570148 143.4496160 108.8007209 127.3451646
 142.5193748 108.7391665 127.5621608 143.5453632 108.2783162 126.5488287
 143.3681709 105.3262022 129.9329888 143.6288526 106.2407355 129.8239048
 144.1898881 104.8586464 130.0826501 154.2049079 111.9530786 122.6115628
 153.5878250 111.2277615 122.5148681 153.7365568 112.7140147 122.2682702
 145.9947625 106.1716211 121.7336932 145.1177092 106.0505011 121.3699179
 146.4705378 105.3802289 121.4815821 137.5149765 110.9593370 131.8278439
 138.2020805 110.6455100 131.2399455 137.3597894 111.8634735 131.5545691
 142.3184488 105.8483567 136.2563463 142.2342676 105.2409237 135.5213873
 141.4967194 106.3392585 136.2572960 152.4908201 104.3337131 131.6233658
 152.9876901 103.5807093 131.3034728 151.7195183 104.3701447 131.0576868
 149.0743170 106.4754514 131.3505343 148.7040958 105.9225554 132.0386248
 149.5702263 105.8712647 130.7980343 137.0917742 109.0393964 134.0995907
 137.1301841 108.5057554 134.8933025 136.5858034 108.5129169 133.4806884
 140.7226319 107.7658066 127.1749838 141.0179760 106.8568744 127.1216892
 139.8214355 107.7445805 126.8530840 144.2520566 105.8414063 133.1577387
 143.5307152 106.4550030 133.0184860 145.0413822 106.3771827 133.0794033
 142.4514161 105.4472164 127.2989163 142.1226867 104.5669543 127.1164269
 142.8053531 105.3919832 128.1865552 145.5655984 105.7345133 127.6664641
 145.9052056 106.2631055 126.9443249 146.0128104 106.0725540 128.4423207
 147.5524131 104.2319755 125.8657934 148.2732494 104.6101008 125.3621650
 146.9289435 104.9508632 125.9692912 151.6955254 104.9364904 126.8016266
 151.9118868 105.8189542 126.5005094 151.2149321 104.5451117 126.0721908
 148.2950858 104.8853165 133.4267900 148.2812427 103.9894258 133.0900198
 149.0123286 104.8923829 134.0606186 147.6987754 103.7667545 128.6955470
 147.8203665 102.8384192 128.8946358 147.4089796 103.7806231 127.7833786
 150.5678944 101.4522456 131.8322190 150.5900641 101.5161789 130.8774170
 150.9847004 100.6126965 132.0262696 146.6717813 115.3521678 126.7871357
 146.8205933 116.0357143 126.1338030 147.4784257 115.3326768 127.3020813
 144.4270446 111.3786856 127.7932426 144.1816488 110.4749186 127.9912636
 144.5966361 111.3804006 126.8511904 143.6966094 107.1115213 125.2918588
 143.0035339 107.1859568 124.6358624 143.4517845 106.3475557 125.8140105
 152.3679750  98.6710815 132.6958078 152.6481504  98.0034004 133.3218505
 153.1530357  98.8639910 132.1832742 150.1713219 117.8469809 124.2583105
 149.5987186 118.4659996 123.8053577 150.7446012 118.3969170 124.7923027
 156.0198495 117.4472829 122.3495635 155.9412127 117.1132693 123.2431393
 156.8408162 117.9394597 122.3487107 150.5560017 109.1830621 121.5999157
 151.5019122 109.0536829 121.6687575 150.1774262 108.4445283 122.0768585
 156.5281902 100.8486627 131.5626049 156.3306723 100.5401716 132.4469381
 157.1381607 101.5748266 131.6923979 148.7402934 107.1080598 121.5354042
 147.8334390 106.8113710 121.6116756 149.0178915 106.8110416 120.6688329
 139.6580875 108.4286961 131.9853089 139.3383659 107.5752269 131.6927463
 139.1114303 108.6435539 132.7411056 150.3565000 101.6517487 127.6898284
 149.5465728 101.3064572 128.0653530 151.0449417 101.3425031 128.2785895
 152.2855548 100.7295534 129.3122580 152.8386587 101.1490988 129.9712604
 152.5225635  99.8031282 129.3545536 147.5101719 103.9667533 121.6766022
 148.3720883 104.2922431 121.9361839 147.6952063 103.1799029 121.1639087
 155.6634355 102.8396059 128.8201245 155.0833024 103.4980863 128.4379297
 155.3970288 102.0173404 128.4088662 154.1137922 102.2401117 131.0222565
 154.6137700 102.3517652 130.2136884 154.7573530 101.9362170 131.6623373
 141.4405877 111.9808126 131.8312225 141.4176565 112.0795814 130.8794108
 141.7506514 112.8273277 132.1529391 154.4459233 104.9996150 127.8757593
 153.5585088 105.2845800 127.6577788 154.8613222 104.8389913 127.0284870
 153.5902447 114.7640824 121.9705613 154.2938297 114.9690827 122.5863269
 152.8665096 115.3317586 122.2354696 154.4200257 110.5150686 128.0907883
 154.3635459 110.9719237 127.2515516 154.9728600 109.7541370 127.9130726
 158.2305063 106.3040418 128.9158003 157.9741997 105.9037053 129.7466210
 157.6057931 107.0184212 128.7908142 155.4989144 115.2023354 124.0204073
 156.3334748 114.7704552 123.8381548 155.3373487 115.0305367 124.9480967
 155.1535036 111.7055467 125.3860412 155.0983840 111.5399738 124.4448856
 154.5281092 112.4131500 125.5422602 148.4631162 101.2063576 124.9645731
 148.4509832 102.1505416 125.1214002 149.3554584 101.0233721 124.6705192
 152.2783281  97.8006353 129.2191667 151.5115677  97.2464839 129.3648350
 152.6893986  97.8728221 130.0805819  69.0037630  -6.8189693 119.7900434
  69.2434228  -6.1871168 120.4679453  68.1606826  -7.1701653 120.0765793
  80.9193661  -2.7725392 116.7662972  80.3558526  -2.8635455 115.9979260
  80.8046056  -3.5925487 117.2465465  78.4658093  -1.2774200 119.6047192
  79.2579385  -1.6183376 119.1893492  78.7054743  -1.1679225 120.5249346
  86.4993220   0.8945576 112.0777437  85.8481200   1.4799656 111.6911451
  87.2937583   1.4251771 112.1372474  80.4248847  -2.0165287 112.4764571
  81.1979723  -2.5636300 112.3377447  80.7774246  -1.1521038 112.6879033
  82.2633890  -0.6888905 125.6831471  81.9723756   0.2156726 125.5678137
  82.8990874  -0.6472377 126.3975540  87.9768485  -1.4163992 112.6146421
  87.3414318  -1.3429366 113.3267326  87.6465891  -0.8270393 111.9365500
  87.2223775  -1.0027489 122.6781264  86.9224498  -0.1002450 122.5697071
  86.8774834  -1.2695306 123.5302417  78.0345067  -4.9080419 119.5461758
  78.1637448  -4.6545940 120.4601169  77.3542518  -4.3152711 119.2266413
  82.2044554   5.7616831 115.6452232  82.1268584   6.7124656 115.7240713
  81.6006198   5.4162704 116.3027158  84.3020273  -1.8165111 117.4806101
  84.7658618  -1.5377408 116.6910724  84.0377071  -2.7181666 117.2979192
  81.1944354  -2.2693629 120.4185865  81.7645711  -1.8406361 119.7803349
  81.7852466  -2.5511045 121.1170050  84.7634906  -0.5469123 124.4978791
  84.8279338  -0.0848716 125.3336963  84.0545830  -1.1771758 124.6261101
  84.4782923   1.1198984 114.3657772  84.3428598   1.9650520 114.7942619
  85.0192736   1.3218262 113.6023705  77.9312321  -1.3625578 114.9385697
  78.4436841  -0.5682328 115.0891261  78.5835034  -2.0599287 114.8719298
  79.7407205   1.7540178 117.0208450  79.9173834   2.6758143 116.8329434
  80.5364039   1.4398598 117.4502830  86.1051400   1.7422551 128.4958114
  85.6615254   0.9558929 128.1779018  86.7668613   1.9301701 127.8302005
  80.8638521   3.2718352 123.0218792  81.4145946   3.1435416 122.2495786
  80.0249997   3.5713241 122.6713685  88.2032638   2.0225351 126.5239515
  88.1851113   2.8434232 126.0319784  89.1252558   1.8979426 126.7489656
  84.6605692  -0.4630520 127.3663023  85.1934029  -1.2242232 127.1362331
  84.1319773  -0.7556868 128.1087178  75.8961238  -3.0336924 115.7145267
  76.7336460  -2.6239915 115.4978975  76.0739505  -3.9737481 115.6845461
  86.0258405  -1.3344528 114.8781835  85.4979766  -2.0691768 114.5655073
  85.5245907  -0.5569851 114.6321804  87.0779084   5.1933190 110.8013495
  86.4040782   5.4964887 111.4098452  87.4644906   5.9962270 110.4518952
  90.5818506   0.1954867 116.1731966  90.1280833  -0.6454223 116.2297157
  89.9512472   0.8316265 116.5106746  89.0251445   2.0331364 117.1081784
  89.3174419   2.5936421 116.3894150  89.5350066   2.3259925 117.8634943
  85.0475326  -1.8742979 109.7428877  84.6094756  -2.5907120 109.2834514
  85.7885767  -1.6466864 109.1813968  83.9885070   2.8111715 118.1975237
  83.9461249   3.0372561 117.2683769  84.9047769   2.5775089 118.3461039
  82.1050871  -0.3125256 117.9937200  82.8991469  -0.8074936 117.7919775
  81.3942563  -0.8407393 117.6304906  86.9245715   2.0692839 122.3449568
  86.9782738   2.6383776 123.1127284  86.0560497   2.2394724 121.9803605
  84.6822147   0.2603766 121.6735037  84.5433233  -0.1077450 122.5460975
  83.8936743   0.7751405 121.5018995  85.2770299   5.3612862 113.0160574
  85.4522055   4.8900906 113.8306196  84.5903087   5.9878629 113.2441835
  86.2327362  -0.3614631 119.0623875  85.8977195  -0.4013861 119.9581525
  85.7331308  -1.0269916 118.5894285  90.8240685   1.6940311 126.9966715
  90.7653232   1.0099531 126.3297298  91.2260204   2.4359301 126.5447341
  79.8431384   8.5102225 119.7900434  80.0827982   9.1420749 120.4679453
  79.0000581   8.1590265 120.0765793  72.4787240  -4.0096013 118.5523746
  73.1658280  -4.3234283 117.9644761  72.3235368  -3.1054648 118.2790998
  84.3559246   4.3181348 122.1941938  84.2829418   5.1236319 122.7061242
  83.9136639   4.5173313 121.3689959  84.1449026   3.5553118 115.7044759
  83.3616548   4.0974798 115.7982984  84.8441771   4.0727097 116.1039001
  86.8157930   4.2168182 124.3500097  87.5285902   4.8515646 124.2775998
  86.3247958   4.3132048 123.5340098  81.8669843   1.9662625 125.1705667
  82.5679303   2.5999108 125.3235062  81.3964958   2.3077357 124.4101307
  89.9924239   0.3080575 113.4553574  90.2684083   0.1937169 114.3647449
  89.1228738  -0.0901940 113.4165748  86.6278303   4.5566926 117.0986388
  86.8100697   3.7388582 117.5614140  87.4511289   4.7734618 116.6611278
  86.9620468   3.4835111 114.3601437  87.4908235   2.9727565 113.7471599
  87.2248688   3.1677641 115.2246970  77.4637561   1.4998980 122.1036770
  78.0490998   0.7542668 122.2364674  77.2662400   1.8102937 122.9873434
  80.3176216   4.5350227 117.1199212  79.6486592   5.0196355 116.6363253
  80.1789086   4.7819448 118.0342591  72.0555216  -5.9295420 120.8241213
  72.0939315  -6.4631829 121.6178331  71.5495509  -6.4560214 120.2052190
  84.4581485   6.5693971 123.7181871  85.0099793   6.7325593 124.4830956
  84.7987678   7.1598409 123.0461896  89.3092359   1.3955229 129.5730525
  89.8532263   2.0085187 129.0785480  88.7279204   1.9534807 130.0897538
  87.5949872   4.5175947 120.7045553  87.4701012   3.7165686 120.1956498
  88.2528963   5.0122140 120.2159523  89.6584781   2.3184967 122.3325103
  88.7115116   2.1990318 122.2603430  90.0067554   1.4307465 122.4151365
  86.6631214   2.1137683 118.5329455  86.5156176   1.1854390 118.7137025
  87.4884707   2.1357774 118.0486531  90.2665336   2.9366242 119.6194328
  91.1911883   2.7309103 119.4818779  90.0980639   2.6882643 120.5283670
  90.0560652   3.4551909 114.9756420  90.2297530   2.8898332 114.2230272
  90.5489543   4.2552804 114.7935909  75.8737612  -4.5333422 123.0419978
  75.3291080  -3.7573614 123.1740253  76.7516962  -4.1862617 122.8839100
  91.0435824   2.7718673 112.0753318  91.7386729   3.3925366 112.2940632
  91.3858975   1.9214025 112.3505696  84.6047296   4.1352453 125.7330525
  84.9134423   3.8901599 126.6053225  85.4022778   4.3399091 125.2449395
  84.6267908   6.2890362 117.9635902  84.1872899   5.7966741 118.6568758
  85.3776025   5.7463330 117.7227977  77.1060247   2.4801903 117.9660530
  77.9318267   2.1805675 117.5859173  76.7554299   1.7109526 118.4150318
  82.0741780   1.8328371 120.0358203  81.4521790   1.1699076 119.7360431
  82.7446647   1.8589503 119.3531851  75.3068852   0.3988230 118.9249463
  74.4700761  -0.0289596 118.7433465  75.2792498   0.5920673 119.8620255
  92.6321154   0.8551283 128.9091847  91.8416697   0.8375421 128.3696346
  92.3954508   1.3939576 129.6640883  81.6355287   0.3832295 113.5116664
  81.7843408   1.0667759 112.8583337  82.4421731   0.3637385 114.0266120
  79.3907920  -3.5902528 114.5177733  79.1453962  -4.4940198 114.7157943
  79.5603835  -3.5885377 113.5757211  85.1350693   2.8780425 110.9828411
  84.5624660   3.4970612 110.5298883  85.7083487   3.4279787 111.5168333
  88.3547953   3.1617575 112.1136994  89.2878626   3.0963137 112.3169869
  88.2671166   3.9973842 111.6551526  90.9835969   2.4783446 109.0740941
  90.9049601   2.1443309 109.9676699  91.8045636   2.9705213 109.0732414
  78.3998256  -3.8239981 122.4267902  78.6184266  -2.8922874 122.4455936
  78.8124030  -4.1832007 123.2122706  74.4906609  -2.9199511 120.6791517
  73.7970080  -3.3345558 120.1661472  75.2379600  -2.8778974 120.0824936
  76.4043351  -2.9881257 118.5557532  76.3814040  -2.8893570 117.6039415
  76.7143988  -2.1416106 118.8774698  79.0630729  -0.9305102 122.6704146
  80.0173983  -0.9621160 122.6034078  78.8643253  -1.3914478 123.4854372
  79.6530111  -2.3603986 125.2374944  80.4723000  -1.8659907 125.2609781
  79.9266919  -3.2772018 125.2092512  77.4180958   4.6114517 119.6874344
  77.2835426   3.8514918 119.1212342  77.0013020   5.3355417 119.2203133
  88.5539921  -0.2048559 108.6950920  89.2575771   0.0001443 109.3108575
  87.8302570   0.3628203 108.9600003  80.5750084   5.5083834 119.8992787
  80.4582468   6.4529267 119.7971477  79.7542530   5.2057396 120.2878586
  90.4626619   0.2333970 110.7449380  91.2972222  -0.1984831 110.5626854
  90.3010961   0.0615984 111.6726274  87.4318418  -0.9585005 131.4359282
  88.3009578  -0.7844352 131.0745917  86.9525169  -0.1390588 131.3135011
  81.6004598   6.1612096 123.1148715  82.5031845   6.1935707 123.4315210
  81.3741968   5.2312547 123.1295051  83.3558200   4.9143083 119.7758794
  82.4053831   4.9144945 119.6623166  83.6590686   4.1675817 119.2594829
  99.0910894  10.7503621 120.8404556  99.7289304  10.6310369 120.1367896
  98.9731737  11.6984465 120.8992509  95.9000600  10.7031049 120.7766081
  95.5619111  10.5872114 119.8886616  96.7690368  10.3022214 120.7567087
  91.7587416  12.5566526 116.7662972  91.1952281  12.4656463 115.9979260
  91.6439811  11.7366430 117.2465465  96.3820383  11.8565901 126.7352287
  96.3709024  11.4618699 125.8632790  96.5441022  11.1231974 127.3286058
  89.3051848  14.0517717 119.6047192  90.0973139  13.7108542 119.1893492
  89.5448498  14.1612692 120.5249346  97.3386974  16.2237494 112.0777437
  96.6874954  16.8091574 111.6911451  98.1331337  16.7543688 112.1372474
  91.2642601  13.3126631 112.4764571  92.0373477  12.7655618 112.3377447
  91.6168000  14.1770880 112.6879033  93.1027644  14.6403013 125.6831471
  92.8117510  15.5448644 125.5678137  93.7384628  14.6819541 126.3975540
  94.0283851  12.0179861 122.2732830  94.6247423  11.7935884 121.5589793
  94.0858822  11.2764607 122.8758278  93.6008879   9.4719297 110.1083021
  93.8534400   8.9500818 109.3466484  92.6633438   9.3085442 110.2109705
  98.6452162   8.4755075 117.9157764  99.4315251   8.0574498 117.5648181
  98.9090866   9.3801167 118.0839413  98.8162239  13.9127925 112.6146421
  98.1808072  13.9862552 113.3267326  98.4859646  14.5021524 111.9365500
 104.0460589   8.4130308 118.8190743 104.7785761   7.8429525 119.0528572
 103.2899945   8.0251909 119.2597248  93.3205168  11.3747403 112.3107396
  93.2041426  10.6992306 112.9788480  93.4307428  10.8879777 111.4939549
  95.6636709  10.8357550 116.0154085  95.2994916  10.3088171 116.7267007
  96.5203825  10.4456019 115.8420571  95.3042196   5.8647450 111.0115434
  95.4716598   6.7327686 111.3785905  95.1139365   6.0274731 110.0876723
  98.0617529  14.3264428 122.6781264  97.7618252  15.2289467 122.5697071
  97.7168589  14.0596612 123.5302417  91.5130011  10.7778225 118.7117969
  90.5880507  10.6454439 118.9195660  91.7614424  11.5572445 119.2087911
 101.4614673   6.8446969 120.3578702 100.5531550   6.7762377 120.0637463
 101.4102269   7.3218914 121.1860527  95.2831417   8.3205107 111.9962101
  95.1631042   8.7662158 112.8347581  94.5884005   8.6690425 111.4375639
  88.8738822  10.4211499 119.5461758  89.0031203  10.6745978 120.4601169
  88.1936273  11.0139207 119.2266413  93.0438309  21.0908749 115.6452232
  92.9662339  22.0416574 115.7240713  92.4399953  20.7454621 116.3027158
  95.5355539   8.2636614 128.3013599  94.7588873   8.8230534 128.2916463
  96.1746102   8.7493397 128.8228469 103.3276319   5.0463407 122.1356575
 102.6850700   5.3395940 121.4896370 102.8231248   4.9316327 122.9409772
 100.9816483   8.7926580 112.8242435 101.8934339   9.0253967 112.6490132
 100.4726130   9.3763624 112.2617513  93.7901911  11.0722068 127.8631566
  94.5316595  11.6107112 127.5866389  93.0838896  11.6988356 128.0203118
  99.2657251  13.2151208 126.4603727  99.6740607  12.7733619 125.7158360
  98.5434512  12.6403836 126.7137920  95.6188321   8.1523815 123.8337284
  96.4649516   8.5763228 123.9771933  95.5586958   7.4957439 124.5275847
  99.5886065  13.7752399 120.2156016  98.9594928  13.9398113 119.5132084
  99.2011727  14.1894008 120.9866980 103.4675297  14.7106837 117.5700380
 102.7826335  15.0905738 117.0197413 103.5519147  15.3202163 118.3032328
  98.7687766   5.8128183 125.4918458  98.5248698   6.5670244 124.9552734
  99.0447697   6.1913531 126.3265705 100.7226229  12.3566796 124.1695723
 100.9343124  12.9998555 123.4930105 100.6755977  11.5229112 123.7017654
  98.3252458   4.9684616 121.0732296  97.4636937   5.2665870 121.3649033
  98.3514892   5.1855015 120.1413328  95.1414027  13.5126807 117.4806101
  95.6052373  13.7914510 116.6910724  94.8770825  12.6110251 117.2979192
  92.0338108  13.0598288 120.4185865  92.6039465  13.4885557 119.7803349
  92.6246220  12.7780873 121.1170050  94.0782913   9.6349959 114.2895666
  94.7806957  10.0871003 114.7569593  93.7463542   8.9933778 114.9175560
  92.5263275   8.2261716 128.6646876  91.8961935   8.9077997 128.8982273
  92.4199363   8.1144797 127.7200014  87.8208247   7.8933512 119.5912800
  87.0307301   8.1491040 119.1152911  88.3119495   8.7081850 119.6964841
 101.8372057  15.2338751 122.3418081 102.6589500  14.8318938 122.0600762
 101.8334460  15.1306985 123.2934197  89.7722993   8.2578091 116.5496277
  88.9754156   8.3696785 117.0679772  89.5448585   8.5964743 115.6837167
  95.6028660  14.7822794 124.4978791  95.6673093  15.2443201 125.3336963
  94.8939584  14.1520159 124.6261101  86.1045950   8.1464002 122.0227791
  86.3553989   9.0311012 122.2885367  86.6405499   7.9668604 121.2502883
 109.9278050  11.5777499 118.6903052 109.1741758  11.0084898 118.5347057
 110.0625591  11.5440164 119.6373687  95.3176678  16.4490902 114.3657772
  95.1822353  17.2942437 114.7942619  95.8586490  16.6510179 113.6023705
  91.8044017   2.5282482 131.0272127  91.4110963   1.9748680 131.7019771
  92.6210158   2.8393060 131.4178644  88.7706075  13.9666340 114.9385697
  89.2830596  14.7609590 115.0891261  89.4228788  13.2692630 114.8719298
  90.5800960  17.0832096 117.0208450  90.7567588  18.0050061 116.8329434
  91.3757793  16.7690515 117.4502830  94.7211978   3.9440361 128.6192383
  95.4621692   4.5447514 128.5396846  94.9529901   3.2017998 128.0610426
  89.8653316   9.1296728 126.8970613  89.7506832   8.2281985 127.1977712
  89.0097834   9.3760425 126.5455430  96.9445154  17.0714468 128.4958114
  96.5009008  16.2850847 128.1779018  97.6062368  17.2593619 127.8302005
  91.7032275  18.6010270 123.0218792  92.2539701  18.4727333 122.2495786
  90.8643751  18.9005159 122.6713685  99.0426392  17.3517268 126.5239515
  99.0244868  18.1726149 126.0319784  99.9646312  17.2271343 126.7489656
  95.4999446  14.8661398 127.3663023  96.0327783  14.1049686 127.1362331
  94.9713528  14.5735049 128.1087178  86.7354992  12.2954994 115.7145267
  87.5730214  12.7052002 115.4978975  86.9133260  11.3554436 115.6845461
  98.6319424   9.9630075 111.4029100  98.1166048  10.7334679 111.6417488
  98.3596733   9.2895211 112.0262162  96.2166535   4.8079776 116.4614339
  95.3608132   4.4186626 116.2819977  96.6293487   4.8871736 115.6014124
  97.7465682   2.3426119 120.8605898  97.2430477   2.3056254 120.0473704
  98.0396289   3.2518862 120.9202555  93.9908568   2.4264849 119.8672080
  94.8561564   2.2307657 119.5077970  94.0586077   2.1975200 120.7941437
 103.6053698  12.7162429 113.3382274 102.8283141  12.3773589 112.8937436
 104.2845179  12.7215053 112.6637239  98.4205727   7.8357167 113.2288881
  98.1155863   8.1503316 114.0799025  99.3736169   7.9138587 113.2716214
  96.8652159  13.9947390 114.8781835  96.3373521  13.2600150 114.5655073
  96.3639662  14.7722066 114.6321804 101.8445005  12.1896411 119.9948882
 101.1868680  12.8795672 120.0829010 102.6485404  12.5792843 120.3382868
  91.5970887   4.6567056 117.2388447  92.1714639   4.4342238 116.5061640
  92.1841869   4.7255751 117.9917048 100.6550464  10.5440783 118.0452823
 101.1682346  11.1770775 118.5474533 101.3051688   9.9441979 117.6796183
  91.9240474   6.6871517 111.2584332  91.0877786   7.0246204 111.5793607
  91.7845244   6.5520497 110.3211469  93.8993554   1.5308305 115.9663516
  93.2457967   1.2157323 115.3420131  93.8574029   0.9084046 116.6923339
  95.0104759  11.8127600 107.8816808  94.1031821  11.5816854 108.0807957
  95.5075791  11.0165220 108.0690790  97.9172838  20.5225108 110.8013495
  97.2434537  20.8256804 111.4098452  98.3038660  21.3254188 110.4518952
  97.1331295   8.0190239 120.2911164  96.2153856   8.2405186 120.1332852
  97.5491438   8.0936549 119.4322871  97.9166343   9.4181655 115.4213844
  98.6638162   9.9303052 115.1120966  98.1857932   9.0965707 116.2818238
  96.1892993  11.9140195 112.4040799  95.2804212  11.6299228 112.5013268
  96.2188077  12.3339274 111.5444105 101.4212260  15.5246785 116.1731966
 100.9674587  14.6837695 116.2297157 100.7906227  16.1608183 116.5106746
 100.3645180   6.4538771 117.4032634  99.6267937   5.9416157 117.7342876
 100.6171953   6.0139152 116.5915910  99.8645199  17.3623281 117.1081784
 100.1568174  17.9228339 116.3894150 100.3743820  17.6551842 117.8634943
  86.7581163   9.6345709 116.3856001  86.5605563   9.0415070 115.6607067
  86.2027827   9.3297920 117.1031940  94.7377887   9.5268816 118.5050594
  94.7926497   8.5742652 118.4293070  93.9269089   9.6828255 118.9891892
  95.8869081  13.4548939 109.7428877  95.4488511  12.7384798 109.2834514
  96.6279521  13.6825054 109.1813968  92.6770247   8.1445876 116.2640973
  91.8638112   8.4440046 116.6706165  93.1729241   7.7501564 116.9815455
  94.8278825  18.1403633 118.1975237  94.7855003  18.3664479 117.2683769
  95.7441523  17.9067007 118.3461039  98.2744458   8.6087700 125.0955867
  98.6293846   8.8359173 125.9550332  98.9216590   8.9406077 124.4733122
 104.0042195  11.7306136 115.8005196 103.8660094  11.9207732 114.8726385
 103.6478414  12.4925519 116.2573247  92.1684322   5.7164231 121.8802208
  92.8083701   5.5752990 121.1825171  91.3361852   5.4298745 121.5040810
 104.0311575  13.7982663 120.8116467 104.4648082  13.7057952 121.6599521
 104.7443156  13.7740163 120.1736483  92.9444625  15.0166662 117.9937200
  93.7385224  14.5216982 117.7919775  92.2336318  14.4884525 117.6304906
  97.7639470  17.3984757 122.3449568  97.8176492  17.9675693 123.1127284
  96.8954251  17.5686642 121.9803605  89.2527389   9.1609743 114.0696953
  88.3224977   9.0994199 114.2866915  89.3484861   8.6385696 113.2733594
  89.1712938   5.6864556 116.6575195  89.4319755   6.6009889 116.5484355
  89.9930110   5.2188999 116.8071807  90.6437863   7.1002313 123.8274019
  91.3160917   6.8919675 123.1786668  89.8167650   6.9024399 123.3879251
 104.8927125  13.8406364 123.3449353 105.0863015  14.7452174 123.5908628
 104.7927743  13.3813783 124.1787938  96.5463435   3.7264254 125.8439680
  95.8991350   4.4254204 125.7504156  97.3164451   4.1600398 126.2115928
  99.9542233  13.9913106 128.9190233  99.8027740  13.7623658 128.0020317
  99.9446913  14.9483708 128.9321578  96.7227570  11.5645019 123.9036500
  97.6519630  11.7156179 123.7305467  96.3018600  11.6529040 123.0485146
  95.5215901  15.5895684 121.6735037  95.3826987  15.2214468 122.5460975
  94.7330498  16.1043323 121.5018995  96.1164053  20.6904780 113.0160574
  96.2915809  20.2192823 113.8306196  95.4296841  21.3170546 113.2441835
  97.0721117  14.9677286 119.0623875  96.7370949  14.9278056 119.9581525
  96.5725062  14.3022002 118.5894285  91.0465361  10.3744916 124.5876456
  90.9085158   9.6425155 125.1887995  91.9570284  10.2853816 124.3060644
 100.0080308  12.3133321 109.3360935  99.3909479  11.5880149 109.2393987
  99.5396797  13.0742681 108.9928009  93.6747661  10.0864876 124.0760136
  94.3847280   9.4458068 124.0346754  93.6316969  10.3377770 124.9986317
 101.6634440  17.0232229 126.9966715 101.6046986  16.3391449 126.3297298
 102.0653958  17.7651219 126.5447341  92.3876595   7.0730093 125.8955775
  91.8513952   6.6220832 126.5477372  91.7993304   7.2076002 125.1526240
  90.6825139  23.8394143 119.7900434  90.9221737  24.4712667 120.4679453
  89.8394335  23.4882183 120.0765793  91.7978854   6.5318745 108.4582239
  90.9208320   6.4107546 108.0944486  92.2736607   5.7404823 108.2061128
 101.6651847  14.9871813 125.2280695 100.7778626  14.6497735 125.3507094
 102.2350398  14.2554844 125.4649460  83.3180994  11.3195905 118.5523746
  84.0052034  11.0057635 117.9644761  83.1629123  12.2237269 118.2790998
  88.1215716   6.2086101 122.9808770  88.0373905   5.6011771 122.2459180
  87.2998423   6.6995120 122.9818266  95.1953001  19.6473265 122.1941938
  95.1223172  20.4528237 122.7061242  94.7530394  19.8465231 121.3689959
  94.9842780  18.8845035 115.7044759  94.2010302  19.4266715 115.7982984
  95.6835525  19.4019015 116.1039001  98.2939430   4.6939665 118.3478965
  98.7908130   3.9409627 118.0280035  97.5226412   4.7303981 117.7822174
 106.1469188  10.3980030 119.9897256 106.1359064  11.2804746 119.6191189
 105.2786567  10.0451581 119.7951793  97.6551684  19.5460099 124.3500097
  98.3679656  20.1807564 124.2775998  97.1641713  19.6423965 123.5340098
  99.3769211  13.4511352 115.9217388  98.4425490  13.5712814 115.7522093
  99.5545879  12.5483819 115.6577398  94.8774399   6.8357048 118.0750649
  94.5072187   6.2828088 118.7631555  95.3733491   6.2315181 117.5225650
 102.7641762   9.2928671 116.4567422 103.2302215  10.1256663 116.3827725
 103.2149263   8.8273653 117.1612681  92.7063598  17.2954543 125.1705667
  93.4073057  17.9291026 125.3235062  92.2358713  17.6369274 124.4101307
 100.8317993  15.6372493 113.4553574 101.1077837  15.5229087 114.3647449
  99.9622492  15.2389977 113.4165748 100.5064884   9.8499150 122.9958218
  99.8536334  10.0975058 122.3410671 100.8845263   9.0363288 122.6620695
  97.4672057  19.8858843 117.0986388  97.6494452  19.0680499 117.5614140
  98.2905043  20.1026536 116.6611278  97.8014223  18.8127028 114.3601437
  98.3301989  18.3019483 113.7471599  98.0642443  18.4969559 115.2246970
  96.5552457  10.5918961 129.4824255  95.8793094  10.4913091 130.1526630
  97.3780090  10.4358175 129.9460252  88.3031316  16.8290898 122.1036770
  88.8884752  16.0834586 122.2364674  88.1056154  17.1394854 122.9873434
  91.1569971  19.8642145 117.1199212  90.4880346  20.3488273 116.6363253
  91.0182841  20.1111366 118.0342591  82.8948970   9.3996498 120.8241213
  82.9333070   8.8660089 121.6178331  82.3889263   8.8731704 120.2052190
  95.2975239  21.8985889 123.7181871  95.8493547  22.0617510 124.4830956
  95.6381433  22.4890327 123.0461896  90.2739733   4.2461038 124.3203756
  90.3381059   5.1075869 123.9081153  90.2106853   3.6335040 123.5876114
  89.7492005   6.3184171 127.9676790  90.3764044   5.9361248 128.5814314
  88.8919924   6.0998373 128.3332482 100.1486114  16.7247146 129.5730525
 100.6926018  17.3377104 129.0785480  99.5672959  17.2826725 130.0897538
  86.5257548   8.1260600 113.8995145  86.8210989   7.2171279 113.8462198
  85.6245584   8.1048340 113.5776147  98.4343627  19.8467864 120.7045553
  98.3094766  19.0457604 120.1956498  99.0922718  20.3414058 120.2159523
  90.0551795   6.2016597 119.8822693  89.3338381   6.8152564 119.7430167
  90.8445051   6.7374362 119.8039339 100.4978535  17.6476884 122.3325103
  99.5508871  17.5282235 122.2603430 100.8461308  16.7599382 122.4151365
  92.8578108   3.5371023 126.1563345  93.3812510   3.7833320 126.9189654
  92.6390442   4.3691058 125.7366482  88.2545390   5.8074698 114.0234470
  87.9258096   4.9272077 113.8409576  88.6084760   5.7522366 114.9110859
  97.5024968  17.4429601 118.5329455  97.3549931  16.5146308 118.7137025
  98.3278462  17.4649691 118.0486531  91.3687213   6.0947668 114.3909947
  91.7083285   6.6233589 113.6688556  91.8159333   6.4328074 115.1668514
 101.1059090  18.2658159 119.6194328 102.0305638  18.0601021 119.4818779
 100.9374394  18.0174560 120.5283670  94.0630654   4.4784718 123.8413016
  93.7227474   3.6792531 124.2433695  93.3569660   4.7786429 123.2689849
  93.3555360   4.5922289 112.5903240  94.0763722   4.9703542 112.0866957
  92.7320664   5.3111166 112.6938218  97.4986483   5.2967438 113.5261573
  97.7150097   6.1792076 113.2250401  97.0180550   4.9053652 112.7967215
  92.2385704   8.2553151 120.1032317  92.0930285   8.5693454 120.9956599
  91.7610908   8.8738052 119.5503216  94.0982087   5.2455699 120.1513207
  94.0843656   4.3496793 119.8145505  94.8154515   5.2526363 120.7851493
  95.9508218   5.6793040 122.1966334  95.6925996   6.6010110 122.1950665
  95.4193258   5.2823474 122.8866798 100.8954406  18.7843827 114.9756420
 101.0691284  18.2190249 114.2230272 101.3883298  19.5844722 114.7935909
  86.7131366  10.7958496 123.0419978  86.1684834  11.5718304 123.1740253
  87.5910716  11.1429300 122.8839100  93.5018983   4.1270080 115.4200777
  93.6234894   3.1986726 115.6191664  93.2121025   4.1408766 114.5079092
 106.7493798  11.5480250 116.5946719 107.1924944  10.7987575 116.1965843
 105.8720308  11.5390386 116.2120451 101.8829579  18.1010591 112.0753318
 102.5780484  18.7217284 112.2940632 102.2252729  17.2505942 112.3505696
  87.4997388   9.9228392 125.9350135  86.7579124  10.0711027 126.5214766
  87.1790132  10.1836658 125.0716885 103.7821002  15.5510297 113.6040649
 104.3072326  15.8897569 112.8789969 103.6943355  14.6157312 113.4203783
  95.4441051  19.4644370 125.7330525  95.7528177  19.2193517 126.6053225
  96.2416533  19.6691009 125.2449395  95.4661663  21.6182280 117.9635902
  95.0266653  21.1258659 118.6568758  96.2169780  21.0755248 117.7227977
  87.9454002  17.8093821 117.9660530  88.7712022  17.5097593 117.5859173
  87.5948054  17.0401443 118.4150318  92.9135535  17.1620289 120.0358203
  92.2915544  16.4990994 119.7360431  93.5840402  17.1881421 119.3531851
  86.1462607  15.7280147 118.9249463  85.3094515  15.3002322 118.7433465
  86.1186252  15.9212591 119.8620255  92.9860062   5.6402077 129.6290709
  93.0348218   6.5164200 129.2468479  93.5282577   5.0979470 129.0562353
 103.4714908  16.1843200 128.9091847 102.6810452  16.1667339 128.3696346
 103.2348263  16.7231494 129.6640883 103.5912783  13.0335667 126.2224575
 103.6410788  12.8685674 127.1640098 103.4826707  12.1662926 125.8322456
  92.4749042  15.7124212 113.5116664  92.6237162  16.3959677 112.8583337
  93.2815485  15.6929302 114.0266120 100.8816546   9.0166595 127.5383882
 101.7826408   8.8773060 127.2467880 100.9564520   9.1821050 128.4782059
  95.2159351   6.3933449 126.3837068  94.3462660   6.6867015 126.1119657
  95.4518831   6.9773894 127.1044332 105.0930980  15.4532608 126.4666597
 104.8015788  15.8162589 127.3030058 104.4803111  14.7399616 126.2879929
 106.2926662  13.0185488 118.9869167 107.1273554  13.4575292 119.1506727
 106.4285791  12.5424141 118.1677413 103.3418168  10.5765223 124.9346655
 103.8172290  10.7692869 124.1265506 102.4183734  10.6324409 124.6890038
  90.2301675  11.7389390 114.5177733  89.9847717  10.8351720 114.7157943
  90.3997589  11.7406540 113.5757211  97.9198385   2.6113066 123.9002489
  98.4380329   3.3474093 123.5748977  97.5653518   2.9177060 124.7349248
  89.4997322   7.4717748 112.0163894  88.8066567   7.5462103 111.3603930
  89.2549074   6.7078091 112.5385411  95.9744447  18.2072343 110.9828411
  95.4018414  18.8262530 110.5298883  96.5477241  18.7571704 111.5168333
 102.0419837   7.4530983 123.1674960 102.9937260   7.5529081 123.1887184
 101.8723288   6.6609251 123.6773045 100.0634217   4.5386566 123.3534361
  99.4684149   4.8191579 122.6580850  99.7783913   5.0280467 124.1251102
  99.1941707  18.4909493 112.1136994 100.1272380  18.4255055 112.3169869
  99.1064920  19.3265760 111.6551526 101.8229724  17.8075363 109.0740941
 101.7443355  17.4735227 109.9676699 102.6439391  18.2997131 109.0732414
 104.5207915  10.6737103 122.2817260 104.4884235   9.7353103 122.4676944
 105.1308539  10.7521139 121.5483085  96.3591246   9.5433156 108.3244464
  97.3050351   9.4139364 108.3932882  95.9805491   8.8047817 108.8013892
 104.6702404   7.4648146 122.3275543 104.1541452   6.6806603 122.1405472
 105.5542352   7.1366863 122.4922063 110.3384465  11.7353109 121.4223297
 111.0687853  11.4738398 121.9831000 109.7291410  10.9981831 121.4625365
 108.4199762   9.8760972 122.0197748 107.6932926   9.7416937 121.4114239
 108.0047049  10.1837801 122.8254466  96.2429938  13.5950902 129.7845121
  97.1632948  13.7729501 129.9785167  96.2079521  12.6506947 129.6324820
  94.5434163   7.4683132 108.2599349  93.6365618   7.1716245 108.3362063
  94.8210144   7.1712950 107.3933635  85.4612103   8.7889495 118.7098396
  85.1414888   7.9354804 118.4172770  84.9145532   9.0038073 119.4656363
  89.2392011  11.5051936 122.4267902  89.4578021  12.4369044 122.4455936
  89.6517785  11.1459911 123.2122706  96.1596229   2.0120022 114.4143590
  95.3496957   1.6667107 114.7898836  96.8480646   1.7027565 115.0031202
  94.1119876   7.0785142 131.8170651  94.0116603   8.0279499 131.7482742
  93.8941418   6.7503381 130.9446721  93.3132948   4.3270067 108.4011328
  94.1752112   4.6524965 108.6607146  93.4983292   3.5401563 107.8884394
  85.3300363  12.4092407 120.6791517  84.6363835  11.9946360 120.1661472
  86.0773354  12.4512943 120.0824936  93.9751146  10.5082281 130.6335713
  93.4918228  11.3082641 130.8399602  94.0612085  10.5190226 129.6803157
  87.2437106  12.3410661 118.5557532  87.2207794  12.4398348 117.6039415
  87.5537742  13.1875811 118.8774698  89.9024484  14.3986816 122.6704146
  90.8567737  14.3670758 122.6034078  89.7037007  13.9377439 123.4854372
  90.4923866  12.9687932 125.2374944  91.3116755  13.4632010 125.2609781
  90.7660674  12.0519900 125.2092512 100.2490462   5.3598684 114.6002900
  99.3616317   5.6448335 114.3823094 100.6644451   5.1992447 113.7530176
 103.6004998   5.3845205 118.3157239 104.3765388   5.8741657 118.5881856
 102.8753132   5.8103259 118.7729108 106.0377557   6.0972824 119.3731179
 106.6322048   5.8568560 118.6624488 106.1104141   5.3779955 120.0004716
  88.2574713  19.9406435 119.6874344  88.1229181  19.1806836 119.1212342
  87.8406775  20.6647335 119.2203133  99.3933676  15.1243359 108.6950920
 100.0969526  15.3293361 109.3108575  98.6696324  15.6920121 108.9600003
 100.2231486  10.8753220 114.8153190 100.1666687  11.3321771 113.9760822
 100.7759828  10.1143905 114.6376032 104.0336292   6.6642952 115.6403309
 103.7773226   6.2639587 116.4711517 103.4089160   7.3786746 115.5153448
 108.3448630   9.4039025 118.1474601 107.7848188   9.4732214 118.9206163
 107.7392133   9.2280010 117.4274097  91.4143839  20.8375752 119.8992787
  91.2976223  21.7821185 119.7971477  90.5936285  20.5349314 120.2878586
 101.3020373  15.5625888 110.7449380 102.1365977  15.1307086 110.5626854
 101.1404716  15.3907902 111.6726274 100.9566265  12.0658001 112.1105719
 100.9015069  11.9002273 111.1694163 100.3312320  12.7734034 112.2667909
  85.7458780   7.3026066 125.9367141  86.3917644   6.7925020 126.4254366
  85.5375931   8.0394747 126.5110566  98.2712172  14.3706913 131.4359282
  99.1403332  14.5447565 131.0745917  97.7918924  15.1901330 131.3135011
  94.2662391   1.5666110 111.6891037  94.2541061   2.5107950 111.8459308
  95.1585813   1.3836256 111.3950499  92.4398353  21.4904014 123.1148715
  93.3425599  21.5227624 123.4315210  92.2135723  20.5604465 123.1295051
  94.1951955  20.2435001 119.7758794  93.2447586  20.2436862 119.6623166
  94.4984441  19.4967735 119.2594829  90.0856271   4.4493683 130.0342155
  90.9487733   4.0930487 130.2445480  89.5121682   4.1107577 130.7217560
 109.9304648  26.0795539 120.8404556 110.5683058  25.9602286 120.1367896
 109.8125491  27.0276383 120.8992509 106.7394354  26.0322967 120.7766081
 106.4012866  25.9164032 119.8886616 107.6084123  25.6314132 120.7567087
 102.5981170  27.8858443 116.7662972 102.0346035  27.7948380 115.9979260
 102.4833565  27.0658348 117.2465465 107.2214137  27.1857819 126.7352287
 107.2102778  26.7910617 125.8632790 107.3834777  26.4523891 127.3286058
 100.1445602  29.3809635 119.6047192 100.9366894  29.0400460 119.1893492
 100.3842252  29.4904610 120.5249346 108.1780729  31.5529411 112.0777437
 107.5268709  32.1383492 111.6911451 108.9725092  32.0835606 112.1372474
 102.1036356  28.6418548 112.4764571 102.8767232  28.0947535 112.3377447
 102.4561755  29.5062798 112.6879033 103.9421399  29.9694931 125.6831471
 103.6511265  30.8740561 125.5678137 104.5778383  30.0111458 126.3975540
 104.8677605  27.3471779 122.2732830 105.4641178  27.1227802 121.5589793
 104.9252577  26.6056525 122.8758278 104.4402634  24.8011214 110.1083021
 104.6928154  24.2792736 109.3466484 103.5027193  24.6377360 110.2109705
 109.4845917  23.8046993 117.9157764 110.2709006  23.3866416 117.5648181
 109.7484621  24.7093085 118.0839413 109.6555994  29.2419843 112.6146421
 109.0201827  29.3154470 113.3267326 109.3253400  29.8313442 111.9365500
 114.8854344  23.7422226 118.8190743 115.6179516  23.1721443 119.0528572
 114.1293699  23.3543826 119.2597248 104.1598923  26.7039320 112.3107396
 104.0435181  26.0284224 112.9788480 104.2701182  26.2171694 111.4939549
 106.5030463  26.1649468 116.0154085 106.1388671  25.6380088 116.7267007
 107.3597579  25.7747937 115.8420571 112.4079764  17.4543800 123.2785352
 112.0763089  18.3239211 123.0546566 111.8125377  17.1380084 123.9579382
 106.1435950  21.1939367 111.0115434 106.3110353  22.0619604 111.3785905
 105.9533120  21.3566649 110.0876723 108.9011284  29.6556346 122.6781264
 108.6012007  30.5581385 122.5697071 108.5562343  29.3888529 123.5302417
 102.3523765  26.1070143 118.7117969 101.4274262  25.9746357 118.9195660
 102.6008178  26.8864362 119.2087911 112.3008427  22.1738886 120.3578702
 111.3925305  22.1054295 120.0637463 112.2496023  22.6510831 121.1860527
 106.1225171  23.6497025 111.9962101 106.0024797  24.0954075 112.8347581
 105.4277760  23.9982342 111.4375639  99.7132576  25.7503417 119.5461758
  99.8424957  26.0037895 120.4601169  99.0330027  26.3431125 119.2266413
 103.8832063  36.4200666 115.6452232 103.8056093  37.3708492 115.7240713
 103.2793707  36.0746539 116.3027158 106.3749293  23.5928532 128.3013599
 105.5982627  24.1522452 128.2916463 107.0139856  24.0785315 128.8228469
 114.1670074  20.3755325 122.1356575 113.5244454  20.6687858 121.4896370
 113.6625002  20.2608245 122.9409772 111.8210237  24.1218498 112.8242435
 112.7328094  24.3545885 112.6490132 111.3119885  24.7055542 112.2617513
 104.6295666  26.4013985 127.8631566 105.3710350  26.9399029 127.5866389
 103.9232651  27.0280274 128.0203118 110.1051005  28.5443126 126.4603727
 110.5134361  28.1025536 125.7158360 109.3828267  27.9695753 126.7137920
 106.4582075  23.4815732 123.8337284 107.3043270  23.9055146 123.9771933
 106.3980713  22.8249357 124.5275847 110.4279820  29.1044316 120.2156016
 109.7988682  29.2690030 119.5132084 110.0405482  29.5185926 120.9866980
 114.3069052  30.0398754 117.5700380 113.6220090  30.4197656 117.0197413
 114.3912901  30.6494081 118.3032328 109.6081521  21.1420101 125.4918458
 109.3642452  21.8962161 124.9552734 109.8841451  21.5205448 126.3265705
 111.5619983  27.6858713 124.1695723 111.7736879  28.3290473 123.4930105
 111.5149732  26.8521030 123.7017654 109.1646212  20.2976534 121.0732296
 108.3030691  20.5957787 121.3649033 109.1908647  20.5146933 120.1413328
 105.9807782  28.8418724 117.4806101 106.4446127  29.1206427 116.6910724
 105.7164580  27.9402169 117.2979192 102.8731863  28.3890206 120.4185865
 103.4433220  28.8177474 119.7803349 103.4639975  28.1072791 121.1170050
 104.9176668  24.9641877 114.2895666 105.6200711  25.4162920 114.7569593
 104.5857296  24.3225696 114.9175560 103.3657029  23.5553633 128.6646876
 102.7355690  24.2369914 128.8982273 103.2593117  23.4436715 127.7200014
  98.6602002  23.2225429 119.5912800  97.8701056  23.4782958 119.1152911
  99.1513249  24.0373767 119.6964841 112.6765811  30.5630669 122.3418081
 113.4983255  30.1610856 122.0600762 112.6728214  30.4598903 123.2934197
 100.6116747  23.5870009 116.5496277  99.8147910  23.6988703 117.0679772
 100.3842339  23.9256661 115.6837167 106.4422415  30.1114712 124.4978791
 106.5066847  30.5735119 125.3336963 105.7333339  29.4812077 124.6261101
  96.9439705  23.4755920 122.0227791  97.1947743  24.3602930 122.2885367
  97.4799253  23.2960521 121.2502883 120.7671804  26.9069417 118.6903052
 120.0135513  26.3376815 118.5347057 120.9019346  26.8732082 119.6373687
 106.1570432  31.7782819 114.3657772 106.0216107  32.6234355 114.7942619
 106.6980245  31.9802097 113.6023705 102.6437772  17.8574399 131.0272127
 102.2504718  17.3040598 131.7019771 103.4603912  18.1684978 131.4178644
  99.6099830  29.2958257 114.9385697 100.1224350  30.0901508 115.0891261
 100.2622543  28.5984548 114.8719298 101.4194714  32.4124014 117.0208450
 101.5961343  33.3341978 116.8329434 102.2151548  32.0982433 117.4502830
 105.5605733  19.2732278 128.6192383 106.3015446  19.8739432 128.5396846
 105.7923656  18.5309916 128.0610426 100.7047071  24.4588646 126.8970613
 100.5900586  23.5573903 127.1977712  99.8491589  24.7052342 126.5455430
 107.7838909  32.4006386 128.4958114 107.3402763  31.6142764 128.1779018
 108.4456122  32.5885536 127.8302005 102.5426030  33.9302188 123.0218792
 103.0933455  33.8019251 122.2495786 101.7037506  34.2297077 122.6713685
 109.8820147  32.6809186 126.5239515 109.8638622  33.5018067 126.0319784
 110.8040067  32.5563261 126.7489656 106.3393201  30.1953315 127.3663023
 106.8721538  29.4341604 127.1362331 105.8107282  29.9026967 128.1087178
 109.5062896  15.3013381 122.8956665 109.1627165  16.1915023 122.8195776
 109.8741859  15.1115039 122.0326250  97.5748747  27.6246912 115.7145267
  98.4123969  28.0343920 115.4978975  97.7527014  26.6846354 115.6845461
 109.4713179  25.2921992 111.4029100 108.9559802  26.0626597 111.6417488
 109.1990487  24.6187129 112.0262162 107.0560290  20.1371693 116.4614339
 106.2001886  19.7478544 116.2819977 107.4687241  20.2163654 115.6014124
 108.5859436  17.6718036 120.8605898 108.0824232  17.6348172 120.0473704
 108.8790043  18.5810779 120.9202555 104.8302322  17.7556766 119.8672080
 105.6955319  17.5599575 119.5077970 104.8979831  17.5267118 120.7941437
 114.4447453  28.0454347 113.3382274 113.6676896  27.7065507 112.8937436
 115.1238934  28.0506970 112.6637239 109.2599482  23.1649085 113.2288881
 108.9549617  23.4795234 114.0799025 110.2129924  23.2430504 113.2716214
 107.7045914  29.3239308 114.8781835 107.1767275  28.5892067 114.5655073
 107.2033416  30.1013984 114.6321804 112.6838760  27.5188328 119.9948882
 112.0262434  28.2087590 120.0829010 113.4879159  27.9084760 120.3382868
 102.4364641  19.9858974 117.2388447 103.0108393  19.7634156 116.5061640
 103.0235624  20.0547669 117.9917048 111.4944218  25.8732701 118.0452823
 112.0076100  26.5062693 118.5474533 112.1445442  25.2733897 117.6796183
 102.7634228  22.0163435 111.2584332 101.9271541  22.3538122 111.5793607
 102.6238998  21.8812415 110.3211469 104.7387309  16.8600223 115.9663516
 104.0851721  16.5449240 115.3420131 104.6967783  16.2375963 116.6923339
 105.8498514  27.1419518 107.8816808 104.9425576  26.9108772 108.0807957
 106.3469546  26.3457137 108.0690790 108.7566593  35.8517025 110.8013495
 108.0828291  36.1548722 111.4098452 109.1432415  36.6546106 110.4518952
 107.9725049  23.3482157 120.2911164 107.0547611  23.5697104 120.1332852
 108.3885193  23.4228467 119.4322871 108.7560097  24.7473572 115.4213844
 109.5031916  25.2594969 115.1120966 109.0251687  24.4257625 116.2818238
 107.0286747  27.2432113 112.4040799 106.1197967  26.9591146 112.5013268
 107.0581831  27.6631192 111.5444105 112.2606015  30.8538702 116.1731966
 111.8068342  30.0129612 116.2297157 111.6299981  31.4900101 116.5106746
 111.2038934  21.7830688 117.4032634 110.4661691  21.2708075 117.7342876
 111.4565708  21.3431070 116.5915910 110.7038954  32.6915199 117.1081784
 110.9961928  33.2520256 116.3894150 111.2137575  32.9843760 117.8634943
 111.3050562  14.5606940 117.9974403 111.6109438  13.7004304 117.7100318
 112.0303166  15.1524561 117.7973397  97.5974918  24.9637627 116.3856001
  97.3999317  24.3706988 115.6607067  97.0421582  24.6589837 117.1031940
 105.5771641  24.8560734 118.5050594 105.6320251  23.9034570 118.4293070
 104.7662843  25.0120173 118.9891892 106.7262835  28.7840857 109.7428877
 106.2882265  28.0676716 109.2834514 107.4673276  29.0116971 109.1813968
 103.5164001  23.4737793 116.2640973 102.7031867  23.7731964 116.6706165
 104.0122995  23.0793482 116.9815455 105.6672579  33.4695550 118.1975237
 105.6248758  33.6956397 117.2683769 106.5835278  33.2358925 118.3461039
 109.1138213  23.9379618 125.0955867 109.4687601  24.1651091 125.9550332
 109.7610344  24.2697995 124.4733122 114.8435950  27.0598054 115.8005196
 114.7053848  27.2499650 114.8726385 114.4872169  27.8217436 116.2573247
 103.0078076  21.0456149 121.8802208 103.6477455  20.9044908 121.1825171
 102.1755607  20.7590662 121.5040810 114.8705329  29.1274581 120.8116467
 115.3041836  29.0349870 121.6599521 115.5836910  29.1032081 120.1736483
 103.7838380  30.3458579 117.9937200 104.5778978  29.8508899 117.7919775
 103.0730072  29.8176442 117.6304906 108.6033224  32.7276675 122.3449568
 108.6570247  33.2967611 123.1127284 107.7348006  32.8978560 121.9803605
 100.0921143  24.4901661 114.0696953  99.1618731  24.4286116 114.2866915
 100.1878615  23.9677614 113.2733594 100.0106692  21.0156474 116.6575195
 100.2713510  21.9301807 116.5484355 100.8323865  20.5480916 116.8071807
 101.4831618  22.4294231 123.8274019 102.1554671  22.2211593 123.1786668
 100.6561404  22.2316317 123.3879251 115.7320879  29.1698281 123.3449353
 115.9256769  30.0744092 123.5908628 115.6321497  28.7105700 124.1787938
 107.3857190  19.0556172 125.8439680 106.7385105  19.7546122 125.7504156
 108.1558205  19.4892316 126.2115928 110.7935988  29.3205024 128.9190233
 110.6421494  29.0915576 128.0020317 110.7840667  30.2775625 128.9321578
 107.5621324  26.8936937 123.9036500 108.4913384  27.0448096 123.7305467
 107.1412354  26.9820958 123.0485146 106.3609656  30.9187601 121.6735037
 106.2220742  30.5506386 122.5460975 105.5724252  31.4335241 121.5018995
 106.9557808  36.0196698 113.0160574 107.1309564  35.5484741 113.8306196
 106.2690596  36.6462464 113.2441835 107.9114871  30.2969204 119.0623875
 107.5764704  30.2569974 119.9581525 107.4118817  29.6313920 118.5894285
 101.8859115  25.7036834 124.5876456 101.7478913  24.9717073 125.1887995
 102.7964038  25.6145734 124.3060644 110.8474063  27.6425238 109.3360935
 110.2303233  26.9172066 109.2393987 110.3790551  28.4034599 108.9928009
 104.5141416  25.4156793 124.0760136 105.2241034  24.7749985 124.0346754
 104.4710724  25.6669688 124.9986317 112.5028194  32.3524147 126.9966715
 112.4440741  31.6683367 126.3297298 112.9047713  33.0943137 126.5447341
 103.2270350  22.4022011 125.8955775 102.6907707  21.9512750 126.5477372
 102.6387058  22.5367920 125.1526240 101.5218893  39.1686060 119.7900434
 101.7615491  39.8004585 120.4679453 100.6788090  38.8174100 120.0765793
 102.6372609  21.8610663 108.4582239 101.7602075  21.7399463 108.0944486
 103.1130362  21.0696741 108.2061128 112.5045602  30.3163731 125.2280695
 111.6172380  29.9789652 125.3507094 113.0744153  29.5846762 125.4649460
  94.1574749  26.6487822 118.5523746  94.8445789  26.3349552 117.9644761
  94.0022877  27.5529187 118.2790998  98.9609471  21.5378019 122.9808770
  98.8767660  20.9303688 122.2459180  98.1392177  22.0287037 122.9818266
 106.0346755  34.9765183 122.1941938 105.9616926  35.7820154 122.7061242
 105.5924148  35.1757149 121.3689959 105.8236535  34.2136953 115.7044759
 105.0404057  34.7558633 115.7982984 106.5229280  34.7310933 116.1039001
 109.1333185  20.0231582 118.3478965 109.6301884  19.2701545 118.0280035
 108.3620166  20.0595899 117.7822174 116.9862942  25.7271948 119.9897256
 116.9752818  26.6096663 119.6191189 116.1180322  25.3743499 119.7951793
 108.4945439  34.8752017 124.3500097 109.2073411  35.5099482 124.2775998
 108.0035467  34.9715883 123.5340098 110.2162965  28.7803270 115.9217388
 109.2819244  28.9004732 115.7522093 110.3939634  27.8775736 115.6577398
 105.7168154  22.1648965 118.0750649 105.3465941  21.6120006 118.7631555
 106.2127246  21.5607099 117.5225650 113.6035517  24.6220589 116.4567422
 114.0695969  25.4548580 116.3827725 114.0543017  24.1565570 117.1612681
 103.5457352  32.6246460 125.1705667 104.2466812  33.2582943 125.3235062
 103.0752467  32.9661192 124.4101307 111.6711748  30.9664410 113.4553574
 111.9471592  30.8521005 114.3647449 110.8016247  30.5681895 113.4165748
 111.5752180  16.9901176 120.4958324 110.6615259  17.2205403 120.6640531
 112.0045281  17.0739620 121.3472356 111.3458638  25.1791068 122.9958218
 110.6930088  25.4266975 122.3410671 111.7239018  24.3655206 122.6620695
 108.3065812  35.2150761 117.0986388 108.4888206  34.3972417 117.5614140
 109.1298798  35.4318453 116.6611278 108.6407977  34.1418946 114.3601437
 109.1695744  33.6311401 113.7471599 108.9036197  33.8261476 115.2246970
 107.3946211  25.9210879 129.4824255 106.7186848  25.8205008 130.1526630
 108.2173845  25.7650093 129.9460252  99.1425070  32.1582815 122.1036770
  99.7278507  31.4126503 122.2364674  98.9449909  32.4686772 122.9873434
 101.9963725  35.1934063 117.1199212 101.3274101  35.6780190 116.6363253
 101.8576595  35.4403283 118.0342591  93.7342725  24.7288416 120.8241213
  93.7726824  24.1952006 121.6178331  93.2283018  24.2023621 120.2052190
 106.1368994  37.2277806 123.7181871 106.6887302  37.3909428 124.4830956
 106.4775187  37.8182244 123.0461896 101.1133487  19.5752956 124.3203756
 101.1774814  20.4367787 123.9081153 101.0500607  18.9626958 123.5876114
 100.5885760  21.6476089 127.9676790 101.2157799  21.2653166 128.5814314
  99.7313679  21.4290291 128.3332482 110.9879868  32.0539064 129.5730525
 111.5319772  32.6669022 129.0785480 110.4066713  32.6118642 130.0897538
  97.3651302  23.4552518 113.8995145  97.6604744  22.5463196 113.8462198
  96.4639338  23.4340257 113.5776147 109.2737381  35.1759782 120.7045553
 109.1488521  34.3749522 120.1956498 109.9316472  35.6705975 120.2159523
 100.8945549  21.5308514 119.8822693 100.1732135  22.1444482 119.7430167
 101.6838805  22.0666279 119.8039339 111.3372290  32.9768802 122.3325103
 110.3902625  32.8574153 122.2603430 111.6855063  32.0891300 122.4151365
 103.6971863  18.8662941 126.1563345 104.2206265  19.1125237 126.9189654
 103.4784196  19.6982976 125.7366482  99.0939144  21.1366615 114.0234470
  98.7651850  20.2563994 113.8409576  99.4478515  21.0814284 114.9110859
 108.3418723  32.7721518 118.5329455 108.1943685  31.8438226 118.7137025
 109.1672216  32.7941609 118.0486531 102.2080967  21.4239585 114.3909947
 102.5477040  21.9525507 113.6688556 102.6553088  21.7619991 115.1668514
 111.9452845  33.5950077 119.6194328 112.8699392  33.3892938 119.4818779
 111.7768148  33.3466478 120.5283670 104.9024408  19.8076636 123.8413016
 104.5621228  19.0084449 124.2433695 104.1963414  20.1078347 123.2689849
 105.5540880  16.8925948 122.2940339 106.3766949  16.4186427 122.1719229
 105.7978943  17.6716432 122.7939025 104.1949114  19.9214207 112.5903240
 104.9157477  20.2995460 112.0866957 103.5714418  20.6403084 112.6938218
 108.3380237  20.6259356 113.5261573 108.5543852  21.5083994 113.2250401
 107.8574304  20.2345569 112.7967215 103.0779459  23.5845069 120.1032317
 102.9324039  23.8985372 120.9956599 102.6004662  24.2029969 119.5503216
 104.9375841  20.5747617 120.1513207 104.9237410  19.6788710 119.8145505
 105.6548270  20.5818281 120.7851493 106.7901972  21.0084957 122.1966334
 106.5319750  21.9302028 122.1950665 106.2587013  20.6115392 122.8866798
 111.7348161  34.1135744 114.9756420 111.9085038  33.5482167 114.2230272
 112.2277052  34.9136639 114.7935909  97.5525121  26.1250413 123.0419978
  97.0078589  26.9010221 123.1740253  98.4304471  26.4721218 122.8839100
 104.3412737  19.4561997 115.4200777 104.4628649  18.5278644 115.6191664
 104.0514780  19.4700683 114.5079092 107.2103928  17.1416908 118.5567497
 107.2325625  17.2056241 117.6019476 107.6271987  16.3021416 118.7508003
 117.5887552  26.8772167 116.5946719 118.0318698  26.1279493 116.1965843
 116.7114062  26.8682304 116.2120451 112.7223333  33.4302509 112.0753318
 113.4174238  34.0509201 112.2940632 113.0646484  32.5797860 112.3505696
  98.3391143  25.2520310 125.9350135  97.5972879  25.4002945 126.5214766
  98.0183887  25.5128575 125.0716885 114.6214757  30.8802214 113.6040649
 115.1466081  31.2189487 112.8789969 114.5337109  29.9449230 113.4203783
 106.2834805  34.7936288 125.7330525 106.5921932  34.5485435 126.6053225
 107.0810287  34.9982926 125.2449395 106.3055417  36.9474198 117.9635902
 105.8660408  36.4550576 118.6568758 107.0563534  36.4047165 117.7227977
  98.7847756  33.1385738 117.9660530  99.6105776  32.8389510 117.5859173
  98.4341808  32.3693361 118.4150318 103.7529289  32.4912207 120.0358203
 103.1309299  31.8282912 119.7360431 104.4234156  32.5173339 119.3531851
  96.9856361  31.0572065 118.9249463  96.1488270  30.6294239 118.7433465
  96.9580007  31.2504508 119.8620255 103.8253817  20.9693995 129.6290709
 103.8741972  21.8456118 129.2468479 104.3676331  20.4271388 129.0562353
 114.3108663  31.5135118 128.9091847 113.5204206  31.4959257 128.3696346
 114.0742017  32.0523412 129.6640883 114.4306538  28.3627584 126.2224575
 114.4804543  28.1977592 127.1640098 114.3220461  27.4954843 125.8322456
 103.3142796  31.0416130 113.5116664 103.4630917  31.7251594 112.8583337
 104.1209240  31.0221220 114.0266120 111.7210300  24.3458512 127.5383882
 112.6220163  24.2064977 127.2467880 111.7958275  24.5112967 128.4782059
 106.0553105  21.7225367 126.3837068 105.1856415  22.0158933 126.1119657
 106.2912586  22.3065812 127.1044332 115.9324735  30.7824526 126.4666597
 115.6409543  31.1454506 127.3030058 115.3196866  30.0691534 126.2879929
 117.1320417  28.3477406 118.9869167 117.9667308  28.7867210 119.1506727
 117.2679546  27.8716059 118.1677413 114.1811923  25.9057140 124.9346655
 114.6566044  26.0984787 124.1265506 113.2577488  25.9616326 124.6890038
 101.0695429  27.0681308 114.5177733 100.8241471  26.1643638 114.7157943
 101.2391344  27.0698458 113.5757211 108.7592139  17.9404984 123.9002489
 109.2774083  18.6766011 123.5748977 108.4047272  18.2468977 124.7349248
 100.3391077  22.8009665 112.0163894  99.6460322  22.8754020 111.3603930
 100.0942829  22.0370009 112.5385411 109.0104733  14.3605267 119.4203385
 109.2906487  13.6928456 120.0463812 109.7955340  14.5534362 118.9078049
 106.8138202  33.5364260 110.9828411 106.2412169  34.1554448 110.5298883
 107.3870996  34.0863622 111.5168333 112.8813592  22.7822901 123.1674960
 113.8331015  22.8820998 123.1887184 112.7117042  21.9901169 123.6773045
 110.9027971  19.8678484 123.3534361 110.3077903  20.1483496 122.6580850
 110.6177668  20.3572385 124.1251102 110.0335462  33.8201411 112.1136994
 110.9666135  33.7546972 112.3169869 109.9458675  34.6557677 111.6551526
 112.6623478  33.1367281 109.0740941 112.5837110  32.8027145 109.9676699
 113.4833145  33.6289049 109.0732414 115.3601670  26.0029020 122.2817260
 115.3277990  25.0645021 122.4676944 115.9702293  26.0813057 121.5483085
 107.1985000  24.8725073 108.3244464 108.1444105  24.7431281 108.3932882
 106.8199245  24.1339735 108.8013892 115.5096158  22.7940064 122.3275543
 114.9935207  22.0098520 122.1405472 116.3936107  22.4658780 122.4922063
 113.1706885  16.5381079 118.2871356 112.9731706  16.2296167 119.1714688
 113.7806591  17.2642718 118.4169286 121.1778219  27.0645027 121.4223297
 121.9081608  26.8030315 121.9831000 120.5685165  26.3273749 121.4625365
 119.2593517  25.2052890 122.0197748 118.5326680  25.0708855 121.4114239
 118.8440803  25.5129718 122.8254466 107.0823693  28.9242819 129.7845121
 108.0026702  29.1021418 129.9785167 107.0473276  27.9798865 129.6324820
 105.3827918  22.7975050 108.2599349 104.4759373  22.5008162 108.3362063
 105.6603899  22.5004868 107.3933635  96.3005858  24.1181413 118.7098396
  95.9808642  23.2646721 118.4172770  95.7539286  24.3329991 119.4656363
 100.0785765  26.8343854 122.4267902 100.2971775  27.7660962 122.4455936
 100.4911539  26.4751828 123.2122706 106.9989983  17.3411939 114.4143590
 106.1890712  16.9959024 114.7898836 107.6874400  17.0319483 115.0031202
 108.9280532  16.4189986 116.0367887 109.4811570  16.8385440 116.6957910
 109.1650618  15.4925734 116.0790843 104.9513631  22.4077060 131.8170651
 104.8510358  23.3571417 131.7482742 104.7335173  22.0795299 130.9446721
 104.1526702  19.6561985 108.4011328 105.0145866  19.9816883 108.6607146
 104.3377046  18.8693481 107.8884394  96.1694118  27.7384324 120.6791517
  95.4757589  27.3238277 120.1661472  96.9167109  27.7804861 120.0824936
 112.3059339  18.5290511 115.5446551 111.7258008  19.1875315 115.1624604
 112.0395271  17.7067856 115.1333969 110.7562905  17.9295569 117.7467872
 111.2562683  18.0412104 116.9382190 111.3998513  17.6256622 118.3868680
 104.8144901  25.8374199 130.6335713 104.3311983  26.6374559 130.8399602
 104.9005840  25.8482143 129.6803157  98.0830860  27.6702578 118.5557532
  98.0601549  27.7690266 117.6039415  98.3931497  28.5167729 118.8774698
 100.7418238  29.7278733 122.6704146 101.6961492  29.6962676 122.6034078
 100.5430762  29.2669357 123.4854372 101.3317620  28.2979849 125.2374944
 102.1510509  28.7923928 125.2609781 101.6054428  27.3811817 125.2092512
 111.0884217  20.6890602 114.6002900 110.2010072  20.9740252 114.3823094
 111.5038206  20.5284365 113.7530176 114.4398753  20.7137123 118.3157239
 115.2159143  21.2033575 118.5881856 113.7146887  21.1395177 118.7729108
 116.8771311  21.4264742 119.3731179 117.4715802  21.1860478 118.6624488
 116.9497895  20.7071872 120.0004716  99.0968467  35.2698353 119.6874344
  98.9622935  34.5098754 119.1212342  98.6800529  35.9939253 119.2203133
 110.2327430  30.4535276 108.6950920 110.9363280  30.6585279 109.3108575
 109.5090079  31.0212038 108.9600003 111.0625240  26.2045138 114.8153190
 111.0060442  26.6613689 113.9760822 111.6153583  25.4435822 114.6376032
 114.8730046  21.9934869 115.6403309 114.6166981  21.5931505 116.4711517
 114.2482914  22.7078663 115.5153448 119.1842384  24.7330943 118.1474601
 118.6241942  24.8024132 118.9206163 118.5785888  24.5571927 117.4274097
 102.2537593  36.1667670 119.8992787 102.1369977  37.1113102 119.7971477
 101.4330039  35.8641231 120.2878586 112.1414128  30.8917806 110.7449380
 112.9759731  30.4599004 110.5626854 111.9798470  30.7199819 111.6726274
 111.7960020  27.3949919 112.1105719 111.7408824  27.2294190 111.1694163
 111.1706075  28.1025952 112.2667909  96.5852535  22.6317983 125.9367141
  97.2311398  22.1216937 126.4254366  96.3769686  23.3686665 126.5110566
 109.1105927  29.6998831 131.4359282 109.9797087  29.8739483 131.0745917
 108.6312678  30.5193248 131.3135011 105.1056145  16.8958028 111.6891037
 105.0934815  17.8399868 111.8459308 105.9979567  16.7128173 111.3950499
 103.2792107  36.8195932 123.1148715 104.1819354  36.8519542 123.4315210
 103.0529477  35.8896383 123.1295051 105.0345709  35.5726918 119.7758794
 104.0841340  35.5728780 119.6623166 105.3378195  34.8259653 119.2594829
 108.9208265  13.4900804 115.9436974 108.1540660  12.9359291 116.0893656
 109.3318970  13.5622673 116.8051126 100.9250026  19.7785600 130.0342155
 101.7881487  19.4222405 130.2445480 100.3515436  19.4399495 130.7217560
 120.7698403  41.4087457 120.8404556 121.4076813  41.2894204 120.1367896
 120.6519246  42.3568301 120.8992509 117.5788109  41.3614885 120.7766081
 117.2406620  41.2455949 119.8886616 118.4477877  40.9606050 120.7567087
 113.4374925  43.2150361 116.7662972 112.8739790  43.1240298 115.9979260
 113.3227320  42.3950266 117.2465465 118.0607892  42.5149736 126.7352287
 118.0496533  42.1202535 125.8632790 118.2228531  41.7815809 127.3286058
 110.9839357  44.7101553 119.6047192 111.7760648  44.3692377 119.1893492
 111.2236007  44.8196528 120.5249346 119.0174483  46.8821329 112.0777437
 118.3662463  47.4675409 111.6911451 119.8118846  47.4127524 112.1372474
 112.9430110  43.9710466 112.4764571 113.7160986  43.4239453 112.3377447
 113.2955509  44.8354715 112.6879033 114.7815153  45.2986848 125.6831471
 114.4905019  46.2032479 125.5678137 115.4172137  45.3403376 126.3975540
 115.7071360  42.6763697 122.2732830 116.3034932  42.4519719 121.5589793
 115.7646331  41.9348442 122.8758278 115.2796388  40.1303132 110.1083021
 115.5321909  39.6084653 109.3466484 114.3420947  39.9669278 110.2109705
 120.3239671  39.1338910 117.9157764 121.1102760  38.7158334 117.5648181
 120.5878375  40.0385003 118.0839413 120.4949748  44.5711761 112.6146421
 119.8595581  44.6446387 113.3267326 120.1647155  45.1605360 111.9365500
 125.7248098  39.0714144 118.8190743 126.4573270  38.5013361 119.0528572
 124.9687454  38.6835744 119.2597248 114.9992677  42.0331238 112.3107396
 114.8828935  41.3576141 112.9788480 115.1094937  41.5463612 111.4939549
 117.3424218  41.4941385 116.0154085 116.9782425  40.9672006 116.7267007
 118.1991334  41.1039854 115.8420571 123.2473519  32.7835718 123.2785352
 122.9156843  33.6531129 123.0546566 122.6519132  32.4672002 123.9579382
 116.9829705  36.5231285 111.0115434 117.1504107  37.3911521 111.3785905
 116.7926874  36.6858567 110.0876723 119.7405038  44.9848264 122.6781264
 119.4405761  45.8873303 122.5697071 119.3956098  44.7180447 123.5302417
 113.1917520  41.4362061 118.7117969 112.2668016  41.3038275 118.9195660
 113.4401933  42.2156280 119.2087911 123.1402182  37.5030804 120.3578702
 122.2319059  37.4346212 120.0637463 123.0889778  37.9802749 121.1860527
 116.9618926  38.9788942 111.9962101 116.8418551  39.4245993 112.8347581
 116.2671514  39.3274260 111.4375639 110.5526331  41.0795334 119.5461758
 110.6818712  41.3329813 120.4601169 109.8723782  41.6723042 119.2266413
 114.7225818  51.7492584 115.6452232 114.6449848  52.7000409 115.7240713
 114.1187462  51.4038457 116.3027158 117.2143048  38.9220450 128.3013599
 116.4376382  39.4814370 128.2916463 117.8533611  39.4077233 128.8228469
 125.0063828  35.7047242 122.1356575 124.3638209  35.9979776 121.4896370
 124.5018757  35.5900163 122.9409772 122.6603992  39.4510416 112.8242435
 123.5721848  39.6837802 112.6490132 122.1513639  40.0347460 112.2617513
 115.4689420  41.7305903 127.8631566 116.2104104  42.2690947 127.5866389
 114.7626405  42.3572192 128.0203118 120.9444760  43.8735043 126.4603727
 121.3528116  43.4317454 125.7158360 120.2222021  43.2987671 126.7137920
 117.2975830  38.8107650 123.8337284 118.1437025  39.2347064 123.9771933
 117.2374467  38.1541274 124.5275847 121.2673574  44.4336234 120.2156016
 120.6382437  44.5981948 119.5132084 120.8799236  44.8477844 120.9866980
 125.1462806  45.3690672 117.5700380 124.4613844  45.7489573 117.0197413
 125.2306655  45.9785999 118.3032328 120.4475275  36.4712019 125.4918458
 120.2036207  37.2254079 124.9552734 120.7235206  36.8497366 126.3265705
 122.4013738  43.0150631 124.1695723 122.6130633  43.6582391 123.4930105
 122.3543486  42.1812947 123.7017654 120.0039967  35.6268452 121.0732296
 119.1424446  35.9249705 121.3649033 120.0302401  35.8438850 120.1413328
 116.8201536  44.1710642 117.4806101 117.2839882  44.4498345 116.6910724
 116.5558334  43.2694087 117.2979192 113.7125617  43.7182124 120.4185865
 114.2826974  44.1469392 119.7803349 114.3033729  43.4364708 121.1170050
 115.7570422  40.2933794 114.2895666 116.4594466  40.7454838 114.7569593
 115.4251051  39.6517613 114.9175560 114.2050784  38.8845551 128.6646876
 113.5749444  39.5661832 128.8982273 114.0986872  38.7728633 127.7200014
 109.4995756  38.5517347 119.5912800 108.7094810  38.8074876 119.1152911
 109.9907004  39.3665685 119.6964841 123.5159566  45.8922586 122.3418081
 124.3377009  45.4902774 122.0600762 123.5121969  45.7890820 123.2934197
 111.4510502  38.9161926 116.5496277 110.6541665  39.0280621 117.0679772
 111.2236094  39.2548579 115.6837167 117.2816169  45.4406630 124.4978791
 117.3460602  45.9027037 125.3336963 116.5727093  44.8103995 124.6261101
 107.7833459  38.8047838 122.0227791 108.0341498  39.6894848 122.2885367
 108.3193008  38.6252439 121.2502883 131.6065559  42.2361335 118.6903052
 130.8529267  41.6668733 118.5347057 131.7413100  42.2023999 119.6373687
 116.9964187  47.1074737 114.3657772 116.8609862  47.9526273 114.7942619
 117.5373999  47.3094015 113.6023705 113.4831526  33.1866317 131.0272127
 113.0898472  32.6332516 131.7019771 114.2997667  33.4976895 131.4178644
 110.4493584  44.6250175 114.9385697 110.9618105  45.4193425 115.0891261
 111.1016297  43.9276466 114.8719298 112.2588469  47.7415931 117.0208450
 112.4355097  48.6633896 116.8329434 113.0545302  47.4274351 117.4502830
 116.3999487  34.6024196 128.6192383 117.1409201  35.2031349 128.5396846
 116.6317410  33.8601834 128.0610426 111.5440825  39.7880563 126.8970613
 111.4294341  38.8865821 127.1977712 110.6885343  40.0344260 126.5455430
 118.6232663  47.7298304 128.4958114 118.1796517  46.9434682 128.1779018
 119.2849877  47.9177454 127.8302005 113.3819784  49.2594105 123.0218792
 113.9327210  49.1311169 122.2495786 112.5431260  49.5588994 122.6713685
 120.7213901  48.0101104 126.5239515 120.7032377  48.8309985 126.0319784
 121.6433821  47.8855179 126.7489656 117.1786955  45.5245233 127.3663023
 117.7115292  44.7633521 127.1362331 116.6501037  45.2318885 128.1087178
 120.3456650  30.6305299 122.8956665 120.0020920  31.5206941 122.8195776
 120.7135613  30.4406957 122.0326250 108.4142501  42.9538829 115.7145267
 109.2517723  43.3635838 115.4978975 108.5920769  42.0138272 115.6845461
 120.3106933  40.6213910 111.4029100 119.7953557  41.3918515 111.6417488
 120.0384242  39.9479046 112.0262162 117.8954044  35.4663611 116.4614339
 117.0395640  35.0770461 116.2819977 118.3080996  35.5455572 115.6014124
 119.4253191  33.0009954 120.8605898 118.9217986  32.9640089 120.0473704
 119.7183798  33.9102697 120.9202555 115.6696077  33.0848684 119.8672080
 116.5349073  32.8891493 119.5077970 115.7373586  32.8559036 120.7941437
 125.2841207  43.3746265 113.3382274 124.5070650  43.0357424 112.8937436
 125.9632688  43.3798888 112.6637239 120.0993236  38.4941002 113.2288881
 119.7943372  38.8087151 114.0799025 121.0523678  38.5722422 113.2716214
 118.5439668  44.6531226 114.8781835 118.0161030  43.9183985 114.5655073
 118.0427171  45.4305902 114.6321804 123.5232514  42.8480246 119.9948882
 122.8656189  43.5379507 120.0829010 124.3272913  43.2376678 120.3382868
 113.2758396  35.3150892 117.2388447 113.8502148  35.0926073 116.5061640
 113.8629378  35.3839586 117.9917048 122.3337973  41.2024619 118.0452823
 122.8469855  41.8354611 118.5474533 122.9839197  40.6025814 117.6796183
 113.6027983  37.3455353 111.2584332 112.7665295  37.6830039 111.5793607
 113.4632753  37.2104333 110.3211469 115.5781063  32.1892141 115.9663516
 114.9245476  31.8741158 115.3420131 115.5361538  31.5667881 116.6923339
 116.6892268  42.4711436 107.8816808 115.7819330  42.2400689 108.0807957
 117.1863300  41.6749055 108.0690790 119.5960347  51.1808943 110.8013495
 118.9222046  51.4840640 111.4098452 119.9826169  51.9838023 110.4518952
 118.8118804  38.6774074 120.2911164 117.8941365  38.8989021 120.1332852
 119.2278947  38.7520385 119.4322871 119.5953852  40.0765490 115.4213844
 120.3425671  40.5886887 115.1120966 119.8645441  39.7549543 116.2818238
 117.8680502  42.5724031 112.4040799 116.9591721  42.2883063 112.5013268
 117.8975586  42.9923109 111.5444105 123.0999769  46.1830620 116.1731966
 122.6462096  45.3421530 116.2297157 122.4693736  46.8192019 116.5106746
 122.0432689  37.1122606 117.4032634 121.3055446  36.5999992 117.7342876
 122.2959462  36.6722988 116.5915910 121.5432708  48.0207117 117.1081784
 121.8355683  48.5812174 116.3894150 122.0531329  48.3135678 117.8634943
 122.1444316  29.8898858 117.9974403 122.4503193  29.0296222 117.7100318
 122.8696921  30.4816478 117.7973397 108.4368672  40.2929545 116.3856001
 108.2393072  39.6998905 115.6607067 107.8815336  39.9881755 117.1031940
 116.4165396  40.1852651 118.5050594 116.4714006  39.2326488 118.4293070
 115.6056598  40.3412090 118.9891892 117.5656590  44.1132774 109.7428877
 117.1276019  43.3968633 109.2834514 118.3067030  44.3408889 109.1813968
 114.3557756  38.8029711 116.2640973 113.5425621  39.1023882 116.6706165
 114.8516750  38.4085400 116.9815455 116.5066334  48.7987468 118.1975237
 116.4642512  49.0248314 117.2683769 117.4229032  48.5650843 118.3461039
 119.9531967  39.2671535 125.0955867 120.3081355  39.4943009 125.9550332
 120.6004099  39.5989912 124.4733122 125.6829704  42.3889971 115.8005196
 125.5447603  42.5791567 114.8726385 125.3265923  43.1509354 116.2573247
 113.8471830  36.3748067 121.8802208 114.4871210  36.2336826 121.1825171
 113.0149361  36.0882580 121.5040810 125.7099084  44.4566498 120.8116467
 126.1435591  44.3641787 121.6599521 126.4230665  44.4323999 120.1736483
 114.6232134  45.6750497 117.9937200 115.4172733  45.1800817 117.7919775
 113.9123827  45.1468360 117.6304906 119.4426979  48.0568592 122.3449568
 119.4964001  48.6259529 123.1127284 118.5741760  48.2270477 121.9803605
 110.9314898  39.8193579 114.0696953 110.0012486  39.7578034 114.2866915
 111.0272370  39.2969531 113.2733594 110.8500447  36.3448391 116.6575195
 111.1107264  37.2593725 116.5484355 111.6717619  35.8772834 116.8071807
 112.3225372  37.7586149 123.8274019 112.9948426  37.5503511 123.1786668
 111.4955159  37.5608235 123.3879251 126.5714634  44.4990199 123.3449353
 126.7650524  45.4036010 123.5908628 126.4715252  44.0397618 124.1787938
 118.2250944  34.3848090 125.8439680 117.5778859  35.0838039 125.7504156
 118.9951960  34.8184234 126.2115928 121.6329742  44.6496942 128.9190233
 121.4815249  44.4207493 128.0020317 121.6234422  45.6067543 128.9321578
 118.4015079  42.2228854 123.9036500 119.3307139  42.3740014 123.7305467
 117.9806109  42.3112875 123.0485146 117.2003410  46.2479519 121.6735037
 117.0614496  45.8798303 122.5460975 116.4118007  46.7627158 121.5018995
 117.7951562  51.3488615 113.0160574 117.9703318  50.8776659 113.8306196
 117.1084350  51.9754382 113.2441835 118.7508626  45.6261122 119.0623875
 118.4158458  45.5861892 119.9581525 118.2512571  44.9605838 118.5894285
 112.7252869  41.0328752 124.5876456 112.5872667  40.3008990 125.1887995
 113.6357793  40.9437652 124.3060644 121.6867817  42.9717156 109.3360935
 121.0696988  42.2463984 109.2393987 121.2184306  43.7326516 108.9928009
 115.3535170  40.7448711 124.0760136 116.0634789  40.1041903 124.0346754
 115.3104478  40.9961606 124.9986317 123.3421949  47.6816064 126.9966715
 123.2834495  46.9975284 126.3297298 123.7441467  48.4235054 126.5447341
 114.0664104  37.7313929 125.8955775 113.5301461  37.2804667 126.5477372
 113.4780813  37.8659838 125.1526240 112.3612648  54.4977978 119.7900434
 112.6009246  55.1296502 120.4679453 111.5181844  54.1466018 120.0765793
 113.4766363  37.1902580 108.4582239 112.5995829  37.0691381 108.0944486
 113.9524116  36.3988659 108.2061128 123.3439356  45.6455648 125.2280695
 122.4566135  45.3081570 125.3507094 123.9137907  44.9138679 125.4649460
 104.9968503  41.9779740 118.5523746 105.6839543  41.6641470 117.9644761
 104.8416632  42.8821105 118.2790998 109.8003225  36.8669937 122.9808770
 109.7161414  36.2595606 122.2459180 108.9785932  37.3578955 122.9818266
 116.8740510  50.3057101 122.1941938 116.8010681  51.1112072 122.7061242
 116.4317903  50.5049066 121.3689959 116.6630289  49.5428871 115.7044759
 115.8797811  50.0850551 115.7982984 117.3623034  50.0602850 116.1039001
 119.9726939  35.3523500 118.3478965 120.4695639  34.5993462 118.0280035
 119.2013921  35.3887817 117.7822174 127.8256697  41.0563866 119.9897256
 127.8146573  41.9388581 119.6191189 126.9574076  40.7035416 119.7951793
 119.3339193  50.2043935 124.3500097 120.0467165  50.8391399 124.2775998
 118.8429222  50.3007801 123.5340098 121.0556720  44.1095187 115.9217388
 120.1212999  44.2296650 115.7522093 121.2333388  43.2067654 115.6577398
 116.5561908  37.4940883 118.0750649 116.1859696  36.9411923 118.7631555
 117.0521000  36.8899017 117.5225650 124.4429271  39.9512507 116.4567422
 124.9089723  40.7840498 116.3827725 124.8936772  39.4857488 117.1612681
 114.3851107  47.9538378 125.1705667 115.0860566  48.5874861 125.3235062
 113.9146222  48.2953110 124.4101307 122.5105502  46.2956328 113.4553574
 122.7865346  46.1812922 114.3647449 121.6410001  45.8973813 113.4165748
 122.4145934  32.3193094 120.4958324 121.5009014  32.5497320 120.6640531
 122.8439035  32.4031538 121.3472356 122.1852393  40.5082986 122.9958218
 121.5323843  40.7558893 122.3410671 122.5632772  39.6947124 122.6620695
 119.1459566  50.5442679 117.0986388 119.3281961  49.7264335 117.5614140
 119.9692552  50.7610371 116.6611278 119.4801732  49.4710864 114.3601437
 120.0089498  48.9603318 113.7471599 119.7429951  49.1553394 115.2246970
 118.2339966  41.2502797 129.4824255 117.5580603  41.1496926 130.1526630
 119.0567599  41.0942010 129.9460252 109.9818825  47.4874733 122.1036770
 110.5672261  46.7418421 122.2364674 109.7843663  47.7978690 122.9873434
 112.8357480  50.5225981 117.1199212 112.1667855  51.0072108 116.6363253
 112.6970350  50.7695201 118.0342591 104.5736479  40.0580333 120.8241213
 104.6120579  39.5243924 121.6178331 104.0676772  39.5315539 120.2052190
 116.9762748  52.5569724 123.7181871 117.5281056  52.7201346 124.4830956
 117.3168942  53.1474162 123.0461896 111.9527242  34.9044874 124.3203756
 112.0168568  35.7659705 123.9081153 111.8894362  34.2918875 123.5876114
 111.4279514  36.9768006 127.9676790 112.0551553  36.5945084 128.5814314
 110.5707433  36.7582208 128.3332482 121.8273623  47.3830982 129.5730525
 122.3713527  47.9960940 129.0785480 121.2460468  47.9410560 130.0897538
 108.2045057  38.7844436 113.8995145 108.4998498  37.8755114 113.8462198
 107.3033093  38.7632175 113.5776147 120.1131136  50.5051700 120.7045553
 119.9882275  49.7041439 120.1956498 120.7710227  50.9997893 120.2159523
 111.7339304  36.8600432 119.8822693 111.0125890  37.4736400 119.7430167
 112.5232560  37.3958197 119.8039339 122.1766044  48.3060720 122.3325103
 121.2296380  48.1866071 122.2603430 122.5248817  47.4183218 122.4151365
 114.5365617  34.1954859 126.1563345 115.0600019  34.4417155 126.9189654
 114.3177951  35.0274893 125.7366482 109.9332899  36.4658533 114.0234470
 109.6045605  35.5855912 113.8409576 110.2872269  36.4106202 114.9110859
 119.1812477  48.1013436 118.5329455 119.0337440  47.1730143 118.7137025
 120.0065971  48.1233527 118.0486531 113.0474722  36.7531503 114.3909947
 113.3870794  37.2817424 113.6688556 113.4946842  37.0911909 115.1668514
 122.7846599  48.9241995 119.6194328 123.7093147  48.7184856 119.4818779
 122.6161903  48.6758396 120.5283670 115.7418163  35.1368554 123.8413016
 115.4014983  34.3376367 124.2433695 115.0357169  35.4370265 123.2689849
 116.3934634  32.2217866 122.2940339 117.2160704  31.7478344 122.1719229
 116.6372698  33.0008350 122.7939025 115.0342869  35.2506125 112.5903240
 115.7551231  35.6287377 112.0866957 114.4108173  35.9695001 112.6938218
 119.1773992  35.9551274 113.5261573 119.3937606  36.8375911 113.2250401
 118.6968059  35.5637487 112.7967215 113.9173213  38.9136987 120.1032317
 113.7717794  39.2277290 120.9956599 113.4398417  39.5321887 119.5503216
 115.7769596  35.9039535 120.1513207 115.7631165  35.0080628 119.8145505
 116.4942024  35.9110198 120.7851493 117.6295727  36.3376875 122.1966334
 117.3713505  37.2593946 122.1950665 117.0980767  35.9407309 122.8866798
 122.5741915  49.4427662 114.9756420 122.7478793  48.8774085 114.2230272
 123.0670807  50.2428557 114.7935909 108.3918875  41.4542331 123.0419978
 107.8472343  42.2302139 123.1740253 109.2698225  41.8013136 122.8839100
 115.1806492  34.7853915 115.4200777 115.3022403  33.8570561 115.6191664
 114.8908534  34.7992601 114.5079092 118.0497682  32.4708825 118.5567497
 118.0719379  32.5348159 117.6019476 118.4665741  31.6313334 118.7508003
 128.4281307  42.2064085 116.5946719 128.8712453  41.4571410 116.1965843
 127.5507817  42.1974221 116.2120451 123.5617088  48.7594426 112.0753318
 124.2567993  49.3801119 112.2940632 123.9040238  47.9089778 112.3505696
 109.1784897  40.5812227 125.9350135 108.4366633  40.7294863 126.5214766
 108.8577641  40.8420493 125.0716885 125.4608511  46.2094132 113.6040649
 125.9859835  46.5481405 112.8789969 125.3730864  45.2741147 113.4203783
 117.1228560  50.1228206 125.7330525 117.4315686  49.8777352 126.6053225
 117.9204042  50.3274844 125.2449395 117.1449172  52.2766115 117.9635902
 116.7054162  51.7842494 118.6568758 117.8957289  51.7339083 117.7227977
 109.6241511  48.4677656 117.9660530 110.4499531  48.1681428 117.5859173
 109.2735563  47.6985279 118.4150318 114.5923044  47.8204124 120.0358203
 113.9703053  47.1574829 119.7360431 115.2627911  47.8465256 119.3531851
 107.8250116  46.3863983 118.9249463 106.9882024  45.9586157 118.7433465
 107.7973761  46.5796426 119.8620255 114.6647571  36.2985912 129.6290709
 114.7135727  37.1748035 129.2468479 115.2070086  35.7563305 129.0562353
 125.1502417  46.8427036 128.9091847 124.3597961  46.8251174 128.3696346
 124.9135772  47.3815329 129.6640883 125.2700292  43.6919502 126.2224575
 125.3198297  43.5269509 127.1640098 125.1614216  42.8246761 125.8322456
 114.1536551  46.3708048 113.5116664 114.3024671  47.0543512 112.8583337
 114.9602994  46.3513138 114.0266120 122.5604055  39.6750430 127.5383882
 123.4613917  39.5356895 127.2467880 122.6352029  39.8404885 128.4782059
 116.8946860  37.0517285 126.3837068 116.0250169  37.3450851 126.1119657
 117.1306340  37.6357730 127.1044332 126.7718489  46.1116444 126.4666597
 126.4803297  46.4746424 127.3030058 126.1590620  45.3983452 126.2879929
 127.9714171  43.6769323 118.9869167 128.8061063  44.1159127 119.1506727
 128.1073300  43.2007977 118.1677413 125.0205677  41.2349058 124.9346655
 125.4959799  41.4276704 124.1265506 124.0971243  41.2908244 124.6890038
 111.9089184  42.3973225 114.5177733 111.6635226  41.4935555 114.7157943
 112.0785098  42.3990376 113.5757211 119.5985894  33.2696902 123.9002489
 120.1167838  34.0057929 123.5748977 119.2441026  33.5760895 124.7349248
 111.1784831  38.1301583 112.0163894 110.4854076  38.2045938 111.3603930
 110.9336583  37.3661927 112.5385411 119.8498488  29.6897184 119.4203385
 120.1300242  29.0220373 120.0463812 120.6349095  29.8826280 118.9078049
 117.6531956  48.8656178 110.9828411 117.0805923  49.4846365 110.5298883
 118.2264750  49.4155540 111.5168333 123.7207346  38.1114818 123.1674960
 124.6724769  38.2112916 123.1887184 123.5510797  37.3193087 123.6773045
 121.7421726  35.1970401 123.3534361 121.1471658  35.4775414 122.6580850
 121.4571422  35.6864302 124.1251102 120.8729216  49.1493328 112.1136994
 121.8059889  49.0838890 112.3169869 120.7852429  49.9849595 111.6551526
 123.5017233  48.4659199 109.0740941 123.4230864  48.1319062 109.9676699
 124.3226900  48.9580967 109.0732414 126.1995424  41.3320938 122.2817260
 126.1671744  40.3936939 122.4676944 126.8096048  41.4104975 121.5483085
 118.0378755  40.2016991 108.3244464 118.9837860  40.0723199 108.3932882
 117.6593000  39.4631653 108.8013892 126.3489913  38.1231981 122.3275543
 125.8328961  37.3390438 122.1405472 127.2329861  37.7950698 122.4922063
 124.0100639  31.8672997 118.2871356 123.8125461  31.5588085 119.1714688
 124.6200345  32.5934636 118.4169286 132.0171974  42.3936945 121.4223297
 132.7475362  42.1322233 121.9831000 131.4078919  41.6565667 121.4625365
 130.0987271  40.5344807 122.0197748 129.3720435  40.4000772 121.4114239
 129.6834558  40.8421636 122.8254466 117.9217447  44.2534737 129.7845121
 118.8420457  44.4313336 129.9785167 117.8867030  43.3090782 129.6324820
 116.2221672  38.1266967 108.2599349 115.3153127  37.8300080 108.3362063
 116.4997653  37.8296785 107.3933635 107.1399612  39.4473331 118.7098396
 106.8202397  38.5938639 118.4172770 106.5933041  39.6621909 119.4656363
 110.9179520  42.1635772 122.4267902 111.1365530  43.0952879 122.4455936
 111.3305294  41.8043746 123.2122706 117.8383738  32.6703857 114.4143590
 117.0284466  32.3250942 114.7898836 118.5268155  32.3611401 115.0031202
 119.7674286  31.7481904 116.0367887 120.3205325  32.1677357 116.6957910
 120.0044372  30.8217652 116.0790843 115.7907385  37.7368977 131.8170651
 115.6904112  38.6863334 131.7482742 115.5728927  37.4087216 130.9446721
 114.9920457  34.9853903 108.4011328 115.8539621  35.3108801 108.6607146
 115.1770801  34.1985398 107.8884394 107.0087872  43.0676242 120.6791517
 106.3151344  42.6530195 120.1661472 107.7560863  43.1096779 120.0824936
 123.1453093  33.8582429 115.5446551 122.5651762  34.5167233 115.1624604
 122.8789026  33.0359774 115.1333969 121.5956660  33.2587487 117.7467872
 122.0956438  33.3704021 116.9382190 122.2392267  32.9548540 118.3868680
 115.6538655  41.1666116 130.6335713 115.1705737  41.9666476 130.8399602
 115.7399594  41.1774061 129.6803157 108.9224615  42.9994496 118.5557532
 108.8995303  43.0982183 117.6039415 109.2325251  43.8459647 118.8774698
 111.5811993  45.0570651 122.6704146 112.5355246  45.0254593 122.6034078
 111.3824516  44.5961275 123.4854372 112.1711375  43.6271767 125.2374944
 112.9904264  44.1215846 125.2609781 112.4448183  42.7103735 125.2092512
 121.9277971  36.0182519 114.6002900 121.0403826  36.3032170 114.3823094
 122.3431960  35.8576283 113.7530176 125.2792507  36.0429040 118.3157239
 126.0552897  36.5325493 118.5881856 124.5540641  36.4687095 118.7729108
 127.7165066  36.7556660 119.3731179 128.3109557  36.5152396 118.6624488
 127.7891650  36.0363790 120.0004716 109.9362222  50.5990270 119.6874344
 109.8016690  49.8390671 119.1212342 109.5194284  51.3231170 119.2203133
 121.0721185  45.7827194 108.6950920 121.7757035  45.9877197 109.3108575
 120.3483833  46.3503956 108.9600003 121.9018995  41.5337055 114.8153190
 121.8454196  41.9905607 113.9760822 122.4547337  40.7727740 114.6376032
 125.7123801  37.3226787 115.6403309 125.4560735  36.9223423 116.4711517
 125.0876669  38.0370581 115.5153448 130.0236139  40.0622860 118.1474601
 129.4635697  40.1316050 118.9206163 129.4179642  39.8863845 117.4274097
 113.0931347  51.4959588 119.8992787 112.9763732  52.4405020 119.7971477
 112.2723794  51.1933149 120.2878586 122.9807882  46.2209723 110.7449380
 123.8153486  45.7890922 110.5626854 122.8192225  46.0491737 111.6726274
 122.6353774  42.7241837 112.1105719 122.5802578  42.5586108 111.1694163
 122.0099829  43.4317869 112.2667909 107.4246289  37.9609901 125.9367141
 108.0705153  37.4508855 126.4254366 107.2163440  38.6978583 126.5110566
 119.9499681  45.0290748 131.4359282 120.8190841  45.2031401 131.0745917
 119.4706433  45.8485165 131.3135011 115.9449900  32.2249946 111.6891037
 115.9328569  33.1691785 111.8459308 116.8373322  32.0420091 111.3950499
 114.1185862  52.1487849 123.1148715 115.0213108  52.1811460 123.4315210
 113.8923232  51.2188300 123.1295051 115.8739464  50.9018836 119.7758794
 114.9235095  50.9020698 119.6623166 116.1771950  50.1551571 119.2594829
 119.7602019  28.8192722 115.9436974 118.9934415  28.2651209 116.0893656
 120.1712724  28.8914591 116.8051126 111.7643780  35.1077518 130.0342155
 112.6275242  34.7514323 130.2445480 111.1909191  34.7691413 130.7217560
 131.6092157  56.7379374 120.8404556 132.2470567  56.6186122 120.1367896
 131.4913000  57.6860218 120.8992509 128.4181863  56.6906802 120.7766081
 128.0800375  56.5747867 119.8886616 129.2871632  56.2897968 120.7567087
 124.2768679  58.5442279 116.7662972 123.7133544  58.4532216 115.9979260
 124.1621074  57.7242183 117.2465465 128.9001646  57.8441654 126.7352287
 128.8890287  57.4494452 125.8632790 129.0622286  57.1107727 127.3286058
 121.8233111  60.0393470 119.6047192 122.6154403  59.6984295 119.1893492
 122.0629761  60.1488445 120.5249346 129.8568238  62.2113247 112.0777437
 129.2056218  62.7967327 111.6911451 130.6512601  62.7419441 112.1372474
 123.7823865  59.3002384 112.4764571 124.5554741  58.7531371 112.3377447
 124.1349264  60.1646633 112.6879033 125.6208908  60.6278766 125.6831471
 125.3298774  61.5324397 125.5678137 126.2565892  60.6695294 126.3975540
 126.5465114  58.0055614 122.2732830 127.1428687  57.7811637 121.5589793
 126.6040086  57.2640360 122.8758278 126.1190143  55.4595050 110.1083021
 126.3715663  54.9376571 109.3466484 125.1814702  55.2961195 110.2109705
 131.1633426  54.4630828 117.9157764 131.9496515  54.0450251 117.5648181
 131.4272130  55.3676920 118.0839413 131.3343503  59.9003678 112.6146421
 130.6989336  59.9738305 113.3267326 131.0040909  60.4897277 111.9365500
 136.5641853  54.4006061 118.8190743 137.2967025  53.8305278 119.0528572
 135.8081208  54.0127662 119.2597248 125.8386432  57.3623156 112.3107396
 125.7222690  56.6868059 112.9788480 125.9488691  56.8755530 111.4939549
 128.1817972  56.8233303 116.0154085 127.8176180  56.2963924 116.7267007
 129.0385088  56.4331772 115.8420571 134.0867273  48.1127635 123.2785352
 133.7550598  48.9823046 123.0546566 133.4912886  47.7963919 123.9579382
 127.8223459  51.8523203 111.0115434 127.9897862  52.7203439 111.3785905
 127.6320629  52.0150484 110.0876723 130.5798793  60.3140181 122.6781264
 130.2799516  61.2165220 122.5697071 130.2349852  60.0472365 123.5302417
 124.0311274  56.7653978 118.7117969 123.1061771  56.6330192 118.9195660
 124.2795687  57.5448198 119.2087911 133.9795936  52.8322722 120.3578702
 133.0712814  52.7638130 120.0637463 133.9283532  53.3094667 121.1860527
 127.8012680  54.3080860 111.9962101 127.6812306  54.7537911 112.8347581
 127.1065269  54.6566178 111.4375639 121.3920085  56.4087252 119.5461758
 121.5212466  56.6621731 120.4601169 120.7117536  57.0014960 119.2266413
 125.5619572  67.0784502 115.6452232 125.4843602  68.0292327 115.7240713
 124.9581216  66.7330374 116.3027158 128.0536802  54.2512367 128.3013599
 127.2770136  54.8106287 128.2916463 128.6927365  54.7369150 128.8228469
 135.8457583  51.0339160 122.1356575 135.2031963  51.3271693 121.4896370
 135.3412511  50.9192080 122.9409772 133.4997746  54.7802333 112.8242435
 134.4115603  55.0129720 112.6490132 132.9907394  55.3639377 112.2617513
 126.3083174  57.0597821 127.8631566 127.0497859  57.5982865 127.5866389
 125.6020160  57.6864109 128.0203118 131.7838514  59.2026961 126.4603727
 132.1921870  58.7609372 125.7158360 131.0615776  58.6279589 126.7137920
 128.1369584  54.1399568 123.8337284 128.9830779  54.5638981 123.9771933
 128.0768222  53.4833192 124.5275847 132.1067329  59.7628152 120.2156016
 131.4776191  59.9273866 119.5132084 131.7192991  60.1769761 120.9866980
 135.9856561  60.6982590 117.5700380 135.3007599  61.0781491 117.0197413
 136.0700410  61.3077916 118.3032328 131.2869030  51.8003936 125.4918458
 131.0429961  52.5545997 124.9552734 131.5628960  52.1789284 126.3265705
 133.2407492  58.3442549 124.1695723 133.4524388  58.9874308 123.4930105
 133.1937241  57.5104865 123.7017654 130.8433721  50.9560369 121.0732296
 129.9818200  51.2541623 121.3649033 130.8696156  51.1730768 120.1413328
 127.6595291  59.5002560 117.4806101 128.1233636  59.7790263 116.6910724
 127.3952089  58.5986004 117.2979192 124.5519372  59.0474041 120.4185865
 125.1220729  59.4761310 119.7803349 125.1427484  58.7656626 121.1170050
 126.5964177  55.6225712 114.2895666 127.2988220  56.0746756 114.7569593
 126.2644805  54.9809531 114.9175560 125.0444538  54.2137469 128.6646876
 124.4143199  54.8953750 128.8982273 124.9380626  54.1020550 127.7200014
 120.3389511  53.8809265 119.5912800 119.5488565  54.1366793 119.1152911
 120.8300758  54.6957603 119.6964841 134.3553320  61.2214504 122.3418081
 135.1770764  60.8194691 122.0600762 134.3515723  61.1182738 123.2934197
 122.2904256  54.2453844 116.5496277 121.4935419  54.3572538 117.0679772
 122.0629848  54.5840496 115.6837167 128.1209924  60.7698547 124.4978791
 128.1854356  61.2318955 125.3336963 127.4120848  60.1395912 124.6261101
 118.6227214  54.1339755 122.0227791 118.8735252  55.0186765 122.2885367
 119.1586762  53.9544357 121.2502883 142.4459313  57.5653252 118.6903052
 141.6923022  56.9960651 118.5347057 142.5806854  57.5315917 119.6373687
 127.8357941  62.4366655 114.3657772 127.7003616  63.2818191 114.7942619
 128.3767754  62.6385932 113.6023705 124.3225281  48.5158235 131.0272127
 123.9292227  47.9624433 131.7019771 125.1391421  48.8268813 131.4178644
 121.2887339  59.9542093 114.9385697 121.8011859  60.7485343 115.0891261
 121.9410052  59.2568383 114.8719298 123.0982223  63.0707849 117.0208450
 123.2748852  63.9925814 116.8329434 123.8939057  62.7566268 117.4502830
 127.2393242  49.9316114 128.6192383 127.9802955  50.5323267 128.5396846
 127.4711165  49.1893752 128.0610426 122.3834580  55.1172481 126.8970613
 122.2688095  54.2157738 127.1977712 121.5279098  55.3636178 126.5455430
 129.4626418  63.0590221 128.4958114 129.0190272  62.2726600 128.1779018
 130.1243631  63.2469372 127.8302005 124.2213539  64.5886023 123.0218792
 124.7720964  64.4603086 122.2495786 123.3825015  64.8880912 122.6713685
 131.5607656  63.3393021 126.5239515 131.5426131  64.1601902 126.0319784
 132.4827576  63.2147096 126.7489656 128.0180710  60.8537151 127.3663023
 128.5509047  60.0925439 127.1362331 127.4894791  60.5610803 128.1087178
 131.1850405  45.9597217 122.8956665 130.8414674  46.8498858 122.8195776
 131.5529367  45.7698874 122.0326250 119.2536256  58.2830747 115.7145267
 120.0911478  58.6927755 115.4978975 119.4314523  57.3430189 115.6845461
 131.1500688  55.9505828 111.4029100 130.6347311  56.7210432 111.6417488
 130.8777996  55.2770964 112.0262162 128.7347799  50.7955529 116.4614339
 127.8789395  50.4062379 116.2819977 129.1474750  50.8747489 115.6014124
 130.2646945  48.3301872 120.8605898 129.7611741  48.2932007 120.0473704
 130.5577552  49.2394615 120.9202555 126.5089831  48.4140602 119.8672080
 127.3742828  48.2183410 119.5077970 126.5767340  48.1850953 120.7941437
 136.1234962  58.7038182 113.3382274 135.3464405  58.3649342 112.8937436
 136.8026443  58.7090806 112.6637239 130.9386991  53.8232920 113.2288881
 130.6337126  54.1379069 114.0799025 131.8917433  53.9014340 113.2716214
 129.3833423  59.9823143 114.8781835 128.8554784  59.2475903 114.5655073
 128.8820925  60.7597820 114.6321804 134.3626269  58.1772164 119.9948882
 133.7049943  58.8671425 120.0829010 135.1666668  58.5668596 120.3382868
 124.1152150  50.6442809 117.2388447 124.6895902  50.4217991 116.5061640
 124.7023133  50.7131504 117.9917048 133.1731727  56.5316536 118.0452823
 133.6863609  57.1646528 118.5474533 133.8232951  55.9317732 117.6796183
 124.4421737  52.6747270 111.2584332 123.6059050  53.0121957 111.5793607
 124.3026507  52.5396250 110.3211469 126.4174818  47.5184058 115.9663516
 125.7639230  47.2033076 115.3420131 126.3755292  46.8959799 116.6923339
 127.5286023  57.8003353 107.8816808 126.6213085  57.5692607 108.0807957
 128.0257055  57.0040973 108.0690790 130.4354102  66.5100861 110.8013495
 129.7615800  66.8132557 111.4098452 130.8219924  67.3129941 110.4518952
 129.6512558  54.0065992 120.2911164 128.7335120  54.2280939 120.1332852
 130.0672702  54.0812302 119.4322871 130.4347606  55.4057408 115.4213844
 131.1819425  55.9178805 115.1120966 130.7039196  55.0841460 116.2818238
 128.7074256  57.9015948 112.4040799 127.7985476  57.6174981 112.5013268
 128.7369340  58.3215027 111.5444105 133.9393524  61.5122538 116.1731966
 133.4855851  60.6713448 116.2297157 133.3087490  62.1483936 116.5106746
 132.8826443  52.4414524 117.4032634 132.1449200  51.9291910 117.7342876
 133.1353217  52.0014905 116.5915910 132.3826463  63.3499035 117.1081784
 132.6749437  63.9104092 116.3894150 132.8925083  63.6427596 117.8634943
 132.9838071  45.2190776 117.9974403 133.2896947  44.3588139 117.7100318
 133.7090675  45.8108396 117.7973397 119.2762427  55.6221462 116.3856001
 119.0786826  55.0290823 115.6607067 118.7209091  55.3173673 117.1031940
 127.2559150  55.5144569 118.5050594 127.3107760  54.5618405 118.4293070
 126.4450352  55.6704008 118.9891892 128.4050344  59.4424692 109.7428877
 127.9669774  58.7260551 109.2834514 129.1460785  59.6700807 109.1813968
 125.1951510  54.1321629 116.2640973 124.3819376  54.4315799 116.6706165
 125.6910504  53.7377317 116.9815455 127.3460088  64.1279386 118.1975237
 127.3036267  64.3540232 117.2683769 128.2622787  63.8942760 118.3461039
 130.7925722  54.5963453 125.0955867 131.1475110  54.8234926 125.9550332
 131.4397853  54.9281830 124.4733122 136.5223459  57.7181889 115.8005196
 136.3841357  57.9083485 114.8726385 136.1659678  58.4801272 116.2573247
 124.6865585  51.7039984 121.8802208 125.3264964  51.5628743 121.1825171
 123.8543116  51.4174498 121.5040810 136.5492838  59.7858416 120.8116467
 136.9829345  59.6933705 121.6599521 137.2624419  59.7615916 120.1736483
 125.4625889  61.0042415 117.9937200 126.2566487  60.5092735 117.7919775
 124.7517581  60.4760278 117.6304906 130.2820733  63.3860510 122.3449568
 130.3357756  63.9551446 123.1127284 129.4135515  63.5562395 121.9803605
 121.7708652  55.1485496 114.0696953 120.8406240  55.0869952 114.2866915
 121.8666124  54.6261449 113.2733594 121.6894201  51.6740309 116.6575195
 121.9501019  52.5885642 116.5484355 122.5111374  51.2064752 116.8071807
 123.1619127  53.0878066 123.8274019 123.8342180  52.8795428 123.1786668
 122.3348913  52.8900152 123.3879251 137.4108388  59.8282117 123.3449353
 137.6044278  60.7327927 123.5908628 137.3109006  59.3689536 124.1787938
 129.0644699  49.7140007 125.8439680 128.4172614  50.4129957 125.7504156
 129.8345714  50.1476151 126.2115928 132.4723497  59.9788859 128.9190233
 132.3209003  59.7499411 128.0020317 132.4628176  60.9359461 128.9321578
 129.2408833  57.5520772 123.9036500 130.1700893  57.7031932 123.7305467
 128.8199863  57.6404793 123.0485146 128.0397165  61.5771437 121.6735037
 127.9008251  61.2090221 122.5460975 127.2511761  62.0919076 121.5018995
 128.6345317  66.6780533 113.0160574 128.8097073  66.2068576 113.8306196
 127.9478105  67.3046299 113.2441835 129.5902380  60.9553039 119.0623875
 129.2552213  60.9153809 119.9581525 129.0906326  60.2897755 118.5894285
 123.5646624  56.3620669 124.5876456 123.4266422  55.6300908 125.1887995
 124.4751547  56.2729569 124.3060644 132.5261572  58.3009074 109.3360935
 131.9090742  57.5755902 109.2393987 132.0578060  59.0618434 108.9928009
 126.1928925  56.0740629 124.0760136 126.9028543  55.4333821 124.0346754
 126.1498233  56.3253523 124.9986317 134.1815703  63.0107982 126.9966715
 134.1228249  62.3267202 126.3297298 134.5835222  63.7526972 126.5447341
 124.9057859  53.0605847 125.8955775 124.3695216  52.6096585 126.5477372
 124.3174567  53.1951755 125.1526240 123.2006402  69.8269896 119.7900434
 123.4403000  70.4588420 120.4679453 122.3575599  69.4757936 120.0765793
 124.3160118  52.5194498 108.4582239 123.4389584  52.3983299 108.0944486
 124.7917871  51.7280576 108.2061128 134.1833111  60.9747566 125.2280695
 133.2959889  60.6373488 125.3507094 134.7531662  60.2430597 125.4649460
 115.8362258  57.3071658 118.5523746 116.5233298  56.9933388 117.9644761
 115.6810386  58.2113022 118.2790998 120.6396980  52.1961854 122.9808770
 120.5555169  51.5887524 122.2459180 119.8179686  52.6870873 122.9818266
 127.7134264  65.6349018 122.1941938 127.6404435  66.4403990 122.7061242
 127.2711657  65.8340984 121.3689959 127.5024044  64.8720788 115.7044759
 126.7191566  65.4142468 115.7982984 128.2016789  65.3894768 116.1039001
 130.8120694  50.6815418 118.3478965 131.3089393  49.9285380 118.0280035
 130.0407675  50.7179734 117.7822174 138.6650451  56.3855783 119.9897256
 138.6540327  57.2680499 119.6191189 137.7967831  56.0327334 119.7951793
 130.1732948  65.5335852 124.3500097 130.8860920  66.1683317 124.2775998
 129.6822976  65.6299718 123.5340098 131.8950474  59.4387105 115.9217388
 130.9606753  59.5588567 115.7522093 132.0727143  58.5359572 115.6577398
 127.3955662  52.8232801 118.0750649 127.0253450  52.2703841 118.7631555
 127.8914755  52.2190934 117.5225650 135.2823026  55.2804424 116.4567422
 135.7483478  56.1132416 116.3827725 135.7330526  54.8149406 117.1612681
 125.2244861  63.2830296 125.1705667 125.9254321  63.9166779 125.3235062
 124.7539976  63.6245027 124.4101307 133.3499257  61.6248246 113.4553574
 133.6259101  61.5104840 114.3647449 132.4803756  61.2265730 113.4165748
 133.2539689  47.6485011 120.4958324 132.3402768  47.8789238 120.6640531
 133.6832790  47.7323455 121.3472356 133.0246147  55.8374903 122.9958218
 132.3717597  56.0850811 122.3410671 133.4026527  55.0239041 122.6620695
 129.9853321  65.8734596 117.0986388 130.1675715  65.0556252 117.5614140
 130.8086307  66.0902289 116.6611278 130.3195486  64.8002782 114.3601437
 130.8483253  64.2895236 113.7471599 130.5823706  64.4845312 115.2246970
 129.0733720  56.5794714 129.4824255 128.3974357  56.4788844 130.1526630
 129.8961354  56.4233928 129.9460252 120.8212579  62.8166651 122.1036770
 121.4066016  62.0710339 122.2364674 120.6237418  63.1270608 122.9873434
 123.6751234  65.8517898 117.1199212 123.0061610  66.3364026 116.6363253
 123.5364104  66.0987119 118.0342591 115.4130234  55.3872251 120.8241213
 115.4514333  54.8535842 121.6178331 114.9070527  54.8607457 120.2052190
 127.8156503  67.8861642 123.7181871 128.3674811  68.0493263 124.4830956
 128.1562696  68.4766080 123.0461896 122.7920996  50.2336792 124.3203756
 122.8562323  51.0951622 123.9081153 122.7288116  49.6210793 123.5876114
 122.2673269  52.3059924 127.9676790 122.8945307  51.9237001 128.5814314
 121.4101188  52.0874126 128.3332482 132.6667377  62.7122899 129.5730525
 133.2107281  63.3252858 129.0785480 132.0854222  63.2702478 130.0897538
 119.0438811  54.1136353 113.8995145 119.3392253  53.2047032 113.8462198
 118.1426847  54.0924093 113.5776147 130.9524890  65.8343617 120.7045553
 130.8276030  65.0333357 120.1956498 131.6103981  66.3289811 120.2159523
 122.5733058  52.1892350 119.8822693 121.8519644  52.8028317 119.7430167
 123.3626314  52.7250115 119.8039339 133.0159799  63.6352637 122.3325103
 132.0690134  63.5157989 122.2603430 133.3642572  62.7475135 122.4151365
 125.3759372  49.5246776 126.1563345 125.8993774  49.7709073 126.9189654
 125.1571705  50.3566811 125.7366482 120.7726653  51.7950451 114.0234470
 120.4439359  50.9147830 113.8409576 121.1266024  51.7398120 114.9110859
 130.0206232  63.4305354 118.5329455 129.8731194  62.5022061 118.7137025
 130.8459725  63.4525444 118.0486531 123.8868476  52.0823421 114.3909947
 124.2264549  52.6109342 113.6688556 124.3340597  52.4203827 115.1668514
 133.6240354  64.2533912 119.6194328 134.5486901  64.0476774 119.4818779
 133.4555657  64.0050313 120.5283670 126.5811917  50.4660471 123.8413016
 126.2408737  49.6668284 124.2433695 125.8750923  50.7662182 123.2689849
 127.2328389  47.5509784 122.2940339 128.0554458  47.0770262 122.1719229
 127.4766452  48.3300268 122.7939025 125.8736623  50.5798042 112.5903240
 126.5944986  50.9579295 112.0866957 125.2501927  51.2986919 112.6938218
 130.0167746  51.2843191 113.5261573 130.2331361  52.1667829 113.2250401
 129.5361813  50.8929405 112.7967215 124.7566968  54.2428904 120.1032317
 124.6111548  54.5569207 120.9956599 124.2792171  54.8613805 119.5503216
 126.6163350  51.2331452 120.1513207 126.6024919  50.3372546 119.8145505
 127.3335779  51.2402116 120.7851493 128.4689481  51.6668793 122.1966334
 128.2107259  52.5885863 122.1950665 127.9374522  51.2699227 122.8866798
 133.4135670  64.7719580 114.9756420 133.5872547  64.2066002 114.2230272
 133.9064561  65.5720475 114.7935909 119.2312630  56.7834249 123.0419978
 118.6866098  57.5594057 123.1740253 120.1091980  57.1305053 122.8839100
 126.0200246  50.1145833 115.4200777 126.1416158  49.1862479 115.6191664
 125.7302289  50.1284519 114.5079092 128.8891437  47.8000743 118.5567497
 128.9113134  47.8640076 117.6019476 129.3059496  46.9605252 118.7508003
 139.2675061  57.5356003 116.5946719 139.7106207  56.7863328 116.1965843
 138.3901571  57.5266139 116.2120451 134.4010842  64.0886344 112.0753318
 135.0961747  64.7093037 112.2940632 134.7433993  63.2381695 112.3505696
 120.0178652  55.9104145 125.9350135 119.2760388  56.0586780 126.5214766
 119.6971396  56.1712411 125.0716885 136.3002266  61.5386050 113.6040649
 136.8253590  61.8773322 112.8789969 136.2124618  60.6033065 113.4203783
 127.9622314  65.4520123 125.7330525 128.2709441  65.2069270 126.6053225
 128.7597796  65.6566762 125.2449395 127.9842926  67.6058033 117.9635902
 127.5447917  67.1134412 118.6568758 128.7351043  67.0631001 117.7227977
 120.4635265  63.7969574 117.9660530 121.2893285  63.4973346 117.5859173
 120.1129317  63.0277196 118.4150318 125.4316798  63.1496042 120.0358203
 124.8096808  62.4866747 119.7360431 126.1021665  63.1757174 119.3531851
 118.6643870  61.7155900 118.9249463 117.8275779  61.2878075 118.7433465
 118.6367516  61.9088344 119.8620255 125.5041326  51.6277830 129.6290709
 125.5529481  52.5039953 129.2468479 126.0463840  51.0855223 129.0562353
 135.9896172  62.1718953 128.9091847 135.1991715  62.1543092 128.3696346
 135.7529526  62.7107247 129.6640883 136.1094047  59.0211420 126.2224575
 136.1592052  58.8561427 127.1640098 136.0007970  58.1538679 125.8322456
 124.9930305  61.6999965 113.5116664 125.1418426  62.3835430 112.8583337
 125.7996749  61.6805055 114.0266120 133.3997809  55.0042348 127.5383882
 134.3007672  54.8648813 127.2467880 133.4745784  55.1696803 128.4782059
 127.7340614  52.3809202 126.3837068 126.8643924  52.6742769 126.1119657
 127.9700095  52.9649647 127.1044332 137.6112243  61.4408361 126.4666597
 137.3197052  61.8038342 127.3030058 136.9984375  60.7275369 126.2879929
 138.8107926  59.0061241 118.9869167 139.6454817  59.4451045 119.1506727
 138.9467055  58.5299894 118.1677413 135.8599432  56.5640976 124.9346655
 136.3353553  56.7568622 124.1265506 134.9364997  56.6200162 124.6890038
 122.7482938  57.7265143 114.5177733 122.5028980  56.8227473 114.7157943
 122.9178853  57.7282293 113.5757211 130.4379648  48.5988819 123.9002489
 130.9561592  49.3349846 123.5748977 130.0834781  48.9052813 124.7349248
 122.0178586  53.4593501 112.0163894 121.3247831  53.5337856 111.3603930
 121.7730338  52.6953844 112.5385411 130.6892242  45.0189102 119.4203385
 130.9693996  44.3512291 120.0463812 131.4742849  45.2118198 118.9078049
 128.4925711  64.1948096 110.9828411 127.9199678  64.8138283 110.5298883
 129.0658505  64.7447458 111.5168333 134.5601101  53.4406736 123.1674960
 135.5118524  53.5404834 123.1887184 134.3904551  52.6485004 123.6773045
 132.5815480  50.5262319 123.3534361 131.9865412  50.8067332 122.6580850
 132.2965177  51.0156220 124.1251102 131.7122971  64.4785246 112.1136994
 132.6453644  64.4130808 112.3169869 131.6246183  65.3141513 111.6551526
 134.3410987  63.7951116 109.0740941 134.2624619  63.4610980 109.9676699
 135.1620654  64.2872884 109.0732414 137.0389179  56.6612856 122.2817260
 137.0065499  55.7228856 122.4676944 137.6489802  56.7396892 121.5483085
 128.8772509  55.5308909 108.3244464 129.8231614  55.4015117 108.3932882
 128.4986754  54.7923570 108.8013892 137.1883667  53.4523899 122.3275543
 136.6722716  52.6682356 122.1405472 138.0723616  53.1242616 122.4922063
 134.8494394  47.1964915 118.2871356 134.6519215  46.8880003 119.1714688
 135.4594099  47.9226554 118.4169286 142.8565728  57.7228862 121.4223297
 143.5869117  57.4614151 121.9831000 142.2472674  56.9857584 121.4625365
 140.9381025  55.8636725 122.0197748 140.2114189  55.7292690 121.4114239
 140.5228312  56.1713554 122.8254466 128.7611202  59.5826655 129.7845121
 129.6814211  59.7605254 129.9785167 128.7260785  58.6382700 129.6324820
 127.0615427  53.4558885 108.2599349 126.1546882  53.1591998 108.3362063
 127.3391408  53.1588703 107.3933635 117.9793367  54.7765248 118.7098396
 117.6596151  53.9230557 118.4172770 117.4326795  54.9913827 119.4656363
 121.7573274  57.4927689 122.4267902 121.9759284  58.4244797 122.4455936
 122.1699048  57.1335664 123.2122706 128.6777492  47.9995775 114.4143590
 127.8678221  47.6542860 114.7898836 129.3661909  47.6903318 115.0031202
 130.6068041  47.0773821 116.0367887 131.1599079  47.4969275 116.6957910
 130.8438127  46.1509570 116.0790843 126.6301140  53.0660895 131.8170651
 126.5297867  54.0155252 131.7482742 126.4122682  52.7379134 130.9446721
 125.8314211  50.3145820 108.4011328 126.6933375  50.6400718 108.6607146
 126.0164555  49.5277316 107.8884394 117.8481627  58.3968160 120.6791517
 117.1545098  57.9822113 120.1661472 118.5954618  58.4388696 120.0824936
 133.9846848  49.1874347 115.5446551 133.4045517  49.8459151 115.1624604
 133.7182780  48.3651691 115.1333969 132.4350414  48.5879404 117.7467872
 132.9350192  48.6995939 116.9382190 133.0786022  48.2840457 118.3868680
 126.4932410  56.4958034 130.6335713 126.0099492  57.2958394 130.8399602
 126.5793349  56.5065979 129.6803157 119.7618369  58.3286414 118.5557532
 119.7389058  58.4274101 117.6039415 120.0719006  59.1751564 118.8774698
 122.4205747  60.3862569 122.6704146 123.3749001  60.3546511 122.6034078
 122.2218271  59.9253192 123.4854372 123.0105129  58.9563685 125.2374944
 123.8298018  59.4507763 125.2609781 123.2841937  58.0395653 125.2092512
 132.7671726  51.3474437 114.6002900 131.8797581  51.6324088 114.3823094
 133.1825715  51.1868200 113.7530176 136.1186262  51.3720958 118.3157239
 136.8946652  51.8617410 118.5881856 135.3934396  51.7979012 118.7729108
 138.5558820  52.0848577 119.3731179 139.1503311  51.8444313 118.6624488
 138.6285404  51.3655708 120.0004716 120.7755976  65.9282188 119.6874344
 120.6410444  65.1682589 119.1212342 120.3588038  66.6523088 119.2203133
 131.9114939  61.1119112 108.6950920 132.6150789  61.3169114 109.3108575
 131.1877588  61.6795874 108.9600003 132.7412749  56.8628973 114.8153190
 132.6847951  57.3197524 113.9760822 133.2941092  56.1019658 114.6376032
 136.5517555  52.6518705 115.6403309 136.2954490  52.2515340 116.4711517
 135.9270423  53.3662499 115.5153448 140.8629893  55.3914778 118.1474601
 140.3029451  55.4607967 118.9206163 140.2573397  55.2155763 117.4274097
 123.9325102  66.8251505 119.8992787 123.8157486  67.7696938 119.7971477
 123.1117548  66.5225067 120.2878586 133.8201637  61.5501641 110.7449380
 134.6547240  61.1182839 110.5626854 133.6585979  61.3783655 111.6726274
 133.4747529  58.0533754 112.1105719 133.4196332  57.8878026 111.1694163
 132.8493584  58.7609787 112.2667909 118.2640044  53.2901819 125.9367141
 118.9098907  52.7800773 126.4254366 118.0557195  54.0270500 126.5110566
 130.7893436  60.3582666 131.4359282 131.6584596  60.5323318 131.0745917
 130.3100187  61.1777083 131.3135011 126.7843654  47.5541863 111.6891037
 126.7722324  48.4983703 111.8459308 127.6767076  47.3712009 111.3950499
 124.9579616  67.4779767 123.1148715 125.8606863  67.5103377 123.4315210
 124.7316986  66.5480218 123.1295051 126.7133218  66.2310754 119.7758794
 125.7628849  66.2312615 119.6623166 127.0165704  65.4843488 119.2594829
 130.5995774  44.1484640 115.9436974 129.8328169  43.5943127 116.0893656
 131.0106479  44.2206509 116.8051126 122.6037535  50.4369436 130.0342155
 123.4668996  50.0806241 130.2445480 122.0302945  50.0983330 130.7217560
 142.4485912  72.0671292 120.8404556 143.0864322  71.9478039 120.1367896
 142.3306754  73.0152136 120.8992509 139.2575618  72.0198720 120.7766081
 138.9194129  71.9039785 119.8886616 140.1265386  71.6189885 120.7567087
 135.1162434  73.8734197 116.7662972 134.5527299  73.7824133 115.9979260
 135.0014829  73.0534101 117.2465465 139.7395401  73.1733572 126.7352287
 139.7284042  72.7786370 125.8632790 139.9016040  72.4399644 127.3286058
 132.6626866  75.3685388 119.6047192 133.4548157  75.0276213 119.1893492
 132.9023516  75.4780363 120.5249346 140.6961992  77.5405164 112.0777437
 140.0449972  78.1259245 111.6911451 141.4906355  78.0711359 112.1372474
 134.6217619  74.6294301 112.4764571 135.3948495  74.0823288 112.3377447
 134.9743018  75.4938551 112.6879033 136.4602662  75.9570684 125.6831471
 136.1692528  76.8616314 125.5678137 137.0959646  75.9987211 126.3975540
 137.3858869  73.3347532 122.2732830 137.9822441  73.1103555 121.5589793
 137.4433840  72.5932278 122.8758278 136.9583897  70.7886967 110.1083021
 137.2109418  70.2668489 109.3466484 136.0208456  70.6253113 110.2109705
 142.0027180  69.7922746 117.9157764 142.7890269  69.3742169 117.5648181
 142.2665884  70.6968838 118.0839413 142.1737257  75.2295596 112.6146421
 141.5383090  75.3030223 113.3267326 141.8434664  75.8189195 111.9365500
 147.4035607  69.7297979 118.8190743 148.1360779  69.1597196 119.0528572
 146.6474963  69.3419580 119.2597248 136.6780186  72.6915073 112.3107396
 136.5616444  72.0159977 112.9788480 136.7882446  72.2047447 111.4939549
 139.0211727  72.1525221 116.0154085 138.6569934  71.6255842 116.7267007
 139.8778843  71.7623690 115.8420571 144.9261028  63.4419553 123.2785352
 144.5944352  64.3114964 123.0546566 144.3306641  63.1255837 123.9579382
 138.6617214  67.1815120 111.0115434 138.8291616  68.0495357 111.3785905
 138.4714383  67.3442402 110.0876723 141.4192547  75.6432099 122.6781264
 141.1193270  76.5457138 122.5697071 141.0743607  75.3764282 123.5302417
 134.8705029  72.0945896 118.7117969 133.9455525  71.9622110 118.9195660
 135.1189442  72.8740115 119.2087911 144.8189691  68.1614639 120.3578702
 143.9106568  68.0930048 120.0637463 144.7677287  68.6386584 121.1860527
 138.6406435  69.6372778 111.9962101 138.5206060  70.0829829 112.8347581
 137.9459023  69.9858095 111.4375639 132.2313840  71.7379170 119.5461758
 132.3606221  71.9913648 120.4601169 131.5511291  72.3306878 119.2266413
 136.4013327  82.4076420 115.6452232 136.3237357  83.3584245 115.7240713
 135.7974970  82.0622292 116.3027158 138.8930557  69.5804285 128.3013599
 138.1163891  70.1398205 128.2916463 139.5321120  70.0661068 128.8228469
 146.6851337  66.3631078 122.1356575 146.0425718  66.6563611 121.4896370
 146.1806266  66.2483998 122.9409772 144.3391501  70.1094251 112.8242435
 145.2509357  70.3421638 112.6490132 143.8301148  70.6931295 112.2617513
 137.1476929  72.3889738 127.8631566 137.8891613  72.9274782 127.5866389
 136.4413914  73.0156027 128.0203118 142.6232269  74.5318879 126.4603727
 143.0315625  74.0901289 125.7158360 141.9009530  73.9571506 126.7137920
 138.9763339  69.4691486 123.8337284 139.8224534  69.8930899 123.9771933
 138.9161976  68.8125110 124.5275847 142.9461083  75.0920069 120.2156016
 142.3169946  75.2565784 119.5132084 142.5586745  75.5061679 120.9866980
 146.8250315  76.0274507 117.5700380 146.1401353  76.4073409 117.0197413
 146.9094164  76.6369834 118.3032328 142.1262784  67.1295854 125.4918458
 141.8823716  67.8837914 124.9552734 142.4022715  67.5081201 126.3265705
 144.0801247  73.6734466 124.1695723 144.2918142  74.3166226 123.4930105
 144.0330995  72.8396783 123.7017654 141.6827476  66.2852287 121.0732296
 140.8211955  66.5833540 121.3649033 141.7089910  66.5022686 120.1413328
 138.4989045  74.8294477 117.4806101 138.9627391  75.1082180 116.6910724
 138.2345843  73.9277922 117.2979192 135.3913126  74.3765959 120.4185865
 135.9614483  74.8053227 119.7803349 135.9821238  74.0948544 121.1170050
 137.4357931  70.9517630 114.2895666 138.1381975  71.4038674 114.7569593
 137.1038560  70.3101449 114.9175560 135.8838293  69.5429386 128.6646876
 135.2536953  70.2245667 128.8982273 135.7774381  69.4312468 127.7200014
 131.1783265  69.2101182 119.5912800 130.3882319  69.4658711 119.1152911
 131.6694513  70.0249520 119.6964841 145.1947075  76.5506422 122.3418081
 146.0164518  76.1486609 122.0600762 145.1909478  76.4474656 123.2934197
 133.1298011  69.5745762 116.5496277 132.3329174  69.6864456 117.0679772
 132.9023603  69.9132414 115.6837167 138.9603678  76.0990465 124.4978791
 139.0248111  76.5610872 125.3336963 138.2514602  75.4687830 124.6261101
 129.4620968  69.4631673 122.0227791 129.7129007  70.3478683 122.2885367
 129.9980517  69.2836274 121.2502883 153.2853068  72.8945170 118.6903052
 152.5316776  72.3252568 118.5347057 153.4200609  72.8607835 119.6373687
 138.6751696  77.7658572 114.3657772 138.5397371  78.6110108 114.7942619
 139.2161508  77.9677850 113.6023705 135.1619035  63.8450152 131.0272127
 134.7685981  63.2916351 131.7019771 135.9785176  64.1560731 131.4178644
 132.1281093  75.2834010 114.9385697 132.6405614  76.0777261 115.0891261
 132.7803806  74.5860301 114.8719298 133.9375978  78.3999767 117.0208450
 134.1142606  79.3217731 116.8329434 134.7332811  78.0858186 117.4502830
 138.0786996  65.2608031 128.6192383 138.8196710  65.8615185 128.5396846
 138.3104919  64.5185669 128.0610426 133.2228334  70.4464399 126.8970613
 133.1081850  69.5449656 127.1977712 132.3672852  70.6928095 126.5455430
 140.3020172  78.3882139 128.4958114 139.8584026  77.6018518 128.1779018
 140.9637386  78.5761289 127.8302005 135.0607293  79.9177941 123.0218792
 135.6114718  79.7895004 122.2495786 134.2218769  80.2172830 122.6713685
 142.4001410  78.6684939 126.5239515 142.3819886  79.4893820 126.0319784
 143.3221330  78.5439014 126.7489656 138.8574464  76.1829068 127.3663023
 139.3902801  75.4217357 127.1362331 138.3288546  75.8902720 128.1087178
 142.0244159  61.2889134 122.8956665 141.6808429  62.1790776 122.8195776
 142.3923122  61.0990792 122.0326250 130.0930010  73.6122665 115.7145267
 130.9305232  74.0219673 115.4978975 130.2708278  72.6722107 115.6845461
 141.9894442  71.2797745 111.4029100 141.4741066  72.0502350 111.6417488
 141.7171751  70.6062882 112.0262162 139.5741553  66.1247446 116.4614339
 138.7183149  65.7354297 116.2819977 139.9868505  66.2039407 115.6014124
 141.1040700  63.6593789 120.8605898 140.6005495  63.6223925 120.0473704
 141.3971307  64.5686532 120.9202555 137.3483586  63.7432519 119.8672080
 138.2136582  63.5475328 119.5077970 137.4161095  63.5142871 120.7941437
 146.9628716  74.0330100 113.3382274 146.1858159  73.6941260 112.8937436
 147.6420197  74.0382723 112.6637239 141.7780745  69.1524838 113.2288881
 141.4730881  69.4670987 114.0799025 142.7311187  69.2306257 113.2716214
 140.2227177  75.3115061 114.8781835 139.6948539  74.5767820 114.5655073
 139.7214680  76.0889737 114.6321804 145.2020023  73.5064081 119.9948882
 144.5443698  74.1963343 120.0829010 146.0060422  73.8960513 120.3382868
 134.9545905  65.9734727 117.2388447 135.5289657  65.7509909 116.5061640
 135.5416887  66.0423422 117.9917048 144.0125482  71.8608454 118.0452823
 144.5257364  72.4938446 118.5474533 144.6626706  71.2609650 117.6796183
 135.2815492  68.0039188 111.2584332 134.4452804  68.3413875 111.5793607
 135.1420261  67.8688168 110.3211469 137.2568572  62.8475976 115.9663516
 136.6032985  62.5324993 115.3420131 137.2149047  62.2251717 116.6923339
 138.3679777  73.1295271 107.8816808 137.4606839  72.8984525 108.0807957
 138.8650809  72.3332890 108.0690790 141.2747856  81.8392778 110.8013495
 140.6009555  82.1424475 111.4098452 141.6613678  82.6421859 110.4518952
 140.4906313  69.3357910 120.2911164 139.5728874  69.5572857 120.1332852
 140.9066456  69.4104220 119.4322871 141.2741361  70.7349325 115.4213844
 142.0213180  71.2470722 115.1120966 141.5432950  70.4133378 116.2818238
 139.5468011  73.2307866 112.4040799 138.6379230  72.9466899 112.5013268
 139.5763095  73.6506945 111.5444105 144.7787278  76.8414455 116.1731966
 144.3249605  76.0005365 116.2297157 144.1481245  77.4775854 116.5106746
 143.7220198  67.7706442 117.4032634 142.9842955  67.2583828 117.7342876
 143.9746971  67.3306823 116.5915910 143.2220217  78.6790952 117.1081784
 143.5143192  79.2396009 116.3894150 143.7318838  78.9719513 117.8634943
 143.8231825  60.5482694 117.9974403 144.1290702  59.6880057 117.7100318
 144.5484430  61.1400314 117.7973397 130.1156181  70.9513380 116.3856001
 129.9180581  70.3582741 115.6607067 129.5602845  70.6465590 117.1031940
 138.0952905  70.8436487 118.5050594 138.1501515  69.8910323 118.4293070
 137.2844107  70.9995926 118.9891892 139.2444099  74.7716610 109.7428877
 138.8063528  74.0552469 109.2834514 139.9854539  74.9992724 109.1813968
 136.0345265  69.4613546 116.2640973 135.2213130  69.7607717 116.6706165
 136.5304259  69.0669235 116.9815455 138.1853843  79.4571303 118.1975237
 138.1430021  79.6832150 117.2683769 139.1016541  79.2234678 118.3461039
 141.6319476  69.9255371 125.0955867 141.9868864  70.1526844 125.9550332
 142.2791608  70.2573748 124.4733122 147.3617213  73.0473807 115.8005196
 147.2235112  73.2375403 114.8726385 147.0053432  73.8093190 116.2573247
 135.5259339  67.0331902 121.8802208 136.1658719  66.8920661 121.1825171
 134.6936870  66.7466415 121.5040810 147.3886593  75.1150334 120.8116467
 147.8223100  75.0225623 121.6599521 148.1018174  75.0907834 120.1736483
 136.3019643  76.3334332 117.9937200 137.0960242  75.8384652 117.7919775
 135.5911336  75.8052195 117.6304906 141.1214488  78.7152428 122.3449568
 141.1751510  79.2843364 123.1127284 140.2529269  78.8854313 121.9803605
 132.6102407  70.4777414 114.0696953 131.6799995  70.4161870 114.2866915
 132.7059879  69.9553367 113.2733594 132.5287956  67.0032227 116.6575195
 132.7894773  67.9177560 116.5484355 133.3505128  66.5356669 116.8071807
 134.0012881  68.4169984 123.8274019 134.6735935  68.2087346 123.1786668
 133.1742668  68.2192070 123.3879251 148.2502143  75.1574034 123.3449353
 148.4438033  76.0619845 123.5908628 148.1502761  74.6981453 124.1787938
 139.9038453  65.0431925 125.8439680 139.2566368  65.7421875 125.7504156
 140.6739469  65.4768069 126.2115928 143.3117251  75.3080777 128.9190233
 143.1602758  75.0791329 128.0020317 143.3021931  76.2651379 128.9321578
 140.0802588  72.8812690 123.9036500 141.0094648  73.0323849 123.7305467
 139.6593618  72.9696711 123.0485146 138.8790919  76.9063354 121.6735037
 138.7402005  76.5382139 122.5460975 138.0905516  77.4210994 121.5018995
 139.4739071  82.0072451 113.0160574 139.6490827  81.5360494 113.8306196
 138.7871859  82.6338217 113.2441835 140.4296135  76.2844957 119.0623875
 140.0945967  76.2445727 119.9581525 139.9300080  75.6189673 118.5894285
 134.4040378  71.6912587 124.5876456 134.2660176  70.9592826 125.1887995
 135.3145302  71.6021487 124.3060644 143.3655326  73.6300991 109.3360935
 142.7484497  72.9047819 109.2393987 142.8971815  74.3910352 108.9928009
 137.0322679  71.4032546 124.0760136 137.7422298  70.7625739 124.0346754
 136.9891987  71.6545441 124.9986317 145.0209458  78.3399900 126.9966715
 144.9622004  77.6559120 126.3297298 145.4228976  79.0818890 126.5447341
 135.7451613  68.3897764 125.8955775 135.2088970  67.9388503 126.5477372
 135.1568322  68.5243673 125.1526240 134.0400157  85.1561814 119.7900434
 134.2796755  85.7880338 120.4679453 133.1969353  84.8049854 120.0765793
 135.1553872  67.8486416 108.4582239 134.2783338  67.7275216 108.0944486
 135.6311625  67.0572494 108.2061128 145.0226865  76.3039484 125.2280695
 144.1353644  75.9665405 125.3507094 145.5925416  75.5722515 125.4649460
 126.6756012  72.6363575 118.5523746 127.3627052  72.3225305 117.9644761
 126.5204141  73.5404940 118.2790998 131.4790734  67.5253772 122.9808770
 131.3948923  66.9179441 122.2459180 130.6573441  68.0162790 122.9818266
 138.5528018  80.9640936 122.1941938 138.4798190  81.7695907 122.7061242
 138.1105412  81.1632902 121.3689959 138.3417798  80.2012706 115.7044759
 137.5585320  80.7434386 115.7982984 139.0410543  80.7186686 116.1039001
 141.6514448  66.0107335 118.3478965 142.1483148  65.2577298 118.0280035
 140.8801430  66.0471652 117.7822174 149.5044206  71.7147701 119.9897256
 149.4934082  72.5972416 119.6191189 148.6361585  71.3619252 119.7951793
 141.0126702  80.8627770 124.3500097 141.7254674  81.4975235 124.2775998
 140.5216731  80.9591636 123.5340098 142.7344229  74.7679023 115.9217388
 141.8000508  74.8880485 115.7522093 142.9120897  73.8651489 115.6577398
 138.2349417  68.1524718 118.0750649 137.8647204  67.5995759 118.7631555
 138.7308509  67.5482852 117.5225650 146.1216780  70.6096342 116.4567422
 146.5877232  71.4424334 116.3827725 146.5724281  70.1441324 117.1612681
 136.0638616  78.6122213 125.1705667 136.7648075  79.2458696 125.3235062
 135.5933731  78.9536945 124.4101307 144.1893011  76.9540163 113.4553574
 144.4652855  76.8396758 114.3647449 143.3197510  76.5557648 113.4165748
 144.0933443  62.9776929 120.4958324 143.1796523  63.2081156 120.6640531
 144.5226544  63.0615373 121.3472356 143.8639902  71.1666821 122.9958218
 143.2111352  71.4142728 122.3410671 144.2420281  70.3530959 122.6620695
 140.8247075  81.2026514 117.0986388 141.0069470  80.3848170 117.5614140
 141.6480061  81.4194206 116.6611278 141.1589241  80.1294699 114.3601437
 141.6877007  79.6187154 113.7471599 141.4217460  79.8137229 115.2246970
 139.9127475  71.9086632 129.4824255 139.2368112  71.8080761 130.1526630
 140.7355108  71.7525846 129.9460252 131.6606334  78.1458568 122.1036770
 132.2459770  77.4002256 122.2364674 131.4631172  78.4562525 122.9873434
 134.5144989  81.1809816 117.1199212 133.8455364  81.6655944 116.6363253
 134.3757859  81.4279036 118.0342591 126.2523988  70.7164169 120.8241213
 126.2908088  70.1827759 121.6178331 125.7464281  70.1899374 120.2052190
 138.6550257  83.2153559 123.7181871 139.2068565  83.3785181 124.4830956
 138.9956451  83.8057997 123.0461896 133.6314751  65.5628709 124.3203756
 133.6956077  66.4243540 123.9081153 133.5681871  64.9502711 123.5876114
 133.1067023  67.6351842 127.9676790 133.7339062  67.2528919 128.5814314
 132.2494942  67.4166044 128.3332482 143.5061132  78.0414817 129.5730525
 144.0501036  78.6544775 129.0785480 142.9247977  78.5994395 130.0897538
 129.8832566  69.4428271 113.8995145 130.1786007  68.5338949 113.8462198
 128.9820602  69.4216010 113.5776147 141.7918645  81.1635535 120.7045553
 141.6669784  80.3625275 120.1956498 142.4497736  81.6581728 120.2159523
 133.4126813  67.5184267 119.8822693 132.6913399  68.1320235 119.7430167
 134.2020069  68.0542032 119.8039339 143.8553553  78.9644555 122.3325103
 142.9083889  78.8449906 122.2603430 144.2036326  78.0767053 122.4151365
 136.2153126  64.8538694 126.1563345 136.7387528  65.1000990 126.9189654
 135.9965460  65.6858729 125.7366482 131.6120408  67.1242369 114.0234470
 131.2833114  66.2439747 113.8409576 131.9659778  67.0690037 114.9110859
 140.8599986  78.7597271 118.5329455 140.7124949  77.8313979 118.7137025
 141.6853480  78.7817362 118.0486531 134.7262231  67.4115338 114.3909947
 135.0658303  67.9401260 113.6688556 135.1734351  67.7495744 115.1668514
 144.4634108  79.5825830 119.6194328 145.3880656  79.3768691 119.4818779
 144.2949412  79.3342231 120.5283670 137.4205671  65.7952389 123.8413016
 137.0802492  64.9960202 124.2433695 136.7144678  66.0954100 123.2689849
 138.0722143  62.8801701 122.2940339 138.8948213  62.4062180 122.1719229
 138.3160207  63.6592185 122.7939025 136.7130378  65.9089960 112.5903240
 137.4338740  66.2871213 112.0866957 136.0895682  66.6278837 112.6938218
 140.8561501  66.6135109 113.5261573 141.0725115  67.4959747 113.2250401
 140.3755568  66.2221322 112.7967215 135.5960722  69.5720822 120.1032317
 135.4505303  69.8861125 120.9956599 135.1185926  70.1905722 119.5503216
 137.4557105  66.5623370 120.1513207 137.4418674  65.6664463 119.8145505
 138.1729533  66.5694034 120.7851493 139.3083236  66.9960710 122.1966334
 139.0501013  67.9177781 122.1950665 138.7768276  66.5991145 122.8866798
 144.2529424  80.1011497 114.9756420 144.4266302  79.5357920 114.2230272
 144.7458316  80.9012392 114.7935909 130.0706384  72.1126166 123.0419978
 129.5259852  72.8885974 123.1740253 130.9485734  72.4596971 122.8839100
 136.8594001  65.4437750 115.4200777 136.9809912  64.5154397 115.6191664
 136.5696043  65.4576436 114.5079092 139.7285191  63.1292661 118.5567497
 139.7506888  63.1931994 117.6019476 140.1453250  62.2897169 118.7508003
 150.1068816  72.8647920 116.5946719 150.5499962  72.1155246 116.1965843
 149.2295326  72.8558057 116.2120451 145.2404597  79.4178262 112.0753318
 145.9355502  80.0384954 112.2940632 145.5827747  78.5673613 112.3505696
 130.8572406  71.2396063 125.9350135 130.1154142  71.3878698 126.5214766
 130.5365150  71.5004328 125.0716885 147.1396020  76.8677967 113.6040649
 147.6647344  77.2065240 112.8789969 147.0518373  75.9324983 113.4203783
 138.8016069  80.7812041 125.7330525 139.1103195  80.5361188 126.6053225
 139.5991551  80.9858679 125.2449395 138.8236681  82.9349951 117.9635902
 138.3841671  82.4426329 118.6568758 139.5744798  82.3922918 117.7227977
 131.3029020  79.1261491 117.9660530 132.1287040  78.8265263 117.5859173
 130.9523072  78.3569114 118.4150318 136.2710553  78.4787960 120.0358203
 135.6490562  77.8158665 119.7360431 136.9415420  78.5049092 119.3531851
 129.5037625  77.0447818 118.9249463 128.6669533  76.6169992 118.7433465
 129.4761270  77.2380261 119.8620255 136.3435080  66.9569748 129.6290709
 136.3923236  67.8331871 129.2468479 136.8857595  66.4147141 129.0562353
 146.8289926  77.5010871 128.9091847 146.0385470  77.4835010 128.3696346
 146.5923281  78.0399165 129.6640883 146.9487801  74.3503337 126.2224575
 146.9985806  74.1853345 127.1640098 146.8401724  73.4830596 125.8322456
 135.8324060  77.0291883 113.5116664 135.9812180  77.7127347 112.8583337
 136.6390503  77.0096973 114.0266120 144.2391564  70.3334265 127.5383882
 145.1401426  70.1940730 127.2467880 144.3139538  70.4988720 128.4782059
 138.5734369  67.7101120 126.3837068 137.7037678  68.0034686 126.1119657
 138.8093849  68.2941565 127.1044332 148.4505998  76.7700279 126.4666597
 148.1590806  77.1330259 127.3030058 147.8378129  76.0567287 126.2879929
 149.6501680  74.3353159 118.9869167 150.4848572  74.7742963 119.1506727
 149.7860809  73.8591812 118.1677413 146.6993186  71.8932893 124.9346655
 147.1747308  72.0860540 124.1265506 145.7758752  71.9492079 124.6890038
 133.5876693  73.0557061 114.5177733 133.3422735  72.1519391 114.7157943
 133.7572607  73.0574211 113.5757211 141.2773403  63.9280737 123.9002489
 141.7955347  64.6641764 123.5748977 140.9228535  64.2344730 124.7349248
 132.8572340  68.7885418 112.0163894 132.1641585  68.8629773 111.3603930
 132.6124092  68.0245762 112.5385411 141.5285997  60.3481020 119.4203385
 141.8087751  59.6804209 120.0463812 142.3136604  60.5410115 118.9078049
 139.3319465  79.5240013 110.9828411 138.7593432  80.1430201 110.5298883
 139.9052259  80.0739375 111.5168333 145.3994855  68.7698654 123.1674960
 146.3512278  68.8696751 123.1887184 145.2298306  67.9776922 123.6773045
 143.4209235  65.8554237 123.3534361 142.8259167  66.1359250 122.6580850
 143.1358931  66.3448138 124.1251102 142.5516725  79.8077164 112.1136994
 143.4847398  79.7422725 112.3169869 142.4639938  80.6433430 111.6551526
 145.1804742  79.1243034 109.0740941 145.1018373  78.7902898 109.9676699
 146.0014409  79.6164802 109.0732414 147.8782933  71.9904773 122.2817260
 147.8459253  71.0520774 122.4676944 148.4883557  72.0688810 121.5483085
 139.7166264  70.8600826 108.3244464 140.6625369  70.7307034 108.3932882
 139.3380509  70.1215488 108.8013892 148.0277421  68.7815817 122.3275543
 147.5116470  67.9974273 122.1405472 148.9117370  68.4534533 122.4922063
 145.6888148  62.5256832 118.2871356 145.4912970  62.2171920 119.1714688
 146.2987854  63.2518471 118.4169286 153.6959483  73.0520780 121.4223297
 154.4262871  72.7906068 121.9831000 153.0866428  72.3149502 121.4625365
 151.7774780  71.1928643 122.0197748 151.0507944  71.0584608 121.4114239
 151.3622067  71.5005471 122.8254466 139.6004956  74.9118572 129.7845121
 140.5207966  75.0897171 129.9785167 139.5654539  73.9674618 129.6324820
 137.9009181  68.7850803 108.2599349 136.9940636  68.4883915 108.3362063
 138.1785162  68.4880621 107.3933635 128.8187121  70.1057166 118.7098396
 128.4989906  69.2522474 118.4172770 128.2720550  70.3205744 119.4656363
 132.5967029  72.8219607 122.4267902 132.8153039  73.7536715 122.4455936
 133.0092803  72.4627581 123.2122706 139.5171247  63.3287692 114.4143590
 138.7071975  62.9834777 114.7898836 140.2055664  63.0195236 115.0031202
 141.4461795  62.4065739 116.0367887 141.9992834  62.8261193 116.6957910
 141.6831881  61.4801487 116.0790843 137.4694894  68.3952813 131.8170651
 137.3691621  69.3447170 131.7482742 137.2516436  68.0671052 130.9446721
 136.6707966  65.6437738 108.4011328 137.5327130  65.9692636 108.6607146
 136.8558310  64.8569234 107.8884394 128.6875381  73.7260078 120.6791517
 127.9938853  73.3114030 120.1661472 129.4348372  73.7680614 120.0824936
 144.8240602  64.5166264 115.5446551 144.2439271  65.1751068 115.1624604
 144.5576535  63.6943609 115.1333969 143.2744168  63.9171322 117.7467872
 143.7743947  64.0287857 116.9382190 143.9179776  63.6132375 118.3868680
 137.3326164  71.8249952 130.6335713 136.8493246  72.6250312 130.8399602
 137.4187103  71.8357897 129.6803157 130.6012124  73.6578331 118.5557532
 130.5782812  73.7566019 117.6039415 130.9112760  74.5043482 118.8774698
 133.2599502  75.7154486 122.6704146 134.2142755  75.6838429 122.6034078
 133.0612025  75.2545110 123.4854372 133.8498884  74.2855602 125.2374944
 134.6691773  74.7799681 125.2609781 134.1235692  73.3687571 125.2092512
 143.6065480  66.6766355 114.6002900 142.7191335  66.9616005 114.3823094
 144.0219469  66.5160118 113.7530176 146.9580016  66.7012876 118.3157239
 147.7340406  67.1909328 118.5881856 146.2328150  67.1270930 118.7729108
 149.3952575  67.4140495 119.3731179 149.9897066  67.1736231 118.6624488
 149.4679159  66.6947625 120.0004716 131.6149731  81.2574106 119.6874344
 131.4804199  80.4974507 119.1212342 131.1981793  81.9815006 119.2203133
 142.7508694  76.4411029 108.6950920 143.4544544  76.6461032 109.3108575
 142.0271342  77.0087791 108.9600003 143.5806504  72.1920891 114.8153190
 143.5241705  72.6489442 113.9760822 144.1334846  71.4311575 114.6376032
 147.3911310  67.9810622 115.6403309 147.1348244  67.5807258 116.4711517
 146.7664178  68.6954416 115.5153448 151.7023648  70.7206696 118.1474601
 151.1423206  70.7899885 118.9206163 151.0967151  70.5447680 117.4274097
 134.7718856  82.1543423 119.8992787 134.6551241  83.0988855 119.7971477
 133.9511303  81.8516984 120.2878586 144.6595391  76.8793559 110.7449380
 145.4940995  76.4474757 110.5626854 144.4979734  76.7075572 111.6726274
 144.3141283  73.3825672 112.1105719 144.2590087  73.2169943 111.1694163
 143.6887338  74.0901705 112.2667909 129.1033798  68.6193736 125.9367141
 129.7492662  68.1092690 126.4254366 128.8950949  69.3562418 126.5110566
 141.6287190  75.6874584 131.4359282 142.4978350  75.8615236 131.0745917
 141.1493942  76.5069001 131.3135011 137.6237409  62.8833781 111.6891037
 137.6116078  63.8275621 111.8459308 138.5160831  62.7003926 111.3950499
 135.7973371  82.8071685 123.1148715 136.7000617  82.8395295 123.4315210
 135.5710741  81.8772136 123.1295051 137.5526973  81.5602671 119.7758794
 136.6022604  81.5604533 119.6623166 137.8559459  80.8135406 119.2594829
 141.4389528  59.4776558 115.9436974 140.6721924  58.9235044 116.0893656
 141.8500233  59.5498426 116.8051126 133.4431289  65.7661353 130.0342155
 134.3062751  65.4098158 130.2445480 132.8696700  65.4275248 130.7217560
 153.2879666  87.3963210 120.8404556 153.9258076  87.2769957 120.1367896
 153.1700509  88.3444054 120.8992509 150.0969372  87.3490638 120.7766081
 149.7587884  87.2331702 119.8886616 150.9659141  86.9481803 120.7567087
 145.9556188  89.2026114 116.7662972 145.3921053  89.1116051 115.9979260
 145.8408583  88.3826019 117.2465465 150.5789155  88.5025490 126.7352287
 150.5677796  88.1078288 125.8632790 150.7409795  87.7691562 127.3286058
 143.5020620  90.6977306 119.6047192 144.2941912  90.3568130 119.1893492
 143.7417270  90.8072281 120.5249346 151.5355747  92.8697082 112.0777437
 150.8843727  93.4551162 111.6911451 152.3300110  93.4003277 112.1372474
 145.4611374  89.9586219 112.4764571 146.2342250  89.4115206 112.3377447
 145.8136773  90.8230468 112.6879033 147.2996417  91.2862601 125.6831471
 147.0086282  92.1908232 125.5678137 147.9353401  91.3279129 126.3975540
 148.2252623  88.6639450 122.2732830 148.8216196  88.4395472 121.5589793
 148.2827595  87.9224195 122.8758278 147.7977652  86.1178885 110.1083021
 148.0503172  85.5960406 109.3466484 146.8602211  85.9545031 110.2109705
 152.8420935  85.1214664 117.9157764 153.6284024  84.7034087 117.5648181
 153.1059639  86.0260756 118.0839413 153.0131012  90.5587514 112.6146421
 152.3776845  90.6322140 113.3267326 152.6828418  91.1481113 111.9365500
 158.2429362  85.0589897 118.8190743 158.9754534  84.4889114 119.0528572
 157.4868717  84.6711497 119.2597248 147.5173941  88.0206991 112.3107396
 147.4010199  87.3451895 112.9788480 147.6276200  87.5339365 111.4939549
 149.8605481  87.4817138 116.0154085 149.4963689  86.9547759 116.7267007
 150.7172597  87.0915607 115.8420571 155.7654782  78.7711471 123.2785352
 155.4338107  79.6406882 123.0546566 155.1700395  78.4547755 123.9579382
 149.5010968  82.5107038 111.0115434 149.6685371  83.3787274 111.3785905
 149.3108137  82.6734320 110.0876723 152.2586302  90.9724017 122.6781264
 151.9587025  91.8749056 122.5697071 151.9137361  90.7056200 123.5302417
 145.7098783  87.4237814 118.7117969 144.7849280  87.2914028 118.9195660
 145.9583196  88.2032033 119.2087911 155.6583445  83.4906557 120.3578702
 154.7500323  83.4221965 120.0637463 155.6071041  83.9678502 121.1860527
 149.4800189  84.9664695 111.9962101 149.3599814  85.4121746 112.8347581
 148.7852778  85.3150013 111.4375639 143.0707594  87.0671087 119.5461758
 143.1999975  87.3205566 120.4601169 142.3905045  87.6598795 119.2266413
 147.2407081  97.7368337 115.6452232 147.1631111  98.6876162 115.7240713
 146.6368725  97.3914210 116.3027158 149.7324311  84.9096203 128.3013599
 148.9557645  85.4690123 128.2916463 150.3714874  85.3952986 128.8228469
 157.5245092  81.6922995 122.1356575 156.8819472  81.9855529 121.4896370
 157.0200020  81.5775916 122.9409772 155.1785255  85.4386169 112.8242435
 156.0903112  85.6713555 112.6490132 154.6694903  86.0223213 112.2617513
 147.9870683  87.7181656 127.8631566 148.7285368  88.2566700 127.5866389
 147.2807669  88.3447945 128.0203118 153.4626023  89.8610796 126.4603727
 153.8709379  89.4193207 125.7158360 152.7403285  89.2863424 126.7137920
 149.8157093  84.7983403 123.8337284 150.6618288  85.2222817 123.9771933
 149.7555731  84.1417028 124.5275847 153.7854838  90.4211987 120.2156016
 153.1563700  90.5857701 119.5132084 153.3980500  90.8353597 120.9866980
 157.6644070  91.3566425 117.5700380 156.9795108  91.7365326 117.0197413
 157.7487919  91.9661752 118.3032328 152.9656538  82.4587772 125.4918458
 152.7217470  83.2129832 124.9552734 153.2416469  82.8373119 126.3265705
 154.9195001  89.0026384 124.1695723 155.1311896  89.6458144 123.4930105
 154.8724750  88.1688700 123.7017654 152.5221230  81.6144205 121.0732296
 151.6605709  81.9125458 121.3649033 152.5483665  81.8314603 120.1413328
 149.3382800  90.1586395 117.4806101 149.8021145  90.4374098 116.6910724
 149.0739598  89.2569840 117.2979192 146.2306881  89.7057877 120.4185865
 146.8008238  90.1345145 119.7803349 146.8214993  89.4240461 121.1170050
 148.2751686  86.2809548 114.2895666 148.9775729  86.7330591 114.7569593
 147.9432314  85.6393366 114.9175560 146.7232047  84.8721304 128.6646876
 146.0930708  85.5537585 128.8982273 146.6168135  84.7604386 127.7200014
 142.0177020  84.5393100 119.5912800 141.2276074  84.7950629 119.1152911
 142.5088267  85.3541438 119.6964841 156.0340829  91.8798339 122.3418081
 156.8558273  91.4778527 122.0600762 156.0303232  91.7766574 123.2934197
 143.9691765  84.9037679 116.5496277 143.1722928  85.0156374 117.0679772
 143.7417357  85.2424332 115.6837167 149.7997433  91.4282383 124.4978791
 149.8641865  91.8902790 125.3336963 149.0908357  90.7979748 124.6261101
 140.3014723  84.7923591 122.0227791 140.5522761  85.6770601 122.2885367
 140.8374271  84.6128192 121.2502883 149.5145450  93.0950490 114.3657772
 149.3791125  93.9402026 114.7942619 150.0555263  93.2969768 113.6023705
 146.0012790  79.1742070 131.0272127 145.6079736  78.6208269 131.7019771
 146.8178930  79.4852648 131.4178644 142.9674848  90.6125928 114.9385697
 143.4799368  91.4069178 115.0891261 143.6197561  89.9152219 114.8719298
 144.7769732  93.7291684 117.0208450 144.9536361  94.6509649 116.8329434
 145.5726566  93.4150104 117.4502830 148.9180751  80.5899949 128.6192383
 149.6590464  81.1907102 128.5396846 149.1498674  79.8477587 128.0610426
 144.0622089  85.7756316 126.8970613 143.9475604  84.8741574 127.1977712
 143.2066607  86.0220013 126.5455430 151.1413927  93.7174057 128.4958114
 150.6977781  92.9310435 128.1779018 151.8031140  93.9053207 127.8302005
 145.9001048  95.2469858 123.0218792 146.4508473  95.1186922 122.2495786
 145.0612524  95.5464747 122.6713685 153.2395165  93.9976857 126.5239515
 153.2213640  94.8185738 126.0319784 154.1615085  93.8730932 126.7489656
 149.6968219  91.5120986 127.3663023 150.2296556  90.7509274 127.1362331
 149.1682300  91.2194638 128.1087178 152.8637914  76.6181052 122.8956665
 152.5202183  77.5082694 122.8195776 153.2316876  76.4282710 122.0326250
 140.9323764  88.9414582 115.7145267 141.7698986  89.3511591 115.4978975
 141.1102032  88.0014025 115.6845461 152.8288197  86.6089663 111.4029100
 152.3134820  87.3794268 111.6417488 152.5565505  85.9354799 112.0262162
 150.4135308  81.4539364 116.4614339 149.5576904  81.0646214 116.2819977
 150.8262259  81.5331325 115.6014124 151.9434454  78.9885707 120.8605898
 151.4399250  78.9515842 120.0473704 152.2365061  79.8978450 120.9202555
 148.1877340  79.0724437 119.8672080 149.0530337  78.8767246 119.5077970
 148.2554849  78.8434789 120.7941437 157.8022471  89.3622018 113.3382274
 157.0251913  89.0233177 112.8937436 158.4813952  89.3674641 112.6637239
 152.6174500  84.4816755 113.2288881 152.3124635  84.7962904 114.0799025
 153.5704942  84.5598175 113.2716214 151.0620932  90.6406979 114.8781835
 150.5342293  89.9059738 114.5655073 150.5608434  91.4181655 114.6321804
 156.0413778  88.8355999 119.9948882 155.3837452  89.5255260 120.0829010
 156.8454177  89.2252431 120.3382868 145.7939659  81.3026645 117.2388447
 146.3683411  81.0801826 116.5061640 146.3810642  81.3715339 117.9917048
 154.8519236  87.1900372 118.0452823 155.3651118  87.8230364 118.5474533
 155.5020460  86.5901567 117.6796183 146.1209246  83.3331106 111.2584332
 145.2846559  83.6705792 111.5793607 145.9814016  83.1980086 110.3211469
 148.0962327  78.1767894 115.9663516 147.4426739  77.8616911 115.3420131
 148.0542801  77.5543634 116.6923339 149.2073532  88.4587189 107.8816808
 148.3000594  88.2276442 108.0807957 149.7044564  87.6624808 108.0690790
 152.1141611  97.1684696 110.8013495 151.4403309  97.4716393 111.4098452
 152.5007433  97.9713776 110.4518952 151.3300067  84.6649827 120.2911164
 150.4122629  84.8864774 120.1332852 151.7460211  84.7396138 119.4322871
 152.1135115  86.0641243 115.4213844 152.8606934  86.5762640 115.1120966
 152.3826705  85.7425296 116.2818238 150.3861765  88.5599784 112.4040799
 149.4772984  88.2758816 112.5013268 150.4156849  88.9798862 111.5444105
 155.6181033  92.1706373 116.1731966 155.1643360  91.3297283 116.2297157
 154.9874999  92.8067772 116.5106746 154.5613952  83.0998359 117.4032634
 153.8236709  82.5875745 117.7342876 154.8140726  82.6598741 116.5915910
 154.0613972  94.0082870 117.1081784 154.3536946  94.5687927 116.3894150
 154.5712592  94.3011431 117.8634943 154.6625580  75.8774611 117.9974403
 154.9684456  75.0171975 117.7100318 155.3878184  76.4692231 117.7973397
 140.9549936  86.2805298 116.3856001 140.7574335  85.6874658 115.6607067
 140.3996600  85.9757508 117.1031940 148.9346659  86.1728404 118.5050594
 148.9895269  85.2202241 118.4293070 148.1237861  86.3287843 118.9891892
 150.0837853  90.1008527 109.7428877 149.6457283  89.3844386 109.2834514
 150.8248294  90.3284642 109.1813968 146.8739019  84.7905464 116.2640973
 146.0606885  85.0899635 116.6706165 147.3698013  84.3961153 116.9815455
 149.0247597  94.7863221 118.1975237 148.9823776  95.0124067 117.2683769
 149.9410296  94.5526596 118.3461039 152.4713231  85.2547288 125.0955867
 152.8262619  85.4818762 125.9550332 153.1185362  85.5865665 124.4733122
 158.2010968  88.3765724 115.8005196 158.0628866  88.5667320 114.8726385
 157.8447187  89.1385107 116.2573247 146.3653094  82.3623820 121.8802208
 147.0052473  82.2212579 121.1825171 145.5330624  82.0758333 121.5040810
 158.2280347  90.4442251 120.8116467 158.6616854  90.3517540 121.6599521
 158.9411928  90.4199752 120.1736483 147.1413398  91.6626250 117.9937200
 147.9353996  91.1676570 117.7919775 146.4305090  91.1344113 117.6304906
 151.9608242  94.0444345 122.3449568 152.0145265  94.6135282 123.1127284
 151.0923024  94.2146231 121.9803605 143.4496161  85.8069332 114.0696953
 142.5193749  85.7453787 114.2866915 143.5453633  85.2845284 113.2733594
 143.3681710  82.3324145 116.6575195 143.6288528  83.2469478 116.5484355
 144.1898883  81.8648587 116.8071807 144.8406636  83.7461902 123.8274019
 145.5129689  83.5379264 123.1786668 144.0136422  83.5483988 123.3879251
 150.7432208  80.3723843 125.8439680 150.0960123  81.0713792 125.7504156
 151.5133223  80.8059987 126.2115928 154.1511006  90.6372695 128.9190233
 153.9996512  90.4083246 128.0020317 154.1415685  91.5943296 128.9321578
 150.9196342  88.2104608 123.9036500 151.8488402  88.3615767 123.7305467
 150.4987372  88.2988628 123.0485146 149.7184674  92.2355272 121.6735037
 149.5795760  91.8674056 122.5460975 148.9299270  92.7502911 121.5018995
 150.3132826  97.3364368 113.0160574 150.4884582  96.8652412 113.8306196
 149.6265614  97.9630135 113.2441835 151.2689889  91.6136875 119.0623875
 150.9339722  91.5737645 119.9581525 150.7693835  90.9481591 118.5894285
 145.2434133  87.0204505 124.5876456 145.1053931  86.2884743 125.1887995
 146.1539056  86.9313405 124.3060644 154.2049081  88.9592909 109.3360935
 153.5878251  88.2339737 109.2393987 153.7365569  89.7202269 108.9928009
 147.8716434  86.7324464 124.0760136 148.5816052  86.0917656 124.0346754
 147.8285742  86.9837359 124.9986317 155.8603212  93.6691817 126.9966715
 155.8015758  92.9851037 126.3297298 156.2622731  94.4110807 126.5447341
 146.5845368  83.7189682 125.8955775 146.0482725  83.2680420 126.5477372
 145.9962076  83.8535591 125.1526240 144.8793911 100.4853731 119.7900434
 145.1190509 101.1172255 120.4679453 144.0363108 100.1341771 120.0765793
 145.9947627  83.1778333 108.4582239 145.1177093  83.0567134 108.0944486
 146.4705380  82.3864412 108.2061128 155.8620620  91.6331401 125.2280695
 154.9747398  91.2957323 125.3507094 156.4319171  90.9014433 125.4649460
 137.5149767  87.9655493 118.5523746 138.2020807  87.6517223 117.9644761
 137.3597895  88.8696858 118.2790998 142.3184489  82.8545690 122.9808770
 142.2342678  82.2471359 122.2459180 141.4967195  83.3454708 122.9818266
 149.3921773  96.2932854 122.1941938 149.3191944  97.0987825 122.7061242
 148.9499166  96.4924819 121.3689959 149.1811553  95.5304624 115.7044759
 148.3979074  96.0726304 115.7982984 149.8804298  96.0478603 116.1039001
 152.4908203  81.3399253 118.3478965 152.9876902  80.5869215 118.0280035
 151.7195184  81.3763570 117.7822174 151.8520456  96.1919688 124.3500097
 152.5648429  96.8267152 124.2775998 151.3610485  96.2883554 123.5340098
 153.5737983  90.0970940 115.9217388 152.6394262  90.2172403 115.7522093
 153.7514652  89.1943407 115.6577398 149.0743171  83.4816636 118.0750649
 148.7040959  82.9287676 118.7631555 149.5702264  82.8774770 117.5225650
 156.9610535  85.9388260 116.4567422 157.4270987  86.7716251 116.3827725
 157.4118035  85.4733241 117.1612681 146.9032370  93.9414131 125.1705667
 147.6041830  94.5750614 125.3235062 146.4327485  94.2828863 124.4101307
 155.0286766  92.2832081 113.4553574 155.3046610  92.1688675 114.3647449
 154.1591265  91.8849566 113.4165748 154.9327197  78.3068847 120.4958324
 154.0190277  78.5373073 120.6640531 155.3620299  78.3907291 121.3472356
 154.7033656  86.4958739 122.9958218 154.0505106  86.7434646 122.3410671
 155.0814036  85.6822877 122.6620695 151.6640830  96.5318432 117.0986388
 151.8463224  95.7140088 117.5614140 152.4873816  96.7486124 116.6611278
 151.9982995  95.4586617 114.3601437 152.5270762  94.9479071 113.7471599
 152.2611215  95.1429147 115.2246970 150.7521229  87.2378550 129.4824255
 150.0761866  87.1372679 130.1526630 151.5748863  87.0817763 129.9460252
 142.5000088  93.4750486 122.1036770 143.0853525  92.7294174 122.2364674
 142.3024927  93.7854443 122.9873434 145.3538743  96.5101734 117.1199212
 144.6849119  96.9947861 116.6363253 145.2151613  96.7570954 118.0342591
 137.0917743  86.0456086 120.8241213 137.1301842  85.5119677 121.6178331
 136.5858036  85.5191292 120.2052190 149.4944012  98.5445477 123.7181871
 150.0462320  98.7077099 124.4830956 149.8350205  99.1349915 123.0461896
 144.4708505  80.8920627 124.3203756 144.5349832  81.7535458 123.9081153
 144.4075625  80.2794629 123.5876114 143.9460778  82.9643759 127.9676790
 144.5732816  82.5820837 128.5814314 143.0888697  82.7457961 128.3332482
 154.3454886  93.3706735 129.5730525 154.8894790  93.9836693 129.0785480
 153.7641731  93.9286313 130.0897538 140.7226320  84.7720189 113.8995145
 141.0179761  83.8630867 113.8462198 139.8214356  84.7507928 113.5776147
 152.6312399  96.4927453 120.7045553 152.5063539  95.6917192 120.1956498
 153.2891490  96.9873646 120.2159523 144.2520567  82.8476185 119.8822693
 143.5307153  83.4612153 119.7430167 145.0413823  83.3833950 119.8039339
 154.6947308  94.2936473 122.3325103 153.7477643  94.1741824 122.2603430
 155.0430081  93.4058971 122.4151365 147.0546881  80.1830612 126.1563345
 147.5781283  80.4292908 126.9189654 146.8359214  81.0150646 125.7366482
 142.4514162  82.4534286 114.0234470 142.1226868  81.5731665 113.8409576
 142.8053533  82.3981955 114.9110859 151.6993741  94.0889189 118.5329455
 151.5518703  93.1605896 118.7137025 152.5247234  94.1109280 118.0486531
 145.5655985  82.7407256 114.3909947 145.9052058  83.2693177 113.6688556
 146.0128106  83.0787662 115.1668514 155.3027863  94.9117748 119.6194328
 156.2274410  94.7060609 119.4818779 155.1343166  94.6634149 120.5283670
 148.2599426  81.1244307 123.8413016 147.9196246  80.3252120 124.2433695
 147.5538432  81.4246018 123.2689849 148.9115898  78.2093619 122.2940339
 149.7341967  77.7354097 122.1719229 149.1553961  78.9884103 122.7939025
 147.5524132  81.2381878 112.5903240 148.2732495  81.6163130 112.0866957
 146.9289436  81.9570754 112.6938218 151.6955255  81.9427027 113.5261573
 151.9118870  82.8251664 113.2250401 151.2149322  81.5513240 112.7967215
 146.4354477  84.9012740 120.1032317 146.2899057  85.2153043 120.9956599
 145.9579680  85.5197640 119.5503216 148.2950859  81.8915288 120.1513207
 148.2812428  80.9956381 119.8145505 149.0123288  81.8985952 120.7851493
 150.1476990  82.3252628 122.1966334 149.8894768  83.2469699 122.1950665
 149.6162031  81.9283062 122.8866798 155.0923179  95.4303415 114.9756420
 155.2660056  94.8649838 114.2230272 155.5852070  96.2304310 114.7935909
 140.9100139  87.4418084 123.0419978 140.3653607  88.2177892 123.1740253
 141.7879489  87.7888889 122.8839100 147.6987755  80.7729668 115.4200777
 147.8203667  79.8446314 115.6191664 147.4089798  80.7868354 114.5079092
 150.5678946  78.4584578 118.5567497 150.5900643  78.5223912 117.6019476
 150.9847005  77.6189087 118.7508003 156.0798351  94.7470179 112.0753318
 156.7749256  95.3676872 112.2940632 156.4221502  93.8965531 112.3505696
 141.6966161  86.5687980 125.9350135 140.9547897  86.7170616 126.5214766
 141.3758905  86.8296246 125.0716885 157.9789775  92.1969885 113.6040649
 158.5041099  92.5357158 112.8789969 157.8912127  91.2616900 113.4203783
 149.6409823  96.1103959 125.7330525 149.9496950  95.8653105 126.6053225
 150.4385305  96.3150597 125.2449395 149.6630435  98.2641868 117.9635902
 149.2235426  97.7718247 118.6568758 150.4138552  97.7214836 117.7227977
 142.1422774  94.4553409 117.9660530 142.9680794  94.1557181 117.5859173
 141.7916826  93.6861032 118.4150318 147.1104307  93.8079877 120.0358203
 146.4884317  93.1450582 119.7360431 147.7809174  93.8341009 119.3531851
 140.3431379  92.3739736 118.9249463 139.5063288  91.9461910 118.7433465
 140.3155025  92.5672179 119.8620255 147.1828835  82.2861665 129.6290709
 147.2316990  83.1623788 129.2468479 147.7251349  81.7439058 129.0562353
 157.6683681  92.8302789 128.9091847 156.8779224  92.8126928 128.3696346
 157.4317035  93.3691082 129.6640883 157.7881556  89.6795255 126.2224575
 157.8379561  89.5145262 127.1640098 157.6795479  88.8122514 125.8322456
 146.6717814  92.3583801 113.5116664 146.8205935  93.0419265 112.8583337
 147.4784258  92.3388891 114.0266120 155.0785318  85.6626183 127.5383882
 155.9795181  85.5232648 127.2467880 155.1533293  85.8280638 128.4782059
 149.4128123  83.0393038 126.3837068 148.5431433  83.3326604 126.1119657
 149.6487604  83.6233483 127.1044332 157.5386941  87.2224811 124.9346655
 158.0141062  87.4152457 124.1265506 156.6152506  87.2783997 124.6890038
 144.4270447  88.3848978 114.5177733 144.1816489  87.4811308 114.7157943
 144.5966362  88.3866129 113.5757211 152.1167157  79.2572655 123.9002489
 152.6349101  79.9933682 123.5748977 151.7622290  79.5636648 124.7349248
 143.6966095  84.1177336 112.0163894 143.0035340  84.1921691 111.3603930
 143.4517847  83.3537680 112.5385411 152.3679751  75.6772937 119.4203385
 152.6481505  75.0096126 120.0463812 153.1530358  75.8702033 118.9078049
 150.1713220  94.8531931 110.9828411 149.5987187  95.4722118 110.5298883
 150.7446014  95.4031293 111.5168333 156.2388610  84.0990571 123.1674960
 157.1906033  84.1988669 123.1887184 156.0692060  83.3068840 123.6773045
 154.2602989  81.1846154 123.3534361 153.6652921  81.4651167 122.6580850
 153.9752686  81.6740055 124.1251102 153.3910480  95.1369081 112.1136994
 154.3241153  95.0714643 112.3169869 153.3033692  95.9725348 111.6551526
 156.0198496  94.4534952 109.0740941 155.9412128  94.1194815 109.9676699
 156.8408163  94.9456720 109.0732414 150.5560018  86.1892744 108.3244464
 151.5019123  86.0598952 108.3932882 150.1774263  85.4507406 108.8013892
 156.5281903  77.8548750 118.2871356 156.3306724  77.5463838 119.1714688
 157.1381608  78.5810389 118.4169286 150.4398711  90.2410490 129.7845121
 151.3601720  90.4189089 129.9785167 150.4048294  89.2966535 129.6324820
 148.7402936  84.1142720 108.2599349 147.8334391  83.8175833 108.3362063
 149.0178917  83.8172538 107.3933635 139.6580876  85.4349084 118.7098396
 139.3383660  84.5814392 118.4172770 139.1114304  85.6497662 119.4656363
 143.4360783  88.1511525 122.4267902 143.6546793  89.0828633 122.4455936
 143.8486557  87.7919499 123.2122706 150.3565001  78.6579610 114.4143590
 149.5465730  78.3126695 114.7898836 151.0449418  78.3487154 115.0031202
 152.2855550  77.7357657 116.0367887 152.8386588  78.1553110 116.6957910
 152.5225636  76.8093405 116.0790843 148.3088649  83.7244730 131.8170651
 148.2085376  84.6739087 131.7482742 148.0910191  83.3962969 130.9446721
 147.5101720  80.9729656 108.4011328 148.3720884  81.2984554 108.6607146
 147.6952064  80.1861151 107.8884394 139.5269136  89.0551995 120.6791517
 138.8332607  88.6405948 120.1661472 140.2742127  89.0972532 120.0824936
 155.6634357  79.8458182 115.5446551 155.0833026  80.5042986 115.1624604
 155.3970289  79.0235527 115.1333969 154.1137923  79.2463240 117.7467872
 154.6137701  79.3579774 116.9382190 154.7573531  78.9424293 118.3868680
 148.1719919  87.1541869 130.6335713 147.6887001  87.9542229 130.8399602
 148.2580858  87.1649814 129.6803157 141.4405878  88.9870249 118.5557532
 141.4176567  89.0857936 117.6039415 141.7506515  89.8335400 118.8774698
 144.0993256  91.0446404 122.6704146 145.0536510  91.0130346 122.6034078
 143.9005780  90.5837028 123.4854372 144.6892638  89.6147520 125.2374944
 145.5085527  90.1091599 125.2609781 144.9629446  88.6979488 125.2092512
 154.4459235  82.0058272 114.6002900 153.5585090  82.2907923 114.3823094
 154.8613224  81.8452036 113.7530176 157.7973771  82.0304793 118.3157239
 158.5734161  82.5201246 118.5881856 157.0721905  82.4562848 118.7729108
 142.4543485  96.5866024 119.6874344 142.3197953  95.8266424 119.1212342
 142.0375547  97.3106923 119.2203133 153.5902448  91.7702947 108.6950920
 154.2938298  91.9752950 109.3108575 152.8665097  92.3379709 108.9600003
 154.4200258  87.5212808 114.8153190 154.3635460  87.9781360 113.9760822
 154.9728601  86.7603493 114.6376032 158.2305064  83.3102540 115.6403309
 157.9741999  82.9099176 116.4711517 157.6057932  84.0246334 115.5153448
 145.6112611  97.4835341 119.8992787 145.4944995  98.4280773 119.7971477
 144.7905057  97.1808902 120.2878586 155.4989145  92.2085476 110.7449380
 156.3334749  91.7766675 110.5626854 155.3373488  92.0367490 111.6726274
 155.1535038  88.7117590 112.1105719 155.0983841  88.5461861 111.1694163
 154.5281093  89.4193622 112.2667909 139.9427553  83.9485654 125.9367141
 140.5886416  83.4384608 126.4254366 139.7344704  84.6854336 126.5110566
 152.4680945  91.0166501 131.4359282 153.3372104  91.1907154 131.0745917
 151.9887696  91.8360918 131.3135011 148.4631163  78.2125699 111.6891037
 148.4509833  79.1567538 111.8459308 149.3554585  78.0295844 111.3950499
 146.6367125  98.1363602 123.1148715 147.5394372  98.1687213 123.4315210
 146.4104495  97.2064053 123.1295051 148.3920727  96.8894589 119.7758794
 147.4416358  96.8896451 119.6623166 148.6953213  96.1427324 119.2594829
 152.2783283  74.8068475 115.9436974 151.5115678  74.2526962 116.0893656
 152.6893988  74.8790344 116.8051126 144.2825044  81.0953271 130.0342155
 145.1456505  80.7390076 130.2445480 143.7090454  80.7567166 130.7217560
 156.7949943 104.5318032 116.7662972 156.2314808 104.4407969 115.9979260
 156.6802338 103.7117936 117.2465465 154.3414374 106.0269223 119.6047192
 155.1335666 105.6860048 119.1893492 154.5811025 106.1364199 120.5249346
 156.3005128 105.2878137 112.4764571 157.0736004 104.7407124 112.3377447
 156.6530527 106.1522386 112.6879033 158.1390171 106.6154519 125.6831471
 157.8480037 107.5200150 125.5678137 158.7747155 106.6571047 126.3975540
 158.6371406 101.4470803 110.1083021 158.8896927 100.9252324 109.3466484
 157.6995965 101.2836948 110.2109705 158.3567695 103.3498909 112.3107396
 158.2403953 102.6743812 112.9788480 158.4669955 102.8631283 111.4939549
 156.5492538 102.7529731 118.7117969 155.6243034 102.6205945 118.9195660
 156.7976951 103.5323951 119.2087911 153.9101349 102.3963005 119.5461758
 154.0393730 102.6497484 120.4601169 153.2298800 102.9890713 119.2266413
 158.0800836 113.0660255 115.6452232 158.0024866 114.0168080 115.7240713
 157.4762479 112.7206127 116.3027158 157.0700635 105.0349794 120.4185865
 157.6401992 105.4637063 119.7803349 157.6608747 104.7532379 121.1170050
 157.5625802 100.2013222 128.6646876 156.9324462 100.8829503 128.8982273
 157.4561890 100.0896303 127.7200014 152.8570774  99.8685018 119.5912800
 152.0669828 100.1242546 119.1152911 153.3482022 100.6833356 119.6964841
 154.8085520 100.2329597 116.5496277 154.0116683 100.3448291 117.0679772
 154.5811112 100.5716249 115.6837167 151.1408477 100.1215508 122.0227791
 151.3916516 101.0062518 122.2885367 151.6768026  99.9420110 121.2502883
 156.8406544  94.5033988 131.0272127 156.4473490  93.9500186 131.7019771
 157.6572685  94.8144566 131.4178644 153.8068602 105.9417846 114.9385697
 154.3193123 106.7361096 115.0891261 154.4591315 105.2444136 114.8719298
 155.6163487 109.0583602 117.0208450 155.7930115 109.9801567 116.8329434
 156.4120320 108.7442021 117.4502830 154.9015843 101.1048234 126.8970613
 154.7869359 100.2033491 127.1977712 154.0460361 101.3511931 126.5455430
 156.7394802 110.5761776 123.0218792 157.2902227 110.4478839 122.2495786
 155.9006278 110.8756665 122.6713685 151.7717519 104.2706500 115.7145267
 152.6092741 104.6803509 115.4978975 151.9495787 103.3305942 115.6845461
 156.6333414  96.6318562 117.2388447 157.2077166  96.4093744 116.5061640
 157.2204396  96.7007257 117.9917048 156.9603001  98.6623024 111.2584332
 156.1240313  98.9997710 111.5793607 156.8207770  98.5272003 110.3211469
 158.9356081  93.5059811 115.9663516 158.2820494  93.1908829 115.3420131
 158.8936556  92.8835552 116.6923339 151.7943690 101.6097215 116.3856001
 151.5968090 101.0166576 115.6607067 151.2390354 101.3049426 117.1031940
 157.7132774 100.1197382 116.2640973 156.9000639 100.4191552 116.6706165
 158.2091768  99.7253070 116.9815455 157.2046848  97.6915737 121.8802208
 157.8446228  97.5504496 121.1825171 156.3724379  97.4050251 121.5040810
 157.9807152 106.9918168 117.9937200 158.7747751 106.4968488 117.7919775
 157.2698845 106.4636031 117.6304906 154.2889916 101.1361249 114.0696953
 153.3587504 101.0745705 114.2866915 154.3847388 100.6137202 113.2733594
 154.2075465  97.6616062 116.6575195 154.4682282  98.5761395 116.5484355
 155.0292637  97.1940505 116.8071807 155.6800390  99.0753819 123.8274019
 156.3523444  98.8671182 123.1786668 154.8530177  98.8775905 123.3879251
 156.0827887 102.3496422 124.5876456 155.9447685 101.6176661 125.1887995
 156.9932811 102.2605322 124.3060644 157.4239122  99.0481600 125.8955775
 156.8876479  98.5972338 126.5477372 156.8355831  99.1827508 125.1526240
 155.7187666 115.8145649 119.7900434 155.9584264 116.4464173 120.4679453
 154.8756862 115.4633689 120.0765793 156.8341381  98.5070251 108.4582239
 155.9570847  98.3859052 108.0944486 157.3099134  97.7156329 108.2061128
 148.3543521 103.2947411 118.5523746 149.0414561 102.9809141 117.9644761
 148.1991650 104.1988775 118.2790998 153.1578243  98.1837607 122.9808770
 153.0736432  97.5763277 122.2459180 152.3360950  98.6746626 122.9818266
 157.7426125 109.2706049 125.1705667 158.4435584 109.9042532 125.3235062
 157.2721240 109.6120780 124.4101307 153.3393843 108.8042404 122.1036770
 153.9247279 108.0586092 122.2364674 153.1418681 109.1146361 122.9873434
 156.1932498 111.8393651 117.1199212 155.5242873 112.3239779 116.6363253
 156.0545367 112.0862872 118.0342591 147.9311497 101.3748004 120.8241213
 147.9695597 100.8411595 121.6178331 147.4251790 100.8483210 120.2052190
 155.3102260  96.2212545 124.3203756 155.3743586  97.0827375 123.9081153
 155.2469380  95.6086546 123.5876114 154.7854532  98.2935677 127.9676790
 155.4126571  97.9112754 128.5814314 153.9282451  98.0749879 128.3332482
 151.5620075 100.1012106 113.8995145 151.8573516  99.1922785 113.8462198
 150.6608111 100.0799846 113.5776147 155.0914322  98.1768103 119.8822693
 154.3700908  98.7904070 119.7430167 155.8807578  98.7125868 119.8039339
 157.8940635  95.5122529 126.1563345 158.4175037  95.7584826 126.9189654
 157.6752969  96.3442564 125.7366482 153.2907916  97.7826204 114.0234470
 152.9620623  96.9023583 113.8409576 153.6447287  97.7273873 114.9110859
 156.4049740  98.0699174 114.3909947 156.7445812  98.5985095 113.6688556
 156.8521860  98.4079580 115.1668514 159.0993180  96.4536224 123.8413016
 158.7590001  95.6544037 124.2433695 158.3932187  96.7537935 123.2689849
 158.3917887  96.5673795 112.5903240 159.1126249  96.9455048 112.0866957
 157.7683191  97.2862672 112.6938218 157.2748231 100.2304657 120.1032317
 157.1292812 100.5444961 120.9956599 156.7973435 100.8489558 119.5503216
 151.7493893 102.7710002 123.0419978 151.2047361 103.5469810 123.1740253
 152.6273243 103.1180806 122.8839100 158.5381510  96.1021586 115.4200777
 158.6597421  95.1738232 115.6191664 158.2483552  96.1160272 114.5079092
 152.5359915 101.8979898 125.9350135 151.7941651 102.0462533 126.5214766
 152.2152659 102.1588164 125.0716885 152.9816529 109.7845327 117.9660530
 153.8074549 109.4849099 117.5859173 152.6310581 109.0152949 118.4150318
 157.9498062 109.1371795 120.0358203 157.3278071 108.4742500 119.7360431
 158.6202929 109.1632927 119.3531851 151.1825134 107.7031653 118.9249463
 150.3457042 107.2753828 118.7433465 151.1548779 107.8964097 119.8620255
 158.0222589  97.6153583 129.6290709 158.0710745  98.4915706 129.2468479
 158.5645104  97.0730976 129.0562353 157.5111569 107.6875718 113.5116664
 157.6599689 108.3711183 112.8583337 158.3178012 107.6680808 114.0266120
 155.2664202 103.7140896 114.5177733 155.0210244 102.8103226 114.7157943
 155.4360116 103.7158046 113.5757211 154.5359849  99.4469254 112.0163894
 153.8429094  99.5213609 111.3603930 154.2911601  98.6829597 112.5385411
 150.4974630 100.7641001 118.7098396 150.1777415  99.9106310 118.4172770
 149.9508059 100.9789580 119.4656363 154.2754538 103.4803442 122.4267902
 154.4940548 104.4120550 122.4455936 154.6880312 103.1211417 123.2122706
 159.1482403  99.0536648 131.8170651 159.0479130 100.0031005 131.7482742
 158.9303945  98.7254887 130.9446721 158.3495475  96.3021573 108.4011328
 159.2114639  96.6276472 108.6607146 158.5345819  95.5153069 107.8884394
 150.3662890 104.3843913 120.6791517 149.6726362 103.9697866 120.1661472
 151.1135881 104.4264449 120.0824936 159.0113673 102.4833787 130.6335713
 158.5280755 103.2834147 130.8399602 159.0974612 102.4941732 129.6803157
 152.2799633 104.3162167 118.5557532 152.2570321 104.4149854 117.6039415
 152.5900269 105.1627317 118.8774698 154.9387011 106.3738322 122.6704146
 155.8930264 106.3422264 122.6034078 154.7399534 105.9128945 123.4854372
 155.5286393 104.9439438 125.2374944 156.3479282 105.4383516 125.2609781
 155.8023201 104.0271406 125.2092512 153.2937240 111.9157941 119.6874344
 153.1591707 111.1558342 119.1212342 152.8769302 112.6398841 119.2203133
 156.4506365 112.8127258 119.8992787 156.3338750 113.7572691 119.7971477
 155.6298812 112.5100820 120.2878586 150.7821307  99.2777572 125.9367141
 151.4280171  98.7676526 126.4254366 150.5738458 100.0146253 126.5110566
 157.4760880 113.4655520 123.1148715 158.3788126 113.4979130 123.4315210
 157.2498250 112.5355971 123.1295051 155.1218798  96.4245189 130.0342155
 155.9850260  96.0681994 130.2445480 154.5484209  96.0859084 130.7217560
 158.7705252 116.7039922 120.8241213 158.8089351 116.1703512 121.6178331
 158.2645545 116.1775127 120.2052190  90.6825140   0.8456265 106.5145741
  90.9221738   1.4774790 107.1924759  89.8394336   0.4944305 106.8011100
 102.5981171   4.8920566 103.4908279 102.0346037   4.8010503 102.7224566
 102.4833566   4.0720471 103.9710771 100.1445603   6.3871758 106.3292499
 100.9366895   6.0462582 105.9138798 100.3842253   6.4966733 107.2494652
 108.1780730   8.5591534  98.8022744 107.5268710   9.1445614  98.4156757
 108.9725093   9.0897729  98.8617781 102.1036357   5.6480671  99.2009878
 102.8767233   5.1009658  99.0622754 102.4561756   6.5124920  99.4124339
 103.9421400   6.9757053 112.4076777 103.6511266   7.8802684 112.2923444
 104.5778384   7.0173581 113.1220847 109.6555995   6.2481966  99.3391728
 109.0201828   6.3216592 100.0512632 109.3253402   6.8375565  98.6610807
 108.9011285   6.6618469 109.4026571 108.6012008   7.5643508 109.2942378
 108.5562344   6.3950652 110.2547724  99.7132577   2.7565539 106.2707064
  99.8424959   3.0100018 107.1846476  99.0330029   3.3493247 105.9511719
 103.8832065  13.4262789 102.3697539 103.8056094  14.3770614 102.4486019
 103.2793708  13.0808662 103.0272465 105.9807783   5.8480847 104.2051408
 106.4446128   6.1268550 103.4156030 105.7164581   4.9464292 104.0224499
 102.8731864   5.3952329 107.1431171 103.4433221   5.8239597 106.5048656
 103.4639976   5.1134913 107.8415357 106.4422416   7.1176835 111.2224098
 106.5066848   7.5797242 112.0582270 105.7333340   6.4874199 111.3506408
 106.1570434   8.7844942 101.0903078 106.0216108   9.6296478 101.5187926
 106.6980246   8.9864220 100.3269012  99.6099831   6.3020380 101.6631003
 100.1224352   7.0963630 101.8136568 100.2622544   5.6046671 101.5964605
 101.4194716   9.4186136 103.7453757 101.5961344  10.3404101 103.5574740
 102.2151549   9.1044556 104.1748136 107.7838910   9.4068509 115.2203420
 107.3402764   8.6204887 114.9024325 108.4456124   9.5947659 114.5547311
 102.5426031  10.9364310 109.7464099 103.0933456  10.8081373 108.9741093
 101.7037507  11.2359199 109.3958992 109.8820148   9.6871308 113.2484822
 109.8638623  10.5080190 112.7565091 110.8040068   9.5625384 113.4734963
 106.3393202   7.2015438 114.0908330 106.8721539   6.4403726 113.8607638
 105.8107283   6.9089090 114.8332485  97.5748748   4.6309034 102.4390574
  98.4123970   5.0406043 102.2224282  97.7527015   3.6908477 102.4090768
 107.7045915   6.3301430 101.6027142 107.1767276   5.5954190 101.2900379
 107.2033418   7.1076107 101.3567110 108.7566594  12.8579148  97.5258801
 108.0828293  13.1610845  98.1343759 109.1432416  13.6608228  97.1764258
 112.2606016   7.8600825 102.8977273 111.8068343   7.0191735 102.9542463
 111.6299983   8.4962223 103.2352053 110.7038955   9.6977322 103.8327091
 110.9961930  10.2582379 103.1139457 111.2137576   9.9905883 104.5880250
 106.7262836   5.7902979  96.4674184 106.2882266   5.0738838  96.0079821
 107.4673277   6.0179094  95.9059275 105.6672580  10.4757673 104.9220544
 105.6248759  10.7018519 103.9929076 106.5835279  10.2421047 105.0706345
 103.7838381   7.3520702 104.7182507 104.5778980   6.8571022 104.5165082
 103.0730074   6.8238565 104.3550212 108.6033226   9.7338797 109.0694874
 108.6570248  10.3029734 109.8372590 107.7348007   9.9040682 108.7048912
 106.3609657   7.9249724 108.3980344 106.2220743   7.5568508 109.2706282
 105.5724253   8.4397363 108.2264302 106.9557809  13.0258820  99.7405880
 107.1309565  12.5546863 100.5551503 106.2690597  13.6524586  99.9687141
 107.9114872   7.3031327 105.7869182 107.5764705   7.2632096 106.6826832
 107.4118818   6.6376042 105.3139592 112.5028196   9.3586269 113.7212022
 112.4440742   8.6745489 113.0542605 112.9047714  10.1005259 113.2692648
 101.5218894  16.1748183 106.5145741 101.7615493  16.8066707 107.1924759
 100.6788091  15.8236223 106.8011100  94.1574750   3.6549945 105.2769053
  94.8445790   3.3411675 104.6890068  94.0022879   4.5591310 105.0036304
 106.0346756  11.9827306 108.9187245 105.9616928  12.7882277 109.4306549
 105.5924149  12.1819271 108.0935266 105.8236536  11.2199076 102.4290066
 105.0404058  11.7620756 102.5228291 106.5229281  11.7373055 102.8284307
 108.4945440  11.8814140 111.0745403 109.2073412  12.5161604 111.0021305
 108.0035468  11.9778006 110.2585405 103.5457353   9.6308583 111.8950974
 104.2466813  10.2645066 112.0480368 103.0752468   9.9723315 111.1346613
 111.6711749   7.9726533 100.1798881 111.9471593   7.8583127 101.0892755
 110.8016248   7.5744018 100.1411054 108.3065813  12.2212884 103.8231695
 108.4888208  11.4034540 104.2859447 109.1298799  12.4380576 103.3856585
 108.6407979  11.1481069 101.0846743 109.1695745  10.6373523 100.4716905
 108.9036198  10.8323599 101.9492276  99.1425071   9.1644938 108.8282077
  99.7278508   8.4188626 108.9609981  98.9449910   9.4748895 109.7118741
 101.9963727  12.1996185 103.8444519 101.3274102  12.6842313 103.3608559
 101.8576596  12.4465406 104.7587898  93.7342726   1.7350538 107.5486520
  93.7726826   1.2014129 108.3423638  93.2283019   1.2085744 106.9297497
 106.1368995  14.2339929 110.4427177 106.6887303  14.3971550 111.2076263
 106.4775189  14.8244367 109.7707202 110.9879870   9.0601186 116.2975832
 111.5319773   9.6731145 115.8030787 110.4066714   9.6180765 116.8142845
 109.2737382  12.1821904 107.4290860 109.1488522  11.3811644 106.9201805
 109.9316474  12.6768098 106.9404830 111.3372291   9.9830925 109.0570410
 110.3902626   9.8636276 108.9848736 111.6855064   9.0953423 109.1396671
 108.3418724   9.7783641 105.2574762 108.1943687   8.8500348 105.4382332
 109.1672218   9.8003731 104.7731837 111.9452846  10.6012200 106.3439635
 112.8699393  10.3955061 106.2064086 111.7768149  10.3528601 107.2528976
 111.7348162  11.1197867 101.7001726 111.9085040  10.5544289 100.9475579
 112.2277053  11.9198762 101.5181216  97.5525122   3.1312536 109.7665285
  97.0078590   3.9072344 109.8985559  98.4304472   3.4783341 109.6084406
 112.7223335  10.4364631  98.7998624 113.4174239  11.0571324  99.0185939
 113.0646485   9.5859983  99.0751002  98.3391144   2.2582432 112.6595442
  97.5972880   2.4065068 113.2460072  98.0183888   2.5190698 111.7962191
 106.2834807  11.7998411 112.4575832 106.5921933  11.5547557 113.3298531
 107.0810289  12.0045049 111.9694702 106.3055419  13.9536320 104.6881208
 105.8660409  13.4612699 105.3814065 107.0563536  13.4109288 104.4473284
  98.7847758  10.1447861 104.6905836  99.6105777   9.8451633 104.3104480
  98.4341810   9.3755483 105.1395625 103.7529291   9.4974329 106.7603510
 103.1309300   8.8345034 106.4605738 104.4234158   9.5235461 106.0777158
  96.9856363   8.0634188 105.6494770  96.1488271   7.6356362 105.4678771
  96.9580008   8.2566631 106.5865561 114.3108664   8.5197241 115.6337153
 113.5204208   8.5021379 115.0941653 114.0742018   9.0585534 116.3886190
 103.3142798   8.0478253 100.2361971 103.4630918   8.7313717  99.5828643
 104.1209241   8.0283343 100.7511426 101.0695431   4.0743430 101.2423040
 100.8241473   3.1705760 101.4403250 101.2391345   4.0760581 100.3002518
 106.8138203  10.5426383  97.7073718 106.2412170  11.1616570  97.2544190
 107.3870997  11.0925745  98.2413640 110.0335463  10.8263533  98.8382300
 110.9666136  10.7609095  99.0415176 109.9458676  11.6619800  98.3796833
 112.6623480  10.1429404  95.7986248 112.5837111   9.8089267  96.6922006
 113.4833146  10.6351171  95.7977720 100.0785767   3.8405977 109.1513209
 100.2971777   4.7723084 109.1701242 100.4911541   3.4813951 109.9368013
  96.1694119   4.7446447 107.4036824  95.4757591   4.3300400 106.8906778
  96.9167110   4.7866984 106.8070243  98.0830862   4.6764701 105.2802839
  98.0601550   4.7752388 104.3284722  98.3931498   5.5229852 105.6020005
 100.7418240   6.7340856 109.3949453 101.6961493   6.7024798 109.3279385
 100.5430763   6.2731480 110.2099679 101.3317622   5.3041972 111.9620251
 102.1510511   5.7986051 111.9855088 101.6054429   4.3873940 111.9337818
  99.0968468  12.2760475 106.4119651  98.9622936  11.5160876 105.8457649
  98.6800531  13.0001375 105.9448440 110.2327431   7.4597399  95.4196226
 110.9363282   7.6647401  96.0353882 109.5090080   8.0274161  95.6845310
 102.2537594  13.1729792 106.6238094 102.1369978  14.1175225 106.5216784
 101.4330041  12.8703354 107.0123893 112.1414129   7.8979928  97.4694686
 112.9759733   7.4661127  97.2872161 111.9798472   7.7261942  98.3971581
 109.1105928   6.7060953 118.1604588 109.9797088   6.8801606 117.7991223
 108.6312680   7.5255370 118.0380318 103.2792108  13.8258054 109.8394022
 104.1819355  13.8581665 110.1560517 103.0529478  12.8958505 109.8540358
 105.0345710  12.5789041 106.5004101 104.0841341  12.5790902 106.3868473
 105.3378197  11.8321775 105.9840135 120.7698404  18.4149579 107.5649863
 121.4076814  18.2956327 106.8613203 120.6519247  19.3630423 107.6237815
 117.5788110  18.3677007 107.5011388 117.2406622  18.2518072 106.6131923
 118.4477878  17.9668172 107.4812394 113.4374926  20.2212484 103.4908279
 112.8739791  20.1302421 102.7224566 113.3227321  19.4012388 103.9710771
 118.0607893  19.5211859 113.4597593 118.0496534  19.1264657 112.5878097
 118.2228533  18.7877932 114.0531365 110.9839358  21.7163675 106.3292499
 111.7760650  21.3754500 105.9138798 111.2236008  21.8258650 107.2494652
 119.0174485  23.8883451  98.8022744 118.3662464  24.4737532  98.4156757
 119.8118847  24.4189646  98.8617781 112.9430112  20.9772589  99.2009878
 113.7160988  20.4301576  99.0622754 113.2955511  21.8416838  99.4124339
 114.7815154  22.3048971 112.4076777 114.4905020  23.2094602 112.2923444
 115.4172139  22.3465498 113.1220847 115.7071361  19.6825819 108.9978137
 116.3034933  19.4581842 108.2835100 115.7646333  18.9410565 109.6003585
 115.2796390  17.1365255  96.8328328 115.5321910  16.6146776  96.0711791
 114.3420949  16.9731400  96.9355011 120.3239672  16.1401033 104.6403071
 121.1102762  15.7220456 104.2893488 120.5878377  17.0447125 104.8084719
 120.4949750  21.5773883  99.3391728 119.8595583  21.6508510 100.0512632
 120.1647156  22.1667482  98.6610807 125.7248100  16.0776266 105.5436050
 126.4573271  15.5075483 105.7773879 124.9687455  15.6897867 105.9842555
 114.9992678  19.0393361  99.0352703 114.8828936  18.3638264  99.7033787
 115.1094938  18.5525735  98.2184856 117.3424219  18.5003508 102.7399392
 116.9782426  17.9734129 103.4512313 118.1991335  18.1101977 102.5665877
 116.9829706  13.5293407  97.7360741 117.1504109  14.3973644  98.1031212
 116.7926875  13.6920689  96.8122030 119.7405039  21.9910386 109.4026571
 119.4405762  22.8935425 109.2942378 119.3956099  21.7242570 110.2547724
 113.1917521  18.4424183 105.4363275 112.2668017  18.3100397 105.6440967
 113.4401934  19.2218402 105.9333218 123.1402183  14.5092927 107.0824008
 122.2319061  14.4408335 106.7882769 123.0889779  14.9864872 107.9105834
 116.9618927  15.9851065  98.7207407 116.8418552  16.4308116  99.5592888
 116.2671515  16.3336383  98.1620945 110.5526332  18.0857457 106.2707064
 110.6818713  18.3391936 107.1846476 109.8723783  18.6785165 105.9511719
 114.7225819  28.7554707 102.3697539 114.6449849  29.7062532 102.4486019
 114.1187463  28.4100579 103.0272465 117.2143049  15.9282572 115.0258905
 116.4376383  16.4876492 115.0161770 117.8533612  16.4139355 115.5473776
 125.0063830  12.7109365 108.8601882 124.3638210  13.0041898 108.2141677
 124.5018758  12.5962285 109.6655079 122.6603993  16.4572538  99.5487741
 123.5721849  16.6899925  99.3735439 122.1513640  17.0409582  98.9862820
 115.4689421  18.7368026 114.5876872 116.2104106  19.2753069 114.3111696
 114.7626407  19.3634314 114.7448424 120.9444761  20.8797166 113.1849034
 121.3528117  20.4379577 112.4403666 120.2222022  20.3049794 113.4383227
 117.2975831  15.8169773 110.5582591 118.1437026  16.2409186 110.7017240
 117.2374469  15.1603397 111.2521154 121.2673576  21.4398357 106.9401323
 120.6382438  21.6044071 106.2377391 120.8799238  21.8539966 107.7112287
 125.1462807  22.3752794 104.2945687 124.4613846  22.7551696 103.7442720
 125.2306657  22.9848121 105.0277634 120.4475276  13.4774141 112.2163765
 120.2036208  14.2316202 111.6798040 120.7235207  13.8559489 113.0511012
 122.4013739  20.0212753 110.8941030 122.6130634  20.6644513 110.2175411
 122.3543487  19.1875070 110.4262960 120.0039968  12.6330574 107.7977602
 119.1424447  12.9311828 108.0894340 120.0302403  12.8500973 106.8658635
 116.8201537  21.1772765 104.2051408 117.2839883  21.4560468 103.4156030
 116.5558336  20.2756209 104.0224499 113.7125618  20.7244246 107.1431171
 114.2826976  21.1531515 106.5048656 114.3033730  20.4426831 107.8415357
 115.7570423  17.2995917 101.0140973 116.4594467  17.7516961 101.4814899
 115.4251052  16.6579736 101.6420866 114.2050785  15.8907674 115.3892182
 113.5749446  16.5723955 115.6227579 114.0986873  15.7790755 114.4445321
 109.4995757  15.5579470 106.3158107 108.7094811  15.8136998 105.8398217
 109.9907005  16.3727808 106.4210147 123.5159567  22.8984709 109.0663387
 124.3377011  22.4964896 108.7846069 123.5121970  22.7952943 110.0179503
 111.4510503  15.9224049 103.2741583 110.6541666  16.0342743 103.7925079
 111.2236095  16.2610701 102.4082474 117.2816170  22.4468752 111.2224098
 117.3460603  22.9089159 112.0582270 116.5727094  21.8166117 111.3506408
 107.7833460  15.8109960 108.7473097 108.0341499  16.6956970 109.0130673
 108.3193009  15.6314562 107.9748189 131.6065560  19.2423457 105.4148359
 130.8529268  18.6730855 105.2592363 131.7413101  19.2086122 106.3618994
 116.9964188  24.1136860 101.0903078 116.8609863  24.9588395 101.5187926
 117.5374001  24.3156137 100.3269012 113.4831528  10.1928440 117.7517434
 113.0898473   9.6394638 118.4265078 114.2997668  10.5039018 118.1423951
 110.4493585  21.6312298 101.6631003 110.9618106  22.4255548 101.8136568
 111.1016298  20.9338588 101.5964605 112.2588470  24.7478054 103.7453757
 112.4355099  25.6696019 103.5574740 113.0545304  24.4336473 104.1748136
 116.3999489  11.6086319 115.3437690 117.1409202  12.2093472 115.2642153
 116.6317412  10.8663956 114.7855733 111.5440827  16.7942686 113.6215920
 111.4294342  15.8927943 113.9223019 110.6885344  17.0406383 113.2700736
 118.6232664  24.7360426 115.2203420 118.1796519  23.9496805 114.9024325
 119.2849878  24.9239577 114.5547311 113.3819786  26.2656228 109.7464099
 113.9327211  26.1373291 108.9741093 112.5431262  26.5651117 109.3958992
 120.7213903  25.0163226 113.2484822 120.7032378  25.8372107 112.7565091
 121.6433823  24.8917301 113.4734963 117.1786957  22.5307356 114.0908330
 117.7115293  21.7695644 113.8607638 116.6501038  22.2381007 114.8332485
 108.4142502  19.9600952 102.4390574 109.2517724  20.3697960 102.2224282
 108.5920770  19.0200394 102.4090768 120.3106934  17.6276033  98.1274407
 119.7953558  18.3980637  98.3662794 120.0384243  16.9541169  98.7507468
 117.8954045  12.4725733 103.1859645 117.0395642  12.0832584 103.0065284
 118.3080997  12.5517694 102.3259431 119.4253192  10.0072077 107.5851205
 118.9217988   9.9702212 106.7719010 119.7183799  10.9164819 107.6447862
 115.6696078  10.0910806 106.5917387 116.5349075   9.8953615 106.2323276
 115.7373587   9.8621158 107.5186744 125.2841209  20.3808387 100.0627580
 124.5070651  20.0419547  99.6182742 125.9632689  20.3861010  99.3882545
 120.0993238  15.5003125  99.9534188 119.7943373  15.8149274 100.8044331
 121.0523680  15.5784545  99.9961521 118.5439669  21.6593348 101.6027142
 118.0161031  20.9246108 101.2900379 118.0427172  22.4368024 101.3567110
 123.5232515  19.8542369 106.7194188 122.8656190  20.5441630 106.8074317
 124.3272915  20.2438801 107.0628175 113.2758397  12.3213014 103.9633754
 113.8502149  12.0988196 103.2306947 113.8629379  12.3901709 104.7162355
 122.3337974  18.2086741 104.7698130 122.8469856  18.8416733 105.2719840
 122.9839198  17.6087937 104.4041490 113.6027984  14.3517475  97.9829639
 112.7665296  14.6892162  98.3038914 113.4632754  14.2166455  97.0456776
 115.5781065   9.1954263 102.6908823 114.9245477   8.8803280 102.0665438
 115.5361539   8.5730004 103.4168646 116.6892270  19.4773558  94.6062115
 115.7819331  19.2462812  94.8053264 117.1863302  18.6811178  94.7936097
 119.5960348  28.1871066  97.5258801 118.9222047  28.4902762  98.1343759
 119.9826170  28.9900146  97.1764258 118.8118805  15.6836197 107.0156471
 117.8941366  15.9051144 106.8578159 119.2278949  15.7582507 106.1568178
 119.5953853  17.0827613 102.1459151 120.3425672  17.5949010 101.8366273
 119.8645442  16.7611665 103.0063544 117.8680503  19.5786153  99.1286105
 116.9591722  19.2945186  99.2258575 117.8975587  19.9985232  98.2689412
 123.0999770  23.1892743 102.8977273 122.6462098  22.3483653 102.9542463
 122.4693737  23.8254141 103.2352053 122.0432690  14.1184729 104.1277940
 121.3055447  13.6062115 104.4588183 122.2959464  13.6785110 103.3161217
 121.5432710  25.0269239 103.8327091 121.8355684  25.5874297 103.1139457
 122.0531330  25.3197800 104.5880250 108.4368673  17.2991667 103.1101307
 108.2393073  16.7061028 102.3852374 107.8815337  16.9943878 103.8277246
 116.4165397  17.1914774 105.2295901 116.4714007  16.2388610 105.1538377
 115.6056599  17.3474213 105.7137199 117.5656591  21.1194897  96.4674184
 117.1276021  20.4030756  96.0079821 118.3067032  21.3471012  95.9059275
 114.3557757  15.8091834 102.9886279 113.5425623  16.1086004 103.3951472
 114.8516751  15.4147522 103.7060762 116.5066335  25.8049591 104.9220544
 116.4642514  26.0310437 103.9929076 117.4229034  25.5712965 105.0706345
 119.9531969  16.2733658 111.8201173 120.3081356  16.5005131 112.6795639
 120.6004100  16.6052035 111.1978429 125.6829706  19.3952094 102.5250502
 125.5447604  19.5853690 101.5971692 125.3265924  20.1571477 102.9818553
 113.8471832  13.3810189 108.6047514 114.4871211  13.2398948 107.9070478
 113.0149362  13.0944702 108.2286116 125.7099085  21.4628621 107.5361774
 126.1435592  21.3703910 108.3844828 126.4230666  21.4386121 106.8981790
 114.6232136  22.6812620 104.7182507 115.4172734  22.1862940 104.5165082
 113.9123828  22.1530483 104.3550212 119.4426980  25.0630715 109.0694874
 119.4964002  25.6321651 109.8372590 118.5741761  25.2332600 108.7048912
 110.9314899  16.8255701 100.7942259 110.0012487  16.7640157 101.0112222
 111.0272371  16.3031654  99.9978901 110.8500448  13.3510514 103.3820501
 111.1107265  14.2655847 103.2729662 111.6717620  12.8834957 103.5317114
 112.3225373  14.7648271 110.5519326 112.9948427  14.5565633 109.9031975
 111.4955160  14.5670357 110.1124558 126.5714635  21.5052322 110.0694659
 126.7650525  22.4098132 110.3153934 126.4715253  21.0459741 110.9033244
 118.2250946  11.3910212 112.5684987 117.5778861  12.0900162 112.4749463
 118.9951961  11.8246356 112.9361235 121.6329743  21.6559064 115.6435540
 121.4815250  21.4269616 114.7265624 121.6234423  22.6129666 115.6566885
 118.4015080  19.2290977 110.6281806 119.3307140  19.3802137 110.4550774
 117.9806110  19.3174998 109.7730453 117.2003412  23.2541642 108.3980344
 117.0614497  22.8860426 109.2706282 116.4118008  23.7689281 108.2264302
 117.7951564  28.3550738  99.7405880 117.9703319  27.8838781 100.5551503
 117.1084352  28.9816504  99.9687141 118.7508627  22.6323244 105.7869182
 118.4158459  22.5924014 106.6826832 118.2512572  21.9667960 105.3139592
 112.7252871  18.0390874 111.3121763 112.5872669  17.3071113 111.9133302
 113.6357794  17.9499774 111.0305951 121.6867818  19.9779279  96.0606241
 121.0696989  19.2526107  95.9639294 121.2184307  20.7388639  95.7173316
 115.3535171  17.7510834 110.8005442 116.0634790  17.1104026 110.7592061
 115.3104480  18.0023728 111.7231623 123.3421950  24.6878187 113.7212022
 123.2834496  24.0037407 113.0542605 123.7441468  25.4297177 113.2692648
 114.0664105  14.7376051 112.6201082 113.5301462  14.2866790 113.2722678
 113.4780814  14.8721960 111.8771546 112.3612649  31.5040101 106.5145741
 112.6009247  32.1358625 107.1924759 111.5181845  31.1528141 106.8011100
 113.4766364  14.1964703  95.1827546 112.5995831  14.0753504  94.8189792
 113.9524117  13.4050781  94.9306434 123.3439357  22.6517771 111.9526001
 122.4566136  22.3143693 112.0752400 123.9137908  21.9200802 112.1894767
 104.9968504  18.9841863 105.2769053 105.6839544  18.6703593 104.6890068
 104.8416633  19.8883227 105.0036304 109.8003227  13.8732059 109.7054076
 109.7161415  13.2657729 108.9704486 108.9785933  14.3641077 109.7063573
 116.8740511  27.3119223 108.9187245 116.8010682  28.1174195 109.4306549
 116.4317904  27.5111189 108.0935266 116.6630290  26.5490993 102.4290066
 115.8797812  27.0912673 102.5228291 117.3623036  27.0664973 102.8284307
 119.9726940  12.3585623 105.0724272 120.4695640  11.6055585 104.7525342
 119.2013922  12.3949939 104.5067481 127.8256698  18.0625988 106.7142563
 127.8146574  18.9450704 106.3436496 126.9574077  17.7097539 106.5197100
 119.3339194  27.2106057 111.0745403 120.0467166  27.8453522 111.0021305
 118.8429223  27.3069923 110.2585405 121.0556721  21.1157310 102.6462695
 120.1213000  21.2358772 102.4767399 121.2333390  20.2129777 102.3822705
 116.5561909  14.5003006 104.7995956 116.1859697  13.9474046 105.4876862
 117.0521002  13.8961139 104.2470956 124.4429273  16.9574629 103.1812729
 124.9089725  17.7902621 103.1073032 124.8936773  16.4919611 103.8857988
 114.3851108  24.9600501 111.8950974 115.0860567  25.5936984 112.0480368
 113.9146223  25.3015232 111.1346613 122.5105504  23.3018450 100.1798881
 122.7865348  23.1875045 101.0892755 121.6410002  22.9035935 100.1411054
 122.1852394  17.5145108 109.7203524 121.5323844  17.7621016 109.0655977
 122.5632774  16.7009246 109.3866002 119.1459568  27.5504801 103.8231695
 119.3281962  26.7326457 104.2859447 119.9692554  27.7672494 103.3856585
 119.4801733  26.4772986 101.0846743 120.0089500  25.9665441 100.4716905
 119.7429953  26.1615517 101.9492276 118.2339967  18.2564919 116.2069562
 117.5580604  18.1559049 116.8771937 119.0567601  18.1004133 116.6705559
 109.9818826  24.4936856 108.8282077 110.5672263  23.7480544 108.9609981
 109.7843664  24.8040812 109.7118741 112.8357481  27.5288103 103.8444519
 112.1667856  28.0134231 103.3608559 112.6970351  27.7757324 104.7587898
 104.5736481  17.0642456 107.5486520 104.6120580  16.5306047 108.3423638
 104.0676773  16.5377661 106.9297497 116.9762750  29.5631847 110.4427177
 117.5281058  29.7263468 111.2076263 117.3168943  30.1536284 109.7707202
 111.9527243  11.9106996 111.0449062 112.0168569  12.7721827 110.6326460
 111.8894363  11.2980998 110.3121421 111.4279515  13.9830129 114.6922096
 112.0551554  13.6007206 115.3059621 110.5707434  13.7644331 115.0577789
 121.8273624  24.3893104 116.2975832 122.3713528  25.0023062 115.8030787
 121.2460469  24.9472683 116.8142845 108.2045058  15.7906558 100.6240451
 108.4998499  14.8817237 100.5707505 107.3033094  15.7694298 100.3021454
 120.1131137  27.5113822 107.4290860 119.9882276  26.7103562 106.9201805
 120.7710228  28.0060016 106.9404830 111.7339305  13.8662555 106.6068000
 111.0125891  14.4798522 106.4675473 112.5232561  14.4020319 106.5284646
 122.1766045  25.3122842 109.0570410 121.2296381  25.1928193 108.9848736
 122.5248818  24.4245340 109.1396671 114.5365619  11.2016981 112.8808652
 115.0600021  11.4479278 113.6434961 114.3177952  12.0337016 112.4611789
 109.9332900  13.4720656 100.7479776 109.6045606  12.5918035 100.5654882
 110.2872270  13.4168324 101.6356166 119.1812479  25.1075558 105.2574762
 119.0337441  24.1792266 105.4382332 120.0065972  25.1295649 104.7731837
 113.0474723  13.7593626 101.1155254 113.3870795  14.2879547 100.3933862
 113.4946843  14.0974032 101.8913821 122.7846600  25.9304117 106.3439635
 123.7093148  25.7246979 106.2064086 122.6161904  25.6820518 107.2528976
 115.7418164  12.1430676 110.5658322 115.4014984  11.3438489 110.9679002
 115.0357170  12.4432387 109.9935155 115.0342870  12.2568247  99.3148547
 115.7551233  12.6349500  98.8112264 114.4108174  12.9757124  99.4183525
 119.1773993  12.9613396 100.2506879 119.3937607  13.8438034  99.9495707
 118.6968060  12.5699610  99.5212521 113.9173214  15.9199109 106.8277624
 113.7717795  16.2339412 107.7201905 113.4398418  16.5384010 106.2748522
 115.7769597  12.9101657 106.8758513 115.7631166  12.0142751 106.5390811
 116.4942025  12.9172321 107.5096799 117.6295728  13.3438998 108.9211641
 117.3713506  14.2656068 108.9195971 117.0980768  12.9469432 109.6112105
 122.5741917  26.4489785 101.7001726 122.7478794  25.8836207 100.9475579
 123.0670808  27.2490680 101.5181216 108.3918876  18.4604454 109.7665285
 107.8472345  19.2364262 109.8985559 109.2698226  18.8075258 109.6084406
 115.1806493  11.7916038 102.1446083 115.3022404  10.8632684 102.3436971
 114.8908536  11.8054724 101.2324399 128.4281308  19.2126208 103.3192026
 128.8712454  18.4633533 102.9211149 127.5507818  19.2036344 102.9365758
 123.5617089  25.7656549  98.7998624 124.2567994  26.3863242  99.0185939
 123.9040239  24.9151900  99.0751002 109.1784898  17.5874350 112.6595442
 108.4366634  17.7356985 113.2460072 108.8577643  17.8482616 111.7962191
 125.4608512  23.2156255 100.3285955 125.9859836  23.5543527  99.6035275
 125.3730865  22.2803270 100.1449090 117.1228561  27.1290328 112.4575832
 117.4315687  26.8839475 113.3298531 117.9204043  27.3336967 111.9694702
 117.1449173  29.2828238 104.6881208 116.7054163  28.7904617 105.3814065
 117.8957290  28.7401206 104.4473284 109.6241512  25.4739779 104.6905836
 110.4499532  25.1743551 104.3104480 109.2735564  24.7047401 105.1395625
 114.5923045  24.8266247 106.7603510 113.9703054  24.1636952 106.4605738
 115.2627912  24.8527379 106.0777158 107.8250117  23.3926105 105.6494770
 106.9882025  22.9648280 105.4678771 107.7973763  23.5858549 106.5865561
 114.6647573  13.3048035 116.3536016 114.7135728  14.1810158 115.9713786
 115.2070087  12.7625428 115.7807659 125.1502418  23.8489158 115.6337153
 124.3597962  23.8313297 115.0941653 124.9135773  24.3877452 116.3886190
 125.2700293  20.6981625 112.9469882 125.3198298  20.5331632 113.8885405
 125.1614217  19.8308884 112.5567762 114.1536552  23.3770170 100.2361971
 114.3024672  24.0605635  99.5828643 114.9602996  23.3575260 100.7511426
 122.5604056  16.6812553 114.2629188 123.4613919  16.5419017 113.9713186
 122.6352030  16.8467007 115.2027366 116.8946861  14.0579407 113.1082375
 116.0250171  14.3512973 112.8364963 117.1306341  14.6419852 113.8289638
 126.7718490  23.1178566 113.1911903 126.4803299  23.4808547 114.0275364
 126.1590622  22.4045574 113.0125235 127.9714173  20.6831446 105.7114473
 128.8061064  21.1221250 105.8752034 128.1073301  20.2070099 104.8922719
 125.0205678  18.2411181 111.6591961 125.4959800  18.4338827 110.8510813
 124.0971244  18.2970367 111.4135345 111.9089185  19.4035348 101.2423040
 111.6635227  18.4997678 101.4403250 112.0785100  19.4052498 100.3002518
 119.5985895  10.2759024 110.6247795 120.1167839  11.0120051 110.2994284
 119.2441028  10.5823018 111.4594554 111.1784833  15.1363706  98.7409201
 110.4854078  15.2108060  98.0849237 110.9336585  14.3724049  99.2630718
 117.6531958  25.8718301  97.7073718 117.0805925  26.4908488  97.2544190
 118.2264751  26.4217662  98.2413640 123.7207347  15.1176941 109.8920267
 124.6724770  15.2175038 109.9132491 123.5510798  14.3255209 110.4018351
 121.7421727  12.2032524 110.0779668 121.1471659  12.4837537 109.3826156
 121.4571424  12.6926425 110.8496409 120.8729217  26.1555451  98.8382300
 121.8059891  26.0901013  99.0415176 120.7852430  26.9911718  98.3796833
 123.5017234  25.4721321  95.7986248 123.4230866  25.1381185  96.6922006
 124.3226901  25.9643089  95.7977720 126.1995425  18.3383061 109.0062566
 126.1671745  17.3999061 109.1922250 126.8096049  18.4167097 108.2728391
 118.0378756  17.2079113  95.0489771 118.9837861  17.0785322  95.1178189
 117.6593001  16.4693775  95.5259199 126.3489914  15.1294104 109.0520850
 125.8328962  14.3452561 108.8650779 127.2329862  14.8012821 109.2167369
 132.0171975  19.3999067 108.1468603 132.7475364  19.1384355 108.7076307
 131.4078921  18.6627789 108.1870671 130.0987272  17.5406930 108.7443054
 129.3720436  17.4062895 108.1359546 129.6834559  17.8483759 109.5499773
 117.9217449  21.2596860 116.5090428 118.8420458  21.4375459 116.7030474
 117.8867032  20.3152905 116.3570127 116.2221673  15.1329090  94.9844656
 115.3153129  14.8362203  95.0607369 116.4997654  14.8358908  94.1178942
 107.1399614  16.4535453 105.4343702 106.8202398  15.6000761 105.1418076
 106.5933042  16.6684031 106.1901669 110.9179521  19.1697894 109.1513209
 111.1365531  20.1015002 109.1701242 111.3305295  18.8105869 109.9368013
 117.8383739   9.6765980 101.1388897 117.0284467   9.3313065 101.5144143
 118.5268156   9.3673523 101.7276509 115.7907387  14.7431100 118.5415958
 115.6904113  15.6925457 118.4728049 115.5728929  14.4149339 117.6692028
 114.9920458  11.9916025  95.1256635 115.8539622  12.3170923  95.3852452
 115.1770802  11.2047521  94.6129701 107.0087874  20.0738365 107.4036824
 106.3151345  19.6592318 106.8906778 107.7560865  20.1158901 106.8070243
 115.6538657  18.1728239 117.3581019 115.1705738  18.9728599 117.5644908
 115.7399596  18.1836184 116.4048463 108.9224616  20.0056619 105.2802839
 108.8995304  20.1044306 104.3284722 109.2325253  20.8521769 105.6020005
 111.5811994  22.0632774 109.3949453 112.5355248  22.0316716 109.3279385
 111.3824518  21.6023397 110.2099679 112.1711376  20.6333890 111.9620251
 112.9904265  21.1277968 111.9855088 112.4448184  19.7165858 111.9337818
 121.9277972  13.0244642 101.3248206 121.0403827  13.3094293 101.1068401
 122.3431961  12.8638405 100.4775483 125.2792509  13.0491163 105.0402545
 126.0552899  13.5387615 105.3127162 124.5540643  13.4749217 105.4974415
 127.7165067  13.7618782 106.0976486 128.3109558  13.5214518 105.3869794
 127.7891651  13.0425913 106.7250022 109.9362223  27.6052393 106.4119651
 109.8016691  26.8452794 105.8457649 109.5194285  28.3293293 105.9448440
 121.0721186  22.7889317  95.4196226 121.7757036  22.9939319  96.0353882
 120.3483835  23.3566079  95.6845310 121.9018996  18.5399178 101.5398496
 121.8454198  18.9967729 100.7006129 122.4547339  17.7789862 101.3621339
 125.7123802  14.3288910 102.3648616 125.4560736  13.9285545 103.1956824
 125.0876670  15.0432704 102.2398755 130.0236140  17.0684983 104.8719907
 129.4635698  17.1378172 105.6451469 129.4179643  16.8925968 104.1519404
 113.0931349  28.5021710 106.6238094 112.9763733  29.4467143 106.5216784
 112.2723795  28.1995272 107.0123893 122.9807883  23.2271846  97.4694686
 123.8153487  22.7953044  97.2872161 122.8192226  23.0553860  98.3971581
 122.6353775  19.7303959  98.8351026 122.5802579  19.5648231  97.8939470
 122.0099831  20.4379992  98.9913215 107.4246290  14.9672024 112.6612448
 108.0705154  14.4570977 113.1499673 107.2163442  15.7040705 113.2355873
 119.9499683  22.0352871 118.1604588 120.8190842  22.2093523 117.7991223
 119.4706434  22.8547288 118.0380318 115.9449901   9.2312068  98.4136344
 115.9328571  10.1753908  98.5704615 116.8373323   9.0482214  98.1195805
 114.1185863  29.1549972 109.8394022 115.0213110  29.1873582 110.1560517
 113.8923233  28.2250423 109.8540358 115.8739465  27.9080959 106.5004101
 114.9235096  27.9082820 106.3868473 116.1771951  27.1613693 105.9840135
 111.7643781  12.1139641 116.7587462 112.6275243  11.7576445 116.9690787
 111.1909192  11.7753535 117.4462866 131.6092158  33.7441497 107.5649863
 132.2470568  33.6248244 106.8613203 131.4913001  34.6922341 107.6237815
 128.4181865  33.6968925 107.5011388 128.0800376  33.5809990 106.6131923
 129.2871633  33.2960090 107.4812394 124.2768680  35.5504401 103.4908279
 123.7133545  35.4594338 102.7224566 124.1621075  34.7304306 103.9710771
 128.9001648  34.8503777 113.4597593 128.8890288  34.4556575 112.5878097
 129.0622287  34.1169849 114.0531365 121.8233112  37.0455593 106.3292499
 122.6154404  36.7046418 105.9138798 122.0629762  37.1550568 107.2494652
 129.8568239  39.2175369  98.8022744 129.2056219  39.8029450  98.4156757
 130.6512602  39.7481564  98.8617781 123.7823866  36.3064506  99.2009878
 124.5554742  35.7593493  99.0622754 124.1349265  37.1708756  99.4124339
 125.6208909  37.6340889 112.4076777 125.3298775  38.5386519 112.2923444
 126.2565893  37.6757416 113.1220847 126.5465116  35.0117737 108.9978137
 127.1428688  34.7873759 108.2835100 126.6040087  34.2702483 109.6003585
 126.1190144  32.4657172  96.8328328 126.3715665  31.9438694  96.0711791
 125.1814703  32.3023318  96.9355011 131.1633427  31.4692951 104.6403071
 131.9496516  31.0512374 104.2893488 131.4272131  32.3739043 104.8084719
 131.3343504  36.9065801  99.3391728 130.6989337  36.9800428 100.0512632
 131.0040911  37.4959400  98.6610807 136.5641854  31.4068184 105.5436050
 137.2967026  30.8367401 105.7773879 135.8081210  31.0189784 105.9842555
 125.8386433  34.3685278  99.0352703 125.7222691  33.6930182  99.7033787
 125.9488693  33.8817652  98.2184856 128.1817974  33.8295425 102.7399392
 127.8176181  33.3026046 103.4512313 129.0385090  33.4393895 102.5665877
 134.0867274  25.1189758 110.0030658 133.7550599  25.9885169 109.7791873
 133.4912888  24.8026042 110.6824689 127.8223461  28.8585325  97.7360741
 127.9897863  29.7265562  98.1031212 127.6320630  29.0212607  96.8122030
 130.5798794  37.3202304 109.4026571 130.2799517  38.2227343 109.2942378
 130.2349853  37.0534487 110.2547724 124.0311275  33.7716101 105.4363275
 123.1061772  33.6392315 105.6440967 124.2795689  34.5510320 105.9333218
 133.9795938  29.8384844 107.0824008 133.0712815  29.7700253 106.7882769
 133.9283533  30.3156789 107.9105834 127.8012682  31.3142983  98.7207407
 127.6812307  31.7600033  99.5592888 127.1065270  31.6628300  98.1620945
 121.3920086  33.4149374 106.2707064 121.5212468  33.6683853 107.1846476
 120.7117538  34.0077082 105.9511719 125.5619574  44.0846624 102.3697539
 125.4843603  45.0354450 102.4486019 124.9581217  43.7392497 103.0272465
 128.0536803  31.2574490 115.0258905 127.2770138  31.8168410 115.0161770
 128.6927366  31.7431273 115.5473776 135.8457584  28.0401283 108.8601882
 135.2031964  28.3333816 108.2141677 135.3412513  27.9254203 109.6655079
 133.4997748  31.7864456  99.5487741 134.4115604  32.0191843  99.3735439
 132.9907395  32.3701500  98.9862820 126.3083176  34.0659943 114.5876872
 127.0497860  34.6044987 114.3111696 125.6020161  34.6926232 114.7448424
 131.7838515  36.2089084 113.1849034 132.1921871  35.7671494 112.4403666
 131.0615777  35.6341711 113.4383227 128.1369585  31.1461690 110.5582591
 128.9830781  31.5701104 110.7017240 128.0768223  30.4895315 111.2521154
 132.1067330  36.7690274 106.9401323 131.4776192  36.9335988 106.2377391
 131.7192992  37.1831884 107.7112287 135.9856562  37.7044712 104.2945687
 135.3007600  38.0843614 103.7442720 136.0700411  38.3140039 105.0277634
 131.2869031  28.8066059 112.2163765 131.0429963  29.5608119 111.6798040
 131.5628961  29.1851406 113.0511012 133.2407494  35.3504671 110.8941030
 133.4524389  35.9936431 110.2175411 133.1937242  34.5166988 110.4262960
 130.8433722  27.9622492 107.7977602 129.9818202  28.2603745 108.0894340
 130.8696157  28.1792891 106.8658635 127.6595292  36.5064682 104.2051408
 128.1233637  36.7852385 103.4156030 127.3952090  35.6048127 104.0224499
 124.5519373  36.0536164 107.1431171 125.1220730  36.4823432 106.5048656
 125.1427485  35.7718749 107.8415357 126.5964178  32.6287835 101.0140973
 127.2988221  33.0808878 101.4814899 126.2644806  31.9871654 101.6420866
 125.0444539  31.2199591 115.3892182 124.4143200  31.9015872 115.6227579
 124.9380627  31.1082673 114.4445321 120.3389512  30.8871387 106.3158107
 119.5488566  31.1428916 105.8398217 120.8300759  31.7019725 106.4210147
 134.3553321  38.2276627 109.0663387 135.1770765  37.8256814 108.7846069
 134.3515724  38.1244861 110.0179503 122.2904257  31.2515967 103.2741583
 121.4935421  31.3634661 103.7925079 122.0629850  31.5902619 102.4082474
 128.1209925  37.7760670 111.2224098 128.1854357  38.2381077 112.0582270
 127.4120849  37.1458035 111.3506408 118.6227215  31.1401878 108.7473097
 118.8735253  32.0248888 109.0130673 119.1586763  30.9606479 107.9748189
 142.4459315  34.5715375 105.4148359 141.6923023  34.0022773 105.2592363
 142.5806856  34.5378040 106.3618994 127.8357943  39.4428777 101.0903078
 127.7003617  40.2880313 101.5187926 128.3767755  39.6448055 100.3269012
 124.3225282  25.5220357 117.7517434 123.9292228  24.9686556 118.4265078
 125.1391423  25.8330936 118.1423951 121.2887340  36.9604215 101.6631003
 121.8011861  37.7547466 101.8136568 121.9410053  36.2630506 101.5964605
 123.0982225  40.0769972 103.7453757 123.2748853  40.9987936 103.5574740
 123.8939058  39.7628391 104.1748136 127.2393243  26.9378236 115.3437690
 127.9802957  27.5385389 115.2642153 127.4711166  26.1955874 114.7855733
 122.3834581  32.1234604 113.6215920 122.2688096  31.2219861 113.9223019
 121.5279099  32.3698300 113.2700736 129.4626419  40.0652344 115.2203420
 129.0190273  39.2788722 114.9024325 130.1243633  40.2531494 114.5547311
 124.2213540  41.5948145 109.7464099 124.7720965  41.4665209 108.9741093
 123.3825016  41.8943034 109.3958992 131.5607657  40.3455144 113.2484822
 131.5426132  41.1664025 112.7565091 132.4827577  40.2209219 113.4734963
 128.0180711  37.8599273 114.0908330 128.5509048  37.0987561 113.8607638
 127.4894792  37.5672925 114.8332485 131.1850406  22.9659339 109.6201972
 130.8414676  23.8560981 109.5441082 131.5529369  22.7760997 108.7571557
 119.2536257  35.2892870 102.4390574 120.0911479  35.6989878 102.2224282
 119.4314524  34.3492312 102.4090768 131.1500689  32.9567950  98.1274407
 130.6347312  33.7272555  98.3662794 130.8777997  32.2833087  98.7507468
 128.7347800  27.8017651 103.1859645 127.8789396  27.4124502 103.0065284
 129.1474752  27.8809612 102.3259431 130.2646947  25.3363994 107.5851205
 129.7611742  25.2994130 106.7719010 130.5577553  26.2456737 107.6447862
 126.5089832  25.4202724 106.5917387 127.3742829  25.2245533 106.2323276
 126.5767341  25.1913076 107.5186744 136.1234963  35.7100305 100.0627580
 135.3464406  35.3711465  99.6182742 136.8026444  35.7152928  99.3882545
 130.9386992  30.8295042  99.9534188 130.6337128  31.1441192 100.8044331
 131.8917434  30.9076462  99.9961521 129.3833424  36.9885266 101.6027142
 128.8554785  36.2538025 101.2900379 128.8820927  37.7659942 101.3567110
 134.3626270  35.1834286 106.7194188 133.7049944  35.8733548 106.8074317
 135.1666669  35.5730718 107.0628175 124.1152152  27.6504932 103.9633754
 124.6895903  27.4280114 103.2306947 124.7023134  27.7193627 104.7162355
 133.1731729  33.5378659 104.7698130 133.6863610  34.1708651 105.2719840
 133.8232953  32.9379854 104.4041490 124.4421739  29.6809393  97.9829639
 123.6059051  30.0184080  98.3038914 124.3026508  29.5458373  97.0456776
 126.4174819  24.5246181 102.6908823 125.7639232  24.2095198 102.0665438
 126.3755293  23.9021921 103.4168646 127.5286024  34.8065476  94.6062115
 126.6213086  34.5754729  94.8053264 128.0257056  34.0103095  94.7936097
 130.4354103  43.5162983  97.5258801 129.7615802  43.8194680  98.1343759
 130.8219925  44.3192064  97.1764258 129.6512560  31.0128115 107.0156471
 128.7335121  31.2343062 106.8578159 130.0672703  31.0874425 106.1568178
 130.4347607  32.4119530 102.1459151 131.1819426  32.9240927 101.8366273
 130.7039197  32.0903583 103.0063544 128.7074258  34.9078071  99.1286105
 127.7985477  34.6237104  99.2258575 128.7369341  35.3277149  98.2689412
 133.9393525  38.5184660 102.8977273 133.4855852  37.6775570 102.9542463
 133.3087492  39.1546059 103.2352053 132.8826444  29.4476646 104.1277940
 132.1449201  28.9354033 104.4588183 133.1353218  29.0077028 103.3161217
 132.3826464  40.3561157 103.8327091 132.6749439  40.9166214 103.1139457
 132.8925085  40.6489718 104.5880250 132.9838072  22.2252898 104.7219709
 133.2896949  21.3650262 104.4345625 133.7090677  22.8170519 104.5218703
 119.2762428  32.6283585 103.1101307 119.0786828  32.0352946 102.3852374
 118.7209092  32.3235795 103.8277246 127.2559152  32.5206692 105.2295901
 127.3107761  31.5680528 105.1538377 126.4450354  32.6766131 105.7137199
 128.4050345  36.4486815  96.4674184 127.9669775  35.7322674  96.0079821
 129.1460786  36.6762929  95.9059275 125.1951511  31.1383751 102.9886279
 124.3819377  31.4377922 103.3951472 125.6910506  30.7439440 103.7060762
 127.3460089  41.1341508 104.9220544 127.3036268  41.3602354 103.9929076
 128.2622788  40.9004883 105.0706345 130.7925723  31.6025576 111.8201173
 131.1475111  31.8297049 112.6795639 131.4397854  31.9343953 111.1978429
 136.5223460  34.7244012 102.5250502 136.3841359  34.9145608 101.5971692
 136.1659679  35.4863394 102.9818553 124.6865586  28.7102107 108.6047514
 125.3264966  28.5690866 107.9070478 123.8543117  28.4236620 108.2286116
 136.5492840  36.7920539 107.5361774 136.9829346  36.6995828 108.3844828
 137.2624420  36.7678039 106.8981790 125.4625890  38.0104537 104.7182507
 126.2566489  37.5154857 104.5165082 124.7517583  37.4822400 104.3550212
 130.2820735  40.3922633 109.0694874 130.3357757  40.9613569 109.8372590
 129.4135516  40.5624518 108.7048912 121.7708654  32.1547619 100.7942259
 120.8406242  32.0932074 101.0112222 121.8666126  31.6323572  99.9978901
 121.6894203  28.6802432 103.3820501 121.9501020  29.5947765 103.2729662
 122.5111375  28.2126874 103.5317114 123.1619128  30.0940189 110.5519326
 123.8342181  29.8857551 109.9031975 122.3348915  29.8962275 110.1124558
 137.4108389  36.8344239 110.0694659 137.6044279  37.7390050 110.3153934
 137.3109007  36.3751658 110.9033244 129.0644700  26.7202130 112.5684987
 128.4172615  27.4192080 112.4749463 129.8345715  27.1538274 112.9361235
 132.4723498  36.9850982 115.6435540 132.3209004  36.7561534 114.7265624
 132.4628177  37.9421583 115.6566885 129.2408834  34.5582895 110.6281806
 130.1700894  34.7094054 110.4550774 128.8199864  34.6466916 109.7730453
 128.0397166  38.5833559 108.3980344 127.9008252  38.2152344 109.2706282
 127.2511762  39.0981199 108.2264302 128.6345318  43.6842656  99.7405880
 128.8097074  43.2130699 100.5551503 127.9478106  44.3108422  99.9687141
 129.5902381  37.9615162 105.7869182 129.2552214  37.9215932 106.6826832
 129.0906327  37.2959878 105.3139592 123.5646625  33.3682792 111.3121763
 123.4266423  32.6363031 111.9133302 124.4751549  33.2791692 111.0305951
 132.5261573  35.3071196  96.0606241 131.9090744  34.5818024  95.9639294
 132.0578061  36.0680557  95.7173316 126.1928926  33.0802751 110.8005442
 126.9028544  32.4395943 110.7592061 126.1498234  33.3315646 111.7231623
 134.1815705  40.0170105 113.7212022 134.1228251  39.3329325 113.0542605
 134.5835223  40.7589095 113.2692648 124.9057860  30.0667969 112.6201082
 124.3695217  29.6158708 113.2722678 124.3174568  30.2013878 111.8771546
 123.2006403  46.8332018 106.5145741 123.4403002  47.4650543 107.1924759
 122.3575600  46.4820058 106.8011100 124.3160119  29.5256621  95.1827546
 123.4389585  29.4045421  94.8189792 124.7917872  28.7342699  94.9306434
 134.1833112  37.9809689 111.9526001 133.2959891  37.6435610 112.0752400
 134.7531663  37.2492720 112.1894767 115.8362259  34.3133780 105.2769053
 116.5233299  33.9995510 104.6890068 115.6810388  35.2175145 105.0036304
 120.6396981  29.2023977 109.7054076 120.5555170  28.5949646 108.9704486
 119.8179688  29.6932995 109.7063573 127.7134265  42.6411141 108.9187245
 127.6404437  43.4466112 109.4306549 127.2711658  42.8403107 108.0935266
 127.5024045  41.8782911 102.4290066 126.7191567  42.4204591 102.5228291
 128.2016790  42.3956891 102.8284307 130.8120695  27.6877540 105.0724272
 131.3089395  26.9347503 104.7525342 130.0407676  27.7241857 104.5067481
 138.6650452  33.3917906 106.7142563 138.6540329  34.2742621 106.3436496
 137.7967832  33.0389457 106.5197100 130.1732949  42.5397975 111.0745403
 130.8860921  43.1745440 111.0021305 129.6822977  42.6361841 110.2585405
 131.8950476  36.4449228 102.6462695 130.9606754  36.5650690 102.4767399
 132.0727144  35.5421694 102.3822705 127.3955664  29.8294923 104.7995956
 127.0253451  29.2765964 105.4876862 127.8914756  29.2253057 104.2470956
 135.2823027  32.2866547 103.1812729 135.7483479  33.1194538 103.1073032
 135.7330528  31.8211528 103.8857988 125.2244862  40.2892418 111.8950974
 125.9254322  40.9228901 112.0480368 124.7539977  40.6307150 111.1346613
 133.3499258  38.6310368 100.1798881 133.6259102  38.5166963 101.0892755
 132.4803757  38.2327853 100.1411054 133.2539690  24.6547134 107.2203630
 132.3402770  24.8851361 107.3885837 133.6832791  24.7385578 108.0717663
 133.0246148  32.8437026 109.7203524 132.3717599  33.0912933 109.0655977
 133.4026528  32.0301164 109.3866002 129.9853322  42.8796719 103.8231695
 130.1675717  42.0618375 104.2859447 130.8086308  43.0964411 103.3856585
 130.3195488  41.8064904 101.0846743 130.8483254  41.2957359 100.4716905
 130.5823707  41.4907434 101.9492276 129.0733721  33.5856837 116.2069562
 128.3974358  33.4850966 116.8771937 129.8961355  33.4296051 116.6705559
 120.8212580  39.8228773 108.8282077 121.4066017  39.0772461 108.9609981
 120.6237419  40.1332730 109.7118741 123.6751236  42.8580021 103.8444519
 123.0061611  43.3426148 103.3608559 123.5364105  43.1049241 104.7587898
 115.4130235  32.3934374 107.5486520 115.4514335  31.8597964 108.3423638
 114.9070528  31.8669579 106.9297497 127.8156504  44.8923764 110.4427177
 128.3674812  45.0555386 111.2076263 128.1562698  45.4828202 109.7707202
 122.7920997  27.2398914 111.0449062 122.8562324  28.1013745 110.6326460
 122.7288118  26.6272916 110.3121421 122.2673270  29.3122047 114.6922096
 122.8945309  28.9299124 115.3059621 121.4101189  29.0936249 115.0577789
 132.6667378  39.7185022 116.2975832 133.2107282  40.3314980 115.8030787
 132.0854223  40.2764600 116.8142845 119.0438813  31.1198476 100.6240451
 119.3392254  30.2109154 100.5707505 118.1426848  31.0986215 100.3021454
 130.9524891  42.8405740 107.4290860 130.8276031  42.0395480 106.9201805
 131.6103983  43.3351933 106.9404830 122.5733060  29.1954472 106.6068000
 121.8519645  29.8090440 106.4675473 123.3626315  29.7312237 106.5284646
 133.0159800  40.6414760 109.0570410 132.0690135  40.5220111 108.9848736
 133.3642573  39.7537258 109.1396671 125.3759373  26.5308899 112.8808652
 125.8993775  26.7771195 113.6434961 125.1571706  27.3628934 112.4611789
 120.7726654  28.8012573 100.7479776 120.4439360  27.9209952 100.5654882
 121.1266025  28.7460242 101.6356166 130.0206233  40.4367476 105.2574762
 129.8731196  39.5084184 105.4382332 130.8459727  40.4587567 104.7731837
 123.8868477  29.0885543 101.1155254 124.2264550  29.6171464 100.3933862
 124.3340598  29.4265949 101.8913821 133.6240355  41.2596035 106.3439635
 134.5486902  41.0538896 106.2064086 133.4555658  41.0112436 107.2528976
 126.5811918  27.4722594 110.5658322 126.2408739  26.6730407 110.9679002
 125.8750925  27.7724305 109.9935155 127.2328390  24.5571906 109.0185645
 128.0554459  24.0832385 108.8964536 127.4766454  25.3362390 109.5184331
 125.8736625  27.5860165  99.3148547 126.5944987  27.9641418  98.8112264
 125.2501929  28.3049042  99.4183525 130.0167747  28.2905314 100.2506879
 130.2331362  29.1729952  99.9495707 129.5361815  27.8991527  99.5212521
 124.7566969  31.2491027 106.8277624 124.6111550  31.5631330 107.7201905
 124.2792172  31.8675927 106.2748522 126.6163352  28.2393575 106.8758513
 126.6024920  27.3434668 106.5390811 127.3335780  28.2464239 107.5096799
 128.4689482  28.6730915 108.9211641 128.2107260  29.5947986 108.9195971
 127.9374523  28.2761350 109.6112105 133.4135671  41.7781702 101.7001726
 133.5872549  41.2128125 100.9475579 133.9064562  42.5782597 101.5181216
 119.2312631  33.7896371 109.7665285 118.6866099  34.5656179 109.8985559
 120.1091981  34.1367176 109.6084406 126.0200248  27.1207955 102.1446083
 126.1416159  26.1924601 102.3436971 125.7302290  27.1346641 101.2324399
 128.8891438  24.8062866 105.2812803 128.9113135  24.8702199 104.3264783
 129.3059497  23.9667374 105.4753309 139.2675062  34.5418125 103.3192026
 139.7106208  33.7925450 102.9211149 138.3901573  34.5328262 102.9365758
 134.4010844  41.0948467  98.7998624 135.0961748  41.7155159  99.0185939
 134.7433994  40.2443818  99.0751002 120.0178653  32.9166268 112.6595442
 119.2760389  33.0648903 113.2460072 119.6971397  33.1774533 111.7962191
 136.3002267  38.5448172 100.3285955 136.8253591  38.8835445  99.6035275
 136.2124619  37.6095188 100.1449090 127.9622315  42.4582246 112.4575832
 128.2709442  42.2131393 113.3298531 128.7597798  42.6628884 111.9694702
 127.9842928  44.6120156 104.6881208 127.5447918  44.1196534 105.3814065
 128.7351044  44.0693123 104.4473284 120.4635267  40.8031696 104.6905836
 121.2893286  40.5035468 104.3104480 120.1129319  40.0339319 105.1395625
 125.4316800  40.1558165 106.7603510 124.8096809  39.4928870 106.4605738
 126.1021667  40.1819297 106.0777158 118.6643872  38.7218023 105.6494770
 117.8275780  38.2940197 105.4678771 118.6367517  38.9150466 106.5865561
 125.5041327  28.6339953 116.3536016 125.5529483  29.5102075 115.9713786
 126.0463841  28.0917346 115.7807659 135.9896173  39.1781076 115.6337153
 135.1991717  39.1605215 115.0941653 135.7529527  39.7169370 116.3886190
 136.1094048  36.0273542 112.9469882 136.1592053  35.8623550 113.8885405
 136.0007971  35.1600801 112.5567762 124.9930307  38.7062088 100.2361971
 125.1418427  39.3897552  99.5828643 125.7996750  38.6867178 100.7511426
 133.3997810  32.0104470 114.2629188 134.3007673  31.8710935 113.9713186
 133.4745785  32.1758925 115.2027366 127.7340616  29.3871325 113.1082375
 126.8643925  29.6804891 112.8364963 127.9700096  29.9711770 113.8289638
 137.6112245  38.4470484 113.1911903 137.3197053  38.8100464 114.0275364
 136.9984376  37.7337492 113.0125235 138.8107927  36.0123364 105.7114473
 139.6454818  36.4513168 105.8752034 138.9467056  35.5362017 104.8922719
 135.8599433  33.5703098 111.6591961 136.3353555  33.7630745 110.8510813
 134.9364998  33.6262284 111.4135345 122.7482940  34.7327266 101.2423040
 122.5028982  33.8289596 101.4403250 122.9178854  34.7344416 100.3002518
 130.4379649  25.6050942 110.6247795 130.9561593  26.3411969 110.2994284
 130.0834782  25.9114935 111.4594554 122.0178587  30.4655623  98.7409201
 121.3247832  30.5399978  98.0849237 121.7730339  29.7015967  99.2630718
 130.6892244  22.0251225 106.1448692 130.9693997  21.3574414 106.7709118
 131.4742851  22.2180320 105.6323356 128.4925712  41.2010218  97.7073718
 127.9199679  41.8200406  97.2544190 129.0658506  41.7509580  98.2413640
 134.5601102  30.4468859 109.8920267 135.5118525  30.5466956 109.9132491
 134.3904552  29.6547127 110.4018351 132.5815481  27.5324442 110.0779668
 131.9865414  27.8129454 109.3826156 132.2965178  28.0218343 110.8496409
 131.7122972  41.4847369  98.8382300 132.6453645  41.4192930  99.0415176
 131.6246185  42.3203635  98.3796833 134.3410989  40.8013239  95.7986248
 134.2624620  40.4673102  96.6922006 135.1620655  41.2935007  95.7977720
 137.0389180  33.6674978 109.0062566 137.0065500  32.7290979 109.1922250
 137.6489803  33.7459015 108.2728391 128.8772511  32.5371031  95.0489771
 129.8231615  32.4077239  95.1178189 128.4986756  31.7985693  95.5259199
 137.1883668  30.4586022 109.0520850 136.6722717  29.6744478 108.8650779
 138.0723617  30.1304738 109.2167369 134.8494395  24.2027037 105.0116662
 134.6519216  23.8942125 105.8959994 135.4594101  24.9288676 105.1414592
 142.8565730  34.7290985 108.1468603 143.5869118  34.4676273 108.7076307
 142.2472675  33.9919707 108.1870671 140.9381027  32.8698848 108.7443054
 140.2114190  32.7354813 108.1359546 140.5228314  33.1775676 109.5499773
 128.7611203  36.5888777 116.5090428 129.6814213  36.7667376 116.7030474
 128.7260786  35.6444823 116.3570127 127.0615428  30.4621008  94.9844656
 126.1546883  30.1654120  95.0607369 127.3391409  30.1650826  94.1178942
 117.9793368  31.7827371 105.4343702 117.6596153  30.9292679 105.1418076
 117.4326796  31.9975949 106.1901669 121.7573276  34.4989812 109.1513209
 121.9759285  35.4306920 109.1701242 122.1699050  34.1397786 109.9368013
 128.6777494  25.0057897 101.1388897 127.8678222  24.6604982 101.5144143
 129.3661910  24.6965441 101.7276509 130.6068042  24.0835944 102.7613194
 131.1599080  24.5031397 103.4203217 130.8438128  23.1571692 102.8036150
 126.6301141  30.0723018 118.5415958 126.5297868  31.0217375 118.4728049
 126.4122683  29.7441257 117.6692028 125.8314212  27.3207943  95.1256635
 126.6933376  27.6462841  95.3852452 126.0164557  26.5339439  94.6129701
 117.8481628  35.4030282 107.4036824 117.1545100  34.9884235 106.8906778
 118.5954619  35.4450819 106.8070243 133.9846849  26.1936469 102.2691858
 133.4045518  26.8521273 101.8869910 133.7182782  25.3713814 101.8579275
 132.4350415  25.5941527 104.4713178 132.9350194  25.7058061 103.6627497
 133.0786023  25.2902580 105.1113987 126.4932411  33.5020157 117.3581019
 126.0099493  34.3020517 117.5644908 126.5793350  33.5128101 116.4048463
 119.7618371  35.3348536 105.2802839 119.7389059  35.4336224 104.3284722
 120.0719007  36.1813687 105.6020005 122.4205749  37.3924691 109.3949453
 123.3749002  37.3608634 109.3279385 122.2218272  36.9315315 110.2099679
 123.0105131  35.9625807 111.9620251 123.8298020  36.4569886 111.9855088
 123.2841938  35.0457775 111.9337818 132.7671727  28.3536560 101.3248206
 131.8797582  28.6386210 101.1068401 133.1825716  28.1930323 100.4775483
 136.1186263  28.3783081 105.0402545 136.8946653  28.8679533 105.3127162
 135.3934397  28.8041135 105.4974415 138.5558822  29.0910700 106.0976486
 139.1503312  28.8506436 105.3869794 138.6285405  28.3717830 106.7250022
 120.7755977  42.9344311 106.4119651 120.6410445  42.1744712 105.8457649
 120.3588040  43.6585211 105.9448440 131.9114940  38.1181234  95.4196226
 132.6150790  38.3231237  96.0353882 131.1877589  38.6857996  95.6845310
 132.7412751  33.8691096 101.5398496 132.6847952  34.3259647 100.7006129
 133.2941093  33.1081780 101.3621339 136.5517557  29.6580827 102.3648616
 136.2954491  29.2577463 103.1956824 135.9270425  30.3724621 102.2398755
 140.8629894  32.3976901 104.8719907 140.3029452  32.4670090 105.6451469
 140.2573398  32.2217885 104.1519404 123.9325103  43.8313628 106.6238094
 123.8157487  44.7759060 106.5216784 123.1117549  43.5287189 107.0123893
 133.8201638  38.5563763  97.4694686 134.6547242  38.1244962  97.2872161
 133.6585981  38.3845777  98.3971581 133.4747530  35.0595877  98.8351026
 133.4196334  34.8940148  97.8939470 132.8493585  35.7671910  98.9913215
 118.2640045  30.2963941 112.6612448 118.9098909  29.7862895 113.1499673
 118.0557196  31.0332623 113.2355873 130.7893437  37.3644789 118.1604588
 131.6584597  37.5385441 117.7991223 130.3100189  38.1839205 118.0380318
 126.7843655  24.5603986  98.4136344 126.7722325  25.5045826  98.5704615
 127.6767077  24.3774131  98.1195805 124.9579617  44.4841890 109.8394022
 125.8606864  44.5165500 110.1560517 124.7316987  43.5542341 109.8540358
 126.7133219  43.2372876 106.5004101 125.7628850  43.2374738 106.3868473
 127.0165706  42.4905611 105.9840135 130.5995775  21.1546762 102.6682281
 129.8328171  20.6005249 102.8138963 131.0106480  21.2268631 103.5296432
 122.6037536  27.4431558 116.7587462 123.4668997  27.0868363 116.9690787
 122.0302947  27.1045453 117.4462866 142.4485913  49.0733415 107.5649863
 143.0864323  48.9540162 106.8613203 142.3306756  50.0214259 107.6237815
 139.2575619  49.0260843 107.5011388 138.9194131  48.9101907 106.6131923
 140.1265387  48.6252008 107.4812394 135.1162435  50.8796319 103.4908279
 134.5527300  50.7886256 102.7224566 135.0014830  50.0596224 103.9710771
 139.7395402  50.1795694 113.4597593 139.7284043  49.7848493 112.5878097
 139.9016042  49.4461767 114.0531365 132.6626867  52.3747511 106.3292499
 133.4548159  52.0338335 105.9138798 132.9023517  52.4842486 107.2494652
 140.6961994  54.5467287  98.8022744 140.0449973  55.1321367  98.4156757
 141.4906356  55.0773482  98.8617781 134.6217621  51.6356424  99.2009878
 135.3948497  51.0885411  99.0622754 134.9743020  52.5000673  99.4124339
 136.4602663  52.9632806 112.4076777 136.1692529  53.8678437 112.2923444
 137.0959648  53.0049334 113.1220847 137.3858870  50.3409655 108.9978137
 137.9822442  50.1165677 108.2835100 137.4433842  49.5994400 109.6003585
 136.9583899  47.7949090  96.8328328 137.2109419  47.2730611  96.0711791
 136.0208458  47.6315236  96.9355011 142.0027181  46.7984868 104.6403071
 142.7890271  46.3804292 104.2893488 142.2665886  47.7030961 104.8084719
 142.1737259  52.2357719  99.3391728 141.5383092  52.3092345 100.0512632
 141.8434665  52.8251318  98.6610807 147.4035608  46.7360102 105.5436050
 148.1360780  46.1659318 105.7773879 146.6474964  46.3481702 105.9842555
 136.6780187  49.6977196  99.0352703 136.5616445  49.0222099  99.7033787
 136.7882447  49.2109570  98.2184856 139.0211728  49.1587343 102.7399392
 138.6569935  48.6317964 103.4512313 139.8778844  48.7685812 102.5665877
 144.9261029  40.4481676 110.0030658 144.5944354  41.3177087 109.7791873
 144.3306642  40.1317960 110.6824689 138.6617215  44.1877243  97.7360741
 138.8291618  45.0557479  98.1031212 138.4714384  44.3504525  96.8122030
 141.4192548  52.6494222 109.4026571 141.1193271  53.5519261 109.2942378
 141.0743608  52.3826405 110.2547724 134.8705030  49.1008019 105.4363275
 133.9455526  48.9684233 105.6440967 135.1189443  49.8802238 105.9333218
 144.8189692  45.1676762 107.0824008 143.9106569  45.0992170 106.7882769
 144.7677288  45.6448707 107.9105834 138.6406436  46.6434900  98.7207407
 138.5206061  47.0891951  99.5592888 137.9459024  46.9920218  98.1620945
 132.2313841  48.7441292 106.2707064 132.3606222  48.9975771 107.1846476
 131.5511292  49.3369000 105.9511719 136.4013328  59.4138542 102.3697539
 136.3237358  60.3646367 102.4486019 135.7974972  59.0684415 103.0272465
 138.8930558  46.5866408 115.0258905 138.1163892  47.1460328 115.0161770
 139.5321121  47.0723191 115.5473776 146.6851339  43.3693200 108.8601882
 146.0425719  43.6625733 108.2141677 146.1806267  43.2546121 109.6655079
 144.3391502  47.1156374  99.5487741 145.2509358  47.3483760  99.3735439
 143.8301149  47.6993418  98.9862820 137.1476930  49.3951861 114.5876872
 137.8891615  49.9336905 114.3111696 136.4413916  50.0218150 114.7448424
 142.6232270  51.5381001 113.1849034 143.0315626  51.0963412 112.4403666
 141.9009531  50.9633629 113.4383227 138.9763340  46.4753608 110.5582591
 139.8224535  46.8993022 110.7017240 138.9161978  45.8187232 111.2521154
 142.9461085  52.0982192 106.9401323 142.3169947  52.2627906 106.2377391
 142.5586747  52.5123802 107.7112287 146.8250316  53.0336630 104.2945687
 146.1401355  53.4135531 103.7442720 146.9094166  53.6431956 105.0277634
 142.1262785  44.1357976 112.2163765 141.8823717  44.8900037 111.6798040
 142.4022716  44.5143324 113.0511012 144.0801248  50.6796589 110.8941030
 144.2918143  51.3228349 110.2175411 144.0330996  49.8458905 110.4262960
 141.6827477  43.2914409 107.7977602 140.8211956  43.5895663 108.0894340
 141.7089912  43.5084808 106.8658635 138.4989046  51.8356600 104.2051408
 138.9627392  52.1144303 103.4156030 138.2345845  50.9340045 104.0224499
 135.3913127  51.3828082 107.1431171 135.9614485  51.8115350 106.5048656
 135.9821239  51.1010666 107.8415357 137.4357932  47.9579752 101.0140973
 138.1381976  48.4100796 101.4814899 137.1038561  47.3163571 101.6420866
 135.8838294  46.5491509 115.3892182 135.2536955  47.2307790 115.6227579
 135.7774382  46.4374591 114.4445321 131.1783266  46.2163305 106.3158107
 130.3882320  46.4720834 105.8398217 131.6694514  47.0311643 106.4210147
 145.1947076  53.5568544 109.0663387 146.0164520  53.1548732 108.7846069
 145.1909479  53.4536778 110.0179503 133.1298012  46.5807884 103.2741583
 132.3329175  46.6926579 103.7925079 132.9023604  46.9194537 102.4082474
 138.9603679  53.1052588 111.2224098 139.0248112  53.5672995 112.0582270
 138.2514603  52.4749952 111.3506408 129.4620969  46.4693796 108.7473097
 129.7129008  47.3540805 109.0130673 129.9980518  46.2898397 107.9748189
 153.2853069  49.9007293 105.4148359 152.5316777  49.3314691 105.2592363
 153.4200610  49.8669957 106.3618994 138.6751697  54.7720695 101.0903078
 138.5397372  55.6172231 101.5187926 139.2161510  54.9739973 100.3269012
 135.1619037  40.8512275 117.7517434 134.7685982  40.2978473 118.4265078
 135.9785177  41.1622853 118.1423951 132.1281094  52.2896133 101.6631003
 132.6405615  53.0839383 101.8136568 132.7803807  51.5922424 101.5964605
 133.9375979  55.4061889 103.7453757 134.1142608  56.3279854 103.5574740
 134.7332813  55.0920309 104.1748136 138.0786998  42.2670154 115.3437690
 138.8196711  42.8677307 115.2642153 138.3104921  41.5247792 114.7855733
 133.2228336  47.4526521 113.6215920 133.1081851  46.5511778 113.9223019
 132.3672853  47.6990218 113.2700736 140.3020173  55.3944262 115.2203420
 139.8584028  54.6080640 114.9024325 140.9637387  55.5823412 114.5547311
 135.0607295  56.9240063 109.7464099 135.6114720  56.7957127 108.9741093
 134.2218771  57.2234952 109.3958992 142.4001412  55.6747061 113.2484822
 142.3819887  56.4955943 112.7565091 143.3221332  55.5501137 113.4734963
 138.8574466  53.1891191 114.0908330 139.3902802  52.4279479 113.8607638
 138.3288547  52.8964843 114.8332485 142.0244161  38.2951257 109.6201972
 141.6808430  39.1852899 109.5441082 142.3923123  38.1052915 108.7571557
 130.0930011  50.6184787 102.4390574 130.9305233  51.0281796 102.2224282
 130.2708279  49.6784230 102.4090768 141.9894443  48.2859868  98.1274407
 141.4741067  49.0564473  98.3662794 141.7171752  47.6125004  98.7507468
 139.5741554  43.1309569 103.1859645 138.7183151  42.7416419 103.0065284
 139.9868506  43.2101530 102.3259431 141.1040701  40.6655912 107.5851205
 140.6005497  40.6286047 106.7719010 141.3971308  41.5748655 107.6447862
 137.3483587  40.7494642 106.5917387 138.2136584  40.5537450 106.2323276
 137.4161096  40.5204994 107.5186744 146.9628717  51.0392223 100.0627580
 146.1858160  50.7003382  99.6182742 147.6420198  51.0444846  99.3882545
 141.7780747  46.1586960  99.9534188 141.4730882  46.4733109 100.8044331
 142.7311189  46.2368380  99.9961521 140.2227178  52.3177183 101.6027142
 139.6948540  51.5829943 101.2900379 139.7214681  53.0951860 101.3567110
 145.2020024  50.5126204 106.7194188 144.5443699  51.2025465 106.8074317
 146.0060424  50.9022636 107.0628175 134.9545906  42.9796850 103.9633754
 135.5289658  42.7572031 103.2306947 135.5416888  43.0485544 104.7162355
 144.0125483  48.8670577 104.7698130 144.5257365  49.5000568 105.2719840
 144.6626707  48.2671772 104.4041490 135.2815493  45.0101311  97.9829639
 134.4452805  45.3475997  98.3038914 135.1420263  44.8750291  97.0456776
 137.2568574  39.8538099 102.6908823 136.6032986  39.5387116 102.0665438
 137.2149048  39.2313839 103.4168646 138.3679779  50.1357394  94.6062115
 137.4606840  49.9046647  94.8053264 138.8650811  49.3395013  94.7936097
 141.2747857  58.8454901  97.5258801 140.6009556  59.1486598  98.1343759
 141.6613679  59.6483981  97.1764258 140.4906314  46.3420032 107.0156471
 139.5728875  46.5634979 106.8578159 140.9066458  46.4166343 106.1568178
 141.2741362  47.7411448 102.1459151 142.0213181  48.2532845 101.8366273
 141.5432951  47.4195501 103.0063544 139.5468012  50.2369989  99.1286105
 138.6379231  49.9529021  99.2258575 139.5763096  50.6569067  98.2689412
 144.7787279  53.8476578 102.8977273 144.3249607  53.0067488 102.9542463
 144.1481246  54.4837976 103.2352053 143.7220199  44.7768564 104.1277940
 142.9842956  44.2645950 104.4588183 143.9746973  44.3368946 103.3161217
 143.2220219  55.6853075 103.8327091 143.5143193  56.2458132 103.1139457
 143.7318839  55.9781636 104.5880250 143.8231826  37.5544816 104.7219709
 144.1290703  36.6942180 104.4345625 144.5484431  38.1462436 104.5218703
 130.1156182  47.9575503 103.1101307 129.9180582  47.3644863 102.3852374
 129.5602846  47.6527713 103.8277246 138.0952906  47.8498609 105.2295901
 138.1501516  46.8972446 105.1538377 137.2844108  48.0058048 105.7137199
 139.2444100  51.7778732  96.4674184 138.8063530  51.0614591  96.0079821
 139.9854541  52.0054847  95.9059275 136.0345266  46.4675669 102.9886279
 135.2213131  46.7669839 103.3951472 136.5304260  46.0731358 103.7060762
 138.1853844  56.4633426 104.9220544 138.1430023  56.6894272 103.9929076
 139.1016543  56.2296800 105.0706345 141.6319478  46.9317493 111.8201173
 141.9868865  47.1588967 112.6795639 142.2791609  47.2635870 111.1978429
 147.3617215  50.0535929 102.5250502 147.2235113  50.2437525 101.5971692
 147.0053433  50.8155312 102.9818553 135.5259341  44.0394024 108.6047514
 136.1658720  43.8982784 107.9070478 134.6936871  43.7528538 108.2286116
 147.3886594  52.1212456 107.5361774 147.8223101  52.0287745 108.3844828
 148.1018175  52.0969957 106.8981790 136.3019645  53.3396455 104.7182507
 137.0960243  52.8446775 104.5165082 135.5911337  52.8114318 104.3550212
 141.1214489  55.7214550 109.0694874 141.1751511  56.2905487 109.8372590
 140.2529270  55.8916435 108.7048912 132.6102408  47.4839537 100.7942259
 131.6799996  47.4223992 101.0112222 132.7059880  46.9615489  99.9978901
 132.5287957  44.0094349 103.3820501 132.7894774  44.9239683 103.2729662
 133.3505129  43.5418792 103.5317114 134.0012882  45.4232107 110.5519326
 134.6735936  45.2149469 109.9031975 133.1742669  45.2254193 110.1124558
 148.2502144  52.1636157 110.0694659 148.4438034  53.0681967 110.3153934
 148.1502762  51.7043576 110.9033244 139.9038454  42.0494048 112.5684987
 139.2566370  42.7483997 112.4749463 140.6739470  42.4830191 112.9361235
 143.3117252  52.3142900 115.6435540 143.1602759  52.0853451 114.7265624
 143.3021932  53.2713501 115.6566885 140.0802589  49.8874812 110.6281806
 141.0094649  50.0385972 110.4550774 139.6593619  49.9758833 109.7730453
 138.8790921  53.9125477 108.3980344 138.7402006  53.5444261 109.2706282
 138.0905517  54.4273116 108.2264302 139.4739073  59.0134573  99.7405880
 139.6490828  58.5422617 100.5551503 138.7871861  59.6400340  99.9687141
 140.4296136  53.2907080 105.7869182 140.0945968  53.2507850 106.6826832
 139.9300081  52.6251795 105.3139592 134.4040380  48.6974710 111.3121763
 134.2660178  47.9654948 111.9133302 135.3145303  48.6083610 111.0305951
 143.3655327  50.6363114  96.0606241 142.7484498  49.9109942  95.9639294
 142.8971816  51.3972474  95.7173316 137.0322680  48.4094669 110.8005442
 137.7422299  47.7687861 110.7592061 136.9891989  48.6607564 111.7231623
 145.0209459  55.3462022 113.7212022 144.9622005  54.6621242 113.0542605
 145.4228977  56.0881012 113.2692648 135.7451614  45.3959887 112.6201082
 135.2088971  44.9450625 113.2722678 135.1568323  45.5305796 111.8771546
 134.0400158  62.1623936 106.5145741 134.2796756  62.7942460 107.1924759
 133.1969354  61.8111976 106.8011100 135.1553873  44.8548538  95.1827546
 134.2783340  44.7337339  94.8189792 135.6311626  44.0634617  94.9306434
 145.0226866  53.3101606 111.9526001 144.1353645  52.9727528 112.0752400
 145.5925417  52.5784637 112.1894767 126.6756013  49.6425698 105.2769053
 127.3627053  49.3287428 104.6890068 126.5204142  50.5467063 105.0036304
 131.4790736  44.5315894 109.7054076 131.3948924  43.9241564 108.9704486
 130.6573442  45.0224913 109.7063573 138.5528020  57.9703059 108.9187245
 138.4798191  58.7758030 109.4306549 138.1105413  58.1695024 108.0935266
 138.3417799  57.2074829 102.4290066 137.5585321  57.7496509 102.5228291
 139.0410545  57.7248808 102.8284307 141.6514449  43.0169458 105.0724272
 142.1483149  42.2639420 104.7525342 140.8801431  43.0533775 104.5067481
 149.5044207  48.7209824 106.7142563 149.4934083  49.6034539 106.3436496
 148.6361586  48.3681374 106.5197100 141.0126703  57.8689893 111.0745403
 141.7254675  58.5037357 111.0021305 140.5216732  57.9653759 110.2585405
 142.7344230  51.7741145 102.6462695 141.8000509  51.8942608 102.4767399
 142.9120899  50.8713612 102.3822705 138.2349418  45.1586841 104.7995956
 137.8647206  44.6057881 105.4876862 138.7308511  44.5544974 104.2470956
 146.1216782  47.6158465 103.1812729 146.5877234  48.4486456 103.1073032
 146.5724282  47.1503446 103.8857988 136.0638617  55.6184336 111.8950974
 136.7648076  56.2520819 112.0480368 135.5933732  55.9599068 111.1346613
 144.1893013  53.9602286 100.1798881 144.4652857  53.8458880 101.0892755
 143.3197511  53.5619771 100.1411054 144.0933444  39.9839052 107.2203630
 143.1796524  40.2143278 107.3885837 144.5226546  40.0677496 108.0717663
 143.8639903  48.1728943 109.7203524 143.2111353  48.4204851 109.0655977
 144.2420283  47.3593082 109.3866002 140.8247077  58.2088637 103.8231695
 141.0069471  57.3910293 104.2859447 141.6480063  58.4256329 103.3856585
 141.1589242  57.1356822 101.0846743 141.6877009  56.6249276 100.4716905
 141.4217462  56.8199352 101.9492276 139.9127476  48.9148755 116.2069562
 139.2368113  48.8142884 116.8771937 140.7355110  48.7587968 116.6705559
 131.6606335  55.1520691 108.8282077 132.2459772  54.4064379 108.9609981
 131.4631173  55.4624648 109.7118741 134.5144990  58.1871938 103.8444519
 133.8455365  58.6718066 103.3608559 134.3757860  58.4341159 104.7587898
 126.2523990  47.7226291 107.5486520 126.2908089  47.1889882 108.3423638
 125.7464282  47.1961497 106.9297497 138.6550259  60.2215682 110.4427177
 139.2068567  60.3847303 111.2076263 138.9956452  60.8120120 109.7707202
 133.6314752  42.5690832 111.0449062 133.6956078  43.4305663 110.6326460
 133.5681872  41.9564833 110.3121421 133.1067024  44.6413964 114.6922096
 133.7339063  44.2591042 115.3059621 132.2494943  44.4228166 115.0577789
 143.5061133  55.0476940 116.2975832 144.0501037  55.6606898 115.8030787
 142.9247978  55.6056518 116.8142845 129.8832567  46.4490393 100.6240451
 130.1786008  45.5401072 100.5707505 128.9820603  46.4278133 100.3021454
 141.7918646  58.1697658 107.4290860 141.6669785  57.3687397 106.9201805
 142.4497737  58.6643851 106.9404830 133.4126814  44.5246390 106.6068000
 132.6913400  45.1382358 106.4675473 134.2020070  45.0604155 106.5284646
 143.8553554  55.9706678 109.0570410 142.9083890  55.8512029 108.9848736
 144.2036327  55.0829176 109.1396671 136.2153128  41.8600817 112.8808652
 136.7387530  42.1063113 113.6434961 135.9965461  42.6920851 112.4611789
 131.6120409  44.1304491 100.7479776 131.2833115  43.2501870 100.5654882
 131.9659779  44.0752160 101.6356166 140.8599988  55.7659394 105.2574762
 140.7124950  54.8376101 105.4382332 141.6853481  55.7879485 104.7731837
 134.7262232  44.4177461 101.1155254 135.0658304  44.9463382 100.3933862
 135.1734352  44.7557867 101.8913821 144.4634109  56.5887953 106.3439635
 145.3880657  56.3830814 106.2064086 144.2949413  56.3404354 107.2528976
 137.4205673  42.8014512 110.5658322 137.0802493  42.0022325 110.9679002
 136.7144679  43.1016222 109.9935155 138.0722145  39.8863824 109.0185645
 138.8948214  39.4124302 108.8964536 138.3160208  40.6654308 109.5184331
 136.7130379  42.9152082  99.3148547 137.4338742  43.2933335  98.8112264
 136.0895683  43.6340959  99.4183525 140.8561502  43.6197231 100.2506879
 141.0725116  44.5021869  99.9495707 140.3755569  43.2283445  99.5212521
 135.5960723  46.5782945 106.8277624 135.4505304  46.8923248 107.7201905
 135.1185927  47.1967845 106.2748522 137.4557106  43.5685493 106.8758513
 137.4418675  42.6726586 106.5390811 138.1729534  43.5756156 107.5096799
 139.3083237  44.0022833 108.9211641 139.0501015  44.9239904 108.9195971
 138.7768277  43.6053267 109.6112105 144.2529426  57.1073620 101.7001726
 144.4266303  56.5420042 100.9475579 144.7458317  57.9074515 101.5181216
 130.0706385  49.1188289 109.7665285 129.5259854  49.8948097 109.8985559
 130.9485735  49.4659094 109.6084406 136.8594002  42.4499873 102.1446083
 136.9809913  41.5216519 102.3436971 136.5696045  42.4638559 101.2324399
 139.7285193  40.1354783 105.2812803 139.7506889  40.1994116 104.3264783
 140.1453252  39.2959292 105.4753309 150.1068817  49.8710043 103.3192026
 150.5499963  49.1217368 102.9211149 149.2295327  49.8620179 102.9365758
 145.2404598  56.4240384  98.7998624 145.9355503  57.0447077  99.0185939
 145.5827748  55.5735736  99.0751002 130.8572407  48.2458185 112.6595442
 130.1154143  48.3940821 113.2460072 130.5365152  48.5066451 111.7962191
 147.1396021  53.8740090 100.3285955 147.6647345  54.2127363  99.6035275
 147.0518374  52.9387105 100.1449090 138.8016070  57.7874164 112.4575832
 139.1103196  57.5423310 113.3298531 139.5991552  57.9920802 111.9694702
 138.8236682  59.9412073 104.6881208 138.3841672  59.4488452 105.3814065
 139.5744799  59.3985041 104.4473284 131.3029021  56.1323614 104.6905836
 132.1287041  55.8327386 104.3104480 130.9523073  55.3631237 105.1395625
 136.2710554  55.4850082 106.7603510 135.6490563  54.8220787 106.4605738
 136.9415421  55.5111214 106.0777158 129.5037626  54.0509941 105.6494770
 128.6669534  53.6232115 105.4678771 129.4761271  54.2442384 106.5865561
 136.3435082  43.9631870 116.3536016 136.3923237  44.8393993 115.9713786
 136.8857596  43.4209263 115.7807659 146.8289927  54.5072994 115.6337153
 146.0385471  54.4897132 115.0941653 146.5923282  55.0461287 116.3886190
 146.9487802  51.3565460 112.9469882 146.9985807  51.1915467 113.8885405
 146.8401726  50.4892719 112.5567762 135.8324061  54.0354006 100.2361971
 135.9812181  54.7189470  99.5828643 136.6390505  54.0159096 100.7511426
 144.2391565  47.3396388 114.2629188 145.1401428  47.2002853 113.9713186
 144.3139539  47.5050843 115.2027366 138.5734370  44.7163243 113.1082375
 137.7037680  45.0096809 112.8364963 138.8093850  45.3003688 113.8289638
 148.4505999  53.7762401 113.1911903 148.1590808  54.1392382 114.0275364
 147.8378131  53.0629410 113.0125235 149.6501682  51.3415281 105.7114473
 150.4848573  51.7805085 105.8752034 149.7860810  50.8653934 104.8922719
 146.6993187  48.8995016 111.6591961 147.1747309  49.0922662 110.8510813
 145.7758753  48.9554202 111.4135345 133.5876694  50.0619183 101.2423040
 133.3422736  49.1581513 101.4403250 133.7572609  50.0636334 100.3002518
 141.2773404  40.9342860 110.6247795 141.7955348  41.6703887 110.2994284
 140.9228537  41.2406853 111.4594554 132.8572342  45.7947541  98.7409201
 132.1641587  45.8691896  98.0849237 132.6124094  45.0307884  99.2630718
 141.5285998  37.3543142 106.1448692 141.8087752  36.6866331 106.7709118
 142.3136605  37.5472238 105.6323356 139.3319467  56.5302136  97.7073718
 138.7593434  57.1492323  97.2544190 139.9052260  57.0801498  98.2413640
 145.3994856  45.7760776 109.8920267 146.3512279  45.8758874 109.9132491
 145.2298307  44.9839045 110.4018351 143.4209236  42.8616359 110.0779668
 142.8259168  43.1421372 109.3826156 143.1358933  43.3510260 110.8496409
 142.5516726  56.8139286  98.8382300 143.4847400  56.7484848  99.0415176
 142.4639939  57.6495553  98.3796833 145.1804743  56.1305157  95.7986248
 145.1018375  55.7965020  96.6922006 146.0014410  56.6226924  95.7977720
 147.8782934  48.9966896 109.0062566 147.8459254  48.0582897 109.1922250
 148.4883558  49.0750933 108.2728391 139.7166265  47.8662949  95.0489771
 140.6625370  47.7369157  95.1178189 139.3380510  47.1277611  95.5259199
 148.0277423  45.7877939 109.0520850 147.5116471  45.0036396 108.8650779
 148.9117371  45.4596656 109.2167369 145.6888150  39.5318955 105.0116662
 145.4912971  39.2234043 105.8959994 146.2987855  40.2580594 105.1414592
 153.6959484  50.0582903 108.1468603 154.4262873  49.7968191 108.7076307
 153.0866430  49.3211625 108.1870671 151.7774781  48.1990765 108.7443054
 151.0507945  48.0646730 108.1359546 151.3622068  48.5067594 109.5499773
 139.6004958  51.9180695 116.5090428 140.5207967  52.0959294 116.7030474
 139.5654541  50.9736740 116.3570127 137.9009182  45.7912925  94.9844656
 136.9940638  45.4946038  95.0607369 138.1785163  45.4942743  94.1178942
 128.8187123  47.1119289 105.4343702 128.4989907  46.2584597 105.1418076
 128.2720551  47.3267867 106.1901669 132.5967030  49.8281730 109.1513209
 132.8153040  50.7598837 109.1701242 133.0092804  49.4689704 109.9368013
 139.5171248  40.3349815 101.1388897 138.7071976  39.9896900 101.5144143
 140.2055665  40.0257359 101.7276509 141.4461796  39.4127862 102.7613194
 141.9992835  39.8323315 103.4203217 141.6831883  38.4863610 102.8036150
 137.4694896  45.4014935 118.5415958 137.3691622  46.3509292 118.4728049
 137.2516438  45.0733174 117.6692028 136.6707967  42.6499860  95.1256635
 137.5327131  42.9754759  95.3852452 136.8558311  41.8631356  94.6129701
 128.6875383  50.7322200 107.4036824 127.9938854  50.3176153 106.8906778
 129.4348374  50.7742737 106.8070243 144.8240603  41.5228387 102.2691858
 144.2439272  42.1813191 101.8869910 144.5576536  40.7005732 101.8579275
 143.2744170  40.9233445 104.4713178 143.7743948  41.0349979 103.6627497
 143.9179778  40.6194497 105.1113987 137.3326166  48.8312074 117.3581019
 136.8493247  49.6312434 117.5644908 137.4187105  48.8420019 116.4048463
 130.6012125  50.6640454 105.2802839 130.5782813  50.7628141 104.3284722
 130.9112762  51.5105605 105.6020005 133.2599503  52.7216609 109.3949453
 134.2142757  52.6900551 109.3279385 133.0612027  52.2607233 110.2099679
 133.8498885  51.2917725 111.9620251 134.6691774  51.7861804 111.9855088
 134.1235693  50.3749693 111.9337818 143.6065481  43.6828477 101.3248206
 142.7191336  43.9678128 101.1068401 144.0219470  43.5222241 100.4775483
 146.9580018  43.7074998 105.0402545 147.7340408  44.1971451 105.3127162
 146.2328152  44.1333052 105.4974415 149.3952576  44.4202617 106.0976486
 149.9897067  44.1798353 105.3869794 149.4679160  43.7009748 106.7250022
 131.6149732  58.2636228 106.4119651 131.4804200  57.5036629 105.8457649
 131.1981794  58.9877128 105.9448440 142.7508695  53.4473152  95.4196226
 143.4544545  53.6523154  96.0353882 142.0271344  54.0149914  95.6845310
 143.5806505  49.1983013 101.5398496 143.5241707  49.6551565 100.7006129
 144.1334848  48.4373698 101.3621339 147.3911311  44.9872745 102.3648616
 147.1348245  44.5869381 103.1956824 146.7664179  45.7016539 102.2398755
 151.7023649  47.7268818 104.8719907 151.1423207  47.7962008 105.6451469
 151.0967152  47.5509803 104.1519404 134.7718858  59.1605545 106.6238094
 134.6551242  60.1050978 106.5216784 133.9511304  58.8579107 107.0123893
 144.6595392  53.8855681  97.4694686 145.4940996  53.4536880  97.2872161
 144.4979735  53.7137695  98.3971581 144.3141284  50.3887794  98.8351026
 144.2590088  50.2232066  97.8939470 143.6887340  51.0963827  98.9913215
 129.1033799  45.6255859 112.6612448 129.7492663  45.1154813 113.1499673
 128.8950951  46.3624540 113.2355873 141.6287192  52.6936706 118.1604588
 142.4978351  52.8677359 117.7991223 141.1493943  53.5131123 118.0380318
 137.6237410  39.8895903  98.4136344 137.6116080  40.8337743  98.5704615
 138.5160832  39.7066049  98.1195805 135.7973372  59.8133807 109.8394022
 136.7000619  59.8457418 110.1560517 135.5710742  58.8834258 109.8540358
 137.5526974  58.5664794 106.5004101 136.6022605  58.5666655 106.3868473
 137.8559460  57.8197528 105.9840135 141.4389529  36.4838680 102.6682281
 140.6721925  35.9297167 102.8138963 141.8500234  36.5560549 103.5296432
 133.4431290  42.7723476 116.7587462 134.3062752  42.4160281 116.9690787
 132.8696701  42.4337371 117.4462866 153.2879667  64.4025332 107.5649863
 153.9258077  64.2832080 106.8613203 153.1700510  65.3506176 107.6237815
 150.0969374  64.3552760 107.5011388 149.7587885  64.2393825 106.6131923
 150.9659142  63.9543925 107.4812394 145.9556189  66.2088237 103.4908279
 145.3921054  66.1178174 102.7224566 145.8408584  65.3888141 103.9710771
 150.5789157  65.5087612 113.4597593 150.5677797  65.1140410 112.5878097
 150.7409796  64.7753685 114.0531365 143.5020621  67.7039428 106.3292499
 144.2941913  67.3630253 105.9138798 143.7417271  67.8134403 107.2494652
 151.5355748  69.8759204  98.8022744 150.8843728  70.4613285  98.4156757
 152.3300111  70.4065399  98.8617781 145.4611375  66.9648342  99.2009878
 146.2342251  66.4177329  99.0622754 145.8136774  67.8292591  99.4124339
 147.2996418  68.2924724 112.4076777 147.0086284  69.1970355 112.2923444
 147.9353402  68.3341252 113.1220847 148.2252625  65.6701572 108.9978137
 148.8216197  65.4457595 108.2835100 148.2827596  64.9286318 109.6003585
 147.7977653  63.1241008  96.8328328 148.0503174  62.6022529  96.0711791
 146.8602212  62.9607153  96.9355011 152.8420936  62.1276786 104.6403071
 153.6284025  61.7096209 104.2893488 153.1059640  63.0322878 104.8084719
 153.0131013  67.5649636  99.3391728 152.3776846  67.6384263 100.0512632
 152.6828420  68.1543235  98.6610807 158.2429363  62.0652019 105.5436050
 158.9754535  61.4951236 105.7773879 157.4868719  61.6773620 105.9842555
 147.5173942  65.0269114  99.0352703 147.4010200  64.3514017  99.7033787
 147.6276202  64.5401488  98.2184856 149.8605483  64.4879261 102.7399392
 149.4963690  63.9609882 103.4512313 150.7172599  64.0977730 102.5665877
 155.7654783  55.7773593 110.0030658 155.4338108  56.6469004 109.7791873
 155.1700397  55.4609877 110.6824689 149.5010970  59.5169161  97.7360741
 149.6685372  60.3849397  98.1031212 149.3108139  59.6796442  96.8122030
 152.2586303  67.9786139 109.4026571 151.9587026  68.8811178 109.2942378
 151.9137362  67.7118323 110.2547724 145.7098784  64.4299936 105.4363275
 144.7849281  64.2976150 105.6440967 145.9583198  65.2094156 105.9333218
 155.6583447  60.4968680 107.0824008 154.7500324  60.4284088 106.7882769
 155.6071042  60.9740625 107.9105834 149.4800191  61.9726818  98.7207407
 149.3599816  62.4183869  99.5592888 148.7852779  62.3212136  98.1620945
 143.0707595  64.0733210 106.2707064 143.1999977  64.3267689 107.1846476
 142.3905047  64.6660918 105.9511719 147.2407083  74.7430460 102.3697539
 147.1631112  75.6938285 102.4486019 146.6368726  74.3976332 103.0272465
 149.7324312  61.9158325 115.0258905 148.9557646  62.4752245 115.0161770
 150.3714875  62.4015108 115.5473776 157.5245093  58.6985118 108.8601882
 156.8819473  58.9917651 108.2141677 157.0200022  58.5838038 109.6655079
 155.1785257  62.4448291  99.5487741 156.0903113  62.6775678  99.3735439
 154.6694904  63.0285335  98.9862820 147.9870685  64.7243779 114.5876872
 148.7285369  65.2628823 114.3111696 147.2807670  65.3510067 114.7448424
 153.4626024  66.8672919 113.1849034 153.8709380  66.4255330 112.4403666
 152.7403286  66.2925547 113.4383227 149.8157094  61.8045526 110.5582591
 150.6618290  62.2284939 110.7017240 149.7555732  61.1479150 111.2521154
 153.7854839  67.4274110 106.9401323 153.1563701  67.5919824 106.2377391
 153.3980501  67.8415719 107.7112287 157.6644071  68.3628548 104.2945687
 156.9795109  68.7427449 103.7442720 157.7487920  68.9723874 105.0277634
 152.9656540  59.4649894 112.2163765 152.7217472  60.2191955 111.6798040
 153.2416470  59.8435242 113.0511012 154.9195003  66.0088507 110.8941030
 155.1311898  66.6520266 110.2175411 154.8724751  65.1750823 110.4262960
 152.5221231  58.6206327 107.7977602 151.6605711  58.9187581 108.0894340
 152.5483666  58.8376726 106.8658635 149.3382801  67.1648518 104.2051408
 149.8021146  67.4436221 103.4156030 149.0739599  66.2631962 104.0224499
 146.2306882  66.7119999 107.1431171 146.8008239  67.1407268 106.5048656
 146.8214994  66.4302584 107.8415357 148.2751687  63.2871670 101.0140973
 148.9775730  63.7392714 101.4814899 147.9432315  62.6455489 101.6420866
 146.7232048  61.8783427 115.3892182 146.0930709  62.5599708 115.6227579
 146.6168136  61.7666508 114.4445321 142.0177021  61.5455223 106.3158107
 141.2276075  61.8012751 105.8398217 142.5088268  62.3603561 106.4210147
 156.0340830  68.8860462 109.0663387 156.8558274  68.4840649 108.7846069
 156.0303233  68.7828696 110.0179503 143.9691766  61.9099802 103.2741583
 143.1722930  62.0218496 103.7925079 143.7417358  62.2486454 102.4082474
 149.7997434  68.4344505 111.2224098 149.8641866  68.8964912 112.0582270
 149.0908358  67.8041870 111.3506408 140.3014724  61.7985713 108.7473097
 140.5522762  62.6832723 109.0130673 140.8374272  61.6190315 107.9748189
 149.5145452  70.1012613 101.0903078 149.3791126  70.9464148 101.5187926
 150.0555264  70.3031890 100.3269012 146.0012791  56.1804193 117.7517434
 145.6079737  55.6270391 118.4265078 146.8178932  56.4914771 118.1423951
 142.9674849  67.6188051 101.6631003 143.4799370  68.4131301 101.8136568
 143.6197562  66.9214341 101.5964605 144.7769734  70.7353807 103.7453757
 144.9536362  71.6571772 103.5574740 145.5726567  70.4212226 104.1748136
 148.9180752  57.5962072 115.3437690 149.6590466  58.1969225 115.2642153
 149.1498675  56.8539709 114.7855733 144.0622090  62.7818439 113.6215920
 143.9475605  61.8803696 113.9223019 143.2066608  63.0282136 113.2700736
 151.1413928  70.7236179 115.2203420 150.6977782  69.9372558 114.9024325
 151.8031142  70.9115330 114.5547311 145.9001049  72.2531981 109.7464099
 146.4508474  72.1249044 108.9741093 145.0612525  72.5526870 109.3958992
 153.2395166  71.0038979 113.2484822 153.2213641  71.8247860 112.7565091
 154.1615086  70.8793054 113.4734963 149.6968220  68.5183109 114.0908330
 150.2296557  67.7571397 113.8607638 149.1682301  68.2256760 114.8332485
 152.8637915  53.6243175 109.6201972 152.5202185  54.5144816 109.5441082
 153.2316878  53.4344832 108.7571557 140.9323766  65.9476705 102.4390574
 141.7698988  66.3573713 102.2224282 141.1102033  65.0076147 102.4090768
 152.8288198  63.6151786  98.1274407 152.3134821  64.3856390  98.3662794
 152.5565506  62.9416922  98.7507468 150.4135309  58.4601486 103.1859645
 149.5576905  58.0708337 103.0065284 150.8262261  58.5393447 102.3259431
 151.9434456  55.9947830 107.5851205 151.4399251  55.9577965 106.7719010
 152.2365062  56.9040572 107.6447862 148.1877341  56.0786559 106.5917387
 149.0530338  55.8829368 106.2323276 148.2554850  55.8496911 107.5186744
 157.8022472  66.3684140 100.0627580 157.0251915  66.0295300  99.6182742
 158.4813953  66.3736764  99.3882545 152.6174501  61.4878878  99.9534188
 152.3124637  61.8025027 100.8044331 153.5704943  61.5660298  99.9961521
 151.0620933  67.6469101 101.6027142 150.5342294  66.9121861 101.2900379
 150.5608436  68.4243777 101.3567110 156.0413779  65.8418122 106.7194188
 155.3837453  66.5317383 106.8074317 156.8454178  66.2314554 107.0628175
 145.7939660  58.3088767 103.9633754 146.3683412  58.0863949 103.2306947
 146.3810643  58.3777462 104.7162355 154.8519238  64.1962494 104.7698130
 155.3651119  64.8292486 105.2719840 155.5020462  63.5963690 104.4041490
 146.1209248  60.3393228  97.9829639 145.2846560  60.6767915  98.3038914
 145.9814017  60.2042208  97.0456776 148.0962328  55.1830016 102.6908823
 147.4426741  54.8679033 102.0665438 148.0542802  54.5605757 103.4168646
 149.2073533  65.4649311  94.6062115 148.3000595  65.2338565  94.8053264
 149.7044565  64.6686931  94.7936097 152.1141612  74.1746819  97.5258801
 151.4403311  74.4778515  98.1343759 152.5007434  74.9775899  97.1764258
 151.3300069  61.6711950 107.0156471 150.4122630  61.8926897 106.8578159
 151.7460212  61.7458260 106.1568178 152.1135116  63.0703366 102.1459151
 152.8606935  63.5824763 101.8366273 152.3826706  62.7487418 103.0063544
 150.3861766  65.5661906  99.1286105 149.4772986  65.2820939  99.2258575
 150.4156850  65.9860985  98.2689412 155.6181034  69.1768496 102.8977273
 155.1643361  68.3359406 102.9542463 154.9875001  69.8129894 103.2352053
 154.5613953  60.1060482 104.1277940 153.8236710  59.5937868 104.4588183
 154.8140727  59.6660863 103.3161217 154.0613973  71.0144992 103.8327091
 154.3536948  71.5750050 103.1139457 154.5712594  71.3073553 104.5880250
 154.6625581  52.8836734 104.7219709 154.9684458  52.0234097 104.4345625
 155.3878186  53.4754354 104.5218703 140.9549937  63.2867420 103.1101307
 140.7574337  62.6936781 102.3852374 140.3996601  62.9819631 103.8277246
 148.9346661  63.1790527 105.2295901 148.9895270  62.2264363 105.1538377
 148.1237863  63.3349966 105.7137199 150.0837854  67.1070650  96.4674184
 149.6457284  66.3906509  96.0079821 150.8248295  67.3346765  95.9059275
 146.8739020  61.7967587 102.9886279 146.0606886  62.0961757 103.3951472
 147.3698015  61.4023275 103.7060762 149.0247598  71.7925344 104.9220544
 148.9823777  72.0186190 103.9929076 149.9410297  71.5588718 105.0706345
 152.4713232  62.2609411 111.8201173 152.8262620  62.4880884 112.6795639
 153.1185363  62.5927788 111.1978429 158.2010969  65.3827847 102.5250502
 158.0628868  65.5729443 101.5971692 157.8447188  66.1447230 102.9818553
 146.3653095  59.3685942 108.6047514 147.0052475  59.2274701 107.9070478
 145.5330626  59.0820456 108.2286116 158.2280349  67.4504374 107.5361774
 158.6616855  67.3579663 108.3844828 158.9411929  67.4261874 106.8981790
 147.1413399  68.6688373 104.7182507 147.9353998  68.1738693 104.5165082
 146.4305091  68.1406236 104.3550212 151.9608244  71.0506468 109.0694874
 152.0145266  71.6197404 109.8372590 151.0923025  71.2208353 108.7048912
 143.4496163  62.8131454 100.7942259 142.5193751  62.7515910 101.0112222
 143.5453635  62.2907407  99.9978901 143.3681712  59.3386267 103.3820501
 143.6288529  60.2531600 103.2729662 144.1898884  58.8710710 103.5317114
 144.8406637  60.7524024 110.5519326 145.5129690  60.5441386 109.9031975
 144.0136423  60.5546110 110.1124558 150.7432209  57.3785965 112.5684987
 150.0960124  58.0775915 112.4749463 151.5133224  57.8122109 112.9361235
 154.1511007  67.6434817 115.6435540 153.9996513  67.4145369 114.7265624
 154.1415686  68.6005419 115.6566885 150.9196343  65.2166730 110.6281806
 151.8488403  65.3677890 110.4550774 150.4987373  65.3050751 109.7730453
 149.7184675  69.2417395 108.3980344 149.5795761  68.8736179 109.2706282
 148.9299271  69.7565034 108.2264302 150.3132827  74.3426491  99.7405880
 150.4884583  73.8714534 100.5551503 149.6265615  74.9692257  99.9687141
 151.2689890  68.6198997 105.7869182 150.9339723  68.5799767 106.6826832
 150.7693836  67.9543713 105.3139592 145.2434134  64.0266627 111.3121763
 145.1053932  63.2946866 111.9133302 146.1539058  63.9375527 111.0305951
 154.2049082  65.9655032  96.0606241 153.5878253  65.2401860  95.9639294
 153.7365570  66.7264392  95.7173316 147.8716435  63.7386587 110.8005442
 148.5816053  63.0979779 110.7592061 147.8285743  63.9899481 111.7231623
 155.8603214  70.6753940 113.7212022 155.8015760  69.9913160 113.0542605
 156.2622732  71.4172930 113.2692648 146.5845369  60.7251804 112.6201082
 146.0482726  60.2742543 113.2722678 145.9962077  60.8597713 111.8771546
 144.8793912  77.4915854 106.5145741 145.1190511  78.1234378 107.1924759
 144.0363109  77.1403894 106.8011100 145.9947628  60.1840456  95.1827546
 145.1177094  60.0629257  94.8189792 146.4705381  59.3926534  94.9306434
 155.8620621  68.6393524 111.9526001 154.9747400  68.3019446 112.0752400
 156.4319172  67.9076555 112.1894767 137.5149768  64.9717616 105.2769053
 138.2020808  64.6579346 104.6890068 137.3597897  65.8758980 105.0036304
 142.3184490  59.8607812 109.7054076 142.2342679  59.2533482 108.9704486
 141.4967196  60.3516830 109.7063573 149.3921774  73.2994976 108.9187245
 149.3191946  74.1049948 109.4306549 148.9499167  73.4986942 108.0935266
 149.1811554  72.5366746 102.4290066 148.3979076  73.0788426 102.5228291
 149.8804299  73.0540726 102.8284307 152.4908204  58.3461376 105.0724272
 152.9876904  57.5931338 104.7525342 151.7195185  58.3825692 104.5067481
 151.8520458  73.1981810 111.0745403 152.5648430  73.8329275 111.0021305
 151.3610486  73.2945676 110.2585405 153.5737985  67.1033063 102.6462695
 152.6394263  67.2234525 102.4767399 153.7514653  66.2005530 102.3822705
 149.0743173  60.4878759 104.7995956 148.7040960  59.9349799 105.4876862
 149.5702265  59.8836892 104.2470956 156.9610536  62.9450382 103.1812729
 157.4270988  63.7778374 103.1073032 157.4118037  62.4795364 103.8857988
 146.9032371  70.9476254 111.8950974 147.6041831  71.5812737 112.0480368
 146.4327486  71.2890985 111.1346613 155.0286767  69.2894203 100.1798881
 155.3046611  69.1750798 101.0892755 154.1591266  68.8911688 100.1411054
 154.9327199  55.3130969 107.2203630 154.0190279  55.5435196 107.3885837
 155.3620300  55.3969413 108.0717663 154.7033657  63.5020861 109.7203524
 154.0505107  63.7496769 109.0655977 155.0814037  62.6884999 109.3866002
 151.6640831  73.5380554 103.8231695 151.8463226  72.7202210 104.2859447
 152.4873817  73.7548247 103.3856585 151.9982997  72.4648739 101.0846743
 152.5270763  71.9541194 100.4716905 152.2611216  72.1491270 101.9492276
 150.7521230  64.2440672 116.2069562 150.0761867  64.1434802 116.8771937
 151.5748864  64.0879886 116.6705559 142.5000089  70.4812609 108.8282077
 143.0853526  69.7356297 108.9609981 142.3024928  70.7916565 109.7118741
 145.3538745  73.5163856 103.8444519 144.6849120  74.0009984 103.3608559
 145.2151614  73.7633077 104.7587898 137.0917744  63.0518209 107.5486520
 137.1301844  62.5181800 108.3423638 136.5858037  62.5253414 106.9297497
 149.4944013  75.5507600 110.4427177 150.0462321  75.7139221 111.2076263
 149.8350207  76.1412037 109.7707202 144.4708506  57.8982749 111.0449062
 144.5349833  58.7597580 110.6326460 144.4075627  57.2856751 110.3121421
 143.9460779  59.9705882 114.6922096 144.5732818  59.5882959 115.3059621
 143.0888698  59.7520084 115.0577789 154.3454887  70.3768857 116.2975832
 154.8894791  70.9898815 115.8030787 153.7641732  70.9348436 116.8142845
 140.7226322  61.7782311 100.6240451 141.0179763  60.8692990 100.5707505
 139.8214357  61.7570051 100.3021454 152.6312400  73.4989575 107.4290860
 152.5063540  72.6979315 106.9201805 153.2891492  73.9935769 106.9404830
 144.2520569  59.8538308 106.6068000 143.5307154  60.4674275 106.4675473
 145.0413824  60.3896073 106.5284646 154.6947309  71.2998595 109.0570410
 153.7477644  71.1803946 108.9848736 155.0430082  70.4121093 109.1396671
 147.0546882  57.1892734 112.8808652 147.5781284  57.4355031 113.6434961
 146.8359215  58.0212769 112.4611789 142.4514163  59.4596409 100.7479776
 142.1226869  58.5793788 100.5654882 142.8053534  59.4044077 101.6356166
 151.6993742  71.0951311 105.2574762 151.5518705  70.1668019 105.4382332
 152.5247236  71.1171402 104.7731837 145.5655986  59.7469379 101.1155254
 145.9052059  60.2755300 100.3933862 146.0128107  60.0849785 101.8913821
 155.3027864  71.9179870 106.3439635 156.2274411  71.7122732 106.2064086
 155.1343167  71.6696271 107.2528976 148.2599427  58.1306429 110.5658322
 147.9196248  57.3314242 110.9679002 147.5538433  58.4308140 109.9935155
 148.9115899  55.2155742 109.0185645 149.7341968  54.7416220 108.8964536
 149.1553963  55.9946225 109.5184331 147.5524134  58.2444000  99.3148547
 148.2732496  58.6225253  98.8112264 146.9289438  58.9632877  99.4183525
 151.6955256  58.9489149 100.2506879 151.9118871  59.8313787  99.9495707
 151.2149324  58.5575363  99.5212521 146.4354478  61.9074862 106.8277624
 146.2899059  62.2215165 107.7201905 145.9579681  62.5259763 106.2748522
 148.2950861  58.8977410 106.8758513 148.2812429  58.0018504 106.5390811
 149.0123289  58.9048074 107.5096799 150.1476991  59.3314751 108.9211641
 149.8894769  60.2531821 108.9195971 149.6162032  58.9345185 109.6112105
 155.0923180  72.4365538 101.7001726 155.2660058  71.8711960 100.9475579
 155.5852071  73.2366433 101.5181216 140.9100140  64.4480207 109.7665285
 140.3653608  65.2240015 109.8985559 141.7879490  64.7951011 109.6084406
 147.6987757  57.7791791 102.1446083 147.8203668  56.8508437 102.3436971
 147.4089799  57.7930477 101.2324399 150.5678947  55.4646701 105.2812803
 150.5900644  55.5286034 104.3264783 150.9847006  54.6251210 105.4753309
 156.0798353  71.7532302  98.7998624 156.7749257  72.3738995  99.0185939
 156.4221503  70.9027653  99.0751002 141.6966162  63.5750103 112.6595442
 140.9547898  63.7232738 113.2460072 141.3758906  63.8358369 111.7962191
 157.9789776  69.2032008 100.3285955 158.5041100  69.5419280  99.6035275
 157.8912128  68.2679023 100.1449090 149.6409824  73.1166081 112.4575832
 149.9496951  72.8715228 113.3298531 150.4385306  73.3212720 111.9694702
 149.6630437  75.2703991 104.6881208 149.2235427  74.7780370 105.3814065
 150.4138553  74.7276959 104.4473284 142.1422776  71.4615532 104.6905836
 142.9680795  71.1619304 104.3104480 141.7916827  70.6923154 105.1395625
 147.1104309  70.8142000 106.7603510 146.4884318  70.1512705 106.4605738
 147.7809176  70.8403132 106.0777158 140.3431381  69.3801858 105.6494770
 139.5063289  68.9524033 105.4678771 140.3155026  69.5734302 106.5865561
 147.1828836  59.2923788 116.3536016 147.2316992  60.1685911 115.9713786
 147.7251350  58.7501181 115.7807659 157.6683682  69.8364911 115.6337153
 156.8779226  69.8189050 115.0941653 157.4317036  70.3753205 116.3886190
 157.7881557  66.6857378 112.9469882 157.8379562  66.5207385 113.8885405
 157.6795480  65.8184637 112.5567762 146.6717816  69.3645923 100.2361971
 146.8205936  70.0481388  99.5828643 147.4784259  69.3451013 100.7511426
 155.0785319  62.6688306 114.2629188 155.9795182  62.5294771 113.9713186
 155.1533294  62.8342760 115.2027366 149.4128125  60.0455160 113.1082375
 148.5431434  60.3388726 112.8364963 149.6487605  60.6295605 113.8289638
 157.5386942  64.2286934 111.6591961 158.0141064  64.4214580 110.8510813
 156.6152507  64.2846120 111.4135345 144.4270449  65.3911101 101.2423040
 144.1816491  64.4873431 101.4403250 144.5966363  65.3928251 100.3002518
 152.1167158  56.2634777 110.6247795 152.6349102  56.9995804 110.2994284
 151.7622291  56.5698771 111.4594554 143.6966096  61.1239459  98.7409201
 143.0035341  61.1983814  98.0849237 143.4517848  60.3599802  99.2630718
 152.3679753  52.6835060 106.1448692 152.6481506  52.0158249 106.7709118
 153.1530360  52.8764155 105.6323356 150.1713221  71.8594054  97.7073718
 149.5987188  72.4784241  97.2544190 150.7446015  72.4093415  98.2413640
 156.2388611  61.1052694 109.8920267 157.1906034  61.2050792 109.9132491
 156.0692061  60.3130962 110.4018351 154.2602990  58.1908277 110.0779668
 153.6652923  58.4713290 109.3826156 153.9752687  58.6802178 110.8496409
 153.3910481  72.1431204  98.8382300 154.3241154  72.0776766  99.0415176
 153.3033694  72.9787471  98.3796833 156.0198498  71.4597074  95.7986248
 155.9412129  71.1256938  96.6922006 156.8408164  71.9518842  95.7977720
 150.5560020  63.1954867  95.0489771 151.5019124  63.0661075  95.1178189
 150.1774265  62.4569528  95.5259199 156.5281904  54.8610873 105.0116662
 156.3306725  54.5525961 105.8959994 157.1381610  55.5872511 105.1414592
 150.4398712  67.2472613 116.5090428 151.3601722  67.4251212 116.7030474
 150.4048295  66.3028658 116.3570127 148.7402937  61.1204843  94.9844656
 147.8334392  60.8237956  95.0607369 149.0178918  60.8234661  94.1178942
 139.6580877  62.4411206 105.4343702 139.3383661  61.5876515 105.1418076
 139.1114305  62.6559784 106.1901669 143.4360785  65.1573647 109.1513209
 143.6546794  66.0890755 109.1701242 143.8486559  64.7981622 109.9368013
 150.3565002  55.6641733 101.1388897 149.5465731  55.3188818 101.5144143
 151.0449419  55.3549276 101.7276509 152.2855551  54.7419779 102.7613194
 152.8386589  55.1615233 103.4203217 152.5225637  53.8155528 102.8036150
 148.3088650  60.7306853 118.5415958 148.2085377  61.6801210 118.4728049
 148.0910192  60.4025092 117.6692028 147.5101721  57.9791778  95.1256635
 148.3720885  58.3046676  95.3852452 147.6952066  57.1923274  94.6129701
 139.5269137  66.0614118 107.4036824 138.8332609  65.6468071 106.8906778
 140.2742128  66.1034654 106.8070243 155.6634358  56.8520305 102.2691858
 155.0833027  57.5105109 101.8869910 155.3970291  56.0297649 101.8579275
 154.1137924  56.2525362 104.4713178 154.6137703  56.3641897 103.6627497
 154.7573532  55.9486415 105.1113987 148.1719920  64.1603992 117.3581019
 147.6887002  64.9604352 117.5644908 148.2580859  64.1711937 116.4048463
 141.4405880  65.9932372 105.2802839 141.4176568  66.0920059 104.3284722
 141.7506516  66.8397522 105.6020005 144.0993258  68.0508527 109.3949453
 145.0536511  68.0192469 109.3279385 143.9005781  67.5899150 110.2099679
 144.6892640  66.6209643 111.9620251 145.5085529  67.1153721 111.9855088
 144.9629447  65.7041611 111.9337818 154.4459236  59.0120395 101.3248206
 153.5585091  59.2970046 101.1068401 154.8613225  58.8514158 100.4775483
 157.7973772  59.0366916 105.0402545 158.5734162  59.5263368 105.3127162
 157.0721906  59.4624970 105.4974415 142.4543486  73.5928146 106.4119651
 142.3197954  72.8328547 105.8457649 142.0375549  74.3169046 105.9448440
 153.5902449  68.7765070  95.4196226 154.2938299  68.9815072  96.0353882
 152.8665098  69.3441832  95.6845310 154.4200260  64.5274931 101.5398496
 154.3635461  64.9843482 100.7006129 154.9728602  63.7665616 101.3621339
 158.2305066  60.3164663 102.3648616 157.9742000  59.9161298 103.1956824
 157.6057934  61.0308457 102.2398755 145.6112612  74.4897463 106.6238094
 145.4944996  75.4342896 106.5216784 144.7905058  74.1871025 107.0123893
 155.4989147  69.2147599  97.4694686 156.3334751  68.7828797  97.2872161
 155.3373490  69.0429613  98.3971581 155.1535039  65.7179712  98.8351026
 155.0983843  65.5523984  97.8939470 154.5281094  66.4255745  98.9913215
 139.9427554  60.9547777 112.6612448 140.5886418  60.4446731 113.1499673
 139.7344705  61.6916458 113.2355873 152.4680946  68.0228624 118.1604588
 153.3372106  68.1969276 117.7991223 151.9887698  68.8423041 118.0380318
 148.4631164  55.2187821  98.4136344 148.4509834  56.1629661  98.5704615
 149.3554586  55.0357967  98.1195805 146.6367126  75.1425725 109.8394022
 147.5394373  75.1749335 110.1560517 146.4104496  74.2126176 109.8540358
 148.3920728  73.8956712 106.5004101 147.4416359  73.8958573 106.3868473
 148.6953214  73.1489446 105.9840135 152.2783284  51.8130598 102.6682281
 151.5115680  51.2589084 102.8138963 152.6893989  51.8852467 103.5296432
 144.2825045  58.1015394 116.7587462 145.1456506  57.7452198 116.9690787
 143.7090456  57.7629288 117.4462866 156.7949944  81.5380154 103.4908279
 156.2314809  81.4470091 102.7224566 156.6802339  80.7180059 103.9710771
 154.3414376  83.0331346 106.3292499 155.1335668  82.6922171 105.9138798
 154.5811026  83.1426321 107.2494652 156.3005130  82.2940259  99.2009878
 157.0736006  81.7469246  99.0622754 156.6530529  83.1584509  99.4124339
 158.1390172  83.6216642 112.4076777 157.8480038  84.5262272 112.2923444
 158.7747157  83.6633169 113.1220847 158.6371408  78.4532925  96.8328328
 158.8896928  77.9314447  96.0711791 157.6995967  78.2899071  96.9355011
 158.3567696  80.3561031  99.0352703 158.2403954  79.6805935  99.7033787
 158.4669956  79.8693405  98.2184856 156.5492539  79.7591854 105.4363275
 155.6243035  79.6268068 105.6440967 156.7976952  80.5386073 105.9333218
 153.9101350  79.4025127 106.2707064 154.0393731  79.6559606 107.1846476
 153.2298801  79.9952835 105.9511719 158.0800837  90.0722377 102.3697539
 158.0024867  91.0230203 102.4486019 157.4762481  89.7268250 103.0272465
 157.0700636  82.0411917 107.1431171 157.6401994  82.4699185 106.5048656
 157.6608748  81.7594502 107.8415357 157.5625803  77.2075344 115.3892182
 156.9324464  77.8891625 115.6227579 157.4561891  77.0958426 114.4445321
 152.8570775  76.8747140 106.3158107 152.0669829  77.1304669 105.8398217
 153.3482023  77.6895478 106.4210147 154.8085521  77.2391720 103.2741583
 154.0116684  77.3510414 103.7925079 154.5811113  77.5778372 102.4082474
 151.1408478  77.1277631 108.7473097 151.3916517  78.0124641 109.0130673
 151.6768027  76.9482232 107.9748189 156.8406546  71.5096110 117.7517434
 156.4473491  70.9562309 118.4265078 157.6572686  71.8206689 118.1423951
 153.8068603  82.9479968 101.6631003 154.3193124  83.7423219 101.8136568
 154.4591316  82.2506259 101.5964605 155.6163488  86.0645725 103.7453757
 155.7930116  86.9863689 103.5574740 156.4120322  85.7504144 104.1748136
 154.9015845  78.1110357 113.6215920 154.7869360  77.2095614 113.9223019
 154.0460362  78.3574053 113.2700736 156.7394804  87.5823899 109.7464099
 157.2902229  87.4540962 108.9741093 155.9006280  87.8818788 109.3958992
 151.7717520  81.2768623 102.4390574 152.6092742  81.6865631 102.2224282
 151.9495788  80.3368065 102.4090768 156.6333415  73.6380685 103.9633754
 157.2077167  73.4155867 103.2306947 157.2204397  73.7069380 104.7162355
 156.9603002  75.6685146  97.9829639 156.1240314  76.0059833  98.3038914
 156.8207772  75.5334126  97.0456776 158.9356083  70.5121934 102.6908823
 158.2820495  70.1970951 102.0665438 158.8936557  69.8897674 103.4168646
 151.7943691  78.6159338 103.1101307 151.5968091  78.0228699 102.3852374
 151.2390355  78.3111548 103.8277246 157.7132775  77.1259504 102.9886279
 156.9000640  77.4253675 103.3951472 158.2091769  76.7315193 103.7060762
 157.2046850  74.6977860 108.6047514 157.8446229  74.5566619 107.9070478
 156.3724380  74.4112373 108.2286116 157.9807154  83.9980290 104.7182507
 158.7747752  83.5030610 104.5165082 157.2698846  83.4698153 104.3550212
 154.2889917  78.1423372 100.7942259 153.3587505  78.0807827 101.0112222
 154.3847389  77.6199325  99.9978901 154.2075466  74.6678185 103.3820501
 154.4682283  75.5823518 103.2729662 155.0292638  74.2002627 103.5317114
 155.6800391  76.0815942 110.5519326 156.3523445  75.8733304 109.9031975
 154.8530178  75.8838028 110.1124558 156.0827889  79.3558545 111.3121763
 155.9447687  78.6238784 111.9133302 156.9932812  79.2667445 111.0305951
 157.4239123  76.0543722 112.6201082 156.8876480  75.6034461 113.2722678
 156.8355832  76.1889631 111.8771546 155.7187667  92.8207771 106.5145741
 155.9584265  93.4526296 107.1924759 154.8756863  92.4695811 106.8011100
 156.8341382  75.5132374  95.1827546 155.9570849  75.3921174  94.8189792
 157.3099135  74.7218452  94.9306434 148.3543522  80.3009533 105.2769053
 149.0414562  79.9871263 104.6890068 148.1991651  81.2050898 105.0036304
 153.1578245  75.1899730 109.7054076 153.0736433  74.5825399 108.9704486
 152.3360951  75.6808748 109.7063573 157.7426126  86.2768171 111.8950974
 158.4435585  86.9104654 112.0480368 157.2721241  86.6182903 111.1346613
 153.3393844  85.8104526 108.8282077 153.9247281  85.0648214 108.9609981
 153.1418682  86.1208483 109.7118741 156.1932499  88.8455774 103.8444519
 155.5242874  89.3301901 103.3608559 156.0545369  89.0924994 104.7587898
 147.9311499  78.3810127 107.5486520 147.9695598  77.8473717 108.3423638
 147.4251791  77.8545332 106.9297497 155.3102261  73.2274667 111.0449062
 155.3743587  74.0889498 110.6326460 155.2469381  72.6148669 110.3121421
 154.7854533  75.2997800 114.6922096 155.4126572  74.9174877 115.3059621
 153.9282452  75.0812002 115.0577789 151.5620076  77.1074229 100.6240451
 151.8573517  76.1984907 100.5707505 150.6608112  77.0861968 100.3021454
 155.0914323  75.1830225 106.6068000 154.3700909  75.7966193 106.4675473
 155.8807579  75.7187990 106.5284646 157.8940637  72.5184652 112.8808652
 158.4175038  72.7646948 113.6434961 157.6752970  73.3504687 112.4611789
 153.2907918  74.7888326 100.7479776 152.9620624  73.9085705 100.5654882
 153.6447288  74.7335995 101.6356166 156.4049741  75.0761296 101.1155254
 156.7445813  75.6047218 100.3933862 156.8521861  75.4141702 101.8913821
 159.0993182  73.4598347 110.5658322 158.7590002  72.6606160 110.9679002
 158.3932188  73.7600058 109.9935155 158.3917888  73.5735918  99.3148547
 159.1126251  73.9517171  98.8112264 157.7683192  74.2924795  99.4183525
 157.2748232  77.2366780 106.8277624 157.1292813  77.5507083 107.7201905
 156.7973436  77.8551680 106.2748522 151.7493894  79.7772124 109.7665285
 151.2047363  80.5531932 109.8985559 152.6273244  80.1242929 109.6084406
 158.5381511  73.1083708 102.1446083 158.6597422  72.1800354 102.3436971
 158.2483553  73.1222394 101.2324399 152.5359916  78.9042021 112.6595442
 151.7941652  79.0524656 113.2460072 152.2152661  79.1650286 111.7962191
 152.9816530  86.7907449 104.6905836 153.8074550  86.4911221 104.3104480
 152.6310582  86.0215072 105.1395625 157.9498063  86.1433918 106.7603510
 157.3278072  85.4804623 106.4605738 158.6202930  86.1695050 106.0777158
 151.1825135  84.7093776 105.6494770 150.3457043  84.2815950 105.4678771
 151.1548780  84.9026219 106.5865561 158.0222591  74.6215706 116.3536016
 158.0710746  75.4977828 115.9713786 158.5645105  74.0793099 115.7807659
 157.5111570  84.6937841 100.2361971 157.6599690  85.3773305  99.5828643
 158.3178014  84.6742931 100.7511426 155.2664203  80.7203019 101.2423040
 155.0210245  79.8165349 101.4403250 155.4360118  80.7220169 100.3002518
 154.5359851  76.4531376  98.7409201 153.8429096  76.5275731  98.0849237
 154.2911602  75.6891720  99.2630718 150.4974632  77.7703124 105.4343702
 150.1777416  76.9168432 105.1418076 149.9508060  77.9851702 106.1901669
 154.2754539  80.4865565 109.1513209 154.4940549  81.4182673 109.1701242
 154.6880313  80.1273539 109.9368013 159.1482404  76.0598771 118.5415958
 159.0479131  77.0093128 118.4728049 158.9303947  75.7317010 117.6692028
 158.3495476  73.3083696  95.1256635 159.2114640  73.6338594  95.3852452
 158.5345820  72.5215192  94.6129701 150.3662892  81.3906035 107.4036824
 149.6726363  80.9759988 106.8906778 151.1135883  81.4326572 106.8070243
 159.0113675  79.4895910 117.3581019 158.5280756  80.2896270 117.5644908
 159.0974614  79.5003854 116.4048463 152.2799634  81.3224289 105.2802839
 152.2570322  81.4211977 104.3284722 152.5900271  82.1689440 105.6020005
 154.9387012  83.3800444 109.3949453 155.8930266  83.3484387 109.3279385
 154.7399536  82.9191068 110.2099679 155.5286394  81.9501560 111.9620251
 156.3479283  82.4445639 111.9855088 155.8023202  81.0333528 111.9337818
 153.2937241  88.9220064 106.4119651 153.1591709  88.1620465 105.8457649
 152.8769303  89.6460964 105.9448440 156.4506367  89.8189381 106.6238094
 156.3338751  90.7634813 106.5216784 155.6298813  89.5162942 107.0123893
 150.7821308  76.2839694 112.6612448 151.4280172  75.7738648 113.1499673
 150.5738460  77.0208376 113.2355873 157.4760881  90.4717643 109.8394022
 158.3788128  90.5041253 110.1560517 157.2498251  89.5418094 109.8540358
 155.1218799  73.4307311 116.7587462 155.9850261  73.0744116 116.9690787
 154.5484210  73.0921206 117.4462866 158.7705253  93.7102044 107.5486520
 158.8089353  93.1765635 108.3423638 158.2645546  93.1837250 106.9297497
 112.3612650   8.5102223  93.2391047 112.6009248   9.1420747  93.9170066
 111.5181847   8.1590263  93.5256406 124.2768682  12.5566524  90.2153585
 123.7133547  12.4656461  89.4469873 124.1621077  11.7366428  90.6956078
 121.8233114  14.0517716  93.0537806 122.6154405  13.7108540  92.6384105
 122.0629764  14.1612691  93.9739959 129.8568240  16.2237492  85.5268050
 129.2056220  16.8091572  85.1402064 130.6512603  16.7543687  85.5863088
 123.7823867  13.3126629  85.9255185 124.5554743  12.7655616  85.7868060
 124.1349266  14.1770878  86.1369646 125.6208910  14.6403011  99.1322084
 125.3298776  15.5448642  99.0168750 126.2565894  14.6819539  99.8466153
 131.3343505  13.9127924  86.0637034 130.6989338  13.9862550  86.7757939
 131.0040912  14.5021523  85.3856114 130.5798795  14.3264427  96.1271878
 130.2799518  15.2289465  96.0187685 130.2349855  14.0596610  96.9793030
 121.3920088  10.4211497  92.9952371 121.5212469  10.6745976  93.9091783
 120.7117539  11.0139205  92.6757026 125.5619575  21.0908747  89.0942845
 125.4843605  22.0416572  89.1731326 124.9581219  20.7454620  89.7517772
 127.6595293  13.5126805  90.9296715 128.1233639  13.7914508  90.1401337
 127.3952091  12.6110250  90.7469805 124.5519374  13.0598287  93.8676478
 125.1220731  13.4885555  93.2293962 125.1427486  12.7780871  94.5660664
 128.1209926  14.7822792  97.9469405 128.1854359  15.2443200  98.7827576
 127.4120850  14.1520157  98.0751714 127.8357944  16.4490900  87.8148385
 127.7003619  17.2942436  88.2433233 128.3767756  16.6510178  87.0514319
 121.2887341  13.9666338  88.3876310 121.8011862  14.7609588  88.5381875
 121.9410054  13.2692628  88.3209912 123.0982226  17.0832094  90.4699063
 123.2748854  18.0050059  90.2820047 123.8939059  16.7690513  90.8993443
 129.4626420  17.0714466 101.9448727 129.0190274  16.2850845 101.6269632
 130.1243634  17.2593617 101.2792618 124.2213541  18.6010268  96.4709406
 124.7720967  18.4727331  95.6986399 123.3825017  18.9005157  96.1204298
 131.5607658  17.3517266  99.9730128 131.5426134  18.1726147  99.4810397
 132.4827578  17.2271342 100.1980269 128.0180712  14.8661396 100.8153637
 128.5509049  14.1049684 100.5852945 127.4894794  14.5735048 101.5577791
 119.2536258  12.2954992  89.1635881 120.0911480  12.7052001  88.9469588
 119.4314526  11.3554434  89.1336074 129.3833425  13.9947388  88.3272449
 128.8554787  13.2600148  88.0145686 128.8820928  14.7722065  88.0812417
 130.4354104  20.5225106  84.2504108 129.7615803  20.8256803  84.8589066
 130.8219926  21.3254186  83.9009565 133.9393526  15.5246783  89.6222579
 133.4855853  14.6837693  89.6787770 133.3087493  16.1608181  89.9597360
 132.3826465  17.3623280  90.5572398 132.6749440  17.9228337  89.8384763
 132.8925086  17.6551841  91.3125557 128.4050347  13.4548937  83.1919490
 127.9669776  12.7384796  82.7325128 129.1460787  13.6825052  82.6304582
 127.3460091  18.1403631  91.6465851 127.3036269  18.3664477  90.7174383
 128.2622789  17.9067005  91.7951652 125.4625891  15.0166660  91.4427813
 126.2566490  14.5216980  91.2410388 124.7517584  14.4884523  91.0795519
 130.2820736  17.3984755  95.7940181 130.3357758  17.9675692  96.5617897
 129.4135517  17.5686640  95.4294218 128.0397167  15.5895682  95.1225651
 127.9008253  15.2214466  95.9951589 127.2511764  16.1043321  94.9509608
 128.6345319  20.6904778  86.4651187 128.8097075  20.2192821  87.2796810
 127.9478107  21.3170544  86.6932448 129.5902383  14.9677284  92.5114488
 129.2552215  14.9278054  93.4072138 129.0906328  14.3022000  92.0384899
 134.1815706  17.0232227 100.4457328 134.1228252  16.3391447  99.7787911
 134.5835224  17.7651217  99.9937954 123.2006405  23.8394141  93.2391047
 123.4403003  24.4712665  93.9170066 122.3575601  23.4882181  93.5256406
 115.8362260  11.3195903  92.0014359 116.5233300  11.0057633  91.4135375
 115.6810389  12.2237267  91.7281611 127.7134267  19.6473263  95.6432551
 127.6404438  20.4528235  96.1551856 127.2711660  19.8465229  94.8180573
 127.5024046  18.8845033  89.1535373 126.7191568  19.4266714  89.2473597
 128.2016791  19.4019013  89.5529614 130.1732950  19.5460097  97.7990710
 130.8860922  20.1807562  97.7266611 129.6822979  19.6423963  96.9830712
 125.2244864  17.2954541  98.6196281 125.9254323  17.9291024  98.7725675
 124.7539979  17.6369272  97.8591920 133.3499259  15.6372491  86.9044188
 133.6259103  15.5229085  87.8138062 132.4803758  15.2389976  86.8656361
 129.9853323  19.8858842  90.5477001 130.1675718  19.0680498  91.0104754
 130.8086309  20.1026534  90.1101891 130.3195489  18.8127027  87.8092050
 130.8483255  18.3019481  87.1962212 130.5823708  18.4969557  88.6737583
 120.8212582  16.8290896  95.5527383 121.4066018  16.0834584  95.6855288
 120.6237420  17.1394853  96.4364047 123.6751237  19.8642143  90.5689826
 123.0061612  20.3488271  90.0853866 123.5364107  20.1111364  91.4833204
 115.4130236   9.3996496  94.2731827 115.4514336   8.8660087  95.0668945
 114.9070529   8.8731702  93.6542804 127.8156505  21.8985887  97.1672484
 128.3674813  22.0617508  97.9321569 128.1562699  22.4890325  96.4952509
 132.6667380  16.7247144 103.0221139 133.2107284  17.3377103 102.5276093
 132.0854225  17.2826723 103.5388152 130.9524893  19.8467862  94.1536166
 130.8276032  19.0457602  93.6447112 131.6103984  20.3414056  93.6650136
 133.0159801  17.6476883  95.7815716 132.0690137  17.5282234  95.7094043
 133.3642574  16.7599381  95.8641978 130.0206234  17.4429599  91.9820069
 129.8731197  16.5146306  92.1627639 130.8459728  17.4649689  91.4977144
 133.6240356  18.2658157  93.0684941 134.5486904  18.0601019  92.9309392
 133.4555660  18.0174559  93.9774283 133.4135672  18.7843825  88.4247033
 133.5872550  18.2190247  87.6720885 133.9064564  19.5844720  88.2426523
 119.2312632  10.7958494  96.4910592 118.6866100  11.5718302  96.6230866
 120.1091982  11.1429298  96.3329713 134.4010845  18.1010589  85.5243931
 135.0961750  18.7217282  85.7431246 134.7433995  17.2505941  85.7996309
 120.0178654   9.9228390  99.3840748 119.2760390  10.0711026  99.9705379
 119.6971398  10.1836656  98.5207498 127.9622317  19.4644369  99.1821138
 128.2709443  19.2193515 100.0543838 128.7597799  19.6691007  98.6940009
 127.9842929  21.6182278  91.4126515 127.5447919  21.1258657  92.1059372
 128.7351046  21.0755246  91.1718590 120.4635268  17.8093819  91.4151143
 121.2893288  17.5097591  91.0349787 120.1129320  17.0401441  91.8640932
 125.4316801  17.1620287  93.4848817 124.8096810  16.4990992  93.1851045
 126.1021668  17.1881419  92.8022464 118.6643873  15.7280145  92.3740077
 117.8275781  15.3002320  92.1924078 118.6367518  15.9212589  93.3110868
 135.9896174  16.1843198 102.3582460 135.1991718  16.1667337 101.8186959
 135.7529529  16.7231492 103.1131496 124.9930308  15.7124211  86.9607277
 125.1418428  16.3959675  86.3073950 125.7996751  15.6929301  87.4756733
 122.7482941  11.7389388  87.9668346 122.5028983  10.8351718  88.1648556
 122.9178855  11.7406539  87.0247824 128.4925713  18.2072341  84.4319025
 127.9199680  18.8262528  83.9789497 129.0658507  18.7571703  84.9658947
 131.7122973  18.4909491  85.5627607 132.6453646  18.4255053  85.7660482
 131.6246186  19.3265758  85.1042140 134.3410990  17.8075361  82.5231555
 134.2624621  17.4735225  83.4167312 135.1620657  18.2997129  82.5223027
 121.7573277  11.5051935  95.8758515 121.9759287  12.4369042  95.8946549
 122.1699051  11.1459909  96.6613319 117.8481629  12.4092405  94.1282130
 117.1545101  11.9946358  93.6152085 118.5954620  12.4512942  93.5315549
 119.7618372  12.3410659  92.0048145 119.7389060  12.4398346  91.0530028
 120.0719008  13.1875810  92.3265311 122.4205750  14.3986814  96.1194760
 123.3749003  14.3670756  96.0524691 122.2218273  13.9377438  96.9344986
 123.0105132  12.9687930  98.6865557 123.8298021  13.4632009  98.7100395
 123.2841940  12.0519898  98.6583125 120.7755979  19.9406433  93.1364958
 120.6410447  19.1806834  92.5702956 120.3588041  20.6647333  92.6693746
 131.9114942  15.1243357  82.1441533 132.6150792  15.3293359  82.7599188
 131.1877590  15.6920119  82.4090616 123.9325104  20.8375750  93.3483400
 123.8157489  21.7821183  93.2462090 123.1117551  20.5349312  93.7369199
 133.8201639  15.5625886  84.1939993 134.6547243  15.1307085  84.0117468
 133.6585982  15.3907900  85.1216887 130.7893438  14.3706911 104.8849895
 131.6584598  14.5447564 104.5236530 130.3100190  15.1901328 104.7625624
 124.9579619  21.4904012  96.5639329 125.8606865  21.5227623  96.8805824
 124.7316989  20.5604463  96.5785664 126.7133221  20.2434999  93.2249407
 125.7628852  20.2436860  93.1113780 127.0165707  19.4967733  92.7085442
 142.4485914  26.0795537  94.2895170 143.0864324  25.9602285  93.5858510
 142.3306757  27.0276381  94.3483122 139.2575620  26.0322965  94.2256694
 138.9194132  25.9164030  93.3377229 140.1265389  25.6314130  94.2057700
 135.1162436  27.8858442  90.2153585 134.5527301  27.7948379  89.4469873
 135.0014831  27.0658346  90.6956078 139.7395403  27.1857817 100.1842900
 139.7284044  26.7910615  99.3123404 139.9016043  26.4523890 100.7776671
 132.6626868  29.3809633  93.0537806 133.4548160  29.0400458  92.6384105
 132.9023518  29.4904608  93.9739959 140.6961995  31.5529409  85.5268050
 140.0449975  32.1383490  85.1402064 141.4906358  32.0835604  85.5863088
 134.6217622  28.6418547  85.9255185 135.3948498  28.0947534  85.7868060
 134.9743021  29.5062796  86.1369646 136.4602665  29.9694929  99.1322084
 136.1692531  30.8740560  99.0168750 137.0959649  30.0111456  99.8466153
 137.3858871  27.3471777  95.7223443 137.9822444  27.1227800  95.0080406
 137.4433843  26.6056523  96.3248891 136.9583900  24.8011213  83.5573634
 137.2109420  24.2792734  82.7957097 136.0208459  24.6377358  83.6600318
 142.0027183  23.8046991  91.3648378 142.7890272  23.3866414  91.0138795
 142.2665887  24.7093083  91.5330026 142.1737260  29.2419841  86.0637034
 141.5383093  29.3154468  86.7757939 141.8434666  29.8313440  85.3856114
 147.4035610  23.7422224  92.2681356 148.1360782  23.1721441  92.5019186
 146.6474965  23.3543825  92.7087862 136.6780189  26.7039319  85.7598009
 136.5616447  26.0284222  86.4279094 136.7882448  26.2171693  84.9430162
 139.0211729  26.1649466  89.4644699 138.6569937  25.6380087  90.1757620
 139.8778845  25.7747935  89.2911184 138.6617216  21.1939365  84.4606047
 138.8291619  22.0619602  84.8276518 138.4714386  21.3566647  83.5367336
 141.4192550  29.6556344  96.1271878 141.1193273  30.5581383  96.0187685
 141.0743609  29.3888528  96.9793030 134.8705031  26.1070141  92.1608582
 133.9455528  25.9746355  92.3686274 135.1189444  26.8864360  92.6578524
 144.8189693  22.1738885  93.8069315 143.9106571  22.1054293  93.5128076
 144.7677289  22.6510829  94.6351140 138.6406437  23.6497023  85.4452714
 138.5206063  24.0954074  86.2838194 137.9459026  23.9982341  84.8866252
 132.2313842  25.7503415  92.9952371 132.3606223  26.0037894  93.9091783
 131.5511293  26.3431123  92.6757026 136.4013329  36.4200665  89.0942845
 136.3237359  37.3708490  89.1731326 135.7974973  36.0746537  89.7517772
 138.8930559  23.5928530 101.7504212 138.1163893  24.1522450 101.7407077
 139.5321122  24.0785313 102.2719082 146.6851340  20.3755323  95.5847189
 146.0425720  20.6687856  94.9386983 146.1806268  20.2608243  96.3900385
 144.3391503  24.1218496  86.2733048 145.2509360  24.3545883  86.0980746
 143.8301151  24.7055540  85.7108127 137.1476931  26.4013983 101.3122179
 137.8891616  26.9399027 101.0357003 136.4413917  27.0280272 101.4693731
 142.6232271  28.5443124  99.9094341 143.0315627  28.1025534  99.1648973
 141.9009533  27.9695751 100.1628534 138.9763341  23.4815731  97.2827898
 139.8224536  23.9055144  97.4262547 138.9161979  22.8249355  97.9766461
 142.9461086  29.1044315  93.6646629 142.3169948  29.2690029  92.9622697
 142.5586748  29.5185924  94.4357594 146.8250318  30.0398752  91.0190993
 146.1401356  30.4197654  90.4688027 146.9094167  30.6494079  91.7522941
 142.1262787  21.1420099  98.9409071 141.8823718  21.8962160  98.4043347
 142.4022717  21.5205447  99.7756318 144.0801249  27.6858711  97.6186337
 144.2918145  28.3290471  96.9420718 144.0330998  26.8521028  97.1508267
 141.6827478  20.2976532  94.5222909 140.8211957  20.5957786  94.8139647
 141.7089913  20.5146931  93.5903942 138.4989048  28.8418723  90.9296715
 138.9627393  29.1206426  90.1401337 138.2345846  27.9402167  90.7469805
 135.3913129  28.3890204  93.8676478 135.9614486  28.8177473  93.2293962
 135.9821241  28.1072789  94.5660664 137.4357934  24.9641875  87.7386280
 138.1381977  25.4162919  88.2060206 137.1038562  24.3225694  88.3666173
 135.8838295  23.5553632 102.1137489 135.2536956  24.2369913 102.3472886
 135.7774383  23.4436713 101.1690627 131.1783268  23.2225428  93.0403413
 130.3882322  23.4782956  92.5643524 131.6694515  24.0373766  93.1455454
 145.1947077  30.5630667  95.7908694 146.0164521  30.1610854  95.5091376
 145.1909480  30.4598901  96.7424810 133.1298013  23.5870007  89.9986890
 132.3329176  23.6988701  90.5170386 132.9023605  23.9256659  89.1327781
 138.9603681  30.1114710  97.9469405 139.0248113  30.5735117  98.7827576
 138.2514605  29.4812075  98.0751714 129.4620971  23.4755918  95.4718404
 129.7129009  24.3602928  95.7375980 129.9980519  23.2960520  94.6993496
 153.2853070  26.9069415  92.1393666 152.5316779  26.3376813  91.9837670
 153.4200611  26.8732080  93.0864300 138.6751698  31.7782818  87.8148385
 138.5397373  32.6234353  88.2433233 139.2161511  31.9802095  87.0514319
 135.1619038  17.8574398 104.4762740 134.7685984  17.3040596 105.1510384
 135.9785178  18.1684976 104.8669258 132.1281096  29.2958256  88.3876310
 132.6405616  30.0901506  88.5381875 132.7803809  28.5984546  88.3209912
 133.9375980  32.4124012  90.4699063 134.1142609  33.3341977  90.2820047
 134.7332814  32.0982431  90.8993443 138.0786999  19.2732277 102.0682997
 138.8196712  19.8739430 101.9887459 138.3104922  18.5309914 101.5101039
 133.2228337  24.4588644 100.3461226 133.1081852  23.5573901 100.6468325
 132.3672855  24.7052341  99.9946043 140.3020175  32.4006384 101.9448727
 139.8584029  31.6142763 101.6269632 140.9637388  32.5885535 101.2792618
 135.0607296  33.9302186  96.4709406 135.6114721  33.8019249  95.6986399
 134.2218772  34.2297075  96.1204298 142.4001413  32.6809184  99.9730128
 142.3819888  33.5018065  99.4810397 143.3221333  32.5563259 100.1980269
 138.8574467  30.1953314 100.8153637 139.3902804  29.4341602 100.5852945
 138.3288548  29.9026965 101.5577791 130.0930013  27.6246910  89.1635881
 130.9305235  28.0343918  88.9469588 130.2708280  26.6846352  89.1336074
 141.9894445  25.2921991  84.8519714 141.4741068  26.0626595  85.0908101
 141.7171753  24.6187127  85.4752775 139.5741556  20.1371691  89.9104952
 138.7183152  19.7478542  89.7310591 139.9868507  20.2163652  89.0504737
 141.1040702  17.6718035  94.3096512 140.6005498  17.6348170  93.4964317
 141.3971309  18.5810777  94.3693168 137.3483588  17.7556764  93.3162693
 138.2136585  17.5599573  92.9568583 137.4161097  17.5267116  94.2432050
 146.9628719  28.0454345  86.7872887 146.1858162  27.7065505  86.3428049
 147.6420200  28.0506968  86.1127852 141.7780748  23.1649083  86.6779495
 141.4730883  23.4795232  87.5289638 142.7311190  23.2430503  86.7206828
 140.2227180  29.3239306  88.3272449 139.6948541  28.5892066  88.0145686
 139.7214682  30.1013982  88.0812417 145.2020026  27.5188327  93.4439495
 144.5443700  28.2087588  93.5319624 146.0060425  27.9084758  93.7873481
 134.9545907  19.9858972  90.6879060 135.5289659  19.7634154  89.9552253
 135.5416890  20.0547667  91.4407662 144.0125484  25.8732699  91.4943437
 144.5257366  26.5062691  91.9965146 144.6626708  25.2733895  91.1286797
 135.2815494  22.0163433  84.7074945 134.4452807  22.3538120  85.0284220
 135.1420264  21.8812413  83.7702082 137.2568575  16.8600221  89.4154130
 136.6032987  16.5449238  88.7910744 137.2149049  16.2375962  90.1413953
 138.3679780  27.1419516  81.3307422 137.4606842  26.9108770  81.5298571
 138.8650812  26.3457136  81.5181403 141.2747859  35.8517024  84.2504108
 140.6009557  36.1548720  84.8589066 141.6613681  36.6546104  83.9009565
 140.4906315  23.3482155  93.7401777 139.5728877  23.5697102  93.5823465
 140.9066459  23.4228465  92.8813485 141.2741363  24.7473570  88.8704458
 142.0213182  25.2594968  88.5611580 141.5432953  24.4257623  89.7308851
 139.5468013  27.2432111  85.8531412 138.6379233  26.9591144  85.9503882
 139.5763097  27.6631190  84.9934719 144.7787281  30.8538701  89.6222579
 144.3249608  30.0129611  89.6787770 144.1481247  31.4900099  89.9597360
 143.7220200  21.7830687  90.8523247 142.9842957  21.2708073  91.1833489
 143.9746974  21.3431068  90.0406524 143.2220220  32.6915197  90.5572398
 143.5143194  33.2520254  89.8384763 143.7318840  32.9843758  91.3125557
 130.1156184  24.9637625  89.8346614 129.9180583  24.3706986  89.1097681
 129.5602848  24.6589835  90.5522553 138.0952907  24.8560732  91.9541207
 138.1501517  23.9034568  91.8783684 137.2844109  25.0120171  92.4382506
 139.2444101  28.7840855  83.1919490 138.8063531  28.0676714  82.7325128
 139.9854542  29.0116970  82.6304582 136.0345267  23.4737792  89.7131586
 135.2213133  23.7731962  90.1196778 136.5304261  23.0793480  90.4306068
 138.1853845  33.4695548  91.6465851 138.1430024  33.6956395  90.7174383
 139.1016544  33.2358923  91.7951652 141.6319479  23.9379616  98.5446480
 141.9868867  24.1651089  99.4040946 142.2791610  24.2697993  97.9223735
 147.3617216  27.0598052  89.2495809 147.2235114  27.2499648  88.3216998
 147.0053435  27.8217435  89.7063860 135.5259342  21.0456147  95.3292821
 136.1658721  20.9044906  94.6315784 134.6936873  20.7590660  94.9531423
 147.3886595  29.1274579  94.2607080 147.8223102  29.0349868  95.1090134
 148.1018176  29.1032079  93.6227096 136.3019646  30.3458577  91.4427813
 137.0960244  29.8508898  91.2410388 135.5911338  29.8176441  91.0795519
 141.1214490  32.7276673  95.7940181 141.1751513  33.2967609  96.5617897
 140.2529272  32.8978558  95.4294218 132.6102409  24.4901659  87.5187566
 131.6799997  24.4286115  87.7357528 132.7059881  23.9677612  86.7224207
 132.5287958  21.0156472  90.1065808 132.7894776  21.9301805  89.9974968
 133.3505131  20.5480915  90.2562421 134.0012884  22.4294229  97.2764632
 134.6735937  22.2211591  96.6277281 133.1742670  22.2316315  96.8369865
 148.2502145  29.1698280  96.7939966 148.4438035  30.0744090  97.0399241
 148.1502763  28.7105699  97.6278551 139.9038456  19.0556170  99.2930293
 139.2566371  19.7546120  99.1994770 140.6739471  19.4892314  99.6606541
 143.3117254  29.3205022 102.3680846 143.1602760  29.0915574 101.4510930
 143.3021933  30.2775624 102.3812191 140.0802590  26.8936935  97.3527113
 141.0094650  27.0448095  97.1796080 139.6593620  26.9820956  96.4975759
 138.8790922  30.9187599  95.1225651 138.7402008  30.5506384  95.9951589
 138.0905518  31.4335239  94.9509608 139.4739074  36.0196696  86.4651187
 139.6490830  35.5484739  87.2796810 138.7871862  36.6462462  86.6932448
 140.4296137  30.2969202  92.5114488 140.0945970  30.2569972  93.4072138
 139.9300083  29.6313918  92.0384899 134.4040381  25.7036832  98.0367069
 134.2660179  24.9717071  98.6378609 135.3145304  25.6145732  97.7551257
 143.3655329  27.6425236  82.7851548 142.7484499  26.9172065  82.6884601
 142.8971817  28.4034597  82.4418622 137.0322682  25.4156792  97.5250749
 137.7422300  24.7749984  97.4837368 136.9891990  25.6669686  98.4476930
 145.0209460  32.3524145 100.4457328 144.9622006  31.6683365  99.7787911
 145.4228979  33.0943135  99.9937954 135.7451616  22.4022009  99.3446389
 135.2088973  21.9512748  99.9967985 135.1568324  22.5367918  98.6016853
 134.0400159  39.1686059  93.2391047 134.2796757  39.8004583  93.9170066
 133.1969356  38.8174099  93.5256406 135.1553875  21.8610661  81.9072852
 134.2783341  21.7399462  81.5435099 135.6311628  21.0696739  81.6551741
 145.0226868  30.3163729  98.6771308 144.1353646  29.9789651  98.7997707
 145.5925419  29.5846760  98.9140073 126.6756015  26.6487821  92.0014359
 127.3627055  26.3349551  91.4135375 126.5204143  27.5529185  91.7281611
 131.4790737  21.5378017  96.4299383 131.3948926  20.9303687  95.6949793
 130.6573443  22.0287035  96.4308879 138.5528021  34.9765181  95.6432551
 138.4798192  35.7820153  96.1551856 138.1105414  35.1757147  94.8180573
 138.3417801  34.2136951  89.1535373 137.5585323  34.7558631  89.2473597
 139.0410546  34.7310931  89.5529614 141.6514451  20.0231581  91.7969578
 142.1483150  19.2701543  91.4770648 140.8801432  20.0595897  91.2312787
 149.5044208  25.7271946  93.4387870 149.4934084  26.6096662  93.0681803
 148.6361588  25.3743497  93.2442407 141.0126705  34.8752015  97.7990710
 141.7254677  35.5099480  97.7266611 140.5216733  34.9715881  96.9830712
 142.7344231  28.7803268  89.3708002 141.8000510  28.9004730  89.2012706
 142.9120900  27.8775735  89.1068011 138.2349419  22.1648964  91.5241263
 137.8647207  21.6120004  92.2122168 138.7308512  21.5607097  90.9716263
 146.1216783  24.6220587  89.9058036 146.5877235  25.4548579  89.8318338
 146.5724283  24.1565569  90.6103294 136.0638618  32.6246459  98.6196281
 136.7648078  33.2582942  98.7725675 135.5933733  32.9661190  97.8591920
 144.1893014  30.9664408  86.9044188 144.4652858  30.8521003  87.8138062
 143.3197513  30.5681893  86.8656361 143.8639904  25.1791066  96.4448831
 143.2111354  25.4266974  95.7901284 144.2420284  24.3655204  96.1111308
 140.8247078  35.2150759  90.5477001 141.0069472  34.3972415  91.0104754
 141.6480064  35.4318452  90.1101891 141.1589243  34.1418944  87.8092050
 141.6877010  33.6311399  87.1962212 141.4217463  33.8261475  88.6737583
 139.9127477  25.9210877 102.9314868 139.2368114  25.8205006 103.6017243
 140.7355111  25.7650091 103.3950865 131.6606336  32.1582814  95.5527383
 132.2459773  31.4126502  95.6855288 131.4631175  32.4686770  96.4364047
 134.5144991  35.1934061  90.5689826 133.8455367  35.6780189  90.0853866
 134.3757861  35.4403282  91.4833204 126.2523991  24.7288414  94.2731827
 126.2908090  24.1952005  95.0668945 125.7464284  24.2023619  93.6542804
 138.6550260  37.2277805  97.1672484 139.2068568  37.3909426  97.9321569
 138.9956453  37.8182242  96.4952509 133.6314753  19.5752954  97.7694369
 133.6956080  20.4367785  97.3571767 133.5681873  18.9626956  97.0366727
 133.1067026  21.6476087 101.4167403 133.7339064  21.2653164 102.0304927
 132.2494945  21.4290289 101.7823096 143.5061134  32.0539062 103.0221139
 144.0501038  32.6669020 102.5276093 142.9247979  32.6118641 103.5388152
 129.8832568  23.4552516  87.3485758 130.1786010  22.5463194  87.2952812
 128.9820604  23.4340255  87.0266760 141.7918647  35.1759780  94.1536166
 141.6669787  34.3749520  93.6447112 142.4497738  35.6705973  93.6650136
 133.4126815  21.5308513  93.3313307 132.6913401  22.1444480  93.1920780
 134.2020071  22.0666277  93.2529952 143.8553556  32.9768800  95.7815716
 142.9083891  32.8574151  95.7094043 144.2036329  32.0891298  95.8641978
 136.2153129  18.8662939  99.6053958 136.7387531  19.1125236 100.3680268
 135.9965462  19.6982974  99.1857096 131.6120410  21.1366614  87.4725083
 131.2833116  20.2563993  87.2900189 131.9659781  21.0814282  88.3601472
 140.8599989  32.7721516  91.9820069 140.7124951  31.8438224  92.1627639
 141.6853482  32.7941607  91.4977144 134.7262233  21.4239583  87.8400561
 135.0658306  21.9525505  87.1179169 135.1734354  21.7619990  88.6159127
 144.4634111  33.5950075  93.0684941 145.3880658  33.3892936  92.9309392
 144.2949414  33.3466476  93.9774283 137.4205674  19.8076634  97.2903629
 137.0802494  19.0084447  97.6924309 136.7144680  20.1078345  96.7180462
 136.7130380  19.9214205  86.0393854 137.4338743  20.2995458  85.5357570
 136.0895684  20.6403082  86.1428831 140.8561503  20.6259354  86.9752186
 141.0725118  21.5083992  86.6741014 140.3755570  20.2345567  86.2457828
 135.5960725  23.5845067  93.5522930 135.4505305  23.8985370  94.4447212
 135.1185928  24.2029968  92.9993829 137.4557107  20.5747615  93.6003820
 137.4418676  19.6788709  93.2636118 138.1729536  20.5818279  94.2342106
 139.3083238  21.0084955  95.6456947 139.0501016  21.9302026  95.6441278
 138.7768279  20.6115390  96.3357412 144.2529427  34.1135743  88.4247033
 144.4266304  33.5482165  87.6720885 144.7458318  34.9136637  88.2426523
 130.0706387  26.1250412  96.4910592 129.5259855  26.9010220  96.6230866
 130.9485737  26.4721216  96.3329713 136.8594003  19.4561996  88.8691390
 136.9809915  18.5278642  89.0682278 136.5696046  19.4700682  87.9569706
 150.1068818  26.8772166  90.0437333 150.5499964  26.1279491  89.6456456
 149.2295328  26.8682302  89.6611065 145.2404599  33.4302507  85.5243931
 145.9355504  34.0509200  85.7431246 145.5827750  32.5797858  85.7996309
 130.8572409  25.2520308  99.3840748 130.1154145  25.4002943  99.9705379
 130.5365153  25.5128574  98.5207498 147.1396023  30.8802213  87.0531262
 147.6647347  31.2189485  86.3280582 147.0518375  29.9449228  86.8694396
 138.8016071  34.7936286  99.1821138 139.1103198  34.5485433 100.0543838
 139.5991553  34.9982925  98.6940009 138.8236683  36.9474196  91.4126515
 138.3841674  36.4550575  92.1059372 139.5744800  36.4047163  91.1718590
 131.3029022  33.1385737  91.4151143 132.1287042  32.8389509  91.0349787
 130.9523074  32.3693359  91.8640932 136.2710555  32.4912205  93.4848817
 135.6490565  31.8282910  93.1851045 136.9415422  32.5173337  92.8022464
 129.5037627  31.0572063  92.3740077 128.6669536  30.6294237  92.1924078
 129.4761273  31.2504506  93.3110868 136.3435083  20.9693993 103.0781323
 136.3923238  21.8456116 102.6959092 136.8857597  20.4271386 102.5052966
 146.8289929  31.5135116 102.3582460 146.0385472  31.4959255 101.8186959
 146.5923283  32.0523410 103.1131496 146.9487804  28.3627583  99.6715188
 146.9985809  28.1977590 100.6130711 146.8401727  27.4954842  99.2813069
 135.8324062  31.0416128  86.9607277 135.9812183  31.7251593  86.3073950
 136.6390506  31.0221218  87.4756733 144.2391566  24.3458511 100.9874495
 145.1401429  24.2064975 100.6958493 144.3139541  24.5112965 101.9272672
 138.5734371  21.7225365  99.8327681 137.7037681  22.0158931  99.5610270
 138.8093852  22.3065810 100.5534945 148.4506000  30.7824524  99.9157210
 148.1590809  31.1454505 100.7520671 147.8378132  30.0691532  99.7370542
 149.6501683  28.3477404  92.4359780 150.4848574  28.7867208  92.5997340
 149.7860812  27.8716057  91.6168026 146.6993189  25.9057139  98.3837268
 147.1747310  26.0984785  97.5756119 145.7758754  25.9616325  98.1380652
 133.5876695  27.0681306  87.9668346 133.3422737  26.1643636  88.1648556
 133.7572610  27.0698456  87.0247824 141.2773405  17.9404982  97.3493102
 141.7955349  18.6766009  97.0239590 140.9228538  18.2468976  98.1839861
 132.8572343  22.8009663  85.4654508 132.1641588  22.8754018  84.8094544
 132.6124095  22.0370007  85.9876025 139.3319468  33.5364259  84.4319025
 138.7593435  34.1554446  83.9789497 139.9052262  34.0863620  84.9658947
 145.3994858  22.7822899  96.6165573 146.3512281  22.8820996  96.6377798
 145.2298308  21.9901167  97.1263658 143.4209237  19.8678482  96.8024974
 142.8259169  20.1483495  96.1071463 143.1358934  20.3572383  97.5741716
 142.5516728  33.8201409  85.5627607 143.4847401  33.7546970  85.7660482
 142.4639940  34.6557676  85.1042140 145.1804744  33.1367279  82.5231555
 145.1018376  32.8027143  83.4167312 146.0014411  33.6289047  82.5223027
 147.8782936  26.0029018  95.7307873 147.8459256  25.0645019  95.9167557
 148.4883559  26.0813055  94.9973698 139.7166266  24.8725071  81.7735077
 140.6625371  24.7431280  81.8423495 139.3380511  24.1339733  82.2504505
 148.0277424  22.7940062  95.7766156 147.5116473  22.0098519  95.5896085
 148.9117373  22.4658779  95.9412676 153.6959485  27.0645025  94.8713910
 154.4262874  26.8030313  95.4321613 153.0866431  26.3273747  94.9115978
 151.7774782  25.2052888  95.4688361 151.0507946  25.0708853  94.8604853
 151.3622069  25.5129717  96.2745079 139.6004959  28.9242818 103.2335734
 140.5207968  29.1021417 103.4275781 139.5654542  27.9798863 103.0815433
 137.9009184  22.7975048  81.7089962 136.9940639  22.5008161  81.7852676
 138.1785165  22.5004866  80.8424249 128.8187124  24.1181411  92.1589009
 128.4989908  23.2646719  91.8663383 128.2720552  24.3329989  92.9146976
 132.5967031  26.8343852  95.8758515 132.8153041  27.7660960  95.8946549
 133.0092805  26.4751827  96.6613319 139.5171249  17.3411938  87.8634204
 138.7071978  16.9959023  88.2389450 140.2055666  17.0319481  88.4521815
 137.4694897  22.4077058 105.2661264 137.3691624  23.3571415 105.1973355
 137.2516439  22.0795297 104.3937334 136.6707968  19.6561983  81.8501942
 137.5327132  19.9816881  82.1097759 136.8558312  18.8693479  81.3375007
 128.6875384  27.7384323  94.1282130 127.9938855  27.3238276  93.6152085
 129.4348375  27.7804859  93.5315549 137.3326167  25.8374197 104.0826326
 136.8493249  26.6374557 104.2890215 137.4187106  25.8482142 103.1293770
 130.6012126  27.6702577  92.0048145 130.5782815  27.7690264  91.0530028
 130.9112763  28.5167727  92.3265311 133.2599504  29.7278732  96.1194760
 134.2142758  29.6962674  96.0524691 133.0612028  29.2669355  96.9344986
 133.8498886  28.2979848  98.6865557 134.6691775  28.7923926  98.7100395
 134.1235694  27.3811816  98.6583125 143.6065483  20.6890600  88.0493513
 142.7191338  20.9740251  87.8313708 144.0219472  20.5284363  87.2020790
 146.9580019  20.7137121  91.7647852 147.7340409  21.2033573  92.0372469
 146.2328153  21.1395175  92.2219722 149.3952577  21.4264740  92.8221793
 149.9897068  21.1860476  92.1115101 149.4679161  20.7071871  93.4495329
 131.6149733  35.2698351  93.1364958 131.4804201  34.5098752  92.5702956
 131.1981795  35.9939251  92.6693746 142.7508696  30.4535275  82.1441533
 143.4544546  30.6585277  82.7599188 142.0271345  31.0212036  82.4090616
 143.5806506  26.2045136  88.2643803 143.5241708  26.6613687  87.4251435
 144.1334849  25.4435820  88.0866646 147.3911312  21.9934868  89.0893923
 147.1348247  21.5931503  89.9202130 146.7664180  22.7078662  88.9644062
 151.7023650  24.7330941  91.5965214 151.1423208  24.8024130  92.3696776
 151.0967154  24.5571926  90.8764710 134.7718859  36.1667668  93.3483400
 134.6551243  37.1113101  93.2462090 133.9511305  35.8641230  93.7369199
 144.6595394  30.8917804  84.1939993 145.4940997  30.4599002  84.0117468
 144.4979736  30.7199817  85.1216887 144.3141286  27.3949917  85.5596332
 144.2590089  27.2294188  84.6184776 143.6887341  28.1025950  85.7158522
 129.1033801  22.6317981  99.3857754 129.7492664  22.1216935  99.8744980
 128.8950952  23.3686663  99.9601180 141.6287193  29.6998829 104.8849895
 142.4978353  29.8739481 104.5236530 141.1493944  30.5193246 104.7625624
 137.6237411  16.8958026  85.1381651 137.6116081  17.8399866  85.2949921
 138.5160833  16.7128171  84.8441112 135.7973373  36.8195930  96.5639329
 136.7000620  36.8519540  96.8805824 135.5710743  35.8896381  96.5785664
 137.5526975  35.5726916  93.2249407 136.6022606  35.5728778  93.1113780
 137.8559461  34.8259651  92.7085442 133.4431292  19.7785599 103.4832769
 134.3062753  19.4222403 103.6936093 132.8696702  19.4399493 104.1708173
 153.2879669  41.4087455  94.2895170 153.9258079  41.2894202  93.5858510
 153.1700512  42.3568299  94.3483122 150.0969375  41.3614883  94.2256694
 149.7587886  41.2455948  93.3377229 150.9659143  40.9606048  94.2057700
 145.9556191  43.2150359  90.2153585 145.3921056  43.1240296  89.4469873
 145.8408586  42.3950264  90.6956078 150.5789158  42.5149735 100.1842900
 150.5677799  42.1202533  99.3123404 150.7409797  41.7815807 100.7776671
 143.5020623  44.7101551  93.0537806 144.2941914  44.3692376  92.6384105
 143.7417273  44.8196526  93.9739959 151.5355749  46.8821327  85.5268050
 150.8843729  47.4675408  85.1402064 152.3300112  47.4127522  85.5863088
 145.4611376  43.9710464  85.9255185 146.2342252  43.4239451  85.7868060
 145.8136775  44.8354714  86.1369646 147.2996419  45.2986847  99.1322084
 147.0086285  46.2032477  99.0168750 147.9353403  45.3403374  99.8466153
 148.2252626  42.6763695  95.7223443 148.8216198  42.4519717  95.0080406
 148.2827597  41.9348441  96.3248891 147.7977654  40.1303130  83.5573634
 148.0503175  39.6084652  82.7957097 146.8602213  39.9669276  83.6600318
 152.8420937  39.1338909  91.3648378 153.6284026  38.7158332  91.0138795
 153.1059641  40.0385001  91.5330026 153.0131014  44.5711759  86.0637034
 152.3776847  44.6446386  86.7757939 152.6828421  45.1605358  85.3856114
 158.2429364  39.0714142  92.2681356 158.9754536  38.5013359  92.5019186
 157.4868720  38.6835742  92.7087862 147.5173943  42.0331236  85.7598009
 147.4010201  41.3576140  86.4279094 147.6276203  41.5463610  84.9430162
 149.8605484  41.4941383  89.4644699 149.4963691  40.9672004  90.1757620
 150.7172600  41.1039852  89.2911184 155.7654785  32.7835716  96.7275965
 155.4338109  33.6531127  96.5037180 155.1700398  32.4672000  97.4069995
 149.5010971  36.5231283  84.4606047 149.6685373  37.3911520  84.8276518
 149.3108140  36.6858565  83.5367336 152.2586304  44.9848262  96.1271878
 151.9587027  45.8873301  96.0187685 151.9137364  44.7180445  96.9793030
 145.7098786  41.4362059  92.1608582 144.7849282  41.3038273  92.3686274
 145.9583199  42.2156278  92.6578524 155.6583448  37.5030802  93.8069315
 154.7500325  37.4346211  93.5128076 155.6071044  37.9802747  94.6351140
 149.4800192  38.9788941  85.4452714 149.3599817  39.4245991  86.2838194
 148.7852780  39.3274258  84.8866252 143.0707597  41.0795332  92.9952371
 143.1999978  41.3329811  93.9091783 142.3905048  41.6723040  92.6757026
 147.2407084  51.7492582  89.0942845 147.1631114  52.7000407  89.1731326
 146.6368727  51.4038455  89.7517772 149.7324314  38.9220448 101.7504212
 148.9557648  39.4814368 101.7407077 150.3714877  39.4077231 102.2719082
 157.5245094  35.7047241  95.5847189 156.8819475  35.9979774  94.9386983
 157.0200023  35.5900161  96.3900385 155.1785258  39.4510414  86.2733048
 156.0903114  39.6837801  86.0980746 154.6694905  40.0347458  85.7108127
 147.9870686  41.7305901 101.3122179 148.7285370  42.2690945 101.0357003
 147.2807671  42.3572190 101.4693731 153.4626026  43.8735042  99.9094341
 153.8709382  43.4317452  99.1648973 152.7403287  43.2987669 100.1628534
 149.8157096  38.8107648  97.2827898 150.6618291  39.2347062  97.4262547
 149.7555733  38.1541273  97.9766461 153.7854840  44.4336232  93.6646629
 153.1563703  44.5981946  92.9622697 153.3980502  44.8477842  94.4357594
 157.6644072  45.3690670  91.0190993 156.9795110  45.7489571  90.4688027
 157.7487921  45.9785997  91.7522941 152.9656541  36.4712017  98.9409071
 152.7217473  37.2254077  98.4043347 153.2416472  36.8497364  99.7756318
 154.9195004  43.0150629  97.6186337 155.1311899  43.6582389  96.9420718
 154.8724752  42.1812946  97.1508267 152.5221233  35.6268450  94.5222909
 151.6605712  35.9249703  94.8139647 152.5483667  35.8438849  93.5903942
 149.3382802  44.1710640  90.9296715 149.8021148  44.4498343  90.1401337
 149.0739600  43.2694085  90.7469805 146.2306883  43.7182122  93.8676478
 146.8008240  44.1469390  93.2293962 146.8214995  43.4364707  94.5660664
 148.2751688  40.2933793  87.7386280 148.9775732  40.7454836  88.2060206
 147.9432317  39.6517612  88.3666173 146.7232050  38.8845549 102.1137489
 146.0930710  39.5661830 102.3472886 146.6168138  38.7728631 101.1690627
 142.0177022  38.5517345  93.0403413 141.2276076  38.8074874  92.5643524
 142.5088270  39.3665683  93.1455454 156.0340832  45.8922585  95.7908694
 156.8558275  45.4902772  95.5091376 156.0303235  45.7890819  96.7424810
 143.9691768  38.9161925  89.9986890 143.1722931  39.0280619  90.5170386
 143.7417360  39.2548577  89.1327781 149.7997435  45.4406628  97.9469405
 149.8641868  45.9027035  98.7827576 149.0908359  44.8103993  98.0751714
 140.3014725  38.8047836  95.4718404 140.5522764  39.6894846  95.7375980
 140.8374274  38.6252437  94.6993496 149.5145453  47.1074735  87.8148385
 149.3791128  47.9526271  88.2433233 150.0555265  47.3094013  87.0514319
 146.0012792  33.1866315 104.4762740 145.6079738  32.6332514 105.1510384
 146.8178933  33.4976894 104.8669258 142.9674850  44.6250173  88.3876310
 143.4799371  45.4193424  88.5381875 143.6197563  43.9276464  88.3209912
 144.7769735  47.7415930  90.4699063 144.9536363  48.6633894  90.2820047
 145.5726568  47.4274349  90.8993443 148.9180753  34.6024194 102.0682997
 149.6590467  35.2031347 101.9887459 149.1498676  33.8601832 101.5101039
 144.0622091  39.7880562 100.3461226 143.9475607  38.8865819 100.6468325
 143.2066609  40.0344258  99.9946043 151.1413929  47.7298302 101.9448727
 150.6977783  46.9434680 101.6269632 151.8031143  47.9177452 101.2792618
 145.9001050  49.2594103  96.4709406 146.4508475  49.1311167  95.6986399
 145.0612526  49.5588992  96.1204298 153.2395167  48.0101102  99.9730128
 153.2213643  48.8309983  99.4810397 154.1615087  47.8855177 100.1980269
 149.6968221  45.5245231 100.8153637 150.2296558  44.7633519 100.5852945
 149.1682303  45.2318883 101.5577791 152.8637916  30.6305297  96.3447278
 152.5202186  31.5206939  96.2686389 153.2316879  30.4406955  95.4816863
 140.9323767  42.9538828  89.1635881 141.7698989  43.3635836  88.9469588
 141.1102035  42.0138270  89.1336074 152.8288199  40.6213908  84.8519714
 152.3134823  41.3918513  85.0908101 152.5565508  39.9479044  85.4752775
 150.4135310  35.4663609  89.9104952 149.5576906  35.0770459  89.7310591
 150.8262262  35.5455570  89.0504737 151.9434457  33.0009952  94.3096512
 151.4399252  32.9640088  93.4964317 152.2365064  33.9102695  94.3693168
 148.1877343  33.0848682  93.3162693 149.0530339  32.8891491  92.9568583
 148.2554852  32.8559034  94.2432050 157.8022473  43.3746263  86.7872887
 157.0251916  43.0357422  86.3428049 158.4813954  43.3798886  86.1127852
 152.6174502  38.4941000  86.6779495 152.3124638  38.8087150  87.5289638
 153.5704944  38.5722420  86.7206828 151.0620934  44.6531224  88.3272449
 150.5342296  43.9183983  88.0145686 150.5608437  45.4305900  88.0812417
 156.0413780  42.8480244  93.4439495 155.3837455  43.5379506  93.5319624
 156.8454179  43.2376676  93.7873481 145.7939662  35.3150890  90.6879060
 146.3683414  35.0926072  89.9552253 146.3810644  35.3839585  91.4407662
 154.8519239  41.2024617  91.4943437 155.3651121  41.8354609  91.9965146
 155.5020463  40.6025812  91.1286797 146.1209249  37.3455351  84.7074945
 145.2846561  37.6830038  85.0284220 145.9814018  37.2104331  83.7702082
 148.0962329  32.1892139  89.4154130 147.4426742  31.8741156  88.7910744
 148.0542804  31.5667879  90.1413953 149.2073534  42.4711434  81.3307422
 148.3000596  42.2400687  81.5298571 149.7044566  41.6749053  81.5181403
 152.1141613  51.1808941  84.2504108 151.4403312  51.4840638  84.8589066
 152.5007435  51.9838022  83.9009565 151.3300070  38.6774072  93.7401777
 150.4122631  38.8989019  93.5823465 151.7460213  38.7520383  92.8813485
 152.1135118  40.0765488  88.8704458 152.8606937  40.5886885  88.5611580
 152.3826707  39.7549541  89.7308851 150.3861768  42.5724029  85.8531412
 149.4772987  42.2883062  85.9503882 150.4156852  42.9923107  84.9934719
 155.6181035  46.1830618  89.6222579 155.1643362  45.3421528  89.6787770
 154.9875002  46.8192017  89.9597360 154.5613955  37.1122604  90.8523247
 153.8236712  36.5999991  91.1833489 154.8140728  36.6722986  90.0406524
 154.0613974  48.0207115  90.5572398 154.3536949  48.5812172  89.8384763
 154.5712595  48.3135676  91.3125557 154.6625582  29.8898856  91.4465016
 154.9684459  29.0296220  91.1590931 155.3878187  30.4816477  91.2464010
 140.9549938  40.2929543  89.8346614 140.7574338  39.6998904  89.1097681
 140.3996602  39.9881753  90.5522553 148.9346662  40.1852649  91.9541207
 148.9895272  39.2326486  91.8783684 148.1237864  40.3412089  92.4382506
 150.0837856  44.1132773  83.1919490 149.6457285  43.3968631  82.7325128
 150.8248296  44.3408887  82.6304582 146.8739022  38.8029709  89.7131586
 146.0606887  39.1023880  90.1196778 147.3698016  38.4085398  90.4306068
 149.0247600  48.7987466  91.6465851 148.9823778  49.0248312  90.7174383
 149.9410298  48.5650841  91.7951652 152.4713233  39.2671534  98.5446480
 152.8262621  39.4943007  99.4040946 153.1185365  39.5989910  97.9223735
 158.2010970  42.3889970  89.2495809 158.0628869  42.5791566  88.3216998
 157.8447189  43.1509352  89.7063860 146.3653096  36.3748065  95.3292821
 147.0052476  36.2336824  94.6315784 145.5330627  36.0882578  94.9531423
 158.2280350  44.4566497  94.2607080 158.6616857  44.3641786  95.1090134
 158.9411931  44.4323997  93.6227096 147.1413400  45.6750495  91.4427813
 147.9353999  45.1800815  91.2410388 146.4305093  45.1468358  91.0795519
 151.9608245  48.0568591  95.7940181 152.0145267  48.6259527  96.5617897
 151.0923026  48.2270476  95.4294218 143.4496164  39.8193577  87.5187566
 142.5193752  39.7578032  87.7357528 143.5453636  39.2969530  86.7224207
 143.3681713  36.3448390  90.1065808 143.6288530  37.2593723  89.9974968
 144.1898885  35.8772832  90.2562421 144.8406638  37.7586147  97.2764632
 145.5129692  37.5503509  96.6277281 144.0136425  37.5608233  96.8369865
 150.7432210  34.3848088  99.2930293 150.0960125  35.0838037  99.1994770
 151.5133226  34.8184232  99.6606541 154.1511008  44.6496940 102.3680846
 153.9996515  44.4207492 101.4510930 154.1415688  45.6067541 102.3812191
 150.9196345  42.2228853  97.3527113 151.8488405  42.3740012  97.1796080
 150.4987375  42.3112874  96.4975759 149.7184676  46.2479517  95.1225651
 149.5795762  45.8798302  95.9951589 148.9299273  46.7627157  94.9509608
 150.3132828  51.3488614  86.4651187 150.4884584  50.8776657  87.2796810
 149.6265616  51.9754380  86.6932448 151.2689892  45.6261120  92.5114488
 150.9339724  45.5861890  93.4072138 150.7693837  44.9605836  92.0384899
 145.2434135  41.0328750  98.0367069 145.1053933  40.3008989  98.6378609
 146.1539059  40.9437650  97.7551257 154.2049083  42.9717154  82.7851548
 153.5878254  42.2463982  82.6884601 153.7365572  43.7326514  82.4418622
 147.8716436  40.7448709  97.5250749 148.5816055  40.1041901  97.4837368
 147.8285744  40.9961604  98.4476930 155.8603215  47.6816063 100.4457328
 155.8015761  46.9975283  99.7787911 156.2622733  48.4235053  99.9937954
 146.5845370  37.7313927  99.3446389 146.0482727  37.2804666  99.9967985
 145.9962079  37.8659836  98.6016853 144.8793914  54.4977976  93.2391047
 145.1190512  55.1296501  93.9170066 144.0363110  54.1466016  93.5256406
 145.9947629  37.1902578  81.9072852 145.1177095  37.0691379  81.5435099
 146.4705382  36.3988657  81.6551741 155.8620622  45.6455646  98.6771308
 154.9747401  45.3081568  98.7997707 156.4319173  44.9138678  98.9140073
 137.5149769  41.9779738  92.0014359 138.2020809  41.6641468  91.4135375
 137.3597898  42.8821103  91.7281611 142.3184491  36.8669935  96.4299383
 142.2342680  36.2595604  95.6949793 141.4967198  37.3578953  96.4308879
 149.3921775  50.3057099  95.6432551 149.3191947  51.1112070  96.1551856
 148.9499169  50.5049065  94.8180573 149.1811555  49.5428869  89.1535373
 148.3979077  50.0850549  89.2473597 149.8804300  50.0602848  89.5529614
 152.4908205  35.3523498  91.7969578 152.9876905  34.5993461  91.4770648
 151.7195187  35.3887815  91.2312787 151.8520459  50.2043933  97.7990710
 152.5648431  50.8391398  97.7266611 151.3610488  50.3007799  96.9830712
 153.5737986  44.1095186  89.3708002 152.6394265  44.2296648  89.2012706
 153.7514654  43.2067652  89.1068011 149.0743174  37.4940881  91.5241263
 148.7040961  36.9411922  92.2122168 149.5702266  36.8899015  90.9716263
 156.9610537  39.9512505  89.9058036 157.4270989  40.7840496  89.8318338
 157.4118038  39.4857486  90.6103294 146.9032373  47.9538376  98.6196281
 147.6041832  48.5874859  98.7725675 146.4327488  48.2953108  97.8591920
 155.0286768  46.2956326  86.9044188 155.3046612  46.1812921  87.8138062
 154.1591267  45.8973811  86.8656361 154.9327200  32.3193092  93.9448937
 154.0190280  32.5497319  94.1131144 155.3620301  32.4031536  94.7962969
 154.7033659  40.5082984  96.4448831 154.0505109  40.7558891  95.7901284
 155.0814038  39.6947122  96.1111308 151.6640832  50.5442677  90.5477001
 151.8463227  49.7264333  91.0104754 152.4873818  50.7610369  90.1101891
 151.9982998  49.4710862  87.8092050 152.5270764  48.9603317  87.1962212
 152.2611217  49.1553392  88.6737583 150.7521232  41.2502795 102.9314868
 150.0761869  41.1496924 103.6017243 151.5748865  41.0942009 103.3950865
 142.5000091  47.4874731  95.5527383 143.0853527  46.7418419  95.6855288
 142.3024929  47.7978688  96.4364047 145.3538746  50.5225979  90.5689826
 144.6849121  51.0072106  90.0853866 145.2151616  50.7695199  91.4833204
 137.0917745  40.0580332  94.2731827 137.1301845  39.5243922  95.0668945
 136.5858038  39.5315537  93.6542804 149.4944014  52.5569722  97.1672484
 150.0462322  52.7201344  97.9321569 149.8350208  53.1474160  96.4952509
 144.4708508  34.9044872  97.7694369 144.5349834  35.7659703  97.3571767
 144.4075628  34.2918874  97.0366727 143.9460780  36.9768005 101.4167403
 144.5732819  36.5945082 102.0304927 143.0888699  36.7582207 101.7823096
 154.3454889  47.3830980 103.0221139 154.8894793  47.9960938 102.5276093
 153.7641734  47.9410558 103.5388152 140.7226323  38.7844434  87.3485758
 141.0179764  37.8755112  87.2952812 139.8214359  38.7632173  87.0266760
 152.6312402  50.5051698  94.1536166 152.5063541  49.7041438  93.6447112
 153.2891493  50.9997891  93.6650136 144.2520570  36.8600430  93.3313307
 143.5307156  37.4736398  93.1920780 145.0413826  37.3958195  93.2529952
 154.6947310  48.3060718  95.7815716 153.7477646  48.1866069  95.7094043
 155.0430083  47.4183216  95.8641978 147.0546883  34.1954857  99.6053958
 147.5781285  34.4417153 100.3680268 146.8359217  35.0274892  99.1857096
 142.4514165  36.4658531  87.4725083 142.1226871  35.5855910  87.2900189
 142.8053535  36.4106200  88.3601472 151.6993743  48.1013434  91.9820069
 151.5518706  47.1730142  92.1627639 152.5247237  48.1233525  91.4977144
 145.5655988  36.7531501  87.8400561 145.9052060  37.2817422  87.1179169
 146.0128108  37.0911907  88.6159127 155.3027865  48.9241993  93.0684941
 156.2274413  48.7184854  92.9309392 155.1343169  48.6758394  93.9774283
 148.2599428  35.1368552  97.2903629 147.9196249  34.3376365  97.6924309
 147.5538435  35.4370263  96.7180462 148.9115900  32.2217864  95.7430952
 149.7341970  31.7478343  95.6209842 149.1553964  33.0008348  96.2429638
 147.5524135  35.2506123  86.0393854 148.2732497  35.6287376  85.5357570
 146.9289439  35.9695000  86.1428831 151.6955258  35.9551272  86.9752186
 151.9118872  36.8375910  86.6741014 151.2149325  35.5637485  86.2457828
 146.4354479  38.9136985  93.5522930 146.2899060  39.2277288  94.4447212
 145.9579683  39.5321885  92.9993829 148.2950862  35.9039533  93.6003820
 148.2812431  35.0080626  93.2636118 149.0123290  35.9110197  94.2342106
 150.1476993  36.3376873  95.6456947 149.8894770  37.2593944  95.6441278
 149.6162033  35.9407308  96.3357412 155.0923181  49.4427660  88.4247033
 155.2660059  48.8774083  87.6720885 155.5852073  50.2428555  88.2426523
 140.9100141  41.4542329  96.4910592 140.3653609  42.2302137  96.6230866
 141.7879491  41.8013134  96.3329713 147.6987758  34.7853913  88.8691390
 147.8203669  33.8570559  89.0682278 147.4089800  34.7992599  87.9569706
 150.5678948  32.4708824  92.0058110 150.5900645  32.5348157  91.0510090
 150.9847007  31.6313332  92.1998616 156.0798354  48.7594425  85.5243931
 156.7749259  49.3801117  85.7431246 156.4221504  47.9089776  85.7996309
 141.6966163  40.5812226  99.3840748 140.9547899  40.7294861  99.9705379
 141.3758907  40.8420491  98.5207498 157.9789777  46.2094130  87.0531262
 158.5041101  46.5481403  86.3280582 157.8912130  45.2741146  86.8694396
 149.6409826  50.1228204  99.1821138 149.9496952  49.8777351 100.0543838
 150.4385308  50.3274842  98.6940009 149.6630438  52.2766113  91.4126515
 149.2235428  51.7842492  92.1059372 150.4138555  51.7339081  91.1718590
 142.1422777  48.4677654  91.4151143 142.9680797  48.1681426  91.0349787
 141.7916829  47.6985277  91.8640932 147.1104310  47.8204123  93.4848817
 146.4884319  47.1574828  93.1851045 147.7809177  47.8465254  92.8022464
 140.3431382  46.3863981  92.3740077 139.5063290  45.9586155  92.1924078
 140.3155027  46.5796424  93.3110868 147.1828837  36.2985911 103.0781323
 147.2316993  37.1748033 102.6959092 147.7251352  35.7563304 102.5052966
 157.6683683  46.8427034 102.3582460 156.8779227  46.8251173 101.8186959
 157.4317038  47.3815328 103.1131496 157.7881558  43.6919500  99.6715188
 157.8379563  43.5269508 100.6130711 157.6795481  42.8246759  99.2813069
 146.6717817  46.3708046  86.9607277 146.8205937  47.0543510  86.3073950
 147.4784260  46.3513136  87.4756733 155.0785321  39.6750428 100.9874495
 155.9795183  39.5356893 100.6958493 155.1533295  39.8404883 101.9272672
 149.4128126  37.0517283  99.8327681 148.5431435  37.3450849  99.5610270
 149.6487606  37.6357728 100.5534945 157.5386943  41.2349056  98.3837268
 158.0141065  41.4276703  97.5756119 156.6152509  41.2908242  98.1380652
 144.4270450  42.3973224  87.9668346 144.1816492  41.4935554  88.1648556
 144.5966364  42.3990374  87.0247824 152.1167160  33.2696900  97.3493102
 152.6349104  34.0057927  97.0239590 151.7622292  33.5760893  98.1839861
 143.6966097  38.1301581  85.4654508 143.0035342  38.2045936  84.8094544
 143.4517849  37.3661925  85.9876025 152.3679754  29.6897182  92.8693998
 152.6481508  29.0220372  93.4954425 153.1530361  29.8826278  92.3568662
 150.1713222  48.8656176  84.4319025 149.5987189  49.4846363  83.9789497
 150.7446016  49.4155538  84.9658947 156.2388612  38.1114816  96.6165573
 157.1906035  38.2112914  96.6377798 156.0692063  37.3193085  97.1263658
 154.2602992  35.1970400  96.8024974 153.6652924  35.4775412  96.1071463
 153.9752688  35.6864301  97.5741716 153.3910482  49.1493326  85.5627607
 154.3241155  49.0838888  85.7660482 153.3033695  49.9849593  85.1042140
 156.0198499  48.4659197  82.5231555 155.9412130  48.1319060  83.4167312
 156.8408166  48.9580965  82.5223027 150.5560021  40.2016989  81.7735077
 151.5019126  40.0723197  81.8423495 150.1774266  39.4631651  82.2504505
 156.5281905  31.8672995  91.7361969 156.3306727  31.5588083  92.6205301
 157.1381611  32.5934634  91.8659899 150.4398713  44.2534735 103.2335734
 151.3601723  44.4313334 103.4275781 150.4048296  43.3090781 103.0815433
 148.7402938  38.1266966  81.7089962 147.8334393  37.8300078  81.7852676
 149.0178919  37.8296784  80.8424249 139.6580878  39.4473329  92.1589009
 139.3383663  38.5938637  91.8663383 139.1114307  39.6621907  92.9146976
 143.4360786  42.1635770  95.8758515 143.6546796  43.0952878  95.8946549
 143.8486560  41.8043744  96.6613319 150.3565004  32.6703855  87.8634204
 149.5465732  32.3250940  88.2389450 151.0449421  32.3611399  88.4521815
 152.2855552  31.7481902  89.4858500 152.8386591  32.1677355  90.1448523
 152.5225638  30.8217650  89.5281456 148.3088651  37.7368976 105.2661264
 148.2085378  38.6863333 105.1973355 148.0910193  37.4087215 104.3937334
 147.5101723  34.9853901  81.8501942 148.3720887  35.3108799  82.1097759
 147.6952067  34.1985397  81.3375007 139.5269138  43.0676240  94.1282130
 138.8332610  42.6530193  93.6152085 140.2742129  43.1096777  93.5315549
 155.6634359  33.8582427  88.9937165 155.0833028  34.5167231  88.6115217
 155.3970292  33.0359772  88.5824582 154.1137925  33.2587485  91.1958485
 154.6137704  33.3704019  90.3872804 154.7573533  32.9548538  91.8359293
 148.1719921  41.1666115 104.0826326 147.6887003  41.9666475 104.2890215
 148.2580860  41.1774059 103.1293770 141.4405881  42.9994494  92.0048145
 141.4176569  43.0982181  91.0530028 141.7506517  43.8459645  92.3265311
 144.0993259  45.0570649  96.1194760 145.0536512  45.0254592  96.0524691
 143.9005782  44.5961273  96.9344986 144.6892641  43.6271765  98.6865557
 145.5085530  44.1215844  98.7100395 144.9629449  42.7103733  98.6583125
 154.4459237  36.0182518  88.0493513 153.5585092  36.3032168  87.8313708
 154.8613226  35.8576281  87.2020790 157.7973773  36.0429039  91.7647852
 158.5734163  36.5325491  92.0372469 157.0721907  36.4687093  92.2219722
 142.4543488  50.5990269  93.1364958 142.3197956  49.8390670  92.5702956
 142.0375550  51.3231169  92.6693746 153.5902451  45.7827192  82.1441533
 154.2938301  45.9877195  82.7599188 152.8665099  46.3503954  82.4090616
 154.4200261  41.5337054  88.2643803 154.3635462  41.9905605  87.4251435
 154.9728603  40.7727738  88.0866646 158.2305067  37.3226785  89.0893923
 157.9742001  36.9223421  89.9202130 157.6057935  38.0370579  88.9644062
 145.6112613  51.4959586  93.3483400 145.4944998  52.4405018  93.2462090
 144.7905060  51.1933147  93.7369199 155.4989148  46.2209721  84.1939993
 156.3334752  45.7890920  84.0117468 155.3373491  46.0491735  85.1216887
 155.1535040  42.7241835  85.5596332 155.0983844  42.5586106  84.6184776
 154.5281095  43.4317868  85.7158522 139.9427555  37.9609899  99.3857754
 140.5886419  37.4508853  99.8744980 139.7344706  38.6978581  99.9601180
 152.4680947  45.0290747 104.8849895 153.3372107  45.2031399 104.5236530
 151.9887699  45.8485163 104.7625624 148.4631166  32.2249944  85.1381651
 148.4509835  33.1691784  85.2949921 149.3554588  32.0420089  84.8441112
 146.6367128  52.1487848  96.5639329 147.5394374  52.1811458  96.8805824
 146.4104498  51.2188299  96.5785664 148.3920730  50.9018834  93.2249407
 147.4416361  50.9020696  93.1113780 148.6953216  50.1551569  92.7085442
 152.2783285  28.8192720  89.3927587 151.5115681  28.2651207  89.5384270
 152.6893990  28.8914589  90.2541739 144.2825046  35.1077516 103.4832769
 145.1456508  34.7514321 103.6936093 143.7090457  34.7691411 104.1708173
 156.7949945  58.5442277  90.2153585 156.2314810  58.4532214  89.4469873
 156.6802340  57.7242182  90.6956078 154.3414377  60.0393469  93.0537806
 155.1335669  59.6984293  92.6384105 154.5811027  60.1488444  93.9739959
 156.3005131  59.3002382  85.9255185 157.0736007  58.7531369  85.7868060
 156.6530530  60.1646631  86.1369646 158.1390174  60.6278764  99.1322084
 157.8480039  61.5324395  99.0168750 158.7747158  60.6695292  99.8466153
 158.6371409  55.4595048  83.5573634 158.8896929  54.9376569  82.7957097
 157.6995968  55.2961193  83.6600318 158.3567698  57.3623154  85.7598009
 158.2403956  56.6868057  86.4279094 158.4669957  56.8755528  84.9430162
 156.5492540  56.7653977  92.1608582 155.6243037  56.6330191  92.3686274
 156.7976953  57.5448196  92.6578524 153.9101351  56.4087250  92.9952371
 154.0393732  56.6621729  93.9091783 153.2298802  57.0014958  92.6757026
 158.0800838  67.0784500  89.0942845 158.0024868  68.0292325  89.1731326
 157.4762482  66.7330373  89.7517772 157.0700638  59.0474040  93.8676478
 157.6401995  59.4761308  93.2293962 157.6608750  58.7656624  94.5660664
 157.5625804  54.2137467 102.1137489 156.9324465  54.8953748 102.3472886
 157.4561892  54.1020549 101.1690627 152.8570777  53.8809263  93.0403413
 152.0669831  54.1366792  92.5643524 153.3482024  54.6957601  93.1455454
 154.8085522  54.2453842  89.9986890 154.0116685  54.3572537  90.5170386
 154.5811114  54.5840495  89.1327781 151.1408480  54.1339753  95.4718404
 151.3916518  55.0186763  95.7375980 151.6768028  53.9544355  94.6993496
 156.8406547  48.5158233 104.4762740 156.4473493  47.9624431 105.1510384
 157.6572687  48.8268811 104.8669258 153.8068605  59.9542091  88.3876310
 154.3193125  60.7485341  88.5381875 154.4591318  59.2568381  88.3209912
 155.6163489  63.0707847  90.4699063 155.7930118  63.9925812  90.2820047
 156.4120323  62.7566267  90.8993443 154.9015846  55.1172479 100.3461226
 154.7869361  54.2157736 100.6468325 154.0460364  55.3636176  99.9946043
 156.7394805  64.5886021  96.4709406 157.2902230  64.4603084  95.6986399
 155.9006281  64.8880910  96.1204298 151.7717521  58.2830745  89.1635881
 152.6092743  58.6927754  88.9469588 151.9495789  57.3430188  89.1336074
 156.6333416  50.6442808  90.6879060 157.2077168  50.4217989  89.9552253
 157.2204399  50.7131502  91.4407662 156.9603003  52.6747269  84.7074945
 156.1240316  53.0121955  85.0284220 156.8207773  52.5396249  83.7702082
 158.9356084  47.5184057  89.4154130 158.2820496  47.2033074  88.7910744
 158.8936558  46.8959797  90.1413953 151.7943693  55.6221461  89.8346614
 151.5968092  55.0290821  89.1097681 151.2390357  55.3173671  90.5522553
 157.7132776  54.1321627  89.7131586 156.9000642  54.4315797  90.1196778
 158.2091770  53.7377316  90.4306068 157.2046851  51.7039982  95.3292821
 157.8446230  51.5628742  94.6315784 156.3724382  51.4174496  94.9531423
 157.9807155  61.0042413  91.4427813 158.7747753  60.5092733  91.2410388
 157.2698847  60.4760276  91.0795519 154.2889918  55.1485495  87.5187566
 153.3587506  55.0869950  87.7357528 154.3847390  54.6261447  86.7224207
 154.2075467  51.6740307  90.1065808 154.4682285  52.5885641  89.9974968
 155.0292640  51.2064750  90.2562421 155.6800393  53.0878065  97.2764632
 156.3523446  52.8795427  96.6277281 154.8530179  52.8900151  96.8369865
 156.0827890  56.3620668  98.0367069 155.9447688  55.6300906  98.6378609
 156.9932813  56.2729568  97.7551257 157.4239125  53.0605845  99.3446389
 156.8876482  52.6096583  99.9967985 156.8355833  53.1951754  98.6016853
 155.7187668  69.8269894  93.2391047 155.9584266  70.4588418  93.9170066
 154.8756865  69.4757934  93.5256406 156.8341384  52.5194496  81.9072852
 155.9570850  52.3983297  81.5435099 157.3099137  51.7280574  81.6551741
 148.3543524  57.3071656  92.0014359 149.0414564  56.9933386  91.4135375
 148.1991652  58.2113021  91.7281611 153.1578246  52.1961852  96.4299383
 153.0736435  51.5887522  95.6949793 152.3360952  52.6870871  96.4308879
 157.7426127  63.2830294  98.6196281 158.4435587  63.9166777  98.7725675
 157.2721242  63.6245026  97.8591920 153.3393845  62.8166649  95.5527383
 153.9247282  62.0710337  95.6855288 153.1418684  63.1270606  96.4364047
 156.1932500  65.8517896  90.5689826 155.5242876  66.3364024  90.0853866
 156.0545370  66.0987117  91.4833204 147.9311500  55.3872249  94.2731827
 147.9695599  54.8535840  95.0668945 147.4251793  54.8607455  93.6542804
 155.3102262  50.2336790  97.7694369 155.3743589  51.0951621  97.3571767
 155.2469382  49.6210791  97.0366727 154.7854535  52.3059922 101.4167403
 155.4126573  51.9237000 102.0304927 153.9282454  52.0874124 101.7823096
 151.5620077  54.1136351  87.3485758 151.8573518  53.2047030  87.2952812
 150.6608113  54.0924091  87.0266760 155.0914324  52.1892348  93.3313307
 154.3700910  52.8028316  93.1920780 155.8807580  52.7250113  93.2529952
 157.8940638  49.5246774  99.6053958 158.4175040  49.7709071 100.3680268
 157.6752971  50.3566809  99.1857096 153.2907919  51.7950449  87.4725083
 152.9620625  50.9147828  87.2900189 153.6447290  51.7398118  88.3601472
 156.4049742  52.0823419  87.8400561 156.7445815  52.6109340  87.1179169
 156.8521863  52.4203825  88.6159127 159.0993183  50.4660470  97.2903629
 158.7590003  49.6668283  97.6924309 158.3932189  50.7662180  96.7180462
 158.3917889  50.5798040  86.0393854 159.1126252  50.9579293  85.5357570
 157.7683193  51.2986917  86.1428831 157.2748234  54.2428903  93.5522930
 157.1292814  54.5569206  94.4447212 156.7973437  54.8613803  92.9993829
 151.7493896  56.7834247  96.4910592 151.2047364  57.5594055  96.6230866
 152.6273246  57.1305052  96.3329713 158.5381512  50.1145831  88.8691390
 158.6597424  49.1862477  89.0682278 158.2483555  50.1284517  87.9569706
 152.5359918  55.9104143  99.3840748 151.7941654  56.0586779  99.9705379
 152.2152662  56.1712409  98.5207498 152.9816531  63.7969572  91.4151143
 153.8074551  63.4973344  91.0349787 152.6310583  63.0277194  91.8640932
 157.9498064  63.1496040  93.4848817 157.3278074  62.4866745  93.1851045
 158.6202931  63.1757172  92.8022464 151.1825136  61.7155898  92.3740077
 150.3457045  61.2878073  92.1924078 151.1548782  61.9088342  93.3110868
 158.0222592  51.6277828 103.0781323 158.0710747  52.5039951 102.6959092
 158.5645106  51.0855221 102.5052966 157.5111571  61.6999964  86.9607277
 157.6599692  62.3835428  86.3073950 158.3178015  61.6805054  87.4756733
 155.2664204  57.7265141  87.9668346 155.0210246  56.8227471  88.1648556
 155.4360119  57.7282292  87.0247824 154.5359852  53.4593499  85.4654508
 153.8429097  53.5337854  84.8094544 154.2911604  52.6953842  85.9876025
 150.4974633  54.7765247  92.1589009 150.1777417  53.9230555  91.8663383
 149.9508061  54.9913825  92.9146976 154.2754540  57.4927688  95.8758515
 154.4940550  58.4244795  95.8946549 154.6880314  57.1335662  96.6613319
 159.1482406  53.0660893 105.2661264 159.0479133  54.0155250 105.1973355
 158.9303948  52.7379132 104.3937334 158.3495477  50.3145818  81.8501942
 159.2114641  50.6400717  82.1097759 158.5345821  49.5277314  81.3375007
 150.3662893  58.3968158  94.1282130 149.6726364  57.9822111  93.6152085
 151.1135884  58.4388695  93.5315549 159.0113676  56.4958032 104.0826326
 158.5280758  57.2958392 104.2890215 159.0974615  56.5065977 103.1293770
 152.2799635  58.3286412  92.0048145 152.2570324  58.4274099  91.0530028
 152.5900272  59.1751563  92.3265311 154.9387013  60.3862567  96.1194760
 155.8930267  60.3546509  96.0524691 154.7399537  59.9253191  96.9344986
 155.5286395  58.9563683  98.6865557 156.3479284  59.4507762  98.7100395
 155.8023203  58.0395651  98.6583125 153.2937242  65.9282186  93.1364958
 153.1591710  65.1682587  92.5702956 152.8769304  66.6523086  92.6693746
 156.4506368  66.8251503  93.3483400 156.3338752  67.7696936  93.2462090
 155.6298814  66.5225065  93.7369199 150.7821310  53.2901817  99.3857754
 151.4280173  52.7800771  99.8744980 150.5738461  54.0270498  99.9601180
 157.4760882  67.4779765  96.5639329 158.3788129  67.5103376  96.8805824
 157.2498252  66.5480216  96.5785664 155.1218801  50.4369434 103.4832769
 155.9850262  50.0806239 103.6936093 154.5484211  50.0983329 104.1708173
 158.7705254  70.7164167  94.2731827 158.8089354  70.1827758  95.0668945
 158.2645547  70.1899372  93.6542804 134.0400160  16.1748181  79.9636354
 134.2796759  16.8066705  80.6415372 133.1969357  15.8236221  80.2501713
 145.9556192  20.2212482  76.9398892 145.3921057  20.1302419  76.1715180
 145.8408587  19.4012386  77.4201384 143.5020624  21.7163674  79.7783112
 144.2941916  21.3754498  79.3629412 143.7417274  21.8258649  80.6985266
 151.5355751  23.8883450  72.2513357 150.8843730  24.4737530  71.8647371
 152.3300113  24.4189645  72.3108394 145.4611378  20.9772587  72.6500491
 146.2342254  20.4301574  72.5113367 145.8136777  21.8416836  72.8614953
 147.2996420  22.3048969  85.8567390 147.0086286  23.2094600  85.7414057
 147.9353405  22.3465497  86.5711460 153.0131016  21.5773882  72.7882341
 152.3776849  21.6508508  73.5003246 152.6828422  22.1667480  72.1101420
 152.2586305  21.9910385  82.8517184 151.9587028  22.8935423  82.7432991
 151.9137365  21.7242568  83.7038337 143.0707598  18.0857455  79.7197678
 143.1999979  18.3391934  80.6337089 142.3905049  18.6785163  79.4002333
 147.2407085  28.7554705  75.8188152 147.1631115  29.7062530  75.8976632
 146.6368729  28.4100577  76.4763078 149.3382803  21.1772763  77.6542021
 149.8021149  21.4560466  76.8646644 149.0739602  20.2756208  77.4715112
 146.2306884  20.7244244  80.5921784 146.8008242  21.1531513  79.9539269
 146.8214996  20.4426829  81.2905970 149.7997436  22.4468750  84.6714711
 149.8641869  22.9089158  85.5072883 149.0908360  21.8166115  84.7997021
 149.5145454  24.1136858  74.5393692 149.3791129  24.9588394  74.9678539
 150.0555267  24.3156136  73.7759625 142.9674851  21.6312296  75.1121617
 143.4799372  22.4255546  75.2627181 143.6197564  20.9338586  75.0455218
 144.7769736  24.7478052  77.1944370 144.9536365  25.6696017  77.0065354
 145.5726570  24.4336471  77.6238750 151.1413930  24.7360424  88.6694034
 150.6977785  23.9496803  88.3514938 151.8031144  24.9239575  88.0037924
 145.9001052  26.2656226  83.1954712 146.4508477  26.1373289  82.4231706
 145.0612528  26.5651115  82.8449605 153.2395169  25.0163224  86.6975435
 153.2213644  25.8372105  86.2055704 154.1615089  24.8917300  86.9225576
 149.6968223  22.5307354  87.5398943 150.2296559  21.7695642  87.3098251
 149.1682304  22.2381006  88.2823098 140.9323768  19.9600950  75.8881187
 141.7698990  20.3697959  75.6714895 141.1102036  19.0200392  75.8581381
 151.0620935  21.6593346  75.0517755 150.5342297  20.9246106  74.7390993
 150.5608438  22.4368023  74.8057724 152.1141614  28.1871064  70.9749415
 151.4403313  28.4902761  71.5834372 152.5007436  28.9900144  70.6254872
 155.6181036  23.1892741  76.3467886 155.1643364  22.3483651  76.4033076
 154.9875003  23.8254139  76.6842666 154.0613976  25.0269238  77.2817704
 154.3536950  25.5874295  76.5630070 154.5712596  25.3197799  78.0370863
 150.0837857  21.1194895  69.9164797 149.6457287  20.4030754  69.4570434
 150.8248298  21.3471010  69.3549888 149.0247601  25.8049589  78.3711157
 148.9823780  26.0310435  77.4419689 149.9410300  25.5712963  78.5196959
 147.1413402  22.6812618  78.1673120 147.9354000  22.1862938  77.9655695
 146.4305094  22.1530481  77.8040826 151.9608246  25.0630713  82.5185488
 152.0145268  25.6321650  83.2863204 151.0923027  25.2332598  82.1539525
 149.7184678  23.2541640  81.8470957 149.5795763  22.8860424  82.7196895
 148.9299274  23.7689279  81.6754915 150.3132830  28.3550736  73.1896494
 150.4884585  27.8838779  74.0042116 149.6265618  28.9816502  73.4177754
 151.2689893  22.6323242  79.2359795 150.9339725  22.5924012  80.1317445
 150.7693838  21.9667958  78.7630205 155.8603216  24.6878185  87.1702635
 155.8015762  24.0037405  86.5033218 156.2622734  25.4297175  86.7183261
 144.8793915  31.5040099  79.9636354 145.1190513  32.1358623  80.6415372
 144.0363111  31.1528139  80.2501713 137.5149770  18.9841861  78.7259666
 138.2020810  18.6703591  78.1380681 137.3597899  19.8883225  78.4526917
 149.3921777  27.3119221  82.3677858 149.3191948  28.1174193  82.8797162
 148.9499170  27.5111187  81.5425879 149.1811556  26.5490991  75.8780679
 148.3979078  27.0912672  75.9718904 149.8804302  27.0664971  76.2774921
 151.8520460  27.2106055  84.5236017 152.5648432  27.8453520  84.4511918
 151.3610489  27.3069921  83.7076018 146.9032374  24.9600499  85.3441587
 147.6041833  25.5936982  85.4970982 146.4327489  25.3015230  84.5837227
 155.0286770  23.3018449  73.6289494 155.3046614  23.1875043  74.5383368
 154.1591268  22.9035934  73.5901667 151.6640834  27.5504800  77.2722308
 151.8463228  26.7326455  77.7350060 152.4873820  27.7672492  76.8347198
 151.9982999  26.4772985  74.5337356 152.5270766  25.9665439  73.9207519
 152.2611219  26.1615515  75.3982889 142.5000092  24.4936854  82.2772690
 143.0853529  23.7480542  82.4100594 142.3024930  24.8040811  83.1609354
 145.3538747  27.5288101  77.2935132 144.6849122  28.0134229  76.8099172
 145.2151617  27.7757322  78.2078511 137.0917747  17.0642454  80.9977133
 137.1301846  16.5306045  81.7914251 136.5858039  16.5377660  80.3788110
 149.4944016  29.5631845  83.8917791 150.0462324  29.7263466  84.6566876
 149.8350209  30.1536283  83.2197816 154.3454890  24.3893102  89.7466445
 154.8894794  25.0023061  89.2521400 153.7641735  24.9472681  90.2633458
 152.6312403  27.5113820  80.8781473 152.5063542  26.7103560  80.3692418
 153.2891494  28.0060014  80.3895443 154.6947311  25.3122840  82.5061023
 153.7477647  25.1928192  82.4339350 155.0430084  24.4245339  82.5887284
 151.6993745  25.1075557  78.7065375 151.5518707  24.1792264  78.8872945
 152.5247238  25.1295647  78.2222450 155.3027866  25.9304115  79.7930248
 156.2274414  25.7246977  79.6554699 155.1343170  25.6820517  80.7019589
 155.0923183  26.4489783  75.1492339 155.2660060  25.8836205  74.3966192
 155.5852074  27.2490678  74.9671829 140.9100142  18.4604452  83.2155898
 140.3653611  19.2364260  83.3476173 141.7879492  18.8075256  83.0575020
 156.0798355  25.7656547  72.2489238 156.7749260  26.3863240  72.4676552
 156.4221505  24.9151898  72.5241616 141.6966164  17.5874348  86.1086055
 140.9547900  17.7356984  86.6950686 141.3758909  17.8482614  85.2452805
 149.6409827  27.1290326  85.9066445 149.9496953  26.8839473  86.7789145
 150.4385309  27.3336965  85.4185315 149.6630439  29.2828236  78.1371822
 149.2235429  28.7904615  78.8304678 150.4138556  28.7401204  77.8963897
 142.1422778  25.4739777  78.1396450 142.9680798  25.1743549  77.7595093
 141.7916830  24.7047399  78.5886238 147.1104311  24.8266245  80.2094123
 146.4884320  24.1636950  79.9096351 147.7809178  24.8527377  79.5267771
 140.3431383  23.3926103  79.0985383 139.5063291  22.9648278  78.9169385
 140.3155028  23.5858547  80.0356175 157.6683684  23.8489156  89.0827766
 156.8779228  23.8313295  88.5432266 157.4317039  24.3877450  89.8376803
 146.6717818  23.3770169  73.6852584 146.8205938  24.0605633  73.0319257
 147.4784262  23.3575259  74.2002040 144.4270451  19.4035346  74.6913653
 144.1816493  18.4997676  74.8893863 144.5966366  19.4052497  73.7493131
 150.1713224  25.8718299  71.1564331 149.5987191  26.4908486  70.7034803
 150.7446017  26.4217661  71.6904253 153.3910483  26.1555449  72.2872914
 154.3241157  26.0901011  72.4905789 153.3033696  26.9911716  71.8287446
 156.0198500  25.4721319  69.2476861 155.9412132  25.1381183  70.1412619
 156.8408167  25.9643087  69.2468333 143.4360787  19.1697893  82.6003822
 143.6546797  20.1015000  82.6191856 143.8486561  18.8105867  83.3858626
 139.5269140  20.0738363  80.8527437 138.8332611  19.6592316  80.3397391
 140.2742131  20.1158900  80.2560856 141.4405882  20.0056617  78.7293452
 141.4176570  20.1044304  77.7775335 141.7506519  20.8521768  79.0510618
 144.0993260  22.0632772  82.8440066 145.0536514  22.0316714  82.7769998
 143.9005784  21.6023396  83.6590292 144.6892642  20.6333888  85.4110864
 145.5085531  21.1277967  85.4345701 144.9629450  19.7165856  85.3828431
 142.4543489  27.6052391  79.8610264 142.3197957  26.8452792  79.2948262
 142.0375551  28.3293291  79.3939053 153.5902452  22.7889315  68.8686839
 154.2938302  22.9939317  69.4844495 152.8665101  23.3566077  69.1335923
 145.6112615  28.5021708  80.0728707 145.4944999  29.4467141  79.9707397
 144.7905061  28.1995270  80.4614506 155.4989149  23.2271844  70.9185300
 156.3334753  22.7953043  70.7362774 155.3373492  23.0553858  71.8462194
 152.4680949  22.0352869  91.6095202 153.3372108  22.2093521  91.2481837
 151.9887700  22.8547286  91.4870931 146.6367129  29.1549970  83.2884635
 147.5394376  29.1873580  83.6051130 146.4104499  28.2250421  83.3030971
 148.3920731  27.9080957  79.9494714 147.4416362  27.9082818  79.8359086
 148.6953217  27.1613691  79.4330748 156.7949946  35.5504400  76.9398892
 156.2314811  35.4594337  76.1715180 156.6802341  34.7304304  77.4201384
 154.3414378  37.0455591  79.7783112 155.1335670  36.7046416  79.3629412
 154.5811028  37.1550566  80.6985266 156.3005132  36.3064505  72.6500491
 157.0736008  35.7593492  72.5113367 156.6530531  37.1708754  72.8614953
 158.1390175  37.6340887  85.8567390 157.8480041  38.5386518  85.7414057
 158.7747159  37.6757414  86.5711460 158.6371410  32.4657171  70.2818941
 158.8896931  31.9438692  69.5202404 157.6995969  32.3023316  70.3845625
 158.3567699  34.3685277  72.4843316 158.2403957  33.6930180  73.1524400
 158.4669959  33.8817651  71.6675469 156.5492541  33.7716099  78.8853889
 155.6243038  33.6392313  79.0931580 156.7976955  34.5510318  79.3823831
 153.9101352  33.4149373  79.7197678 154.0393734  33.6683852  80.6337089
 153.2298804  34.0077081  79.4002333 158.0800840  44.0846623  75.8188152
 158.0024869  45.0354448  75.8976632 157.4762483  43.7392495  76.4763078
 157.0700639  36.0536162  80.5921784 157.6401996  36.4823431  79.9539269
 157.6608751  35.7718747  81.2905970 157.5625805  31.2199590  88.8382796
 156.9324466  31.9015870  89.0718193 157.4561893  31.1082671  87.8935934
 152.8570778  30.8871386  79.7648720 152.0669832  31.1428914  79.2888831
 153.3482025  31.7019723  79.8700760 154.8085523  31.2515965  76.7232197
 154.0116687  31.3634659  77.2415692 154.5811115  31.5902617  75.8573087
 151.1408481  31.1401876  82.1963711 151.3916519  32.0248886  82.4621287
 151.6768029  30.9606478  81.4238803 156.8406548  25.5220355  91.2008047
 156.4473494  24.9686554  91.8755691 157.6572689  25.8330934  91.5914564
 153.8068606  36.9604214  75.1121617 154.3193127  37.7547464  75.2627181
 154.4591319  36.2630504  75.0455218 155.6163491  40.0769970  77.1944370
 155.7930119  40.9987935  77.0065354 156.4120324  39.7628389  77.6238750
 154.9015847  32.1234602  87.0706533 154.7869362  31.2219859  87.3713632
 154.0460365  32.3698299  86.7191350 156.7394806  41.5948144  83.1954712
 157.2902231  41.4665207  82.4231706 155.9006282  41.8943033  82.8449605
 151.7717523  35.2892868  75.8881187 152.6092745  35.6989876  75.6714895
 151.9495790  34.3492310  75.8581381 156.6333417  27.6504930  77.4124367
 157.2077169  27.4280112  76.6797560 157.2204400  27.7193625  78.1652968
 156.9603005  29.6809391  71.4320252 156.1240317  30.0184078  71.7529527
 156.8207774  29.5458371  70.4947389 158.9356085  24.5246179  76.1399436
 158.2820498  24.2095196  75.5156051 158.8936559  23.9021920  76.8659259
 151.7943694  32.6283583  76.5591921 151.5968094  32.0352944  75.8342987
 151.2390358  32.3235793  77.2767859 157.7132777  31.1383749  76.4376893
 156.9000643  31.4377920  76.8442085 158.2091772  30.7439438  77.1551375
 157.2046852  28.7102105  82.0538128 157.8446232  28.5690864  81.3561091
 156.3724383  28.4236618  81.6776730 157.9807156  38.0104535  78.1673120
 158.7747755  37.5154856  77.9655695 157.2698849  37.4822399  77.8040826
 154.2889920  32.1547617  74.2432873 153.3587508  32.0932073  74.4602835
 154.3847392  31.6323570  73.4469514 154.2075469  28.6802430  76.8311114
 154.4682286  29.5947763  76.7220275 155.0292641  28.2126873  76.9807727
 155.6800394  30.0940187  84.0009939 156.3523447  29.8857549  83.3522588
 154.8530180  29.8962273  83.5615171 156.0827891  33.3682790  84.7612376
 155.9447689  32.6363029  85.3623915 156.9932815  33.2791690  84.4796564
 157.4239126  30.0667967  86.0691695 156.8876483  29.6158706  86.7213292
 156.8355834  30.2013876  85.3262160 155.7187669  46.8332017  79.9636354
 155.9584268  47.4650541  80.6415372 154.8756866  46.4820057  80.2501713
 156.8341385  29.5256619  68.6318159 155.9570851  29.4045420  68.2680406
 157.3099138  28.7342697  68.3797048 148.3543525  34.3133778  78.7259666
 149.0414565  33.9995509  78.1380681 148.1991654  35.2175143  78.4526917
 153.1578247  29.2023975  83.1544690 153.0736436  28.5949645  82.4195100
 152.3360954  29.6932993  83.1554186 157.7426128  40.2892417  85.3441587
 158.4435588  40.9228900  85.4970982 157.2721243  40.6307148  84.5837227
 153.3393846  39.8228772  82.2772690 153.9247283  39.0772460  82.4100594
 153.1418685  40.1332728  83.1609354 156.1932502  42.8580019  77.2935132
 155.5242877  43.3426147  76.8099172 156.0545371  43.1049239  78.2078511
 147.9311501  32.3934372  80.9977133 147.9695601  31.8597963  81.7914251
 147.4251794  31.8669577  80.3788110 155.3102263  27.2398912  84.4939675
 155.3743590  28.1013743  84.0817073 155.2469384  26.6272914  83.7612034
 154.7854536  29.3122045  88.1412710 155.4126575  28.9299122  88.7550234
 153.9282455  29.0936247  88.5068402 151.5620079  31.1198474  74.0731065
 151.8573520  30.2109152  74.0198118 150.6608114  31.0986213  73.7512067
 155.0914326  29.1954471  80.0558613 154.3700911  29.8090438  79.9166086
 155.8807581  29.7312235  79.9775259 157.8940639  26.5308897  86.3299265
 158.4175041  26.7771194  87.0925574 157.6752972  27.3628932  85.9102402
 153.2907920  28.8012572  74.1970390 152.9620626  27.9209951  74.0145496
 153.6447291  28.7460240  75.0846779 156.4049743  29.0885541  74.5645867
 156.7445816  29.6171463  73.8424476 156.8521864  29.4265948  75.3404434
 159.0993184  27.4722592  84.0148935 158.7590005  26.6730405  84.4169615
 158.3932191  27.7724303  83.4425769 158.3917891  27.5860163  72.7639160
 159.1126253  27.9641416  72.2602877 157.7683195  28.3049040  72.8674138
 157.2748235  31.2491025  80.2768237 157.1292816  31.5631328  81.1692519
 156.7973438  31.8675926  79.7239136 151.7493897  33.7896370  83.2155898
 151.2047365  34.5656178  83.3476173 152.6273247  34.1367174  83.0575020
 158.5381514  27.1207954  75.5936697 158.6597425  26.1924600  75.7927584
 158.2483556  27.1346639  74.6815012 152.5359919  32.9166266  86.1086055
 151.7941655  33.0648901  86.6950686 152.2152663  33.1774532  85.2452805
 152.9816533  40.8031695  78.1396450 153.8074552  40.5035466  77.7595093
 152.6310585  40.0339317  78.5886238 157.9498066  40.1558163  80.2094123
 157.3278075  39.4928868  79.9096351 158.6202933  40.1819295  79.5267771
 151.1825138  38.7218021  79.0985383 150.3457046  38.2940195  78.9169385
 151.1548783  38.9150464  80.0356175 158.0222593  28.6339951  89.8026629
 158.0710749  29.5102074  89.4204399 158.5645107  28.0917344  89.2298273
 157.5111573  38.7062086  73.6852584 157.6599693  39.3897551  73.0319257
 158.3178016  38.6867176  74.2002040 155.2664206  34.7327264  74.6913653
 155.0210248  33.8289594  74.8893863 155.4360120  34.7344414  73.7493131
 154.5359853  30.4655621  72.1899814 153.8429098  30.5399976  71.5339850
 154.2911605  29.7015965  72.7121331 150.4974634  31.7827369  78.8834315
 150.1777418  30.9292677  78.5908689 149.9508062  31.9975947  79.6392283
 154.2754542  34.4989810  82.6003822 154.4940551  35.4306918  82.6191856
 154.6880316  34.1397785  83.3858626 159.1482407  30.0723016  91.9906571
 159.0479134  31.0217373  91.9218662 158.9303949  29.7441255  91.1182641
 158.3495478  27.3207941  68.5747248 159.2114642  27.6462839  68.8343066
 158.5345823  26.5339437  68.0620314 150.3662894  35.4030281  80.8527437
 149.6726366  34.9884233  80.3397391 151.1135885  35.4450817  80.2560856
 159.0113677  33.5020155  90.8071633 158.5280759  34.3020515  91.0135522
 159.0974616  33.5128100  89.8539077 152.2799637  35.3348534  78.7293452
 152.2570325  35.4336222  77.7775335 152.5900273  36.1813685  79.0510618
 154.9387015  37.3924689  82.8440066 155.8930268  37.3608632  82.7769998
 154.7399538  36.9315313  83.6590292 155.5286397  35.9625806  85.4110864
 156.3479286  36.4569884  85.4345701 155.8023204  35.0457774  85.3828431
 153.2937243  42.9344309  79.8610264 153.1591711  42.1744710  79.2948262
 152.8769306  43.6585209  79.3939053 156.4506369  43.8313626  80.0728707
 156.3338753  44.7759058  79.9707397 155.6298815  43.5287188  80.4614506
 150.7821311  30.2963939  86.1103061 151.4280175  29.7862893  86.5990286
 150.5738462  31.0332621  86.6846486 157.4760883  44.4841888  83.2884635
 158.3788130  44.5165498  83.6051130 157.2498253  43.5542339  83.3030971
 155.1218802  27.4431556  90.2078075 155.9850263  27.0868361  90.4181400
 154.5484213  27.1045451  90.8953480 158.7705256  47.7226290  80.9977133
 158.8089355  47.1889880  81.7914251 158.2645548  47.1961495  80.3788110
 155.7187671  23.8394139  66.6881661 155.9584269  24.4712663  67.3660679
 154.8756867  23.4882179  66.9747020 158.7705257  24.7288412  67.7222440
 158.8089356  24.1952003  68.5159558 158.2645550  24.2023618  67.1033417
  53.9811951  92.8697085 165.1796207  53.3299931  93.4551166 164.7930221
  54.7756314  93.4003280 165.2391245  47.9067578  89.9586223 165.5783342
  48.6798454  89.4115210 165.4396217  48.2592977  90.8230472 165.7897803
  50.2433856  86.1178889 163.2101792  50.4959377  85.5960410 162.4485255
  49.3058415  85.9545034 163.3128475  55.4587216  90.5587517 165.7165192
  54.8233049  90.6322144 166.4286096  55.1284623  91.1481116 165.0384271
  49.9630145  88.0206995 165.4126167  49.8466403  87.3451898 166.0807251
  50.0732405  87.5339369 164.5958320  51.9467173  82.5107041 164.1134204
  52.1141575  83.3787278 164.4804675  51.7564342  82.6734323 163.1895494
  51.9256394  84.9664699 165.0980871  51.8056019  85.4121750 165.9366351
  51.2308982  85.3150017 164.5394409  49.6863286  97.7368341 168.7471002
  49.6087316  98.6876166 168.8259483  49.0824930  97.3914213 169.4045929
  57.6241460  85.4386172 165.9261205  58.5359316  85.6713559 165.7508903
  57.1151107  86.0223216 165.3636284  60.1100274  91.3566428 170.6719150
  59.4251312  91.7365330 170.1216184  60.1944124  91.9661755 171.4051098
  51.7839004  90.1586399 170.5824872  52.2477350  90.4374102 169.7929494
  51.5195802  89.2569843 170.3997962  50.7207890  86.2809551 167.3914437
  51.4231934  86.7330595 167.8588363  50.3888519  85.6393370 168.0194330
  66.5703027  88.2237091 171.7921823  65.8166735  87.6544489 171.6365827
  66.7050568  88.1899756 172.7392457  51.9601655  93.0950494 167.4676542
  51.8247330  93.9402029 167.8961390  52.5011467  93.2969771 166.7042476
  45.4131052  90.6125932 168.0404467  45.9255573  91.4069182 168.1910032
  46.0653765  89.9152222 167.9738069  47.2225937  93.7291688 170.1227220
  47.3992565  94.6509653 169.9348204  48.0182770  93.4150107 170.5521600
  55.2744401  86.6089667 164.5047871  54.7591025  87.3794271 164.7436258
  55.0021710  85.9354803 165.1280932  60.2478675  89.3622021 166.4401044
  59.4708118  89.0233181 165.9956206  60.9270156  89.3674644 165.7656009
  55.0630704  84.4816759 166.3307652  54.7580840  84.7962908 167.1817795
  56.0161146  84.5598179 166.3734985  53.5077136  90.6406982 167.9800606
  52.9798498  89.9059742 167.6673843  53.0064639  91.4181658 167.7340574
  58.4869982  88.8356003 173.0967652  57.8293657  89.5255264 173.1847781
  59.2910381  89.2252435 173.4401638  57.2975441  87.1900375 171.1471594
  57.8107323  87.8230367 171.6493304  57.9476665  86.5901571 170.7814954
  48.5665451  83.3331109 164.3603103  47.7302763  83.6705796 164.6812377
  48.4270221  83.1980089 163.4230240  51.6529736  88.4587192 160.9835579
  50.7456798  88.2276446 161.1826728  52.1500768  87.6624812 161.1709560
  54.5597815  97.1684700 163.9032265  53.8859514  97.4716396 164.5117223
  54.9463637  97.9713780 163.5537722  54.5591320  86.0641246 168.5232615
  55.3063139  86.5762644 168.2139737  54.8282909  85.7425299 169.3837008
  52.8317970  88.5599787 165.5059569  51.9229189  88.2758820 165.6032039
  52.8613054  88.9798866 164.6462876  58.0637237  92.1706377 169.2750736
  57.6099564  91.3297287 169.3315927  57.4331204  92.8067775 169.6125517
  56.5070176  94.0082873 170.2100555  56.7993151  94.5687931 169.4912920
  57.0168797  94.3011434 170.9653714  52.5294058  90.1008531 162.8447647
  52.0913488  89.3844390 162.3853285  53.2704498  90.3284646 162.2832739
  51.4703802  94.7863224 171.2994008  51.4279980  95.0124071 170.3702540
  52.3866501  94.5526599 171.4479809  60.6467172  88.3765728 168.9023966
  60.5085071  88.5667324 167.9745155  60.2903391  89.1385111 169.3592017
  60.6736552  90.4442255 173.9135238  61.1073059  90.3517544 174.7618292
  61.3868133  90.4199755 173.2755254  52.7589030  97.3364372 166.1179344
  52.9340786  96.8652415 166.9324967  52.0721818  97.9630138 166.3460605
  56.6505285  88.9592913 162.4379705  56.0334456  88.2339741 162.3412758
  56.1821774  89.7202273 162.0946779  48.4403831  83.1778337 161.5601009
  47.5633297  83.0567138 161.1963256  48.9161584  82.3864415 161.3079898
  51.6267757  95.5304627 168.8063530  50.8435279  96.0726307 168.9001754
  52.3260502  96.0478607 169.2057771  62.7894165  87.0439622 173.0916027
  62.7784041  87.9264338 172.7209960  61.9211544  86.6911173 172.8970564
  56.0194188  90.0970944 169.0236159  55.0850467  90.2172406 168.8540863
  56.1970856  89.1943411 168.7596168  59.4066739  85.9388263 169.5586193
  59.8727192  86.7716255 169.4846495  59.8574240  85.4733245 170.2631451
  57.4742970  92.2832084 166.5572345  57.7502814  92.1688679 167.4666219
  56.6047469  91.8849569 166.5184518  54.1097034  96.5318435 170.2005158
  54.2919429  95.7140091 170.6632911  54.9330020  96.7486128 169.7630048
  54.4439200  95.4586620 167.4620207  54.9726966  94.9479075 166.8490369
  54.7067420  95.1429151 168.3265740  47.7994948  96.5101737 170.2217983
  47.1305323  96.9947865 169.7382023  47.6607818  96.7570958 171.1361361
  55.0768604  96.4927456 173.8064323  54.9519743  95.6917196 173.2975269
  55.7347695  96.9873650 173.3178293  57.1403512  94.2936476 175.4343873
  56.1933848  94.1741827 175.3622200  57.4886285  93.4058974 175.5170135
  54.1449945  94.0889192 171.6348226  53.9974908  93.1605900 171.8155796
  54.9703439  94.1109283 171.1505301  57.7484067  94.9117751 172.7213098
  58.6730615  94.7060613 172.5837550  57.5799371  94.6634152 173.6302440
  54.1411460  81.9427030 166.6280343  54.3575074  82.8251668 166.3269171
  53.6605527  81.5513244 165.8985985  57.5379383  95.4303419 168.0775190
  57.7116261  94.8649841 167.3249042  58.0308275  96.2304314 167.8954680
  63.3918775  88.1939842 169.6965490  63.8349921  87.4447167 169.2984613
  62.5145285  88.1849978 169.3139222  58.5254556  94.7470183 165.1772088
  59.2205461  95.3676876 165.3959403  58.8677706  93.8965534 165.4524466
  60.4245979  92.1969889 166.7059419  60.9497303  92.5357161 165.9808739
  60.3368332  91.2616904 166.5222554  52.1086640  98.2641872 171.0654672
  51.6691630  97.7718251 171.7587529  52.8594757  97.7214840 170.8246747
  49.1174019  92.3583804 166.6135434  49.2662139  93.0419269 165.9602107
  49.9240462  92.3388894 167.1284890  62.9351639  89.6645080 172.0887937
  63.7698531  90.1034884 172.2525498  63.0710768  89.1883733 171.2696183
  52.6169424  94.8531935 164.0847182  52.0443391  95.4722122 163.6317654
  53.1902218  95.4031296 164.6187104  55.8366684  95.1369085 165.2155764
  56.7697357  95.0714647 165.4188640  55.7489897  95.9725352 164.7570297
  58.4654701  94.4534955 162.1759712  58.3868332  94.1194819 163.0695470
  59.2864368  94.9456723 162.1751184  53.0016223  86.1892747 161.4263234
  53.9475328  86.0598956 161.4951652  52.6230468  85.4507409 161.9032662
  66.9809442  88.3812701 174.5242067  67.7112830  88.1197989 175.0849770
  66.3716387  87.6441423 174.5644135  51.1859140  84.1142724 161.3618119
  50.2790595  83.8175837 161.4380833  51.4635121  83.8172542 160.4952406
  49.9557925  80.9729659 161.5030099  50.8177089  81.2984557 161.7625916
  50.1408269  80.1861155 160.9903164  56.8915439  82.0058276 167.7021670
  56.0041294  82.2907927 167.4841865  57.3069428  81.8452039 166.8548947
  56.0358653  91.7702951 161.7969690  56.7394503  91.9752953 162.4127346
  55.3121301  92.3379712 162.0618773  56.8656463  87.5212812 167.9171960
  56.8091664  87.9781363 167.0779593  57.4184805  86.7603496 167.7394803
  60.6761269  83.3102544 168.7422080  60.4198203  82.9099179 169.5730287
  60.0514137  84.0246338 168.6172219  64.9873607  86.0498617 171.2493371
  64.4273165  86.1191806 172.0224933  64.3817110  85.8739602 170.5292867
  57.9445350  92.2085480 163.8468150  58.7790954  91.7766678 163.6645625
  57.7829693  92.0367493 164.7745044  57.5991242  88.7117593 165.2124489
  57.5440046  88.5461865 164.2712933  56.9737298  89.4193626 165.3686679
  50.8376932  96.8894593 172.8777564  49.8872563  96.8896454 172.7641937
  51.1409418  96.1427327 172.3613599  59.2406147 104.5318035 169.8681742
  58.6771012 104.4407972 169.0998030  59.1258542 103.7117940 170.3484235
  64.8205706 108.1989003 165.1796207  64.1693686 108.7843084 164.7930221
  65.6150069 108.7295198 165.2391245  58.7461333 105.2878140 165.5783342
  59.5192209 104.7407127 165.4396217  59.0986732 106.1522390 165.7897803
  61.0827611 101.4470806 163.2101792  61.3353131 100.9252328 162.4485255
  60.1452170 101.2836952 163.3128475  66.2980971 105.8879435 165.7165192
  65.6626804 105.9614062 166.4286096  65.9678377 106.4773034 165.0384271
  60.8023900 103.3498912 165.4126167  60.6860158 102.6743816 166.0807251
  60.9126159 102.8631286 164.5958320  63.1455440 102.8109059 169.1172856
  62.7813648 102.2839680 169.8285777  64.0022556 102.4207529 168.9439341
  62.7860927  97.8398959 164.1134204  62.9535330  98.7079196 164.4804675
  62.5958097  98.0026241 163.1895494  62.7650148 100.2956617 165.0980871
  62.6449774 100.7413667 165.9366351  62.0702737 100.6441934 164.5394409
  68.4635214 100.7678090 165.9261205  69.3753071 101.0005477 165.7508903
  67.9544862 101.3515134 165.3636284  61.5601645 101.6101469 167.3914437
  62.2625688 102.0622512 167.8588363  61.2282273 100.9685288 168.0194330
  55.3026979  99.8685021 172.6931570  54.5126033 100.1242550 172.2171681
  55.7938226 100.6833359 172.7983611  57.2541724 100.2329601 169.6515047
  56.4572887 100.3448295 170.1698543  57.0267316 100.5716253 168.7855938
  56.2524807 105.9417849 168.0404467  56.7649327 106.7361100 168.1910032
  56.9047520 105.2444140 167.9738069  54.2173724 104.2706504 168.8164038
  55.0548946 104.6803512 168.5997745  54.3951991 103.3305946 168.7864232
  66.1138156 101.9381584 164.5047871  65.5984779 102.7086189 164.7436258
  65.8415464 101.2646721 165.1280932  63.6985267  96.7831285 169.5633109
  62.8426863  96.3938136 169.3838748  64.1112218  96.8623246 168.7032895
  61.4727299  94.4016358 172.9690850  62.3380296  94.2059167 172.6096740
  61.5404808  94.1726710 173.8960207  65.9024459  99.8108676 166.3307652
  65.5974594 100.1254826 167.1817795  66.8554901  99.8890096 166.3734985
  64.3470891 105.9698900 167.9800606  63.8192252 105.2351659 167.6673843
  63.8458393 106.7473576 167.7340574  59.0789618  96.6318566 170.3407217
  59.6533370  96.4093748 169.6080410  59.6660601  96.7007261 171.0935819
  59.4059205  98.6623027 164.3603103  58.5696518  98.9997714 164.6812377
  59.2663975  98.5272007 163.4230240  61.3812286  93.5059815 169.0682287
  60.7276698  93.1908832 168.4438902  61.3392760  92.8835555 169.7942110
  62.4923491 103.7879110 160.9835579  61.5850553 103.5568363 161.1826728
  62.9894523 102.9916729 161.1709560  65.3985074 101.3933164 168.5232615
  66.1456893 101.9054561 168.2139737  65.6676664 101.0717217 169.3837008
  63.6711724 103.8891705 165.5059569  62.7622944 103.6050738 165.6032039
  63.7006808 104.3090783 164.6462876  67.8463911  98.4290280 170.5051404
  67.1086668  97.9167667 170.8361646  68.0990685  97.9890662 169.6934681
  67.9475539  91.2066532 171.0993173  68.2534415  90.3463896 170.8119088
  68.6728143  91.7984153 170.8992167  54.2399895 101.6097219 169.4874771
  54.0424294 101.0166580 168.7625838  53.6846559 101.3049429 170.2050710
  63.3687812 105.4300449 162.8447647  62.9307242 104.7136307 162.3853285
  64.1098253 105.6576563 162.2832739  60.1588978 100.1197385 169.3659743
  59.3456844 100.4191556 169.7724935  60.6547972  99.7253074 170.0834225
  56.7346120 101.1361253 167.1715723  55.8043708 101.0745708 167.3885685
  56.8303592 100.6137206 166.3752364  56.6531669  97.6616066 169.7593965
  56.9138487  98.5761399 169.6503125  57.4748842  97.1940508 169.9090578
  67.4899040 104.2884830 162.4379705  66.8728210 103.5631658 162.3412758
  67.0215528 105.0494190 162.0946779  59.2797586  98.5070255 161.5601009
  58.4027052  98.3859055 161.1963256  59.7555339  97.7156333 161.3079898
  55.6034448  98.1837611 176.0827540  55.5192637  97.5763280 175.3477950
  54.7817154  98.6746629 176.0837037  65.7758162  96.6691174 171.4497735
  66.2726861  95.9161137 171.1298805  65.0045143  96.7055491 170.8840945
  62.3593131  98.8108557 171.1769420  61.9890918  98.2579598 171.8650325
  62.8552223  98.2066691 170.6244420  54.0076279 100.1012110 167.0013915
  54.3029721  99.1922788 166.9480969  53.1064315 100.0799849 166.6794917
  57.5370526  98.1768106 172.9841464  56.8157112  98.7904074 172.8448937
  58.3263782  98.7125871 172.9058110  55.7364121  97.7826207 167.1253240
  55.4076827  96.9023586 166.9428346  56.0903492  97.7273876 168.0129629
  58.8505944  98.0699177 167.4928718  59.1902017  98.5985098 166.7707326
  59.2978065  98.4079583 168.2687284  60.8374091  96.5673799 165.6922011
  61.5582454  96.9455052 165.1885727  60.2139395  97.2862676 165.7956989
  64.9805214  97.2718948 166.6280343  65.1968829  98.1543586 166.3269171
  64.4999281  96.8805161 165.8985985  61.5800818  97.2207209 173.2531977
  61.5662387  96.3248302 172.9164275  62.2973247  97.2277873 173.8870263
  60.9837714  96.1021589 168.5219547  61.1053626  95.1738235 168.7210435
  60.6939757  96.1160275 167.6097863  63.8528905  93.7876500 171.6586267
  63.8750602  93.8515833 170.7038247  64.2696964  92.9481008 171.8526773
  59.9567773 107.6875722 166.6135434  60.1055894 108.3711186 165.9602107
  60.7634217 107.6680812 167.1284890  57.7120406 103.7140900 167.6196503
  57.4666448 102.8103230 167.8176713  57.8816321 103.7158050 166.6775981
  56.9816054  99.4469257 165.1182665  56.2885299  99.5213612 164.4622701
  56.7367806  98.6829601 165.6404182  65.6529710  91.0064859 172.5222155
  65.9331464  90.3388048 173.1482582  66.4380317  91.1993954 172.0096819
  63.4563179 110.1823852 164.0847182  62.8837146 110.8014040 163.6317654
  64.0295973 110.7323214 164.6187104  69.3048455 109.7826873 162.1759712
  69.2262087 109.4486736 163.0695470  70.1258122 110.2748641 162.1751184
  63.8409977 101.5184665 161.4263234  64.7869082 101.3890873 161.4951652
  63.4624222 100.7799327 161.9032662  69.8131862  93.1840671 171.3890126
  69.6156683  92.8755759 172.2733458  70.4231568  93.9102310 171.5188056
  62.0252895  99.4434642 161.3618119  61.1184350  99.1467754 161.4380833
  62.3028876  99.1464460 160.4952406  52.9430835 100.7641005 171.8117166
  52.6233619  99.9106313 171.5191540  52.3964263 100.9789583 172.5675133
  63.6414960  93.9871531 167.5162361  62.8315689  93.6418616 167.8917607
  64.3299377  93.6779075 168.1049972  65.5705509  93.0649578 169.1386657
  66.1236547  93.4845031 169.7976681  65.8075595  92.1385326 169.1809613
  60.7951679  96.3021577 161.5030099  61.6570843  96.6276475 161.7625916
  60.9802023  95.5153073 160.9903164  68.9484316  95.1750103 168.6465322
  68.3682985  95.8334907 168.2643374  68.6820248  94.3527448 168.2352739
  67.3987882  94.5755161 170.8486642  67.8987660  94.6871695 170.0400961
  68.0423490  94.2716214 171.4887450  54.7255837 104.3162170 171.6576302
  54.7026526 104.4149857 170.7058185  55.0356474 105.1627321 171.9793468
  67.7309194  97.3350194 167.7021670  66.8435049  97.6199844 167.4841865
  68.1463183  97.1743957 166.8548947  66.8752407 107.0994868 161.7969690
  67.5788257 107.3044871 162.4127346  66.1515056 107.6671630 162.0618773
  67.7050217 102.8504730 167.9171960  67.6485419 103.3073281 167.0779593
  68.2578560 102.0895414 167.7394803  71.5155023  98.6394461 168.7422080
  71.2591958  98.2391097 169.5730287  70.8907891  99.3538255 168.6172219
  68.7839105 107.5377397 163.8468150  69.6184708 107.1058596 163.6645625
  68.6223447 107.3659411 164.7745044  68.4384997 104.0409511 165.2124489
  68.3833801 103.8753782 164.2712933  67.8131052 104.7485544 165.3686679
  61.7481122  93.5417620 164.7909808  61.7359792  94.4859460 164.9478079
  62.6404544  93.3587765 164.4969269  65.5633242  90.1360396 169.0455744
  64.7965637  89.5818883 169.1912427  65.9743947  90.2082265 169.9069896
  53.9811953  69.8759208 151.9041514  53.3299932  70.4613288 151.5175528
  54.7756315  70.4065403 151.9636551  47.9067580  66.9648345 152.3028648
  48.6798456  66.4177332 152.1641524  48.2592979  67.8292595 152.5143110
  50.2433858  63.1241011 149.9347098  50.4959378  62.6022533 149.1730561
  49.3058417  62.9607157 150.0373782  55.4587218  67.5649640 152.4410498
  54.8233051  67.6384267 153.1531403  55.1284624  68.1543239 151.7629577
  49.9630146  65.0269117 152.1371473  49.8466404  64.3514021 152.8052557
  50.0732406  64.5401491 151.3203626  51.9467174  59.5169164 150.8379511
  52.1141577  60.3849400 151.2049982  51.7564343  59.6796446 149.9140800
  51.9256395  61.9726822 151.8226178  51.8056020  62.4183872 152.6611658
  51.2308983  62.3212139 151.2639716  49.6863287  74.7430463 155.4716309
  49.6087317  75.6938288 155.5504790  49.0824931  74.3976336 156.1291235
  57.6241461  62.4448295 152.6506512  58.5359317  62.6775682 152.4754209
  57.1151108  63.0285339 152.0881590  60.1100275  68.3628551 157.3964457
  59.4251314  68.7427452 156.8461490  60.1944125  68.9723878 158.1296405
  51.7839005  67.1648521 157.3070178  52.2477351  67.4436224 156.5174801
  51.5195804  66.2631966 157.1243269  50.7207892  63.2871674 154.1159743
  51.4231935  63.7392717 154.5833670  50.3888520  62.6455493 154.7439637
  66.5703028  65.2299214 158.5167129  65.8166736  64.6606612 158.3611134
  66.7050569  65.1961878 159.4637764  51.9601656  70.1012616 154.1921849
  51.8247331  70.9464152 154.6206696  52.5011469  70.3031894 153.4287782
  45.4131054  67.6188054 154.7649774  45.9255574  68.4131305 154.9155338
  46.0653766  66.9214345 154.6983375  47.2225938  70.7353811 156.8472527
  47.3992567  71.6571775 156.6593511  48.0182772  70.4212230 157.2766907
  55.2744402  63.6151789 151.2293177  54.7591026  64.3856394 151.4681565
  55.0021711  62.9416925 151.8526239  60.2478677  66.3684144 153.1646351
  59.4708119  66.0295303 152.7201513  60.9270158  66.3736767 152.4901316
  55.0630706  61.4878881 153.0552958  54.7580841  61.8025031 153.9063102
  56.0161148  61.5660301 153.0980291  53.5077137  67.6469105 154.7045912
  52.9798499  66.9121864 154.3919150  53.0064640  68.4243781 154.4585881
  58.4869983  65.8418125 159.8212959  57.8293658  66.5317387 159.9093087
  59.2910383  66.2314557 160.1646945  57.2975442  64.1962498 157.8716900
  57.8107324  64.8292490 158.3738610  57.9476666  63.5963693 157.5060260
  48.5665452  60.3393232 151.0848409  47.7302764  60.6767919 151.4057684
  48.4270222  60.2042212 150.1475546  51.6529738  65.4649315 147.7080885
  50.7456799  65.2338568 147.9072034  52.1500770  64.6686934 147.8954867
  54.5597816  74.1746822 150.6277572  53.8859515  74.4778519 151.2362529
  54.9463638  74.9775902 150.2783029  54.5591321  63.0703369 155.2477921
  55.3063140  63.5824766 154.9385043  54.8282910  62.7487422 156.1082315
  52.8317971  65.5661910 152.2304876  51.9229190  65.2820943 152.3277345
  52.8613055  65.9860988 151.3708182  58.0637238  69.1768499 155.9996043
  57.6099566  68.3359409 156.0561234  57.4331205  69.8129898 156.3370823
  56.5070178  71.0144996 156.9345861  56.7993152  71.5750053 156.2158227
  57.0168798  71.3073557 157.6899020  52.5294059  67.1070653 149.5692954
  52.0913489  66.3906512 149.1098591  53.2704500  67.3346768 149.0078046
  51.4703803  71.7925347 158.0239314  51.4279982  72.0186193 157.0947846
  52.3866502  71.5588722 158.1725116  60.6467174  65.3827851 155.6269273
  60.5085072  65.5729447 154.6990462  60.2903392  66.1447233 156.0837324
  60.6736553  67.4504378 160.6380544  61.1073060  67.3579667 161.4863598
  61.3868134  67.4261878 160.0000560  52.7589032  74.3426495 152.8424651
  52.9340787  73.8714538 153.6570273  52.0721820  74.9692261 153.0705912
  56.6505286  65.9655035 149.1625012  56.0334457  65.2401863 149.0658064
  56.1821775  66.7264395 148.8192086  47.3250117  77.4915857 159.6164511
  47.5646715  78.1234381 160.2943530  46.4819313  77.1403897 159.9029870
  48.4403832  60.1840459 148.2846316  47.5633299  60.0629260 147.9208563
  48.9161585  59.3926538 148.0325205  51.6267758  72.5366750 155.5308836
  50.8435280  73.0788430 155.6247061  52.3260504  73.0540729 155.9303078
  62.7894166  64.0501745 159.8161333  62.7784042  64.9326460 159.4455266
  61.9211545  63.6973296 159.6215870  56.0194189  67.1033066 155.7481465
  55.0850468  67.2234529 155.5786170  56.1970858  66.2005533 155.4841475
  59.4066741  62.9450386 156.2831499  59.8727193  63.7778377 156.2091802
  59.8574241  62.4795367 156.9876758  57.4742972  69.2894207 153.2817651
  57.7502816  69.1750802 154.1911526  56.6047470  68.8911692 153.2429825
  54.1097036  73.5380558 156.9250465  54.2919430  72.7202214 157.3878217
  54.9330022  73.7548250 156.4875355  54.4439201  72.4648743 154.1865514
  54.9726968  71.9541198 153.5735676  54.7067421  72.1491273 155.0511047
  47.7994949  73.5163860 156.9463289  47.1305324  74.0009987 156.4627330
  47.6607819  73.7633080 157.8606668  55.0768605  73.4989579 160.5309630
  54.9519744  72.6979319 160.0220576  55.7347696  73.9935772 160.0423600
  57.1403513  71.2998599 162.1589180  56.1933849  71.1803950 162.0867507
  57.4886286  70.4121097 162.2415442  54.1449947  71.0951315 158.3593532
  53.9974909  70.1668022 158.5401102  54.9703440  71.1171406 157.8750608
  57.7484069  71.9179874 159.4458405  58.6730616  71.7122735 159.3082856
  57.5799372  71.6696275 160.3547747  54.1411461  58.9489153 153.3525650
  54.3575075  59.8313791 153.0514478  53.6605528  58.5575366 152.6231292
  57.5379385  72.4365541 154.8020497  57.7116262  71.8711964 154.0494349
  58.0308276  73.2366436 154.6199986  63.3918776  65.2001964 156.4210796
  63.8349922  64.4509289 156.0229920  62.5145286  65.1912101 156.0384528
  58.5254557  71.7532306 151.9017395  59.2205462  72.3738998 152.1204709
  58.8677707  70.9027657 152.1769773  60.4245980  69.2032011 153.4304726
  60.9497304  69.5419284 152.7054046  60.3368333  68.2679026 153.2467860
  52.1086641  75.2703994 157.7899979  51.6691631  74.7780373 158.4832835
  52.8594758  74.7276962 157.5492054  49.1174020  69.3645927 153.3380741
  49.2662141  70.0481391 152.6847414  49.9240464  69.3451017 153.8530197
  62.9351641  66.6707202 158.8133244  63.7698532  67.1097007 158.9770804
  63.0710769  66.1945856 157.9941490  52.6169426  71.8594057 150.8092488
  52.0443393  72.4784244 150.3562960  53.1902219  72.4093419 151.3432410
  55.8366685  72.1431207 151.9401071  56.7697359  72.0776769 152.1433946
  55.7489898  72.9787474 151.4815603  58.4654702  71.4597078 148.9005018
  58.3868334  71.1256941 149.7940776  59.2864369  71.9518846 148.8996491
  53.0016224  63.1954870 148.1508541  53.9475329  63.0661078 148.2196959
  52.6230469  62.4569532 148.6277969  66.9809443  65.3874824 161.2487374
  67.7112832  65.1260112 161.8095077  66.3716389  64.6503546 161.2889442
  51.1859141  61.1204846 148.0863426  50.2790597  60.8237959 148.1626140
  51.4635122  60.8234665 147.2197712  49.9557926  57.9791782 148.2275405
  50.8177090  58.3046680 148.4871223  50.1408270  57.1923278 147.7148471
  56.8915440  59.0120399 154.4266977  56.0041295  59.2970049 154.2087171
  57.3069430  58.8514162 153.5794253  56.0358654  68.7765073 148.5214997
  56.7394504  68.9815076 149.1372652  55.3121303  69.3441835 148.7864080
  56.8656464  64.5274934 154.6417267  56.8091666  64.9843486 153.8024899
  57.4184807  63.7665619 154.4640110  60.6761270  60.3164666 155.4667386
  60.4198204  59.9161302 156.2975594  60.0514138  61.0308460 155.3417525
  64.9873608  63.0560740 157.9738678  64.4273166  63.1253929 158.7470240
  64.3817111  62.8801724 157.2538174  48.0568817  74.4897467 159.7256864
  47.9401201  75.4342899 159.6235554  47.2361263  74.1871028 160.1142663
  57.9445351  69.2147602 150.5713457  58.7790955  68.7828801 150.3890931
  57.7829694  69.0429616 151.4990351  57.5991243  65.7179716 151.9369796
  57.5440047  65.5523987 150.9958240  56.9737299  66.4255749 152.0931986
  50.8376933  73.8956715 159.6022871  49.8872564  73.8958577 159.4887243
  51.1409419  73.1489450 159.0858906  66.5729626  79.7317254 160.6668633
  67.2108036  79.6124001 159.9631973  66.4550469  80.6798097 160.7256586
  63.3819333  79.6844682 160.6030158  63.0437844  79.5685746 159.7150693
  64.2509101  79.2835847 160.5831164  59.2406148  81.5380158 156.5927049
  58.6771014  81.4470095 155.8243337  59.1258543  80.7180062 157.0729542
  63.8639116  80.8379533 166.5616364  63.8527756  80.4432332 165.6896867
  64.0259755  80.1045606 167.1550135  56.7870580  83.0331350 159.4311269
  57.5791872  82.6922174 159.0157569  57.0267230  83.1426325 160.3513423
  64.8205707  85.2051126 151.9041514  64.1693687  85.7905206 151.5175528
  65.6150070  85.7357321 151.9636551  58.7461334  82.2940263 152.3028648
  59.5192210  81.7469250 152.1641524  59.0986733  83.1584512 152.5143110
  60.5846377  83.6216645 165.5095548  60.2936243  84.5262276 165.3942214
  61.2203361  83.6633173 166.2239617  61.5102584  80.9993494 162.0996907
  62.1066156  80.7749516 161.3853870  61.5677555  80.2578239 162.7022355
  61.0827612  78.4532929 149.9347098  61.3353133  77.9314450 149.1730561
  60.1452171  78.2899074 150.0373782  66.1270895  77.4568707 157.7421841
  66.9133984  77.0388131 157.3912258  66.3909599  78.3614800 157.9103490
  66.2980972  82.8941558 152.4410498  65.6626805  82.9676184 153.1531403
  65.9678379  83.4835157 151.7629577  71.5279322  77.3943941 158.6454820
  72.2604494  76.8243157 158.8792649  70.7718678  77.0065541 159.0861325
  60.8023901  80.3561035 152.1371473  60.6860159  79.6805938 152.8052557
  60.9126161  79.8693409 151.3203626  63.1455442  79.8171182 155.8418162
  62.7813649  79.2901803 156.5531084  64.0022558  79.4269651 155.6684648
  69.0504742  71.1065515 163.1049429  68.7188067  71.9760926 162.8810644
  68.4550356  70.7901799 163.7843459  62.7860929  74.8461082 150.8379511
  62.9535331  75.7141318 151.2049982  62.5958098  75.0088363 149.9140800
  65.5436262  83.3078061 162.5045341  65.2436985  84.2103099 162.3961148
  65.1987321  83.0410244 163.3566494  58.9948743  79.7591858 158.5382046
  58.0699240  79.6268072 158.7459737  59.2433157  80.5386077 159.0351988
  68.9433406  75.8260601 160.1842779  68.0350283  75.7576009 159.8901540
  68.8921001  76.3032546 161.0124604  62.7650150  77.3018739 151.8226178
  62.6449775  77.7475790 152.6611658  62.0702738  77.6504057 151.2639716
  56.3557554  79.4025131 159.3725835  56.4849936  79.6559610 160.2865246
  55.6755006  79.9952839 159.0530490  60.5257042  90.0722381 155.4716309
  60.4481071  91.0230206 155.5504790  59.9218685  89.7268254 156.1291235
  63.0174271  77.2450246 168.1277676  62.2407606  77.8044167 168.1180540
  63.6564835  77.7307029 168.6492546  70.8095052  74.0277039 161.9620652
  70.1669432  74.3209572 161.3160447  70.3049981  73.9129960 162.7673849
  68.4635216  77.7740212 152.6506512  69.3753072  78.0067599 152.4754209
  67.9544863  78.3577257 152.0881590  61.2720644  80.0535700 167.6895643
  62.0135328  80.5920744 167.4130466  60.5657629  80.6801989 167.8467195
  66.7475983  82.1964840 166.2867804  67.1559339  81.7547251 165.5422437
  66.0253245  81.6217468 166.5401997  63.1007053  77.1337447 163.6601361
  63.9468249  77.5576861 163.8036010  63.0405691  76.4771071 164.3539924
  67.0704798  82.7566031 160.0420093  66.4413661  82.9211745 159.3396161
  66.6830460  83.1707640 160.8131057  70.9494030  83.6920469 157.3964457
  70.2645068  84.0719370 156.8461490  71.0337879  84.3015795 158.1296405
  66.2506499  74.7941815 165.3182535  66.0067431  75.5483876 164.7816811
  66.5266429  75.1727163 166.1529782  68.2044962  81.3380428 163.9959801
  68.4161857  81.9812188 163.3194182  68.1574710  80.5042744 163.5281731
  65.8071191  73.9498248 160.8996373  64.9455670  74.2479502 161.1913110
  65.8333625  74.1668647 159.9677405  62.6232760  82.4940439 157.3070178
  63.0871105  82.7728142 156.5174801  62.3589558  81.5923884 157.1243269
  59.5156841  82.0411921 160.2449942  60.0858198  82.4699189 159.6067426
  60.1064953  81.7594505 160.9434127  61.5601646  78.6163591 154.1159743
  62.2625689  79.0684635 154.5833670  61.2282274  77.9747410 154.7439637
  55.3026980  76.8747144 159.4176877  54.5126034  77.1304673 158.9416988
  55.7938227  77.6895482 159.5228918  69.3190790  84.2152383 162.1682158
  70.1408233  83.8132570 161.8864839  69.3153192  84.1120617 163.1198274
  57.2541725  77.2391723 156.3760354  56.4572889  77.3510418 156.8943849
  57.0267318  77.5778375 155.5101244  63.0847393  83.7636426 164.3242868
  63.1491825  84.2256834 165.1601040  62.3758317  83.1333791 164.4525178
  53.5864683  77.1277634 161.8491868  53.8372721  78.0124644 162.1149444
  54.1224231  76.9482236 161.0766960  77.4096783  80.5591132 158.5167129
  76.6560491  79.9898530 158.3611134  77.5444324  80.5253796 159.4637764
  62.7995411  85.4304534 154.1921849  62.6641085  86.2756070 154.6206696
  63.3405223  85.6323812 153.4287782  56.2524808  82.9479972 154.7649774
  56.7649329  83.7423222 154.9155338  56.9047521  82.2506262 154.6983375
  58.0619693  86.0645728 156.8472527  58.2386321  86.9863693 156.6593511
  58.8576526  85.7504147 157.2766907  64.4263887  86.0528100 168.3222191
  63.9827741  85.2664479 168.0043095  65.0881101  86.2407251 167.6566082
  59.1851008  87.5823902 162.8482869  59.7358433  87.4540965 162.0759863
  58.3462484  87.8818791 162.4977762  66.5245125  86.3330900 166.3503592
  66.5063600  87.1539781 165.8583861  67.4465045  86.2084976 166.5753733
  62.9818179  83.8475030 167.1927100  63.5146516  83.0863318 166.9626408
  62.4532260  83.5548682 167.9351255  66.1487874  68.9535096 162.7220742
  65.8052144  69.8436738 162.6459853  66.5166837  68.7636753 161.8590327
  54.2173725  81.2768626 155.5409344  55.0548947  81.6865635 155.3243052
  54.3951992  80.3368068 155.5109538  66.1138157  78.9443707 151.2293177
  65.5984780  79.7148312 151.4681565  65.8415465  78.2708843 151.8526239
  63.6985268  73.7893408 156.2878416  62.8426864  73.4000258 156.1084054
  64.1112220  73.8685369 155.4278201  65.2284415  71.3239751 160.6869975
  64.7249210  71.2869886 159.8737781  65.5215021  72.2332494 160.7466632
  61.4727300  71.4078481 159.6936157  62.3380297  71.2121289 159.3342047
  61.5404809  71.1788832 160.6205514  71.0872431  81.6976062 153.1646351
  70.3101874  81.3587221 152.7201513  71.7663912  81.7028685 152.4901316
  65.9024460  76.8170799 153.0552958  65.5974596  77.1316948 153.9063102
  66.8554902  76.8952219 153.0980291  64.3470892  82.9761022 154.7045912
  63.8192253  82.2413782 154.3919150  63.8458395  83.7535699 154.4585881
  69.3263738  81.1710043 159.8212959  68.6687412  81.8609304 159.9093087
  70.1304137  81.5606475 160.1646945  59.0789620  73.6380689 157.0652524
  59.6533371  73.4155870 156.3325717  59.6660602  73.7069383 157.8181125
  68.1369197  79.5254416 157.8716900  68.6501078  80.1584407 158.3738610
  68.7870421  78.9255611 157.5060260  59.4059207  75.6685150 151.0848409
  58.5696519  76.0059836 151.4057684  59.2663976  75.5334129 150.1475546
  61.3812287  70.5121938 155.7927593  60.7276700  70.1970955 155.1684208
  61.3392761  69.8897678 156.5187416  62.4923492  80.7941233 147.7080885
  61.5850554  80.5630486 147.9072034  62.9894524  79.9978852 147.8954867
  65.3991571  89.5038740 150.6277572  64.7253270  89.8070437 151.2362529
  65.7857393  90.3067820 150.2783029  64.6150028  77.0003871 160.1175241
  63.6972589  77.2218818 159.9596929  65.0310171  77.0750182 159.2586948
  65.3985075  78.3995287 155.2477921  66.1456894  78.9116684 154.9385043
  65.6676665  78.0779339 156.1082315  63.6711726  80.8953827 152.2304876
  62.7622945  80.6112860 152.3277345  63.7006809  81.3152906 151.3708182
  68.9030993  84.5060417 155.9996043  68.4493320  83.6651327 156.0561234
  68.2724960  85.1421815 156.3370823  67.8463913  75.4352403 157.2296711
  67.1086669  74.9229789 157.5606953  68.0990686  74.9952785 156.4179987
  67.3463932  86.3436914 156.9345861  67.6386907  86.9041971 156.2158227
  67.8562553  86.6365475 157.6899020  67.9475540  68.2128655 157.8238480
  68.2534417  67.3526018 157.5364395  68.6728145  68.8046275 157.6237474
  54.2399896  78.6159342 156.2120078  54.0424296  78.0228702 155.4871144
  53.6846560  78.3111552 156.9296017  62.2196620  78.5082448 158.3314671
  62.2745229  77.5556284 158.2557147  61.4087822  78.6641887 158.8155969
  63.3687813  82.4362571 149.5692954  62.9307243  81.7198430 149.1098591
  64.1098254  82.6638686 149.0078046  60.1588980  77.1259508 156.0905050
  59.3456845  77.4253678 156.4970242  60.6547974  76.7315197 156.8079532
  62.3097557  87.1217265 158.0239314  62.2673736  87.3478111 157.0947846
  63.2260256  86.8880639 158.1725116  65.7563191  77.5901332 164.9219944
  66.1112579  77.8172805 165.7814409  66.4035322  77.9219709 164.2997199
  71.4860928  80.7119768 155.6269273  71.3478827  80.9021364 154.6990462
  71.1297147  81.4739151 156.0837324  59.6503054  74.6977863 161.7066285
  60.2902434  74.5566622 161.0089248  58.8180585  74.4112377 161.3304887
  71.5130308  82.7796295 160.6380544  71.9466814  82.6871584 161.4863598
  72.2261888  82.7553796 160.0000560  60.4263358  83.9980294 157.8201277
  61.2203957  83.5030614 157.6183852  59.7155051  83.4698157 157.4568983
  65.2458203  86.3798389 162.1713645  65.2995225  86.9489326 162.9391361
  64.3772984  86.5500274 161.8067682  56.7346122  78.1423376 153.8961030
  55.8043710  78.0807831 154.1130992  56.8303594  77.6199328 153.0997671
  56.6531671  74.6678188 156.4839272  56.9138488  75.5823522 156.3748432
  57.4748843  74.2002631 156.6335884  58.1256596  76.0815946 163.6538096
  58.7979649  75.8733308 163.0050745  57.2986383  75.8838032 163.2143328
  72.3745857  82.8219996 163.1713430  72.5681747  83.7265806 163.4172705
  72.2746475  82.3627415 164.0052015  64.0282168  72.7077886 165.6703757
  63.3810083  73.4067836 165.5768233  64.7983183  73.1414030 166.0380005
  67.4360966  82.9726739 168.7454310  67.2846472  82.7437290 167.8284394
  67.4265645  83.9297340 168.7585655  64.2046302  80.5458651 163.7300577
  65.1338362  80.6969811 163.5569544  63.7837332  80.6342672 162.8749223
  63.0034634  84.5709316 161.4999114  62.8645720  84.2028100 162.3725052
  62.2149230  85.0856955 161.3283072  63.5982786  89.6718412 152.8424651
  63.7734542  89.2006455 153.6570273  62.9115574  90.2984178 153.0705912
  64.5539849  83.9490918 158.8887952  64.2189682  83.9091688 159.7845602
  64.0543795  83.2835634 158.4158362  58.5284093  79.3558548 164.4140533
  58.3903891  78.6238787 165.0152072  59.4389017  79.2667449 164.1324721
  67.4899041  81.2946953 149.1625012  66.8728212  80.5693781 149.0658064
  67.0215529  82.0556313 148.8192086  61.1566394  79.0678508 163.9024213
  61.8666012  78.4271700 163.8610831  61.1135702  79.3191403 164.8250394
  69.1453173  86.0045861 166.8230792  69.0865719  85.3205081 166.1561375
  69.5472691  86.7464851 166.3711418  58.1643871  92.8207775 159.6164511
  58.4040470  93.4526299 160.2943530  57.3213068  92.4695815 159.9029870
  59.2797587  75.5132377 148.2846316  58.4027053  75.3921178 147.9208563
  59.7555340  74.7218455 148.0325205  69.1470580  83.9685445 165.0544772
  68.2597359  83.6311367 165.1771171  69.7169131  83.2368476 165.2913537
  50.7999727  80.3009537 158.3787823  51.4870767  79.9871267 157.7908838
  50.6447856  81.2050901 158.1055075  55.6034449  75.1899733 162.8072847
  55.5192638  74.5825403 162.0723257  54.7817156  75.6808752 162.8082343
  62.6771733  88.6286897 162.0206015  62.6041905  89.4341869 162.5325319
  62.2349126  88.8278863 161.1954036  62.4661513  87.8658667 155.5308836
  61.6829035  88.4080348 155.6247061  63.1654258  88.3832647 155.9303078
  65.7758163  73.6753297 158.1743042  66.2726863  72.9223259 157.8544112
  65.0045145  73.7117614 157.6086251  73.6287920  79.3793662 159.8161333
  73.6177797  80.2618378 159.4455266  72.7605300  79.0265213 159.6215870
  65.1370417  88.5273731 164.1764174  65.8498389  89.1621196 164.1040075
  64.6460445  88.6237597 163.3604175  66.8587944  82.4324984 155.7481465
  65.9244222  82.5526447 155.5786170  67.0364612  81.5297451 155.4841475
  62.3593132  75.8170680 157.9014726  61.9890919  75.2641720 158.5895632
  62.8552224  75.2128813 157.3489727  70.2460495  78.2742303 156.2831499
  70.7120947  79.1070295 156.2091802  70.6967996  77.8087285 156.9876758
  60.1882330  86.2768175 164.9969744  60.8891790  86.9104658 165.1499139
  59.7177445  86.6182906 164.2365384  68.3136726  84.6186125 153.2817651
  68.5896570  84.5042719 154.1911526  67.4441225  84.2203610 153.2429825
  68.2177158  70.6422890 160.3222401  67.3040238  70.8727117 160.4904608
  68.6470259  70.7261334 161.1736433  67.9883616  78.8312782 162.8222295
  67.3355067  79.0788690 162.1674748  68.3663996  78.0176921 162.4884772
  64.9490790  88.8672476 156.9250465  65.1313185  88.0494131 157.3878217
  65.7723776  89.0840168 156.4875355  65.2832956  87.7940661 154.1865514
  65.8120722  87.2833115 153.5735676  65.5461175  87.4783191 155.0511047
  55.7850048  85.8104530 161.9300847  56.3703485  85.0648218 162.0628751
  55.5874887  86.1208487 162.8137511  58.6388704  88.8455777 156.9463289
  57.9699079  89.3301905 156.4627330  58.5001573  89.0924998 157.8606668
  50.3767703  78.3810130 160.6505290  50.4151803  77.8473721 161.4442408
  49.8707996  77.8545336 160.0316267  62.7793972  90.8799521 163.5445948
  63.3312280  91.0431142 164.3095033  63.1200166  91.4703959 162.8725973
  67.6304847  85.7060778 169.3994602  68.1744751  86.3190737 168.9049557
  67.0491691  86.2640357 169.9161615  54.0076281  77.1074232 153.7259222
  54.3029722  76.1984911 153.6726275  53.1064316  77.0861972 153.4040224
  65.9162359  88.8281496 160.5309630  65.7913499  88.0271236 160.0220576
  66.5741451  89.3227690 160.0423600  57.5370528  75.1830229 159.7086770
  56.8157113  75.7966197 159.5694244  58.3263783  75.7187994 159.6303416
  67.9797268  86.6290517 162.1589180  67.0327603  86.5095868 162.0867507
  68.3280041  85.7413015 162.2415442  55.7364122  74.7888330 153.8498547
  55.4076828  73.9085709 153.6673653  56.0903493  74.7335999 154.7374936
  64.9843701  86.4243233 158.3593532  64.8368664  85.4959940 158.5401102
  65.8097195  86.4463323 157.8750608  58.8505945  75.0761300 154.2174024
  59.1902018  75.6047221 153.4952633  59.2978066  75.4141706 154.9932591
  68.5877823  87.2471791 159.4458405  69.5124370  87.0414653 159.3082856
  68.4193126  86.9988193 160.3547747  61.5449386  73.4598351 163.6677093
  61.2046207  72.6606164 164.0697772  60.8388393  73.7600061 163.0953926
  62.1965858  70.5447663 162.1204416  63.0191927  70.0708141 161.9983306
  62.4403922  71.3238147 162.6203102  60.8374093  73.5735921 152.4167317
  61.5582455  73.9517174 151.9131034  60.2139397  74.2924798 152.5202295
  64.9805215  74.2781070 153.3525650  65.1968830  75.1605708 153.0514478
  64.4999283  73.8867284 152.6231292  59.7204437  77.2366784 159.9296394
  59.5749018  77.5507087 160.8220676  59.2429640  77.8551684 159.3767293
  61.5800820  74.2269332 159.9777284  61.5662388  73.3310425 159.6409582
  62.2973248  74.2339995 160.6115570  63.4326950  74.6606672 162.0230411
  63.1744728  75.5823742 162.0214742  62.9011991  74.2637106 162.7130875
  68.3773139  87.7657459 154.8020497  68.5510017  87.2003881 154.0494349
  68.8702030  88.5658354 154.6199986  54.1950099  79.7772128 162.8684055
  53.6503567  80.5531936 163.0004330  55.0729449  80.1242932 162.7103177
  60.9837716  73.1083712 155.2464854  61.1053627  72.1800358 155.4455741
  60.6939758  73.1222398 154.3343169  63.8528906  70.7938622 158.3831574
  63.8750603  70.8577955 157.4283553  64.2696965  69.9543131 158.5772080
  74.2312530  80.5293882 156.4210796  74.6743676  79.7801207 156.0229920
  73.3539041  80.5204018 156.0384528  69.3648312  87.0824223 151.9017395
  70.0599216  87.7030916 152.1204709  69.7071462  86.2319575 152.1769773
  71.2639735  84.5323929 153.4304726  71.7891059  84.8711202 152.7054046
  71.1762087  83.5970944 153.2467860  62.9259784  88.4458002 165.5594602
  63.2346910  88.2007149 166.4317302  63.7235266  88.6504641 165.0713472
  62.9480396  90.5995912 157.7899979  62.5085386  90.1072291 158.4832835
  63.6988513  90.0568880 157.5492054  55.4272735  86.7907453 157.7924607
  56.2530754  86.4911225 157.4123250  55.0766787  86.0215075 158.2414396
  60.3954268  86.1433921 159.8622280  59.7734277  85.4804626 159.5624508
  61.0659135  86.1695053 159.1795928  53.6281340  84.7093779 158.7513540
  52.7913248  84.2815954 158.5697542  53.6004985  84.9026223 159.6884332
  70.9533641  85.1656832 168.7355924  70.1629185  85.1480971 168.1960423
  70.7166995  85.7045126 169.4904960  71.0731516  82.0149299 166.0488652
  71.1229521  81.8499306 166.9904175  70.9645439  81.1476558 165.6586533
  59.9567775  84.6937845 153.3380741  60.1055895  85.3773309 152.6847414
  60.7634218  84.6742935 153.8530197  68.3635278  77.9980227 167.3647959
  69.2645141  77.8586692 167.0731957  68.4383253  78.1634682 168.3046136
  62.6978084  75.3747082 166.2101145  61.8281393  75.6680648 165.9383734
  62.9337564  75.9587527 166.9308409  72.5749713  84.4346240 166.2930674
  72.2834521  84.7976221 167.1294135  71.9621844  83.7213249 166.1144006
  73.7745395  81.9999120 158.8133244  74.6092286  82.4388924 158.9770804
  73.9104524  81.5237773 157.9941490  70.8236901  79.5578855 164.7610732
  71.2991023  79.7506501 163.9529583  69.9002466  79.6138041 164.5154115
  57.7120408  80.7203022 154.3441810  57.4666450  79.8165352 154.5422020
  57.8816322  80.7220173 153.4021288  65.4017117  71.5926699 163.7266566
  65.9199061  72.3287725 163.4013054  65.0472250  71.8990692 164.5613325
  56.9816055  76.4531380 151.8427971  56.2885300  76.5275735 151.1868007
  56.7367807  75.6891723 152.3649488  65.6529712  68.0126981 159.2467462
  65.9331465  67.3450170 159.8727889  66.4380319  68.2056077 158.7342126
  63.4563180  87.1885975 150.8092488  62.8837147  87.8076162 150.3562960
  64.0295974  87.7385337 151.3432410  69.5238570  76.4344615 162.9939037
  70.4755993  76.5342713 163.0151261  69.3542020  75.6422884 163.5037122
  67.5452949  73.5200198 163.1798438  66.9502882  73.8005211 162.4844927
  67.2602646  74.0094099 163.9515179  66.6760440  87.4723125 151.9401071
  67.6091113  87.4068687 152.1433946  66.5883653  88.3079392 151.4815603
  69.3048457  86.7888995 148.9005018  69.2262088  86.4548859 149.7940776
  70.1258123  87.2810763 148.8996491  72.0026648  79.6550735 162.1081337
  71.9702968  78.7166736 162.2941021  72.6127271  79.7334771 161.3747162
  63.8409979  78.5246788 148.1508541  64.7869083  78.3952996 148.2196959
  63.4624224  77.7861450 148.6277969  72.1521136  76.4461778 162.1539620
  71.6360185  75.6620235 161.9669549  73.0361085  76.1180495 162.3186140
  69.8131863  70.1902794 158.1135433  69.6156684  69.8817882 158.9978765
  70.4231569  70.9164433 158.2433363  77.8203198  80.7166742 161.2487374
  78.5506586  80.4552030 161.8095077  77.2110143  79.9795464 161.2889442
  75.9018495  78.8574604 161.8461825  75.1751658  78.7230569 161.2378316
  75.4865782  79.1651433 162.6518543  63.7248671  82.5764534 169.6109198
  64.6451681  82.7543133 169.8049244  63.6898254  81.6320579 169.4588897
  62.0252896  76.4496764 148.0863426  61.1184351  76.1529877 148.1626140
  62.3028877  76.1526582 147.2197712  52.9430836  77.7703128 158.5362473
  52.6233621  76.9168436 158.2436847  52.3964264  77.9851706 159.2920440
  56.7210744  80.4865569 162.2531979  56.9396754  81.4182676 162.2720013
  57.1336518  80.1273543 163.0386783  63.6414962  70.9933654 154.2407667
  62.8315690  70.6480739 154.6162914  64.3299378  70.6841198 154.8295279
  65.5705510  70.0711701 155.8631964  66.1236548  70.4907154 156.5221987
  65.8075596  69.1447449 155.9054920  60.7951680  73.3083699 148.2275405
  61.6570844  73.6338598 148.4871223  60.9802025  72.5215195 147.7148471
  52.8119096  81.3906039 160.5055594  52.1182568  80.9759992 159.9925549
  53.5592087  81.4326576 159.9089013  68.9484317  72.1812226 155.3710628
  68.3682986  72.8397030 154.9888681  68.6820250  71.3589570 154.9598046
  67.3987883  71.5817284 157.5731949  67.8987662  71.6933818 156.7646267
  68.0423491  71.2778336 158.2132757  54.7255839  81.3224293 158.3821609
  54.7026527  81.4211980 157.4303492  55.0356475  82.1689444 158.7038775
  57.3843217  83.3800448 162.4968223  58.3386470  83.3484390 162.4298155
  57.1855740  82.9191072 163.3118449  57.9742599  81.9501564 165.0639021
  58.7935488  82.4445643 165.0873858  58.2479406  81.0333532 165.0356589
  67.7309195  74.3412316 154.4266977  66.8435050  74.6261967 154.2087171
  68.1463184  74.1806080 153.5794253  71.0823731  74.3658837 158.1421316
  71.8584121  74.8555290 158.4145933  70.3571865  74.7916891 158.5993185
  73.5196290  75.0786456 159.1995256  74.1140780  74.8382192 158.4888565
  73.5922873  74.3593587 159.8268793  55.7393445  88.9220067 159.5138421
  55.6047913  88.1620468 158.9476419  55.3225508  89.6460967 159.0467210
  66.8752408  84.1056991 148.5214997  67.5788259  84.3106993 149.1372652
  66.1515057  84.6733753 148.7864080  67.7050219  79.8566852 154.6417267
  67.6485420  80.3135404 153.8024899  68.2578561  79.0957537 154.4640110
  71.5155025  75.6456584 155.4667386  71.2591959  75.2453220 156.2975594
  70.8907893  76.3600378 155.3417525  75.8267362  78.3852657 157.9738678
  75.2666920  78.4545847 158.7470240  75.2210866  78.2093642 157.2538174
  58.8962571  89.8189384 159.7256864  58.7794955  90.7634817 159.6235554
  58.0755018  89.5162946 160.1142663  68.7839106  84.5439520 150.5713457
  69.6184710  84.1120719 150.3890931  68.6223449  84.3721534 151.4990351
  68.4384998  81.0471633 151.9369796  68.3833802  80.8815905 150.9958240
  67.8131053  81.7547666 152.0931986  65.7530905  83.3520545 171.2623359
  66.6222065  83.5261198 170.9009994  65.2737657  84.1714962 171.1399088
  61.7481123  70.5479742 151.5155114  61.7359793  71.4921582 151.6723385
  62.6404545  70.3649888 151.2214576  59.9217085  90.4717646 162.9412792
  60.8244332  90.5041257 163.2579287  59.6954455  89.5418097 162.9559128
  61.6770687  89.2248633 159.6022871  60.7266318  89.2250494 159.4887243
  61.9803174  88.4781367 159.0858906  65.5633243  67.1422519 155.7701051
  64.7965639  66.5881006 155.9157733  65.9743948  67.2144388 156.6315203
  77.4123381  95.0609171 160.6668633  78.0501791  94.9415919 159.9631973
  77.2944224  96.0090015 160.7256586  74.2213087  95.0136599 160.6030158
  73.8831599  94.8977664 159.7150693  75.0902855  94.6127764 160.5831164
  70.0799903  96.8672076 156.5927049  69.5164768  96.7762013 155.8243337
  69.9652298  96.0471980 157.0729542  74.7032870  96.1671451 166.5616364
  74.6921511  95.7724249 165.6896867  74.8653510  95.4337524 167.1550135
  67.6264335  98.3623267 159.4311269  68.4185627  98.0214092 159.0157569
  67.8660985  98.4718242 160.3513423  75.6599462 100.5343043 151.9041514
  75.0087441 101.1197124 151.5175528  76.4543824 101.0649238 151.9636551
  69.5855089  97.6232181 152.3028648  70.3585965  97.0761168 152.1641524
  69.9380488  98.4876430 152.5143110  71.4240131  98.9508563 165.5095548
  71.1329997  99.8554194 165.3942214  72.0597116  98.9925090 166.2239617
  72.3496338  96.3285411 162.0996907  72.9459910  96.1041434 161.3853870
  72.4071310  95.5870157 162.7022355  71.9221367  93.7824847 149.9347098
  72.1746887  93.2606368 149.1730561  70.9845926  93.6190992 150.0373782
  76.9664649  92.7860625 157.7421841  77.7527739  92.3680048 157.3912258
  77.2303354  93.6906717 157.9103490  77.1374727  98.2233475 152.4410498
  76.5020560  98.2968102 153.1531403  76.8072133  98.8127074 151.7629577
  82.3673077  92.7235858 158.6454820  83.0998248  92.1535075 158.8792649
  81.6112432  92.3357459 159.0861325  71.6417655  95.6852953 152.1371473
  71.5253913  95.0097856 152.8052557  71.7519915  95.1985327 151.3203626
  73.9849196  95.1463100 155.8418162  73.6207403  94.6193721 156.5531084
  74.8416312  94.7561569 155.6684648  79.8898497  86.4357432 163.1049429
  79.5581822  87.3052843 162.8810644  79.2944110  86.1193716 163.7843459
  73.6254683  90.1752999 150.8379511  73.7929086  91.0433236 151.2049982
  73.4351852  90.3380281 149.9140800  76.3830016  98.6369978 162.5045341
  76.0830739  99.5395017 162.3961148  76.0381076  98.3702162 163.3566494
  69.8342498  95.0883775 158.5382046  68.9092994  94.9559989 158.7459737
  70.0826911  95.8677994 159.0351988  79.7827160  91.1552519 160.1842779
  78.8744038  91.0867927 159.8901540  79.7314756  91.6324463 161.0124604
  73.6043904  92.6310657 151.8226178  73.4843529  93.0767708 152.6611658
  72.9096492  92.9795975 151.2639716  67.1951309  94.7317049 159.3725835
  67.3243690  94.9851528 160.2865246  66.5148760  95.3244757 159.0530490
  71.3650796 105.4014299 155.4716309  71.2874826 106.3522124 155.5504790
  70.7612440 105.0560171 156.1291235  73.8568026  92.5742164 168.1277676
  73.0801360  93.1336084 168.1180540  74.4958589  93.0598947 168.6492546
  81.6488807  89.3568957 161.9620652  81.0063187  89.6501490 161.3160447
  81.1443735  89.2421877 162.7673849  79.3028970  93.1032130 152.6506512
  80.2146826  93.3359517 152.4754209  78.7938617  93.6869174 152.0881590
  72.1114398  95.3827617 167.6895643  72.8529083  95.9212661 167.4130466
  71.4051384  96.0093906 167.8467195  77.5869738  97.5256758 166.2867804
  77.9953094  97.0839168 165.5422437  76.8646999  96.9509385 166.5401997
  73.9400808  92.4629365 163.6601361  74.7862003  92.8868778 163.8036010
  73.8799446  91.8062989 164.3539924  77.9098553  98.0857949 160.0420093
  77.2807415  98.2503663 159.3396161  77.5224215  98.4999558 160.8131057
  81.7887784  99.0212386 157.3964457  81.1038823  99.4011288 156.8461490
  81.8731634  99.6307713 158.1296405  77.0900253  90.1233733 165.3182535
  76.8461185  90.8775794 164.7816811  77.3660184  90.5019081 166.1529782
  79.0438716  96.6672345 163.9959801  79.2555611  97.3104105 163.3194182
  78.9968464  95.8334662 163.5281731  76.6464945  89.2790166 160.8996373
  75.7849424  89.5771420 161.1913110  76.6727380  89.4960565 159.9677405
  73.4626514  97.8232357 157.3070178  73.9264860  98.1020060 156.5174801
  73.1983313  96.9215801 157.1243269  70.3550595  97.3703838 160.2449942
  70.9251953  97.7991107 159.6067426  70.9458707  97.0886423 160.9434127
  72.3995400  93.9455509 154.1159743  73.1019444  94.3976553 154.5833670
  72.0676029  93.3039328 154.7439637  70.8475762  92.5367266 168.4910953
  70.2174423  93.2183547 168.7246350  70.7411850  92.4250347 167.5464091
  66.1420734  92.2039062 159.4176877  65.3519788  92.4596590 158.9416988
  66.6331982  93.0187400 159.5228918  80.1584544  99.5444301 162.1682158
  80.9801988  99.1424488 161.8864839  80.1546947  99.4412535 163.1198274
  68.0935480  92.5683641 156.3760354  67.2966643  92.6802335 156.8943849
  67.8661072  92.9070293 155.5101244  73.9241147  99.0928344 164.3242868
  73.9885580  99.5548751 165.1601040  73.2152071  98.4625709 164.4525178
  64.4258437  92.4569552 161.8491868  64.6766476  93.3416562 162.1149444
  64.9617986  92.2774154 161.0766960  88.2490537  95.8883049 158.5167129
  87.4954245  95.3190447 158.3611134  88.3838078  95.8545714 159.4637764
  73.6389165 100.7596452 154.1921849  73.5034840 101.6047987 154.6206696
  74.1798978 100.9615729 153.4287782  70.1256505  86.8388031 170.8536204
  69.7323450  86.2854230 171.5283848  70.9422645  87.1498610 171.2442721
  67.0918562  98.2771890 154.7649774  67.6043083  99.0715140 154.9155338
  67.7441275  97.5798180 154.6983375  68.9013447 101.3937646 156.8472527
  69.0780076 102.3155611 156.6593511  69.6970281 101.0796065 157.2766907
  73.0424466  88.2545911 168.4456460  73.7834179  88.8553064 168.3660923
  73.2742389  87.5123548 167.8874503  68.1865804  93.4402278 166.7234690
  68.0719319  92.5387535 167.0241789  67.3310321  93.6865975 166.3719507
  70.0244763 102.9115820 162.8482869  70.5752188 102.7832883 162.0759863
  69.1856239 103.2110709 162.4977762  73.8211934  99.1766948 167.1927100
  74.3540271  98.4155236 166.9626408  73.2926015  98.8840599 167.9351255
  76.9881629  84.2827014 162.7220742  76.6445898  85.1728655 162.6459853
  77.3560591  84.0928671 161.8590327  65.0567479  96.6060544 155.5409344
  65.8942701  97.0157552 155.3243052  65.2345747  95.6659986 155.5109538
  76.9531911  94.2735625 151.2293177  76.4378535  95.0440229 151.4681565
  76.6809220  93.6000761 151.8526239  74.5379022  89.1185325 156.2878416
  73.6820619  88.7292176 156.1084054  74.9505974  89.1977286 155.4278201
  76.0678169  86.6531669 160.6869975  75.5642965  86.6161804 159.8737781
  76.3608776  87.5624411 160.7466632  72.3121055  86.7370398 159.6936157
  73.1774052  86.5413207 159.3342047  72.3798564  86.5080750 160.6205514
  81.9266186  97.0267979 153.1646351  81.1495628  96.6879139 152.7201513
  82.6057667  97.0320602 152.4901316  76.7418215  92.1462717 153.0552958
  76.4368350  92.4608866 153.9063102  77.6948657  92.2244137 153.0980291
  75.1864646  98.3052940 154.7045912  74.6586008  97.5705700 154.3919150
  74.6852149  99.0827616 154.4585881  80.1657492  96.5001961 159.8212959
  79.5081167  97.1901222 159.9093087  80.9697892  96.8898392 160.1646945
  69.9183374  88.9672606 157.0652524  70.4927126  88.7447788 156.3325717
  70.5054356  89.0361301 157.8181125  78.9762951  94.8546333 157.8716900
  79.4894833  95.4876325 158.3738610  79.6264175  94.2547529 157.5060260
  70.2452961  90.9977067 151.0848409  69.4090273  91.3351754 151.4057684
  70.1057731  90.8626047 150.1475546  72.2206042  85.8413855 155.7927593
  71.5670454  85.5262872 155.1684208  72.1786516  85.2189596 156.5187416
  73.3317247  96.1233150 147.7080885  72.4244308  95.8922404 147.9072034
  73.8288279  95.3270770 147.8954867  76.2385325 104.8330657 150.6277572
  75.5647024 105.1362354 151.2362529  76.6251147 105.6359738 150.2783029
  75.4543782  92.3295789 160.1175241  74.5366343  92.5510736 159.9596929
  75.8703926  92.4042099 159.2586948  76.2378830  93.7287204 155.2477921
  76.9850649  94.2408602 154.9385043  76.5070419  93.4071257 156.1082315
  74.5105480  96.2245745 152.2304876  73.6016699  95.9404778 152.3277345
  74.5400564  96.6444824 151.3708182  79.7424747  99.8352335 155.9996043
  79.2887075  98.9943245 156.0561234  79.1118714 100.4713733 156.3370823
  78.6857667  90.7644321 157.2296711  77.9480424  90.2521707 157.5606953
  78.9384441  90.3244702 156.4179987  78.1857687 101.6728831 156.9345861
  78.4780661 102.2333888 156.2158227  78.6956307 101.9657392 157.6899020
  78.7869294  83.5420573 157.8238480  79.0928171  82.6817936 157.5364395
  79.5121899  84.1338193 157.6237474  65.0793650  93.9451259 156.2120078
  64.8818050  93.3520620 155.4871144  64.5240314  93.6403469 156.9296017
  73.0590374  93.8374366 158.3314671  73.1138984  92.8848202 158.2557147
  72.2481576  93.9933805 158.8155969  74.2081568  97.7654489 149.5692954
  73.7700998  97.0490348 149.1098591  74.9492009  97.9930604 149.0078046
  70.9982734  92.4551426 156.0905050  70.1850600  92.7545596 156.4970242
  71.4941728  92.0607114 156.8079532  73.1491312 102.4509182 158.0239314
  73.1067491 102.6770029 157.0947846  74.0654011 102.2172557 158.1725116
  76.5956946  92.9193250 164.9219944  76.9506333  93.1464723 165.7814409
  77.2429077  93.2511627 164.2997199  82.3254683  96.0411686 155.6269273
  82.1872581  96.2313282 154.6990462  81.9690901  96.8031069 156.0837324
  70.4896809  90.0269781 161.7066285  71.1296188  89.8858540 161.0089248
  69.6574339  89.7404294 161.3304887  82.3524062  98.1088213 160.6380544
  82.7860569  98.0163502 161.4863598  83.0655643  98.0845713 160.0000560
  71.2657113  99.3272211 157.8201277  72.0597711  98.8322532 157.6183852
  70.5548805  98.7990075 157.4568983  76.0851957 101.7090307 162.1713645
  76.1388979 102.2781243 162.9391361  75.2166738 101.8792192 161.8067682
  67.5739876  93.4715293 153.8961030  66.6437464  93.4099749 154.1130992
  67.6697348  92.9491246 153.0997671  67.4925425  89.9970106 156.4839272
  67.7532242  90.9115439 156.3748432  68.3142597  89.5294549 156.6335884
  68.9650351  91.4107863 163.6538096  69.6373404  91.2025225 163.0050745
  68.1380137  91.2129949 163.2143328  83.2139612  98.1511914 163.1713430
  83.4075502  99.0557724 163.4172705  83.1140230  97.6919333 164.0052015
  74.8675923  88.0369804 165.6703757  74.2203838  88.7359754 165.5768233
  75.6376938  88.4705948 166.0380005  75.0440057  95.8750569 163.7300577
  75.9732117  96.0261729 163.5569544  74.6231087  95.9634590 162.8749223
  73.8428389  99.9001233 161.4999114  73.7039474  99.5320018 162.3725052
  73.0542985 100.4148873 161.3283072  74.4376541 105.0010330 152.8424651
  74.6128296 104.5298373 153.6570273  73.7509329 105.6276096 153.0705912
  75.3933604  99.2782836 158.8887952  75.0583436  99.2383606 159.7845602
  74.8937549  98.6127552 158.4158362  69.3677848  94.6850466 164.4140533
  69.2297646  93.9530705 165.0152072  70.2782771  94.5959366 164.1324721
  78.3292795  96.6238870 149.1625012  77.7121966  95.8985699 149.0658064
  77.8609284  97.3848231 148.8192086  71.9960148  94.3970426 163.9024213
  72.7059767  93.7563618 163.8610831  71.9529457  94.6483320 164.8250394
  70.7089082  91.3835643 165.7219852  70.1726439  90.9326382 166.3741449
  70.1205791  91.5181552 164.9790317  69.0037626 108.1499693 159.6164511
  69.2434224 108.7818217 160.2943530  68.1606822 107.7987733 159.9029870
  70.1191341  90.8424295 148.2846316  69.2420808  90.7213096 147.9208563
  70.5949094  90.0510373 148.0325205  79.9864334  99.2977363 165.0544772
  79.0991113  98.9603285 165.1771171  80.5562885  98.5660394 165.2913537
  61.6393481  95.6301455 158.3787823  62.3264521  95.3163185 157.7908838
  61.4841610  96.5342819 158.1055075  66.4428204  90.5191651 162.8072847
  66.3586392  89.9117321 162.0723257  65.6210910  91.0100669 162.8082343
  73.5165488 103.9578815 162.0206015  73.4435659 104.7633787 162.5325319
  73.0742881 104.1570781 161.1954036  73.3055267 103.1950585 155.5308836
  72.5222789 103.7372265 155.6247061  74.0048013 103.7124565 155.9303078
  76.6151918  89.0045215 158.1743042  77.1120617  88.2515177 157.8544112
  75.8438899  89.0409531 157.6086251  84.4681675  94.7085580 159.8161333
  84.4571551  95.5910296 159.4455266  83.5999054  94.3557131 159.6215870
  77.6981698  97.7616902 155.7481465  76.7637977  97.8818364 155.5786170
  77.8758367  96.8589369 155.4841475  73.1986886  91.1462598 157.9014726
  72.8284674  90.5933638 158.5895632  73.6945979  90.5420731 157.3489727
  81.0854250  93.6034221 156.2831499  81.5514702  94.4362213 156.2091802
  81.5361750  93.1379203 156.9876758  71.0276085 101.6060093 164.9969744
  71.7285544 102.2396576 165.1499139  70.5571200 101.9474824 164.2365384
  79.1530481  99.9478042 153.2817651  79.4290325  99.8334637 154.1911526
  78.2834979  99.5495527 153.2429825  79.0570912  85.9714808 160.3222401
  78.1433992  86.2019035 160.4904608  79.4864014  86.0553252 161.1736433
  78.8277371  94.1604700 162.8222295  78.1748821  94.4080608 162.1674748
  79.2057751  93.3468838 162.4884772  75.7884545 104.1964393 156.9250465
  75.9706939 103.3786049 157.3878217  76.6117531 104.4132085 156.4875355
  76.1226710 103.1232578 154.1865514  76.6514477 102.6125033 153.5735676
  76.3854930 102.8075109 155.0511047  74.8764944  94.9024511 169.3088332
  74.2005581  94.8018640 169.9790707  75.6992578  94.7463725 169.7724329
  66.6243803 101.1396448 161.9300847  67.2097240 100.3940136 162.0628751
  66.4268641 101.4500404 162.8137511  69.4782458 104.1747695 156.9463289
  68.8092833 104.6593823 156.4627330  69.3395328 104.4216916 157.8606668
  61.2161458  93.7102048 160.6505290  61.2545557  93.1765639 161.4442408
  60.7101750  93.1837253 160.0316267  68.5952220  88.5566588 164.1467833
  68.6593546  89.4181419 163.7345230  68.5319340  87.9440590 163.4140191
  68.0704492  90.6289721 167.7940867  68.6976531  90.2466798 168.4078391
  67.2132411  90.4103923 168.1596559  64.8470035  92.4366150 153.7259222
  65.1423476  91.5276828 153.6726275  63.9458071  92.4153889 153.4040224
  76.7556114 104.1573414 160.5309630  76.6307253 103.3563154 160.0220576
  77.4135205 104.6519607 160.0423600  68.3764282  90.5122147 159.7086770
  67.6550868  91.1258114 159.5694244  69.1657538  91.0479911 159.6303416
  78.8191022 101.9582434 162.1589180  77.8721358 101.8387785 162.0867507
  79.1673795 101.0704932 162.2415442  71.1790596  87.8476573 165.9827422
  71.7024998  88.0938870 166.7453731  70.9602929  88.6796608 165.5630559
  66.5757877  90.1180248 153.8498547  66.2470583  89.2377627 153.6673653
  66.9297247  90.0627916 154.7374936  75.8237456 101.7535150 158.3593532
  75.6762418 100.8251858 158.5401102  76.6490949 101.7755241 157.8750608
  69.6899700  90.4053217 154.2174024  70.0295772  90.9339139 153.4952633
  70.1371820  90.7433624 154.9932591  79.4271577 102.5763709 159.4458405
  80.3518125 102.3706570 159.3082856  79.2586881 102.3280110 160.3547747
  72.3843141  88.7890268 163.6677093  72.0439961  87.9898081 164.0697772
  71.6782147  89.0891979 163.0953926  73.0359613  85.8739581 162.1204416
  73.8585682  85.4000059 161.9983306  73.2797676  86.6530064 162.6203102
  71.6767847  88.9027839 152.4167317  72.3976210  89.2809092 151.9131034
  71.0533151  89.6216716 152.5202295  75.8198970  89.6072988 153.3525650
  76.0362584  90.4897626 153.0514478  75.3393037  89.2159201 152.6231292
  70.5598191  92.5658701 159.9296394  70.4142772  92.8799004 160.8220676
  70.0823395  93.1843602 159.3767293  72.4194574  89.5561249 159.9777284
  72.4056143  88.6602343 159.6409582  73.1367002  89.5631913 160.6115570
  74.2720705  89.9898589 162.0230411  74.0138483  90.9115660 162.0214742
  73.7405745  89.5929024 162.7130875  79.2166894 103.0949377 154.8020497
  79.3903771 102.5295799 154.0494349  79.7095785 103.8950271 154.6199986
  65.0343854  95.1064046 162.8684055  64.4897322  95.8823854 163.0004330
  65.9123203  95.4534850 162.7103177  71.8231470  88.4375630 155.2464854
  71.9447381  87.5092276 155.4455741  71.5333513  88.4514316 154.3343169
  74.6922661  86.1230540 158.3831574  74.7144357  86.1869873 157.4283553
  75.1090720  85.2835049 158.5772080  85.0706285  95.8585800 156.4210796
  85.5137431  95.1093125 156.0229920  84.1932795  95.8495936 156.0384528
  80.2042066 102.4116141 151.9017395  80.8992971 103.0322834 152.1204709
  80.5465216 101.5611492 152.1769773  65.8209875  94.2333942 165.7614212
  65.0791611  94.3816577 166.3478843  65.5002620  94.4942208 164.8980962
  82.1033489  99.8615847 153.4304726  82.6284813 100.2003119 152.7054046
  82.0155842  98.9262862 153.2467860  73.7874150 105.9287830 157.7899979
  73.3479140 105.4364208 158.4832835  74.5382267 105.3860797 157.5492054
  66.2666489 102.1199371 157.7924607  67.0924509 101.8203143 157.4123250
  65.9160541 101.3506993 158.2414396  71.2348022 101.4725839 159.8622280
  70.6128031 100.8096544 159.5624508  71.9052889 101.4986971 159.1795928
  64.4675094 100.0385697 158.7513540  63.6307002  99.6107871 158.5697542
  64.4398740 100.2318140 159.6884332  71.3072550  89.9507627 169.4554786
  71.3560705  90.8269750 169.0732556  71.8495064  89.4085020 168.8826430
  70.7961529 100.0229762 153.3380741  70.9449649 100.7065227 152.6847414
  71.6027973 100.0034852 153.8530197  79.2029033  93.3272145 167.3647959
  80.1038896  93.1878609 167.0731957  79.2777007  93.4926599 168.3046136
  73.5371838  90.7038999 166.2101145  72.6675148  90.9972565 165.9383734
  73.7731319  91.2879444 166.9308409  84.6139150  97.3291038 158.8133244
  85.4486041  97.7680842 158.9770804  84.7498278  96.8529691 157.9941490
  81.6630656  94.8870773 164.7610732  82.1384777  95.0798419 163.9529583
  80.7396221  94.9429959 164.5154115  68.5514162  96.0494940 154.3441810
  68.3060204  95.1457270 154.5422020  68.7210077  96.0512090 153.4021288
  76.2410872  86.9218616 163.7266566  76.7592816  87.6579643 163.4013054
  75.8866005  87.2282610 164.5613325  67.8209810  91.7823297 151.8427971
  67.1279055  91.8567652 151.1868007  67.5761562  91.0183641 152.3649488
  76.4923466  83.3418899 159.2467462  76.7725220  82.6742088 159.8727889
  77.2774073  83.5347994 158.7342126  74.2956935 102.5177893 150.8092488
  73.7230902 103.1368080 150.3562960  74.8689728 103.0677254 151.3432410
  80.3632324  91.7636533 162.9939037  81.3149747  91.8634630 163.0151261
  80.1935775  90.9714801 163.5037122  78.3846704  88.8492116 163.1798438
  77.7896636  89.1297129 162.4844927  78.0996401  89.3386017 163.9515179
  77.5154194 102.8015043 151.9401071  78.4484868 102.7360604 152.1433946
  77.4277407 103.6371310 151.4815603  80.1442211 102.1180913 148.9005018
  80.0655843 101.7840777 149.7940776  80.9651878 102.6102681 148.8996491
  82.8420402  94.9842652 162.1081337  82.8096722  94.0458653 162.2941021
  83.4521026  95.0626689 161.3747162  74.6803733  93.8538705 148.1508541
  75.6262838  93.7244914 148.2196959  74.3017978  93.1153367 148.6277969
  82.9914891  91.7753696 162.1539620  82.4753939  90.9912153 161.9669549
  83.8754839  91.4472413 162.3186140  80.6525618  85.5194711 158.1135433
  80.4550439  85.2109800 158.9978765  81.2625323  86.2456350 158.2433363
  88.6596952  96.0458659 161.2487374  89.3900341  95.7843947 161.8095077
  88.0503898  95.3087381 161.2889442  86.7412249  94.1866522 161.8461825
  86.0145413  94.0522487 161.2378316  86.3259536  94.4943350 162.6518543
  72.8646650  91.7788682 148.0863426  71.9578106  91.4821795 148.1626140
  73.1422631  91.4818500 147.2197712  63.7824591  93.0995045 158.5362473
  63.4627375  92.2460353 158.2436847  63.2358019  93.3143623 159.2920440
  67.5604498  95.8157486 162.2531979  67.7790508  96.7474594 162.2720013
  67.9730272  95.4565461 163.0386783  74.4808716  86.3225572 154.2407667
  73.6709444  85.9772657 154.6162914  75.1693133  86.0133115 154.8295279
  76.4099264  85.4003618 155.8631964  76.9630303  85.8199072 156.5221987
  76.6469351  84.4739366 155.9054920  72.4332364  91.3890692 171.6434728
  72.3329090  92.3385049 171.5746819  72.2153906  91.0608931 170.7710798
  71.6345435  88.6375617 148.2275405  72.4964599  88.9630515 148.4871223
  71.8195779  87.8507113 147.7148471  63.6512851  96.7197957 160.5055594
  62.9576322  96.3051910 159.9925549  64.3985842  96.7618493 159.9089013
  79.7878071  87.5104143 155.3710628  79.2076740  88.1688948 154.9888681
  79.5214004  86.6881488 154.9598046  78.2381638  86.9109201 157.5731949
  78.7381416  87.0225736 156.7646267  78.8817246  86.6070254 158.2132757
  72.2963634  94.8187831 170.4599790  71.8130715  95.6188191 170.6663679
  72.3824573  94.8295776 169.5067234  65.5649593  96.6516210 158.3821609
  65.5420281  96.7503898 157.4303492  65.8750230  97.4981361 158.7038775
  68.2236971  98.7092366 162.4968223  69.1780225  98.6776308 162.4298155
  68.0249495  98.2482989 163.3118449  68.8136353  97.2793482 165.0639021
  69.6329242  97.7737560 165.0873858  69.0873161  96.3625450 165.0356589
  78.5702949  89.6704234 154.4266977  77.6828804  89.9553885 154.2087171
  78.9856938  89.5097997 153.5794253  81.9217486  89.6950755 158.1421316
  82.6977876  90.1847207 158.4145933  81.1965620  90.1208809 158.5993185
  84.3590044  90.4078374 159.1995256  84.9534535  90.1674110 158.4888565
  84.4316628  89.6885505 159.8268793  66.5787200 104.2511985 159.5138421
  66.4441668 103.4912386 158.9476419  66.1619262 104.9752885 159.0467210
  77.7146163  99.4348909 148.5214997  78.4182013  99.6398911 149.1372652
  76.9908812 100.0025670 148.7864080  78.5443973  95.1858770 154.6417267
  78.4879175  95.6427321 153.8024899  79.0972316  94.4249454 154.4640110
  82.3548779  90.9748502 155.4667386  82.0985713  90.5745137 156.2975594
  81.7301647  91.6892296 155.3417525  86.6661117  93.7144575 157.9738678
  86.1060675  93.7837764 158.7470240  86.0604620  93.5385560 157.2538174
  69.7356326 105.1481302 159.7256864  69.6188710 106.0926735 159.6235554
  68.9148772 104.8454864 160.1142663  79.6232860  99.8731438 150.5713457
  80.4578464  99.4412636 150.3890931  79.4617203  99.7013451 151.4990351
  79.2778752  96.3763551 151.9369796  79.2227556  96.2107822 150.9958240
  78.6524808  97.0839584 152.0931986  64.0671267  91.6131615 165.7631218
  64.7130131  91.1030569 166.2518443  63.8588419  92.3500297 166.3374643
  72.5874878  85.8771660 151.5155114  72.5753548  86.8213500 151.6723385
  73.4798300  85.6941805 151.2214576  70.7610840 105.8009564 162.9412792
  71.6638087 105.8333174 163.2579287  70.5348210 104.8710015 162.9559128
  72.5164442 104.5540550 159.6022871  71.5660073 104.5542412 159.4887243
  72.8196928 103.8073285 159.0858906  76.4026997  82.4714437 155.7701051
  75.6359393  81.9172923 155.9157733  76.8137702  82.5436305 156.6315203
  68.4068758  88.7599233 169.8606232  69.2700220  88.4036037 170.0709557
  67.8334169  88.4213127 170.5481637  80.9193657 112.1963993 156.5927049
  80.3558522 112.1053930 155.8243337  80.8046052 111.3763898 157.0729542
  86.4993216 115.8634961 151.9041514  85.8481196 116.4489041 151.5175528
  87.2937579 116.3941156 151.9636551  80.4248843 112.9524098 152.3028648
  81.1979719 112.4053085 152.1641524  80.7774242 113.8168348 152.5143110
  82.7615121 109.1116764 149.9347098  83.0140642 108.5898286 149.1730561
  81.8239680 108.9482910 150.0373782  87.9768481 113.5525393 152.4410498
  87.3414314 113.6260020 153.1531403  87.6465888 114.1418992 151.7629577
  82.4811410 111.0144870 152.1371473  82.3647668 110.3389774 152.8052557
  82.5913670 110.5277244 151.3203626  84.8242951 110.4755017 155.8418162
  84.4601158 109.9485638 156.5531084  85.6810067 110.0853486 155.6684648
  84.4648438 105.5044917 150.8379511  84.6322840 106.3725154 151.2049982
  84.2745607 105.6672199 149.9140800  84.4437659 107.9602575 151.8226178
  84.3237284 108.4059625 152.6611658  83.7490247 108.3087892 151.2639716
  90.1422725 108.4324048 152.6506512  91.0540581 108.6651435 152.4754209
  89.6332372 109.0161092 152.0881590  83.2389155 109.2747427 154.1159743
  83.9413198 109.7268470 154.5833670  82.9069783 108.6331246 154.7439637
  76.9814489 107.5330979 159.4176877  76.1913543 107.7888508 158.9416988
  77.4725736 108.3479317 159.5228918  78.9329234 107.8975559 156.3760354
  78.1360398 108.0094253 156.8943849  78.7054827 108.2362211 155.5101244
  77.9312317 113.6063807 154.7649774  78.4436838 114.4007058 154.9155338
  78.5835030 112.9090098 154.6983375  75.8961234 111.9352462 155.5409344
  76.7336456 112.3449470 155.3243052  76.0739501 110.9951904 155.5109538
  87.7925666 109.6027542 151.2293177  87.2772289 110.3732147 151.4681565
  87.5202974 108.9292678 151.8526239  85.3772777 104.4477243 156.2878416
  84.5214373 104.0584093 156.1084054  85.7899729 104.5269204 155.4278201
  83.1514809 102.0662316 159.6936157  84.0167806 101.8705125 159.3342047
  83.2192318 101.8372668 160.6205514  87.5811969 107.4754634 153.0552958
  87.2762105 107.7900784 153.9063102  88.5342411 107.5536054 153.0980291
  86.0258401 113.6344858 154.7045912  85.4979762 112.8997617 154.3919150
  85.5245904 114.4119534 154.4585881  80.7577129 104.2964524 157.0652524
  81.3320880 104.0739705 156.3325717  81.3448111 104.3653219 157.8181125
  81.0846716 106.3268985 151.0848409  80.2484028 106.6643672 151.4057684
  80.9451485 106.1917965 150.1475546  83.0599796 101.1705773 155.7927593
  82.4064209 100.8554790 155.1684208  83.0180270 100.5481513 156.5187416
  84.1711001 111.4525068 147.7080885  83.2638063 111.2214321 147.9072034
  84.6682033 110.6562687 147.8954867  87.0772584 109.0579122 155.2477921
  87.8244403 109.5700519 154.9385043  87.3464174 108.7363175 156.1082315
  85.3499235 111.5537663 152.2304876  84.4410454 111.2696696 152.3277345
  85.3794318 111.9736741 151.3708182  89.5251421 106.0936238 157.2296711
  88.7874178 105.5813625 157.5606953  89.7778195 105.6536620 156.4179987
  89.6263049  98.8712490 157.8238480  89.9321926  98.0109854 157.5364395
  90.3515654  99.4630111 157.6237474  75.9187405 109.2743177 156.2120078
  75.7211805 108.6812538 155.4871144  75.3634069 108.9695387 156.9296017
  85.0475322 113.0946407 149.5692954  84.6094752 112.3782265 149.1098591
  85.7885763 113.3222521 149.0078046  81.8376488 107.7843343 156.0905050
  81.0244354 108.0837514 156.4970242  82.3335483 107.3899032 156.8079532
  78.4133631 108.8007211 153.8961030  77.4831219 108.7391666 154.1130992
  78.5091103 108.2783164 153.0997671  78.3319180 105.3262024 156.4839272
  78.5925997 106.2407357 156.3748432  79.1536352 104.8586466 156.6335884
  89.1686550 111.9530788 149.1625012  88.5515721 111.2277616 149.0658064
  88.7003038 112.7140148 148.8192086  80.9585096 106.1716212 148.2846316
  80.0814562 106.0505013 147.9208563  81.4342849 105.3802291 148.0325205
  72.4787236 110.9593372 158.3787823  73.1658276 110.6455102 157.7908838
  72.3235365 111.8634737 158.1055075  77.2821958 105.8483569 162.8072847
  77.1980147 105.2409238 162.0723257  76.4604665 106.3392587 162.8082343
  87.4545672 104.3337132 158.1743042  87.9514372 103.5807095 157.8544112
  86.6832653 104.3701449 157.6086251  84.0380641 106.4754515 157.9014726
  83.6678428 105.9225556 158.5895632  84.5339733 105.8712649 157.3489727
  72.0555212 109.0393966 160.6505290  72.0939312 108.5057556 161.4442408
  71.5495505 108.5129171 160.0316267  75.6863790 107.7658068 153.7259222
  75.9817231 106.8568746 153.6726275  74.7851825 107.7445807 153.4040224
  79.2158037 105.8414064 159.7086770  78.4944622 106.4550032 159.5694244
  80.0051292 106.3771829 159.6303416  77.4151631 105.4472165 153.8498547
  77.0864337 104.5669544 153.6673653  77.7691002 105.3919834 154.7374936
  80.5293454 105.7345135 154.2174024  80.8689527 106.2631056 153.4952633
  80.9765575 106.0725541 154.9932591  82.5161602 104.2319757 152.4167317
  83.2369964 104.6101010 151.9131034  81.8926906 104.9508634 152.5202295
  86.6592724 104.9364906 153.3525650  86.8756339 105.8189544 153.0514478
  86.1786792 104.5451119 152.6231292  83.2588329 104.8853167 159.9777284
  83.2449897 103.9894260 159.6409582  83.9760757 104.8923831 160.6115570
  82.6625225 103.7667547 155.2464854  82.7841136 102.8384193 155.4455741
  82.3727267 103.7806233 154.3343169  85.5316415 101.4522458 158.3831574
  85.5538112 101.5161791 157.4283553  85.9484474 100.6126966 158.5772080
  81.6355284 115.3521680 153.3380741  81.7843404 116.0357144 152.6847414
  82.4421727 115.3326770 153.8530197  79.3907917 111.3786858 154.3441810
  79.1453959 110.4749188 154.5422020  79.5603831 111.3804008 153.4021288
  78.6603564 107.1115215 151.8427971  77.9672809 107.1859570 151.1868007
  78.4155316 106.3475559 152.3649488  87.3317221  98.6710816 159.2467462
  87.6118974  98.0034006 159.8727889  88.1167828  98.8639912 158.7342126
  85.1350689 117.8469810 150.8092488  84.5624656 118.4659997 150.3562960
  85.7083483 118.3969172 151.3432410  90.9835966 117.4472831 148.9005018
  90.9049597 117.1132694 149.7940776  91.8045632 117.9394599 148.8996491
  85.5197488 109.1830623 148.1508541  86.4656592 109.0536831 148.2196959
  85.1411733 108.4445285 148.6277969  91.4919372 100.8486629 158.1135433
  91.2944193 100.5401717 158.9978765  92.1019078 101.5748268 158.2433363
  83.7040405 107.1080599 148.0863426  82.7971860 106.8113712 148.1626140
  83.9816386 106.8110418 147.2197712  74.6218345 108.4286963 158.5362473
  74.3021130 107.5752271 158.2436847  74.0751773 108.6435541 159.2920440
  85.3202471 101.6517489 154.2407667  84.5103199 101.3064574 154.6162914
  86.0086887 101.3425033 154.8295279  87.2493019 100.7295536 155.8631964
  87.8024057 101.1490989 156.5221987  87.4863105  99.8031284 155.9054920
  82.4739189 103.9667535 148.2275405  83.3358353 104.2922433 148.4871223
  82.6589534 103.1799031 147.7148471  90.6271826 102.8396061 155.3710628
  90.0470495 103.4980865 154.9888681  90.3607759 102.0173406 154.9598046
  89.0775392 102.2401119 157.5731949  89.5775171 102.3517653 156.7646267
  89.7211000 101.9362172 158.2132757  76.4043348 111.9808128 158.3821609
  76.3814036 112.0795815 157.4303492  76.7143984 112.8273279 158.7038775
  89.4096704 104.9996152 154.4266977  88.5222559 105.2845802 154.2087171
  89.8250693 104.8389915 153.5794253  88.5539917 114.7640826 148.5214997
  89.2575767 114.9690829 149.1372652  87.8302566 115.3317588 148.7864080
  89.3837728 110.5150687 154.6417267  89.3272929 110.9719239 153.8024899
  89.9366070 109.7541372 154.4640110  93.1942534 106.3040419 155.4667386
  92.9379468 105.9037055 156.2975594  92.5695402 107.0184213 155.3417525
  90.4626615 115.2023355 150.5713457  91.2972219 114.7704554 150.3890931
  90.3010958 115.0305369 151.4990351  90.1172507 111.7055469 151.9369796
  90.0621311 111.5399740 150.9958240  89.4918562 112.4131502 152.0931986
  83.4268632 101.2063578 151.5155114  83.4147302 102.1505418 151.6723385
  84.3192054 101.0233723 151.2214576  87.2420752  97.8006354 155.7701051
  86.4753148  97.2464841 155.9157733  87.6531457  97.8728223 156.6315203
  53.9811954  46.8821331 138.6286821  53.3299934  47.4675411 138.2420834
  54.7756317  47.4127526 138.6881858  47.9067581  43.9710468 139.0273955
  48.6798457  43.4239455 138.8886831  48.2592980  44.8354717 139.2388416
  50.2433859  40.1303134 136.6592405  50.4959380  39.6084655 135.8975868
  49.3058418  39.9669279 136.7619088  55.4587219  44.5711763 139.1655805
  54.8233052  44.6446389 139.8776709  55.1284625  45.1605361 138.4874884
  49.9630148  42.0331240 138.8616780  49.8466406  41.3576143 139.5297864
  50.0732407  41.5463614 138.0448933  51.9467175  36.5231287 137.5624818
  52.1141578  37.3911523 137.9295289  51.7564345  36.6858568 136.6386107
  51.9256396  38.9788944 138.5471484  51.8056022  39.4245995 139.3856965
  51.2308985  39.3274262 137.9885022  49.6863288  51.7492586 142.1961616
  49.6087318  52.7000411 142.2750096  49.0824932  51.4038458 142.8536542
  57.6241463  39.4510417 139.3751818  58.5359319  39.6837804 139.1999516
  57.1151110  40.0347462 138.8126897  60.1100277  45.3690674 144.1209764
  59.4251315  45.7489575 143.5706797  60.1944126  45.9786000 144.8541711
  51.7839007  44.1710644 144.0315485  52.2477352  44.4498347 143.2420107
  51.5195805  43.2694088 143.8488576  50.7207893  40.2933796 140.8405050
  51.4231936  40.7454840 141.3078976  50.3888521  39.6517615 141.4684943
  66.5703029  42.2361337 145.2412436  65.8166738  41.6668735 145.0856440
  66.7050571  42.2024001 146.1883071  51.9601657  47.1074739 140.9167155
  51.8247332  47.9526275 141.3452003  52.5011470  47.3094017 140.1533089
  45.4131055  44.6250177 141.4895080  45.9255575  45.4193427 141.6400645
  46.0653768  43.9276467 141.4228682  47.2225939  47.7415933 143.5717834
  47.3992568  48.6633898 143.3838817  48.0182773  47.4274352 144.0012213
  55.2744404  40.6213912 137.9538484  54.7591027  41.3918517 138.1926871
  55.0021712  39.9479048 138.5771545  60.2478678  43.3746267 139.8891657
  59.4708121  43.0357426 139.4446819  60.9270159  43.3798890 139.2146622
  55.0630707  38.4941004 139.7798265  54.7580842  38.8087153 140.6308408
  56.0161149  38.5722424 139.8225598  53.5077139  44.6531227 141.4291219
  52.9798500  43.9183987 141.1164457  53.0064641  45.4305904 141.1831187
  58.4869985  42.8480248 146.5458265  57.8293659  43.5379509 146.6338394
  59.2910384  43.2376680 146.8892252  57.2975444  41.2024620 144.5962207
  57.8107325  41.8354612 145.0983917  57.9476667  40.6025816 144.2305567
  48.5665453  37.3455355 137.8093716  47.7302766  37.6830041 138.1302991
  48.4270223  37.2104334 136.8720853  51.6529739  42.4711438 134.4326192
  50.7456801  42.2400691 134.6317341  52.1500771  41.6749057 134.6200174
  54.5597818  51.1808945 137.3522878  53.8859517  51.4840641 137.9607836
  54.9463640  51.9838025 137.0028335  54.5591322  40.0765492 141.9723228
  55.3063141  40.5886889 141.6630350  54.8282912  39.7549544 142.8327621
  52.8317972  42.5724032 138.9550182  51.9229192  42.2883065 139.0522652
  52.8613056  42.9923111 138.0953489  58.0637240  46.1830622 142.7241350
  57.6099567  45.3421532 142.7806540  57.4331206  46.8192020 143.0616130
  56.5070179  48.0207119 143.6591168  56.7993153  48.5812176 142.9403534
  57.0168800  48.3135680 144.4144327  52.5294060  44.1132776 136.2938261
  52.0913490  43.3968635 135.8343898  53.2704501  44.3408891 135.7323352
  51.4703804  48.7987470 144.7484621  51.4279983  49.0248316 143.8193153
  52.3866503  48.5650844 144.8970422  60.6467175  42.3889973 142.3514579
  60.5085073  42.5791569 141.4235769  60.2903394  43.1509356 142.8082630
  60.6736554  44.4566500 147.3625851  61.1073061  44.3641789 148.2108905
  61.3868135  44.4324001 146.7245867  52.7589033  51.3488617 139.5669957
  52.9340789  50.8776660 140.3815580  52.0721821  51.9754383 139.7951218
  56.6505288  42.9717158 135.8870318  56.0334458  42.2463986 135.7903371
  56.1821776  43.7326518 135.5437393  47.3250118  54.4977980 146.3409818
  47.5646716  55.1296504 147.0188836  46.4819315  54.1466020 146.6275177
  48.4403834  37.1902582 135.0091623  47.5633300  37.0691383 134.6453869
  48.9161587  36.3988660 134.7570511  51.6267760  49.5428872 142.2554143
  50.8435282  50.0850553 142.3492368  52.3260505  50.0602852 142.6548384
  62.7894167  41.0563867 146.5406640  62.7784043  41.9388583 146.1700573
  61.9211547  40.7035418 146.3461177  56.0194190  44.1095189 142.4726772
  55.0850469  44.2296652 142.3031476  56.1970859  43.2067656 142.2086782
  59.4066742  39.9512508 143.0076806  59.8727194  40.7840500 142.9337109
  59.8574242  39.4857490 143.7122065  57.4742973  46.2956330 140.0062958
  57.7502817  46.1812924 140.9156832  56.6047472  45.8973815 139.9675131
  54.1097037  50.5442680 143.6495772  54.2919431  49.7264336 144.1123524
  54.9330023  50.7610373 143.2120662  54.4439202  49.4710866 140.9110820
  54.9726969  48.9603320 140.2980982  54.7067422  49.1553396 141.7756353
  47.7994950  50.5225982 143.6708596  47.1305326  51.0072110 143.1872636
  47.6607820  50.7695203 144.5851975  55.0768606  50.5051701 147.2554937
  54.9519746  49.7041441 146.7465882  55.7347697  50.9997895 146.7668907
  57.1403515  48.3060721 148.8834487  56.1933850  48.1866073 148.8112813
  57.4886288  47.4183219 148.9660748  54.1449948  48.1013438 145.0838839
  53.9974910  47.1730145 145.2646409  54.9703441  48.1233528 144.5995914
  57.7484070  48.9241996 146.1703712  58.6730617  48.7184858 146.0328163
  57.5799373  48.6758398 147.0793053  54.1411462  35.9551275 140.0770956
  54.3575077  36.8375913 139.7759784  53.6605529  35.5637489 139.3476598
  57.5379386  49.4427664 141.5265803  57.7116264  48.8774086 140.7739656
  58.0308277  50.2428559 141.3445293  63.3918777  42.2064087 143.1456103
  63.8349923  41.4571412 142.7475226  62.5145287  42.1974223 142.7629835
  58.5254558  48.7594428 138.6262701  59.2205463  49.3801121 138.8450016
  58.8677709  47.9089779 138.9015079  60.4245982  46.2094134 140.1550032
  60.9497306  46.5481407 139.4299352  60.3368334  45.2741149 139.9713167
  52.1086642  52.2766117 144.5145285  51.6691633  51.7842496 145.2078142
  52.8594759  51.7339085 144.2737361  49.1174021  46.3708049 140.0626048
  49.2662142  47.0543514 139.4092720  49.9240465  46.3513140 140.5775503
  62.9351642  43.6769325 145.5378550  63.7698533  44.1159129 145.7016111
  63.0710771  43.2007978 144.7186796  52.6169427  48.8656180 137.5337795
  52.0443394  49.4846367 137.0808267  53.1902221  49.4155542 138.0677717
  55.8366687  49.1493330 138.6646377  56.7697360  49.0838892 138.8679253
  55.7489900  49.9849597 138.2060910  58.4654703  48.4659200 135.6250325
  58.3868335  48.1319064 136.5186083  59.2864370  48.9580968 135.6241797
  53.0016225  40.2016993 134.8753848  53.9475330  40.0723201 134.9442266
  52.6230470  39.4631655 135.3523276  66.9809444  42.3936947 147.9732680
  67.7112833  42.1322235 148.5340384  66.3716390  41.6565668 148.0134748
  51.1859143  38.1266969 134.8108733  50.2790598  37.8300082 134.8871446
  51.4635124  37.8296787 133.9443019  49.9557927  34.9853904 134.9520712
  50.8177091  35.3108803 135.2116529  50.1408271  34.1985400 134.4393778
  56.8915442  36.0182521 141.1512283  56.0041297  36.3032172 140.9332478
  57.3069431  35.8576284 140.3039560  56.0358655  45.7827196 135.2460303
  56.7394505  45.9877198 135.8617959  55.3121304  46.3503958 135.5109387
  56.8656465  41.5337057 141.3662573  56.8091667  41.9905608 140.5270206
  57.4184808  40.7727742 141.1885416  60.6761271  37.3226789 142.1912693
  60.4198206  36.9223425 143.0220901  60.0514139  38.0370583 142.0662832
  64.9873609  40.0622862 144.6983984  64.4273167  40.1316051 145.4715546
  64.3817113  39.8863847 143.9783481  48.0568818  51.4959589 146.4502171
  47.9401202  52.4405022 146.3480861  47.2361264  51.1933151 146.8387970
  57.9445353  46.2209725 137.2958763  58.7790956  45.7890923 137.1136238
  57.7829695  46.0491739 138.2235658  57.5991245  42.7241838 138.6615103
  57.5440049  42.5586110 137.7203547  56.9737300  43.4317871 138.8177292
  50.8376934  50.9018838 146.3268178  49.8872565  50.9020699 146.2132550
  51.1409420  50.1551572 145.8104212  66.5729628  56.7379376 147.3913940
  67.2108038  56.6186123 146.6877280  66.4550471  57.6860220 147.4501892
  63.3819334  56.6906804 147.3275465  63.0437845  56.5747869 146.4396000
  64.2509102  56.2897969 147.3076471  59.2406150  58.5442281 143.3172356
  58.6771015  58.4532218 142.5488643  59.1258545  57.7242185 143.7974848
  63.8639117  57.8441656 153.2861670  63.8527758  57.4494454 152.4142174
  64.0259756  57.1107729 153.8795442  56.7870582  60.0393472 146.1556576
  57.5791873  59.6984297 145.7402875  57.0267232  60.1488447 147.0758729
  64.8205708  62.2113248 138.6286821  64.1693688  62.7967329 138.2420834
  65.6150071  62.7419443 138.6881858  58.7461336  59.3002385 139.0273955
  59.5192212  58.7531373 138.8886831  59.0986734  60.1646635 139.2388416
  60.5846378  60.6278768 152.2340854  60.2936244  61.5324399 152.1187521
  61.2203362  60.6695295 152.9484924  61.5102585  58.0055616 148.8242214
  62.1066157  57.7811639 148.1099177  61.5677556  57.2640362 149.4267662
  61.0827613  55.4595052 136.6592405  61.3353134  54.9376573 135.8975868
  60.1452172  55.2961197 136.7619088  66.1270896  54.4630830 144.4667148
  66.9133985  54.0450253 144.1157565  66.3909600  55.3676922 144.6348796
  66.2980973  59.9003680 139.1655805  65.6626806  59.9738307 139.8776709
  65.9678380  60.4897279 138.4874884  71.5279323  54.4006063 145.3700127
  72.2604495  53.8305280 145.6037956  70.7718679  54.0127664 145.8106632
  60.8023902  57.3623158 138.8616780  60.6860160  56.6868061 139.5297864
  60.9126162  56.8755531 138.0448933  63.1455443  56.8233305 142.5663469
  62.7813650  56.2963926 143.2776390  64.0022559  56.4331774 142.3929954
  69.0504744  48.1127637 149.8294735  68.7188068  48.9823048 149.6055950
  68.4550357  47.7963921 150.5088766  62.7860930  51.8523204 137.5624818
  62.9535332  52.7203441 137.9295289  62.5958099  52.0150486 136.6386107
  65.5436263  60.3140183 149.2290648  65.2436986  61.2165222 149.1206455
  65.1987323  60.0472366 150.0811801  58.9948745  56.7653980 145.2627352
  58.0699241  56.6330194 145.4705044  59.2433158  57.5448199 145.7597295
  68.9433407  52.8322723 146.9088085  68.0350284  52.7638132 146.6146846
  68.8921003  53.3094668 147.7369911  62.7650151  54.3080862 138.5471484
  62.6449776  54.7537913 139.3856965  62.0702739  54.6566180 137.9885022
  56.3557556  56.4087254 146.0971141  56.4849937  56.6621733 147.0110553
  55.6755007  57.0014962 145.7775796  60.5257043  67.0784504 142.1961616
  60.4481073  68.0292329 142.2750096  59.9218687  66.7330376 142.8536542
  63.0174273  54.2512369 154.8522982  62.2407607  54.8106289 154.8425847
  63.6564836  54.7369152 155.3737853  70.8095053  51.0339162 148.6865959
  70.1669434  51.3271695 148.0405754  70.3049982  50.9192082 149.4919156
  68.4635217  54.7802335 139.3751818  69.3753073  55.0129722 139.1999516
  67.9544864  55.3639379 138.8126897  61.2720645  57.0597822 154.4140949
  62.0135329  57.5982866 154.1375773  60.5657631  57.6864111 154.5712501
  66.7475985  59.2026963 153.0113111  67.1559341  58.7609373 152.2667743
  66.0253246  58.6279590 153.2647304  63.1007055  54.1399570 150.3846668
  63.9468250  54.5638983 150.5281317  63.0405692  53.4833194 151.0785231
  67.0704799  59.7628153 146.7665400  66.4413662  59.9273868 146.0641468
  66.6830461  60.1769763 147.5376364  70.9494031  60.6982591 144.1209764
  70.2645069  61.0781493 143.5706797  71.0337881  61.3077918 144.8541711
  66.2506500  51.8003938 152.0427842  66.0067432  52.5545999 151.5062117
  66.5266431  52.1789286 152.8775089  68.2044963  58.3442550 150.7205107
  68.4161858  58.9874310 150.0439488  68.1574711  57.5104867 150.2527037
  65.8071192  50.9560371 147.6241679  64.9455671  51.2541625 147.9158417
  65.8333626  51.1730770 146.6922712  62.6232761  59.5002562 144.0315485
  63.0871107  59.7790265 143.2420107  62.3589559  58.5986006 143.8488576
  59.5156842  59.0474043 146.9695248  60.0858199  59.4761311 146.3312733
  60.1064954  58.7656628 147.6679434  61.5601647  55.6225714 140.8405050
  62.2625691  56.0746758 141.3078976  61.2282276  54.9809533 141.4684943
  55.3026981  53.8809267 146.1422184  54.5126035  54.1366795 145.6662294
  55.7938229  54.6957604 146.2474224  69.3190791  61.2214506 148.8927464
  70.1408234  60.8194693 148.6110146  69.3153194  61.1182740 149.8443580
  57.2541727  54.2453846 143.1005660  56.4572890  54.3572540 143.6189156
  57.0267319  54.5840498 142.2346551  63.0847394  60.7698549 151.0488175
  63.1491827  61.2318956 151.8846347  62.3758318  60.1395914 151.1770485
  53.5864684  54.1339757 148.5737174  53.8372723  55.0186767 148.8394750
  54.1224233  53.9544359 147.8012266  77.4096784  57.5653254 145.2412436
  76.6560492  56.9960652 145.0856440  77.5444325  57.5315919 146.1883071
  62.7995412  62.4366657 140.9167155  62.6641087  63.2818192 141.3452003
  63.3405224  62.6385934 140.1533089  56.2524809  59.9542095 141.4895080
  56.7649330  60.7485345 141.6400645  56.9047522  59.2568385 141.4228682
  58.0619694  63.0707851 143.5717834  58.2386322  63.9925816 143.3838817
  58.8576527  62.7566270 144.0012213  64.4263888  63.0590223 155.0467497
  63.9827742  62.2726602 154.7288402  65.0881102  63.2469374 154.3811388
  59.1851009  64.5886025 149.5728176  59.7358435  64.4603088 148.8005170
  58.3462485  64.8880914 149.2223069  66.5245126  63.3393023 153.0748899
  66.5063602  64.1601904 152.5829168  67.4465046  63.2147098 153.2999040
  62.9818180  60.8537152 153.9172407  63.5146517  60.0925441 153.6871715
  62.4532262  60.5610804 154.6596562  66.1487875  45.9597218 149.4466049
  65.8052145  46.8498860 149.3705159  66.5166838  45.7698876 148.5835634
  54.2173726  58.2830749 142.2654651  55.0548948  58.6927757 142.0488359
  54.3951994  57.3430191 142.2354845  66.1138158  55.9505830 137.9538484
  65.5984782  56.7210434 138.1926871  65.8415467  55.2770966 138.5771545
  63.6985269  50.7955530 143.0123722  62.8426866  50.4062381 142.8329361
  64.1112221  50.8747491 142.1523508  65.2284416  48.3301874 147.4115282
  64.7249211  48.2932009 146.5983087  65.5215023  49.2394616 147.4711939
  61.4727302  48.4140603 146.4181464  62.3380298  48.2183412 146.0587353
  61.5404811  48.1850955 147.3450821  71.0872432  58.7038184 139.8891657
  70.3101875  58.3649344 139.4446819  71.7663913  58.7090807 139.2146622
  65.9024461  53.8232922 139.7798265  65.5974597  54.1379071 140.6308408
  66.8554903  53.9014342 139.8225598  64.3470893  59.9823145 141.4291219
  63.8192255  59.2475905 141.1164457  63.8458396  60.7597821 141.1831187
  69.3263739  58.1772165 146.5458265  68.6687414  58.8671427 146.6338394
  70.1304138  58.5668597 146.8892252  59.0789621  50.6442811 143.7897831
  59.6533373  50.4217993 143.0571024  59.6660603  50.7131506 144.5426432
  68.1369198  56.5316538 144.5962207  68.6501080  57.1646530 145.0983917
  68.7870422  55.9317734 144.2305567  59.4059208  52.6747272 137.8093716
  58.5696520  53.0121959 138.1302991  59.2663978  52.5396252 136.8720853
  61.3812289  47.5184060 142.5172900  60.7276701  47.2033077 141.8929515
  61.3392763  46.8959801 143.2432723  62.4923493  57.8003355 134.4326192
  61.5850555  57.5692609 134.6317341  62.9894525  57.0040974 134.6200174
  65.3991572  66.5100862 137.3522878  64.7253271  66.8132559 137.9607836
  65.7857394  67.3129943 137.0028335  64.6150029  54.0065994 146.8420548
  63.6972590  54.2280941 146.6842236  65.0310172  54.0812304 145.9832255
  65.3985077  55.4057409 141.9723228  66.1456896  55.9178807 141.6630350
  65.6676666  55.0841462 142.8327621  63.6711727  57.9015950 138.9550182
  62.7622946  57.6174983 139.0522652  63.7006811  58.3215029 138.0953489
  68.9030994  61.5122540 142.7241350  68.4493321  60.6713449 142.7806540
  68.2724961  62.1483938 143.0616130  67.8463914  52.4414526 143.9542017
  67.1086671  51.9291912 144.2852260  68.0990687  52.0014907 143.1425294
  67.3463933  63.3499036 143.6591168  67.6386908  63.9104093 142.9403534
  67.8562554  63.6427597 144.4144327  67.9475541  45.2190778 144.5483786
  68.2534418  44.3588141 144.2609702  68.6728146  45.8108398 144.3482780
  54.2399897  55.6221464 142.9365384  54.0424297  55.0290825 142.2116451
  53.6846561  55.3173674 143.6541323  62.2196621  55.5144571 145.0559978
  62.2745231  54.5618407 144.9802454  61.4087823  55.6704010 145.5401276
  63.3687815  59.4424694 136.2938261  62.9307245  58.7260553 135.8343898
  64.1098255  59.6700809 135.7323352  60.1588981  54.1321630 142.8150356
  59.3456846  54.4315801 143.2215549  60.6547975  53.7377319 143.5324839
  62.3097559  64.1279387 144.7484621  62.2673737  64.3540234 143.8193153
  63.2260258  63.8942762 144.8970422  65.7563192  54.5963455 151.6465250
  66.1112580  54.8234928 152.5059716  66.4035324  54.9281832 151.0242506
  71.4860929  57.7181891 142.3514579  71.3478828  57.9083487 141.4235769
  71.1297148  58.4801274 142.8082630  59.6503056  51.7039986 148.4311591
  60.2902435  51.5628745 147.7334555  58.8180586  51.4174499 148.0550193
  71.5130309  59.7858418 147.3625851  71.9466816  59.6933707 148.2108905
  72.2261890  59.7615918 146.7245867  60.4263359  61.0042416 144.5446584
  61.2203958  60.5092737 144.3429159  59.7155052  60.4760280 144.1814289
  65.2458204  63.3860512 148.8958951  65.2995226  63.9551448 149.6636667
  64.3772985  63.5562397 148.5312989  56.7346123  55.1485498 140.6206336
  55.8043711  55.0869954 140.8376299  56.8303595  54.6261451 139.8242978
  56.6531672  51.6740311 143.2084578  56.9138489  52.5885644 143.0993739
  57.4748844  51.2064754 143.3581191  58.1256597  53.0878068 150.3783403
  58.7979651  52.8795430 149.7296052  57.2986384  52.8900154 149.9388635
  72.3745859  59.8282118 149.8958736  72.5681749  60.7327929 150.1418011
  72.2746477  59.3689538 150.7297321  64.0282169  49.7140009 152.3949064
  63.3810084  50.4129959 152.3013540  64.7983185  50.1476153 152.7625312
  67.4360967  59.9788861 155.4699617  67.2846474  59.7499413 154.5529701
  67.4265647  60.9359463 155.4830962  64.2046304  57.5520774 150.4545883
  65.1338364  57.7031934 150.2814851  63.7837334  57.6404795 149.5994530
  63.0034635  61.5771438 148.2244421  62.8645721  61.2090223 149.0970359
  62.2149232  62.0919078 148.0528379  63.5982787  66.6780535 139.5669957
  63.7734543  66.2068578 140.3815580  62.9115575  67.3046301 139.7951218
  64.5539851  60.9553041 145.6133259  64.2189683  60.9153811 146.5090909
  64.0543796  60.2897757 145.1403669  58.5284095  56.3620671 151.1385840
  58.3903892  55.6300910 151.7397379  59.4389018  56.2729571 150.8570028
  67.4899042  58.3009075 135.8870318  66.8728213  57.5755904 135.7903371
  67.0215531  59.0618436 135.5437393  61.1566395  56.0740630 150.6269520
  61.8666014  55.4333823 150.5856138  61.1135703  56.3253525 151.5495700
  69.1453174  63.0107984 153.5476099  69.0865720  62.3267204 152.8806682
  69.5472692  63.7526974 153.0956725  58.1643873  69.8269898 146.3409818
  58.4040471  70.4588422 147.0188836  57.3213069  69.4757938 146.6275177
  59.2797588  52.5194500 135.0091623  58.4027054  52.3983300 134.6453869
  59.7555341  51.7280578 134.7570511  69.1470581  60.9747568 151.7790078
  68.2597360  60.6373489 151.9016477  69.7169132  60.2430599 152.0158844
  50.7999728  57.3071659 145.1033130  51.4870768  56.9933389 144.5154145
  50.6447857  58.2113024 144.8300381  55.6034450  52.1961856 149.5318153
  55.5192639  51.5887526 148.7968563  54.7817157  52.6870874 149.5327650
  62.6771735  65.6349020 148.7451322  62.6041906  66.4403992 149.2570626
  62.2349128  65.8340986 147.9199343  62.4661514  64.8720790 142.2554143
  61.6829036  65.4142470 142.3492368  63.1654259  65.3894770 142.6548384
  65.7758164  50.6815420 144.8988349  66.2726864  49.9285382 144.5789419
  65.0045146  50.7179736 144.3331558  73.6287922  56.3855785 146.5406640
  73.6177798  57.2680500 146.1700573  72.7605301  56.0327336 146.3461177
  65.1370418  65.5335854 150.9009480  65.8498390  66.1683319 150.8285382
  64.6460447  65.6299720 150.0849482  66.8587945  59.4387107 142.4726772
  65.9244224  59.5588569 142.3031476  67.0364613  58.5359574 142.2086782
  62.3593133  52.8232803 144.6260033  61.9890921  52.2703843 145.3140939
  62.8552225  52.2190936 144.0735033  70.2460496  55.2804426 143.0076806
  70.7120949  56.1132418 142.9337109  70.6967997  54.8149408 143.7122065
  60.1882332  63.2830298 151.7215051  60.8891791  63.9166781 151.8744445
  59.7177447  63.6245029 150.9610690  68.3136727  61.6248247 140.0062958
  68.5896571  61.5104842 140.9156832  67.4441226  61.2265732 139.9675131
  68.2177159  47.6485013 147.0467707  67.3040239  47.8789240 147.2149914
  68.6470261  47.7323457 147.8981740  67.9883618  55.8374905 149.5467601
  67.3355068  56.0850812 148.8920054  68.3663997  55.0239043 149.2130079
  64.9490791  65.8734598 143.6495772  65.1313186  65.0556254 144.1123524
  65.7723777  66.0902290 143.2120662  65.2832957  64.8002783 140.9110820
  65.8120723  64.2895238 140.2980982  65.5461177  64.4845314 141.7756353
  55.7850050  62.8166653 148.6546154  56.3703486  62.0710340 148.7874058
  55.5874888  63.1270609 149.5382818  58.6388705  65.8517900 143.6708596
  57.9699080  66.3364028 143.1872636  58.5001575  66.0987120 144.5851975
  50.3767704  55.3872253 147.3750597  50.4151804  54.8535843 148.1687715
  49.8707997  54.8607458 146.7561574  62.7793973  67.8861643 150.2691254
  63.3312281  68.0493265 151.0340340  63.1200167  68.4766081 149.5971279
  67.6304848  62.7122901 156.1239909  68.1744752  63.3252859 155.6294864
  67.0491693  63.2702479 156.6406922  54.0076282  54.1136355 140.4504528
  54.3029723  53.2047033 140.3971582  53.1064318  54.0924094 140.1285531
  65.9162361  65.8343619 147.2554937  65.7913500  65.0333359 146.7465882
  66.5741452  66.3289812 146.7668907  57.5370529  52.1892352 146.4332077
  56.8157115  52.8028319 146.2939550  58.3263785  52.7250116 146.3548723
  67.9797269  63.6352639 148.8834487  67.0327605  63.5157990 148.8112813
  68.3280042  62.7475137 148.9660748  55.7364124  51.7950453 140.5743853
  55.4076830  50.9147832 140.3918959  56.0903494  51.7398121 141.4620243
  64.9843702  63.4305355 145.0838839  64.8368665  62.5022063 145.2646409
  65.8097196  63.4525446 144.5995914  58.8505947  52.0823422 140.9419331
  59.1902019  52.6109344 140.2197939  59.2978067  52.4203829 141.7177898
  68.5877824  64.2533914 146.1703712  69.5124372  64.0476775 146.0328163
  68.4193128  64.0050315 147.0793053  61.5449388  50.4660473 150.3922399
  61.2046208  49.6668286 150.7943079  60.8388394  50.7662184 149.8199232
  62.1965859  47.5509786 148.8449722  63.0191929  47.0770264 148.7228613
  62.4403923  48.3300269 149.3448408  60.8374094  50.5798044 139.1412624
  61.5582456  50.9579297 138.6376341  60.2139398  51.2986921 139.2447602
  64.9805217  51.2843193 140.0770956  65.1968831  52.1667831 139.7759784
  64.4999284  50.8929406 139.3476598  59.7204438  54.2428906 146.6541701
  59.5749019  54.5569209 147.5465982  59.2429642  54.8613807 146.1012599
  61.5800821  51.2331454 146.7022590  61.5662390  50.3372547 146.3654888
  62.2973249  51.2402118 147.3360876  63.4326952  51.6668794 148.7475718
  63.1744730  52.5885865 148.7460048  62.9011992  51.2699229 149.4376182
  68.3773140  64.7719582 141.5265803  68.5510018  64.2066004 140.7739656
  68.8702032  65.5720476 141.3445293  54.1950100  56.7834251 149.5929362
  53.6503568  57.5594059 149.7249636  55.0729450  57.1305055 149.4348483
  60.9837717  50.1145834 141.9710160  61.1053628  49.1862481 142.1701048
  60.6939759  50.1284520 141.0588476  63.8528907  47.8000745 145.1076880
  63.8750604  47.8640078 144.1528860  64.2696966  46.9605254 145.3017386
  74.2312532  57.5356004 143.1456103  74.6743678  56.7863330 142.7475226
  73.3539042  57.5266141 142.7629835  69.3648313  64.0886346 138.6262701
  70.0599218  64.7093039 138.8450016  69.7071463  63.2381697 138.9015079
  71.2639736  61.5386051 140.1550032  71.7891060  61.8773324 139.4299352
  71.1762089  60.6033067 139.9713167  62.9259785  65.4520125 152.2839909
  63.2346911  65.2069272 153.1562608  63.7235267  65.6566764 151.7958779
  62.9480397  67.6058035 144.5145285  62.5085387  67.1134413 145.2078142
  63.6988514  67.0631002 144.2737361  55.4272736  63.7969576 144.5169913
  56.2530756  63.4973347 144.1368557  55.0766788  63.0277198 144.9659702
  60.3954269  63.1496044 146.5867587  59.7734278  62.4866749 146.2869815
  61.0659136  63.1757176 145.9041235  53.6281341  61.7155902 145.4758847
  52.7913249  61.2878076 145.2942848  53.6004986  61.9088345 146.4129638
  70.9533642  62.1718955 155.4601230  70.1629186  62.1543094 154.9205730
  70.7166997  62.7107249 156.2150267  71.0731517  59.0211421 152.7733959
  71.1229522  58.8561429 153.7149482  70.9645441  58.1538680 152.3831839
  59.9567776  61.6999967 140.0626048  60.1055896  62.3835432 139.4092720
  60.7634219  61.6805057 140.5775503  68.3635280  55.0042349 154.0893265
  69.2645142  54.8648814 153.7977263  68.4383254  55.1696804 155.0291443
  62.6978085  52.3809204 152.9346452  61.8281394  52.6742770 152.6629040
  62.9337565  52.9649649 153.6553715  72.5749714  61.4408363 153.0175980
  72.2834522  61.8038344 153.8539441  71.9621845  60.7275371 152.8389312
  73.7745396  59.0061243 145.5378550  74.6092288  59.4451047 145.7016111
  73.9104525  58.5299896 144.7186796  70.8236902  56.5640978 151.4856038
  71.2991024  56.7568624 150.6774890  69.9002468  56.6200163 151.2399422
  57.7120409  57.7265145 141.0687117  57.4666451  56.8227475 141.2667327
  57.8816323  57.7282295 140.1266595  65.4017119  48.5988821 150.4511872
  65.9199063  49.3349848 150.1258361  65.0472252  48.9052814 151.2858631
  56.9816056  53.4593502 138.5673278  56.2885301  53.5337857 137.9113314
  56.7367808  52.6953846 139.0894795  65.6529713  45.0189104 145.9712769
  65.9331467  44.3512293 146.5973195  66.4380320  45.2118199 145.4587433
  63.4563181  64.1948098 137.5337795  62.8837149  64.8138285 137.0808267
  64.0295975  64.7447459 138.0677717  69.5238571  53.4406738 149.7184344
  70.4755994  53.5404835 149.7396568  69.3542022  52.6485006 150.2282428
  67.5452951  50.5262321 149.9043745  66.9502883  50.8067334 149.2090233
  67.2602647  51.0156222 150.6760486  66.6760441  64.4785248 138.6646377
  67.6091114  64.4130809 138.8679253  66.5883654  65.3141515 138.2060910
  69.3048458  63.7951118 135.6250325  69.2262089  63.4610982 136.5186083
  70.1258125  64.2872886 135.6241797  72.0026649  56.6612857 148.8326643
  71.9702969  55.7228858 149.0186327  72.6127273  56.7396894 148.0992468
  63.8409980  55.5308910 134.8753848  64.7869085  55.4015118 134.9442266
  63.4624225  54.7923572 135.3523276  72.1521138  53.4523901 148.8784927
  71.6360186  52.6682357 148.6914856  73.0361086  53.1242617 149.0431446
  69.8131864  47.1964916 144.8380739  69.6156686  46.8880005 145.7224071
  70.4231570  47.9226555 144.9678669  77.8203199  57.7228864 147.9732680
  78.5506587  57.4614152 148.5340384  77.2110144  56.9857586 148.0134748
  75.9018496  55.8636727 148.5707131  75.1751660  55.7292692 147.9623623
  75.4865783  56.1713555 149.3763850  63.7248672  59.5826656 156.3354505
  64.6451682  59.7605255 156.5294551  63.6898255  58.6382702 156.1834204
  62.0252897  53.4558887 134.8108733  61.1184352  53.1591999 134.8871446
  62.3028878  53.1588705 133.9443019  52.9430837  54.7765250 145.2607779
  52.6233622  53.9230558 144.9682153  52.3964266  54.9913828 146.0165746
  56.7210745  57.4927691 148.9777286  56.9396755  58.4244799 148.9965319
  57.1336519  57.1335666 149.7632090  63.6414963  47.9995776 140.9652974
  62.8315691  47.6542861 141.3408220  64.3299380  47.6903320 141.5540586
  65.5705511  47.0773823 142.5877271  66.1236550  47.4969277 143.2467294
  65.8075597  46.1509571 142.6300227  60.7951682  50.3145822 134.9520712
  61.6570846  50.6400720 135.2116529  60.9802026  49.5277318 134.4393778
  52.8119097  58.3968162 147.2300901  52.1182569  57.9822114 146.7170855
  53.5592088  58.4388698 146.6334320  68.9484318  49.1874348 142.0955935
  68.3682987  49.8459152 141.7133987  68.6820251  48.3651693 141.6843352
  67.3987885  48.5879406 144.2977255  67.8987663  48.6995941 143.4891574
  68.0423492  48.2840459 144.9378064  54.7255840  58.3286415 145.1066916
  54.7026528  58.4274103 144.1548799  55.0356476  59.1751566 145.4284082
  57.3843218  60.3862570 149.2213530  58.3386471  60.3546513 149.1543462
  57.1855741  59.9253194 150.0363756  57.9742600  58.9563686 151.7884328
  58.7935489  59.4507765 151.8119165  58.2479408  58.0395655 151.7601895
  67.7309196  51.3474439 141.1512283  66.8435051  51.6324089 140.9332478
  68.1463185  51.1868202 140.3039560  71.0823732  51.3720960 144.8666622
  71.8584122  51.8617412 145.1391239  70.3571866  51.7979014 145.3238492
  73.5196291  52.0848579 145.9240563  74.1140782  51.8444315 145.2133871
  73.5922875  51.3655710 146.5514099  55.7393447  65.9282190 146.2383728
  55.6047915  65.1682591 145.6721726  55.3225509  66.6523090 145.7712517
  66.8752410  61.1119113 135.2460303  67.5788260  61.3169116 135.8617959
  66.1515058  61.6795875 135.5109387  67.7050220  56.8628975 141.3662573
  67.6485421  57.3197526 140.5270206  68.2578562  56.1019659 141.1885416
  71.5155026  52.6518707 142.1912693  71.2591960  52.2515342 143.0220901
  70.8907894  53.3662501 142.0662832  75.8267364  55.3914780 144.6983984
  75.2666922  55.4607969 145.4715546  75.2210867  55.2155764 143.9783481
  58.8962573  66.8251507 146.4502171  58.7794957  67.7696939 146.3480861
  58.0755019  66.5225069 146.8387970  68.7839107  61.5501643 137.2958763
  69.6184711  61.1182841 137.1136238  68.6223450  61.3783656 138.2235658
  68.4384999  58.0533756 138.6615103  68.3833803  57.8878027 137.7203547
  67.8131055  58.7609789 138.8177292  65.7530906  60.3582668 157.9868665
  66.6222066  60.5323320 157.6255300  65.2737658  61.1777085 157.8644395
  61.7481125  47.5541865 138.2400421  61.7359795  48.4983705 138.3968692
  62.6404547  47.3712010 137.9459882  59.9217087  67.4779769 149.6658099
  60.8244333  67.5103379 149.9824594  59.6954457  66.5480220 149.6804435
  61.6770689  66.2310755 146.3268178  60.7266320  66.2312617 146.2132550
  61.9803175  65.4843490 145.8104212  65.5633244  44.1484642 142.4946358
  64.7965640  43.5943128 142.6403040  65.9743949  44.2206510 143.3560509
  77.4123382  72.0671294 147.3913940  78.0501792  71.9478041 146.6877280
  77.2944225  73.0152138 147.4501892  74.2213088  72.0198722 147.3275465
  73.8831600  71.9039787 146.4396000  75.0902857  71.6189887 147.3076471
  70.0799904  73.8734198 143.3172356  69.5164769  73.7824135 142.5488643
  69.9652299  73.0534103 143.7974848  74.7032871  73.1733574 153.2861670
  74.6921512  72.7786372 152.4142174  74.8653511  72.4399646 153.8795442
  67.6264336  75.3685390 146.1556576  68.4185628  75.0276215 145.7402875
  67.8660986  75.4780365 147.0758729  75.6599463  77.5405166 138.6286821
  75.0087443  78.1259246 138.2420834  76.4543826  78.0711361 138.6881858
  69.5855090  74.6294303 139.0273955  70.3585966  74.0823290 138.8886831
  69.9380489  75.4938552 139.2388416  71.4240133  75.9570685 152.2340854
  71.1329999  76.8616316 152.1187521  72.0597117  75.9987213 152.9484924
  72.3496339  73.3347534 148.8242214  72.9459912  73.1103556 148.1099177
  72.4071311  72.5932279 149.4267662  71.9221368  70.7886969 136.6592405
  72.1746888  70.2668491 135.8975868  70.9845927  70.6253115 136.7619088
  76.9664651  69.7922748 144.4667148  77.7527740  69.3742171 144.1157565
  77.2303355  70.6968840 144.6348796  77.1374728  75.2295598 139.1655805
  76.5020561  75.3030224 139.8776709  76.8072134  75.8189197 138.4874884
  82.3673078  69.7297981 145.3700127  83.0998250  69.1597198 145.6037956
  81.6112433  69.3419581 145.8106632  71.6417657  72.6915075 138.8616780
  71.5253915  72.0159979 139.5297864  71.7519916  72.2047449 138.0448933
  73.9849197  72.1525222 142.5663469  73.6207405  71.6255843 143.2776390
  74.8416313  71.7623691 142.3929954  79.8898498  63.4419555 149.8294735
  79.5581823  64.3114966 149.6055950  79.2944112  63.1255839 150.5088766
  73.6254684  67.1815122 137.5624818  73.7929087  68.0495358 137.9295289
  73.4351854  67.3442404 136.6386107  76.3830018  75.6432101 149.2290648
  76.0830741  76.5457140 149.1206455  76.0381077  75.3764284 150.0811801
  69.8342499  72.0945898 145.2627352  68.9092996  71.9622112 145.4705044
  70.0826912  72.8740117 145.7597295  79.7827161  68.1614641 146.9088085
  78.8744039  68.0930050 146.6146846  79.7314757  68.6386586 147.7369911
  73.6043905  69.6372780 138.5471484  73.4843531  70.0829830 139.3856965
  72.9096494  69.9858097 137.9885022  67.1951310  71.7379171 146.0971141
  67.3243691  71.9913650 147.0110553  66.5148761  72.3306879 145.7775796
  71.3650797  82.4076421 142.1961616  71.2874827  83.3584246 142.2750096
  70.7612441  82.0622294 142.8536542  73.8568027  69.5804287 154.8522982
  73.0801361  70.1398207 154.8425847  74.4958590  70.0661070 155.3737853
  81.6488808  66.3631080 148.6865959  81.0063188  66.6563613 148.0405754
  81.1443736  66.2484000 149.4919156  79.3028972  70.1094253 139.3751818
  80.2146828  70.3421639 139.1999516  78.7938619  70.6931297 138.8126897
  72.1114400  72.3889740 154.4140949  72.8529084  72.9274784 154.1375773
  71.4051385  73.0156029 154.5712501  77.5869739  74.5318881 153.0113111
  77.9953095  74.0901291 152.2667743  76.8647001  73.9571508 153.2647304
  73.9400809  69.4691487 150.3846668  74.7862004  69.8930901 150.5281317
  73.8799447  68.8125112 151.0785231  77.9098554  75.0920071 146.7665400
  77.2807416  75.2565785 146.0641468  77.5224216  75.5061681 147.5376364
  81.7887786  76.0274509 144.1209764  81.1038824  76.4073410 143.5706797
  81.8731635  76.6369836 144.8541711  77.0900255  67.1295856 152.0427842
  76.8461186  67.8837916 151.5062117  77.3660185  67.5081203 152.8775089
  79.0438717  73.6734468 150.7205107  79.2555613  74.3166228 150.0439488
  78.9968466  72.8396785 150.2527037  76.6464946  66.2852289 147.6241679
  75.7849425  66.5833542 147.9158417  76.6727381  66.5022688 146.6922712
  73.4626516  74.8294479 144.0315485  73.9264861  75.1082182 143.2420107
  73.1983314  73.9277924 143.8488576  70.3550597  74.3765961 146.9695248
  70.9251954  74.8053229 146.3312733  70.9458709  74.0948545 147.6679434
  72.3995402  70.9517632 140.8405050  73.1019445  71.4038675 141.3078976
  72.0676030  70.3101450 141.4684943  70.8475763  69.5429388 155.2156259
  70.2174424  70.2245669 155.4491656  70.7411851  69.4312470 154.2709398
  66.1420736  69.2101184 146.1422184  65.3519790  69.4658713 145.6662294
  66.6331983  70.0249522 146.2474224  80.1584545  76.5506423 148.8927464
  80.9801989  76.1486611 148.6110146  80.1546948  76.4474658 149.8443580
  68.0935481  69.5745764 143.1005660  67.2966644  69.6864458 143.6189156
  67.8661073  69.9132416 142.2346551  73.9241149  76.0990467 151.0488175
  73.9885581  76.5610874 151.8846347  73.2152073  75.4687832 151.1770485
  64.4258439  69.4631675 148.5737174  64.6766477  70.3478685 148.8394750
  64.9617987  69.2836276 147.8012266  88.2490538  72.8945172 145.2412436
  87.4954247  72.3252570 145.0856440  88.3838080  72.8607836 146.1883071
  73.6389166  77.7658574 140.9167155  73.5034841  78.6110110 141.3452003
  74.1798979  77.9677852 140.1533089  70.1256506  63.8450154 157.5781511
  69.7323452  63.2916353 158.2529155  70.9422646  64.1560733 157.9688028
  67.0918564  75.2834012 141.4895080  67.6043084  76.0777263 141.6400645
  67.7441277  74.5860303 141.4228682  68.9013448  78.3999769 143.5717834
  69.0780077  79.3217733 143.3838817  69.6970282  78.0858188 144.0012213
  73.0424467  65.2608033 155.1701767  73.7834180  65.8615186 155.0906230
  73.2742390  64.5185671 154.6119810  68.1865805  70.4464400 153.4479997
  68.0719320  69.5449658 153.7487096  67.3310323  70.6928097 153.0964813
  75.2657643  78.3882141 155.0467497  74.8221497  77.6018519 154.7288402
  75.9274856  78.5761291 154.3811388  70.0244764  79.9177942 149.5728176
  70.5752189  79.7895006 148.8005170  69.1856240  80.2172831 149.2223069
  77.3638881  78.6684941 153.0748899  77.3457356  79.4893822 152.5829168
  78.2858801  78.5439016 153.2999040  73.8211935  76.1829070 153.9172407
  74.3540272  75.4217358 153.6871715  73.2926016  75.8902722 154.6596562
  76.9881630  61.2889136 149.4466049  76.6445899  62.1790778 149.3705159
  77.3560593  61.0990794 148.5835634  65.0567481  73.6122667 142.2654651
  65.8942703  74.0219675 142.0488359  65.2345748  72.6722109 142.2354845
  76.9531913  71.2797747 137.9538484  76.4378536  72.0502352 138.1926871
  76.6809221  70.6062883 138.5771545  74.5379024  66.1247448 143.0123722
  73.6820620  65.7354298 142.8329361  74.9505975  66.2039409 142.1523508
  76.0678170  63.6593791 147.4115282  75.5642966  63.6223926 146.5983087
  76.3608777  64.5686534 147.4711939  72.3121056  63.7432521 146.4181464
  73.1774053  63.5475330 146.0587353  72.3798565  63.5142873 147.3450821
  81.9266187  74.0330102 139.8891657  81.1495630  73.6941261 139.4446819
  82.6057668  74.0382725 139.2146622  76.7418216  69.1524839 139.7798265
  76.4368351  69.4670988 140.6308408  77.6948658  69.2306259 139.8225598
  75.1864648  75.3115063 141.4291219  74.6586009  74.5767822 141.1164457
  74.6852150  76.0889739 141.1831187  80.1657494  73.5064083 146.5458265
  79.5081168  74.1963345 146.6338394  80.9697893  73.8960515 146.8892252
  69.9183375  65.9734729 143.7897831  70.4927127  65.7509910 143.0571024
  70.5054358  66.0423423 144.5426432  78.9762952  71.8608456 144.5962207
  79.4894834  72.4938448 145.0983917  79.6264176  71.2609651 144.2305567
  70.2452962  68.0039190 137.8093716  69.4090275  68.3413876 138.1302991
  70.1057732  67.8688170 136.8720853  72.2206043  62.8475978 142.5172900
  71.5670455  62.5324995 141.8929515  72.1786517  62.2251718 143.2432723
  73.3317248  73.1295273 134.4326192  72.4244310  72.8984526 134.6317341
  73.8288280  72.3332892 134.6200174  76.2385327  81.8392780 137.3522878
  75.5647025  82.1424477 137.9607836  76.6251149  82.6421860 137.0028335
  75.4543783  69.3357911 146.8420548  74.5366345  69.5572858 146.6842236
  75.8703927  69.4104222 145.9832255  76.2378831  70.7349327 141.9723228
  76.9850650  71.2470724 141.6630350  76.5070421  70.4133380 142.8327621
  74.5105481  73.2307868 138.9550182  73.6016701  72.9466901 139.0522652
  74.5400565  73.6506946 138.0953489  79.7424749  76.8414457 142.7241350
  79.2887076  76.0005367 142.7806540  79.1118715  77.4775856 143.0616130
  78.6857668  67.7706443 143.9542017  77.9480425  67.2583830 144.2852260
  78.9384442  67.3306825 143.1425294  78.1857688  78.6790954 143.6591168
  78.4780662  79.2396011 142.9403534  78.6956309  78.9719515 144.4144327
  78.7869296  60.5482695 144.5483786  79.0928172  59.6880059 144.2609702
  79.5121900  61.1400315 144.3482780  65.0793652  70.9513382 142.9365384
  64.8818051  70.3582743 142.2116451  64.5240316  70.6465592 143.6541323
  73.0590375  70.8436488 145.0559978  73.1138985  69.8910325 144.9802454
  72.2481577  70.9995927 145.5401276  74.2081569  74.7716611 136.2938261
  73.7700999  74.0552470 135.8343898  74.9492010  74.9992726 135.7323352
  70.9982735  69.4613548 142.8150356  70.1850601  69.7607719 143.2215549
  71.4941729  69.0669237 143.5324839  73.1491313  79.4571305 144.7484621
  73.1067492  79.6832151 143.8193153  74.0654012  79.2234680 144.8970422
  76.5956947  69.9255373 151.6465250  76.9506335  70.1526846 152.5059716
  77.2429078  70.2573749 151.0242506  82.3254684  73.0473808 142.3514579
  82.1872582  73.2375404 141.4235769  81.9690903  73.8093191 142.8082630
  70.4896810  67.0331904 148.4311591  71.1296189  66.8920663 147.7334555
  69.6574341  66.7466417 148.0550193  82.3524063  75.1150335 147.3625851
  82.7860570  75.0225625 148.2108905  83.0655644  75.0907836 146.7245867
  71.2657114  76.3334334 144.5446584  72.0597712  75.8384654 144.3429159
  70.5548806  75.8052197 144.1814289  76.0851958  78.7152430 148.8958951
  76.1388981  79.2843366 149.6636667  75.2166740  78.8854315 148.5312989
  67.5739877  70.4777416 140.6206336  66.6437465  70.4161871 140.8376299
  67.6697349  69.9553369 139.8242978  67.4925426  67.0032229 143.2084578
  67.7532244  67.9177562 143.0993739  68.3142599  66.5356671 143.3581191
  68.9650352  68.4169986 150.3783403  69.6373405  68.2087348 149.7296052
  68.1380138  68.2192072 149.9388635  83.2139613  75.1574036 149.8958736
  83.4075503  76.0619847 150.1418011  83.1140231  74.6981455 150.7297321
  74.8675924  65.0431927 152.3949064  74.2203839  65.7421876 152.3013540
  75.6376939  65.4768071 152.7625312  78.2754722  75.3080779 155.4699617
  78.1240228  75.0791331 154.5529701  78.2659401  76.2651380 155.4830962
  75.0440058  72.8812692 150.4545883  75.9732118  73.0323851 150.2814851
  74.6231088  72.9696712 149.5994530  73.8428390  76.9063356 148.2244421
  73.7039476  76.5382140 149.0970359  73.0542986  77.4210995 148.0528379
  74.4376542  82.0072453 139.5669957  74.6128298  81.5360496 140.3815580
  73.7509330  82.6338219 139.7951218  75.3933605  76.2844959 145.6133259
  75.0583438  76.2445729 146.5090909  74.8937551  75.6189675 145.1403669
  69.3677849  71.6912589 151.1385840  69.2297647  70.9592828 151.7397379
  70.2782772  71.6021489 150.8570028  78.3292797  73.6300993 135.8870318
  77.7121967  72.9047821 135.7903371  77.8609285  74.3910353 135.5437393
  71.9960150  71.4032548 150.6269520  72.7059768  70.7625740 150.5856138
  71.9529458  71.6545443 151.5495700  79.9846928  78.3399901 153.5476099
  79.9259475  77.6559122 152.8806682  80.3866447  79.0818891 153.0956725
  70.7089084  68.3897766 152.4465159  70.1726441  67.9388504 153.0986755
  70.1205792  68.5243675 151.7035623  69.0037627  85.1561815 146.3409818
  69.2434225  85.7880339 147.0188836  68.1606824  84.8049855 146.6275177
  70.1191343  67.8486417 135.0091623  69.2420809  67.7275218 134.6453869
  70.5949096  67.0572496 134.7570511  79.9864336  76.3039485 151.7790078
  79.0991114  75.9665407 151.9016477  80.5562887  75.5722517 152.0158844
  61.6393483  72.6363577 145.1033130  62.3264523  72.3225307 144.5154145
  61.4841611  73.5404942 144.8300381  66.4428205  67.5253774 149.5318153
  66.3586394  66.9179443 148.7968563  65.6210911  68.0162792 149.5327650
  73.5165489  80.9640938 148.7451322  73.4435661  81.7695909 149.2570626
  73.0742882  81.1632904 147.9199343  73.3055269  80.2012708 142.2554143
  72.5222791  80.7434388 142.3492368  74.0048014  80.7186687 142.6548384
  76.6151919  66.0107337 144.8988349  77.1120618  65.2577300 144.5789419
  75.8438900  66.0471654 144.3331558  84.4681676  71.7147703 146.5406640
  84.4571552  72.5972418 146.1700573  83.5999056  71.3619254 146.3461177
  75.9764173  80.8627772 150.9009480  76.6892145  81.4975237 150.8285382
  75.4854201  80.9591638 150.0849482  77.6981699  74.7679024 142.4726772
  76.7637978  74.8880487 142.3031476  77.8758368  73.8651491 142.2086782
  73.1986888  68.1524720 144.6260033  72.8284675  67.5995761 145.3140939
  73.6945980  67.5482854 144.0735033  81.0854251  70.6096344 143.0076806
  81.5514703  71.4424335 142.9337109  81.5361751  70.1441325 143.7122065
  71.0276086  78.6122215 151.7215051  71.7285546  79.2458698 151.8744445
  70.5571201  78.9536947 150.9610690  79.1530482  76.9540165 140.0062958
  79.4290326  76.8396760 140.9156832  78.2834981  76.5557650 139.9675131
  79.0570914  62.9776931 147.0467707  78.1433993  63.2081158 147.2149914
  79.4864015  63.0615375 147.8981740  78.8277372  71.1666823 149.5467601
  78.1748822  71.4142730 148.8920054  79.2057752  70.3530961 149.2130079
  75.7884546  81.2026516 143.6495772  75.9706940  80.3848172 144.1123524
  76.6117532  81.4194208 143.2120662  76.1226711  80.1294701 140.9110820
  76.6514478  79.6187156 140.2980982  76.3854931  79.8137231 141.7756353
  74.8764945  71.9086634 156.0333639  74.2005582  71.8080763 156.7036014
  75.6992579  71.7525847 156.4969636  66.6243804  78.1458570 148.6546154
  67.2097241  77.4002258 148.7874058  66.4268643  78.4562527 149.5382818
  69.4782459  81.1809818 143.6708596  68.8092835  81.6655945 143.1872636
  69.3395329  81.4279038 144.5851975  61.2161459  70.7164170 147.3750597
  61.2545558  70.1827761 148.1687715  60.7101752  70.1899376 146.7561574
  73.6187728  83.2153561 150.2691254  74.1706036  83.3785183 151.0340340
  73.9593921  83.8057999 149.5971279  68.5952221  65.5628711 150.8713139
  68.6593548  66.4243542 150.4590537  68.5319341  64.9502713 150.1385498
  68.0704494  67.6351844 154.5186173  68.6976533  67.2528921 155.1323698
  67.2132413  67.4166045 154.8841866  78.4698602  78.0414819 156.1239909
  79.0138506  78.6544777 155.6294864  77.8885447  78.5994397 156.6406922
  64.8470036  69.4428273 140.4504528  65.1423478  68.5338951 140.3971582
  63.9458072  69.4216012 140.1285531  76.7556115  81.1635537 147.2554937
  76.6307255  80.3625277 146.7465882  77.4135206  81.6581730 146.7668907
  68.3764283  67.5184269 146.4332077  67.6550869  68.1320237 146.2939550
  69.1657539  68.0542034 146.3548723  78.8191024  78.9644557 148.8834487
  77.8721359  78.8449908 148.8112813  79.1673797  78.0767055 148.9660748
  71.1790597  64.8538696 152.7072729  71.7024999  65.1000992 153.4699038
  70.9602930  65.6858731 152.2875866  66.5757878  67.1242370 140.5743853
  66.2470584  66.2439749 140.3918959  66.9297249  67.0690039 141.4620243
  75.8237457  78.7597273 145.0838839  75.6762419  77.8313980 145.2646409
  76.6490950  78.7817364 144.5995914  69.6899701  67.4115340 140.9419331
  70.0295774  67.9401261 140.2197939  70.1371822  67.7495746 141.7177898
  79.4271579  79.5825832 146.1703712  80.3518126  79.3768693 146.0328163
  79.2586882  79.3342233 147.0793053  72.3843142  65.7952391 150.3922399
  72.0439962  64.9960204 150.7943079  71.6782148  66.0954102 149.8199232
  73.0359614  62.8801703 148.8449722  73.8585683  62.4062181 148.7228613
  73.2797677  63.6592187 149.3448408  71.6767848  65.9089962 139.1412624
  72.3976211  66.2871214 138.6376341  71.0533152  66.6278838 139.2447602
  75.8198971  66.6135111 140.0770956  76.0362586  67.4959749 139.7759784
  75.3393038  66.2221324 139.3476598  70.5598193  69.5720824 146.6541701
  70.4142773  69.8861127 147.5465982  70.0823396  70.1905724 146.1012599
  72.4194575  66.5623372 146.7022590  72.4056144  65.6664465 146.3654888
  73.1367004  66.5694036 147.3360876  74.2720706  66.9960712 148.7475718
  74.0138484  67.9177783 148.7460048  73.7405747  66.5991147 149.4376182
  79.2166895  80.1011499 141.5265803  79.3903772  79.5357922 140.7739656
  79.7095786  80.9012394 141.3445293  65.0343855  72.1126168 149.5929362
  64.4897323  72.8885976 149.7249636  65.9123205  72.4596973 149.4348483
  71.8231471  65.4437752 141.9710160  71.9447383  64.5154398 142.1701048
  71.5333514  65.4576438 141.0588476  74.6922662  63.1292663 145.1076880
  74.7144359  63.1931996 144.1528860  75.1090721  62.2897171 145.3017386
  85.0706286  72.8647922 143.1456103  85.5137432  72.1155247 142.7475226
  84.1932796  72.8558058 142.7629835  80.2042067  79.4178264 138.6262701
  80.8992972  80.0384956 138.8450016  80.5465218  78.5673615 138.9015079
  65.8209877  71.2396065 152.4859519  65.0791613  71.3878700 153.0724149
  65.5002621  71.5004330 151.6226268  82.1033491  76.8677969 140.1550032
  82.6284815  77.2065242 139.4299352  82.0155843  75.9324984 139.9713167
  73.7653539  80.7812043 152.2839909  74.0740666  80.5361190 153.1562608
  74.5629021  80.9858681 151.7958779  73.7874151  82.9349952 144.5145285
  73.3479142  82.4426331 145.2078142  74.5382268  82.3922920 144.2737361
  66.2666490  79.1261493 144.5169913  67.0924510  78.8265265 144.1368557
  65.9160542  78.3569116 144.9659702  71.2348023  78.4787961 146.5867587
  70.6128033  77.8158667 146.2869815  71.9052890  78.5049093 145.9041235
  64.4675095  77.0447820 145.4758847  63.6307004  76.6169994 145.2942848
  64.4398741  77.2380263 146.4129638  71.3072551  66.9569750 156.1800093
  71.3560706  67.8331872 155.7977863  71.8495065  66.4147143 155.6071736
  81.7927397  77.5010873 155.4601230  81.0022940  77.4835012 154.9205730
  81.5560751  78.0399166 156.2150267  81.9125272  74.3503339 152.7733959
  81.9623277  74.1853347 153.7149482  81.8039195  73.4830598 152.3831839
  70.7961530  77.0291885 140.0626048  70.9449651  77.7127349 139.4092720
  71.6027974  77.0096975 140.5775503  79.2029034  70.3334267 154.0893265
  80.1038897  70.1940732 153.7977263  79.2777009  70.4988722 155.0291443
  73.5371839  67.7101122 152.9346452  72.6675149  68.0034688 152.6629040
  73.7731320  68.2941567 153.6553715  83.4143469  76.7700281 153.0175980
  83.1228277  77.1330261 153.8539441  82.8015600  76.0567289 152.8389312
  84.6139151  74.3353160 145.5378550  85.4486042  74.7742964 145.7016111
  84.7498280  73.8591814 144.7186796  81.6630657  71.8932895 151.4856038
  82.1384778  72.0860542 150.6774890  80.7396222  71.9492081 151.2399422
  68.5514163  73.0557062 141.0687117  68.3060205  72.1519392 141.2667327
  68.7210078  73.0574213 140.1266595  76.2410873  63.9280739 150.4511872
  76.7592817  64.6641766 150.1258361  75.8866006  64.2344732 151.2858631
  67.8209811  68.7885420 138.5673278  67.1279056  68.8629775 137.9113314
  67.5761563  68.0245764 139.0894795  76.4923467  60.3481021 145.9712769
  76.7725221  59.6804210 146.5973195  77.2774074  60.5410117 145.4587433
  74.2956936  79.5240015 137.5337795  73.7230903  80.1430202 137.0808267
  74.8689730  80.0739377 138.0677717  80.3632326  68.7698655 149.7184344
  81.3149749  68.8696753 149.7396568  80.1935776  67.9776924 150.2282428
  78.3846705  65.8554239 149.9043745  77.7896637  66.1359251 149.2090233
  78.0996402  66.3448140 150.6760486  77.5154196  79.8077165 138.6646377
  78.4484869  79.7422727 138.8679253  77.4277409  80.6433432 138.2060910
  80.1442212  79.1243036 135.6250325  80.0655844  78.7902899 136.5186083
  80.9651879  79.6164804 135.6241797  82.8420404  71.9904775 148.8326643
  82.8096724  71.0520776 149.0186327  83.4521027  72.0688812 148.0992468
  74.6803734  70.8600828 134.8753848  75.6262839  70.7307036 134.9442266
  74.3017979  70.1215490 135.3523276  82.9914892  68.7815818 148.8784927
  82.4753941  67.9974275 148.6914856  83.8754841  68.4534535 149.0431446
  80.6525619  62.5256834 144.8380739  80.4550440  62.2171922 145.7224071
  81.2625325  63.2518473 144.9678669  88.6596953  73.0520782 147.9732680
  89.3900342  72.7906070 148.5340384  88.0503899  72.3149504 148.0134748
  86.7412251  71.1928644 148.5707131  86.0145414  71.0584609 147.9623623
  86.3259537  71.5005473 149.3763850  74.5642427  74.9118574 156.3354505
  75.4845436  75.0897173 156.5294551  74.5292010  73.9674620 156.1834204
  72.8646652  68.7850804 134.8108733  71.9578107  68.4883917 134.8871446
  73.1422633  68.4880622 133.9443019  63.7824592  70.1057168 145.2607779
  63.4627376  69.2522476 144.9682153  63.2358020  70.3205746 146.0165746
  67.5604499  72.8219609 148.9777286  67.7790509  73.7536717 148.9965319
  67.9730273  72.4627583 149.7632090  74.4808717  63.3287694 140.9652974
  73.6709446  62.9834779 141.3408220  75.1693134  63.0195238 141.5540586
  76.4099266  62.4065741 142.5877271  76.9630304  62.8261194 143.2467294
  76.6469352  61.4801489 142.6300227  72.4332365  68.3952815 158.3680035
  72.3329092  69.3447172 158.2992126  72.2153907  68.0671053 157.4956105
  71.6345436  65.6437740 134.9520712  72.4964600  65.9692638 135.2116529
  71.8195780  64.8569236 134.4393778  63.6512852  73.7260079 147.2300901
  62.9576323  73.3114032 146.7170855  64.3985843  73.7680616 146.6334320
  79.7878073  64.5166266 142.0955935  79.2076742  65.1751070 141.7133987
  79.5214005  63.6943611 141.6843352  78.2381639  63.9171324 144.2977255
  78.7381417  64.0287858 143.4891574  78.8817247  63.6132377 144.9378064
  72.2963635  71.8249953 157.1845096  71.8130717  72.6250314 157.3908985
  72.3824574  71.8357898 156.2312540  65.5649594  73.6578333 145.1066916
  65.5420283  73.7566020 144.1548799  65.8750231  74.5043484 145.4284082
  68.2236972  75.7154488 149.2213530  69.1780226  75.6838430 149.1543462
  68.0249496  75.2545112 150.0363756  68.8136354  74.2855604 151.7884328
  69.6329243  74.7799683 151.8119165  69.0873162  73.3687572 151.7601895
  78.5702951  66.6766356 141.1512283  77.6828806  66.9616007 140.9332478
  78.9856940  66.5160120 140.3039560  81.9217487  66.7012877 144.8666622
  82.6977877  67.1909330 145.1391239  81.1965621  67.1270932 145.3238492
  84.3590045  67.4140497 145.9240563  84.9534536  67.1736233 145.2133871
  84.4316629  66.6947627 146.5514099  66.5787201  81.2574108 146.2383728
  66.4441669  80.4974508 145.6721726  66.1619263  81.9815007 145.7712517
  77.7146164  76.4411031 135.2460303  78.4182014  76.6461034 135.8617959
  76.9908813  77.0087793 135.5109387  78.5443974  72.1920892 141.3662573
  78.4879176  72.6489444 140.5270206  79.0972317  71.4311577 141.1885416
  82.3548780  67.9810624 142.1912693  82.0985715  67.5807260 143.0220901
  81.7301648  68.6954418 142.0662832  86.6661118  70.7206698 144.6983984
  86.1060676  70.7899887 145.4715546  86.0604622  70.5447682 143.9783481
  69.7356327  82.1543425 146.4502171  69.6188711  83.0988857 146.3480861
  68.9148773  81.8516986 146.8387970  79.6232862  76.8793560 137.2958763
  80.4578465  76.4474759 137.1136238  79.4617204  76.7075574 138.2235658
  79.2778754  73.3825674 138.6615103  79.2227558  73.2169945 137.7203547
  78.6524809  74.0901707 138.8177292  64.0671269  68.6193738 152.4876525
  64.7130132  68.1092692 152.9763750  63.8588420  69.3562420 153.0619950
  76.5924661  75.6874586 157.9868665  77.4615821  75.8615238 157.6255300
  76.1131412  76.5069002 157.8644395  72.5874879  62.8833783 138.2400421
  72.5753549  63.8275623 138.3968692  73.4798301  62.7003928 137.9459882
  70.7610841  82.8071687 149.6658099  71.6638088  82.8395297 149.9824594
  70.5348211  81.8772137 149.6804435  72.5164443  81.5602673 146.3268178
  71.5660074  81.5604535 146.2132550  72.8196929  80.8135408 145.8104212
  76.4026999  59.4776559 142.4946358  75.6359394  58.9235046 142.6403040
  76.8137704  59.5498428 143.3560509  68.4068760  65.7661355 156.5851539
  69.2700221  65.4098160 156.7954864  67.8334170  65.4275250 157.2726943
  88.2517137  87.3963211 147.3913940  88.8895547  87.2769959 146.6877280
  88.1337980  88.3444055 147.4501892  85.0606843  87.3490640 147.3275465
  84.7225354  87.2331704 146.4396000  85.9296611  86.9481805 147.3076471
  80.9193659  89.2026116 143.3172356  80.3558524  89.1116053 142.5488643
  80.8046054  88.3826020 143.7974848  85.5426626  88.5025491 153.2861670
  85.5315267  88.1078290 152.4142174  85.7047265  87.7691564 153.8795442
  78.4658091  90.6977308 146.1556576  79.2579382  90.3568132 145.7402875
  78.7054741  90.8072283 147.0758729  86.4993217  92.8697084 138.6286821
  85.8481197  93.4551164 138.2420834  87.2937580  93.4003279 138.6881858
  80.4248844  89.9586221 139.0273955  81.1979720  89.4115208 138.8886831
  80.7774243  90.8230470 139.2388416  82.2633887  91.2862603 152.2340854
  81.9723753  92.1908234 152.1187521  82.8990871  91.3279131 152.9484924
  83.1890094  88.6639452 148.8242214  83.7853666  88.4395474 148.1099177
  83.2465065  87.9224197 149.4267662  82.7615122  86.1178887 136.6592405
  83.0140643  85.5960408 135.8975868  81.8239681  85.9545032 136.7619088
  87.8058405  85.1214665 144.4667148  88.5921494  84.7034088 144.1157565
  88.0697109  86.0260757 144.6348796  87.9768482  90.5587516 139.1655805
  87.3414315  90.6322142 139.8776709  87.6465889  91.1481114 138.4874884
  93.2066832  85.0589899 145.3700127  93.9392004  84.4889115 145.6037956
  92.4506188  84.6711499 145.8106632  82.4811411  88.0206993 138.8616780
  82.3647669  87.3451896 139.5297864  82.5913671  87.5339367 138.0448933
  84.8242952  87.4817140 142.5663469  84.4601159  86.9547761 143.2776390
  85.6810068  87.0915609 142.3929954  90.7292253  78.7711473 149.8294735
  90.3975577  79.6406884 149.6055950  90.1337866  78.4547757 150.5088766
  84.4648439  82.5107040 137.5624818  84.6322841  83.3787276 137.9295289
  84.2745608  82.6734321 136.6386107  87.2223772  90.9724019 149.2290648
  86.9224495  91.8749057 149.1206455  86.8774832  90.7056202 150.0811801
  80.6736254  87.4237815 145.2627352  79.7486750  87.2914030 145.4705044
  80.9220667  88.2032035 145.7597295  90.6220916  83.4906559 146.9088085
  89.7137793  83.4221967 146.6146846  90.5708512  83.9678504 147.7369911
  84.4437660  84.9664697 138.5471484  84.3237285  85.4121748 139.3856965
  83.7490248  85.3150015 137.9885022  78.0345065  87.0671089 146.0971141
  78.1637446  87.3205568 147.0110553  77.3542516  87.6598797 145.7775796
  82.2044552  97.7368339 142.1961616  82.1268582  98.6876164 142.2750096
  81.6006196  97.3914211 142.8536542  84.6961782  84.9096204 154.8522982
  83.9195116  85.4690125 154.8425847  85.3352345  85.3952987 155.3737853
  92.4882562  81.6922997 148.6865959  91.8456943  81.9855530 148.0405754
  91.9837491  81.5775918 149.4919156  90.1422726  85.4386170 139.3751818
  91.0540582  85.6713557 139.1999516  89.6332373  86.0223215 138.8126897
  82.9508154  87.7181658 154.4140949  83.6922838  88.2566702 154.1375773
  82.2445139  88.3447946 154.5712501  88.4263494  89.8610798 153.0113111
  88.8346850  89.4193209 152.2667743  87.7040755  89.2863426 153.2647304
  84.7794564  84.7983405 150.3846668  85.6255759  85.2222819 150.5281317
  84.7193201  84.1417029 151.0785231  88.7492308  90.4211989 146.7665400
  88.1201171  90.5857703 146.0641468  88.3617970  90.8353598 147.5376364
  92.6281540  91.3566427 144.1209764  91.9432578  91.7365328 143.5706797
  92.7125390  91.9661753 144.8541711  87.9294009  82.4587773 152.0427842
  87.6854941  83.2129834 151.5062117  88.2053940  82.8373121 152.8775089
  89.8832472  89.0026386 150.7205107  90.0949367  89.6458146 150.0439488
  89.8362220  88.1688702 150.2527037  87.4858701  81.6144206 147.6241679
  86.6243180  81.9125460 147.9158417  87.5121135  81.8314605 146.6922712
  84.3020270  90.1586397 144.0315485  84.7658616  90.4374100 143.2420107
  84.0377068  89.2569841 143.8488576  81.1944351  89.7057878 146.9695248
  81.7645708  90.1345147 146.3312733  81.7852463  89.4240463 147.6679434
  83.2389156  86.2809549 140.8405050  83.9413200  86.7330593 141.3078976
  82.9069785  85.6393368 141.4684943  81.6869518  84.8721306 155.2156259
  81.0568178  85.5537587 155.4491656  81.5805606  84.7604388 154.2709398
  76.9814490  84.5393102 146.1422184  76.1913544  84.7950630 145.6662294
  77.4725738  85.3541440 146.2474224  90.9978300  91.8798341 148.8927464
  91.8195743  91.4778528 148.6110146  90.9940703  91.7766575 149.8443580
  78.9329236  84.9037681 143.1005660  78.1360399  85.0156375 143.6189156
  78.7054828  85.2424333 142.2346551  84.7634903  91.4282384 151.0488175
  84.8279336  91.8902792 151.8846347  84.0545827  90.7979749 151.1770485
  75.2652193  84.7923592 148.5737174  75.5160232  85.6770602 148.8394750
  75.8011742  84.6128194 147.8012266  99.0884293  88.2237090 145.2412436
  98.3348001  87.6544488 145.0856440  99.2231834  88.1899754 146.1883071
  84.4782921  93.0950492 140.9167155  84.3428596  93.9402028 141.3452003
  85.0192733  93.2969770 140.1533089  80.9650260  79.1742072 157.5781511
  80.5717206  78.6208270 158.2529155  81.7816401  79.4852650 157.9688028
  77.9312318  90.6125930 141.4895080  78.4436839  91.4069180 141.6400645
  78.5835031  89.9152220 141.4228682  79.7407203  93.7291686 143.5717834
  79.9173831  94.6509651 143.3838817  80.5364036  93.4150105 144.0012213
  83.8818221  80.5899951 155.1701767  84.6227935  81.1907104 155.0906230
  84.1136144  79.8477589 154.6119810  79.0259559  85.7756318 153.4479997
  78.9113075  84.8741575 153.7487096  78.1704077  86.0220015 153.0964813
  86.1051397  93.7174058 155.0467497  85.6615251  92.9310437 154.7288402
  86.7668611  93.9053209 154.3811388  80.8638518  95.2469860 149.5728176
  81.4145944  95.1186923 148.8005170  80.0249994  95.5464749 149.2223069
  88.2032635  93.9976858 153.0748899  88.1851111  94.8185739 152.5829168
  89.1252555  93.8730934 153.2999040  84.6605689  91.5120988 153.9172407
  85.1934026  90.7509276 153.6871715  84.1319771  91.2194640 154.6596562
  87.8275384  76.6181054 149.4466049  87.4839654  77.5082695 149.3705159
  88.1954347  76.4282711 148.5835634  75.8961235  88.9414584 142.2654651
  76.7336457  89.3511593 142.0488359  76.0739503  88.0014026 142.2354845
  87.7925667  86.6089665 137.9538484  87.2772291  87.3794270 138.1926871
  87.5202976  85.9354801 138.5771545  85.3772778  81.4539366 143.0123722
  84.5214375  81.0646216 142.8329361  85.7899730  81.5331326 142.1523508
  86.9071925  78.9885709 147.4115282  86.4036720  78.9515844 146.5983087
  87.2002532  79.8978452 147.4711939  83.1514811  79.0724439 146.4181464
  84.0167807  78.8767247 146.0587353  83.2192320  78.8434790 147.3450821
  92.7659941  89.3622020 139.8891657  91.9889384  89.0233179 139.4446819
  93.4451422  89.3674643 139.2146622  87.5811970  84.4816757 139.7798265
  87.2762106  84.7962906 140.6308408  88.5342412  84.5598177 139.8225598
  86.0258402  90.6406980 141.4291219  85.4979764  89.9059740 141.1164457
  85.5245905  91.4181657 141.1831187  91.0051248  88.8356001 146.5458265
  90.3474923  89.5255262 146.6338394  91.8091647  89.2252433 146.8892252
  80.7577130  81.3026647 143.7897831  81.3320882  81.0801828 143.0571024
  81.3448112  81.3715341 144.5426432  89.8156707  87.1900373 144.5962207
  90.3288589  87.8230365 145.0983917  90.4657931  86.5901569 144.2305567
  81.0846717  83.3331108 137.8093716  80.2484029  83.6705794 138.1302991
  80.9451487  83.1980087 136.8720853  83.0599797  78.1767895 142.5172900
  82.4064210  77.8616913 141.8929515  83.0180272  77.5543636 143.2432723
  84.1711002  88.4587191 134.4326192  83.2638064  88.2276444 134.6317341
  84.6682034  87.6624810 134.6200174  87.0779081  97.1684698 137.3522878
  86.4040780  97.4716395 137.9607836  87.4644903  97.9713778 137.0028335
  86.2937538  84.6649829 146.8420548  85.3760099  84.8864776 146.6842236
  86.7097681  84.7396140 145.9832255  87.0772586  86.0641245 141.9723228
  87.8244405  86.5762642 141.6630350  87.3464175  85.7425297 142.8327621
  85.3499236  88.5599785 138.9550182  84.4410455  88.2758818 139.0522652
  85.3794320  88.9798864 138.0953489  90.5818503  92.1706375 142.7241350
  90.1280830  91.3297285 142.7806540  89.9512470  92.8067773 143.0616130
  89.5251423  83.0998361 143.9542017  88.7874180  82.5875747 144.2852260
  89.7778196  82.6598743 143.1425294  89.0251442  94.0082872 143.6591168
  89.3174417  94.5687929 142.9403534  89.5350063  94.3011433 144.4144327
  89.6263050  75.8774613 144.5483786  89.9321927  75.0171976 144.2609702
  90.3515655  76.4692233 144.3482780  75.9187406  86.2805300 142.9365384
  75.7211806  85.6874660 142.2116451  75.3634070  85.9757510 143.6541323
  83.8984130  86.1728406 145.0559978  83.9532740  85.2202242 144.9802454
  83.0875332  86.3287845 145.5401276  85.0475324  90.1008529 136.2938261
  84.6094754  89.3844388 135.8343898  85.7885764  90.3284644 135.7323352
  81.8376490  84.7905466 142.8150356  81.0244355  85.0899636 143.2215549
  82.3335484  84.3961155 143.5324839  83.9885068  94.7863223 144.7484621
  83.9461246  95.0124069 143.8193153  84.9047766  94.5526597 144.8970422
  87.4350701  85.2547290 151.6465250  87.7900089  85.4818763 152.5059716
  88.0822833  85.5865667 151.0242506  93.1648438  88.3765726 142.3514579
  93.0266337  88.5667322 141.4235769  92.8084657  89.1385109 142.8082630
  81.3290564  82.3623821 148.4311591  81.9689944  82.2212580 147.7334555
  80.4968095  82.0758335 148.0550193  93.1917818  90.4442253 147.3625851
  93.6254325  90.3517542 148.2108905  93.9049399  90.4199754 146.7245867
  82.1050868  91.6626252 144.5446584  82.8991467  91.1676572 144.3429159
  81.3942561  91.1344115 144.1814289  86.9245713  94.0444347 148.8958951
  86.9782735  94.6135284 149.6636667  86.0560494  94.2146232 148.5312989
  78.4133632  85.8069333 140.6206336  77.4831220  85.7453789 140.8376299
  78.5091104  85.2845286 139.8242978  78.3319181  82.3324146 143.2084578
  78.5925998  83.2469480 143.0993739  79.1536353  81.8648589 143.3581191
  79.8044106  83.7461903 150.3783403  80.4767160  83.5379266 149.7296052
  78.9773893  83.5483989 149.9388635  94.0533368  90.4865954 149.8958736
  94.2469258  91.3911764 150.1418011  93.9533986  90.0273373 150.7297321
  85.7069678  80.3723844 152.3949064  85.0597593  81.0713794 152.3013540
  86.4770694  80.8059988 152.7625312  89.1148476  90.6372697 155.4699617
  88.9633983  90.4083248 154.5529701  89.1053156  91.5943298 155.4830962
  85.8833813  88.2104609 150.4545883  86.8125873  88.3615769 150.2814851
  85.4624843  88.2988630 149.5994530  84.6822144  92.2355274 148.2244421
  84.5433230  91.8674058 149.0970359  83.8936741  92.7502913 148.0528379
  85.2770296  97.3364370 139.5669957  85.4522052  96.8652413 140.3815580
  84.5903084  97.9630136 139.7951218  86.2327360  91.6136876 145.6133259
  85.8977192  91.5737646 146.5090909  85.7331305  90.9481592 145.1403669
  80.2071604  87.0204506 151.1385840  80.0691401  86.2884745 151.7397379
  81.1176527  86.9313407 150.8570028  89.1686551  88.9592911 135.8870318
  88.5515722  88.2339739 135.7903371  88.7003040  89.7202271 135.5437393
  82.8353904  86.7324466 150.6269520  83.5453523  86.0917658 150.5856138
  82.7923212  86.9837361 151.5495700  90.8240683  93.6691819 153.5476099
  90.7653229  92.9851039 152.8806682  91.2260201  94.4110809 153.0956725
  81.5482838  83.7189684 152.4465159  81.0120195  83.2680422 153.0986755
  80.9599547  83.8535592 151.7035623  79.8431382 100.4853733 146.3409818
  80.0827980 101.1172257 147.0188836  79.0000578 100.1341773 146.6275177
  80.9585097  83.1778335 135.0091623  80.0814563  83.0567136 134.6453869
  81.4342850  82.3864413 134.7570511  90.8258090  91.6331403 151.7790078
  89.9384869  91.2957325 151.9016477  91.3956641  90.9014434 152.0158844
  72.4787237  87.9655495 145.1033130  73.1658277  87.6517225 144.5154145
  72.3235366  88.8696859 144.8300381  77.2821959  82.8545691 149.5318153
  77.1980148  82.2471361 148.7968563  76.4604666  83.3454710 149.5327650
  84.3559244  96.2932855 148.7451322  84.2829415  97.0987827 149.2570626
  83.9136637  96.4924821 147.9199343  84.1449023  95.5304625 142.2554143
  83.3616545  96.0726306 142.3492368  84.8441768  96.0478605 142.6548384
  87.4545673  81.3399255 144.8988349  87.9514373  80.5869217 144.5789419
  86.6832655  81.3763572 144.3331558  95.3075431  87.0439620 146.5406640
  95.2965307  87.9264336 146.1700573  94.4392810  86.6911171 146.3461177
  86.8157927  96.1919689 150.9009480  87.5285899  96.8267154 150.8285382
  86.3247956  96.2883555 150.0849482  88.5375454  90.0970942 142.4726772
  87.6031733  90.2172405 142.3031476  88.7152122  89.1943409 142.2086782
  84.0380642  83.4816638 144.6260033  83.6678430  82.9287678 145.3140939
  84.5339734  82.8774771 144.0735033  91.9248005  85.9388261 143.0076806
  92.3908457  86.7716253 142.9337109  92.3755506  85.4733243 143.7122065
  81.8669841  93.9414133 151.7215051  82.5679300  94.5750616 151.8744445
  81.3964956  94.2828864 150.9610690  89.9924236  92.2832083 140.0062958
  90.2684080  92.1688677 140.9156832  89.1228735  91.8849568 139.9675131
  89.8964668  78.3068848 147.0467707  88.9827748  78.5373075 147.2149914
  90.3257770  78.3907292 147.8981740  89.6671127  86.4958740 149.5467601
  89.0142577  86.7434648 148.8920054  90.0451506  85.6822879 149.2130079
  86.6278300  96.5318434 143.6495772  86.8100695  95.7140089 144.1123524
  87.4511286  96.7486126 143.2120662  86.9620466  95.4586619 140.9110820
  87.4908232  94.9479073 140.2980982  87.2248685  95.1429149 141.7756353
  85.7158700  87.2378551 156.0333639  85.0399337  87.1372681 156.7036014
  86.5386333  87.0817765 156.4969636  77.4637559  93.4750488 148.6546154
  78.0490995  92.7294176 148.7874058  77.2662397  93.7854445 149.5382818
  80.3176214  96.5101735 143.6708596  79.6486589  96.9947863 143.1872636
  80.1789084  96.7570956 144.5851975  72.0555213  86.0456088 147.3750597
  72.0939313  85.5119679 148.1687715  71.5495506  85.5191294 146.7561574
  84.4581482  98.5445479 150.2691254  85.0099790  98.7077100 151.0340340
  84.7987676  99.1349917 149.5971279  79.4345976  80.8920629 150.8713139
  79.4987302  81.7535460 150.4590537  79.3713096  80.2794630 150.1385498
  78.9098248  82.9643761 154.5186173  79.5370287  82.5820839 155.1323698
  78.0526167  82.7457963 154.8841866  89.3092357  93.3706736 156.1239909
  89.8532261  93.9836695 155.6294864  88.7279202  93.9286315 156.6406922
  75.6863791  84.7720190 140.4504528  75.9817232  83.8630869 140.3971582
  74.7851827  84.7507930 140.1285531  87.5949870  96.4927454 147.2554937
  87.4701009  95.6917194 146.7465882  88.2528961  96.9873648 146.7668907
  79.2158038  82.8476187 146.4332077  78.4944624  83.4612155 146.2939550
  80.0051294  83.3833952 146.3548723  89.6584778  94.2936474 148.8834487
  88.7115114  94.1741826 148.8112813  90.0067551  93.4058973 148.9660748
  82.0184351  80.1830613 152.7072729  82.5418753  80.4292910 153.4699038
  81.7996685  81.0150648 152.2875866  77.4151633  82.4534288 140.5743853
  77.0864339  81.5731667 140.3918959  77.7691003  82.3981957 141.4620243
  86.6631211  94.0889191 145.0838839  86.5156174  93.1605898 145.2646409
  87.4884705  94.1109281 144.5995914  80.5293456  82.7407258 140.9419331
  80.8689528  83.2693179 140.2197939  80.9765576  83.0787664 141.7177898
  90.2665333  94.9117749 146.1703712  91.1911881  94.7060611 146.0328163
  90.0980637  94.6634151 147.0793053  83.2236897  81.1244308 150.3922399
  82.8833717  80.3252122 150.7943079  82.5175903  81.4246019 149.8199232
  83.8753368  78.2093621 148.8449722  84.6979438  77.7354099 148.7228613
  84.1191432  78.9884105 149.3448408  82.5161603  81.2381879 139.1412624
  83.2369965  81.6163132 138.6376341  81.8926907  81.9570756 139.2447602
  86.6592726  81.9427028 140.0770956  86.8756340  82.8251666 139.7759784
  86.1786793  81.5513242 139.3476598  81.3991947  84.9012742 146.6541701
  81.2536528  85.2153045 147.5465982  80.9217151  85.5197642 146.1012599
  83.2588330  81.8915290 146.7022590  83.2449899  80.9956383 146.3654888
  83.9760758  81.8985953 147.3360876  85.1114461  82.3252630 148.7475718
  84.8532239  83.2469700 148.7460048  84.5799501  81.9283064 149.4376182
  90.0560649  95.4303417 141.5265803  90.2297527  94.8649839 140.7739656
  90.5489541  96.2304312 141.3445293  75.8737609  87.4418086 149.5929362
  75.3291077  88.2177894 149.7249636  76.7516959  87.7888890 149.4348483
  82.6625226  80.7729670 141.9710160  82.7841137  79.8446316 142.1701048
  82.3727268  80.7868356 141.0588476  85.5316416  78.4584580 145.1076880
  85.5538113  78.5223913 144.1528860  85.9484475  77.6189089 145.3017386
  95.9100041  88.1939840 143.1456103  96.3531187  87.4447165 142.7475226
  95.0326551  88.1849976 142.7629835  91.0435822  94.7470181 138.6262701
  91.7386727  95.3676874 138.8450016  91.3858972  93.8965532 138.9015079
  76.6603631  86.5687982 152.4859519  75.9185367  86.7170618 153.0724149
  76.3396375  86.8296248 151.6226268  92.9427245  92.1969887 140.1550032
  93.4678569  92.5357160 139.4299352  92.8549598  91.2616902 139.9713167
  84.6047294  96.1103960 152.2839909  84.9134420  95.8653107 153.1562608
  85.4022776  96.3150599 151.7958779  84.6267906  98.2641870 144.5145285
  84.1872896  97.7718249 145.2078142  85.3776023  97.7214838 144.2737361
  77.1060245  94.4553411 144.5169913  77.9318265  94.1557183 144.1368557
  76.7554297  93.6861033 144.9659702  82.0741778  93.8079879 146.5867587
  81.4521787  93.1450584 146.2869815  82.7446645  93.8341011 145.9041235
  75.3068850  92.3739737 145.4758847  74.4700758  91.9461912 145.2942848
  75.2792495  92.5672181 146.4129638  82.1466305  82.2861667 156.1800093
  82.1954461  83.1623790 155.7977863  82.6888820  81.7439060 155.6071736
  92.6321151  92.8302790 155.4601230  91.8416695  92.8126929 154.9205730
  92.3954506  93.3691084 156.2150267  92.7519026  89.6795257 152.7733959
  92.8017031  89.5145264 153.7149482  92.6432950  88.8122516 152.3831839
  81.6355285  92.3583803 140.0626048  81.7843405  93.0419267 139.4092720
  82.4421728  92.3388893 140.5775503  90.0422789  85.6626185 154.0893265
  90.9432651  85.5232650 153.7977263  90.1170763  85.8280640 155.0291443
  84.3765594  83.0393040 152.9346452  83.5068903  83.3326606 152.6629040
  84.6125074  83.6233485 153.6553715  94.2537223  92.0992198 153.0175980
  93.9622031  92.4622179 153.8539441  93.6409354  91.3859207 152.8389312
  95.4532905  89.6645078 145.5378550  96.2879797  90.1034882 145.7016111
  95.5892034  89.1883731 144.7186796  92.5024411  87.2224813 151.4856038
  92.9778533  87.4152459 150.6774890  91.5789977  87.2783999 151.2399422
  79.3907918  88.3848980 141.0687117  79.1453960  87.4811310 141.2667327
  79.5603832  88.3866131 140.1266595  87.0804628  79.2572657 150.4511872
  87.5986572  79.9933683 150.1258361  86.7259761  79.5636650 151.2858631
  78.6603565  84.1177338 138.5673278  77.9672810  84.1921693 137.9113314
  78.4155317  83.3537681 139.0894795  87.3317222  75.6772939 145.9712769
  87.6118976  75.0096128 146.5973195  88.1167829  75.8702035 145.4587433
  85.1350690  94.8531933 137.5337795  84.5624657  95.4722120 137.0808267
  85.7083484  95.4031295 138.0677717  91.2026080  84.0990573 149.7184344
  92.1543503  84.1988671 149.7396568  91.0329531  83.3068842 150.2282428
  89.2240460  81.1846156 149.9043745  88.6290392  81.4651169 149.2090233
  88.9390156  81.6740057 150.6760486  88.3547950  95.1369083 138.6646377
  89.2878623  95.0714645 138.8679253  88.2671163  95.9725350 138.2060910
  90.9835967  94.4534953 135.6250325  90.9049598  94.1194817 136.5186083
  91.8045634  94.9456721 135.6241797  93.6814158  87.3196693 148.8326643
  93.6490478  86.3812693 149.0186327  94.2914782  87.3980729 148.0992468
  85.5197489  86.1892746 134.8753848  86.4656594  86.0598954 134.9442266
  85.1411734  85.4507408 135.3523276  93.8308647  84.1107736 148.8784927
  93.3147695  83.3266193 148.6914856  94.7148595  83.7826453 149.0431446
  91.4919373  77.8548752 144.8380739  91.2944195  77.5463840 145.7224071
  92.1019079  78.5810391 144.9678669  99.4990708  88.3812700 147.9732680
 100.2294096  88.1197988 148.5340384  98.8897653  87.6441422 148.0134748
  97.5806005  86.5220562 148.5707131  96.8539169  86.3876527 147.9623623
  97.1653292  86.8297391 149.3763850  85.4036181  90.2410492 156.3354505
  86.3239191  90.4189091 156.5294551  85.3685764  89.2966537 156.1834204
  83.7040406  84.1142722 134.8108733  82.7971861  83.8175835 134.8871446
  83.9816387  83.8172540 133.9443019  74.6218346  85.4349086 145.2607779
  74.3021131  84.5814394 144.9682153  74.0751775  85.6497664 146.0165746
  78.3998254  88.1511527 148.9777286  78.6184264  89.0828634 148.9965319
  78.8124028  87.7919501 149.7632090  85.3202472  78.6579612 140.9652974
  84.5103200  78.3126697 141.3408220  86.0086889  78.3487156 141.5540586
  87.2493020  77.7357659 142.5877271  87.8024059  78.1553112 143.2467294
  87.4863106  76.8093407 142.6300227  83.2726119  83.7244732 158.3680035
  83.1722846  84.6739089 158.2992126  83.0547661  83.3962971 157.4956105
  82.4739191  80.9729657 134.9520712  83.3358355  81.2984556 135.2116529
  82.6589535  80.1861153 134.4393778  74.4906606  89.0551997 147.2300901
  73.7970078  88.6405950 146.7170855  75.2379597  89.0972534 146.6334320
  90.6271827  79.8458184 142.0955935  90.0470496  80.5042988 141.7133987
  90.3607760  79.0235528 141.6843352  89.0775394  79.2463241 144.2977255
  89.5775172  79.3579776 143.4891574  89.7211001  78.9424294 144.9378064
  83.1357389  87.1541871 157.1845096  82.6524471  87.9542231 157.3908985
  83.2218328  87.1649816 156.2312540  76.4043349  88.9870251 145.1066916
  76.3814037  89.0857938 144.1548799  76.7143985  89.8335402 145.4284082
  79.0630727  91.0446406 149.2213530  80.0173980  91.0130348 149.1543462
  78.8643250  90.5837030 150.0363756  79.6530109  89.6147522 151.7884328
  80.4722998  90.1091601 151.8119165  79.9266917  88.6979490 151.7601895
  89.4096705  82.0058274 141.1512283  88.5222560  82.2907925 140.9332478
  89.8250694  81.8452038 140.3039560  92.7611241  82.0304795 144.8666622
  93.5371631  82.5201248 145.1391239  92.0359375  82.4562849 145.3238492
  95.1983800  82.7432414 145.9240563  95.7928291  82.5028150 145.2133871
  95.2710384  82.0239545 146.5514099  77.4180956  96.5866025 146.2383728
  77.2835424  95.8266426 145.6721726  77.0013018  97.3106925 145.7712517
  88.5539919  91.7702949 135.2460303  89.2575769  91.9752951 135.8617959
  87.8302567  92.3379711 135.5109387  89.3837729  87.5212810 141.3662573
  89.3272930  87.9781362 140.5270206  89.9366071  86.7603495 141.1885416
  93.1942535  83.3102542 142.1912693  92.9379469  82.9099178 143.0220901
  92.5695403  84.0246336 142.0662832  97.5054873  86.0498615 144.6983984
  96.9454431  86.1191805 145.4715546  96.8998376  85.8739600 143.9783481
  80.5750081  97.4835342 146.4502171  80.4582466  98.4280775 146.3480861
  79.7542528  97.1808904 146.8387970  90.4626616  92.2085478 137.2958763
  91.2972220  91.7766677 137.1136238  90.3010959  92.0367492 138.2235658
  90.1172508  88.7117591 138.6615103  90.0621312  88.5461863 137.7203547
  89.4918563  89.4193624 138.8177292  74.9065023  83.9485656 152.4876525
  75.5523887  83.4384610 152.9763750  74.6982174  84.6854337 153.0619950
  87.4318415  91.0166503 157.9868665  88.3009575  91.1907155 157.6255300
  86.9525167  91.8360920 157.8644395  83.4268634  78.2125700 138.2400421
  83.4147304  79.1567540 138.3968692  84.3192056  78.0295846 137.9459882
  81.6004596  98.1363604 149.6658099  82.5031842  98.1687214 149.9824594
  81.3741966  97.2064055 149.6804435  83.3558198  96.8894591 146.3268178
  82.4053829  96.8896452 146.2132550  83.6590684  96.1427325 145.8104212
  87.2420753  74.8068477 142.4946358  86.4753149  74.2526964 142.6403040
  87.6531458  74.8790346 143.3560509  79.2462514  81.0953273 156.5851539
  80.1093976  80.7390078 156.7954864  78.6727925  80.7567168 157.2726943
  99.0910891 102.7255129 147.3913940  99.7289301 102.6061876 146.6877280
  98.9731734 103.6735973 147.4501892  95.9000597 102.6782557 147.3275465
  95.5619109 102.5623622 146.4396000  96.7690366 102.2773722 147.3076471
  91.7587413 104.5318034 143.3172356  91.1952278 104.4407971 142.5488643
  91.6439808 103.7117938 143.7974848  96.3820380 103.8317409 153.2861670
  96.3709021 103.4370207 152.4142174  96.5441020 103.0983482 153.8795442
  89.3051845 106.0269225 146.1556576  90.0973137 105.6860050 145.7402875
  89.5448495 106.1364200 147.0758729  97.3386972 108.1989001 138.6286821
  96.6874952 108.7843082 138.2420834  98.1331335 108.7295196 138.6881858
  91.2642599 105.2878139 139.0273955  92.0373475 104.7407126 138.8886831
  91.6167998 106.1522388 139.2388416  93.1027642 106.6154521 152.2340854
  92.8117508 107.5200152 152.1187521  93.7384626 106.6571048 152.9484924
  94.0283848 103.9931369 148.8242214  94.6247421 103.7687392 148.1099177
  94.0858820 103.2516115 149.4267662  93.6008877 101.4470805 136.6592405
  93.8534397 100.9252326 135.8975868  92.6633436 101.2836950 136.7619088
  98.6452160 100.4506583 144.4667148  99.4315249 100.0326006 144.1157565
  98.9090864 101.3552675 144.6348796  98.8162237 105.8879433 139.1655805
  98.1808070 105.9614060 139.8776709  98.4859643 106.4773032 138.4874884
 104.0460587 100.3881816 145.3700127 104.7785759  99.8181033 145.6037956
 103.2899942 100.0003417 145.8106632  93.3205166 103.3498911 138.8616780
  93.2041424 102.6743814 139.5297864  93.4307425 102.8631285 138.0448933
  95.6636706 102.8109058 142.5663469  95.2994914 102.2839679 143.2776390
  96.5203822 102.4207527 142.3929954 101.5686007  94.1003390 149.8294735
 101.2369332  94.9698801 149.6055950 100.9731620  93.7839674 150.5088766
  95.3042193  97.8398957 137.5624818  95.4716596  98.7079194 137.9295289
  95.1139363  98.0026239 136.6386107  98.0617527 106.3015936 149.2290648
  97.7618250 107.2040975 149.1206455  97.7168586 106.0348119 150.0811801
  91.5130008 102.7529733 145.2627352  90.5880505 102.6205947 145.4705044
  91.7614421 103.5323952 145.7597295 101.4614670  98.8198476 146.9088085
 100.5531548  98.7513885 146.6146846 101.4102266  99.2970421 147.7369911
  95.2831414 100.2956615 138.5471484  95.1631040 100.7413666 139.3856965
  94.5884003 100.6441933 137.9885022  88.8738819 102.3963007 146.0971141
  89.0031200 102.6497486 147.0110553  88.1936270 102.9890715 145.7775796
  93.0438306 113.0660257 142.1961616  92.9662336 114.0168082 142.2750096
  92.4399950 112.7206129 142.8536542  95.5355536 100.2388122 154.8522982
  94.7588870 100.7982042 154.8425847  96.1746099 100.7244905 155.3737853
 103.3276317  97.0214915 148.6865959 102.6850697  97.3147448 148.0405754
 102.8231245  96.9067835 149.4919156 100.9816480 100.7678088 139.3751818
 101.8934337 101.0005475 139.1999516 100.4726128 101.3515132 138.8126897
  93.7901909 103.0473575 154.4140949  94.5316593 103.5858619 154.1375773
  93.0838894 103.6739864 154.5712501  99.2657248 105.1902716 153.0113111
  99.6740604 104.7485126 152.2667743  98.5434510 104.6155343 153.2647304
  95.6188318 100.1275323 150.3846668  96.4649513 100.5514736 150.5281317
  95.5586956  99.4708947 151.0785231  99.5886063 105.7503907 146.7665400
  98.9594925 105.9149621 146.0641468  99.2011725 106.1645516 147.5376364
 103.4675295 106.6858344 144.1209764 102.7826333 107.0657246 143.5706797
 103.5519144 107.2953671 144.8541711  98.7687764  97.7879691 152.0427842
  98.5248695  98.5421752 151.5062117  99.0447694  98.1665039 152.8775089
 100.7226226 104.3318303 150.7205107 100.9343122 104.9750063 150.0439488
 100.6755975 103.4980620 150.2527037  98.3252455  96.9436124 147.6241679
  97.4636934  97.2417378 147.9158417  98.3514890  97.1606523 146.6922712
  95.1414025 105.4878315 144.0315485  95.6052370 105.7666018 143.2420107
  94.8770823 104.5861759 143.8488576  92.0338106 105.0349796 146.9695248
  92.6039463 105.4637065 146.3312733  92.6246218 104.7532381 147.6679434
  94.0782911 101.6101467 140.8405050  94.7806954 102.0622511 141.3078976
  93.7463539 100.9685286 141.4684943  92.5263272 100.2013224 155.2156259
  91.8961933 100.8829504 155.4491656  92.4199360 100.0896305 154.2709398
  87.8208245  99.8685020 146.1422184  87.0307299 100.1242548 145.6662294
  88.3119492 100.6833357 146.2474224 101.8372054 107.2090259 148.8927464
 102.6589498 106.8070446 148.6110146 101.8334457 107.1058493 149.8443580
  89.7722990 100.2329599 143.1005660  88.9754153 100.3448293 143.6189156
  89.5448582 100.5716251 142.2346551  95.6028658 106.7574302 151.0488175
  95.6673090 107.2194709 151.8846347  94.8939582 106.1271667 151.1770485
  86.1045948 100.1215510 148.5737174  86.3553986 101.0062520 148.8394750
  86.6405496  99.9420112 147.8012266 109.9278047 103.5529007 145.2412436
 109.1741756 102.9836405 145.0856440 110.0625589 103.5191672 146.1883071
  95.3176675 108.4242410 140.9167155  95.1822350 109.2693945 141.3452003
  95.8586488 108.6261687 140.1533089  91.8044015  94.5033989 157.5781511
  91.4110961  93.9500188 158.2529155  92.6210155  94.8144568 157.9688028
  88.7706073 105.9417848 141.4895080  89.2830593 106.7361098 141.6400645
  89.4228786 105.2444138 141.4228682  90.5800957 109.0583604 143.5717834
  90.7567586 109.9801569 143.3838817  91.3757791 108.7442023 144.0012213
  94.7211976  95.9191869 155.1701767  95.4621689  96.5199022 155.0906230
  94.9529899  95.1769506 154.6119810  89.8653314 101.1048236 153.4479997
  89.7506829 100.2033493 153.7487096  89.0097832 101.3511933 153.0964813
  91.7032273 110.5761778 149.5728176  92.2539698 110.4478841 148.8005170
  90.8643749 110.8756667 149.2223069  95.4999444 106.8412906 153.9172407
  96.0327781 106.0801194 153.6871715  94.9713525 106.5486557 154.6596562
  98.6669139  91.9472971 149.4466049  98.3233408  92.8374613 149.3705159
  99.0348102  91.7574629 148.5835634  86.7354990 104.2706502 142.2654651
  87.5730212 104.6803510 142.0488359  86.9133257 103.3305944 142.2354845
  98.6319422 101.9381583 137.9538484  98.1166045 102.7086187 138.1926871
  98.3596730 101.2646719 138.5771545  96.2166533  96.7831283 143.0123722
  95.3608129  96.3938134 142.8329361  96.6293484  96.8623244 142.1523508
  97.7465679  94.3177627 147.4115282  97.2430475  94.2807762 146.5983087
  98.0396286  95.2270369 147.4711939  93.9908565  94.4016356 146.4181464
  94.8561562  94.2059165 146.0587353  94.0586074  94.1726708 147.3450821
 103.6053696 104.6913937 139.8891657 102.8283139 104.3525097 139.4446819
 104.2845177 104.6966560 139.2146622  98.4205725  99.8108675 139.7798265
  98.1155860 100.1254824 140.6308408  99.3736167  99.8890095 139.8225598
  96.8652157 105.9698898 141.4291219  96.3373518 105.2351658 141.1164457
  96.3639659 106.7473574 141.1831187 101.8445003 104.1647918 146.5458265
 101.1868677 104.8547180 146.6338394 102.6485402 104.5544350 146.8892252
  91.5970884  96.6318564 143.7897831  92.1714636  96.4093746 143.0571024
  92.1841867  96.7007259 144.5426432 100.6550461 102.5192291 144.5962207
 101.1682343 103.1522283 145.0983917 101.3051685 101.9193487 144.2305567
  91.9240471  98.6623025 137.8093716  91.0877784  98.9997712 138.1302991
  91.7845241  98.5272005 136.8720853  93.8993552  93.5059813 142.5172900
  93.2457964  93.1908830 141.8929515  93.8574026  92.8835554 143.2432723
  95.0104757 103.7879108 134.4326192  94.1031819 103.5568362 134.6317341
  95.5075789 102.9916728 134.6200174  97.9172836 112.4976615 137.3522878
  97.2434534 112.8008312 137.9607836  98.3038658 113.3005696 137.0028335
  97.1331292  99.9941747 146.8420548  96.2153854 100.2156694 146.6842236
  97.5491436 100.0688057 145.9832255  97.9166340 101.3933162 141.9723228
  98.6638159 101.9054560 141.6630350  98.1857930 101.0717215 142.8327621
  96.1892990 103.8891703 138.9550182  95.2804210 103.6050736 139.0522652
  96.2188074 104.3090782 138.0953489 101.4212258 107.4998293 142.7241350
 100.9674585 106.6589203 142.7806540 100.7906224 108.1359691 143.0616130
 100.3645177  98.4290279 143.9542017  99.6267934  97.9167665 144.2852260
 100.6171951  97.9890660 143.1425294  99.8645197 109.3374789 143.6591168
 100.1568171 109.8979846 142.9403534 100.3743817 109.6303350 144.4144327
 100.4656805  91.2066531 144.5483786 100.7715681  90.3463894 144.2609702
 101.1909409  91.7984151 144.3482780  86.7581161 101.6097217 142.9365384
  86.5605560 101.0166578 142.2116451  86.2027825 101.3049427 143.6541323
  94.7377884 101.5020324 145.0559978  94.7926494 100.5494160 144.9802454
  93.9269086 101.6579763 145.5401276  95.8869078 105.4300447 136.2938261
  95.4488508 104.7136306 135.8343898  96.6279519 105.6576562 135.7323352
  92.6770244 100.1197383 142.8150356  91.8638110 100.4191554 143.2215549
  93.1729238  99.7253072 143.5324839  94.8278822 110.1155140 144.7484621
  94.7855001 110.3415987 143.8193153  95.7441521 109.8818515 144.8970422
  98.2744456 100.5839208 151.6465250  98.6293844 100.8110681 152.5059716
  98.9216587 100.9157585 151.0242506 104.0042193 103.7057644 142.3514579
 103.8660091 103.8959240 141.4235769 103.6478412 104.4677027 142.8082630
  92.1684319  97.6915739 148.4311591  92.8083698  97.5504498 147.7334555
  91.3361850  97.4050252 148.0550193 104.0311572 105.7734171 147.3625851
 104.4648079 105.6809460 148.2108905 104.7443153 105.7491671 146.7245867
  92.9444623 106.9918169 144.5446584  93.7385221 106.4968490 144.3429159
  92.2336315 106.4636033 144.1814289  97.7639467 109.3736265 148.8958951
  97.8176490 109.9427201 149.6636667  96.8954249 109.5438150 148.5312989
  89.2527386 101.1361251 140.6206336  88.3224974 101.0745707 140.8376299
  89.3484858 100.6137204 139.8242978  89.1712935  97.6616064 143.2084578
  89.4319753  98.5761397 143.0993739  89.9930108  97.1940507 143.3581191
  90.6437861  99.0753821 150.3783403  91.3160914  98.8671183 149.7296052
  89.8167647  98.8775907 149.9388635 104.8927122 105.8157871 149.8958736
 105.0863012 106.7203682 150.1418011 104.7927740 105.3565291 150.7297321
  96.5463433  95.7015762 152.3949064  95.8991348  96.4005712 152.3013540
  97.3164448  96.1351906 152.7625312  96.7227567 103.5396527 150.4545883
  97.6519627 103.6907687 150.2814851  96.3018597 103.6280548 149.5994530
  95.5215899 107.5647191 148.2244421  95.3826985 107.1965976 149.0970359
  94.7330495 108.0794831 148.0528379  96.1164051 112.6656288 139.5669957
  96.2915807 112.1944331 140.3815580  95.4296839 113.2922054 139.7951218
  97.0721114 106.9428794 145.6133259  96.7370947 106.9029564 146.5090909
  96.5725060 106.2773510 145.1403669  91.0465358 102.3496424 151.1385840
  90.9085156 101.6176663 151.7397379  91.9570281 102.2605324 150.8570028
 100.0080306 104.2884828 135.8870318  99.3909476 103.5631657 135.7903371
  99.5396794 105.0494189 135.5437393  93.6747659 102.0616383 150.6269520
  94.3847277 101.4209576 150.5856138  93.6316967 102.3129278 151.5495700
  92.3876593  99.0481601 152.4465159  91.8513950  98.5972340 153.0986755
  91.7993301  99.1827510 151.7035623  90.6825136 115.8145651 146.3409818
  90.9221734 116.4464175 147.0188836  89.8394333 115.4633691 146.6275177
  91.7978852  98.5070253 135.0091623  90.9208318  98.3859054 134.6453869
  92.2736605  97.7156331 134.7570511 101.6651845 106.9623321 151.7790078
 100.7778623 106.6249243 151.9016477 102.2350396 106.2306352 152.0158844
  83.3180992 103.2947412 145.1033130  84.0052032 102.9809142 144.5154145
  83.1629120 104.1988777 144.8300381  88.1215714  98.1837609 149.5318153
  88.0373903  97.5763279 148.7968563  87.2998420  98.6746627 149.5327650
  95.1952998 111.6224773 148.7451322  95.1223169 112.4279745 149.2570626
  94.7530391 111.8216739 147.9199343  94.9842778 110.8596543 142.2554143
  94.2010300 111.4018223 142.3492368  95.6835523 111.3770523 142.6548384
  98.2939428  96.6691173 144.8988349  98.7908127  95.9161135 144.5789419
  97.5226409  96.7055489 144.3331558 106.1469185 102.3731538 146.5406640
 106.1359061 103.2556254 146.1700573 105.2786565 102.0203089 146.3461177
  99.3769208 105.4262860 142.4726772  98.4425487 105.5464322 142.3031476
  99.5545877 104.5235327 142.2086782  94.8774396  98.8108556 144.6260033
  94.5072184  98.2579596 145.3140939  95.3733489  98.2066689 144.0735033
 102.7641760 101.2680179 143.0076806 103.2302212 102.1008171 142.9337109
 103.2149260 100.8025161 143.7122065  92.7063595 109.2706051 151.7215051
  93.4073055 109.9042534 151.8744445  92.2358710 109.6120782 150.9610690
 100.8317991 107.6124000 140.0062958 101.1077835 107.4980595 140.9156832
  99.9622490 107.2141485 139.9675131 100.7358423  93.6360766 147.0467707
  99.8221502  93.8664993 147.2149914 101.1651524  93.7199210 147.8981740
 100.5064881 101.8250658 149.5467601  99.8536331 102.0726565 148.8920054
 100.8845261 101.0114796 149.2130079  97.4672055 111.8610351 143.6495772
  97.6494449 111.0432007 144.1123524  98.2905041 112.0778043 143.2120662
  97.8014220 110.7878536 140.9110820  98.3301987 110.2770991 140.2980982
  98.0642440 110.4721067 141.7756353  96.5552454 102.5670469 156.0333639
  95.8793091 102.4664598 156.7036014  97.3780088 102.4109683 156.4969636
  88.3031313 108.8042406 148.6546154  88.8884750 108.0586094 148.7874058
  88.1056152 109.1146362 149.5382818  91.1569968 111.8393653 143.6708596
  90.4880344 112.3239781 143.1872636  91.0182838 112.0862873 144.5851975
  82.8948968 101.3748006 147.3750597  82.9333067 100.8411597 148.1687715
  82.3889261 100.8483211 146.7561574  90.2739730  96.2212546 150.8713139
  90.3381057  97.0827377 150.4590537  90.2106850  95.6086548 150.1385498
  89.7492003  98.2935679 154.5186173  90.3764041  97.9112756 155.1323698
  88.8919922  98.0749881 154.8841866  86.5257545 100.1012108 140.4504528
  86.8210987  99.1922786 140.3971582  85.6245581 100.0799847 140.1285531
  98.4343624 111.8219372 147.2554937  98.3094764 111.0209112 146.7465882
  99.0922715 112.3165565 146.7668907  90.0551792  98.1768105 146.4332077
  89.3338378  98.7904072 146.2939550  90.8445048  98.7125869 146.3548723
 100.4978533 109.6228392 148.8834487  99.5508868 109.5033743 148.8112813
 100.8461306 108.7350890 148.9660748  92.8578106  95.5122531 152.7072729
  93.3812508  95.7584828 153.4699038  92.6390439  96.3442566 152.2875866
  88.2545387  97.7826206 140.5743853  87.9258093  96.9023585 140.3918959
  88.6084758  97.7273874 141.4620243  97.5024966 109.4181108 145.0838839
  97.3549928 108.4897816 145.2646409  98.3278459 109.4401199 144.5995914
  91.3687210  98.0699175 140.9419331  91.7083283  98.5985097 140.2197939
  91.8159331  98.4079582 141.7177898 101.1059088 110.2409667 146.1703712
 102.0305635 110.0352528 146.0328163 100.9374391 109.9926068 147.0793053
  94.0630651  96.4536226 150.3922399  93.7227471  95.6544039 150.7943079
  93.3569657  96.7537937 149.8199232  94.7147123  93.5385539 148.8449722
  95.5373192  93.0646017 148.7228613  94.9585186  94.3176022 149.3448408
  93.3555357  96.5673797 139.1412624  94.0763720  96.9455050 138.6376341
  92.7320661  97.2862674 139.2447602  97.4986480  97.2718946 140.0770956
  97.7150095  98.1543584 139.7759784  97.0180547  96.8805159 139.3476598
  92.2385702 100.2304659 146.6541701  92.0930282 100.5444962 147.5465982
  91.7610905 100.8489560 146.1012599  94.0982084  97.2207207 146.7022590
  94.0843653  96.3248301 146.3654888  94.8154513  97.2277871 147.3360876
  95.9508215  97.6544547 148.7475718  95.6925993  98.5761618 148.7460048
  95.4193256  97.2574982 149.4376182 100.8954404 110.7595335 141.5265803
 101.0691281 110.1941757 140.7739656 101.3883295 111.5596229 141.3445293
  86.7131364 102.7710004 149.5929362  86.1684832 103.5469812 149.7249636
  87.5910714 103.1180808 149.4348483  93.5018980  96.1021587 141.9710160
  93.6234892  95.1738234 142.1701048  93.2121023  96.1160273 141.0588476
  96.3710171  93.7876498 145.1076880  96.3931868  93.8515831 144.1528860
  96.7878230  92.9481007 145.3017386 106.7493795 103.5231757 143.1456103
 107.1924941 102.7739083 142.7475226 105.8720305 103.5141894 142.7629835
 101.8829576 110.0762099 138.6262701 102.5780481 110.6968792 138.8450016
 102.2252727 109.2257450 138.9015079  87.4997386 101.8979900 152.4859519
  86.7579122 102.0462535 153.0724149  87.1790130 102.1588166 151.6226268
 103.7821000 107.5261804 140.1550032 104.3072324 107.8649077 139.4299352
 103.6943352 106.5908820 139.9713167  95.4661660 113.5933788 144.5145285
  95.0266651 113.1010166 145.2078142  96.2169777 113.0506755 144.2737361
  87.9453999 109.7845329 144.5169913  88.7712019 109.4849100 144.1368557
  87.5948051 109.0152951 144.9659702  92.9135532 109.1371797 146.5867587
  92.2915542 108.4742502 146.2869815  93.5840399 109.1632929 145.9041235
  86.1462604 107.7031655 145.4758847  85.3094513 107.2753829 145.2942848
  86.1186250 107.8964098 146.4129638  92.9860060  97.6153585 156.1800093
  93.0348215  98.4915708 155.7977863  93.5282574  97.0730978 155.6071736
  92.4749039 107.6875720 140.0626048  92.6237160 108.3711185 139.4092720
  93.2815483 107.6680810 140.5775503 100.8816543 100.9918103 154.0893265
 101.7826406 100.8524567 153.7977263 100.9564518 101.1572557 155.0291443
  95.2159348  98.3684957 152.9346452  94.3462658  98.6618523 152.6629040
  95.4518829  98.9525402 153.6553715 106.2926660 104.9936996 145.5378550
 107.1273551 105.4326800 145.7016111 106.4285789 104.5175649 144.7186796
 103.3418166 102.5516731 151.4856038 103.8172287 102.7444377 150.6774890
 102.4183731 102.6075916 151.2399422  90.2301672 103.7140898 141.0687117
  89.9847714 102.8103228 141.2667327  90.3997587 103.7158048 140.1266595
  97.9198382  94.5864574 150.4511872  98.4380326  95.3225601 150.1258361
  97.5653515  94.8928567 151.2858631  89.4997320  99.4469255 138.5673278
  88.8066565  99.5213610 137.9113314  89.2549072  98.6829599 139.0894795
  98.1710976  91.0064857 145.9712769  98.4512730  90.3388046 146.5973195
  98.9561583  91.1993952 145.4587433  95.9744445 110.1823851 137.5337795
  95.4018412 110.8014038 137.0808267  96.5477239 110.7323212 138.0677717
 102.0419835  99.4282491 149.7184344 102.9937258  99.5280588 149.7396568
 101.8723285  98.6360759 150.2282428 100.0634214  96.5138074 149.9043745
  99.4684146  96.7943087 149.2090233  99.7783911  97.0031975 150.6760486
  99.1941705 110.4661001 138.6646377 100.1272378 110.4006562 138.8679253
  99.1064917 111.3017268 138.2060910 101.8229721 109.7826871 135.6250325
 101.7443353 109.4486735 136.5186083 102.6439388 110.2748639 135.6241797
 104.5207913 102.6488610 148.8326643 104.4884233 101.7104611 149.0186327
 105.1308536 102.7272647 148.0992468  96.3591243 101.5184663 134.8753848
  97.3050348 101.3890871 134.9442266  95.9805488 100.7799325 135.3523276
 104.6702401  99.4399654 148.8784927 104.1541450  98.6558110 148.6914856
 105.5542350  99.1118370 149.0431446 102.3313128  93.1840669 144.8380739
 102.1337949  92.8755758 145.7224071 102.9412834  93.9102308 144.9678669
 110.3384462 103.7104617 147.9732680 111.0687851 103.4489905 148.5340384
 109.7291408 102.9733339 148.0134748 108.4199759 101.8512480 148.5707131
 107.6932923 101.7168445 147.9623623 108.0047046 102.1589308 149.3763850
  94.5434161  99.4434640 134.8108733  93.6365616  99.1467752 134.8871446
  94.8210142  99.1464458 133.9443019  85.4612101 100.7641003 145.2607779
  85.1414885  99.9106311 144.9682153  84.9145529 100.9789581 146.0165746
  89.2392008 103.4803444 148.9777286  89.4578018 104.4120552 148.9965319
  89.6517782 103.1211419 149.7632090  96.1596226  93.9871529 140.9652974
  95.3496955  93.6418614 141.3408220  96.8480643  93.6779073 141.5540586
  98.0886775  93.0649576 142.5877271  98.6417813  93.4845030 143.2467294
  98.3256861  92.1385324 142.6300227  94.1119874  99.0536650 158.3680035
  94.0116601 100.0031007 158.2992126  93.8941416  98.7254889 157.4956105
  93.3132945  96.3021575 134.9520712  94.1752109  96.6276473 135.2116529
  93.4983289  95.5153071 134.4393778  85.3300361 104.3843915 147.2300901
  84.6363832 103.9697867 146.7170855  86.0773352 104.4264451 146.6334320
 101.4665582  95.1750101 142.0955935 100.8864251  95.8334905 141.7133987
 101.2001514  94.3527446 141.6843352  99.9169148  94.5755159 144.2977255
 100.4168926  94.6871694 143.4891574 100.5604756  94.2716212 144.9378064
  93.9751144 102.4833789 157.1845096  93.4918226 103.2834149 157.3908985
  94.0612083 102.4941734 156.2312540  87.2437103 104.3162168 145.1066916
  87.2207792 104.4149856 144.1548799  87.5537740 105.1627319 145.4284082
  89.9024481 106.3738323 149.2213530  90.8567735 106.3422266 149.1543462
  89.7037005 105.9128947 150.0363756  90.4923863 104.9439440 151.7884328
  91.3116752 105.4383518 151.8119165  90.7660671 104.0271408 151.7601895
 100.2490460  97.3350192 141.1512283  99.3616315  97.6199842 140.9332478
 100.6644449  97.1743955 140.3039560 103.6004996  97.3596713 144.8666622
 104.3765386  97.8493165 145.1391239 102.8753130  97.7854767 145.3238492
 106.0377554  98.0724332 145.9240563 106.6322045  97.8320068 145.2133871
 106.1104138  97.3531463 146.5514099  88.2574710 111.9157943 146.2383728
  88.1229178 111.1558344 145.6721726  87.8406772 112.6398843 145.7712517
  99.3933673 107.0994866 135.2460303 100.0969523 107.3044869 135.8617959
  98.6696322 107.6671628 135.5109387 100.2231483 102.8504728 141.3662573
 100.1666685 103.3073279 140.5270206 100.7759826 102.0895412 141.1885416
 104.0336289  98.6394460 142.1912693 103.7773224  98.2391095 143.0220901
 103.4089157  99.3538254 142.0662832 108.3448627 101.3790533 144.6983984
 107.7848185 101.4483722 145.4715546 107.7392131 101.2031517 143.9783481
  91.4143836 112.8127260 146.4502171  91.2976220 113.7572692 146.3480861
  90.5936282 112.5100822 146.8387970 101.3020371 107.5377396 137.2958763
 102.1365974 107.1058594 137.1136238 101.1404713 107.3659409 138.2235658
 100.9566263 104.0409509 138.6615103 100.9015067 103.8753780 137.7203547
 100.3312318 104.7485542 138.8177292  85.7458778  99.2777573 152.4876525
  86.3917641  98.7676527 152.9763750  85.5375929 100.0146255 153.0619950
  94.2662388  93.5417618 138.2400421  94.2541058  94.4859458 138.3968692
  95.1585810  93.3587763 137.9459882  92.4398350 113.4655522 149.6658099
  93.3425597 113.4979132 149.9824594  92.2135720 112.5355973 149.6804435
  94.1951952 112.2186508 146.3268178  93.2447583 112.2188370 146.2132550
  94.4984438 111.4719243 145.8104212  98.0814508  90.1360395 142.4946358
  97.3146903  89.5818881 142.6403040  98.4925213  90.2082263 143.3560509
  90.0856269  96.4245190 156.5851539  90.9487730  96.0681995 156.7954864
  89.5121679  96.0859085 157.2726943 102.5981168 119.8609951 143.3172356
 102.0346033 119.7699888 142.5488643 102.4833563 119.0409856 143.7974848
 108.1780726 123.5280919 138.6286821 107.5268706 124.1134999 138.2420834
 108.9725089 124.0587114 138.6881858 102.1036353 120.6170056 139.0273955
 102.8767229 120.0699043 138.8886831 102.4561752 121.4814306 139.2388416
 104.4402631 116.7762722 136.6592405 104.6928152 116.2544244 135.8975868
 103.5027190 116.6128868 136.7619088 109.6555991 121.2171351 139.1655805
 109.0201824 121.2905977 139.8776709 109.3253398 121.8064950 138.4874884
 104.1598920 118.6790828 138.8616780 104.0435178 118.0035732 139.5297864
 104.2701180 118.1923202 138.0448933 106.5030461 118.1400975 142.5663469
 106.1388668 117.6131596 143.2776390 107.3597577 117.7499444 142.3929954
 106.1435948 113.1690875 137.5624818 106.3110350 114.0371111 137.9295289
 105.9533117 113.3318157 136.6386107 106.1225169 115.6248533 138.5471484
 106.0024794 116.0705583 139.3856965 105.4277757 115.9733850 137.9885022
 111.8210235 116.0970006 139.3751818 112.7328091 116.3297392 139.1999516
 111.3119882 116.6807050 138.8126897 104.9176665 116.9393385 140.8405050
 105.6200709 117.3914428 141.3078976 104.5857294 116.2977204 141.4684943
  98.6601999 115.1976937 146.1422184  97.8701053 115.4534466 145.6662294
  99.1513247 116.0125275 146.2474224 100.6116745 115.5621517 143.1005660
  99.8147908 115.6740211 143.6189156 100.3842337 115.9008169 142.2346551
  99.6099827 121.2709765 141.4895080 100.1224348 122.0653016 141.6400645
 100.2622540 120.5736056 141.4228682  97.5748744 119.5998420 142.2654651
  98.4123966 120.0095428 142.0488359  97.7527012 118.6597862 142.2354845
 109.4713176 117.2673500 137.9538484 108.9559800 118.0378105 138.1926871
 109.1990485 116.5938636 138.5771545 107.0560287 112.1123201 143.0123722
 106.2001883 111.7230051 142.8329361 107.4687239 112.1915162 142.1523508
 104.8302320 109.7308274 146.4181464 105.6955316 109.5351083 146.0587353
 104.8979829 109.5018626 147.3450821 109.2599479 115.1400592 139.7798265
 108.9549615 115.4546742 140.6308408 110.2129921 115.2182012 139.8225598
 107.7045911 121.2990816 141.4291219 107.1767273 120.5643575 141.1164457
 107.2033414 122.0765492 141.1831187 102.4364639 111.9610482 143.7897831
 103.0108391 111.7385663 143.0571024 103.0235621 112.0299176 144.5426432
 102.7634226 113.9914943 137.8093716 101.9271538 114.3289630 138.1302991
 102.6238996 113.8563923 136.8720853 104.7387306 108.8351731 142.5172900
 104.0851719 108.5200748 141.8929515 104.6967781 108.2127471 143.2432723
 105.8498511 119.1171026 134.4326192 104.9425573 118.8860279 134.6317341
 106.3469543 118.3208645 134.6200174 108.7560095 116.7225080 141.9723228
 109.5031914 117.2346477 141.6630350 109.0251684 116.4009133 142.8327621
 107.0286745 119.2183621 138.9550182 106.1197964 118.9342654 139.0522652
 107.0581829 119.6382699 138.0953489 111.2038932 113.7582196 143.9542017
 110.4661689 113.2459583 144.2852260 111.4565705 113.3182578 143.1425294
 111.3050559 106.5358448 144.5483786 111.6109436 105.6755812 144.2609702
 112.0303164 107.1276069 144.3482780  97.5974915 116.9389135 142.9365384
  97.3999315 116.3458496 142.2116451  97.0421579 116.6341345 143.6541323
 106.7262833 120.7592364 136.2938261 106.2882262 120.0428223 135.8343898
 107.4673273 120.9868479 135.7323352 103.5163999 115.4489301 142.8150356
 102.7031864 115.7483472 143.2215549 104.0122993 115.0544990 143.5324839
 100.0921141 116.4653169 140.6206336  99.1618729 116.4037624 140.8376299
 100.1878613 115.9429122 139.8242978 100.0106690 112.9907982 143.2084578
 100.2713507 113.9053315 143.0993739 100.8323862 112.5232424 143.3581191
 110.8474060 119.6176746 135.8870318 110.2303231 118.8923574 135.7903371
 110.3790549 120.3786106 135.5437393 102.6372606 113.8362170 135.0091623
 101.7602072 113.7150971 134.6453869 103.1130359 113.0448249 134.7570511
  94.1574746 118.6239330 145.1033130  94.8445786 118.3101060 144.5154145
  94.0022875 119.5280695 144.8300381  98.9609468 113.5129527 149.5318153
  98.8767657 112.9055196 148.7968563  98.1392175 114.0038545 149.5327650
 109.1333182 111.9983090 144.8988349 109.6301882 111.2453053 144.5789419
 108.3620164 112.0347407 144.3331558 105.7168151 114.1400473 144.6260033
 105.3465939 113.5871514 145.3140939 106.2127243 113.5358607 144.0735033
  93.7342722 116.7039924 147.3750597  93.7726822 116.1703514 148.1687715
  93.2283015 116.1775129 146.7561574  97.3651300 115.4304026 140.4504528
  97.6604741 114.5214704 140.3971582  96.4639336 115.4091765 140.1285531
 100.8945547 113.5060022 146.4332077 100.1732133 114.1195990 146.2939550
 101.6838803 114.0417787 146.3548723  99.0939142 113.1118123 140.5743853
  98.7651848 112.2315502 140.3918959  99.4478512 113.0565792 141.4620243
 102.2080965 113.3991093 140.9419331 102.5477037 113.9277014 140.2197939
 102.6553085 113.7371499 141.7177898 104.1949112 111.8965715 139.1412624
 104.9157474 112.2746967 138.6376341 103.5714416 112.6154592 139.2447602
 108.3380235 112.6010864 140.0770956 108.5543849 113.4835502 139.7759784
 107.8574302 112.2097077 139.3476598 104.9375839 112.5499125 146.7022590
 104.9237408 111.6540218 146.3654888 105.6548267 112.5569789 147.3360876
 104.3412735 111.4313505 141.9710160 104.4628646 110.5030151 142.1701048
 104.0514777 111.4452191 141.0588476 107.2103925 109.1168416 145.1076880
 107.2325622 109.1807749 144.1528860 107.6271984 108.2772924 145.3017386
 103.3142794 123.0167638 140.0626048 103.4630914 123.7003102 139.4092720
 104.1209237 122.9972728 140.5775503 101.0695427 119.0432815 141.0687117
 100.8241469 118.1395145 141.2667327 101.2391341 119.0449966 140.1266595
 100.3391074 114.7761173 138.5673278  99.6460319 114.8505528 137.9113314
 100.0942826 114.0121517 139.0894795 109.0104731 106.3356774 145.9712769
 109.2906485 105.6679963 146.5973195 109.7955338 106.5285870 145.4587433
 106.8138199 125.5115768 137.5337795 106.2412166 126.1305955 137.0808267
 107.3870993 126.0615130 138.0677717 112.6623476 125.1118789 135.6250325
 112.5837107 124.7778652 136.5186083 113.4833143 125.6040557 135.6241797
 107.1984998 116.8476581 134.8753848 108.1444103 116.7182789 134.9442266
 106.8199243 116.1091243 135.3523276 113.1706882 108.5132587 144.8380739
 112.9731704 108.2047675 145.7224071 113.7806588 109.2394226 144.9678669
 105.3827915 114.7726557 134.8108733 104.4759370 114.4759670 134.8871446
 105.6603896 114.4756376 133.9443019  96.3005855 116.0932921 145.2607779
  95.9808640 115.2398229 144.9682153  95.7539284 116.3081499 146.0165746
 106.9989981 109.3163447 140.9652974 106.1890709 108.9710532 141.3408220
 107.6874398 109.0070991 141.5540586 108.9280529 108.3941494 142.5877271
 109.4811568 108.8136947 143.2467294 109.1650615 107.4677242 142.6300227
 104.1526700 111.6313493 134.9520712 105.0145864 111.9568391 135.2116529
 104.3377044 110.8444989 134.4393778 112.3059336 110.5042019 142.0955935
 111.7258005 111.1626823 141.7133987 112.0395269 109.6819364 141.6843352
 110.7562902 109.9047077 144.2977255 111.2562681 110.0163611 143.4891574
 111.3998510 109.6008130 144.9378064  98.0830858 119.6454086 145.1066916
  98.0601546 119.7441773 144.1548799  98.3931494 120.4919237 145.4284082
 111.0884214 112.6642110 141.1512283 110.2010069 112.9491760 140.9332478
 111.5038203 112.5035873 140.3039560 110.2327428 122.4286784 135.2460303
 110.9363278 122.6336787 135.8617959 109.5090076 122.9963546 135.5109387
 111.0625238 118.1796645 141.3662573 111.0060439 118.6365197 140.5270206
 111.6153580 117.4187330 141.1885416 114.8730044 113.9686377 142.1912693
 114.6166978 113.5683013 143.0220901 114.2482912 114.6830171 142.0662832
 112.1414125 122.8669313 137.2958763 112.9759729 122.4350512 137.1136238
 111.9798468 122.6951327 138.2235658 111.7960017 119.3701427 138.6615103
 111.7408821 119.2045698 137.7203547 111.1706072 120.0777460 138.8177292
 105.1056143 108.8709536 138.2400421 105.0934812 109.8151376 138.3968692
 105.9979565 108.6879681 137.9459882 108.9208262 105.4652312 142.4946358
 108.1540658 104.9110799 142.6403040 109.3318967 105.5374181 143.3560509
  53.9811955  23.8883453 125.3532127  53.3299935  24.4737534 124.9666141
  54.7756318  24.4189648 125.4127165  47.9067582  20.9772590 125.7519262
  48.6798458  20.4301577 125.6132137  48.2592981  21.8416840 125.9633723
  50.2433860  17.1365257 123.3837711  50.4959381  16.6146778 122.6221174
  49.3058419  16.9731402 123.4864395  55.4587220  21.5773885 125.8901112
  54.8233053  21.6508512 126.6022016  55.1284627  22.1667484 125.2120191
  49.9630149  19.0393362 125.5862086  49.8466407  18.3638266 126.2543171
  50.0732409  18.5525736 124.7694239  51.9467177  13.5293409 124.2870124
  52.1141579  14.3973646 124.6540595  51.7564346  13.6920691 123.3631413
  51.9256398  15.9851067 125.2716791  51.8056023  16.4308118 126.1102271
  51.2308986  16.3336384 124.7130329  49.6863290  28.7554709 128.9206922
  49.6087319  29.7062534 128.9995403  49.0824933  28.4100581 129.5781849
  57.6241464  16.4572540 126.0997125  58.5359320  16.6899927 125.9244823
  57.1151111  17.0409584 125.5372204  60.1100278  22.3752796 130.8455070
  59.4251316  22.7551698 130.2952104  60.1944127  22.9848123 131.5787018
  51.7839008  21.1772766 130.7560792  52.2477353  21.4560469 129.9665414
  51.5195806  20.2756211 130.5733882  50.7207894  17.2995919 127.5650357
  51.4231937  17.7516963 128.0324283  50.3888523  16.6579738 128.1930250
  66.5703031  19.2423459 131.9657743  65.8166739  18.6730857 131.8101747
  66.7050572  19.2086124 132.9128377  51.9601659  24.1136861 127.6412462
  51.8247333  24.9588397 128.0697310  52.5011471  24.3156139 126.8778396
  45.4131056  21.6312300 128.2140387  45.9255577  22.4255550 128.3645952
  46.0653769  20.9338590 128.1473989  47.2225941  24.7478056 130.2963140
  47.3992569  25.6696020 130.1084124  48.0182774  24.4336475 130.7257520
  55.2744405  17.6276034 124.6783791  54.7591028  18.3980639 124.9172178
  55.0021713  16.9541171 125.3016852  60.2478679  20.3808389 126.6136964
  59.4708122  20.0419549 126.1692126  60.9270160  20.3861012 125.9391929
  55.0630708  15.5003127 126.5043572  54.7580844  15.8149276 127.3553715
  56.0161150  15.5784546 126.5470905  53.5077140  21.6593350 128.1536526
  52.9798502  20.9246109 127.8409763  53.0064643  22.4368026 127.9076494
  58.4869986  19.8542370 133.2703572  57.8293660  20.5441632 133.3583701
  59.2910385  20.2438802 133.6137558  57.2975445  18.2086743 131.3207514
  57.8107327  18.8416735 131.8229223  57.9476669  17.6087939 130.9550874
  48.5665455  14.3517477 124.5339022  47.7302767  14.6892164 124.8548297
  48.4270224  14.2166457 123.5966159  51.6529740  19.4773560 121.1571499
  50.7456802  19.2462814 121.3562648  52.1500772  18.6811179 121.3445480
  54.5597819  28.1871067 124.0768185  53.8859518  28.4902764 124.6853143
  54.9463641  28.9900148 123.7273642  54.5591323  17.0827614 128.6968535
  55.3063142  17.5949012 128.3875657  54.8282913  16.7611667 129.5572928
  52.8317974  19.5786155 125.6795489  51.9229193  19.2945188 125.7767959
  52.8613057  19.9985234 124.8198796  58.0637241  23.1892745 129.4486656
  57.6099568  22.3483654 129.5051847  57.4331208  23.8254143 129.7861437
  56.5070180  25.0269241 130.3836475  56.7993155  25.5874298 129.6648840
  57.0168801  25.3197802 131.1389634  52.5294061  21.1194899 123.0183567
  52.0913491  20.4030758 122.5589205  53.2704502  21.3471014 122.4568659
  51.4703805  25.8049592 131.4729928  51.4279984  26.0310439 130.5438460
  52.3866504  25.5712967 131.6215729  60.6467176  19.3952096 129.0759886
  60.5085075  19.5853692 128.1481075  60.2903395  20.1571479 129.5327937
  60.6736556  21.4628623 134.0871157  61.1073062  21.3703912 134.9354212
  61.3868136  21.4386123 133.4491173  52.7589034  28.3550740 126.2915264
  52.9340790  27.8838783 127.1060887  52.0721822  28.9816506 126.5196525
  56.6505289  19.9779280 122.6115625  56.0334460  19.2526108 122.5148678
  56.1821777  20.7388641 122.2682699  47.3250119  31.5040103 133.0655124
  47.5646718  32.1358627 133.7434143  46.4819316  31.1528143 133.3520483
  48.4403835  14.1964705 121.7336929  47.5633301  14.0753505 121.3699176
  48.9161588  13.4050783 121.4815818  51.6267761  26.5490995 128.9799450
  50.8435283  27.0912675 129.0737674  52.3260506  27.0664975 129.3793691
  62.7894168  18.0625990 133.2651947  62.7784045  18.9450705 132.8945880
  61.9211548  17.7097541 133.0706484  56.0194192  21.1157312 129.1972079
  55.0850470  21.2358774 129.0276783  56.1970860  20.2129778 128.9332088
  59.4066743  16.9574631 129.7322113  59.8727195  17.7902623 129.6582415
  59.8574244  16.4919613 130.4367371  57.4742974  23.3018452 126.7308265
  57.7502818  23.1875047 127.6402139  56.6047473  22.9035937 126.6920438
  54.1097038  27.5504803 130.3741078  54.2919433  26.7326459 130.8368831
  54.9330024  27.7672495 129.9365968  54.4439204  26.4772988 127.6356127
  54.9726970  25.9665443 127.0226289  54.7067423  26.1615518 128.5001660
  47.7994952  27.5288105 130.3953903  47.1305327  28.0134233 129.9117943
  47.6607821  27.7757325 131.3097281  55.0768607  27.5113824 133.9800243
  54.9519747  26.7103564 133.4711189  55.7347699  28.0060017 133.4914213
  57.1403516  25.3122844 135.6079793  56.1933851  25.1928195 135.5358120
  57.4886289  24.4245342 135.6906055  54.1449949  25.1075560 131.8084146
  53.9974912  24.1792268 131.9891716  54.9703443  25.1295651 131.3241221
  57.7484071  25.9304119 132.8949018  58.6730619  25.7246980 132.7573469
  57.5799374  25.6820520 133.8038360  54.1411463  12.9613398 126.8016263
  54.3575078  13.8438036 126.5005091  53.6605531  12.5699611 126.0721905
  57.5379387  26.4489786 128.2511110  57.7116265  25.8836209 127.4984962
  58.0308278  27.2490681 128.0690600  63.3918778  19.2126209 129.8701410
  63.8349924  18.4633535 129.4720533  62.5145289  19.2036346 129.4875142
  58.5254560  25.7656551 125.3508008  59.2205464  26.3863244 125.5695323
  58.8677710  24.9151902 125.6260386  60.4245983  23.2156256 126.8795339
  60.9497307  23.5543529 126.1544659  60.3368335  22.2803272 126.6958473
  52.1086644  29.2828240 131.2390592  51.6691634  28.7904618 131.9323449
  52.8594761  28.7401207 130.9982667  49.1174023  23.3770172 126.7871354
  49.2662143  24.0605636 126.1338027  49.9240466  23.3575262 127.3020810
  62.9351643  20.6831448 132.2623857  63.7698534  21.1221252 132.4261417
  63.0710772  20.2070101 131.4432103  52.6169428  25.8718303 124.2583102
  52.0443395  26.4908490 123.8053574  53.1902222  26.4217664 124.7923024
  55.8366688  26.1555453 125.3891684  56.7697361  26.0901014 125.5924559
  55.7489901  26.9911719 124.9306217  58.4654705  25.4721323 122.3495632
  58.3868336  25.1381187 123.2431389  59.2864371  25.9643091 122.3487104
  53.0016227  17.2079115 121.5999154  53.9475331  17.0785323 121.6687572
  52.6230472  16.4693777 122.0768582  66.9809446  19.3999069 134.6977987
  67.7112834  19.1384357 135.2585690  66.3716391  18.6627791 134.7380055
  51.1859144  15.1329092 121.5354039  50.2790599  14.8362204 121.6116753
  51.4635125  14.8358910 120.6688326  49.9557928  11.9916027 121.6766019
  50.8177092  12.3170925 121.9361836  50.1408273  11.2047523 121.1639084
  56.8915443  13.0244644 127.8757590  56.0041298  13.3094294 127.6577785
  57.3069432  12.8638407 127.0284867  56.0358656  22.7889318 121.9705610
  56.7394507  22.9939321 122.5863265  55.3121305  23.3566080 122.2354693
  56.8656467  18.5399180 128.0907880  56.8091668  18.9967731 127.2515512
  57.4184809  17.7789864 127.9130723  60.6761273  14.3288912 128.9158000
  60.4198207  13.9285547 129.7466207  60.0514141  15.0432705 128.7908139
  64.9873610  17.0684985 131.4229291  64.4273168  17.1378174 132.1960853
  64.3817114  16.8925969 130.7028787  48.0568819  28.5021712 133.1747477
  47.9401203  29.4467144 133.0726167  47.2361266  28.1995273 133.5633276
  57.9445354  23.2271848 124.0204070  58.7790958  22.7953046 123.8381545
  57.7829697  23.0553861 124.9480964  57.5991246  19.7303961 125.3860409
  57.5440050  19.5648232 124.4448853  56.9737301  20.4379994 125.5422599
  50.8376935  27.9080960 133.0513484  49.8872566  27.9082822 132.9377857
  51.1409422  27.1613695 132.5349519  66.5729629  33.7441499 134.1159247
  67.2108039  33.6248246 133.4122587  66.4550472  34.6922343 134.1747199
  63.3819335  33.6968927 134.0520771  63.0437847  33.5809992 133.1641306
  64.2509103  33.2960092 134.0321777  59.2406151  35.5504403 130.0417662
  58.6771016  35.4594340 129.2733950  59.1258546  34.7304308 130.5220155
  63.8639118  34.8503779 140.0106977  63.8527759  34.4556577 139.1387481
  64.0259758  34.1169851 140.6040748  56.7870583  37.0455595 132.8801883
  57.5791875  36.7046419 132.4648182  57.0267233  37.1550570 133.8004036
  64.8205710  39.2175371 125.3532127  64.1693689  39.8029451 124.9666141
  65.6150072  39.7481566 125.4127165  58.7461337  36.3064508 125.7519262
  59.5192213  35.7593495 125.6132137  59.0986736  37.1708757 125.9633723
  60.5846379  37.6340890 138.9586161  60.2936245  38.5386521 138.8432827
  61.2203364  37.6757418 139.6730230  61.5102586  35.0117739 135.5487520
  62.1066158  34.7873761 134.8344483  61.5677558  34.2702484 136.1512968
  61.0827615  32.4657174 123.3837711  61.3353135  31.9438695 122.6221174
  60.1452174  32.3023320 123.4864395  66.1270897  31.4692953 131.1912455
  66.9133987  31.0512376 130.8402872  66.3909602  32.3739045 131.3594103
  66.2980975  36.9065803 125.8901112  65.6626808  36.9800429 126.6022016
  65.9678381  37.4959402 125.2120191  71.5279325  31.4068186 132.0945433
  72.2604496  30.8367403 132.3283263  70.7718680  31.0189786 132.5351939
  60.8023903  34.3685280 125.5862086  60.6860161  33.6930184 126.2543171
  60.9126163  33.8817654 124.7694239  63.1455444  33.8295427 129.2908776
  62.7813651  33.3026048 130.0021697  64.0022560  33.4393896 129.1175261
  69.0504745  25.1189760 136.5540042  68.7188070  25.9885171 136.3301257
  68.4550358  24.8026044 137.2334072  62.7860931  28.8585327 124.2870124
  62.9535334  29.7265563 124.6540595  62.5958100  29.0212609 123.3631413
  65.5436264  37.3202306 135.9535955  65.2436988  38.2227345 135.8451762
  65.1987324  37.0534489 136.8057107  58.9948746  33.7716103 131.9872659
  58.0699242  33.6392317 132.1950351  59.2433159  34.5510322 132.4842601
  68.9433408  29.8384846 133.6333392  68.0350286  29.7700254 133.3392153
  68.8921004  30.3156791 134.4615217  62.7650152  31.3142984 125.2716791
  62.6449777  31.7600035 126.1102271  62.0702740  31.6628302 124.7130329
  56.3557557  33.4149376 132.8216448  56.4849938  33.6683855 133.7355860
  55.6755008  34.0077084 132.5021103  60.5257044  44.0846626 128.9206922
  60.4481074  45.0354451 128.9995403  59.9218688  43.7392499 129.5781849
  63.0174274  31.2574492 141.5768289  62.2407608  31.8168412 141.5671154
  63.6564837  31.7431275 142.0983159  70.8095055  28.0401284 135.4111266
  70.1669435  28.3333818 134.7651060  70.3049983  27.9254205 136.2164462
  68.4635218  31.7864458 126.0997125  69.3753074  32.0191844 125.9244823
  67.9544865  32.3701502 125.5372204  61.2720646  34.0659945 141.1386256
  62.0135331  34.6044989 140.8621080  60.5657632  34.6926234 141.2957808
  66.7475986  36.2089085 139.7358418  67.1559342  35.7671496 138.9913050
  66.0253247  35.6341713 139.9892611  63.1007056  31.1461692 137.1091975
  63.9468251  31.5701106 137.2526624  63.0405694  30.4895317 137.8030538
  67.0704801  36.7690276 133.4910707  66.4413663  36.9335990 132.7886774
  66.6830463  37.1831886 134.2621671  70.9494032  37.7044714 130.8455070
  70.2645071  38.0843615 130.2952104  71.0337882  38.3140041 131.5787018
  66.2506501  28.8066061 138.7673148  66.0067433  29.5608121 138.2307424
  66.5266432  29.1851408 139.6020395  68.2044964  35.3504673 137.4450414
  68.4161859  35.9936433 136.7684795  68.1574712  34.5166990 136.9772344
  65.8071193  27.9622494 134.3486986  64.9455672  28.2603747 134.6403724
  65.8333628  28.1792892 133.4168019  62.6232762  36.5064684 130.7560792
  63.0871108  36.7852387 129.9665414  62.3589561  35.6048129 130.5733882
  59.5156844  36.0536166 133.6940555  60.0858201  36.4823434 133.0558039
  60.1064955  35.7718750 134.3924741  61.5601649  32.6287837 127.5650357
  62.2625692  33.0808880 128.0324283  61.2282277  31.9871655 128.1930250
  55.3026982  30.8871389 132.8667490  54.5126036  31.1428918 132.3907601
  55.7938230  31.7019727 132.9719531  69.3190792  38.2276628 135.6172771
  70.1408236  37.8256816 135.3355453  69.3153195  38.1244863 136.5688887
  57.2541728  31.2515968 129.8250967  56.4572891  31.3634663 130.3434463
  57.0267320  31.5902621 128.9591858  63.0847395  37.7760672 137.7733482
  63.1491828  38.2381079 138.6091653  62.3758319  37.1458037 137.9015791
  53.5864685  31.1401880 135.2982481  53.8372724  32.0248890 135.5640057
  54.1224234  30.9606481 134.5257573  77.4096785  34.5715377 131.9657743
  76.6560493  34.0022775 131.8101747  77.5444326  34.5378041 132.9128377
  62.7995413  39.4428779 127.6412462  62.6641088  40.2880315 128.0697310
  63.3405226  39.6448057 126.8778396  56.2524811  36.9604217 128.2140387
  56.7649331  37.7547467 128.3645952  56.9047523  36.2630508 128.1473989
  58.0619695  40.0769973 130.2963140  58.2386324  40.9987938 130.1084124
  58.8576529  39.7628393 130.7257520  64.4263890  40.0652346 141.7712804
  63.9827744  39.2788724 141.4533709  65.0881103  40.2531496 141.1056695
  59.1851011  41.5948147 136.2973483  59.7358436  41.4665211 135.5250476
  58.3462487  41.8943036 135.9468375  66.5245128  40.3455146 139.7994205
  66.5063603  41.1664027 139.3074474  67.4465048  40.2209221 140.0244346
  62.9818182  37.8599275 140.6417714  63.5146519  37.0987563 140.4117022
  62.4532263  37.5672927 141.3841868  66.1487877  22.9659341 136.1711355
  65.8052146  23.8560983 136.0950466  66.5166839  22.7760999 135.3080940
  54.2173727  35.2892871 128.9899958  55.0548949  35.6989880 128.7733665
  54.3951995  34.3492314 128.9600151  66.1138159  32.9567952 124.6783791
  65.5984783  33.7272557 124.9172178  65.8415468  32.2833088 125.3016852
  63.6985270  27.8017653 129.7369029  62.8426867  27.4124503 129.5574668
  64.1112222  27.8809614 128.8768814  65.2284417  25.3363996 134.1360589
  64.7249213  25.2994131 133.3228394  65.5215024  26.2456739 134.1957245
  61.4727303  25.4202726 133.1426770  62.3380300  25.2245535 132.7832660
  61.5404812  25.1913078 134.0696127  71.0872434  35.7100307 126.6136964
  70.3101876  35.3711466 126.1692126  71.7663915  35.7152930 125.9391929
  65.9024463  30.8295044 126.5043572  65.5974598  31.1441193 127.3553715
  66.8554905  30.9076464 126.5470905  64.3470894  36.9885268 128.1536526
  63.8192256  36.2538027 127.8409763  63.8458397  37.7659944 127.9076494
  69.3263740  35.1834288 133.2703572  68.6687415  35.8733549 133.3583701
  70.1304140  35.5730720 133.6137558  59.0789622  27.6504934 130.5143137
  59.6533374  27.4280115 129.7816330  59.6660604  27.7193628 131.2671739
  68.1369199  33.5378661 131.3207514  68.6501081  34.1708653 131.8229223
  68.7870423  32.9379856 130.9550874  59.4059209  29.6809395 124.5339022
  58.5696521  30.0184081 124.8548297  59.2663979  29.5458375 123.5966159
  61.3812290  24.5246183 129.2418207  60.7276702  24.2095200 128.6174821
  61.3392764  23.9021923 129.9678030  62.4923495  34.8065478 121.1571499
  61.5850556  34.5754731 121.3562648  62.9894527  34.0103097 121.3445480
  65.3991573  43.5162985 124.0768185  64.7253272  43.8194682 124.6853143
  65.7857395  44.3192065 123.7273642  64.6150030  31.0128116 133.5665854
  63.6972591  31.2343063 133.4087542  65.0310174  31.0874427 132.7077562
  65.3985078  32.4119532 128.6968535  66.1456897  32.9240929 128.3875657
  65.6676667  32.0903585 129.5572928  63.6711728  34.9078073 125.6795489
  62.7622947  34.6237106 125.7767959  63.7006812  35.3277151 124.8198796
  68.9030995  38.5184662 129.4486656  68.4493323  37.6775572 129.5051847
  68.2724962  39.1546061 129.7861437  67.8463915  29.4476648 130.6787324
  67.1086672  28.9354034 131.0097566  68.0990689  29.0077030 129.8670601
  67.3463935  40.3561159 130.3836475  67.6386909  40.9166216 129.6648840
  67.8562555  40.6489720 131.1389634  67.9475542  22.2252900 131.2729093
  68.2534419  21.3650264 130.9855008  68.6728147  22.8170520 131.0728087
  54.2399898  32.6283587 129.6610691  54.0424298  32.0352948 128.9361758
  53.6846562  32.3235797 130.3786630  62.2196622  32.5206693 131.7805284
  62.2745232  31.5680530 131.7047761  61.4087824  32.6766132 132.2646583
  63.3687816  36.4486816 123.0183567  62.9307246  35.7322675 122.5589205
  64.1098257  36.6762931 122.4568659  60.1588982  31.1383753 129.5395663
  59.3456848  31.4377924 129.9460855  60.6547976  30.7439442 130.2570145
  62.3097560  41.1341510 131.4729928  62.2673739  41.3602356 130.5438460
  63.2260259  40.9004885 131.6215729  65.7563194  31.6025578 138.3710557
  66.1112581  31.8297051 139.2305023  66.4035325  31.9343954 137.7487812
  71.4860931  34.7244013 129.0759886  71.3478829  34.9145609 128.1481075
  71.1297149  35.4863396 129.5327937  59.6503057  28.7102109 135.1556898
  60.2902436  28.5690868 134.4579861  58.8180587  28.4236622 134.7795500
  71.5130310  36.7920540 134.0871157  71.9466817  36.6995830 134.9354212
  72.2261891  36.7678041 133.4491173  60.4263361  38.0104539 131.2691890
  61.2203959  37.5154859 131.0674465  59.7155053  37.4822402 130.9059596
  65.2458205  40.3922635 135.6204258  65.2995227  40.9613571 136.3881974
  64.3772987  40.5624520 135.2558295  56.7346124  32.1547621 127.3451643
  55.8043712  32.0932076 127.5621605  56.8303596  31.6323573 126.5488284
  56.6531673  28.6802434 129.9329885  56.9138490  29.5947767 129.8239045
  57.4748846  28.2126876 130.0826498  58.1256599  30.0940191 137.1028709
  58.7979652  29.8857553 136.4541358  57.2986385  29.8962277 136.6633942
  72.3745860  36.8344241 136.6204043  72.5681750  37.7390052 136.8663318
  72.2746478  36.3751660 137.4542628  64.0282171  26.7202132 139.1194370
  63.3810086  27.4192081 139.0258847  64.7983186  27.1538276 139.4870618
  67.4360968  36.9850984 142.1944923  67.2846475  36.7561535 141.2775007
  67.4265648  37.9421585 142.2076268  64.2046305  34.5582897 137.1791190
  65.1338365  34.7094056 137.0060157  63.7837335  34.6466917 136.3239836
  63.0034637  38.5833561 134.9489728  62.8645722  38.2152345 135.8215666
  62.2149233  39.0981200 134.7773685  63.5982789  43.6842657 126.2915264
  63.7734544  43.2130701 127.1060887  62.9115577  44.3108424 126.5196525
  64.5539852  37.9615164 132.3378565  64.2189684  37.9215934 133.2336215
  64.0543798  37.2959880 131.8648976  58.5284096  33.3682794 137.8631146
  58.3903894  32.6363033 138.4642686  59.4389019  33.2791694 137.5815334
  67.4899043  35.3071198 122.6115625  66.8728214  34.5818026 122.5148678
  67.0215532  36.0680558 122.2682699  61.1566396  33.0802753 137.3514826
  61.8666015  32.4395945 137.3101445  61.1135705  33.3315648 138.2741007
  69.1453175  40.0170106 140.2721405  69.0865721  39.3329326 139.6051988
  69.5472694  40.7589096 139.8202031  58.1643874  46.8332020 133.0655124
  58.4040472  47.4650544 133.7434143  57.3213070  46.4820060 133.3520483
  59.2797589  29.5256622 121.7336929  58.4027056  29.4045423 121.3699176
  59.7555342  28.7342701 121.4815818  69.1470582  37.9809690 138.5035385
  68.2597361  37.6435612 138.6261784  69.7169133  37.2492722 138.7404150
  50.7999730  34.3133782 131.8278436  51.4870769  33.9995512 131.2399452
  50.6447858  35.2175147 131.5545688  55.6034452  29.2023979 136.2563460
  55.5192640  28.5949648 135.5213870  54.7817158  29.6932997 136.2572956
  62.6771736  42.6411143 135.4696628  62.6041907  43.4466114 135.9815933
  62.2349129  42.8403108 134.6444650  62.4661515  41.8782913 128.9799450
  61.6829037  42.4204593 129.0737674  63.1654261  42.3956892 129.3793691
  65.7758166  27.6877542 131.6233655  66.2726865  26.9347504 131.3034725
  65.0045147  27.7241859 131.0576864  73.6287923  33.3917908 133.2651947
  73.6177799  34.2742623 132.8945880  72.7605302  33.0389458 133.0706484
  65.1370419  42.5397977 137.6254787  65.8498392  43.1745441 137.5530688
  64.6460448  42.6361843 136.8094789  66.8587946  36.4449229 129.1972079
  65.9244225  36.5650692 129.0276783  67.0364615  35.5421696 128.9332088
  62.3593134  29.8294925 131.3505340  61.9890922  29.2765966 132.0386245
  62.8552227  29.2253059 130.7980340  70.2460498  32.2866549 129.7322113
  70.7120950  33.1194540 129.6582415  70.6967998  31.8211530 130.4367371
  60.1882333  40.2892420 138.4460358  60.8891792  40.9228903 138.5989752
  59.7177448  40.6307152 137.6855997  68.3136729  38.6310370 126.7308265
  68.5896573  38.5166965 127.6402139  67.4441227  38.2327855 126.6920438
  68.2177160  24.6547136 133.7713014  67.3040240  24.8851362 133.9395221
  68.6470262  24.7385580 134.6227046  67.9883619  32.8437028 136.2712908
  67.3355069  33.0912935 135.6165361  68.3663999  32.0301166 135.9375385
  64.9490793  42.8796721 130.3741078  65.1313187  42.0618377 130.8368831
  65.7723779  43.0964413 129.9365968  65.2832958  41.8064906 127.6356127
  65.8120725  41.2957360 127.0226289  65.5461178  41.4907436 128.5001660
  55.7850051  39.8228775 135.3791460  56.3703488  39.0772463 135.5119365
  55.5874889  40.1332732 136.2628124  58.6388706  42.8580023 130.3953903
  57.9699081  43.3426150 129.9117943  58.5001576  43.1049243 131.3097281
  50.3767706  32.3934375 134.0995904  50.4151805  31.8597966 134.8933022
  49.8707998  31.8669581 133.4806881  62.7793975  44.8923766 136.9936561
  63.3312283  45.0555388 137.7585646  63.1200168  45.4828204 136.3216586
  67.6304849  39.7185024 142.8485216  68.1744753  40.3314982 142.3540170
  67.0491694  40.2764602 143.3652229  54.0076283  31.1198478 127.1749835
  54.3029724  30.2109156 127.1216889  53.1064319  31.0986217 126.8530837
  65.9162362  42.8405742 133.9800243  65.7913501  42.0395481 133.4711189
  66.5741453  43.3351935 133.4914213  57.5370530  29.1954474 133.1577384
  56.8157116  29.8090442 133.0184857  58.3263786  29.7312239 133.0794029
  67.9797270  40.6414762 135.6079793  67.0327606  40.5220113 135.5358120
  68.3280043  39.7537260 135.6906055  55.7364125  28.8012575 127.2989160
  55.4076831  27.9209954 127.1164266  56.0903495  28.7460244 128.1865549
  64.9843704  40.4367478 131.8084146  64.8368666  39.5084185 131.9891716
  65.8097197  40.4587569 131.3241221  58.8505948  29.0885545 127.6664638
  59.1902020  29.6171466 126.9443246  59.2978068  29.4265951 128.4423204
  68.5877826  41.2596037 132.8949018  69.5124373  41.0538898 132.7573469
  68.4193129  41.0112438 133.8038360  61.5449389  27.4722596 137.1167706
  61.2046209  26.6730409 137.5188386  60.8388395  27.7724307 136.5444539
  62.1965861  24.5571908 135.5695029  63.0191930  24.0832386 135.4473919
  62.4403924  25.3362392 136.0693715  60.8374095  27.5860167 125.8657931
  61.5582458  27.9641419 125.3621647  60.2139399  28.3049043 125.9692908
  64.9805218  28.2905316 126.8016263  65.1968832  29.1729953 126.5005091
  64.4999285  27.8991529 126.0721905  59.7204439  31.2491029 133.3787007
  59.5749020  31.5631332 134.2711289  59.2429643  31.8675929 132.8257906
  61.5800822  28.2393577 133.4267897  61.5662391  27.3434670 133.0900195
  62.2973250  28.2464241 134.0606183  63.4326953  28.6730917 135.4721024
  63.1744731  29.5947988 135.4705355  62.9011993  28.2761352 136.1621489
  68.3773142  41.7781704 128.2511110  68.5510019  41.2128127 127.4984962
  68.8702033  42.5782599 128.0690600  54.1950102  33.7896373 136.3174669
  53.6503570  34.5656181 136.4494943  55.0729451  34.1367178 136.1593790
  60.9837718  27.1207957 128.6955467  61.1053629  26.1924603 128.8946355
  60.6939761  27.1346643 127.7833783  63.8528909  24.8062867 131.8322187
  63.8750605  24.8702201 130.8774167  64.2696968  23.9667376 132.0262693
  74.2312533  34.5418127 129.8701410  74.6743679  33.7925452 129.4720533
  73.3539043  34.5328263 129.4875142  69.3648314  41.0948469 125.3508008
  70.0599219  41.7155161 125.5695323  69.7071464  40.2443820 125.6260386
  71.2639737  38.5448174 126.8795339  71.7891061  38.8835447 126.1544659
  71.1762090  37.6095189 126.6958473  62.9259786  42.4582248 139.0085215
  63.2346912  42.2131394 139.8807915  63.7235268  42.6628886 138.5204086
  62.9480398  44.6120157 131.2390592  62.5085388  44.1196536 131.9323449
  63.6988515  44.0693125 130.9982667  55.4272737  40.8031698 131.2415220
  56.2530757  40.5035470 130.8613864  55.0766789  40.0339321 131.6905009
  60.3954270  40.1558166 133.3112894  59.7734280  39.4928871 133.0115122
  61.0659137  40.1819298 132.6286541  53.6281342  38.7218025 132.2004154
  52.7913250  38.2940199 132.0188155  53.6004988  38.9150468 133.1374945
  70.9533643  39.1781078 142.1846537  70.1629187  39.1605217 141.6451036
  70.7166998  39.7169371 142.9395573  71.0731518  36.0273544 139.4979265
  71.1229523  35.8623551 140.4394788  70.9645442  35.1600803 139.1077146
  59.9567777  38.7062090 126.7871354  60.1055898  39.3897554 126.1338027
  60.7634221  38.6867180 127.3020810  68.3635281  32.0104472 140.8138572
  69.2645144  31.8710937 140.5222570  68.4383255  32.1758927 141.7536750
  62.6978086  29.3871327 139.6591758  61.8281396  29.6804893 139.3874347
  62.9337567  29.9711772 140.3799022  72.5749715  38.4470486 139.7421287
  72.2834524  38.8100466 140.5784748  71.9621847  37.7337494 139.5634619
  73.7745398  36.0123365 132.2623857  74.6092289  36.4513169 132.4261417
  73.9104526  35.5362019 131.4432103  70.8236904  33.5703100 138.2101345
  71.2991025  33.7630747 137.4020196  69.9002469  33.6262286 137.9644729
  57.7120410  34.7327267 127.7932423  57.4666452  33.8289597 127.9912633
  57.8816325  34.7344418 126.8511901  65.4017120  25.6050944 137.1757179
  65.9199064  26.3411971 136.8503667  65.0472253  25.9114937 138.0103938
  56.9816058  30.4655625 125.2918585  56.2885303  30.5399980 124.6358621
  56.7367810  29.7015969 125.8140102  65.6529714  22.0251226 132.6958075
  65.9331468  21.3574415 133.3218502  66.4380321  22.2180322 132.1832739
  63.4563183  41.2010220 124.2583102  62.8837150  41.8200407 123.8053574
  64.0295976  41.7509582 124.7923024  69.5238573  30.4468860 136.4429650
  70.4755995  30.5466958 136.4641875  69.3542023  29.6547129 136.9527735
  67.5452952  27.5324443 136.6289051  66.9502884  27.8129456 135.9335540
  67.2602649  28.0218344 137.4005793  66.6760442  41.4847370 125.3891684
  67.6091116  41.4192932 125.5924559  66.5883655  42.3203637 124.9306217
  69.3048459  40.8013241 122.3495632  69.2262091  40.4673104 123.2431389
  70.1258126  41.2935009 122.3487104  72.0026650  33.6674980 135.5571950
  71.9702970  32.7290981 135.7431634  72.6127274  33.7459017 134.8237775
  63.8409981  32.5371033 121.5999154  64.7869086  32.4077241 121.6687572
  63.4624226  31.7985695 122.0768582  72.1521139  30.4586023 135.6030233
  71.6360187  29.6744480 135.4160162  73.0361087  30.1304740 135.7676753
  69.8131866  24.2027039 131.5626046  69.6156687  23.8942127 132.4469378
  70.4231571  24.9288678 131.6923976  77.8203200  34.7290987 134.6977987
  78.5506589  34.4676275 135.2585690  77.2110146  33.9919709 134.7380055
  75.9018497  32.8698849 135.2952438  75.1751661  32.7354814 134.6868930
  75.4865784  33.1775678 136.1009156  63.7248674  36.5888779 143.0599811
  64.6451683  36.7667378 143.2539858  63.6898257  35.6444824 142.9079510
  62.0252898  30.4621009 121.5354039  61.1184354  30.1654122 121.6116753
  62.3028879  30.1650827 120.6688326  52.9430839  31.7827373 131.9853086
  52.6233623  30.9292681 131.6927460  52.3964267  31.9975951 132.7411053
  56.7210746  34.4989814 135.7022592  56.9396756  35.4306922 135.7210626
  57.1336520  34.1397788 136.4877396  63.6414964  25.0057899 127.6898281
  62.8315692  24.6604984 128.0653527  64.3299381  24.6965443 128.2785892
  65.5705512  24.0835946 129.3122577  66.1236551  24.5031399 129.9712600
  65.8075599  23.1571694 129.3545533  60.7951683  27.3207945 121.6766019
  61.6570847  27.6462843 121.9361836  60.9802027  26.5339440 121.1639084
  52.8119099  35.4030284 133.9546207  52.1182570  34.9884237 133.4416162
  53.5592090  35.4450821 133.3579626  68.9484319  26.1936471 128.8201242
  68.3682988  26.8521275 128.4379294  68.6820252  25.3713816 128.4088659
  67.3987886  25.5941529 131.0222562  67.8987664  25.7058063 130.2136881
  68.0423494  25.2902582 131.6623370  54.7255841  35.3348538 131.8312222
  54.7026529  35.4336225 130.8794105  55.0356478  36.1813689 132.1529388
  57.3843219  37.3924693 135.9458837  58.3386473  37.3608635 135.8788768
  57.1855743  36.9315317 136.7609063  57.9742601  35.9625809 138.5129634
  58.7935490  36.4569888 138.5364472  58.2479409  35.0457777 138.4847202
  67.7309197  28.3536561 127.8757590  66.8435052  28.6386212 127.6577785
  68.1463187  28.1930325 127.0284867  71.0823734  28.3783082 131.5911929
  71.8584124  28.8679535 131.8636546  70.3571868  28.8041137 132.0483799
  73.5196292  29.0910702 132.6485870  74.1140783  28.8506438 131.9379178
  73.5922876  28.3717832 133.2759406  55.7393448  42.9344313 132.9629035
  55.6047916  42.1744713 132.3967033  55.3225510  43.6585212 132.4957823
  66.8752411  38.1181236 121.9705610  67.5788261  38.3231239 122.5863265
  66.1515060  38.6857998 122.2354693  67.7050221  33.8691097 128.0907880
  67.6485423  34.3259649 127.2515512  68.2578564  33.1081782 127.9130723
  71.5155027  29.6580829 128.9158000  71.2591961  29.2577465 129.7466207
  70.8907895  30.3724623 128.7908139  75.8267365  32.3976902 131.4229291
  75.2666923  32.4670092 132.1960853  75.2210868  32.2217887 130.7028787
  58.8962574  43.8313630 133.1747477  58.7794958  44.7759062 133.0726167
  58.0755020  43.5287191 133.5633276  68.7839108  38.5563765 124.0204070
  69.6184712  38.1244964 123.8381545  68.6223451  38.3845779 124.9480964
  68.4385001  35.0595879 125.3860409  68.3833804  34.8940150 124.4448853
  67.8131056  35.7671911 125.5422599  65.7530908  37.3644790 144.7113972
  66.6222067  37.5385443 144.3500607  65.2737659  38.1839207 144.5889701
  61.7481126  24.5603988 124.9645728  61.7359796  25.5045827 125.1213998
  62.6404548  24.3774133 124.6705189  59.9217088  44.4841891 136.3903406
  60.8244335  44.5165502 136.7069901  59.6954458  43.5542342 136.4049741
  61.6770690  43.2372878 133.0513484  60.7266321  43.2374740 132.9377857
  61.9803176  42.4905613 132.5349519  65.5633245  21.1546764 129.2191664
  64.7965641  20.6005251 129.3648347  65.9743950  21.2268633 130.0805816
  77.4123383  49.0733416 134.1159247  78.0501793  48.9540164 133.4122587
  77.2944226  50.0214260 134.1747199  74.2213090  49.0260844 134.0520771
  73.8831601  48.9101909 133.1641306  75.0902858  48.6252010 134.0321777
  70.0799905  50.8796321 130.0417662  69.5164771  50.7886258 129.2733950
  69.9652300  50.0596225 130.5220155  74.7032873  50.1795696 140.0106977
  74.6921513  49.7848494 139.1387481  74.8653512  49.4461769 140.6040748
  67.6264337  52.3747512 132.8801883  68.4185629  52.0338337 132.4648182
  67.8660987  52.4842488 133.8004036  75.6599464  54.5467289 125.3532127
  75.0087444  55.1321369 124.9666141  76.4543827  55.0773484 125.4127165
  69.5855091  51.6356426 125.7519262  70.3585967  51.0885413 125.6132137
  69.9380490  52.5000675 125.9633723  71.4240134  52.9632808 138.9586161
  71.1330000  53.8678439 138.8432827  72.0597118  53.0049336 139.6730230
  72.3496341  50.3409657 135.5487520  72.9459913  50.1165679 134.8344483
  72.4071312  49.5994402 136.1512968  71.9221369  47.7949092 123.3837711
  72.1746890  47.2730613 122.6221174  70.9845928  47.6315237 123.4864395
  76.9664652  46.7984870 131.1912455  77.7527741  46.3804293 130.8402872
  77.2303356  47.7030962 131.3594103  77.1374729  52.2357721 125.8901112
  76.5020562  52.3092347 126.6022016  76.8072136  52.8251319 125.2120191
  82.3673079  46.7360103 132.0945433  83.0998251  46.1659320 132.3283263
  81.6112435  46.3481704 132.5351939  71.6417658  49.6977198 125.5862086
  71.5253916  49.0222101 126.2543171  71.7519918  49.2109572 124.7694239
  73.9849199  49.1587345 129.2908776  73.6207406  48.6317966 130.0021697
  74.8416315  48.7685814 129.1175261  79.8898499  40.4481678 136.5540042
  79.5581824  41.3177089 136.3301257  79.2944113  40.1317962 137.2334072
  73.6254686  44.1877245 124.2870124  73.7929088  45.0557481 124.6540595
  73.4351855  44.3504526 123.3631413  76.3830019  52.6494224 135.9535955
  76.0830742  53.5519262 135.8451762  76.0381078  52.3826407 136.8057107
  69.8342500  49.1008020 131.9872659  68.9092997  48.9684234 132.1950351
  70.0826914  49.8802240 132.4842601  79.7827163  45.1676764 133.6333392
  78.8744040  45.0992172 133.3392153  79.7314758  45.6448709 134.4615217
  73.6043907  46.6434902 125.2716791  73.4843532  47.0891953 126.1102271
  72.9096495  46.9920220 124.7130329  67.1951311  48.7441294 132.8216448
  67.3243693  48.9975773 133.7355860  66.5148763  49.3369002 132.5021103
  71.3650799  59.4138544 128.9206922  71.2874828  60.3646369 128.9995403
  70.7612442  59.0684416 129.5781849  73.8568028  46.5866409 141.5768289
  73.0801363  47.1460329 141.5671154  74.4958592  47.0723192 142.0983159
  81.6488809  43.3693202 135.4111266  81.0063189  43.6625735 134.7651060
  81.1443738  43.2546122 136.2164462  79.3028973  47.1156375 126.0997125
  80.2146829  47.3483762 125.9244823  78.7938620  47.6993420 125.5372204
  72.1114401  49.3951863 141.1386256  72.8529085  49.9336907 140.8621080
  71.4051386  50.0218151 141.2957808  77.5869740  51.5381003 139.7358418
  77.9953096  51.0963414 138.9913050  76.8647002  50.9633631 139.9892611
  73.9400810  46.4753610 137.1091975  74.7862006  46.8993023 137.2526624
  73.8799448  45.8187234 137.8030538  77.9098555  52.0982194 133.4910707
  77.2807418  52.2627908 132.7886774  77.5224217  52.5123803 134.2621671
  81.7887787  53.0336632 130.8455070  81.1038825  53.4135533 130.2952104
  81.8731636  53.6431958 131.5787018  77.0900256  44.1357978 138.7673148
  76.8461188  44.8900039 138.2307424  77.3660186  44.5143326 139.6020395
  79.0438719  50.6796591 137.4450414  79.2555614  51.3228351 136.7684795
  78.9968467  49.8458907 136.9772344  76.6464948  43.2914411 134.3486986
  75.7849427  43.5895665 134.6403724  76.6727382  43.5084810 133.4168019
  73.4626517  51.8356602 130.7560792  73.9264862  52.1144305 129.9665414
  73.1983315  50.9340046 130.5733882  70.3550598  51.3828083 133.6940555
  70.9251955  51.8115352 133.0558039  70.9458710  51.1010668 134.3924741
  72.3995403  47.9579754 127.5650357  73.1019446  48.4100798 128.0324283
  72.0676031  47.3163573 128.1930250  70.8475765  46.5491511 141.9401566
  70.2174425  47.2307792 142.1736963  70.7411852  46.4374592 140.9954704
  66.1420737  46.2163307 132.8667490  65.3519791  46.4720835 132.3907601
  66.6331984  47.0311645 132.9719531  80.1584547  53.5568546 135.6172771
  80.9801990  53.1548733 135.3355453  80.1546949  53.4536780 136.5688887
  68.0935482  46.5807886 129.8250967  67.2966646  46.6926580 130.3434463
  67.8661075  46.9194538 128.9591858  73.9241150  53.1052589 137.7733482
  73.9885582  53.5672997 138.6091653  73.2152074  52.4749954 137.9015791
  64.4258440  46.4693797 135.2982481  64.6766478  47.3540807 135.5640057
  64.9617988  46.2898399 134.5257573  88.2490540  49.9007295 131.9657743
  87.4954248  49.3314693 131.8101747  88.3838081  49.8669959 132.9128377
  73.6389168  54.7720697 127.6412462  73.5034842  55.6172233 128.0697310
  74.1798980  54.9739974 126.8778396  70.1256507  40.8512277 144.3026817
  69.7323453  40.2978475 144.9774461  70.9422648  41.1622855 144.6933335
  67.0918565  52.2896135 128.2140387  67.6043086  53.0839385 128.3645952
  67.7441278  51.5922425 128.1473989  68.9013450  55.4061891 130.2963140
  69.0780078  56.3279856 130.1084124  69.6970283  55.0920310 130.7257520
  73.0424468  42.2670156 141.8947074  73.7834182  42.8677309 141.8151536
  73.2742391  41.5247794 141.3365116  68.1865806  47.4526523 140.1725303
  68.0719321  46.5511780 140.4732402  67.3310324  47.6990220 139.8210120
  75.2657644  55.3944263 141.7712804  74.8221498  54.6080642 141.4533709
  75.9274858  55.5823414 141.1056695  70.0244765  56.9240065 136.2973483
  70.5752190  56.7957128 135.5250476  69.1856241  57.2234954 135.9468375
  77.3638882  55.6747063 139.7994205  77.3457357  56.4955944 139.3074474
  78.2858802  55.5501138 140.0244346  73.8211936  53.1891193 140.6417714
  74.3540273  52.4279481 140.4117022  73.2926017  52.8964845 141.3841868
  76.9881631  38.2951259 136.1711355  76.6445901  39.1852900 136.0950466
  77.3560594  38.1052916 135.3080940  65.0567482  50.6184789 128.9899958
  65.8942704  51.0281798 128.7733665  65.2345749  49.6784231 128.9600151
  76.9531914  48.2859870 124.6783791  76.4378537  49.0564474 124.9172178
  76.6809222  47.6125006 125.3016852  74.5379025  43.1309571 129.7369029
  73.6820621  42.7416421 129.5574668  74.9505977  43.2101531 128.8768814
  76.0678172  40.6655914 134.1360589  75.5642967  40.6286049 133.3228394
  76.3608778  41.5748657 134.1957245  72.3121057  40.7494644 133.1426770
  73.1774054  40.5537452 132.7832660  72.3798566  40.5204995 134.0696127
  81.9266188  51.0392224 126.6136964  81.1495631  50.7003384 126.1692126
  82.6057669  51.0444848 125.9391929  76.7418217  46.1586962 126.5043572
  76.4368353  46.4733111 127.3553715  77.6948659  46.2368382 126.5470905
  75.1864649  52.3177185 128.1536526  74.6586010  51.5829945 127.8409763
  74.6852152  53.0951862 127.9076494  80.1657495  50.5126206 133.2703572
  79.5081169  51.2025467 133.3583701  80.9697894  50.9022638 133.6137558
  69.9183377  42.9796852 130.5143137  70.4927128  42.7572033 129.7816330
  70.5054359  43.0485546 131.2671739  78.9762954  48.8670578 131.3207514
  79.4894835  49.5000570 131.8229223  79.6264178  48.2671774 130.9550874
  70.2452964  45.0101313 124.5339022  69.4090276  45.3475999 124.8548297
  70.1057733  44.8750292 123.5966159  72.2206044  39.8538100 129.2418207
  71.5670457  39.5387118 128.6174821  72.1786518  39.2313841 129.9678030
  73.3317249  50.1357395 121.1571499  72.4244311  49.9046649 121.3562648
  73.8288281  49.3395015 121.3445480  76.2385328  58.8454903 124.0768185
  75.5647027  59.1486599 124.6853143  76.6251150  59.6483983 123.7273642
  75.4543785  46.3420034 133.5665854  74.5366346  46.5634981 133.4087542
  75.8703928  46.4166344 132.7077562  76.2378832  47.7411450 128.6968535
  76.9850651  48.2532847 128.3875657  76.5070422  47.4195502 129.5572928
  74.5105483  50.2369990 125.6795489  73.6016702  49.9529023 125.7767959
  74.5400566  50.6569069 124.8198796  79.7424750  53.8476580 129.4486656
  79.2887077  53.0067490 129.5051847  79.1118717  54.4837978 129.7861437
  78.6857670  44.7768566 130.6787324  77.9480426  44.2645952 131.0097566
  78.9384443  44.3368948 129.8670601  78.1857689  55.6853077 130.3836475
  78.4780664  56.2458134 129.6648840  78.6956310  55.9781638 131.1389634
  78.7869297  37.5544818 131.2729093  79.0928174  36.6942181 130.9855008
  79.5121902  38.1462438 131.0728087  65.0793653  47.9575504 129.6610691
  64.8818053  47.3644865 128.9361758  64.5240317  47.6527715 130.3786630
  73.0590377  47.8498611 131.7805284  73.1138986  46.8972447 131.7047761
  72.2481579  48.0058050 132.2646583  74.2081570  51.7778734 123.0183567
  73.7701000  51.0614593 122.5589205  74.9492011  52.0054849 122.4568659
  70.9982737  46.4675671 129.5395663  70.1850602  46.7669841 129.9460855
  71.4941731  46.0731359 130.2570145  73.1491314  56.4633428 131.4729928
  73.1067493  56.6894274 130.5438460  74.0654013  56.2296802 131.6215729
  76.5956948  46.9317495 138.3710557  76.9506336  47.1588968 139.2305023
  77.2429079  47.2635872 137.7487812  82.3254685  50.0535931 129.0759886
  82.1872584  50.2437527 128.1481075  81.9690904  50.8155314 129.5327937
  70.4896811  44.0394026 135.1556898  71.1296191  43.8982785 134.4579861
  69.6574342  43.7528540 134.7795500  82.3524065  52.1212458 134.0871157
  82.7860571  52.0287747 134.9354212  83.0655645  52.0969959 133.4491173
  71.2657115  53.3396457 131.2691890  72.0597714  52.8446777 131.0674465
  70.5548808  52.8114320 130.9059596  76.0851960  55.7214552 135.6204258
  76.1388982  56.2905489 136.3881974  75.2166741  55.8916437 135.2558295
  67.5739879  47.4839538 127.3451643  66.6437467  47.4223994 127.5621605
  67.6697351  46.9615491 126.5488284  67.4925428  44.0094351 129.9329885
  67.7532245  44.9239684 129.8239045  68.3142600  43.5418794 130.0826498
  68.9650353  45.4232108 137.1028709  69.6373406  45.2149471 136.4541358
  68.1380140  45.2254194 136.6633942  83.2139614  52.1636159 136.6204043
  83.4075504  53.0681969 136.8663318  83.1140232  51.7043578 137.4542628
  74.8675925  42.0494049 139.1194370  74.2203840  42.7483999 139.0258847
  75.6376940  42.4830193 139.4870618  78.2754723  52.3142901 142.1944923
  78.1240229  52.0853453 141.2775007  78.2659402  53.2713503 142.2076268
  75.0440059  49.8874814 137.1791190  75.9732119  50.0385974 137.0060157
  74.6231089  49.9758835 136.3239836  73.8428391  53.9125479 134.9489728
  73.7039477  53.5444263 135.8215666  73.0542987  54.4273118 134.7773685
  74.4376543  59.0134575 126.2915264  74.6128299  58.5422618 127.1060887
  73.7509331  59.6400341 126.5196525  75.3933606  53.2907081 132.3378565
  75.0583439  53.2507851 133.2336215  74.8937552  52.6251797 131.8648976
  69.3677850  48.6974711 137.8631146  69.2297648  47.9654950 138.4642686
  70.2782774  48.6083611 137.5815334  78.3292798  50.6363116 122.6115625
  77.7121969  49.9109944 122.5148678  77.8609286  51.3972476 122.2682699
  71.9960151  48.4094671 137.3514826  72.7059769  47.7687863 137.3101445
  71.9529459  48.6607566 138.2741007  79.9846930  55.3462024 140.2721405
  79.9259476  54.6621244 139.6051988  80.3866448  56.0881014 139.8202031
  70.7089085  45.3959889 139.1710466  70.1726442  44.9450627 139.8232062
  70.1205793  45.5305797 138.4280930  69.0037628  62.1623938 133.0655124
  69.2434227  62.7942462 133.7434143  68.1606825  61.8111978 133.3520483
  70.1191344  44.8548540 121.7336929  69.2420810  44.7337341 121.3699176
  70.5949097  44.0634618 121.4815818  79.9864337  53.3101608 138.5035385
  79.0991116  52.9727530 138.6261784  80.5562888  52.5784639 138.7404150
  61.6393484  49.6425700 131.8278436  62.3264524  49.3287430 131.2399452
  61.4841613  50.5467064 131.5545688  66.4428206  44.5315896 136.2563460
  66.3586395  43.9241566 135.5213870  65.6210913  45.0224915 136.2572956
  73.5165490  57.9703060 135.4696628  73.4435662  58.7758032 135.9815933
  73.0742883  58.1695026 134.6444650  73.3055270  57.2074830 128.9799450
  72.5222792  57.7496511 129.0737674  74.0048015  57.7248810 129.3793691
  76.6151920  43.0169460 131.6233655  77.1120620  42.2639422 131.3034725
  75.8438902  43.0533776 131.0576864  84.4681677  48.7209825 133.2651947
  84.4571554  49.6034541 132.8945880  83.5999057  48.3681376 133.0706484
  75.9764174  57.8689894 137.6254787  76.6892146  58.5037359 137.5530688
  75.4854202  57.9653760 136.8094789  77.6981701  51.7741147 129.1972079
  76.7637979  51.8942609 129.0276783  77.8758369  50.8713614 128.9332088
  73.1986889  45.1586843 131.3505340  72.8284676  44.6057883 132.0386245
  73.6945981  44.5544976 130.7980340  81.0854252  47.6158466 129.7322113
  81.5514704  48.4486458 129.6582415  81.5361753  47.1503448 130.4367371
  71.0276087  55.6184338 138.4460358  71.7285547  56.2520821 138.5989752
  70.5571202  55.9599069 137.6855997  79.1530483  53.9602288 126.7308265
  79.4290327  53.8458882 127.6402139  78.2834982  53.5619772 126.6920438
  79.0570915  39.9839053 133.7713014  78.1433995  40.2143280 133.9395221
  79.4864016  40.0677497 134.6227046  78.8277373  48.1728945 136.2712908
  78.1748824  48.4204853 135.6165361  79.2057753  47.3593083 135.9375385
  75.7884547  58.2088638 130.3741078  75.9706942  57.3910294 130.8368831
  76.6117533  58.4256331 129.9365968  76.1226713  57.1356824 127.6356127
  76.6514479  56.6249278 127.0226289  76.3854932  56.8199354 128.5001660
  74.8764946  48.9148756 142.7578945  74.2005583  48.8142886 143.4281320
  75.6992580  48.7587970 143.2214942  66.6243805  55.1520693 135.3791460
  67.2097242  54.4064381 135.5119365  66.4268644  55.4624650 136.2628124
  69.4782461  58.1871940 130.3953903  68.8092836  58.6718068 129.9117943
  69.3395330  58.4341161 131.3097281  61.2161460  47.7226293 134.0995904
  61.2545560  47.1889884 134.8933022  60.7101753  47.1961499 133.4806881
  73.6187729  60.2215684 136.9936561  74.1706037  60.3847305 137.7585646
  73.9593923  60.8120122 136.3216586  68.5952222  42.5690834 137.5958446
  68.6593549  43.4305664 137.1835844  68.5319343  41.9564835 136.8630804
  68.0704495  44.6413966 141.2431480  68.6976534  44.2591043 141.8569004
  67.2132414  44.4228168 141.6087173  78.4698604  55.0476941 142.8485216
  79.0138508  55.6606900 142.3540170  77.8885448  55.6056520 143.3652229
  64.8470038  46.4490395 127.1749835  65.1423479  45.5401074 127.1216889
  63.9458073  46.4278135 126.8530837  76.7556116  58.1697659 133.9800243
  76.6307256  57.3687399 133.4711189  77.4135208  58.6643853 133.4914213
  68.3764285  44.5246392 133.1577384  67.6550870  45.1382360 133.0184857
  69.1657540  45.0604157 133.0794029  78.8191025  55.9706679 135.6079793
  77.8721360  55.8512031 135.5358120  79.1673798  55.0829177 135.6906055
  71.1790598  41.8600818 139.4318035  71.7025000  42.1063115 140.1944345
  70.9602932  42.6920853 139.0121173  66.5757879  44.1304493 127.2989160
  66.2470585  43.2501872 127.1164266  66.9297250  44.0752162 128.1865549
  75.8237458  55.7659396 131.8084146  75.6762421  54.8376103 131.9891716
  76.6490952  55.7879486 131.3241221  69.6899702  44.4177463 127.6664638
  70.0295775  44.9463384 126.9443246  70.1371823  44.7557869 128.4423204
  79.4271580  56.5887954 132.8949018  80.3518127  56.3830816 132.7573469
  79.2586883  56.3404355 133.8038360  72.3843143  42.8014513 137.1167706
  72.0439964  42.0022326 137.5188386  71.6782150  43.1016224 136.5444539
  73.0359615  39.8863826 135.5695029  73.8585684  39.4124304 135.4473919
  73.2797679  40.6654310 136.0693715  71.6767850  42.9152084 125.8657931
  72.3976212  43.2933337 125.3621647  71.0533154  43.6340961 125.9692908
  75.8198972  43.6197233 126.8016263  76.0362587  44.5021871 126.5005091
  75.3393040  43.2283447 126.0721905  70.5598194  46.5782946 133.3787007
  70.4142775  46.8923250 134.2711289  70.0823397  47.1967847 132.8257906
  72.4194577  43.5685494 133.4267897  72.4056146  42.6726588 133.0900195
  73.1367005  43.5756158 134.0606183  74.2720707  44.0022835 135.4721024
  74.0138485  44.9239905 135.4705355  73.7405748  43.6053269 136.1621489
  79.2166896  57.1073622 128.2511110  79.3903774  56.5420044 127.4984962
  79.7095787  57.9074517 128.0690600  65.0343856  49.1188291 136.3174669
  64.4897324  49.8948099 136.4494943  65.9123206  49.4659095 136.1593790
  71.8231473  42.4499875 128.6955467  71.9447384  41.5216521 128.8946355
  71.5333515  42.4638561 127.7833783  74.6922663  40.1354785 131.8322187
  74.7144360  40.1994118 130.8774167  75.1090722  39.2959294 132.0262693
  85.0706287  49.8710045 129.8701410  85.5137433  49.1217370 129.4720533
  84.1932798  49.8620181 129.4875142  80.2042069  56.4240386 125.3508008
  80.8992973  57.0447079 125.5695323  80.5465219  55.5735737 125.6260386
  65.8209878  48.2458187 139.2104825  65.0791614  48.3940822 139.7969456
  65.5002622  48.5066453 138.3471575  82.1033492  53.8740092 126.8795339
  82.6284816  54.2127364 126.1544659  82.0155844  52.9387107 126.6958473
  73.7653541  57.7874165 139.0085215  74.0740667  57.5423312 139.8807915
  74.5629023  57.9920804 138.5204086  73.7874153  59.9412075 131.2390592
  73.3479143  59.4488454 131.9323449  74.5382270  59.3985043 130.9982667
  66.2666492  56.1323616 131.2415220  67.0924511  55.8327388 130.8613864
  65.9160544  55.3631238 131.6905009  71.2348025  55.4850084 133.3112894
  70.6128034  54.8220789 133.0115122  71.9052892  55.5111216 132.6286541
  64.4675097  54.0509942 132.2004154  63.6307005  53.6232117 132.0188155
  64.4398742  54.2442386 133.1374945  71.3072552  43.9631872 142.9045400
  71.3560708  44.8393995 142.5223169  71.8495066  43.4209265 142.3317043
  81.7927398  54.5072995 142.1846537  81.0022942  54.4897134 141.6451036
  81.5560752  55.0461289 142.9395573  81.9125273  51.3565462 139.4979265
  81.9623278  51.1915469 140.4394788  81.8039196  50.4892721 139.1077146
  70.7961532  54.0354007 126.7871354  70.9449652  54.7189472 126.1338027
  71.6027975  54.0159097 127.3020810  79.2029035  47.3396390 140.8138572
  80.1038898  47.2002855 140.5222570  79.2777010  47.5050845 141.7536750
  73.5371841  44.7163245 139.6591758  72.6675150  45.0096811 139.3874347
  73.7731321  45.3003690 140.3799022  83.4143470  53.7762403 139.7421287
  83.1228278  54.1392384 140.5784748  82.8015601  53.0629412 139.5634619
  84.6139152  51.3415283 132.2623857  85.4486043  51.7805087 132.4261417
  84.7498281  50.8653936 131.4432103  81.6630658  48.8995018 138.2101345
  82.1384780  49.0922664 137.4020196  80.7396223  48.9554204 137.9644729
  68.5514165  50.0619185 127.7932423  68.3060207  49.1581515 127.9912633
  68.7210079  50.0636336 126.8511901  76.2410874  40.9342861 137.1757179
  76.7592818  41.6703888 136.8503667  75.8866007  41.2406855 138.0103938
  67.8209812  45.7947543 125.2918585  67.1279057  45.8691898 124.6358621
  67.5761564  45.0307886 125.8140102  76.4923469  37.3543144 132.6958075
  76.7725222  36.6866333 133.3218502  77.2774076  37.5472240 132.1832739
  74.2956937  56.5302138 124.2583102  73.7230904  57.1492325 123.8053574
  74.8689731  57.0801500 124.7923024  80.3632327  45.7760778 136.4429650
  81.3149750  45.8758876 136.4641875  80.1935777  44.9839047 136.9527735
  78.3846706  42.8616361 136.6289051  77.7896639  43.1421374 135.9335540
  78.0996403  43.3510262 137.4005793  77.5154197  56.8139288 125.3891684
  78.4484870  56.7484850 125.5924559  77.4277410  57.6495555 124.9306217
  80.1442214  56.1305158 122.3495632  80.0655845  55.7965022 123.2431389
  80.9651880  56.6226926 122.3487104  82.8420405  48.9966898 135.5571950
  82.8096725  48.0582898 135.7431634  83.4521028  49.0750934 134.8237775
  74.6803736  47.8662951 121.5999154  75.6262840  47.7369159 121.6687572
  74.3017981  47.1277613 122.0768582  82.9914893  45.7877941 135.6030233
  82.4753942  45.0036398 135.4160162  83.8754842  45.4596658 135.7676753
  80.6525620  39.5318957 131.5626046  80.4550441  39.2234045 132.4469378
  81.2625326  40.2580596 131.6923976  88.6596955  50.0582904 134.6977987
  89.3900343  49.7968193 135.2585690  88.0503900  49.3211626 134.7380055
  86.7412252  48.1990767 135.2952438  86.0145415  48.0646732 134.6868930
  86.3259539  48.5067596 136.1009156  74.5642428  51.9180697 143.0599811
  75.4845438  52.0959296 143.2539858  74.5292011  50.9736742 142.9079510
  72.8646653  45.7912927 121.5354039  71.9578108  45.4946040 121.6116753
  73.1422634  45.4942745 120.6688326  63.7824593  47.1119290 131.9853086
  63.4627378  46.2584599 131.6927460  63.2358021  47.3267869 132.7411053
  67.5604501  49.8281731 135.7022592  67.7790511  50.7598839 135.7210626
  67.9730275  49.4689706 136.4877396  74.4808719  40.3349817 127.6898281
  73.6709447  39.9896902 128.0653527  75.1693135  40.0257360 128.2785892
  76.4099267  39.4127864 129.3122577  76.9630305  39.8323317 129.9712600
  76.6469353  38.4863612 129.3545533  72.4332366  45.4014937 145.0925341
  72.3329093  46.3509294 145.0237432  72.2153908  45.0733176 144.2201411
  71.6345437  42.6499862 121.6766019  72.4964601  42.9754761 121.9361836
  71.8195782  41.8631358 121.1639084  63.6512853  50.7322202 133.9546207
  62.9576325  50.3176155 133.4416162  64.3985844  50.7742738 133.3579626
  79.7878074  41.5228389 128.8201242  79.2076743  42.1813193 128.4379294
  79.5214007  40.7005733 128.4088659  78.2381640  40.9233446 131.0222562
  78.7381419  41.0349981 130.2136881  78.8817248  40.6194499 131.6623370
  72.2963636  48.8312076 143.9090403  71.8130718  49.6312436 144.1154292
  72.3824575  48.8420021 142.9557847  65.5649596  50.6640456 131.8312222
  65.5420284  50.7628143 130.8794105  65.8750232  51.5105606 132.1529388
  68.2236974  52.7216611 135.9458837  69.1780227  52.6900553 135.8788768
  68.0249497  52.2607234 136.7609063  68.8136356  51.2917727 138.5129634
  69.6329245  51.7861805 138.5364472  69.0873163  50.3749695 138.4847202
  78.5702952  43.6828479 127.8757590  77.6828807  43.9678130 127.6577785
  78.9856941  43.5222242 127.0284867  81.9217488  43.7075000 131.5911929
  82.6977878  44.1971452 131.8636546  81.1965622  44.1333054 132.0483799
  84.3590047  44.4202619 132.6485870  84.9534537  44.1798355 131.9379178
  84.4316630  43.7009750 133.2759406  66.5787202  58.2636230 132.9629035
  66.4441670  57.5036631 132.3967033  66.1619265  58.9877130 132.4957823
  77.7146165  53.4473154 121.9705610  78.4182016  53.6523156 122.5863265
  76.9908814  54.0149916 122.2354693  78.5443976  49.1983015 128.0907880
  78.4879177  49.6551566 127.2515512  79.0972318  48.4373700 127.9130723
  82.3548782  44.9872747 128.9158000  82.0985716  44.5869383 129.7466207
  81.7301650  45.7016541 128.7908139  86.6661119  47.7268820 131.4229291
  86.1060677  47.7962009 132.1960853  86.0604623  47.5509805 130.7028787
  69.7356328  59.1605547 133.1747477  69.6188712  60.1050980 133.0726167
  68.9148775  58.8579109 133.5633276  79.6232863  53.8855683 124.0204070
  80.4578467  53.4536881 123.8381545  79.4617206  53.7137697 124.9480964
  79.2778755  50.3887796 125.3860409  79.2227559  50.2232068 124.4448853
  78.6524810  51.0963829 125.5422599  64.0671270  45.6255861 139.2121831
  64.7130134  45.1154815 139.7009057  63.8588421  46.3624542 139.7865257
  76.5924662  52.6936708 144.7113972  77.4615822  52.8677360 144.3500607
  76.1131414  53.5131125 144.5889701  72.5874880  39.8895905 124.9645728
  72.5753550  40.8337745 125.1213998  73.4798302  39.7066051 124.6705189
  70.7610842  59.8133809 136.3903406  71.6638089  59.8457419 136.7069901
  70.5348212  58.8834260 136.4049741  72.5164444  58.5664796 133.0513484
  71.5660075  58.5666657 132.9377857  72.8196931  57.8197530 132.5349519
  76.4027000  36.4838682 129.2191664  75.6359396  35.9297169 129.3648347
  76.8137705  36.5560551 130.0805816  68.4068761  42.7723478 143.3096846
  69.2700223  42.4160283 143.5200170  67.8334172  42.4337373 143.9972250
  88.2517138  64.4025334 134.1159247  88.8895548  64.2832081 133.4122587
  88.1337981  65.3506178 134.1747199  85.0606844  64.3552762 134.0520771
  84.7225356  64.2393827 133.1641306  85.9296612  63.9543927 134.0321777
  80.9193660  66.2088239 130.0417662  80.3558525  66.1178176 129.2733950
  80.8046055  65.3888143 130.5220155  85.5426627  65.5087614 140.0106977
  85.5315268  65.1140412 139.1387481  85.7047267  64.7753687 140.6040748
  78.4658092  67.7039430 132.8801883  79.2579384  67.3630255 132.4648182
  78.7054742  67.8134405 133.8004036  86.4993219  69.8759206 125.3532127
  85.8481198  70.4613287 124.9666141  87.2937581  70.4065401 125.4127165
  80.4248846  66.9648343 125.7519262  81.1979722  66.4177331 125.6132137
  80.7774245  67.8292593 125.9633723  82.2633888  68.2924726 138.9586161
  81.9723754  69.1970357 138.8432827  82.8990873  68.3341253 139.6730230
  83.1890095  65.6701574 135.5487520  83.7853667  65.4457597 134.8344483
  83.2465067  64.9286320 136.1512968  82.7615124  63.1241010 123.3837711
  83.0140644  62.6022531 122.6221174  81.8239683  62.9607155 123.4864395
  87.8058406  62.1276788 131.1912455  88.5921496  61.7096211 130.8402872
  88.0697111  63.0322880 131.3594103  87.9768484  67.5649638 125.8901112
  87.3414317  67.6384265 126.6022016  87.6465890  68.1543237 125.2120191
  93.2066834  62.0652021 132.0945433  93.9392005  61.4951238 132.3283263
  92.4506189  61.6773622 132.5351939  82.4811412  65.0269116 125.5862086
  82.3647670  64.3514019 126.2543171  82.5913672  64.5401489 124.7694239
  84.8242953  64.4879263 129.2908776  84.4601160  63.9609884 130.0021697
  85.6810069  64.0977732 129.1175261  90.7292254  55.7773595 136.5540042
  90.3975579  56.6469006 136.3301257  90.1337867  55.4609879 137.2334072
  84.4648440  59.5169162 124.2870124  84.6322843  60.3849399 124.6540595
  84.2745609  59.6796444 123.3631413  87.2223773  67.9786141 135.9535955
  86.9224496  68.8811180 135.8451762  86.8774833  67.7118324 136.8057107
  80.6736255  64.4299938 131.9872659  79.7486751  64.2976152 132.1950351
  80.9220668  65.2094157 132.4842601  90.6220917  60.4968681 133.6333392
  89.7137795  60.4284090 133.3392153  90.5708513  60.9740626 134.4615217
  84.4437661  61.9726820 125.2716791  84.3237286  62.4183871 126.1102271
  83.7490249  62.3212137 124.7130329  78.0345066  64.0733212 132.8216448
  78.1637447  64.3267691 133.7355860  77.3542517  64.6660920 132.5021103
  82.2044553  74.7430462 128.9206922  82.1268583  75.6938287 128.9995403
  81.6006197  74.3976334 129.5781849  84.6961783  61.9158327 141.5768289
  83.9195117  62.4752247 141.5671154  85.3352346  62.4015110 142.0983159
  92.4882564  58.6985120 135.4111266  91.8456944  58.9917653 134.7651060
  91.9837492  58.5838040 136.2164462  90.1422727  62.4448293 126.0997125
  91.0540583  62.6775680 125.9244823  89.6332374  63.0285337 125.5372204
  82.9508155  64.7243780 141.1386256  83.6922840  65.2628824 140.8621080
  82.2445141  65.3510069 141.2957808  88.4263495  66.8672921 139.7358418
  88.8346851  66.4255331 138.9913050  87.7040756  66.2925548 139.9892611
  84.7794565  61.8045528 137.1091975  85.6255760  62.2284941 137.2526624
  84.7193203  61.1479152 137.8030538  88.7492310  67.4274111 133.4910707
  88.1201172  67.5919826 132.7886774  88.3617972  67.8415721 134.2621671
  92.6281541  68.3628549 130.8455070  91.9432580  68.7427451 130.2952104
  92.7125391  68.9723876 131.5787018  87.9294010  59.4649896 138.7673148
  87.6854942  60.2191956 138.2307424  88.2053941  59.8435244 139.6020395
  89.8832473  66.0088508 137.4450414  90.0949368  66.6520268 136.7684795
  89.8362221  65.1750825 136.9772344  87.4858702  58.6206329 134.3486986
  86.6243181  58.9187583 134.6403724  87.5121137  58.8376728 133.4168019
  84.3020271  67.1648520 130.7560792  84.7658617  67.4436223 129.9665414
  84.0377070  66.2631964 130.5733882  81.1944352  66.7120001 133.6940555
  81.7645710  67.1407269 133.0558039  81.7852464  66.4302586 134.3924741
  83.2389157  63.2871672 127.5650357  83.9413201  63.7392716 128.0324283
  82.9069786  62.6455491 128.1930250  81.6869519  61.8783429 141.9401566
  81.0568180  62.5599709 142.1736963  81.5805607  61.7666510 140.9954704
  76.9814491  61.5455225 132.8667490  76.1913545  61.8012753 132.3907601
  77.4725739  62.3603562 132.9719531  90.9978301  68.8860464 135.6172771
  91.8195745  68.4840651 135.3355453  90.9940704  68.7828698 136.5688887
  78.9329237  61.9099804 129.8250967  78.1360400  62.0218498 130.3434463
  78.7054829  62.2486456 128.9591858  84.7634904  68.4344507 137.7733482
  84.8279337  68.8964914 138.6091653  84.0545828  67.8041872 137.9015791
  75.2652194  61.7985715 135.2982481  75.5160233  62.6832725 135.5640057
  75.8011743  61.6190317 134.5257573  99.0884294  65.2299212 131.9657743
  98.3348002  64.6606610 131.8101747  99.2231835  65.1961877 132.9128377
  84.4782922  70.1012615 127.6412462  84.3428597  70.9464150 128.0697310
  85.0192735  70.3031892 126.8778396  80.9650262  56.1804194 144.3026817
  80.5717207  55.6270393 144.9774461  81.7816402  56.4914773 144.6933335
  77.9312320  67.6188053 128.2140387  78.4436840  68.4131303 128.3645952
  78.5835032  66.9214343 128.1473989  79.7407204  70.7353809 130.2963140
  79.9173833  71.6571774 130.1084124  80.5364038  70.4212228 130.7257520
  83.8818223  57.5962073 141.8947074  84.6227936  58.1969227 141.8151536
  84.1136146  56.8539711 141.3365116  79.0259561  62.7818441 140.1725303
  78.9113076  61.8803698 140.4732402  78.1704078  63.0282137 139.8210120
  86.1051398  70.7236181 141.7712804  85.6615253  69.9372560 141.4533709
  86.7668612  70.9115332 141.1056695  80.8638520  72.2531983 136.2973483
  81.4145945  72.1249046 135.5250476  80.0249996  72.5526872 135.9468375
  88.2032637  71.0038981 139.7994205  88.1851112  71.8247862 139.3074474
  89.1252557  70.8793056 140.0244346  84.6605691  68.5183110 140.6417714
  85.1934028  67.7571399 140.4117022  84.1319772  68.2256762 141.3841868
  87.8275386  53.6243176 136.1711355  87.4839655  54.5144818 136.0950466
  88.1954348  53.4344834 135.3080940  75.8961236  65.9476707 128.9899958
  76.7336458  66.3573715 128.7733665  76.0739504  65.0076149 128.9600151
  87.7925668  63.6151787 124.6783791  87.2772292  64.3856392 124.9172178
  87.5202977  62.9416924 125.3016852  85.3772779  58.4601488 129.7369029
  84.5214376  58.0708339 129.5574668  85.7899731  58.5393449 128.8768814
  86.9071926  55.9947832 134.1360589  86.4036722  55.9577967 133.3228394
  87.2002533  56.9040574 134.1957245  83.1514812  56.0786561 133.1426770
  84.0167809  55.8829370 132.7832660  83.2192321  55.8496913 134.0696127
  92.7659943  66.3684142 126.6136964  91.9889385  66.0295302 126.1692126
  93.4451424  66.3736765 125.9391929  87.5811972  61.4878880 126.5043572
  87.2762107  61.8025029 127.3553715  88.5342414  61.5660299 126.5470905
  86.0258403  67.6469103 128.1536526  85.4979765  66.9121862 127.8409763
  85.5245906  68.4243779 127.9076494  91.0051249  65.8418123 133.2703572
  90.3474924  66.5317385 133.3583701  91.8091649  66.2314555 133.6137558
  80.7577131  58.3088769 130.5143137  81.3320883  58.0863951 129.7816330
  81.3448113  58.3777464 131.2671739  89.8156708  64.1962496 131.3207514
  90.3288590  64.8292488 131.8229223  90.4657932  63.5963692 130.9550874
  81.0846718  60.3393230 124.5339022  80.2484030  60.6767917 124.8548297
  80.9451488  60.2042210 123.5966159  83.0599799  55.1830018 129.2418207
  82.4064211  54.8679035 128.6174821  83.0180273  54.5605759 129.9678030
  84.1711004  65.4649313 121.1571499  83.2638065  65.2338567 121.3562648
  84.6682036  64.6686932 121.3445480  87.0779082  74.1746820 124.0768185
  86.4040781  74.4778517 124.6853143  87.4644904  74.9775901 123.7273642
  86.2937539  61.6711952 133.5665854  85.3760100  61.8926899 133.4087542
  86.7097683  61.7458262 132.7077562  87.0772587  63.0703367 128.6968535
  87.8244406  63.5824765 128.3875657  87.3464176  62.7487420 129.5572928
  85.3499237  65.5661908 125.6795489  84.4410456  65.2820941 125.7767959
  85.3794321  65.9860987 124.8198796  90.5818504  69.1768498 129.4486656
  90.1280832  68.3359407 129.5051847  89.9512471  69.8129896 129.7861437
  89.5251424  60.1060484 130.6787324  88.7874181  59.5937870 131.0097566
  89.7778198  59.6660865 129.8670601  89.0251444  71.0144994 130.3836475
  89.3174418  71.5750051 129.6648840  89.5350064  71.3073555 131.1389634
  89.6263051  52.8836736 131.2729093  89.9321928  52.0234099 130.9855008
  90.3515656  53.4754356 131.0728087  75.9187407  63.2867422 129.6610691
  75.7211807  62.6936783 128.9361758  75.3634071  62.9819632 130.3786630
  83.8984131  63.1790529 131.7805284  83.9532741  62.2264365 131.7047761
  83.0875333  63.3349968 132.2646583  85.0475325  67.1070652 123.0183567
  84.6094755  66.3906511 122.5589205  85.7885766  67.3346767 122.4568659
  81.8376491  61.7967588 129.5395663  81.0244357  62.0961759 129.9460855
  82.3335485  61.4023277 130.2570145  83.9885069  71.7925345 131.4729928
  83.9461248  72.0186192 130.5438460  84.9047768  71.5588720 131.6215729
  87.4350703  62.2609413 138.3710557  87.7900090  62.4880886 139.2305023
  88.0822834  62.5927790 137.7487812  93.1648440  65.3827849 129.0759886
  93.0266338  65.5729445 128.1481075  92.8084658  66.1447232 129.5327937
  81.3290566  59.3685944 135.1556898  81.9689945  59.2274703 134.4579861
  80.4968096  59.0820457 134.7795500  93.1917819  67.4504376 134.0871157
  93.6254326  67.3579665 134.9354212  93.9049400  67.4261876 133.4491173
  82.1050870  68.6688374 131.2691890  82.8991468  68.1738694 131.0674465
  81.3942562  68.1406237 130.9059596  86.9245714  71.0506470 135.6204258
  86.9782736  71.6197406 136.3881974  86.0560495  71.2208355 135.2558295
  78.4133633  62.8131456 127.3451643  77.4831221  62.7515912 127.5621605
  78.5091105  62.2907409 126.5488284  78.3319182  59.3386269 129.9329885
  78.5925999  60.2531602 129.8239045  79.1536355  58.8710711 130.0826498
  79.8044108  60.7524026 137.1028709  80.4767161  60.5441388 136.4541358
  78.9773894  60.5546112 136.6633942  94.0533369  67.4928076 136.6204043
  94.2469259  68.3973887 136.8663318  93.9533987  67.0335495 137.4542628
  85.7069680  57.3785967 139.1194370  85.0597595  58.0775917 139.0258847
  86.4770695  57.8122111 139.4870618  89.1148477  67.6434819 142.1944923
  88.9633984  67.4145371 141.2775007  89.1053157  68.6005421 142.2076268
  85.8833814  65.2166732 137.1791190  86.8125874  65.3677892 137.0060157
  85.4624844  65.3050753 136.3239836  84.6822146  69.2417396 134.9489728
  84.5433231  68.8736181 135.8215666  83.8936742  69.7565036 134.7773685
  85.2770298  74.3426493 126.2915264  85.4522053  73.8714536 127.1060887
  84.5903086  74.9692259 126.5196525  86.2327361  68.6198999 132.3378565
  85.8977193  68.5799769 133.2336215  85.7331306  67.9543715 131.8648976
  80.2071605  64.0266629 137.8631146  80.0691403  63.2946868 138.4642686
  81.1176528  63.9375529 137.5815334  89.1686552  65.9655033 122.6115625
  88.5515723  65.2401862 122.5148678  88.7003041  66.7264394 122.2682699
  82.8353905  63.7386588 137.3514826  83.5453524  63.0979781 137.3101445
  82.7923214  63.9899483 138.2741007  90.8240684  70.6753942 140.2721405
  90.7653230  69.9913162 139.6051988  91.2260202  71.4172932 139.8202031
  81.5482839  60.7251806 139.1710466  81.0120196  60.2742545 139.8232062
  80.9599548  60.8597715 138.4280930  79.8431383  77.4915856 133.0655124
  80.0827981  78.1234380 133.7434143  79.0000579  77.1403896 133.3520483
  80.9585098  60.1840458 121.7336929  80.0814565  60.0629258 121.3699176
  81.4342851  59.3926536 121.4815818  90.8258091  68.6393526 138.5035385
  89.9384870  68.3019447 138.6261784  91.3956642  67.9076557 138.7404150
  72.4787238  64.9717617 131.8278436  73.1658278  64.6579347 131.2399452
  72.3235367  65.8758982 131.5545688  77.2821961  59.8607814 136.2563460
  77.1980149  59.2533484 135.5213870  76.4604667  60.3516832 136.2572956
  84.3559245  73.2994978 135.4696628  84.2829416  74.1049949 135.9815933
  83.9136638  73.4986944 134.6444650  84.1449024  72.5366748 128.9799450
  83.3616546  73.0788428 129.0737674  84.8441770  73.0540728 129.3793691
  87.4545675  58.3461377 131.6233655  87.9514374  57.5931340 131.3034725
  86.6832656  58.3825694 131.0576864  95.3075432  64.0501743 133.2651947
  95.2965308  64.9326458 132.8945880  94.4392811  63.6973294 133.0706484
  86.8157928  73.1981812 137.6254787  87.5285900  73.8329277 137.5530688
  86.3247957  73.2945678 136.8094789  88.5375455  67.1033065 129.1972079
  87.6031734  67.2234527 129.0276783  88.7152124  66.2005531 128.9332088
  84.0380643  60.4878760 131.3505340  83.6678431  59.9349801 132.0386245
  84.5339736  59.8836894 130.7980340  91.9248007  62.9450384 129.7322113
  92.3908459  63.7778376 129.6582415  92.3755507  62.4795366 130.4367371
  81.8669842  70.9476255 138.4460358  82.5679301  71.5812738 138.5989752
  81.3964957  71.2890987 137.6855997  89.9924238  69.2894205 126.7308265
  90.2684082  69.1750800 127.6402139  89.1228736  68.8911690 126.6920438
  89.8964669  55.3130971 133.7713014  88.9827749  55.5435198 133.9395221
  90.3257771  55.3969415 134.6227046  89.6671128  63.5020863 136.2712908
  89.0142578  63.7496770 135.6165361  90.0451508  62.6885001 135.9375385
  86.6278302  73.5380556 130.3741078  86.8100696  72.7202212 130.8368831
  87.4511288  73.7548248 129.9365968  86.9620467  72.4648741 127.6356127
  87.4908234  71.9541196 127.0226289  87.2248687  72.1491271 128.5001660
  85.7158701  64.2440674 142.7578945  85.0399338  64.1434803 143.4281320
  86.5386335  64.0879888 143.2214942  77.4637560  70.4812611 135.3791460
  78.0490997  69.7356298 135.5119365  77.2662398  70.7916567 136.2628124
  80.3176215  73.5163858 130.3953903  79.6486590  74.0009986 129.9117943
  80.1789085  73.7633078 131.3097281  72.0555215  63.0518211 134.0995904
  72.0939314  62.5181801 134.8933022  71.5495507  62.5253416 133.4806881
  84.4581484  75.5507601 136.9936561  85.0099792  75.7139223 137.7585646
  84.7987677  76.1412039 136.3216586  79.4345977  57.8982751 137.5958446
  79.4987303  58.7597582 137.1835844  79.3713097  57.2856753 136.8630804
  78.9098249  59.9705884 141.2431480  79.5370288  59.5882961 141.8569004
  78.0526168  59.7520086 141.6087173  89.3092358  70.3768859 142.8485216
  89.8532262  70.9898817 142.3540170  88.7279203  70.9348437 143.3652229
  75.6863792  61.7782313 127.1749835  75.9817233  60.8692991 127.1216889
  74.7851828  61.7570052 126.8530837  87.5949871  73.4989577 133.9800243
  87.4701010  72.6979317 133.4711189  88.2528962  73.9935770 133.4914213
  79.2158039  59.8538309 133.1577384  78.4944625  60.4674277 133.0184857
  80.0051295  60.3896074 133.0794029  89.6584779  71.2998597 135.6079793
  88.7115115  71.1803948 135.5358120  90.0067552  70.4121095 135.6906055
  82.0184353  57.1892736 139.4318035  82.5418755  57.4355033 140.1944345
  81.7996686  58.0212771 139.0121173  77.4151634  59.4596411 127.2989160
  77.0864340  58.5793789 127.1164266  77.7691004  59.4044079 128.1865549
  86.6631213  71.0951313 131.8084146  86.5156175  70.1668021 131.9891716
  87.4884706  71.1171404 131.3241221  80.5293457  59.7469380 127.6664638
  80.8689529  60.2755302 126.9443246  80.9765577  60.0849786 128.4423204
  90.2665334  71.9179872 132.8949018  91.1911882  71.7122733 132.7573469
  90.0980638  71.6696273 133.8038360  83.2236898  58.1306431 137.1167706
  82.8833718  57.3314244 137.5188386  82.5175904  58.4308142 136.5444539
  83.8753370  55.2155743 135.5695029  84.6979439  54.7416222 135.4473919
  84.1191433  55.9946227 136.0693715  82.5161604  58.2444002 125.8657931
  83.2369967  58.6225255 125.3621647  81.8926908  58.9632879 125.9692908
  86.6592727  58.9489151 126.8016263  86.8756341  59.8313789 126.5005091
  86.1786794  58.5575364 126.0721905  81.3991948  61.9074864 133.3787007
  81.2536529  62.2215167 134.2711289  80.9217152  62.5259764 132.8257906
  83.2588331  58.8977412 133.4267897  83.2449900  58.0018505 133.0900195
  83.9760759  58.9048076 134.0606183  85.1114462  59.3314752 135.4721024
  84.8532240  60.2531823 135.4705355  84.5799502  58.9345187 136.1621489
  90.0560651  72.4365539 128.2511110  90.2297528  71.8711962 127.4984962
  90.5489542  73.2366434 128.0690600  75.8737611  64.4480209 136.3174669
  75.3291079  65.2240017 136.4494943  76.7516960  64.7951013 136.1593790
  82.6625227  57.7791792 128.6955467  82.7841138  56.8508439 128.8946355
  82.3727270  57.7930478 127.7833783  85.5316418  55.4646703 131.8322187
  85.5538114  55.5286036 130.8774167  85.9484477  54.6251211 132.0262693
  95.9100042  65.2001962 129.8701410  96.3531188  64.4509288 129.4720533
  95.0326552  65.1912099 129.4875142  91.0435823  71.7532304 125.3508008
  91.7386728  72.3738997 125.5695323  91.3858973  70.9027655 125.6260386
  76.6603632  63.5750105 139.2104825  75.9185368  63.7232740 139.7969456
  76.3396377  63.8358370 138.3471575  92.9427246  69.2032009 126.8795339
  93.4678570  69.5419282 126.1544659  92.8549599  68.2679025 126.6958473
  84.6047295  73.1166083 139.0085215  84.9134421  72.8715230 139.8807915
  85.4022777  73.3212722 138.5204086  84.6267907  75.2703993 131.2390592
  84.1872897  74.7780371 131.9323449  85.3776024  74.7276960 130.9982667
  77.1060246  71.4615534 131.2415220  77.9318266  71.1619305 130.8613864
  76.7554298  70.6923156 131.6905009  82.0741779  70.8142002 133.3112894
  81.4521789  70.1512707 133.0115122  82.7446646  70.8403134 132.6286541
  75.3068851  69.3801860 132.2004154  74.4700759  68.9524034 132.0188155
  75.2792497  69.5734303 133.1374945  82.1466307  59.2923790 142.9045400
  82.1954462  60.1685913 142.5223169  82.6888821  58.7501183 142.3317043
  92.6321152  69.8364913 142.1846537  91.8416696  69.8189052 141.6451036
  92.3954507  70.3753207 142.9395573  92.7519027  66.6857379 139.4979265
  92.8017032  66.5207387 140.4394788  92.6432951  65.8184638 139.1077146
  81.6355286  69.3645925 126.7871354  81.7843406  70.0481389 126.1338027
  82.4421730  69.3451015 127.3020810  90.0422790  62.6688307 140.8138572
  90.9432653  62.5294772 140.5222570  90.1170764  62.8342762 141.7536750
  84.3765595  60.0455162 139.6591758  83.5068905  60.3388728 139.3874347
  84.6125076  60.6295607 140.3799022  94.2537224  69.1054321 139.7421287
  93.9622033  69.4684301 140.5784748  93.6409356  68.3921329 139.5634619
  95.4532907  66.6707201 132.2623857  96.2879798  67.1097005 132.4261417
  95.5892035  66.1945854 131.4432103  92.5024413  64.2286936 138.2101345
  92.9778534  64.4214582 137.4020196  91.5789978  64.2846121 137.9644729
  79.3907919  65.3911103 127.7932423  79.1453961  64.4873433 127.9912633
  79.5603834  65.3928253 126.8511901  87.0804629  56.2634779 137.1757179
  87.5986573  56.9995806 136.8503667  86.7259762  56.5698772 138.0103938
  78.6603567  61.1239460 125.2918585  77.9672812  61.1983815 124.6358621
  78.4155319  60.3599804 125.8140102  87.3317223  52.6835062 132.6958075
  87.6118977  52.0158251 133.3218502  88.1167830  52.8764157 132.1832739
  85.1350692  71.8594056 124.2583102  84.5624659  72.4784243 123.8053574
  85.7083485  72.4093417 124.7923024  91.2026082  61.1052696 136.4429650
  92.1543504  61.2050793 136.4641875  91.0329532  60.3130964 136.9527735
  89.2240461  58.1908279 136.6289051  88.6290393  58.4713292 135.9335540
  88.9390158  58.6802180 137.4005793  88.3547951  72.1431206 125.3891684
  89.2878625  72.0776767 125.5924559  88.2671164  72.9787473 124.9306217
  90.9835968  71.4597076 122.3495632  90.9049600  71.1256940 123.2431389
  91.8045635  71.9518844 122.3487104  93.6814159  64.3258815 135.5571950
  93.6490479  63.3874816 135.7431634  94.2914783  64.4042852 134.8237775
  85.5197490  63.1954868 121.5999154  86.4656595  63.0661076 121.6687572
  85.1411735  62.4569530 122.0768582  93.8308648  61.1169859 135.6030233
  93.3147696  60.3328315 135.4160162  94.7148596  60.7888575 135.7676753
  91.4919375  54.8610874 131.5626046  91.2944196  54.5525963 132.4469378
  92.1019080  55.5872513 131.6923976  99.4990709  65.3874822 134.6977987
 100.2294098  65.1260110 135.2585690  98.8897655  64.6503544 134.7380055
  97.5806006  63.5282685 135.2952438  96.8539170  63.3938650 134.6868930
  97.1653293  63.8359513 136.1009156  85.4036183  67.2472614 143.0599811
  86.3239192  67.4251213 143.2539858  85.3685766  66.3028660 142.9079510
  83.7040407  61.1204845 121.5354039  82.7971863  60.8237957 121.6116753
  83.9816388  60.8234663 120.6688326  74.6218348  62.4411208 131.9853086
  74.3021132  61.5876516 131.6927460  74.0751776  62.6559786 132.7411053
  78.3998255  65.1573649 135.7022592  78.6184265  66.0890757 135.7210626
  78.8124029  64.7981623 136.4877396  85.3202473  55.6641734 127.6898281
  84.5103201  55.3188819 128.0653527  86.0086890  55.3549278 128.2785892
  87.2493021  54.7419781 129.3122577  87.8024060  55.1615235 129.9712600
  87.4863108  53.8155529 129.3545533  83.2726121  60.7306855 145.0925341
  83.1722847  61.6801212 145.0237432  83.0547663  60.4025094 144.2201411
  82.4739192  57.9791780 121.6766019  83.3358356  58.3046678 121.9361836
  82.6589536  57.1923276 121.1639084  74.4906608  66.0614120 133.9546207
  73.7970079  65.6468072 133.4416162  75.2379599  66.1034656 133.3579626
  90.6271828  56.8520306 128.8201242  90.0470497  57.5105110 128.4379294
  90.3607761  56.0297651 128.4088659  89.0775395  56.2525364 131.0222562
  89.5775173  56.3641899 130.2136881  89.7211003  55.9486417 131.6623370
  83.1357391  64.1603994 143.9090403  82.6524472  64.9604354 144.1154292
  83.2218330  64.1711939 142.9557847  76.4043350  65.9932373 131.8312222
  76.3814038  66.0920061 130.8794105  76.7143987  66.8397524 132.1529388
  79.0630728  68.0508528 135.9458837  80.0173982  68.0192471 135.8788768
  78.8643252  67.5899152 136.7609063  79.6530110  66.6209644 138.5129634
  80.4722999  67.1153723 138.5364472  79.9266918  65.7041613 138.4847202
  89.4096706  59.0120397 127.8757590  88.5222561  59.2970047 127.6577785
  89.8250695  58.8514160 127.0284867  92.7611243  59.0366918 131.5911929
  93.5371633  59.5263370 131.8636546  92.0359377  59.4624972 132.0483799
  95.1983801  59.7494537 132.6485870  95.7928292  59.5090273 131.9379178
  95.2710385  59.0301668 133.2759406  77.4180957  73.5928148 132.9629035
  77.2835425  72.8328549 132.3967033  77.0013019  74.3169048 132.4957823
  88.5539920  68.7765071 121.9705610  89.2575770  68.9815074 122.5863265
  87.8302569  69.3441833 122.2354693  89.3837730  64.5274933 128.0907880
  89.3272932  64.9843484 127.2515512  89.9366073  63.7665617 127.9130723
  93.1942536  60.3164665 128.9158000  92.9379470  59.9161300 129.7466207
  92.5695404  61.0308458 128.7908139  97.5054874  63.0560738 131.4229291
  96.9454432  63.1253927 132.1960853  96.8998377  62.8801722 130.7028787
  80.5750083  74.4897465 133.1747477  80.4582467  75.4342897 133.0726167
  79.7542529  74.1871026 133.5633276  90.4626617  69.2147601 124.0204070
  91.2972221  68.7828799 123.8381545  90.3010960  69.0429614 124.9480964
  90.1172509  65.7179714 125.3860409  90.0621313  65.5523985 124.4448853
  89.4918565  66.4255747 125.5422599  74.9065024  60.9547778 139.2121831
  75.5523888  60.4446732 139.7009057  74.6982176  61.6916460 139.7865257
  87.4318417  68.0228626 144.7113972  88.3009576  68.1969278 144.3500607
  86.9525168  68.8423043 144.5889701  83.4268635  55.2187823 124.9645728
  83.4147305  56.1629663 125.1213998  84.3192057  55.0357968 124.6705189
  81.6004597  75.1425727 136.3903406  82.5031844  75.1749337 136.7069901
  81.3741967  74.2126178 136.4049741  83.3558199  73.8956713 133.0513484
  82.4053830  73.8958575 132.9377857  83.6590685  73.1489448 132.5349519
  87.2420754  51.8130600 129.2191664  86.4753150  51.2589086 129.3648347
  87.6531459  51.8852468 130.0805816  79.2462515  58.1015395 143.3096846
  80.1093977  57.7452200 143.5200170  78.6727926  57.7629290 143.9972250
  99.0910892  79.7317252 134.1159247  99.7289302  79.6123999 133.4122587
  98.9731735  80.6798096 134.1747199  95.9000599  79.6844680 134.0520771
  95.5619110  79.5685745 133.1641306  96.7690367  79.2835845 134.0321777
  91.7587414  81.5380156 130.0417662  91.1952279  81.4470093 129.2733950
  91.6439809  80.7180061 130.5220155  96.3820382  80.8379532 140.0106977
  96.3709022  80.4432330 139.1387481  96.5441021  80.1045604 140.6040748
  89.3051846  83.0331348 132.8801883  90.0973138  82.6922172 132.4648182
  89.5448496  83.1426323 133.8004036  97.3386973  85.2051124 125.3532127
  96.6874953  85.7905204 124.9666141  98.1331336  85.7357319 125.4127165
  91.2642600  82.2940261 125.7519262  92.0373476  81.7469248 125.6132137
  91.6167999  83.1584510 125.9633723  93.1027643  83.6216643 138.9586161
  92.8117509  84.5262274 138.8432827  93.7384627  83.6633171 139.6730230
  94.0283850  80.9993492 135.5487520  94.6247422  80.7749514 134.8344483
  94.0858821  80.2578237 136.1512968  93.6008878  78.4532927 123.3837711
  93.8534399  77.9314448 122.6221174  92.6633437  78.2899073 123.4864395
  98.6452161  77.4568706 131.1912455  99.4315250  77.0388129 130.8402872
  98.9090865  78.3614798 131.3594103  98.8162238  82.8941556 125.8901112
  98.1808071  82.9676182 126.6022016  98.4859645  83.4835155 125.2120191
 104.0460588  77.3943939 132.0945433 104.7785760  76.8243156 132.3283263
 103.2899944  77.0065539 132.5351939  93.3205167  80.3561033 125.5862086
  93.2041425  79.6805937 126.2543171  93.4307427  79.8693407 124.7694239
  95.6636708  79.8171180 129.2908776  95.2994915  79.2901801 130.0021697
  96.5203824  79.4269649 129.1175261 101.5686008  71.1065513 136.5540042
 101.2369333  71.9760924 136.3301257 100.9731622  70.7901797 137.2334072
  95.3042195  74.8461080 124.2870124  95.4716597  75.7141316 124.6540595
  95.1139364  75.0088362 123.3631413  98.0617528  83.3078059 135.9535955
  97.7618251  84.2103098 135.8451762  97.7168587  83.0410242 136.8057107
  91.5130009  79.7591856 131.9872659  90.5880506  79.6268070 132.1950351
  91.7614423  80.5386075 132.4842601 101.4614672  75.8260599 133.6333392
 100.5531549  75.7576007 133.3392153 101.4102267  76.3032544 134.4615217
  95.2831416  77.3018737 125.2716791  95.1631041  77.7475788 126.1102271
  94.5884004  77.6504055 124.7130329  88.8738820  79.4025129 132.8216448
  89.0031202  79.6559608 133.7355860  88.1936272  79.9952837 132.5021103
  93.0438308  90.0722379 128.9206922  92.9662337  91.0230204 128.9995403
  92.4399951  89.7268252 129.5781849  95.5355537  77.2450245 141.5768289
  94.7588872  77.8044165 141.5671154  96.1746101  77.7307028 142.0983159
 103.3276318  74.0277037 135.4111266 102.6850698  74.3209571 134.7651060
 102.8231247  73.9129958 136.2164462 100.9816482  77.7740211 126.0997125
 101.8934338  78.0067597 125.9244823 100.4726129  78.3577255 125.5372204
  93.7901910  80.0535698 141.1386256  94.5316594  80.5920742 140.8621080
  93.0838895  80.6801987 141.2957808  99.2657249  82.1964838 139.7358418
  99.6740605  81.7547249 138.9913050  98.5434511  81.6217466 139.9892611
  95.6188319  77.1337445 137.1091975  96.4649515  77.5576859 137.2526624
  95.5586957  76.4771070 137.8030538  99.5886064  82.7566029 133.4910707
  98.9594926  82.9211743 132.7886774  99.2011726  83.1707639 134.2621671
 103.4675296  83.6920467 130.8455070 102.7826334  84.0719368 130.2952104
 103.5519145  84.3015794 131.5787018  98.7687765  74.7941814 138.7673148
  98.5248697  75.5483874 138.2307424  99.0447695  75.1727161 139.6020395
 100.7226228  81.3380426 137.4450414 100.9343123  81.9812186 136.7684795
 100.6755976  80.5042743 136.9772344  98.3252457  73.9498247 134.3486986
  97.4636936  74.2479500 134.6403724  98.3514891  74.1668646 133.4168019
  95.1414026  82.4940437 130.7560792  95.6052371  82.7728140 129.9665414
  94.8770824  81.5923882 130.5733882  92.0338107  82.0411919 133.6940555
  92.6039464  82.4699187 133.0558039  92.6246219  81.7594503 134.3924741
  94.0782912  78.6163590 127.5650357  94.7806955  79.0684633 128.0324283
  93.7463540  77.9747408 128.1930250  92.5263274  77.2075346 141.9401566
  91.8961934  77.8891627 142.1736963  92.4199361  77.0958428 140.9954704
  87.8208246  76.8747142 132.8667490  87.0307300  77.1304671 132.3907601
  88.3119493  77.6895480 132.9719531 101.8372055  84.2152381 135.6172771
 102.6589499  83.8132569 135.3355453 101.8334458  84.1120616 136.5688887
  89.7722991  77.2391721 129.8250967  88.9754155  77.3510416 130.3434463
  89.5448584  77.5778374 128.9591858  95.6028659  83.7636425 137.7733482
  95.6673091  84.2256832 138.6091653  94.8939583  83.1333790 137.9015791
  86.1045949  77.1277633 135.2982481  86.3553987  78.0124643 135.5640057
  86.6405497  76.9482234 134.5257573 109.9278049  80.5591130 131.9657743
 109.1741757  79.9898528 131.8101747 110.0625590  80.5253794 132.9128377
  95.3176677  85.4304532 127.6412462  95.1822351  86.2756068 128.0697310
  95.8586489  85.6323810 126.8778396  91.8044016  71.5096112 144.3026817
  91.4110962  70.9562311 144.9774461  92.6210157  71.8206691 144.6933335
  88.7706074  82.9479970 128.2140387  89.2830595  83.7423220 128.3645952
  89.4228787  82.2506261 128.1473989  90.5800959  86.0645727 130.2963140
  90.7567587  86.9863691 130.1084124  91.3757792  85.7504146 130.7257520
  94.7211977  72.9253991 141.8947074  95.4621691  73.5261144 141.8151536
  94.9529900  72.1831629 141.3365116  89.8653315  78.1110358 140.1725303
  89.7506830  77.2095616 140.4732402  89.0097833  78.3574055 139.8210120
  96.9445153  86.0528099 141.7712804  96.5009007  85.2664477 141.4533709
  97.6062367  86.2407249 141.1056695  91.7032274  87.5823900 136.2973483
  92.2539699  87.4540964 135.5250476  90.8643750  87.8818789 135.9468375
  99.0426391  86.3330899 139.7994205  99.0244866  87.1539780 139.3074474
  99.9646311  86.2084974 140.0244346  95.4999445  83.8475028 140.6417714
  96.0327782  83.0863316 140.4117022  94.9713526  83.5548680 141.3841868
  98.6669140  68.9535094 136.1711355  98.3233410  69.8436736 136.0950466
  99.0348103  68.7636752 135.3080940  86.7354991  81.2768625 128.9899958
  87.5730213  81.6865633 128.7733665  86.9133258  80.3368067 128.9600151
  98.6319423  78.9443705 124.6783791  98.1166046  79.7148310 124.9172178
  98.3596731  78.2708841 125.3016852  96.2166534  73.7893406 129.7369029
  95.3608130  73.4000256 129.5574668  96.6293486  73.8685367 128.8768814
  97.7465681  71.3239749 134.1360589  97.2430476  71.2869884 133.3228394
  98.0396287  72.2332492 134.1957245  93.9908566  71.4078479 133.1426770
  94.8561563  71.2121288 132.7832660  94.0586075  71.1788831 134.0696127
 103.6053697  81.6976060 126.6136964 102.8283140  81.3587219 126.1692126
 104.2845178  81.7028683 125.9391929  98.4205726  76.8170797 126.5043572
  98.1155862  77.1316946 127.3553715  99.3736168  76.8952217 126.5470905
  96.8652158  82.9761021 128.1536526  96.3373519  82.2413780 127.8409763
  96.3639661  83.7535697 127.9076494 101.8445004  81.1710041 133.2703572
 101.1868678  81.8609302 133.3583701 102.6485403  81.5606473 133.6137558
  91.5970886  73.6380687 130.5143137  92.1714637  73.4155868 129.7816330
  92.1841868  73.7069381 131.2671739 100.6550463  79.5254414 131.3207514
 101.1682344  80.1584406 131.8229223 101.3051687  78.9255609 130.9550874
  91.9240473  75.6685148 124.5339022  91.0877785  76.0059834 124.8548297
  91.7845242  75.5334128 123.5966159  93.8993553  70.5121936 129.2418207
  93.2457966  70.1970953 128.6174821  93.8574027  69.8897676 129.9678030
  95.0104758  80.7941231 121.1571499  94.1031820  80.5630484 121.3562648
  95.5075790  79.9978850 121.3445480  97.9172837  89.5038738 124.0768185
  97.2434536  89.8070435 124.6853143  98.3038659  90.3067818 123.7273642
  97.1331294  77.0003869 133.5665854  96.2153855  77.2218816 133.4087542
  97.5491437  77.0750180 132.7077562  97.9166341  78.3995285 128.6968535
  98.6638160  78.9116682 128.3875657  98.1857931  78.0779338 129.5572928
  96.1892992  80.8953826 125.6795489  95.2804211  80.6112859 125.7767959
  96.2188075  81.3152904 124.8198796 101.4212259  84.5060415 129.4486656
 100.9674586  83.6651325 129.5051847 100.7906226  85.1421814 129.7861437
 100.3645179  75.4352401 130.6787324  99.6267935  74.9229787 131.0097566
 100.6171952  74.9952783 129.8670601  99.8645198  86.3436912 130.3836475
 100.1568173  86.9041969 129.6648840 100.3743819  86.6365473 131.1389634
 100.4656806  68.2128653 131.2729093 100.7715683  67.3526017 130.9855008
 101.1909411  68.8046273 131.0728087  86.7581162  78.6159340 129.6610691
  86.5605562  78.0228701 128.9361758  86.2027826  78.3111550 130.3786630
  94.7377886  78.5082446 131.7805284  94.7926495  77.5556283 131.7047761
  93.9269088  78.6641885 132.2646583  95.8869079  82.4362569 123.0183567
  95.4488509  81.7198428 122.5589205  96.6279520  82.6638684 122.4568659
  92.6770245  77.1259506 129.5395663  91.8638111  77.4253677 129.9460855
  93.1729240  76.7315195 130.2570145  94.8278823  87.1217263 131.4729928
  94.7855002  87.3478109 130.5438460  95.7441522  86.8880638 131.6215729
  98.2744457  77.5901331 138.3710557  98.6293845  77.8172804 139.2305023
  98.9216588  77.9219707 137.7487812 104.0042194  80.7119766 129.0759886
 103.8660093  80.9021362 128.1481075 103.6478413  81.4739149 129.5327937
  92.1684320  74.6977862 135.1556898  92.8083700  74.5566621 134.4579861
  91.3361851  74.4112375 134.7795500 104.0311574  82.7796293 134.0871157
 104.4648080  82.6871583 134.9354212 104.7443154  82.7553794 133.4491173
  92.9444624  83.9980292 131.2691890  93.7385223  83.5030612 131.0674465
  92.2336317  83.4698155 130.9059596  97.7639469  86.3798388 135.6204258
  97.8176491  86.9489324 136.3881974  96.8954250  86.5500273 135.2558295
  89.2527388  78.1423374 127.3451643  88.3224976  78.0807829 127.5621605
  89.3484860  77.6199327 126.5488284  89.1712937  74.6678187 129.9329885
  89.4319754  75.5823520 129.8239045  89.9930109  74.2002629 130.0826498
  90.6437862  76.0815944 137.1028709  91.3160915  75.8733306 136.4541358
  89.8167649  75.8838030 136.6633942 104.8927123  82.8219994 136.6204043
 105.0863013  83.7265805 136.8663318 104.7927741  82.3627413 137.4542628
  96.5463434  72.7077885 139.1194370  95.8991349  73.4067834 139.0258847
  97.3164449  73.1414029 139.4870618  99.9542232  82.9726737 142.1944923
  99.8027738  82.7437289 141.2775007  99.9446911  83.9297338 142.2076268
  96.7227568  80.5458650 137.1791190  97.6519628  80.6969809 137.0060157
  96.3018598  80.6342670 136.3239836  95.5215900  84.5709314 134.9489728
  95.3826986  84.2028098 135.8215666  94.7330496  85.0856953 134.7773685
  96.1164052  89.6718410 126.2915264  96.2915808  89.2006454 127.1060887
  95.4296840  90.2984177 126.5196525  97.0721115  83.9490917 132.3378565
  96.7370948  83.9091687 133.2336215  96.5725061  83.2835633 131.8648976
  91.0465359  79.3558547 137.8631146  90.9085157  78.6238786 138.4642686
  91.9570283  79.2667447 137.5815334 100.0080307  81.2946951 122.6115625
  99.3909478  80.5693779 122.5148678  99.5396795  82.0556311 122.2682699
  93.6747660  79.0678506 137.3514826  94.3847278  78.4271698 137.3101445
  93.6316968  79.3191401 138.2741007 101.6634439  86.0045859 140.2721405
 101.6046985  85.3205080 139.6051988 102.0653957  86.7464849 139.8202031
  92.3876594  76.0543724 139.1710466  91.8513951  75.6034462 139.8232062
  91.7993302  76.1889633 138.4280930  90.6825137  92.8207773 133.0655124
  90.9221736  93.4526297 133.7434143  89.8394334  92.4695813 133.3520483
  91.7978853  75.5132375 121.7336929  90.9208319  75.3921176 121.3699176
  92.2736606  74.7218454 121.4815818 101.6651846  83.9685443 138.5035385
 100.7778625  83.6311365 138.6261784 102.2350397  83.2368475 138.7404150
  83.3180993  80.3009535 131.8278436  84.0052033  79.9871265 131.2399452
  83.1629122  81.2050900 131.5545688  88.1215715  75.1899732 136.2563460
  88.0373904  74.5825401 135.5213870  87.2998422  75.6808750 136.2572956
  95.1952999  88.6286896 135.4696628  95.1223171  89.4341867 135.9815933
  94.7530392  88.8278861 134.6444650  94.9842779  87.8658666 128.9799450
  94.2010301  88.4080346 129.0737674  95.6835524  88.3832645 129.3793691
  98.2939429  73.6753295 131.6233655  98.7908129  72.9223257 131.3034725
  97.5226411  73.7117612 131.0576864 106.1469186  79.3793661 133.2651947
 106.1359063  80.2618376 132.8945880 105.2786566  79.0265212 133.0706484
  97.6551683  88.5273730 137.6254787  98.3679655  89.1621195 137.5530688
  97.1641711  88.6237596 136.8094789  99.3769210  82.4324982 129.1972079
  98.4425488  82.5526445 129.0276783  99.5545878  81.5297449 128.9332088
  94.8774398  75.8170678 131.3505340  94.5072185  75.2641719 132.0386245
  95.3733490  75.2128812 130.7980340 102.7641761  78.2742302 129.7322113
 103.2302213  79.1070293 129.6582415 103.2149262  77.8087283 130.4367371
  92.7063596  86.2768173 138.4460358  93.4073056  86.9104656 138.5989752
  92.2358711  86.6182905 137.6855997 100.8317992  84.6186123 126.7308265
 101.1077836  84.5042718 127.6402139  99.9622491  84.2203608 126.6920438
 100.7358424  70.6422889 133.7713014  99.8221504  70.8727115 133.9395221
 101.1651525  70.7261333 134.6227046 100.5064882  78.8312781 136.2712908
  99.8536333  79.0788688 135.6165361 100.8845262  78.0176919 135.9375385
  97.4672056  88.8672474 130.3741078  97.6494451  88.0494130 130.8368831
  98.2905042  89.0840166 129.9365968  97.8014222  87.7940659 127.6356127
  98.3301988  87.2833114 127.0226289  98.0642441  87.4783189 128.5001660
  96.5552455  79.5732592 142.7578945  95.8793092  79.4726721 143.4281320
  97.3780089  79.4171805 143.2214942  88.3031314  85.8104528 135.3791460
  88.8884751  85.0648216 135.5119365  88.1056153  86.1208485 136.2628124
  91.1569970  88.8455776 130.3953903  90.4880345  89.3301903 129.9117943
  91.0182839  89.0924996 131.3097281  82.8948969  78.3810128 134.0995904
  82.9333069  77.8473719 134.8933022  82.3889262  77.8545334 133.4806881
  95.2975238  90.8799519 136.9936561  95.8493546  91.0431141 137.7585646
  95.6381432  91.4703957 136.3216586  90.2739731  73.2274669 137.5958446
  90.3381058  74.0889500 137.1835844  90.2106852  72.6148671 136.8630804
  89.7492004  75.2997801 141.2431480  90.3764043  74.9174879 141.8569004
  88.8919923  75.0812003 141.6087173 100.1486113  85.7060777 142.8485216
 100.6926016  86.3190735 142.3540170  99.5672957  86.2640355 143.3652229
  86.5257547  77.1074231 127.1749835  86.8210988  76.1984909 127.1216889
  85.6245582  77.0861970 126.8530837  98.4343625  88.8281495 133.9800243
  98.3094765  88.0271234 133.4711189  99.0922717  89.3227688 133.4914213
  90.0551794  75.1830227 133.1577384  89.3338379  75.7966195 133.0184857
  90.8445049  75.7187992 133.0794029 100.4978534  86.6290515 135.6079793
  99.5508869  86.5095866 135.5358120 100.8461307  85.7413013 135.6906055
  92.8578107  72.5184654 139.4318035  93.3812509  72.7646950 140.1944345
  92.6390440  73.3504688 139.0121173  88.2545388  74.7888328 127.2989160
  87.9258094  73.9085707 127.1164266  88.6084759  74.7335997 128.1865549
  97.5024967  86.4243231 131.8084146  97.3549930  85.4959938 131.9891716
  98.3278461  86.4463322 131.3241221  91.3687211  75.0761298 127.6664638
  91.7083284  75.6047219 126.9443246  91.8159332  75.4141704 128.4423204
 101.1059089  87.2471790 132.8949018 102.0305636  87.0414651 132.7573469
 100.9374392  86.9988191 133.8038360  94.0630652  73.4598349 137.1167706
  93.7227473  72.6606162 137.5188386  93.3569659  73.7600060 136.5444539
  94.7147124  70.5447661 135.5695029  95.5373193  70.0708139 135.4473919
  94.9585188  71.3238145 136.0693715  93.3555359  73.5735920 125.8657931
  94.0763721  73.9517172 125.3621647  92.7320663  74.2924796 125.9692908
  97.4986481  74.2781069 126.8016263  97.7150096  75.1605706 126.5005091
  97.0180549  73.8867282 126.0721905  92.2385703  77.2366782 133.3787007
  92.0930284  77.5507085 134.2711289  91.7610906  77.8551682 132.8257906
  94.0982086  74.2269330 133.4267897  94.0843654  73.3310423 133.0900195
  94.8154514  74.2339994 134.0606183  95.9508216  74.6606670 135.4721024
  95.6925994  75.5823741 135.4705355  95.4193257  74.2637105 136.1621489
 100.8954405  87.7657457 128.2511110 101.0691283  87.2003880 127.4984962
 101.3883296  88.5658352 128.0690600  86.7131365  79.7772126 136.3174669
  86.1684833  80.5531934 136.4494943  87.5910715  80.1242931 136.1593790
  93.5018982  73.1083710 128.6955467  93.6234893  72.1800356 128.8946355
  93.2121024  73.1222396 127.7833783  96.3710172  70.7938621 131.8322187
  96.3931869  70.8577954 130.8774167  96.7878231  69.9543129 132.0262693
 106.7493796  80.5293880 129.8701410 107.1924942  79.7801205 129.4720533
 105.8720307  80.5204016 129.4875142 101.8829578  87.0824222 125.3508008
 102.5780482  87.7030914 125.5695323 102.2252728  86.2319573 125.6260386
  87.4997387  78.9042022 139.2104825  86.7579123  79.0524658 139.7969456
  87.1790131  79.1650288 138.3471575 103.7821001  84.5323927 126.8795339
 104.3072325  84.8711200 126.1544659 103.6943353  83.5970942 126.6958473
  95.4441050  88.4458001 139.0085215  95.7528176  88.2007147 139.8807915
  96.2416532  88.6504639 138.5204086  95.4661662  90.5995910 131.2390592
  95.0266652  90.1072289 131.9323449  96.2169779  90.0568878 130.9982667
  87.9454001  86.7907451 131.2415220  88.7712020  86.4911223 130.8613864
  87.5948053  86.0215074 131.6905009  92.9135534  86.1433919 133.3112894
  92.2915543  85.4804624 133.0115122  93.5840401  86.1695051 132.6286541
  86.1462606  84.7093778 132.2004154  85.3094514  84.2815952 132.0188155
  86.1186251  84.9026221 133.1374945  92.9860061  74.6215707 142.9045400
  93.0348217  75.4977830 142.5223169  93.5282575  74.0793101 142.3317043
 103.4714907  85.1656831 142.1846537 102.6810451  85.1480970 141.6451036
 103.2348261  85.7045124 142.9395573 103.5912782  82.0149297 139.4979265
 103.6410787  81.8499305 140.4394788 103.4826705  81.1476556 139.1077146
  92.4749041  84.6937843 126.7871354  92.6237161  85.3773307 126.1338027
  93.2815484  84.6742933 127.3020810 100.8816544  77.9980225 140.8138572
 101.7826407  77.8586690 140.5222570 100.9564519  78.1634680 141.7536750
  95.2159350  75.3747080 139.6591758  94.3462659  75.6680646 139.3874347
  95.4518830  75.9587525 140.3799022 105.0930979  84.4346239 139.7421287
 104.8015787  84.7976219 140.5784748 104.4803110  83.7213247 139.5634619
 106.2926661  81.9999118 132.2623857 107.1273552  82.4388922 132.4261417
 106.4285790  81.5237772 131.4432103 103.3418167  79.5578853 138.2101345
 103.8172289  79.7506500 137.4020196 102.4183732  79.6138039 137.9644729
  90.2301674  80.7203020 127.7932423  89.9847716  79.8165350 127.9912633
  90.3997588  80.7220171 126.8511901  97.9198383  71.5926697 137.1757179
  98.4380327  72.3287724 136.8503667  97.5653516  71.8990690 138.0103938
  89.4997321  76.4531378 125.2918585  88.8066566  76.5275733 124.6358621
  89.2549073  75.6891722 125.8140102  98.1710978  68.0126979 132.6958075
  98.4512731  67.3450168 133.3218502  98.9561585  68.2056075 132.1832739
  95.9744446  87.1885973 124.2583102  95.4018413  87.8076160 123.8053574
  96.5477240  87.7385335 124.7923024 102.0419836  76.4344613 136.4429650
 102.9937259  76.5342711 136.4641875 101.8723286  75.6422882 136.9527735
 100.0634215  73.5200197 136.6289051  99.4684148  73.8005209 135.9335540
  99.7783912  74.0094097 137.4005793  99.1941706  87.4723123 125.3891684
 100.1272379  87.4068685 125.5924559  99.1064919  88.3079390 124.9306217
 101.8229723  86.7888994 122.3495632 101.7443354  86.4548857 123.2431389
 102.6439389  87.2810762 122.3487104 104.5207914  79.6550733 135.5571950
 104.4884234  78.7166734 135.7431634 105.1308537  79.7334770 134.8237775
  96.3591245  78.5246786 121.5999154  97.3050349  78.3952994 121.6687572
  95.9805490  77.7861448 122.0768582 104.6702402  76.4461776 135.6030233
 104.1541451  75.6620233 135.4160162 105.5542351  76.1180493 135.7676753
 102.3313129  70.1902792 131.5626046 102.1337950  69.8817880 132.4469378
 102.9412835  70.9164431 131.6923976 110.3384464  80.7166740 134.6977987
 111.0687852  80.4552028 135.2585690 109.7291409  79.9795462 134.7380055
 108.4199761  78.8574602 135.2952438 107.6932924  78.7230567 134.6868930
 108.0047048  79.1651431 136.1009156  96.2429937  82.5764532 143.0599811
  97.1632947  82.7543131 143.2539858  96.2079520  81.6320577 142.9079510
  94.5434162  76.4496762 121.5354039  93.6365617  76.1529875 121.6116753
  94.8210143  76.1526580 120.6688326  85.4612102  77.7703126 131.9853086
  85.1414887  76.9168434 131.6927460  84.9145530  77.9851704 132.7411053
  89.2392010  80.4865567 135.7022592  89.4578020  81.4182675 135.7210626
  89.6517784  80.1273541 136.4877396  96.1596228  70.9933652 127.6898281
  95.3496956  70.6480737 128.0653527  96.8480644  70.6841196 128.2785892
  98.0886776  70.0711699 129.3122577  98.6417814  70.4907152 129.9712600
  98.3256862  69.1447447 129.3545533  94.1119875  76.0598773 145.0925341
  94.0116602  77.0093129 145.0237432  93.8941417  75.7317011 144.2201411
  93.3132946  73.3083698 121.6766019  94.1752110  73.6338596 121.9361836
  93.4983291  72.5215193 121.1639084  85.3300362  81.3906037 133.9546207
  84.6363834  80.9759990 133.4416162  86.0773353  81.4326574 133.3579626
 101.4665583  72.1812224 128.8201242 100.8864252  72.8397028 128.4379294
 101.2001516  71.3589569 128.4088659  99.9169149  71.5817282 131.0222562
 100.4168928  71.6933816 130.2136881 100.5604757  71.2778335 131.6623370
  93.9751145  79.4895911 143.9090403  93.4918227  80.2896271 144.1154292
  94.0612084  79.5003856 142.9557847  87.2437105  81.3224291 131.8312222
  87.2207793  81.4211978 130.8794105  87.5537741  82.1689442 132.1529388
  89.9024483  83.3800446 135.9458837  90.8567736  83.3484388 135.8788768
  89.7037006  82.9191070 136.7609063  90.4923865  81.9501562 138.5129634
  91.3116754  82.4445641 138.5364472  90.7660672  81.0333530 138.4847202
 100.2490461  74.3412314 127.8757590  99.3616316  74.6261965 127.6577785
 100.6644450  74.1806078 127.0284867 103.6004997  74.3658835 131.5911929
 104.3765387  74.8555288 131.8636546 102.8753131  74.7916890 132.0483799
 106.0377556  75.0786455 132.6485870 106.6322046  74.8382191 131.9379178
 106.1104139  74.3593585 133.2759406  88.2574711  88.9220066 132.9629035
  88.1229179  88.1620466 132.3967033  87.8406774  89.6460965 132.4957823
  99.3933674  84.1056989 121.9705610 100.0969525  84.3106992 122.5863265
  98.6696323  84.6733751 122.2354693 100.2231485  79.8566850 128.0907880
 100.1666686  80.3135402 127.2515512 100.7759827  79.0957535 127.9130723
 104.0336291  75.6456582 128.9158000 103.7773225  75.2453218 129.7466207
 103.4089159  76.3600376 128.7908139 108.3448628  78.3852655 131.4229291
 107.7848186  78.4545845 132.1960853 107.7392132  78.2093640 130.7028787
  91.4143837  89.8189383 133.1747477  91.2976221  90.7634815 133.0726167
  90.5936284  89.5162944 133.5633276 101.3020372  84.5439518 124.0204070
 102.1365976  84.1120717 123.8381545 101.1404715  84.3721532 124.9480964
 100.9566264  81.0471632 125.3860409 100.9015068  80.8815903 124.4448853
 100.3312319  81.7547665 125.5422599  85.7458779  76.2839696 139.2121831
  86.3917643  75.7738650 139.7009057  85.5375930  77.0208378 139.7865257
  98.2712171  83.3520543 144.7113972  99.1403331  83.5261196 144.3500607
  97.7918923  84.1714960 144.5889701  94.2662389  70.5479741 124.9645728
  94.2541059  71.4921581 125.1213998  95.1585811  70.3649886 124.6705189
  92.4398351  90.4717644 136.3903406  93.3425598  90.5041255 136.7069901
  92.2135721  89.5418095 136.4049741  94.1951953  89.2248631 133.0513484
  93.2447584  89.2250493 132.9377857  94.4984440  88.4781366 132.5349519
  98.0814509  67.1422517 129.2191664  97.3146905  66.5881004 129.3648347
  98.4925214  67.2144386 130.0805816  90.0856270  73.4307313 143.3096846
  90.9487732  73.0744118 143.5200170  89.5121681  73.0921208 143.9972250
 109.9304647  95.0609169 134.1159247 110.5683057  94.9415917 133.4122587
 109.8125490  96.0090013 134.1747199 106.7394353  95.0136598 134.0520771
 106.4012865  94.8977662 133.1641306 107.6084121  94.6127763 134.0321777
 102.5981169  96.8672074 130.0417662 102.0346034  96.7762011 129.2733950
 102.4833564  96.0471978 130.5220155 107.2214136  96.1671449 140.0106977
 107.2102777  95.7724248 139.1387481 107.3834776  95.4337522 140.6040748
 100.1445601  98.3623266 132.8801883 100.9366893  98.0214090 132.4648182
 100.3842251  98.4718241 133.8004036 102.1036355  97.6232179 125.7519262
 102.8767231  97.0761166 125.6132137 102.4561754  98.4876428 125.9633723
 103.9421397  98.9508561 138.9586161 103.6511263  99.8554192 138.8432827
 104.5778382  98.9925089 139.6730230 104.8677604  96.3285410 135.5487520
 105.4641176  96.1041432 134.8344483 104.9252576  95.5870155 136.1512968
 104.4402633  93.7824845 123.3837711 104.6928153  93.2606366 122.6221174
 103.5027192  93.6190990 123.4864395 109.4845915  92.7860623 131.1912455
 110.2709005  92.3680046 130.8402872 109.7484620  93.6906715 131.3594103
 114.8854343  92.7235856 132.0945433 115.6179514  92.1535073 132.3283263
 114.1293698  92.3357457 132.5351939 104.1598921  95.6852951 125.5862086
 104.0435179  95.0097854 126.2543171 104.2701181  95.1985325 124.7694239
 106.5030462  95.1463098 129.2908776 106.1388669  94.6193719 130.0021697
 107.3597578  94.7561567 129.1175261 112.4079763  86.4357431 136.5540042
 112.0763088  87.3052842 136.3301257 111.8125376  86.1193715 137.2334072
 106.1435949  90.1752998 124.2870124 106.3110352  91.0433234 124.6540595
 105.9533118  90.3380279 123.3631413 108.9011282  98.6369977 135.9535955
 108.6012005  99.5395015 135.8451762 108.5562342  98.3702160 136.8057107
 102.3523764  95.0883773 131.9872659 101.4274260  94.9559988 132.1950351
 102.6008177  95.8677993 132.4842601 112.3008426  91.1552517 133.6333392
 111.3925304  91.0867925 133.3392153 112.2496022  91.6324462 134.4615217
 106.1225170  92.6310655 125.2716791 106.0024795  93.0767706 126.1102271
 105.4277758  92.9795973 124.7130329  99.7132575  94.7317047 132.8216448
  99.8424956  94.9851526 133.7355860  99.0330026  95.3244755 132.5021103
 103.8832062 105.4014297 128.9206922 103.8056092 106.3522122 128.9995403
 103.2793706 105.0560169 129.5781849 106.3749292  92.5742162 141.5768289
 105.5982626  93.1336082 141.5671154 107.0139855  93.0598945 142.0983159
 114.1670073  89.3568955 135.4111266 113.5244453  89.6501488 134.7651060
 113.6625001  89.2421875 136.2164462 111.8210236  93.1032128 126.0997125
 112.7328092  93.3359515 125.9244823 111.3119883  93.6869173 125.5372204
 104.6295664  95.3827616 141.1386256 105.3710349  95.9212660 140.8621080
 103.9232650  96.0093904 141.2957808 110.1051004  97.5256756 139.7358418
 110.5134360  97.0839167 138.9913050 109.3828265  96.9509384 139.9892611
 106.4582074  92.4629363 137.1091975 107.3043269  92.8868776 137.2526624
 106.3980712  91.8062987 137.8030538 110.4279819  98.0857947 133.4910707
 109.7988681  98.2503661 132.7886774 110.0405481  98.4999556 134.2621671
 114.3069050  99.0212385 130.8455070 113.6220089  99.4011286 130.2952104
 114.3912900  99.6307711 131.5787018 109.6081519  90.1233731 138.7673148
 109.3642451  90.8775792 138.2307424 109.8841450  90.5019079 139.6020395
 111.5619982  96.6672344 137.4450414 111.7736877  97.3104104 136.7684795
 111.5149730  95.8334660 136.9772344 109.1646211  89.2790164 134.3486986
 108.3030690  89.5771418 134.6403724 109.1908646  89.4960563 133.4168019
 105.9807780  97.8232355 130.7560792 106.4446126  98.1020058 129.9665414
 105.7164579  96.9215799 130.5733882 102.8731861  97.3703836 133.6940555
 103.4433219  97.7991105 133.0558039 103.4639973  97.0886421 134.3924741
 104.9176666  93.9455507 127.5650357 105.6200710  94.3976551 128.0324283
 104.5857295  93.3039326 128.1930250 103.3657028  92.5367264 141.9401566
 102.7355689  93.2183545 142.1736963 103.2593116  92.4250345 140.9954704
  98.6602000  92.2039060 132.8667490  97.8701054  92.4596588 132.3907601
  99.1513248  93.0187398 132.9719531 112.6765810  99.5444299 135.6172771
 113.4983254  99.1424486 135.3355453 112.6728213  99.4412533 136.5688887
 100.6116746  92.5683639 129.8250967  99.8147909  92.6802333 130.3434463
 100.3842338  92.9070291 128.9591858 106.4422413  99.0928342 137.7733482
 106.5066846  99.5548750 138.6091653 105.7333337  98.4625707 137.9015791
  96.9439703  92.4569550 135.2982481  97.1947742  93.3416560 135.5640057
  97.4799252  92.2774152 134.5257573 120.7671803  95.8883048 131.9657743
 120.0135511  95.3190446 131.8101747 120.9019344  95.8545712 132.9128377
 106.1570431 100.7596450 127.6412462 106.0216106 101.6047986 128.0697310
 106.6980244 100.9615728 126.8778396 102.6437771  86.8388030 144.3026817
 102.2504716  86.2854228 144.9774461 103.4603911  87.1498608 144.6933335
  99.6099828  98.2771888 128.2140387 100.1224349  99.0715138 128.3645952
 100.2622541  97.5798178 128.1473989 101.4194713 101.3937644 130.2963140
 101.5961342 102.3155609 130.1084124 102.2151547 101.0796063 130.7257520
 105.5605732  88.2545909 141.8947074 106.3015445  88.8553062 141.8151536
 105.7923655  87.5123547 141.3365116 100.7047070  93.4402276 140.1725303
 100.5900585  92.5387533 140.4732402  99.8491587  93.6865973 139.8210120
 107.7838907 101.3820016 141.7712804 107.3402762 100.5956395 141.4533709
 108.4456121 101.5699167 141.1056695 102.5426029 102.9115818 136.2973483
 103.0933454 102.7832881 135.5250476 101.7037505 103.2110707 135.9468375
 109.8820146 101.6622816 139.7994205 109.8638621 102.4831697 139.3074474
 110.8040066 101.5376892 140.0244346 106.3393200  99.1766946 140.6417714
 106.8721536  98.4155234 140.4117022 105.8107281  98.8840598 141.3841868
 109.5062895  84.2827012 136.1711355 109.1627164  85.1728653 136.0950466
 109.8741857  84.0928669 135.3080940  97.5748745  96.6060542 128.9899958
  98.4123967  97.0157551 128.7733665  97.7527013  95.6659984 128.9600151
 109.4713177  94.2735623 124.6783791 108.9559801  95.0440227 124.9172178
 109.1990486  93.6000759 125.3016852 107.0560288  89.1185324 129.7369029
 106.2001885  88.7292174 129.5574668 107.4687240  89.1977284 128.8768814
 108.5859435  86.6531667 134.1360589 108.0824231  86.6161802 133.3228394
 108.8790042  87.5624410 134.1957245 104.8302321  86.7370397 133.1426770
 105.6955318  86.5413205 132.7832660 104.8979830  86.5080748 134.0696127
 114.4447452  97.0267978 126.6136964 113.6676894  96.6879137 126.1692126
 115.1238932  97.0320601 125.9391929 109.2599481  92.1462715 126.5043572
 108.9549616  92.4608864 127.3553715 110.2129923  92.2244135 126.5470905
 107.7045912  98.3052938 128.1536526 107.1767274  97.5705698 127.8409763
 107.2033415  99.0827615 127.9076494 112.6838758  96.5001959 133.2703572
 112.0262433  97.1901220 133.3583701 113.4879158  96.8898391 133.6137558
 102.4364640  88.9672605 130.5143137 103.0108392  88.7447786 129.7816330
 103.0235622  89.0361299 131.2671739 111.4944217  94.8546331 131.3207514
 112.0076099  95.4876323 131.8229223 112.1445441  94.2547527 130.9550874
 102.7634227  90.9977066 124.5339022 101.9271539  91.3351752 124.8548297
 102.6238997  90.8626045 123.5966159 104.7387308  85.8413853 129.2418207
 104.0851720  85.5262871 128.6174821 104.6967782  85.2189594 129.9678030
 108.7566591 104.8330656 124.0768185 108.0828290 105.1362352 124.6853143
 109.1432413 105.6359736 123.7273642 107.9725048  92.3295787 133.5665854
 107.0547609  92.5510734 133.4087542 108.3885192  92.4042097 132.7077562
 108.7560096  93.7287203 128.6968535 109.5031915  94.2408600 128.3875657
 109.0251685  93.4071255 129.5572928 107.0286746  96.2245743 125.6795489
 106.1197965  95.9404776 125.7767959 107.0581830  96.6444822 124.8198796
 112.2606013  99.8352333 129.4486656 111.8068341  98.9943243 129.5051847
 111.6299980 100.4713731 129.7861437 111.2038933  90.7644319 130.6787324
 110.4661690  90.2521705 131.0097566 111.4565707  90.3244701 129.8670601
 110.7038953 101.6728830 130.3836475 110.9961927 102.2333887 129.6648840
 111.2137573 101.9657391 131.1389634 111.3050560  83.5420571 131.2729093
 111.6109437  82.6817934 130.9855008 112.0303165  84.1338191 131.0728087
  97.5974916  93.9451258 129.6610691  97.3999316  93.3520618 128.9361758
  97.0421580  93.6403468 130.3786630 105.5771640  93.8374364 131.7805284
 105.6320250  92.8848200 131.7047761 104.7662842  93.9933803 132.2646583
 103.5164000  92.4551424 129.5395663 102.7031866  92.7545594 129.9460855
 104.0122994  92.0607113 130.2570145 105.6672578 102.4509181 131.4729928
 105.6248757 102.6770027 130.5438460 106.5835277 102.2172555 131.6215729
 109.1138212  92.9193248 138.3710557 109.4687599  93.1464721 139.2305023
 109.7610343  93.2511625 137.7487812 114.8435949  96.0411684 129.0759886
 114.7053847  96.2313280 128.1481075 114.4872167  96.8031067 129.5327937
 103.0078075  90.0269779 135.1556898 103.6477454  89.8858538 134.4579861
 102.1755605  89.7404293 134.7795500 114.8705328  98.1088211 134.0871157
 115.3041835  98.0163500 134.9354212 115.5836909  98.0845712 133.4491173
 103.7838379  99.3272210 131.2691890 104.5778977  98.8322530 131.0674465
 103.0730071  98.7990073 130.9059596 108.6033223 101.7090305 135.6204258
 108.6570245 102.2781242 136.3881974 107.7348004 101.8792190 135.2558295
 100.0921142  93.4715291 127.3451643  99.1618730  93.4099747 127.5621605
 100.1878614  92.9491244 126.5488284 100.0106691  89.9970104 129.9329885
 100.2713508  90.9115438 129.8239045 100.8323863  89.5294547 130.0826498
 101.4831616  91.4107861 137.1028709 102.1554670  91.2025224 136.4541358
 100.6561403  91.2129947 136.6633942 115.7320878  98.1511912 136.6204043
 115.9256768  99.0557722 136.8663318 115.6321496  97.6919331 137.4542628
 107.3857188  88.0369802 139.1194370 106.7385104  88.7359752 139.0258847
 108.1558204  88.4705946 139.4870618 110.7935986  98.3018655 142.1944923
 110.6421493  98.0729206 141.2775007 110.7840666  99.2589256 142.2076268
 107.5621323  95.8750567 137.1791190 108.4913383  96.0261727 137.0060157
 107.1412353  95.9634588 136.3239836 106.3609655  99.9001232 134.9489728
 106.2220740  99.5320016 135.8215666 105.5724251 100.4148871 134.7773685
 106.9557807 105.0010328 126.2915264 107.1309562 104.5298371 127.1060887
 106.2690595 105.6276094 126.5196525 107.9114870  99.2782834 132.3378565
 107.5764702  99.2383604 133.2336215 107.4118815  98.6127550 131.8648976
 101.8859114  94.6850464 137.8631146 101.7478912  93.9530703 138.4642686
 102.7964037  94.5959365 137.5815334 104.5141414  94.3970424 137.3514826
 105.2241033  93.7563616 137.3101445 104.4710723  94.6483319 138.2741007
 112.5028193 101.3337777 140.2721405 112.4440739 100.6496997 139.6051988
 112.9047711 102.0756767 139.8202031 103.2270348  91.3835642 139.1710466
 102.6907705  90.9326380 139.8232062 102.6387057  91.5181550 138.4280930
 101.5218892 108.1499691 133.0655124 101.7615490 108.7818215 133.7434143
 100.6788088 107.7987731 133.3520483 102.6372607  90.8424293 121.7336929
 101.7602074  90.7213094 121.3699176 103.1130360  90.0510371 121.4815818
 112.5045600  99.2977361 138.5035385 111.6172379  98.9603283 138.6261784
 113.0744151  98.5660392 138.7404150  94.1574747  95.6301453 131.8278436
  94.8445787  95.3163183 131.2399452  94.0022876  96.5342817 131.5545688
  98.9609470  90.5191649 136.2563460  98.8767658  89.9117319 135.5213870
  98.1392176  91.0100668 136.2572956 106.0346754 103.9578813 135.4696628
 105.9616925 104.7633785 135.9815933 105.5924147 104.1570779 134.6444650
 105.8236533 103.1950583 128.9799450 105.0404055 103.7372264 129.0737674
 106.5229279 103.7124563 129.3793691 109.1333183  89.0045213 131.6233655
 109.6301883  88.2515175 131.3034725 108.3620165  89.0409529 131.0576864
 116.9862941  94.7085578 133.2651947 116.9752817  95.5910294 132.8945880
 116.1180320  94.3557129 133.0706484 108.4945437 103.8565647 137.6254787
 109.2073409 104.4913112 137.5530688 108.0035466 103.9529513 136.8094789
 110.2162964  97.7616900 129.1972079 109.2819243  97.8818363 129.0276783
 110.3939633  96.8589367 128.9332088 105.7168152  91.1462596 131.3505340
 105.3465940  90.5933636 132.0386245 106.2127245  90.5420729 130.7980340
 113.6035516  93.6034219 129.7322113 114.0695968  94.4362211 129.6582415
 114.0543016  93.1379201 130.4367371 103.5457351 101.6060091 138.4460358
 104.2466810 102.2396574 138.5989752 103.0752466 101.9474822 137.6855997
 111.6711747  99.9478041 126.7308265 111.9471591  99.8334635 127.6402139
 110.8016245  99.5495525 126.6920438 111.5752178  85.9714806 133.7713014
 110.6615258  86.2019033 133.9395221 112.0045280  86.0553250 134.6227046
 111.3458637  94.1604698 136.2712908 110.6930087  94.4080606 135.6165361
 111.7239017  93.3468836 135.9375385 108.3065811 104.1964391 130.3741078
 108.4888205 103.3786047 130.8368831 109.1298797 104.4132084 129.9365968
 108.6407976 103.1232577 127.6356127 109.1695743 102.6125031 127.0226289
 108.9036196 102.8075107 128.5001660 107.3946210  94.9024509 142.7578945
 106.7186847  94.8018639 143.4281320 108.2173844  94.7463723 143.2214942
  99.1425069 101.1396446 135.3791460  99.7278506 100.3940134 135.5119365
  98.9449907 101.4500403 136.2628124 101.9963724 104.1747693 130.3953903
 101.3274099 104.6593821 129.9117943 101.8576594 104.4216914 131.3097281
  93.7342724  93.7102046 134.0995904  93.7726823  93.1765637 134.8933022
  93.2283016  93.1837252 133.4806881 106.1368993 106.2091437 136.9936561
 106.6887301 106.3723058 137.7585646 106.4775186 106.7995875 136.3216586
 101.1133486  88.5566587 137.5958446 101.1774812  89.4181418 137.1835844
 101.0500606  87.9440588 136.8630804 100.5885758  90.6289719 141.2431480
 101.2157797  90.2466796 141.8569004  99.7313677  90.4103921 141.6087173
 110.9879867 101.0352694 142.8485216 111.5319771 101.6482653 142.3540170
 110.4066712 101.5932273 143.3652229  97.3651301  92.4366148 127.1749835
  97.6604742  91.5276827 127.1216889  96.4639337  92.4153888 126.8530837
 109.2737380 104.1573412 133.9800243 109.1488519 103.3563152 133.4711189
 109.9316471 104.6519606 133.4914213 100.8945548  90.5122145 133.1577384
 100.1732134  91.1258113 133.0184857 101.6838804  91.0479910 133.0794029
 111.3372288 101.9582432 135.6079793 110.3902624 101.8387784 135.5358120
 111.6855061 101.0704930 135.6906055 103.6971862  87.8476571 139.4318035
 104.2206264  88.0938868 140.1944345 103.4784195  88.6796606 139.0121173
  99.0939143  90.1180246 127.2989160  98.7651849  89.2377625 127.1164266
  99.4478513  90.0627915 128.1865549 108.3418722 101.7535149 131.8084146
 108.1943684 100.8251856 131.9891716 109.1672215 101.7755239 131.3241221
 102.2080966  90.4053216 127.6664638 102.5477038  90.9339137 126.9443246
 102.6553086  90.7433622 128.4423204 111.9452843 102.5763707 132.8949018
 112.8699391 102.3706569 132.7573469 111.7768147 102.3280109 133.8038360
 104.9024407  88.7890266 137.1167706 104.5621227  87.9898079 137.5188386
 104.1963413  89.0891977 136.5444539 105.5540879  85.8739579 135.5695029
 106.3766948  85.4000057 135.4473919 105.7978942  86.6530063 136.0693715
 104.1949113  88.9027837 125.8657931 104.9157476  89.2809090 125.3621647
 103.5714417  89.6216714 125.9692908 108.3380236  89.6072986 126.8016263
 108.5543850  90.4897624 126.5005091 107.8574303  89.2159200 126.0721905
 103.0779457  92.5658700 133.3787007 102.9324038  92.8799003 134.2711289
 102.6004661  93.1843600 132.8257906 104.9375840  89.5561247 133.4267897
 104.9237409  88.6602341 133.0900195 105.6548268  89.5631911 134.0606183
 106.7901971  89.9898588 135.4721024 106.5319749  90.9115658 135.4705355
 106.2587011  89.5929022 136.1621489 111.7348160 103.0949375 128.2511110
 111.9085037 102.5295797 127.4984962 112.2277051 103.8950270 128.0690600
  97.5525119  95.1064044 136.3174669  97.0078588  95.8823852 136.4494943
  98.4304469  95.4534848 136.1593790 104.3412736  88.4375628 128.6955467
 104.4628647  87.5092274 128.8946355 104.0514779  88.4514314 127.7833783
 107.2103927  86.1230538 131.8322187 107.2325623  86.1869871 130.8774167
 107.6271986  85.2835047 132.0262693 117.5887551  95.8585798 129.8701410
 118.0318697  95.1093123 129.4720533 116.7114061  95.8495934 129.4875142
 112.7223332 102.4116139 125.3508008 113.4174237 103.0322832 125.5695323
 113.0646482 101.5611490 125.6260386  98.3391141  94.2333940 139.2104825
  97.5972877  94.3816576 139.7969456  98.0183886  94.4942206 138.3471575
 114.6214755  99.8615845 126.8795339 115.1466079 100.2003118 126.1544659
 114.5337108  98.9262860 126.6958473 106.2834804 103.7749918 139.0085215
 106.5921930 103.5299065 139.8807915 107.0810286 103.9796557 138.5204086
 106.3055416 105.9287828 131.2390592 105.8660406 105.4364207 131.9323449
 107.0563533 105.3860796 130.9982667  98.7847755 102.1199369 131.2415220
  99.6105775 101.8203141 130.8613864  98.4341807 101.3506991 131.6905009
 103.7529288 101.4725837 133.3112894 103.1309297 100.8096542 133.0115122
 104.4234155 101.4986969 132.6286541  96.9856360 100.0385695 132.2004154
  96.1488268  99.6107870 132.0188155  96.9580006 100.2318139 133.1374945
 103.8253816  89.9507625 142.9045400 103.8741971  90.8269748 142.5223169
 104.3676330  89.4085018 142.3317043 114.3108661 100.4948748 142.1846537
 113.5204205 100.4772887 141.6451036 114.0742016 101.0337042 142.9395573
 114.4306536  97.3441215 139.4979265 114.4804541  97.1791222 140.4394788
 114.3220460  96.4768474 139.1077146 103.3142795 100.0229760 126.7871354
 103.4630915 100.7065225 126.1338027 104.1209239 100.0034851 127.3020810
 111.7210299  93.3272143 140.8138572 112.6220162  93.1878608 140.5222570
 111.7958273  93.4926598 141.7536750 106.0553104  90.7038998 139.6591758
 105.1856414  90.9972564 139.3874347 106.2912584  91.2879443 140.3799022
 115.9324733  99.7638156 139.7421287 115.6409542 100.1268137 140.5784748
 115.3196865  99.0505165 139.5634619 117.1320416  97.3291036 132.2623857
 117.9667307  97.7680840 132.4261417 117.2679544  96.8529689 131.4432103
 114.1811921  94.8870771 138.2101345 114.6566043  95.0798417 137.4020196
 113.2577487  94.9429957 137.9644729 101.0695428  96.0494938 127.7932423
 100.8241470  95.1457268 127.9912633 101.2391343  96.0512089 126.8511901
 108.7592138  86.9218614 137.1757179 109.2774082  87.6579641 136.8503667
 108.4047271  87.2282608 138.0103938 100.3391076  91.7823296 125.2918585
  99.6460321  91.8567651 124.6358621 100.0942828  91.0183639 125.8140102
 109.0104732  83.3418897 132.6958075 109.2906486  82.6742086 133.3218502
 109.7955339  83.5347993 132.1832739 106.8138201 102.5177891 124.2583102
 106.2412168 103.1368078 123.8053574 107.3870994 103.0677253 124.7923024
 112.8813590  91.7636531 136.4429650 113.8331013  91.8634629 136.4641875
 112.7117041  90.9714800 136.9527735 110.9027970  88.8492114 136.6289051
 110.3077902  89.1297127 135.9335540 110.6177667  89.3386015 137.4005793
 110.0335460 102.8015041 125.3891684 110.9666134 102.7360603 125.5924559
 109.9458673 103.6371308 124.9306217 112.6623477 102.1180911 122.3495632
 112.5837109 101.7840775 123.2431389 113.4833144 102.6102679 122.3487104
 115.3601668  94.9842651 135.5571950 115.3277988  94.0458651 135.7431634
 115.9702292  95.0626687 134.8237775 115.5096157  91.7753694 135.6030233
 114.9935205  90.9912151 135.4160162 116.3936105  91.4472411 135.7676753
 113.1706884  85.5194710 131.5626046 112.9731705  85.2109798 132.4469378
 113.7806589  86.2456349 131.6923976 121.1778218  96.0458658 134.6977987
 121.9081607  95.7843946 135.2585690 120.5685164  95.3087379 134.7380055
 119.2593515  94.1866520 135.2952438 118.5326679  94.0522485 134.6868930
 118.8440802  94.4943349 136.1009156 107.0823692  97.9056450 143.0599811
 108.0026701  98.0835049 143.2539858 107.0473275  96.9612495 142.9079510
 105.3827916  91.7788680 121.5354039 104.4759372  91.4821793 121.6116753
 105.6603897  91.4818498 120.6688326  96.3005857  93.0995043 131.9853086
  95.9808641  92.2460352 131.6927460  95.7539285  93.3143622 132.7411053
 100.0785764  95.8157484 135.7022592 100.2971774  96.7474592 135.7210626
 100.4911538  95.4565459 136.4877396 106.9989982  86.3225570 127.6898281
 106.1890710  85.9772655 128.0653527 107.6874399  86.0133113 128.2785892
 108.9280530  85.4003617 129.3122577 109.4811569  85.8199070 129.9712600
 109.1650617  84.4739365 129.3545533 104.9513630  91.3890690 145.0925341
 104.8510356  92.3385047 145.0237432 104.7335172  91.0608929 144.2201411
 104.1526701  88.6375615 121.6766019 105.0145865  88.9630514 121.9361836
 104.3377045  87.8507111 121.1639084  96.1694117  96.7197955 133.9546207
  95.4757588  96.3051908 133.4416162  96.9167108  96.7618491 133.3579626
 112.3059337  87.5104142 128.8201242 111.7258006  88.1688946 128.4379294
 112.0395270  86.6881486 128.4088659 110.7562904  86.9109199 131.0222562
 111.2562682  87.0225734 130.2136881 111.3998512  86.6070252 131.6623370
 104.8144900  94.8187829 143.9090403 104.3311981  95.6188189 144.1154292
 104.9005839  94.8295774 142.9557847  98.0830859  96.6516209 131.8312222
  98.0601547  96.7503896 130.8794105  98.3931496  97.4981360 132.1529388
 100.7418237  98.7092364 135.9458837 101.6961491  98.6776306 135.8788768
 100.5430761  98.2482987 136.7609063 101.3317619  97.2793480 138.5129634
 102.1510508  97.7737558 138.5364472 101.6054427  96.3625448 138.4847202
 111.0884215  89.6704232 127.8757590 110.2010070  89.9553883 127.6577785
 111.5038204  89.5097995 127.0284867 114.4398752  89.6950753 131.5911929
 115.2159142  90.1847206 131.8636546 113.7146886  90.1208807 132.0483799
 116.8771310  90.4078372 132.6485870 117.4715801  90.1674108 131.9379178
 116.9497894  89.6885503 133.2759406  99.0968466 104.2511983 132.9629035
  98.9622934 103.4912384 132.3967033  98.6800528 104.9752883 132.4957823
 111.0625239  95.1858768 128.0907880 111.0060441  95.6427319 127.2515512
 111.6153582  94.4249453 127.9130723 114.8730045  90.9748500 128.9158000
 114.6166979  90.5745136 129.7466207 114.2482913  91.6892294 128.7908139
 119.1842383  93.7144573 131.4229291 118.6241941  93.7837762 132.1960853
 118.5785886  93.5385558 130.7028787 102.2537592 105.1481300 133.1747477
 102.1369976 106.0926733 133.0726167 101.4330038 104.8454862 133.5633276
 111.7960018  96.3763549 125.3860409 111.7408822  96.2107821 124.4448853
 111.1706074  97.0839582 125.5422599  96.5852533  91.6131614 139.2121831
  97.2311397  91.1030568 139.7009057  96.3769685  92.3500295 139.7865257
 109.1105926  98.6812461 144.7113972 109.9797085  98.8553113 144.3500607
 108.6312677  99.5006878 144.5889701 105.1056144  85.8771658 124.9645728
 105.0934814  86.8213498 125.1213998 105.9979566  85.6941804 124.6705189
 103.2792106 105.8009562 136.3903406 104.1819353 105.8333172 136.7069901
 103.0529476 104.8710013 136.4049741 105.0345708 104.5540549 133.0513484
 104.0841339 104.5542410 132.9377857 105.3378194 103.8073283 132.5349519
 108.9208263  82.4714435 129.2191664 108.1540659  81.9172922 129.3648347
 109.3318968  82.5436304 130.0805816 100.9250024  88.7599231 143.3096846
 101.7881486  88.4036036 143.5200170 100.3515435  88.4213126 143.9972250
 120.7698401 110.3901087 134.1159247 121.4076811 110.2707834 133.4122587
 120.6519244 111.3381931 134.1747199 117.5788108 110.3428515 134.0520771
 117.2406619 110.2269580 133.1641306 118.4477876 109.9419680 134.0321777
 113.4374923 112.1963992 130.0417662 112.8739788 112.1053929 129.2733950
 113.3227318 111.3763896 130.5220155 118.0607891 111.4963367 140.0106977
 118.0496531 111.1016165 139.1387481 118.2228530 110.7629440 140.6040748
 110.9839355 113.6915183 132.8801883 111.7760647 113.3506008 132.4648182
 111.2236005 113.8010158 133.8004036 119.0174482 115.8634959 125.3532127
 118.3662462 116.4489040 124.9666141 119.8118845 116.3941154 125.4127165
 112.9430109 112.9524096 125.7519262 113.7160985 112.4053084 125.6132137
 113.2955508 113.8168346 125.9633723 114.7815152 114.2800479 138.9586161
 114.4905018 115.1846110 138.8432827 115.4172136 114.3217006 139.6730230
 115.7071359 111.6577327 135.5487520 116.3034931 111.4333350 134.8344483
 115.7646330 110.9162073 136.1512968 115.2796387 109.1116763 123.3837711
 115.5321908 108.5898284 122.6221174 114.3420946 108.9482908 123.4864395
 120.3239670 108.1152541 131.1912455 121.1102759 107.6971964 130.8402872
 120.5878374 109.0198633 131.3594103 120.4949747 113.5525391 125.8901112
 119.8595580 113.6260018 126.6022016 120.1647154 114.1418990 125.2120191
 125.7248097 108.0527774 132.0945433 126.4573269 107.4826991 132.3283263
 124.9687453 107.6649375 132.5351939 114.9992676 111.0144869 125.5862086
 114.8828934 110.3389772 126.2543171 115.1094936 110.5277242 124.7694239
 117.3424217 110.4755016 129.2908776 116.9782424 109.9485637 130.0021697
 118.1991333 110.0853485 129.1175261 123.2473517 101.7649348 136.5540042
 122.9156842 102.6344759 136.3301257 122.6519131 101.4485632 137.2334072
 116.9829704 105.5044915 124.2870124 117.1504106 106.3725152 124.6540595
 116.7926873 105.6672197 123.3631413 119.7405037 113.9661894 135.9535955
 119.4405760 114.8686933 135.8451762 119.3956096 113.6994077 136.8057107
 113.1917518 110.4175691 131.9872659 112.2668015 110.2851905 132.1950351
 113.4401932 111.1969910 132.4842601 123.1402181 106.4844434 133.6333392
 122.2319058 106.4159843 133.3392153 123.0889776 106.9616379 134.4615217
 116.9618925 107.9602573 125.2716791 116.8418550 108.4059624 126.1102271
 116.2671513 108.3087891 124.7130329 110.5526329 110.0608965 132.8216448
 110.6818711 110.3143444 133.7355860 109.8723781 110.6536673 132.5021103
 114.7225817 120.7306215 128.9206922 114.6449846 121.6814040 128.9995403
 114.1187460 120.3852087 129.5781849 117.2143046 107.9034080 141.5768289
 116.4376380 108.4628000 141.5671154 117.8533609 108.3890863 142.0983159
 125.0063827 104.6860873 135.4111266 124.3638207 104.9793406 134.7651060
 124.5018756 104.5713793 136.2164462 122.6603991 108.4324046 126.0997125
 123.5721847 108.6651433 125.9244823 122.1513638 109.0161090 125.5372204
 115.4689419 110.7119533 141.1386256 116.2104103 111.2504577 140.8621080
 114.7626404 111.3385822 141.2957808 120.9444758 112.8548674 139.7358418
 121.3528114 112.4131084 138.9913050 120.2222020 112.2801301 139.9892611
 117.2975828 107.7921281 137.1091975 118.1437024 108.2160694 137.2526624
 117.2374466 107.1354905 137.8030538 121.2673573 113.4149864 133.4910707
 120.6382435 113.5795579 132.7886774 120.8799235 113.8291474 134.2621671
 125.1462805 114.3504302 130.8455070 124.4613843 114.7303204 130.2952104
 125.2306654 114.9599629 131.5787018 120.4475274 105.4525649 138.7673148
 120.2036206 106.2067709 138.2307424 120.7235204 105.8310997 139.6020395
 122.4013737 111.9964261 137.4450414 122.6130632 112.6396021 136.7684795
 122.3543485 111.1626578 136.9772344 120.0039965 104.6082082 134.3486986
 119.1424445 104.9063336 134.6403724 120.0302400 104.8252481 133.4168019
 116.8201535 113.1524273 130.7560792 117.2839880 113.4311976 129.9665414
 116.5558333 112.2507717 130.5733882 113.7125616 112.6995754 133.6940555
 114.2826973 113.1283022 133.0558039 114.3033728 112.4178339 134.3924741
 115.7570421 109.2747425 127.5650357 116.4594464 109.7268469 128.0324283
 115.4251049 108.6331244 128.1930250 114.2050782 107.8659182 141.9401566
 113.5749443 108.5475462 142.1736963 114.0986870 107.7542263 140.9954704
 109.4995755 107.5330978 132.8667490 108.7094809 107.7888506 132.3907601
 109.9907002 108.3479315 132.9719531 123.5159564 114.8736217 135.6172771
 124.3377008 114.4716404 135.3355453 123.5121967 114.7704451 136.5688887
 111.4510500 107.8975557 129.8250967 110.6541664 108.0094251 130.3434463
 111.2236092 108.2362209 128.9591858 117.2816168 114.4220260 137.7733482
 117.3460600 114.8840667 138.6091653 116.5727092 113.7917625 137.9015791
 107.7833458 107.7861468 135.2982481 108.0341496 108.6708478 135.5640057
 108.3193006 107.6066070 134.5257573 131.6065558 111.2174965 131.9657743
 130.8529266 110.6482363 131.8101747 131.7413099 111.1837630 132.9128377
 116.9964186 116.0888368 127.6412462 116.8609860 116.9339903 128.0697310
 117.5373998 116.2907645 126.8778396 113.4831525 102.1679947 144.3026817
 113.0898471 101.6146146 144.9774461 114.2997666 102.4790526 144.6933335
 110.4493583 113.6063806 128.2140387 110.9618104 114.4007056 128.3645952
 111.1016296 112.9090096 128.1473989 112.2588468 116.7229562 130.2963140
 112.4355096 117.6447527 130.1084124 113.0545301 116.4087981 130.7257520
 116.3999486 103.5837826 141.8947074 117.1409200 104.1844980 141.8151536
 116.6317409 102.8415464 141.3365116 111.5440824 108.7694194 140.1725303
 111.4294339 107.8679451 140.4732402 110.6885342 109.0157891 139.8210120
 113.3819783 118.2407736 136.2973483 113.9327208 118.1124799 135.5250476
 112.5431259 118.5402625 135.9468375 117.1786954 114.5058863 140.6417714
 117.7115291 113.7447152 140.4117022 116.6501035 114.2132515 141.3841868
 120.3456649  99.6118929 136.1711355 120.0020919 100.5020571 136.0950466
 120.7135612  99.4220587 135.3080940 108.4142500 111.9352460 128.9899958
 109.2517722 112.3449468 128.7733665 108.5920767 110.9951902 128.9600151
 120.3106932 109.6027541 124.6783791 119.7953555 110.3732145 124.9172178
 120.0384240 108.9292677 125.3016852 117.8954043 104.4477241 129.7369029
 117.0395639 104.0584092 129.5574668 118.3080995 104.5269202 128.8768814
 119.4253190 101.9823585 134.1360589 118.9217985 101.9453720 133.3228394
 119.7183796 102.8916327 134.1957245 115.6696075 102.0662314 133.1426770
 116.5349072 101.8705123 132.7832660 115.7373584 101.8372666 134.0696127
 125.2841206 112.3559895 126.6136964 124.5070649 112.0171055 126.1692126
 125.9632687 112.3612518 125.9391929 120.0993235 107.4754633 126.5043572
 119.7943371 107.7900782 127.3553715 121.0523677 107.5536053 126.5470905
 118.5439667 113.6344856 128.1536526 118.0161028 112.8997616 127.8409763
 118.0427170 114.4119532 127.9076494 123.5232513 111.8293876 133.2703572
 122.8656187 112.5193138 133.3583701 124.3272912 112.2190308 133.6137558
 113.2758394 104.2964522 130.5143137 113.8502146 104.0739704 129.7816330
 113.8629377 104.3653217 131.2671739 122.3337972 110.1838249 131.3207514
 122.8469853 110.8168241 131.8229223 122.9839196 109.5839445 130.9550874
 113.6027982 106.3268983 124.5339022 112.7665294 106.6643670 124.8548297
 113.4632751 106.1917963 123.5966159 115.5781062 101.1705771 129.2418207
 114.9245475 100.8554788 128.6174821 115.5361536 100.5481512 129.9678030
 116.6892267 111.4525066 121.1571499 115.7819329 111.2214320 121.3562648
 117.1863299 110.6562685 121.3445480 119.5960346 120.1622573 124.0768185
 118.9222045 120.4654270 124.6853143 119.9826168 120.9651654 123.7273642
 118.8118803 107.6587705 133.5665854 117.8941364 107.8802652 133.4087542
 119.2278946 107.7334015 132.7077562 119.5953850 109.0579120 128.6968535
 120.3425669 109.5700518 128.3875657 119.8645440 108.7363173 129.5572928
 117.8680501 111.5537661 125.6795489 116.9591720 111.2696694 125.7767959
 117.8975584 111.9736740 124.8198796 123.0999768 115.1644251 129.4486656
 122.6462095 114.3235160 129.5051847 122.4693735 115.8005649 129.7861437
 122.0432687 106.0936237 130.6787324 121.3055444 105.5813623 131.0097566
 122.2959461 105.6536618 129.8670601 121.5432707 117.0020747 130.3836475
 121.8355682 117.5625804 129.6648840 122.0531328 117.2949308 131.1389634
 122.1444315  98.8712489 131.2729093 122.4503192  98.0109852 130.9855008
 122.8696920  99.4630109 131.0728087 108.4368671 109.2743175 129.6610691
 108.2393071 108.6812536 128.9361758 107.8815335 108.9695385 130.3786630
 116.4165395 109.1666282 131.7805284 116.4714004 108.2140118 131.7047761
 115.6056597 109.3225721 132.2646583 117.5656588 113.0946405 123.0183567
 117.1276018 112.3782264 122.5589205 118.3067029 113.3222520 122.4568659
 114.3557754 107.7843341 129.5395663 113.5425620 108.0837512 129.9460855
 114.8516749 107.3899030 130.2570145 116.5066332 117.7801098 131.4729928
 116.4642511 118.0061945 130.5438460 117.4229031 117.5464473 131.6215729
 119.9531966 108.2485166 138.3710557 120.3081354 108.4756639 139.2305023
 120.6004097 108.5803543 137.7487812 125.6829703 111.3703602 129.0759886
 125.5447602 111.5605198 128.1481075 125.3265922 112.1322985 129.5327937
 113.8471829 105.3561697 135.1556898 114.4871209 105.2150456 134.4579861
 113.0149360 105.0696210 134.7795500 125.7099083 113.4380129 134.0871157
 126.1435589 113.3455418 134.9354212 126.4230663 113.4137629 133.4491173
 114.6232133 114.6564127 131.2691890 115.4172732 114.1614448 131.0674465
 113.9123826 114.1281990 130.9059596 119.4426978 117.0382223 135.6204258
 119.4964000 117.6073159 136.3881974 118.5741759 117.2084108 135.2558295
 110.9314897 108.8007209 127.3451643 110.0012485 108.7391665 127.5621605
 111.0272369 108.2783162 126.5488284 110.8500446 105.3262022 129.9329885
 111.1107263 106.2407355 129.8239045 111.6717618 104.8586464 130.0826498
 112.3225371 106.7399779 137.1028709 112.9948424 106.5317141 136.4541358
 111.4955158 106.5421865 136.6633942 126.5714632 113.4803829 136.6204043
 126.7650522 114.3849640 136.8663318 126.4715250 113.0211249 137.4542628
 118.2250943 103.3661720 139.1194370 117.5778858 104.0651670 139.0258847
 118.9951958 103.7997864 139.4870618 118.4015077 111.2042485 137.1791190
 119.3307137 111.3553645 137.0060157 117.9806107 111.2926506 136.3239836
 117.2003409 115.2293149 134.9489728 117.0614495 114.8611934 135.8215666
 116.4118005 115.7440789 134.7773685 117.7951561 120.3302246 126.2915264
 117.9703317 119.8590289 127.1060887 117.1084349 120.9568012 126.5196525
 118.7508624 114.6074752 132.3378565 118.4158457 114.5675522 133.2336215
 118.2512570 113.9419468 131.8648976 112.7252868 110.0142382 137.8631146
 112.5872666 109.2822621 138.4642686 113.6357792 109.9251282 137.5815334
 121.6867816 111.9530786 122.6115625 121.0696987 111.2277615 122.5148678
 121.2184304 112.7140147 122.2682699 115.3535169 109.7262341 137.3514826
 116.0634787 109.0855534 137.3101445 115.3104477 109.9775236 138.2741007
 114.0664103 106.7127559 139.1710466 113.5301460 106.2618298 139.8232062
 113.4780811 106.8473468 138.4280930 112.3612646 123.4791609 133.0655124
 112.6009245 124.1110133 133.7434143 111.5181843 123.1279649 133.3520483
 113.4766362 106.1716211 121.7336929 112.5995828 106.0505011 121.3699176
 113.9524115 105.3802289 121.4815818 123.3439355 114.6269279 138.5035385
 122.4566134 114.2895200 138.6261784 123.9137906 113.8952310 138.7404150
 104.9968502 110.9593370 131.8278436 105.6839542 110.6455100 131.2399452
 104.8416631 111.8634735 131.5545688 109.8003224 105.8483567 136.2563460
 109.7161413 105.2409237 135.5213870 108.9785931 106.3392585 136.2572956
 116.8740508 119.2870731 135.4696628 116.8010680 120.0925703 135.9815933
 116.4317901 119.4862697 134.6444650 116.6630288 118.5242501 128.9799450
 115.8797810 119.0664181 129.0737674 117.3623033 119.0416481 129.3793691
 119.9726938 104.3337131 131.6233655 120.4695638 103.5807093 131.3034725
 119.2013919 104.3701447 131.0576864 127.8256695 110.0377496 133.2651947
 127.8146572 110.9202211 132.8945880 126.9574075 109.6849047 133.0706484
 121.0556719 113.0908818 129.1972079 120.1212997 113.2110280 129.0276783
 121.2333387 112.1881285 128.9332088 116.5561907 106.4754514 131.3505340
 116.1859694 105.9225554 132.0386245 117.0520999 105.8712647 130.7980340
 124.4429270 108.9326137 129.7322113 124.9089722 109.7654129 129.6582415
 124.8936771 108.4671119 130.4367371 114.3851105 116.9352009 138.4460358
 115.0860565 117.5688491 138.5989752 113.9146220 117.2766740 137.6855997
 122.5105501 115.2769958 126.7308265 122.7865345 115.1626553 127.6402139
 121.6410000 114.8787443 126.6920438 122.4145933 101.3006724 133.7713014
 121.5009013 101.5310951 133.9395221 122.8439034 101.3845168 134.6227046
 122.1852391 109.4896616 136.2712908 121.5323842 109.7372523 135.6165361
 122.5632771 108.6760754 135.9375385 119.1459565 119.5256309 130.3741078
 119.3281960 118.7077965 130.8368831 119.9692551 119.7424001 129.9365968
 119.4801731 118.4524494 127.6356127 120.0089497 117.9416949 127.0226289
 119.7429950 118.1367024 128.5001660 118.2339964 110.2316427 142.7578945
 117.5580601 110.1310556 143.4281320 119.0567598 110.0755641 143.2214942
 109.9818823 116.4688364 135.3791460 110.5672260 115.7232051 135.5119365
 109.7843662 116.7792320 136.2628124 112.8357479 119.5039611 130.3953903
 112.1667854 119.9885739 129.9117943 112.6970348 119.7508831 131.3097281
 104.5736478 109.0393964 134.0995904 104.6120578 108.5057554 134.8933022
 104.0676771 108.5129169 133.4806881 111.9527240 103.8858504 137.5958446
 112.0168567 104.7473335 137.1835844 111.8894361 103.2732506 136.8630804
 111.4279513 105.9581637 141.2431480 112.0551552 105.5758714 141.8569004
 110.5707432 105.7395839 141.6087173 108.2045056 107.7658066 127.1749835
 108.4998497 106.8568744 127.1216889 107.3033091 107.7445805 126.8530837
 120.1131134 119.4865330 133.9800243 119.9882274 118.6855070 133.4711189
 120.7710226 119.9811523 133.4914213 111.7339303 105.8414063 133.1577384
 111.0125888 106.4550030 133.0184857 112.5232558 106.3771827 133.0794029
 122.1766043 117.2874350 135.6079793 121.2296378 117.1679701 135.5358120
 122.5248816 116.3996848 135.6906055 114.5365616 103.1768489 139.4318035
 115.0600018 103.4230786 140.1944345 114.3177949 104.0088524 139.0121173
 109.9332897 105.4472164 127.2989160 109.6045603 104.5669543 127.1164266
 110.2872268 105.3919832 128.1865549 119.1812476 117.0827066 131.8084146
 119.0337439 116.1543774 131.9891716 120.0065970 117.1047157 131.3241221
 113.0474720 105.7345133 127.6664638 113.3870793 106.2631055 126.9443246
 113.4946841 106.0725540 128.4423204 122.7846598 117.9055625 132.8949018
 123.7093145 117.6998486 132.7573469 122.6161901 117.6572026 133.8038360
 115.7418161 104.1182184 137.1167706 115.4014982 103.3189997 137.5188386
 115.0357168 104.4183895 136.5444539 116.3934633 101.2031497 135.5695029
 117.2160702 100.7291975 135.4473919 116.6372697 101.9821980 136.0693715
 115.0342868 104.2319755 125.8657931 115.7551230 104.6101008 125.3621647
 114.4108172 104.9508632 125.9692908 119.1773990 104.9364904 126.8016263
 119.3937605 105.8189542 126.5005091 118.6968058 104.5451117 126.0721905
 113.9173212 107.8950617 133.3787007 113.7717793 108.2090920 134.2711289
 113.4398415 108.5135518 132.8257906 115.7769595 104.8853165 133.4267897
 115.7631163 103.9894258 133.0900195 116.4942023 104.8923829 134.0606183
 117.6295725 105.3190505 135.4721024 117.3713503 106.2407576 135.4705355
 117.0980766 104.9220940 136.1621489 122.5741914 118.4241292 128.2511110
 122.7478792 117.8587715 127.4984962 123.0670805 119.2242187 128.0690600
 108.3918874 110.4355962 136.3174669 107.8472342 111.2115770 136.4494943
 109.2698224 110.7826766 136.1593790 115.1806491 103.7667545 128.6955467
 115.3022402 102.8384192 128.8946355 114.8908533 103.7806231 127.7833783
 118.0497681 101.4522456 131.8322187 118.0719378 101.5161789 130.8774167
 118.4665740 100.6126965 132.0262693 128.4281305 111.1877715 129.8701410
 128.8712451 110.4385041 129.4720533 127.5507816 111.1787852 129.4875142
 123.5617087 117.7408057 125.3508008 124.2567991 118.3614750 125.5695323
 123.9040237 116.8903408 125.6260386 109.1784896 109.5625858 139.2104825
 108.4366632 109.7108493 139.7969456 108.8577640 109.8234123 138.3471575
 125.4608510 115.1907762 126.8795339 125.9859834 115.5295035 126.1544659
 125.3730862 114.2554778 126.6958473 117.1449171 121.2579746 131.2390592
 116.7054161 120.7656124 131.9323449 117.8957287 120.7152713 130.9982667
 109.6241510 117.4491287 131.2415220 110.4499529 117.1495058 130.8613864
 109.2735562 116.6798909 131.6905009 114.5923043 116.8017755 133.3112894
 113.9703052 116.1388460 133.0115122 115.2627910 116.8278887 132.6286541
 107.8250115 115.3677613 132.2004154 106.9882023 114.9399787 132.0188155
 107.7973760 115.5610056 133.1374945 114.6647570 105.2799543 142.9045400
 114.7135726 106.1561666 142.5223169 115.2070084 104.7376936 142.3317043
 114.1536550 115.3521678 126.7871354 114.3024670 116.0357143 126.1338027
 114.9602993 115.3326768 127.3020810 122.5604053 108.6564060 140.8138572
 123.4613916 108.5170525 140.5222570 122.6352028 108.8218515 141.7536750
 116.8946859 106.0330915 139.6591758 116.0250168 106.3264481 139.3874347
 117.1306339 106.6171360 140.3799022 127.9714170 112.6582954 132.2623857
 128.8061061 113.0972758 132.4261417 128.1073299 112.1821607 131.4432103
 125.0205676 110.2162689 138.2101345 125.4959798 110.4090335 137.4020196
 124.0971241 110.2721874 137.9644729 111.9089183 111.3786856 127.7932423
 111.6635225 110.4749186 127.9912633 112.0785097 111.3804006 126.8511901
 119.5985892 102.2510532 137.1757179 120.1167836 102.9871559 136.8503667
 119.2441025 102.5574525 138.0103938 111.1784830 107.1115213 125.2918585
 110.4854075 107.1859568 124.6358621 110.9336582 106.3475557 125.8140102
 119.8498487  98.6710815 132.6958075 120.1300240  98.0034004 133.3218502
 120.6349094  98.8639910 132.1832739 117.6531955 117.8469809 124.2583102
 117.0805922 118.4659996 123.8053574 118.2264749 118.3969170 124.7923024
 123.7207345 107.0928449 136.4429650 124.6724768 107.1926546 136.4641875
 123.5510795 106.3006717 136.9527735 121.7421724 104.1784032 136.6289051
 121.1471657 104.4589045 135.9335540 121.4571421 104.6677933 137.4005793
 120.8729215 118.1306959 125.3891684 121.8059888 118.0652520 125.5924559
 120.7852428 118.9663226 124.9306217 123.5017232 117.4472829 122.3495632
 123.4230863 117.1132693 123.2431389 124.3226898 117.9394597 122.3487104
 126.1995423 110.3134568 135.5571950 126.1671743 109.3750569 135.7431634
 126.8096046 110.3918605 134.8237775 118.0378754 109.1830621 121.5999154
 118.9837858 109.0536829 121.6687572 117.6592999 108.4445283 122.0768582
 126.3489911 107.1045612 135.6030233 125.8328960 106.3204068 135.4160162
 127.2329860 106.7764328 135.7676753 124.0100638 100.8486627 131.5626046
 123.8125459 100.5401716 132.4469378 124.6200344 101.5748266 131.6923976
 132.0171973 111.3750575 134.6977987 132.7475361 111.1135863 135.2585690
 131.4078918 110.6379297 134.7380055 130.0987270 109.5158438 135.2952438
 129.3720433 109.3814403 134.6868930 129.6834557 109.8235266 136.1009156
 116.2221671 107.1080598 121.5354039 115.3153126 106.8113710 121.6116753
 116.4997652 106.8110416 120.6688326 107.1399611 108.4286961 131.9853086
 106.8202396 107.5752269 131.6927460 106.5933039 108.6435539 132.7411053
 110.9179519 111.1449402 135.7022592 111.1365528 112.0766510 135.7210626
 111.3305293 110.7857377 136.4877396 117.8383736 101.6517487 127.6898281
 117.0284465 101.3064572 128.0653527 118.5268153 101.3425031 128.2785892
 119.7674285 100.7295534 129.3122577 120.3205323 101.1490988 129.9712600
 120.0044371  99.8031282 129.3545533 115.7907384 106.7182608 145.0925341
 115.6904111 107.6676965 145.0237432 115.5728926 106.3900847 144.2201411
 114.9920455 103.9667533 121.6766019 115.8539619 104.2922431 121.9361836
 115.1770800 103.1799029 121.1639084 107.0087871 112.0489873 133.9546207
 106.3151343 111.6343825 133.4416162 107.7560862 112.0910409 133.3579626
 123.1453092 102.8396059 128.8201242 122.5651761 103.4980863 128.4379294
 122.8789025 102.0173404 128.4088659 121.5956658 102.2401117 131.0222562
 122.0956437 102.3517652 130.2136881 122.2392266 101.9362170 131.6623370
 115.6538654 110.1479747 143.9090403 115.1705736 110.9480107 144.1154292
 115.7399593 110.1587692 142.9557847 108.9224614 111.9808126 131.8312222
 108.8995302 112.0795814 130.8794105 109.2325250 112.8273277 132.1529388
 111.5811992 114.0384281 135.9458837 112.5355245 114.0068224 135.8788768
 111.3824515 113.5774905 136.7609063 112.1711374 112.6085397 138.5129634
 112.9904263 113.1029476 138.5364472 112.4448181 111.6917366 138.4847202
 121.9277970 104.9996150 127.8757590 121.0403825 105.2845800 127.6577785
 122.3431959 104.8389913 127.0284867 125.2792506 105.0242671 131.5911929
 126.0552896 105.5139123 131.8636546 124.5540640 105.4500725 132.0483799
 127.7165065 105.7370290 132.6485870 128.3109555 105.4966026 131.9379178
 127.7891648 105.0177421 133.2759406 109.9362220 119.5803901 132.9629035
 109.8016688 118.8204302 132.3967033 109.5194283 120.3044801 132.4957823
 121.0721183 114.7640824 121.9705610 121.7757033 114.9690827 122.5863265
 120.3483832 115.3317586 122.2354693 121.9018994 110.5150686 128.0907880
 121.8454195 110.9719237 127.2515512 122.4547336 109.7541370 127.9130723
 125.7123800 106.3040418 128.9158000 125.4560734 105.9037053 129.7466207
 125.0876668 107.0184212 128.7908139 130.0236137 109.0436491 131.4229291
 129.4635695 109.1129680 132.1960853 129.4179641 108.8677475 130.7028787
 113.0931346 120.4773218 133.1747477 112.9763730 121.4218650 133.0726167
 112.2723792 120.1746779 133.5633276 122.9807881 115.2023354 124.0204070
 123.8153485 114.7704552 123.8381545 122.8192224 115.0305367 124.9480964
 122.6353773 111.7055467 125.3860409 122.5802577 111.5399738 124.4448853
 122.0099828 112.4131500 125.5422599 107.4246288 106.9423531 139.2121831
 108.0705152 106.4322485 139.7009057 107.2163439 107.6792213 139.7865257
 115.9449898 101.2063576 124.9645728 115.9328568 102.1505416 125.1213998
 116.8373320 101.0233721 124.6705189 114.1185860 121.1301480 136.3903406
 115.0213107 121.1625090 136.7069901 113.8923230 120.2001931 136.4049741
 115.8739462 119.8832466 133.0513484 114.9235093 119.8834328 132.9377857
 116.1771949 119.1365201 132.5349519 119.7602018  97.8006353 129.2191664
 118.9934414  97.2464839 129.3648347 120.1712723  97.8728221 130.0805816
 111.7643779 104.0891148 143.3096846 112.6275240 103.7327953 143.5200170
 111.1909190 103.7505043 143.9972250 124.2768678 127.5255909 130.0417662
 123.7133543 127.4345846 129.2733950 124.1621073 126.7055814 130.5220155
 129.8568237 131.1926877 125.3532127 129.2056216 131.7780957 124.9666141
 130.6512599 131.7233072 125.4127165 123.7823864 128.2816014 125.7519262
 124.5554740 127.7345001 125.6132137 124.1349263 129.1460263 125.9633723
 126.1190142 124.4408680 123.3837711 126.3715662 123.9190202 122.6221174
 125.1814701 124.2774826 123.4864395 131.3343502 128.8817309 125.8901112
 130.6989335 128.9551935 126.6022016 131.0040908 129.4710908 125.2120191
 125.8386430 126.3436786 125.5862086 125.7222688 125.6681690 126.2543171
 125.9488690 125.8569160 124.7694239 128.1817971 125.8046933 129.2908776
 127.8176178 125.2777554 130.0021697 129.0385087 125.4145402 129.1175261
 127.8223458 120.8336833 124.2870124 127.9897861 121.7017069 124.6540595
 127.6320627 120.9964115 123.3631413 127.8012679 123.2894491 125.2716791
 127.6812304 123.7351541 126.1102271 127.1065267 123.6379808 124.7130329
 133.4997745 123.7615964 126.0997125 134.4115601 123.9943350 125.9244823
 132.9907392 124.3453008 125.5372204 126.5964175 124.6039343 127.5650357
 127.2988219 125.0560386 128.0324283 126.2644804 123.9623161 128.1930250
 120.3389509 122.8622895 132.8667490 119.5488563 123.1180424 132.3907601
 120.8300757 123.6771233 132.9719531 122.2904255 123.2267475 129.8250967
 121.4935418 123.3386169 130.3434463 122.0629847 123.5654127 128.9591858
 121.2887337 128.9355723 128.2140387 121.8011858 129.7298974 128.3645952
 121.9410050 128.2382014 128.1473989 119.2536254 127.2644378 128.9899958
 120.0911476 127.6741386 128.7733665 119.4314522 126.3243820 128.9600151
 131.1500686 124.9319458 124.6783791 130.6347310 125.7024063 124.9172178
 130.8777995 124.2584594 125.3016852 128.7347797 119.7769159 129.7369029
 127.8789394 119.3876009 129.5574668 129.1474749 119.8561120 128.8768814
 126.5089830 117.3954232 133.1426770 127.3742827 117.1997041 132.7832660
 126.5767339 117.1664584 134.0696127 130.9386990 122.8046550 126.5043572
 130.6337125 123.1192699 127.3553715 131.8917432 122.8827970 126.5470905
 129.3833421 128.9636774 128.1536526 128.8554783 128.2289533 127.8409763
 128.8820924 129.7411450 127.9076494 124.1152149 119.6256440 130.5143137
 124.6895901 119.4031621 129.7816330 124.7023131 119.6945134 131.2671739
 124.4421736 121.6560901 124.5339022 123.6059048 121.9935587 124.8548297
 124.3026506 121.5209881 123.5966159 126.4174817 116.4997689 129.2418207
 125.7639229 116.1846706 128.6174821 126.3755291 115.8773429 129.9678030
 127.5286022 126.7816984 121.1571499 126.6213083 126.5506237 121.3562648
 128.0257054 125.9854603 121.3445480 130.4347605 124.3871038 128.6968535
 131.1819424 124.8992435 128.3875657 130.7039194 124.0655091 129.5572928
 128.7074255 126.8829579 125.6795489 127.7985474 126.5988612 125.7767959
 128.7369339 127.3028657 124.8198796 132.8826442 121.4228154 130.6787324
 132.1449199 120.9105540 131.0097566 133.1353216 120.9828536 129.8670601
 132.9838069 114.2004406 131.2729093 133.2896946 113.3401770 130.9855008
 133.7090674 114.7922026 131.0728087 119.2762425 124.6035093 129.6610691
 119.0786825 124.0104454 128.9361758 118.7209089 124.2987303 130.3786630
 128.4050343 128.4238322 123.0183567 127.9669773 127.7074181 122.5589205
 129.1460784 128.6514437 122.4568659 125.1951509 123.1135259 129.5395663
 124.3819374 123.4129430 129.9460855 125.6910503 122.7190948 130.2570145
 121.7708651 124.1299127 127.3451643 120.8406239 124.0683582 127.5621605
 121.8666123 123.6075080 126.5488284 121.6894200 120.6553940 129.9329885
 121.9501017 121.5699273 129.8239045 122.5111372 120.1878382 130.0826498
 132.5261570 127.2822704 122.6115625 131.9090741 126.5569532 122.5148678
 132.0578059 128.0432064 122.2682699 124.3160116 121.5008128 121.7336929
 123.4389583 121.3796929 121.3699176 124.7917869 120.7094207 121.4815818
 115.8362256 126.2885288 131.8278436 116.5233296 125.9747018 131.2399452
 115.6810385 127.1926653 131.5545688 120.6396979 121.1775485 136.2563460
 120.5555167 120.5701154 135.5213870 119.8179685 121.6684503 136.2572956
 130.8120692 119.6629048 131.6233655 131.3089392 118.9099011 131.3034725
 130.0407674 119.6993365 131.0576864 127.3955661 121.8046431 131.3505340
 127.0253449 121.2517472 132.0386245 127.8914754 121.2004565 130.7980340
 115.4130233 124.3685881 134.0995904 115.4514332 123.8349472 134.8933022
 114.9070525 123.8421087 133.4806881 119.0438810 123.0949984 127.1749835
 119.3392251 122.1860662 127.1216889 118.1426846 123.0737723 126.8530837
 122.5733057 121.1705980 133.1577384 121.8519643 121.7841948 133.0184857
 123.3626313 121.7063745 133.0794029 120.7726652 120.7764081 127.2989160
 120.4439358 119.8961460 127.1164266 121.1266022 120.7211750 128.1865549
 123.8868475 121.0637051 127.6664638 124.2264547 121.5922972 126.9443246
 124.3340595 121.4017457 128.4423204 125.8736622 119.5611673 125.8657931
 126.5944985 119.9392925 125.3621647 125.2501926 120.2800549 125.9692908
 130.0167745 120.2656822 126.8016263 130.2331359 121.1481460 126.5005091
 129.5361812 119.8743035 126.0721905 126.6163349 120.2145083 133.4267897
 126.6024918 119.3186176 133.0900195 127.3335777 120.2215747 134.0606183
 126.0200245 119.0959463 128.6955467 126.1416156 118.1676109 128.8946355
 125.7302287 119.1098149 127.7833783 128.8891436 116.7814374 131.8322187
 128.9113132 116.8453707 130.8774167 129.3059495 115.9418882 132.0262693
 124.9930304 130.6813596 126.7871354 125.1418424 131.3649060 126.1338027
 125.7996748 130.6618686 127.3020810 122.7482937 126.7078773 127.7932423
 122.5028979 125.8041103 127.9912633 122.9178852 126.7095924 126.8511901
 122.0178585 122.4407131 125.2918585 121.3247830 122.5151486 124.6358621
 121.7730337 121.6767475 125.8140102 130.6892241 114.0002732 132.6958075
 130.9693995 113.3325921 133.3218502 131.4742848 114.1931828 132.1832739
 128.4925710 133.1761726 124.2583102 127.9199677 133.7951913 123.8053574
 129.0658503 133.7261088 124.7923024 134.3410986 132.7764747 122.3495632
 134.2624618 132.4424610 123.2431389 135.1620653 133.2686515 122.3487104
 128.8772508 124.5122539 121.5999154 129.8231613 124.3828747 121.6687572
 128.4986753 123.7737201 122.0768582 134.8494393 116.1778545 131.5626046
 134.6519214 115.8693633 132.4469378 135.4594098 116.9040184 131.6923976
 127.0615425 122.4372515 121.5354039 126.1546881 122.1405628 121.6116753
 127.3391406 122.1402333 120.6688326 117.9793366 123.7578879 131.9853086
 117.6596150 122.9044187 131.6927460 117.4326794 123.9727457 132.7411053
 128.6777491 116.9809405 127.6898281 127.8678219 116.6356490 128.0653527
 129.3661908 116.6716949 128.2785892 130.6068039 116.0587452 129.3122577
 131.1599078 116.4782905 129.9712600 130.8438126 115.1323200 129.3545533
 125.8314210 119.2959451 121.6766019 126.6933374 119.6214349 121.9361836
 126.0164554 118.5090947 121.1639084 133.9846846 118.1687977 128.8201242
 133.4045515 118.8272781 128.4379294 133.7182779 117.3465322 128.4088659
 132.4350413 117.5693035 131.0222562 132.9350191 117.6809569 130.2136881
 133.0786021 117.2654088 131.6623370 119.7618368 127.3100044 131.8312222
 119.7389056 127.4087731 130.8794105 120.0719005 128.1565195 132.1529388
 132.7671724 120.3288067 127.8757590 131.8797579 120.6137718 127.6577785
 133.1825713 120.1681831 127.0284867 131.9114938 130.0932742 121.9705610
 132.6150788 130.2982745 122.5863265 131.1877587 130.6609504 122.2354693
 132.7412748 125.8442603 128.0907880 132.6847950 126.3011155 127.2515512
 133.2941091 125.0833288 127.9130723 136.5517554 121.6332335 128.9158000
 136.2954488 121.2328971 129.7466207 135.9270422 122.3476129 128.7908139
 133.8201635 130.5315271 124.0204070 134.6547239 130.0996470 123.8381545
 133.6585978 130.3597285 124.9480964 133.4747527 127.0347385 125.3860409
 133.4196331 126.8691656 124.4448853 132.8493583 127.7423418 125.5422599
 126.7843653 116.5355494 124.9645728 126.7722323 117.4797334 125.1213998
 127.6767075 116.3525639 124.6705189 130.5995772 113.1298270 129.2191664
 129.8328168 112.5756757 129.3648347 131.0106477 113.2020139 130.0805816
  53.9811956   0.8945576 112.0777434  53.3299936   1.4799656 111.6911448
  54.7756319   1.4251771 112.1372471  47.9067584  -2.0165287 112.4764568
  48.6798460  -2.5636300 112.3377444  48.2592982  -1.1521038 112.6879030
  50.2433861  -5.8572621 110.1083018  50.4959382  -6.3791100 109.3466481
  49.3058420  -6.0206475 110.2109702  55.4587222  -1.4163992 112.6146418
  54.8233055  -1.3429366 113.3267323  55.1284628  -0.8270393 111.9365497
  49.9630150  -3.9544515 112.3107393  49.8466408  -4.6299612 112.9788477
  50.0732410  -4.4412141 111.4939546  51.9467178  -9.4644468 111.0115431
  52.1141580  -8.5964232 111.3785902  51.7564347  -9.3017186 110.0876720
  51.9256399  -7.0086811 111.9962098  51.8056024  -6.5629760 112.8347578
  51.2308987  -6.6601493 111.4375636  49.6863291   5.7616831 115.6452229
  49.6087321   6.7124656 115.7240709  49.0824935   5.4162704 116.3027155
  57.6241465  -6.5365337 112.8242432  58.5359321  -6.3037951 112.6490129
  57.1151112  -5.9528293 112.2617510  60.1100279  -0.6185081 117.5700377
  59.4251317  -0.2386180 117.0197410  60.1944129  -0.0089754 118.3032325
  51.7839009  -1.8165111 117.4806098  52.2477355  -1.5377408 116.6910721
  51.5195807  -2.7181666 117.2979189  50.7207895  -5.6941959 114.2895663
  51.4231939  -5.2420915 114.7569590  50.3888524  -6.3358140 114.9175556
  66.5703032  -3.7514418 118.6903049  65.8166740  -4.3207020 118.5347054
  66.7050573  -3.7851754 119.6373684  51.9601660   1.1198984 114.3657769
  51.8247335   1.9650520 114.7942616  52.5011472   1.3218262 113.6023702
  45.4131057  -1.3625578 114.9385694  45.9255578  -0.5682328 115.0891258
  46.0653770  -2.0599287 114.8719295  47.2225942   1.7540178 117.0208447
  47.3992570   2.6758143 116.8329431  48.0182776   1.4398598 117.4502827
  55.2744406  -5.3661843 111.4029097  54.7591030  -4.5957238 111.6417485
  55.0021715  -6.0396707 112.0262159  60.2478680  -2.6129488 113.3382271
  59.4708123  -2.9518329 112.8937433  60.9270161  -2.6076865 112.6637236
  55.0630709  -7.4934751 113.2288878  54.7580845  -7.1788602 114.0799022
  56.0161151  -7.4153331 113.2716211  53.5077141  -1.3344528 114.8781832
  52.9798503  -2.0691768 114.5655070  53.0064644  -0.5569851 114.6321801
  58.4869987  -3.1395507 119.9948879  57.8293662  -2.4496246 120.0829007
  59.2910386  -2.7499075 120.3382865  57.2975446  -4.7851134 118.0452820
  57.8107328  -4.1521143 118.5474530  57.9476670  -5.3849939 117.6796180
  48.5665456  -8.6420400 111.2584329  47.7302768  -8.3045714 111.5793604
  48.4270226  -8.7771420 110.3211466  51.6529741  -3.5164317 107.8816805
  50.7456803  -3.7475064 108.0807954  52.1500773  -4.3126698 108.0690787
  54.5597820   5.1933190 110.8013492  53.8859519   5.4964887 111.4098449
  54.9463642   5.9962270 110.4518949  54.5591325  -5.9110263 115.4213841
  55.3063144  -5.3988866 115.1120963  54.8282914  -6.2326210 116.2818235
  52.8317975  -3.4151722 112.4040795  51.9229194  -3.6992690 112.5013265
  52.8613059  -2.9952644 111.5444102  58.0637242   0.1954867 116.1731963
  57.6099569  -0.6454223 116.2297153  57.4331209   0.8316265 116.5106743
  56.5070181   2.0331364 117.1081781  56.7993156   2.5936421 116.3894147
  57.0168802   2.3259925 117.8634940  52.5294063  -1.8742979 109.7428874
  52.0913493  -2.5907120 109.2834511  53.2704503  -1.6466864 109.1813965
  51.4703807   2.8111715 118.1975234  51.4279985   3.0372561 117.2683766
  52.3866506   2.5775089 118.3461036  60.6467177  -3.5985782 115.8005193
  60.5085076  -3.4084186 114.8726382  60.2903396  -2.8366399 116.2573244
  60.6736557  -1.5309255 120.8116464  61.1073064  -1.6233966 121.6599518
  61.3868138  -1.5551754 120.1736480  52.7589035   5.3612862 113.0160571
  52.9340791   4.8900906 113.8306193  52.0721823   5.9878629 113.2441831
  56.6505290  -3.0158597 109.3360932  56.0334461  -3.7411769 109.2393984
  56.1821779  -2.2549237 108.9928006  47.3250121   8.5102225 119.7900431
  47.5646719   9.1420749 120.4679449  46.4819317   8.1590265 120.0765790
  48.4403836  -8.7973173 108.4582236  47.5633302  -8.9184372 108.0944483
  48.9161589  -9.5887094 108.2061125  51.6267762   3.5553118 115.7044756
  50.8435284   4.0974798 115.7982981  52.3260507   4.0727097 116.1038998
  62.7894170  -4.9311887 119.9897253  62.7784046  -4.0487172 119.6191186
  61.9211549  -5.2840337 119.7951790  56.0194193  -1.8780566 115.9217385
  55.0850472  -1.7579103 115.7522090  56.1970861  -2.7808099 115.6577395
  59.4066744  -6.0363246 116.4567419  59.8727197  -5.2035255 116.3827722
  59.8574245  -6.5018265 117.1612678  57.4742975   0.3080575 113.4553571
  57.7502819   0.1937169 114.3647445  56.6047474  -0.0901940 113.4165744
  54.1097039   4.5566926 117.0986385  54.2919434   3.7388582 117.5614137
  54.9330025   4.7734618 116.6611275  54.4439205   3.4835111 114.3601433
  54.9726971   2.9727565 113.7471596  54.7067425   3.1677641 115.2246966
  47.7994953   4.5350227 117.1199209  47.1305328   5.0196355 116.6363249
  47.6607823   4.7819448 118.0342588  55.0768609   4.5175947 120.7045550
  54.9519748   3.7165686 120.1956495  55.7347700   5.0122140 120.2159520
  57.1403517   2.3184967 122.3325100  56.1933853   2.1990318 122.2603427
  57.4886290   1.4307465 122.4151361  54.1449950   2.1137683 118.5329452
  53.9974913   1.1854390 118.7137022  54.9703444   2.1357774 118.0486527
  57.7484072   2.9366242 119.6194325  58.6730620   2.7309103 119.4818776
  57.5799376   2.6882643 120.5283666  54.1411465 -10.0324480 113.5261569
  54.3575079  -9.1499842 113.2250398  53.6605532 -10.4238266 112.7967211
  57.5379389   3.4551909 114.9756416  57.7116266   2.8898332 114.2230269
  58.0308280   4.2552804 114.7935906  63.3918780  -3.7811668 116.5946716
  63.8349926  -4.5304343 116.1965839  62.5145290  -3.7901532 116.2120448
  58.5254561   2.7718673 112.0753315  59.2205466   3.3925366 112.2940629
  58.8677711   1.9214025 112.3505693  60.4245984   0.2218379 113.6040645
  60.9497308   0.5605652 112.8789966  60.3368337  -0.7134606 113.4203780
  52.1086645   6.2890362 117.9635899  51.6691635   5.7966741 118.6568755
  52.8594762   5.7463330 117.7227974  49.1174024   0.3832295 113.5116661
  49.2662144   1.0667759 112.8583334  49.9240467   0.3637385 114.0266117
  62.9351644  -2.3106430 118.9869164  63.7698536  -1.8716626 119.1506724
  63.0710773  -2.7867777 118.1677410  52.6169429   2.8780425 110.9828408
  52.0443397   3.4970612 110.5298880  53.1902223   3.4279787 111.5168330
  55.8366689   3.1617575 112.1136991  56.7697362   3.0963137 112.3169866
  55.7489902   3.9973842 111.6551523  58.4654706   2.4783446 109.0740938
  58.3868337   2.1443309 109.9676696  59.2864373   2.9705213 109.0732411
  53.0016228  -5.7858762 108.3244461  53.9475333  -5.9152554 108.3932879
  52.6230473  -6.5244100 108.8013889  66.9809447  -3.5938808 121.4223294
  67.7112835  -3.8553520 121.9830997  66.3716392  -4.3310086 121.4625362
  51.1859145  -7.8608786 108.2599346  50.2790600  -8.1575673 108.3362060
  51.4635126  -8.1578968 107.3933632  56.8915444  -9.9693234 114.6002897
  56.0041299  -9.6843583 114.3823091  57.3069433 -10.1299470 113.7530173
  56.0358658  -0.2048559 108.6950916  56.7394508   0.0001443 109.3108572
  55.3121306   0.3628203 108.9600000  56.8656468  -4.4538698 114.8153187
  56.8091669  -3.9970146 113.9760819  57.4184810  -5.2148013 114.6376029
  60.6761274  -8.6648966 115.6403306  60.4198208  -9.0652330 116.4711514
  60.0514142  -7.9505172 115.5153445  64.9873612  -5.9252893 118.1474598
  64.4273170  -5.8559703 118.9206160  64.3817115  -6.1011908 117.4274094
  48.0568821   5.5083834 119.8992784  47.9401205   6.4529267 119.7971474
  47.2361267   5.2057396 120.2878583  57.9445355   0.2333970 110.7449377
  58.7790959  -0.1984831 110.5626851  57.7829698   0.0615984 111.6726271
  57.5991247  -3.2633917 112.1105716  57.5440051  -3.4289645 111.1694160
  56.9737303  -2.5557884 112.2667906  50.8376937   4.9143083 119.7758791
  49.8872568   4.9144945 119.6623163  51.1409423   4.1675817 119.2594826
  66.5729630  10.7503621 120.8404553  67.2108040  10.6310369 120.1367893
  66.4550473  11.6984465 120.8992505  63.3819336  10.7031049 120.7766078
  63.0437848  10.5872114 119.8886613  64.2509105  10.3022214 120.7567084
  59.2406152  12.5566526 116.7662969  58.6771017  12.4656463 115.9979257
  59.1258547  11.7366430 117.2465461  63.8639119  11.8565901 126.7352283
  63.8527760  11.4618699 125.8632787  64.0259759  11.1231974 127.3286055
  56.7870584  14.0517717 119.6047189  57.5791876  13.7108542 119.1893489
  57.0267234  14.1612692 120.5249343  64.8205711  16.2237494 112.0777434
  64.1693691  16.8091574 111.6911448  65.6150074  16.7543688 112.1372471
  58.7461338  13.3126631 112.4764568  59.5192214  12.7655618 112.3377444
  59.0986737  14.1770880 112.6879030  60.5846381  14.6403013 125.6831467
  60.2936247  15.5448644 125.5678134  61.2203365  14.6819541 126.3975537
  61.5102587  12.0179861 122.2732827  62.1066160  11.7935884 121.5589790
  61.5677559  11.2764607 122.8758275  61.0827616   9.4719297 110.1083018
  61.3353137   8.9500818 109.3466481  60.1452175   9.3085442 110.2109702
  66.1270899   8.4755075 117.9157761  66.9133988   8.0574498 117.5648178
  66.3909603   9.3801167 118.0839410  66.2980976  13.9127925 112.6146418
  65.6626809  13.9862552 113.3267323  65.9678382  14.5021524 111.9365497
  71.5279326   8.4130308 118.8190740  72.2604498   7.8429525 119.0528569
  70.7718681   8.0251909 119.2597245  60.8023905  11.3747403 112.3107393
  60.6860163  10.6992306 112.9788477  60.9126164  10.8879777 111.4939546
  63.1455446  10.8357550 116.0154082  62.7813653  10.3088171 116.7267004
  64.0022561  10.4456019 115.8420568  69.0504746   2.1251882 123.2785348
  68.7188071   2.9947293 123.0546563  68.4550360   1.8088166 123.9579379
  62.7860932   5.8647450 111.0115431  62.9535335   6.7327686 111.3785902
  62.5958102   6.0274731 110.0876720  65.5436266  14.3264428 122.6781261
  65.2436989  15.2289467 122.5697068  65.1987325  14.0596612 123.5302414
  58.9948747  10.7778225 118.7117966  58.0699244  10.6454439 118.9195657
  59.2433160  11.5572445 119.2087908  68.9433409   6.8446969 120.3578698
  68.0350287   6.7762377 120.0637459  68.8921005   7.3218914 121.1860524
  62.7650153   8.3205107 111.9962098  62.6449779   8.7662158 112.8347578
  62.0702742   8.6690425 111.4375636  56.3557558  10.4211499 119.5461755
  56.4849939  10.6745978 120.4601166  55.6755009  11.0139207 119.2266410
  60.5257045  21.0908749 115.6452229  60.4481075  22.0416574 115.7240709
  59.9218689  20.7454621 116.3027155  63.0174275   8.2636614 128.3013596
  62.2407609   8.8230534 128.2916460  63.6564838   8.7493397 128.8228466
  70.8095056   5.0463407 122.1356572  70.1669436   5.3395940 121.4896367
  70.3049984   4.9316327 122.9409769  68.4635220   8.7926580 112.8242432
  69.3753076   9.0253967 112.6490129  67.9544867   9.3763624 112.2617510
  61.2720648  11.0722068 127.8631563  62.0135332  11.6107112 127.5866386
  60.5657633  11.6988356 128.0203115  66.7475987  13.2151208 126.4603724
  67.1559343  12.7733619 125.7158357  66.0253249  12.6403836 126.7137917
  63.1007057   8.1523815 123.8337281  63.9468252   8.5763228 123.9771930
  63.0405695   7.4957439 124.5275844  67.0704802  13.7752399 120.2156013
  66.4413664  13.9398113 119.5132081  66.6830464  14.1894008 120.9866977
  70.9494034  14.7106837 117.5700377  70.2645072  15.0905738 117.0197410
  71.0337883  15.3202163 118.3032325  66.2506503   5.8128183 125.4918455
  66.0067434   6.5670244 124.9552731  66.5266433   6.1913531 126.3265702
  68.2044965  12.3566796 124.1695720  68.4161861  12.9998555 123.4930101
  68.1574714  11.5229112 123.7017650  65.8071194   4.9684616 121.0732293
  64.9455673   5.2665870 121.3649030  65.8333629   5.1855015 120.1413325
  62.6232764  13.5126807 117.4806098  63.0871109  13.7914510 116.6910721
  62.3589562  12.6110251 117.2979189  59.5156845  13.0598288 120.4185861
  60.0858202  13.4885557 119.7803346  60.1064957  12.7780873 121.1170047
  61.5601650   9.6349959 114.2895663  62.2625693  10.0871003 114.7569590
  61.2282278   8.9933778 114.9175556  55.3026984   7.8933512 119.5912797
  54.5126038   8.1491040 119.1152908  55.7938231   8.7081850 119.6964837
  69.3190793  15.2338751 122.3418078  70.1408237  14.8318938 122.0600759
  69.3153196  15.1306985 123.2934194  57.2541729   8.2578091 116.5496274
  56.4572892   8.3696785 117.0679769  57.0267321   8.5964743 115.6837164
  63.0847397  14.7822794 124.4978788  63.1491829  15.2443201 125.3336960
  62.3758321  14.1520159 124.6261098  53.5864687   8.1464002 122.0227788
  53.8372725   9.0311012 122.2885364  54.1224235   7.9668604 121.2502880
  77.4096786  11.5777499 118.6903049  76.6560495  11.0084898 118.5347054
  77.5444328  11.5440164 119.6373684  62.7995414  16.4490902 114.3657769
  62.6641089  17.2942437 114.7942616  63.3405227  16.6510179 113.6023702
  56.2524812  13.9666340 114.9385694  56.7649332  14.7609590 115.0891258
  56.9047525  13.2692630 114.8719295  58.0619696  17.0832096 117.0208447
  58.2386325  18.0050061 116.8329431  58.8576530  16.7690515 117.4502827
  64.4263891  17.0714468 128.4958111  63.9827745  16.2850847 128.1779015
  65.0881104  17.2593619 127.8302001  59.1851012  18.6010270 123.0218789
  59.7358437  18.4727333 122.2495783  58.3462488  18.9005159 122.6713682
  66.5245129  17.3517268 126.5239512  66.5063604  18.1726149 126.0319781
  67.4465049  17.2271343 126.7489653  62.9818183  14.8661398 127.3663020
  63.5146520  14.1049686 127.1362328  62.4532264  14.5735049 128.1087175
  66.1487878  -0.0278536 122.8956662  65.8052147   0.8623105 122.8195773
  66.5166841  -0.2176879 122.0326247  54.2173729  12.2954994 115.7145264
  55.0548951  12.7052002 115.4978972  54.3951996  11.3554436 115.6845458
  66.1138161   9.9630075 111.4029097  65.5984784  10.7334679 111.6417485
  65.8415469   9.2895211 112.0262159  63.6985272   4.8079776 116.4614336
  62.8426868   4.4186626 116.2819974  64.1112223   4.8871736 115.6014121
  65.2284418   2.3426119 120.8605895  64.7249214   2.3056254 120.0473701
  65.5215025   3.2518862 120.9202552  61.4727304   2.4264849 119.8672077
  62.3380301   2.2307657 119.5077967  61.5404813   2.1975200 120.7941434
  71.0872435  12.7162429 113.3382271  70.3101878  12.3773589 112.8937433
  71.7663916  12.7215053 112.6637236  65.9024464   7.8357167 113.2288878
  65.5974599   8.1503316 114.0799022  66.8554906   7.9138587 113.2716211
  64.3470896  13.9947390 114.8781832  63.8192257  13.2600150 114.5655070
  63.8458398  14.7722066 114.6321801  69.3263742  12.1896411 119.9948879
  68.6687416  12.8795672 120.0829007  70.1304141  12.5792843 120.3382865
  59.0789623   4.6567056 117.2388444  59.6533375   4.4342238 116.5061637
  59.6660606   4.7255751 117.9917045  68.1369201  10.5440783 118.0452820
  68.6501082  11.1770775 118.5474530  68.7870424   9.9441979 117.6796180
  59.4059210   6.6871517 111.2584329  58.5696523   7.0246204 111.5793604
  59.2663980   6.5520497 110.3211466  61.3812291   1.5308305 115.9663513
  60.7276703   1.2157323 115.3420128  61.3392765   0.9084046 116.6923336
  62.4923496  11.8127600 107.8816805  61.5850558  11.5816854 108.0807954
  62.9894528  11.0165220 108.0690787  65.3991575  20.5225108 110.8013492
  64.7253274  20.8256804 111.4098449  65.7857397  21.3254188 110.4518949
  64.6150031   8.0190239 120.2911161  63.6972593   8.2405186 120.1332849
  65.0310175   8.0936549 119.4322868  65.3985079   9.4181655 115.4213841
  66.1456898   9.9303052 115.1120963  65.6676669   9.0965707 116.2818235
  63.6711729  11.9140195 112.4040795  62.7622949  11.6299228 112.5013265
  63.7006813  12.3339274 111.5444102  68.9030997  15.5246785 116.1731963
  68.4493324  14.6837695 116.2297153  68.2724963  16.1608183 116.5106743
  67.8463916   6.4538771 117.4032630  67.1086673   5.9416157 117.7342873
  68.0990690   6.0139152 116.5915907  67.3463936  17.3623281 117.1081781
  67.6386910  17.9228339 116.3894147  67.8562557  17.6551842 117.8634940
  67.9475544  -0.7684977 117.9974400  68.2534420  -1.6287614 117.7100315
  68.6728148  -0.1767357 117.7973394  54.2399900   9.6345709 116.3855998
  54.0424300   9.0415070 115.6607064  53.6846564   9.3297920 117.1031936
  62.2196623   9.5268816 118.5050591  62.2745233   8.5742652 118.4293067
  61.4087825   9.6828255 118.9891889  63.3687817  13.4548939 109.7428874
  62.9307247  12.7384798 109.2834511  64.1098258  13.6825054 109.1813965
  60.1588983   8.1445876 116.2640970  59.3456849   8.4440046 116.6706162
  60.6547977   7.7501564 116.9815452  62.3097561  18.1403633 118.1975234
  62.2673740  18.3664479 117.2683766  63.2260260  17.9067007 118.3461036
  65.7563195   8.6087700 125.0955864  66.1112583   8.8359173 125.9550329
  66.4035326   8.9406077 124.4733119  71.4860932  11.7306136 115.8005193
  71.3478830  11.9207732 114.8726382  71.1297151  12.4925519 116.2573244
  59.6503058   5.7164231 121.8802205  60.2902437   5.5752990 121.1825168
  58.8180589   5.4298745 121.5040807  71.5130312  13.7982663 120.8116464
  71.9466818  13.7057952 121.6599518  72.2261892  13.7740163 120.1736480
  60.4263362  15.0166662 117.9937197  61.2203960  14.5216982 117.7919772
  59.7155054  14.4884525 117.6304903  65.2458206  17.3984757 122.3449565
  65.2995229  17.9675693 123.1127281  64.3772988  17.5686642 121.9803602
  56.7346125   9.1609743 114.0696950  55.8043714   9.0994199 114.2866912
  56.8303597   8.6385696 113.2733591  56.6531674   5.6864556 116.6575191
  56.9138492   6.6009889 116.5484352  57.4748847   5.2188999 116.8071804
  58.1256600   7.1002313 123.8274016  58.7979653   6.8919675 123.1786665
  57.2986386   6.9024399 123.3879248  72.3745861  13.8406364 123.3449350
  72.5681751  14.7452174 123.5908624  72.2746479  13.3813783 124.1787935
  64.0282172   3.7264254 125.8439677  63.3810087   4.4254204 125.7504153
  64.7983187   4.1600398 126.2115925  67.4360970  13.9913106 128.9190230
  67.2846476  13.7623658 128.0020314  67.4265649  14.9483708 128.9321575
  64.2046306  11.5645019 123.9036497  65.1338366  11.7156179 123.7305464
  63.7837336  11.6529040 123.0485143  63.0034638  15.5895684 121.6735034
  62.8645724  15.2214468 122.5460972  62.2149234  16.1043323 121.5018992
  63.5982790  20.6904780 113.0160571  63.7734546  20.2192823 113.8306193
  62.9115578  21.3170546 113.2441831  64.5539853  14.9677286 119.0623872
  64.2189686  14.9278056 119.9581522  64.0543799  14.3022002 118.5894282
  58.5284097  10.3744916 124.5876453  58.3903895   9.6425155 125.1887992
  59.4389021  10.2853816 124.3060641  67.4899045  12.3133321 109.3360932
  66.8728215  11.5880149 109.2393984  67.0215533  13.0742681 108.9928006
  61.1566398  10.0864876 124.0760133  61.8666016   9.4458068 124.0346751
  61.1135706  10.3377770 124.9986314  69.1453176  17.0232229 126.9966712
  69.0865723  16.3391449 126.3297295  69.5472695  17.7651219 126.5447338
  58.1643875  23.8394143 119.7900431  58.4040473  24.4712667 120.4679449
  57.3213072  23.4882183 120.0765790  59.2797591   6.5318745 108.4582236
  58.4027057   6.4107546 108.0944483  59.7555344   5.7404823 108.2061125
  69.1470584  14.9871813 125.2280692  68.2597362  14.6497735 125.3507091
  69.7169135  14.2554844 125.4649457  50.7999731  11.3195905 118.5523743
  51.4870771  11.0057635 117.9644758  50.6447859  12.2237269 118.2790994
  55.6034453   6.2086101 122.9808767  55.5192642   5.6011771 122.2459177
  54.7817159   6.6995120 122.9818263  62.6771737  19.6473265 122.1941935
  62.6041909  20.4528237 122.7061239  62.2349130  19.8465231 121.3689956
  62.4661517  18.8845035 115.7044756  61.6829039  19.4266715 115.7982981
  63.1654262  19.4019015 116.1038998  65.7758167   4.6939665 118.3478962
  66.2726866   3.9409627 118.0280032  65.0045148   4.7303981 117.7822171
  73.6287924  10.3980030 119.9897253  73.6177800  11.2804746 119.6191186
  72.7605304  10.0451581 119.7951790  65.1370421  19.5460099 124.3500094
  65.8498393  20.1807564 124.2775995  64.6460449  19.6423965 123.5340095
  66.8587947  13.4511352 115.9217385  65.9244226  13.5712814 115.7522090
  67.0364616  12.5483819 115.6577395  62.3593136   6.8357048 118.0750646
  61.9890923   6.2828088 118.7631552  62.8552228   6.2315181 117.5225646
  70.2460499   9.2928671 116.4567419  70.7120951  10.1256663 116.3827722
  70.6967999   8.8273653 117.1612678  60.1882334  17.2954543 125.1705664
  60.8891794  17.9291026 125.3235059  59.7177449  17.6369274 124.4101304
  68.3136730  15.6372493 113.4553571  68.5896574  15.5229087 114.3647445
  67.4441229  15.2389977 113.4165744  68.2177162   1.6609258 120.4958321
  67.3040241   1.8913485 120.6640528  68.6470263   1.7447702 121.3472353
  67.9883620   9.8499150 122.9958215  67.3355070  10.0975058 122.3410667
  68.3664000   9.0363288 122.6620692  64.9490794  19.8858843 117.0986385
  65.1313188  19.0680499 117.5614137  65.7723780  20.1026536 116.6611275
  65.2832959  18.8127028 114.3601433  65.8120726  18.3019483 113.7471596
  65.5461179  18.4969559 115.2246966  55.7850052  16.8290898 122.1036767
  56.3703489  16.0834586 122.2364671  55.5874891  17.1394854 122.9873431
  58.6388707  19.8642145 117.1199209  57.9699083  20.3488273 116.6363249
  58.5001577  20.1111366 118.0342588  50.3767707   9.3996498 120.8241210
  50.4151806   8.8660089 121.6178328  49.8708000   8.8731704 120.2052187
  62.7793976  21.8985889 123.7181868  63.3312284  22.0617510 124.4830953
  63.1200169  22.4890327 123.0461893  67.6304850  16.7247146 129.5730522
  68.1744754  17.3377104 129.0785477  67.0491695  17.2826725 130.0897535
  54.0076284   8.1260600 113.8995142  54.3029726   7.2171279 113.8462195
  53.1064320   8.1048340 113.5776144  65.9162363  19.8467864 120.7045550
  65.7913503  19.0457604 120.1956495  66.5741454  20.3414058 120.2159520
  57.5370531   6.2016597 119.8822690  56.8157117   6.8152564 119.7430163
  58.3263787   6.7374362 119.8039336  67.9797272  17.6476884 122.3325100
  67.0327607  17.5282235 122.2603427  68.3280045  16.7599382 122.4151361
  55.7364126   5.8074698 114.0234467  55.4076832   4.9272077 113.8409573
  56.0903497   5.7522366 114.9110856  64.9843705  17.4429601 118.5329452
  64.8368667  16.5146308 118.7137022  65.8097198  17.4649691 118.0486527
  58.8505949   6.0947668 114.3909944  59.1902022   6.6233589 113.6688553
  59.2978070   6.4328074 115.1668511  68.5877827  18.2658159 119.6194325
  69.5124374  18.0601021 119.4818776  68.4193130  18.0174560 120.5283666
  61.5449390   4.4784718 123.8413012  61.2046210   3.6792531 124.2433692
  60.8388396   4.7786429 123.2689846  62.1965862   1.5634031 122.2940335
  63.0191931   1.0894509 122.1719226  62.4403925   2.3424515 122.7939022
  60.8374096   4.5922289 112.5903237  61.5582459   4.9703542 112.0866954
  60.2139400   5.3111166 112.6938215  64.9805219   5.2967438 113.5261569
  65.1968834   6.1792076 113.2250398  64.4999286   4.9053652 112.7967211
  59.7204441   8.2553151 120.1032314  59.5749021   8.5693454 120.9956596
  59.2429644   8.8738052 119.5503213  61.5800824   5.2455699 120.1513204
  61.5662392   4.3496793 119.8145502  62.2973252   5.2526363 120.7851490
  63.4326954   5.6793040 122.1966331  63.1744732   6.6010110 122.1950661
  62.9011995   5.2823474 122.8866795  68.3773143  18.7843827 114.9756416
  68.5510021  18.2190249 114.2230269  68.8702034  19.5844722 114.7935906
  54.1950103  10.7958496 123.0419975  53.6503571  11.5718304 123.1740250
  55.0729453  11.1429300 122.8839097  60.9837719   4.1270080 115.4200774
  61.1053631   3.1986726 115.6191661  60.6939762   4.1408766 114.5079089
  63.8528910   1.8124990 118.5567494  63.8750607   1.8764323 117.6019473
  64.2696969   0.9729499 118.7508000  74.2312534  11.5480250 116.5946716
  74.6743680  10.7987575 116.1965839  73.3539044  11.5390386 116.2120448
  69.3648315  18.1010591 112.0753315  70.0599220  18.7217284 112.2940629
  69.7071466  17.2505942 112.3505693  71.2639739  15.5510297 113.6040645
  71.7891063  15.8897569 112.8789966  71.1762091  14.6157312 113.4203780
  62.9259787  19.4644370 125.7330522  63.2346914  19.2193517 126.6053222
  63.7235269  19.6691009 125.2449392  62.9480399  21.6182280 117.9635899
  62.5085390  21.1258659 118.6568755  63.6988516  21.0755248 117.7227974
  55.4272738  17.8093821 117.9660527  56.2530758  17.5097593 117.5859170
  55.0766790  17.0401443 118.4150315  60.3954271  17.1620289 120.0358200
  59.7734281  16.4990994 119.7360428  61.0659138  17.1881421 119.3531848
  53.6281343  15.7280147 118.9249460  52.7913252  15.3002322 118.7433462
  53.6004989  15.9212591 119.8620252  70.9533645  16.1843200 128.9091843
  70.1629188  16.1667339 128.3696343  70.7166999  16.7231494 129.6640880
  71.0731520  13.0335667 126.2224572  71.1229525  12.8685674 127.1640095
  70.9645443  12.1662926 125.8322453  59.9567778  15.7124212 113.5116661
  60.1055899  16.3959677 112.8583334  60.7634222  15.6929302 114.0266117
  68.3635282   9.0166595 127.5383879  69.2645145   8.8773060 127.2467876
  68.4383257   9.1821050 128.4782056  62.6978087   6.3933449 126.3837065
  61.8281397   6.6867015 126.1119654  62.9337568   6.9773894 127.1044329
  72.5749717  15.4532608 126.4666594  72.2834525  15.8162589 127.3030054
  71.9621848  14.7399616 126.2879926  73.7745399  13.0185488 118.9869164
  74.6092290  13.4575292 119.1506724  73.9104528  12.5424141 118.1677410
  70.8236905  10.5765223 124.9346652  71.2991026  10.7692869 124.1265503
  69.9002470  10.6324409 124.6890035  57.7120411  11.7389390 114.5177730
  57.4666453  10.8351720 114.7157940  57.8816326  11.7406540 113.5757208
  65.4017121   2.6113066 123.9002485  65.9199065   3.3474093 123.5748974
  65.0472254   2.9177060 124.7349245  56.9816059   7.4717748 112.0163891
  56.2885304   7.5462103 111.3603927  56.7367811   6.7078091 112.5385408
  65.6529715  -0.9686651 119.4203382  65.9331469  -1.6363462 120.0463809
  66.4380322  -0.7757555 118.9078046  63.4563184  18.2072343 110.9828408
  62.8837151  18.8262530 110.5298880  64.0295978  18.7571704 111.5168330
  69.5238574   7.4530983 123.1674957  70.4755997   7.5529081 123.1887181
  69.3542024   6.6609251 123.6773041  67.5452953   4.5386566 123.3534358
  66.9502885   4.8191579 122.6580847  67.2602650   5.0280467 124.1251099
  66.6760444  18.4909493 112.1136991  67.6091117  18.4255055 112.3169866
  66.5883657  19.3265760 111.6551523  69.3048460  17.8075363 109.0740938
  69.2262092  17.4735227 109.9676696  70.1258127  18.2997131 109.0732411
  72.0026652  10.6737103 122.2817257  71.9702972   9.7353103 122.4676941
  72.6127275  10.7521139 121.5483082  63.8409982   9.5433156 108.3244461
  64.7869087   9.4139364 108.3932879  63.4624227   8.8047817 108.8013889
  72.1521140   7.4648146 122.3275540  71.6360189   6.6806603 122.1405469
  73.0361089   7.1366863 122.4922059  69.8131867   1.2089162 118.2871353
  69.6156688   0.9004250 119.1714685  70.4231573   1.9350800 118.4169282
  77.8203201  11.7353109 121.4223294  78.5506590  11.4738398 121.9830997
  77.2110147  10.9981831 121.4625362  75.9018499   9.8760972 122.0197745
  75.1751662   9.7416937 121.4114236  75.4865785  10.1837801 122.8254463
  63.7248675  13.5950902 129.7845118  64.6451684  13.7729501 129.9785164
  63.6898258  12.6506947 129.6324817  62.0252900   7.4683132 108.2599346
  61.1184355   7.1716245 108.3362060  62.3028881   7.1712950 107.3933632
  52.9430840   8.7889495 118.7098392  52.6233624   7.9354804 118.4172766
  52.3964268   9.0038073 119.4656360  56.7210748  11.5051936 122.4267899
  56.9396757  12.4369044 122.4455933  57.1336521  11.1459911 123.2122703
  63.6414965   2.0120022 114.4143587  62.8315694   1.6667107 114.7898833
  64.3299382   1.7027565 115.0031199  65.5705514   1.0898068 116.0367884
  66.1236552   1.5093522 116.6957907  65.8075600   0.1633817 116.0790840
  60.7951684   4.3270067 108.4011325  61.6570848   4.6524965 108.6607143
  60.9802028   3.5401563 107.8884391  52.8119100  12.4092407 120.6791514
  52.1182571  11.9946360 120.1661468  53.5592091  12.4512943 120.0824933
  68.9484321   3.1998594 115.5446548  68.3682990   3.8583398 115.1624601
  68.6820253   2.3775938 115.1333966  67.3987887   2.6003651 117.7467869
  67.8987665   2.7120186 116.9382187  68.0423495   2.2964704 118.3868677
  54.7255842  12.3410661 118.5557529  54.7026531  12.4398348 117.6039412
  55.0356479  13.1875811 118.8774695  57.3843220  14.3986816 122.6704143
  58.3386474  14.3670758 122.6034075  57.1855744  13.9377439 123.4854369
  57.9742602  12.9687932 125.2374941  58.7935491  13.4632010 125.2609778
  58.2479410  12.0519900 125.2092508  67.7309199   5.3598684 114.6002897
  66.8435054   5.6448335 114.3823091  68.1463188   5.1992447 113.7530173
  71.0823735   5.3845205 118.3157236  71.8584125   5.8741657 118.5881853
  70.3571869   5.8103259 118.7729105  73.5196293   6.0972824 119.3731176
  74.1140784   5.8568560 118.6624485  73.5922877   5.3779955 120.0004713
  55.7393449  19.9406435 119.6874341  55.6047917  19.1806836 119.1212339
  55.3225511  20.6647335 119.2203130  66.8752412  15.1243359 108.6950916
  67.5788262  15.3293361 109.3108572  66.1515061  15.6920121 108.9600000
  67.7050222  10.8753220 114.8153187  67.6485424  11.3321771 113.9760819
  68.2578565  10.1143905 114.6376029  71.5155028   6.6642952 115.6403306
  71.2591963   6.2639587 116.4711514  70.8907896   7.3786746 115.5153445
  75.8267366   9.4039025 118.1474598  75.2666924   9.4732214 118.9206160
  75.2210870   9.2280010 117.4274094  58.8962575  20.8375752 119.8992784
  58.7794959  21.7821185 119.7971474  58.0755021  20.5349314 120.2878583
  68.7839110  15.5625888 110.7449377  69.6184714  15.1307086 110.5626851
  68.6223452  15.3907902 111.6726271  68.4385002  12.0658001 112.1105716
  68.3833806  11.9002273 111.1694160  67.8131057  12.7734034 112.2667906
  65.7530909  14.3706913 131.4359279  66.6222069  14.5447565 131.0745914
  65.2737660  15.1901330 131.3135008  61.7481127   1.5666110 111.6891034
  61.7359797   2.5107950 111.8459305  62.6404549   1.3836256 111.3950495
  59.9217089  21.4904014 123.1148712  60.8244336  21.5227624 123.4315207
  59.6954459  20.5604465 123.1295048  61.6770691  20.2435001 119.7758791
  60.7266322  20.2436862 119.6623163  61.9803177  19.4967735 119.2594826
  65.5633247  -1.8391113 115.9436971  64.7965642  -2.3932626 116.0893653
  65.9743952  -1.7669244 116.8051123  77.4123385  26.0795539 120.8404553
  78.0501795  25.9602286 120.1367893  77.2944228  27.0276383 120.8992505
  74.2213091  26.0322967 120.7766078  73.8831602  25.9164032 119.8886613
  75.0902859  25.6314132 120.7567084  70.0799907  27.8858443 116.7662969
  69.5164772  27.7948380 115.9979257  69.9652302  27.0658348 117.2465461
  74.7032874  27.1857819 126.7352283  74.6921515  26.7910617 125.8632787
  74.8653513  26.4523891 127.3286055  67.6264339  29.3809635 119.6047189
  68.4185630  29.0400460 119.1893489  67.8660989  29.4904610 120.5249343
  75.6599465  31.5529411 112.0777434  75.0087445  32.1383492 111.6911448
  76.4543828  32.0835606 112.1372471  69.5855093  28.6418548 112.4764568
  70.3585969  28.0947535 112.3377444  69.9380491  29.5062798 112.6879030
  71.4240135  29.9694931 125.6831467  71.1330001  30.8740561 125.5678134
  72.0597119  30.0111458 126.3975537  72.3496342  27.3471779 122.2732827
  72.9459914  27.1227802 121.5589790  72.4071313  26.6056525 122.8758275
  71.9221370  24.8011214 110.1083018  72.1746891  24.2792736 109.3466481
  70.9845929  24.6377360 110.2109702  76.9664653  23.8046993 117.9157761
  77.7527742  23.3866416 117.5648178  77.2303357  24.7093085 118.0839410
  77.1374731  29.2419843 112.6146418  76.5020563  29.3154470 113.3267323
  76.8072137  29.8313442 111.9365497  82.3673080  23.7422226 118.8190740
  83.0998252  23.1721443 119.0528569  81.6112436  23.3543826 119.2597245
  71.6417659  26.7039320 112.3107393  71.5253917  26.0284224 112.9788477
  71.7519919  26.2171694 111.4939546  73.9849200  26.1649468 116.0154082
  73.6207407  25.6380088 116.7267004  74.8416316  25.7747937 115.8420568
  79.8898501  17.4543800 123.2785348  79.5581825  18.3239211 123.0546563
  79.2944114  17.1380084 123.9579379  73.6254687  21.1939367 111.0115431
  73.7929089  22.0619604 111.3785902  73.4351856  21.3566649 110.0876720
  76.3830020  29.6556346 122.6781261  76.0830743  30.5581385 122.5697068
  76.0381080  29.3888529 123.5302414  69.8342502  26.1070143 118.7117966
  68.9092998  25.9746357 118.9195657  70.0826915  26.8864362 119.2087908
  79.7827164  22.1738886 120.3578698  78.8744041  22.1054295 120.0637459
  79.7314760  22.6510831 121.1860524  73.6043908  23.6497025 111.9962098
  73.4843533  24.0954075 112.8347578  72.9096496  23.9982342 111.4375636
  67.1951313  25.7503417 119.5461755  67.3243694  26.0037895 120.4601166
  66.5148764  26.3431125 119.2266410  71.3650800  36.4200666 115.6452229
  71.2874830  37.3708492 115.7240709  70.7612444  36.0746539 116.3027155
  73.8568030  23.5928532 128.3013596  73.0801364  24.1522452 128.2916460
  74.4958593  24.0785315 128.8228466  81.6488810  20.3755325 122.1356572
  81.0063191  20.6687858 121.4896367  81.1443739  20.2608245 122.9409769
  79.3028974  24.1218498 112.8242432  80.2146830  24.3545885 112.6490129
  78.7938621  24.7055542 112.2617510  72.1114402  26.4013985 127.8631563
  72.8529086  26.9399029 127.5866386  71.4051388  27.0280274 128.0203115
  77.5869742  28.5443126 126.4603724  77.9953098  28.1025536 125.7158357
  76.8647003  27.9695753 126.7137917  73.9400812  23.4815732 123.8337281
  74.7862007  23.9055146 123.9771930  73.8799449  22.8249357 124.5275844
  77.9098556  29.1044316 120.2156013  77.2807419  29.2690030 119.5132081
  77.5224218  29.5185926 120.9866977  81.7887788  30.0398754 117.5700377
  81.1038826  30.4197656 117.0197410  81.8731638  30.6494081 118.3032325
  77.0900257  21.1420101 125.4918455  76.8461189  21.8962161 124.9552731
  77.3660188  21.5205448 126.3265702  79.0438720  27.6858713 124.1695720
  79.2555615  28.3290473 123.4930101  78.9968468  26.8521030 123.7017650
  76.6464949  20.2976534 121.0732293  75.7849428  20.5957787 121.3649030
  76.6727383  20.5146933 120.1413325  73.4626518  28.8418724 117.4806098
  73.9264864  29.1206427 116.6910721  73.1983316  27.9402169 117.2979189
  70.3550599  28.3890206 120.4185861  70.9251956  28.8177474 119.7803346
  70.9458711  28.1072791 121.1170047  72.3995404  24.9641877 114.2895663
  73.1019448  25.4162920 114.7569590  72.0676033  24.3225696 114.9175556
  70.8475766  23.5553633 128.6646873  70.2174426  24.2369914 128.8982270
  70.7411854  23.4436715 127.7200011  66.1420738  23.2225429 119.5912797
  65.3519792  23.4782958 119.1152908  66.6331986  24.0373767 119.6964837
  80.1584548  30.5630669 122.3418078  80.9801992  30.1610856 122.0600759
  80.1546951  30.4598903 123.2934194  68.0935484  23.5870009 116.5496274
  67.2966647  23.6988703 117.0679769  67.8661076  23.9256661 115.6837164
  73.9241151  30.1114712 124.4978788  73.9885584  30.5735119 125.3336960
  73.2152075  29.4812077 124.6261098  64.4258441  23.4755920 122.0227788
  64.6766480  24.3602930 122.2885364  64.9617990  23.2960521 121.2502880
  88.2490541  26.9069417 118.6903049  87.4954249  26.3376815 118.5347054
  88.3838082  26.8732082 119.6373684  73.6389169  31.7782819 114.3657769
  73.5034844  32.6234355 114.7942616  74.1798981  31.9802097 113.6023702
  70.1256509  17.8574399 131.0272124  69.7323454  17.3040598 131.7019768
  70.9422649  18.1684978 131.4178641  67.0918566  29.2958257 114.9385694
  67.6043087  30.0901508 115.0891258  67.7441279  28.5984548 114.8719295
  68.9013451  32.4124014 117.0208447  69.0780079  33.3341978 116.8329431
  69.6970284  32.0982433 117.4502827  73.0424470  19.2732278 128.6192380
  73.7834183  19.8739432 128.5396843  73.2742392  18.5309916 128.0610423
  68.1865808  24.4588646 126.8970610  68.0719323  23.5573903 127.1977709
  67.3310325  24.7052342 126.5455427  75.2657645  32.4006386 128.4958111
  74.8221499  31.6142764 128.1779015  75.9274859  32.5885536 127.8302001
  70.0244766  33.9302188 123.0218789  70.5752192  33.8019251 122.2495783
  69.1856242  34.2297077 122.6713682  77.3638883  32.6809186 126.5239512
  77.3457359  33.5018067 126.0319781  78.2858803  32.5563261 126.7489653
  73.8211937  30.1953315 127.3663020  74.3540274  29.4341604 127.1362328
  73.2926019  29.9026967 128.1087175  76.9881632  15.3013381 122.8956662
  76.6445902  16.1915023 122.8195773  77.3560595  15.1115039 122.0326247
  65.0567483  27.6246912 115.7145264  65.8942705  28.0343920 115.4978972
  65.2345751  26.6846354 115.6845458  76.9531915  25.2921992 111.4029097
  76.4378539  26.0626597 111.6417485  76.6809224  24.6187129 112.0262159
  74.5379026  20.1371693 116.4614336  73.6820623  19.7478544 116.2819974
  74.9505978  20.2163654 115.6014121  76.0678173  17.6718036 120.8605895
  75.5642968  17.6348172 120.0473701  76.3608780  18.5810779 120.9202552
  72.3121059  17.7556766 119.8672077  73.1774055  17.5599575 119.5077967
  72.3798568  17.5267118 120.7941434  81.9266189  28.0454347 113.3382271
  81.1495632  27.7065507 112.8937433  82.6057670  28.0506970 112.6637236
  76.7418218  23.1649085 113.2288878  76.4368354  23.4795234 114.0799022
  77.6948660  23.2430504 113.2716211  75.1864650  29.3239308 114.8781832
  74.6586012  28.5892067 114.5655070  74.6852153  30.1013984 114.6321801
  80.1657496  27.5188328 119.9948879  79.5081171  28.2087590 120.0829007
  80.9697895  27.9084760 120.3382865  69.9183378  19.9858974 117.2388444
  70.4927130  19.7634156 116.5061637  70.5054360  20.0547669 117.9917045
  78.9762955  25.8732701 118.0452820  79.4894837  26.5062693 118.5474530
  79.6264179  25.2733897 117.6796180  70.2452965  22.0163435 111.2584329
  69.4090277  22.3538122 111.5793604  70.1057735  21.8812415 110.3211466
  72.2206046  16.8600223 115.9663513  71.5670458  16.5449240 115.3420128
  72.1786520  16.2375963 116.6923336  73.3317250  27.1419518 107.8816805
  72.4244312  26.9108772 108.0807954  73.8288282  26.3457137 108.0690787
  76.2385329  35.8517025 110.8013492  75.5647028  36.1548722 111.4098449
  76.6251151  36.6546106 110.4518949  75.4543786  23.3482157 120.2911161
  74.5366347  23.5697104 120.1332849  75.8703929  23.4228467 119.4322868
  76.2378834  24.7473572 115.4213841  76.9850653  25.2594969 115.1120963
  76.5070423  24.4257625 116.2818235  74.5105484  27.2432113 112.4040795
  73.6016703  26.9591146 112.5013265  74.5400568  27.6631192 111.5444102
  79.7424751  30.8538702 116.1731963  79.2887078  30.0129612 116.2297153
  79.1118718  31.4900101 116.5106743  78.6857671  21.7830688 117.4032630
  77.9480428  21.2708075 117.7342873  78.9384444  21.3431070 116.5915907
  78.1857690  32.6915199 117.1081781  78.4780665  33.2520256 116.3894147
  78.6956311  32.9843760 117.8634940  78.7869298  14.5606940 117.9974400
  79.0928175  13.7004304 117.7100315  79.5121903  15.1524561 117.7973394
  65.0793654  24.9637627 116.3855998  64.8818054  24.3706988 115.6607064
  64.5240318  24.6589837 117.1031936  73.0590378  24.8560734 118.5050591
  73.1138988  23.9034570 118.4293067  72.2481580  25.0120173 118.9891889
  74.2081572  28.7840857 109.7428874  73.7701002  28.0676716 109.2834511
  74.9492012  29.0116971 109.1813965  70.9982738  23.4737793 116.2640970
  70.1850603  23.7731964 116.6706162  71.4941732  23.0793482 116.9815452
  73.1491316  33.4695550 118.1975234  73.1067494  33.6956397 117.2683766
  74.0654015  33.2358925 118.3461036  76.5956949  23.9379618 125.0955864
  76.9506337  24.1651091 125.9550329  77.2429081  24.2697995 124.4733119
  82.3254686  27.0598054 115.8005193  82.1872585  27.2499650 114.8726382
  81.9690905  27.8217436 116.2573244  70.4896813  21.0456149 121.8802205
  71.1296192  20.9044908 121.1825168  69.6574343  20.7590662 121.5040807
  82.3524066  29.1274581 120.8116464  82.7860573  29.0349870 121.6599518
  83.0655647  29.1032081 120.1736480  71.2657116  30.3458579 117.9937197
  72.0597715  29.8508899 117.7919772  70.5548809  29.8176442 117.6304903
  76.0851961  32.7276675 122.3449565  76.1388983  33.2967611 123.1127281
  75.2166742  32.8978560 121.9803602  67.5739880  24.4901661 114.0696950
  66.6437468  24.4286116 114.2866912  67.6697352  23.9677614 113.2733591
  67.4925429  21.0156474 116.6575191  67.7532246  21.9301807 116.5484352
  68.3142601  20.5480916 116.8071804  68.9650354  22.4294231 123.8274016
  69.6373408  22.2211593 123.1786665  68.1380141  22.2316317 123.3879248
  83.2139616  29.1698281 123.3449350  83.4075506  30.0744092 123.5908624
  83.1140234  28.7105700 124.1787935  74.8675926  19.0556172 125.8439677
  74.2203841  19.7546122 125.7504153  75.6376942  19.4892316 126.2115925
  78.2754724  29.3205024 128.9190230  78.1240231  29.0915576 128.0020314
  78.2659404  30.2775625 128.9321575  75.0440061  26.8936937 123.9036497
  75.9732121  27.0448096 123.7305464  74.6231091  26.9820958 123.0485143
  73.8428392  30.9187601 121.6735034  73.7039478  30.5506386 122.5460972
  73.0542989  31.4335241 121.5018992  74.4376544  36.0196698 113.0160571
  74.6128300  35.5484741 113.8306193  73.7509332  36.6462464 113.2441831
  75.3933608  30.2969204 119.0623872  75.0583440  30.2569974 119.9581522
  74.8937553  29.6313920 118.5894282  69.3677852  25.7036834 124.5876453
  69.2297649  24.9717073 125.1887992  70.2782775  25.6145734 124.3060641
  78.3292799  27.6425238 109.3360932  77.7121970  26.9172066 109.2393984
  77.8609288  28.4034599 108.9928006  71.9960152  25.4156793 124.0760133
  72.7059771  24.7749985 124.0346751  71.9529460  25.6669688 124.9986314
  79.9846931  32.3524147 126.9966712  79.9259477  31.6683367 126.3297295
  80.3866449  33.0943137 126.5447338  70.7089086  22.4022011 125.8955772
  70.1726443  21.9512750 126.5477369  70.1205795  22.5367920 125.1526237
  69.0037630  39.1686060 119.7900431  69.2434228  39.8004585 120.4679449
  68.1606826  38.8174100 120.0765790  70.1191345  21.8610663 108.4582236
  69.2420811  21.7399463 108.0944483  70.5949098  21.0696741 108.2061125
  79.9864338  30.3163731 125.2280692  79.0991117  29.9789652 125.3507091
  80.5562889  29.5846762 125.4649457  61.6393485  26.6487822 118.5523743
  62.3264525  26.3349552 117.9644758  61.4841614  27.5529187 118.2790994
  66.4428207  21.5378019 122.9808767  66.3586396  20.9303688 122.2459177
  65.6210914  22.0287037 122.9818263  73.5165492  34.9765183 122.1941935
  73.4435663  35.7820154 122.7061239  73.0742885  35.1757149 121.3689956
  73.3055271  34.2136953 115.7044756  72.5222793  34.7558633 115.7982981
  74.0048016  34.7310933 116.1038998  76.6151921  20.0231582 118.3478962
  77.1120621  19.2701545 118.0280032  75.8438903  20.0595899 117.7822171
  84.4681679  25.7271948 119.9897253  84.4571555  26.6096663 119.6191186
  83.5999058  25.3743499 119.7951790  75.9764175  34.8752017 124.3500094
  76.6892147  35.5099482 124.2775995  75.4854204  34.9715883 123.5340095
  77.6981702  28.7803270 115.9217385  76.7637981  28.9004732 115.7522090
  77.8758370  27.8775736 115.6577395  73.1986890  22.1648965 118.0750646
  72.8284678  21.6120006 118.7631552  73.6945982  21.5607099 117.5225646
  81.0854253  24.6220589 116.4567419  81.5514706  25.4548580 116.3827722
  81.5361754  24.1565570 117.1612678  71.0276089  32.6246460 125.1705664
  71.7285548  33.2582943 125.3235059  70.5571204  32.9661192 124.4101304
  79.1530484  30.9664410 113.4553571  79.4290328  30.8521005 114.3647445
  78.2834983  30.5681895 113.4165744  79.0570916  16.9901176 120.4958321
  78.1433996  17.2205403 120.6640528  79.4864018  17.0739620 121.3472353
  78.8277375  25.1791068 122.9958215  78.1748825  25.4266975 122.3410667
  79.2057754  24.3655206 122.6620692  75.7884548  35.2150761 117.0986385
  75.9706943  34.3972417 117.5614137  76.6117534  35.4318453 116.6611275
  76.1226714  34.1418946 114.3601433  76.6514480  33.6311401 113.7471596
  76.3854934  33.8261476 115.2246966  74.8764948  25.9210879 129.4824252
  74.2005585  25.8205008 130.1526627  75.6992581  25.7650093 129.9460249
  66.6243807  32.1582815 122.1036767  67.2097243  31.4126503 122.2364671
  66.4268645  32.4686772 122.9873431  69.4782462  35.1934063 117.1199209
  68.8092837  35.6780190 116.6363249  69.3395332  35.4403283 118.0342588
  61.2161461  24.7288416 120.8241210  61.2545561  24.1952006 121.6178328
  60.7101754  24.2023621 120.2052187  73.6187730  37.2277806 123.7181868
  74.1706038  37.3909428 124.4830953  73.9593924  37.8182244 123.0461893
  68.5952224  19.5752956 124.3203752  68.6593550  20.4367787 123.9081150
  68.5319344  18.9626958 123.5876111  68.0704496  21.6476089 127.9676787
  68.6976535  21.2653166 128.5814311  67.2132415  21.4290291 128.3332479
  78.4698605  32.0539064 129.5730522  79.0138509  32.6669022 129.0785477
  77.8885450  32.6118642 130.0897535  64.8470039  23.4552518 113.8995142
  65.1423480  22.5463196 113.8462195  63.9458075  23.4340257 113.5776144
  76.7556118  35.1759782 120.7045550  76.6307257  34.3749522 120.1956495
  77.4135209  35.6705975 120.2159520  68.3764286  21.5308514 119.8822690
  67.6550872  22.1444482 119.7430163  69.1657542  22.0666279 119.8039336
  78.8191026  32.9768802 122.3325100  77.8721362  32.8574153 122.2603427
  79.1673799  32.0891300 122.4151361  71.1790599  18.8662941 126.1563342
  71.7025001  19.1125237 126.9189651  70.9602933  19.6982976 125.7366479
  66.5757881  21.1366615 114.0234467  66.2470587  20.2563994 113.8409573
  66.9297251  21.0814284 114.9110856  75.8237459  32.7721518 118.5329452
  75.6762422  31.8438226 118.7137022  76.6490953  32.7941609 118.0486527
  69.6899704  21.4239585 114.3909944  70.0295776  21.9525507 113.6688553
  70.1371824  21.7619991 115.1668511  79.4271581  33.5950077 119.6194325
  80.3518129  33.3892938 119.4818776  79.2586885  33.3466478 120.5283666
  72.3843145  19.8076636 123.8413012  72.0439965  19.0084449 124.2433692
  71.6782151  20.1078347 123.2689846  73.0359616  16.8925948 122.2940335
  73.8585686  16.4186427 122.1719226  73.2797680  17.6716432 122.7939022
  71.6767851  19.9214207 112.5903237  72.3976213  20.2995460 112.0866954
  71.0533155  20.6403084 112.6938215  75.8198974  20.6259356 113.5261569
  76.0362588  21.5083994 113.2250398  75.3393041  20.2345569 112.7967211
  70.5598195  23.5845069 120.1032314  70.4142776  23.8985372 120.9956596
  70.0823399  24.2029969 119.5503213  72.4194578  20.5747617 120.1513204
  72.4056147  19.6788710 119.8145502  73.1367006  20.5818281 120.7851490
  74.2720709  21.0084957 122.1966331  74.0138487  21.9302028 122.1950661
  73.7405749  20.6115392 122.8866795  79.2166897  34.1135744 114.9756416
  79.3903775  33.5482167 114.2230269  79.7095789  34.9136639 114.7935906
  65.0343857  26.1250413 123.0419975  64.4897325  26.9010221 123.1740250
  65.9123207  26.4721218 122.8839097  71.8231474  19.4561997 115.4200774
  71.9447385  18.5278644 115.6191661  71.5333516  19.4700683 114.5079089
  74.6922664  17.1416908 118.5567494  74.7144361  17.2056241 117.6019473
  75.1090723  16.3021416 118.7508000  85.0706289  26.8772167 116.5946716
  85.5137435  26.1279493 116.1965839  84.1932799  26.8682304 116.2120448
  80.2042070  33.4302509 112.0753315  80.8992975  34.0509201 112.2940629
  80.5465220  32.5797860 112.3505693  65.8209879  25.2520310 125.9350132
  65.0791615  25.4002945 126.5214763  65.5002623  25.5128575 125.0716882
  82.1033493  30.8802214 113.6040645  82.6284817  31.2189487 112.8789966
  82.0155846  29.9449230 113.4203780  73.7653542  34.7936288 125.7330522
  74.0740668  34.5485435 126.6053222  74.5629024  34.9982926 125.2449392
  73.7874154  36.9474198 117.9635899  73.3479144  36.4550576 118.6568755
  74.5382271  36.4047165 117.7227974  66.2666493  33.1385738 117.9660527
  67.0924513  32.8389510 117.5859170  65.9160545  32.3693361 118.4150315
  71.2348026  32.4912207 120.0358200  70.6128035  31.8282912 119.7360428
  71.9052893  32.5173339 119.3531848  64.4675098  31.0572065 118.9249460
  63.6307006  30.6294239 118.7433462  64.4398743  31.2504508 119.8620252
  71.3072553  20.9693995 129.6290706  71.3560709  21.8456118 129.2468476
  71.8495068  20.4271388 129.0562350  81.7927399  31.5135118 128.9091843
  81.0022943  31.4959257 128.3696343  81.5560754  32.0523412 129.6640880
  81.9125274  28.3627584 126.2224572  81.9623279  28.1977592 127.1640095
  81.8039198  27.4954843 125.8322453  70.7961533  31.0416130 113.5116661
  70.9449653  31.7251594 112.8583334  71.6027976  31.0221220 114.0266117
  79.2029037  24.3458512 127.5383879  80.1038899  24.2064977 127.2467876
  79.2777011  24.5112967 128.4782056  73.5371842  21.7225367 126.3837065
  72.6675151  22.0158933 126.1119654  73.7731322  22.3065812 127.1044329
  83.4143471  30.7824526 126.4666594  83.1228279  31.1454506 127.3030054
  82.8015602  30.0691534 126.2879926  84.6139153  28.3477406 118.9869164
  85.4486045  28.7867210 119.1506724  84.7498282  27.8716059 118.1677410
  81.6630659  25.9057140 124.9346652  82.1384781  26.0984787 124.1265503
  80.7396225  25.9616326 124.6890035  68.5514166  27.0681308 114.5177730
  68.3060208  26.1643638 114.7157940  68.7210080  27.0698458 113.5757208
  76.2410876  17.9404984 123.9002485  76.7592820  18.6766011 123.5748974
  75.8866009  18.2468977 124.7349245  67.8209813  22.8009665 112.0163891
  67.1279058  22.8754020 111.3603927  67.5761565  22.0370009 112.5385408
  76.4923470  14.3605267 119.4203382  76.7725224  13.6928456 120.0463809
  77.2774077  14.5534362 118.9078046  74.2956938  33.5364260 110.9828408
  73.7230906  34.1554448 110.5298880  74.8689732  34.0863622 111.5168330
  80.3632328  22.7822901 123.1674957  81.3149751  22.8820998 123.1887181
  80.1935779  21.9901169 123.6773041  78.3846708  19.8678484 123.3534358
  77.7896640  20.1483496 122.6580847  78.0996404  20.3572385 124.1251099
  77.5154198  33.8201411 112.1136991  78.4484871  33.7546972 112.3169866
  77.4277411  34.6557677 111.6551523  80.1442215  33.1367281 109.0740938
  80.0655846  32.8027145 109.9676696  80.9651882  33.6289049 109.0732411
  82.8420406  26.0029020 122.2817257  82.8096726  25.0645021 122.4676941
  83.4521030  26.0813057 121.5483082  74.6803737  24.8725073 108.3244461
  75.6262842  24.7431281 108.3932879  74.3017982  24.1339735 108.8013889
  82.9914895  22.7940064 122.3275540  82.4753943  22.0098520 122.1405469
  83.8754843  22.4658780 122.4922059  80.6525621  16.5381079 118.2871353
  80.4550443  16.2296167 119.1714685  81.2625327  17.2642718 118.4169282
  88.6596956  27.0645027 121.4223294  89.3900344  26.8030315 121.9830997
  88.0503901  26.3273749 121.4625362  86.7412253  25.2052890 122.0197745
  86.0145417  25.0708855 121.4114236  86.3259540  25.5129718 122.8254463
  74.5642429  28.9242819 129.7845118  75.4845439  29.1021418 129.9785164
  74.5292012  27.9798865 129.6324817  72.8646654  22.7975050 108.2599346
  71.9578109  22.5008162 108.3362060  73.1422635  22.5004868 107.3933632
  63.7824594  24.1181413 118.7098392  63.4627379  23.2646721 118.4172766
  63.2358023  24.3329991 119.4656360  67.5604502  26.8343854 122.4267899
  67.7790512  27.7660962 122.4455933  67.9730276  26.4751828 123.2122703
  74.4808720  17.3411939 114.4143587  73.6709448  16.9959024 114.7898833
  75.1693137  17.0319483 115.0031199  76.4099268  16.4189986 116.0367884
  76.9630307  16.8385440 116.6957907  76.6469354  15.4925734 116.0790840
  72.4332367  22.4077060 131.8170648  72.3329094  23.3571417 131.7482739
  72.2153909  22.0795299 130.9446718  71.6345439  19.6561985 108.4011325
  72.4964603  19.9816883 108.6607143  71.8195783  18.8693481 107.8884391
  63.6512854  27.7384324 120.6791514  62.9576326  27.3238277 120.1661468
  64.3985845  27.7804861 120.0824933  79.7878075  18.5290511 115.5446548
  79.2076744  19.1875315 115.1624601  79.5214008  17.7067856 115.1333966
  78.2381642  17.9295569 117.7467869  78.7381420  18.0412104 116.9382187
  78.8817249  17.6256622 118.3868677  72.2963637  25.8374199 130.6335710
  71.8130719  26.6374559 130.8399599  72.3824576  25.8482143 129.6803154
  65.5649597  27.6702578 118.5557529  65.5420285  27.7690266 117.6039412
  65.8750233  28.5167729 118.8774695  68.2236975  29.7278733 122.6704143
  69.1780228  29.6962676 122.6034075  68.0249498  29.2669357 123.4854369
  68.8136357  28.2979849 125.2374941  69.6329246  28.7923928 125.2609778
  69.0873165  27.3811817 125.2092508  78.5702953  20.6890602 114.6002897
  77.6828808  20.9740252 114.3823091  78.9856942  20.5284365 113.7530173
  81.9217489  20.7137123 118.3157236  82.6977879  21.2033575 118.5881853
  81.1965623  21.1395177 118.7729105  84.3590048  21.4264742 119.3731176
  84.9534539  21.1860478 118.6624485  84.4316632  20.7071872 120.0004713
  66.5787204  35.2698353 119.6874341  66.4441672  34.5098754 119.1212339
  66.1619266  35.9939253 119.2203130  77.7146167  30.4535276 108.6950916
  78.4182017  30.6585279 109.3108572  76.9908815  31.0212038 108.9600000
  78.5443977  26.2045138 114.8153187  78.4879178  26.6613689 113.9760819
  79.0972319  25.4435822 114.6376029  82.3548783  21.9934869 115.6403306
  82.0985717  21.5931505 116.4711514  81.7301651  22.7078663 115.5153445
  86.6661121  24.7330943 118.1474598  86.1060679  24.8024132 118.9206160
  86.0604624  24.5571927 117.4274094  69.7356330  36.1667670 119.8992784
  69.6188714  37.1113102 119.7971474  68.9148776  35.8641231 120.2878583
  79.6232864  30.8917806 110.7449377  80.4578468  30.4599004 110.5626851
  79.4617207  30.7199819 111.6726271  79.2778756  27.3949919 112.1105716
  79.2227560  27.2294190 111.1694160  78.6524812  28.1025952 112.2667906
  64.0671271  22.6317983 125.9367138  64.7130135  22.1216937 126.4254363
  63.8588422  23.3686665 126.5110563  76.5924663  29.6998831 131.4359279
  77.4615823  29.8739483 131.0745914  76.1131415  30.5193248 131.3135008
  72.5874882  16.8958028 111.6891034  72.5753552  17.8399868 111.8459305
  73.4798304  16.7128173 111.3950495  70.7610844  36.8195932 123.1148712
  71.6638090  36.8519542 123.4315207  70.5348214  35.8896383 123.1295048
  72.5164446  35.5726918 119.7758791  71.5660077  35.5728780 119.6623163
  72.8196932  34.8259653 119.2594826  76.4027001  13.4900804 115.9436971
  75.6359397  12.9359291 116.0893653  76.8137706  13.5622673 116.8051123
  68.4068762  19.7785600 130.0342152  69.2700224  19.4222405 130.2445477
  67.8334173  19.4399495 130.7217557  88.2517139  41.4087457 120.8404553
  88.8895549  41.2894204 120.1367893  88.1337982  42.3568301 120.8992505
  85.0606845  41.3614885 120.7766078  84.7225357  41.2455949 119.8886613
  85.9296614  40.9606050 120.7567084  80.9193661  43.2150361 116.7662969
  80.3558526  43.1240298 115.9979257  80.8046056  42.3950266 117.2465461
  85.5426628  42.5149736 126.7352283  85.5315269  42.1202535 125.8632787
  85.7047268  41.7815809 127.3286055  78.4658093  44.7101553 119.6047189
  79.2579385  44.3692377 119.1893489  78.7054743  44.8196528 120.5249343
  86.4993220  46.8821329 112.0777434  85.8481200  47.4675409 111.6911448
  87.2937583  47.4127524 112.1372471  80.4248847  43.9710466 112.4764568
  81.1979723  43.4239453 112.3377444  80.7774246  44.8354715 112.6879030
  82.2633890  45.2986848 125.6831467  81.9723756  46.2032479 125.5678134
  82.8990874  45.3403376 126.3975537  83.1890096  42.6763697 122.2732827
  83.7853669  42.4519719 121.5589790  83.2465068  41.9348442 122.8758275
  82.7615125  40.1303132 110.1083018  83.0140646  39.6084653 109.3466481
  81.8239684  39.9669278 110.2109702  87.8058408  39.1338910 117.9157761
  88.5921497  38.7158334 117.5648178  88.0697112  40.0385003 118.0839410
  87.9768485  44.5711761 112.6146418  87.3414318  44.6446387 113.3267323
  87.6465891  45.1605360 111.9365497  93.2066835  39.0714144 118.8190740
  93.9392007  38.5013361 119.0528569  92.4506190  38.6835744 119.2597245
  82.4811414  42.0331238 112.3107393  82.3647672  41.3576141 112.9788477
  82.5913673  41.5463612 111.4939546  84.8242954  41.4941385 116.0154082
  84.4601162  40.9672006 116.7267004  85.6810070  41.1039854 115.8420568
  90.7292255  32.7835718 123.2785348  90.3975580  33.6531129 123.0546563
  90.1337869  32.4672002 123.9579379  84.4648441  36.5231285 111.0115431
  84.6322844  37.3911521 111.3785902  84.2745611  36.6858567 110.0876720
  87.2223775  44.9848264 122.6781261  86.9224498  45.8873303 122.5697068
  86.8774834  44.7180447 123.5302414  80.6736256  41.4362061 118.7117966
  79.7486753  41.3038275 118.9195657  80.9220669  42.2156280 119.2087908
  90.6220918  37.5030804 120.3578698  89.7137796  37.4346212 120.0637459
  90.5708514  37.9802749 121.1860524  84.4437662  38.9788942 111.9962098
  84.3237288  39.4245993 112.8347578  83.7490251  39.3274260 111.4375636
  78.0345067  41.0795334 119.5461755  78.1637448  41.3329813 120.4601166
  77.3542518  41.6723042 119.2266410  82.2044554  51.7492584 115.6452229
  82.1268584  52.7000409 115.7240709  81.6006198  51.4038457 116.3027155
  84.6961784  38.9220450 128.3013596  83.9195118  39.4814370 128.2916460
  85.3352347  39.4077233 128.8228466  92.4882565  35.7047242 122.1356572
  91.8456945  35.9979776 121.4896367  91.9837493  35.5900163 122.9409769
  90.1422729  39.4510416 112.8242432  91.0540585  39.6837802 112.6490129
  89.6332376  40.0347460 112.2617510  82.9508157  41.7305903 127.8631563
  83.6922841  42.2690947 127.5866386  82.2445142  42.3572192 128.0203115
  88.4263496  43.8735043 126.4603724  88.8346852  43.4317454 125.7158357
  87.7040758  43.2987671 126.7137917  84.7794566  38.8107650 123.8337281
  85.6255761  39.2347064 123.9771930  84.7193204  38.1541274 124.5275844
  88.7492311  44.4336234 120.2156013  88.1201173  44.5981948 119.5132081
  88.3617973  44.8477844 120.9866977  92.6281543  45.3690672 117.5700377
  91.9432581  45.7489573 117.0197410  92.7125392  45.9785999 118.3032325
  87.9294012  36.4712019 125.4918455  87.6854943  37.2254079 124.9552731
  88.2053942  36.8497366 126.3265702  89.8832474  43.0150631 124.1695720
  90.0949370  43.6582391 123.4930101  89.8362223  42.1812947 123.7017650
  87.4858703  35.6268452 121.0732293  86.6243182  35.9249705 121.3649030
  87.5121138  35.8438850 120.1413325  84.3020273  44.1710642 117.4806098
  84.7658618  44.4498345 116.6910721  84.0377071  43.2694087 117.2979189
  81.1944354  43.7182124 120.4185861  81.7645711  44.1469392 119.7803346
  81.7852466  43.4364708 121.1170047  83.2389159  40.2933794 114.2895663
  83.9413202  40.7454838 114.7569590  82.9069787  39.6517613 114.9175556
  81.6869520  38.8845551 128.6646873  81.0568181  39.5661832 128.8982270
  81.5805608  38.7728633 127.7200011  76.9814493  38.5517347 119.5912797
  76.1913547  38.8074876 119.1152908  77.4725740  39.3665685 119.6964837
  90.9978302  45.8922586 122.3418078  91.8195746  45.4902774 122.0600759
  90.9940705  45.7890820 123.2934194  78.9329238  38.9161926 116.5496274
  78.1360401  39.0280621 117.0679769  78.7054830  39.2548579 115.6837164
  84.7634906  45.4406630 124.4978788  84.8279338  45.9027037 125.3336960
  84.0545830  44.8103995 124.6261098  75.2652196  38.8047838 122.0227788
  75.5160234  39.6894848 122.2885364  75.8011744  38.6252439 121.2502880
  99.0884295  42.2361335 118.6903049  98.3348004  41.6668733 118.5347054
  99.2231837  42.2023999 119.6373684  84.4782923  47.1074737 114.3657769
  84.3428598  47.9526273 114.7942616  85.0192736  47.3094015 113.6023702
  80.9650263  33.1866317 131.0272124  80.5717209  32.6332516 131.7019768
  81.7816403  33.4976895 131.4178641  77.9312321  44.6250175 114.9385694
  78.4436841  45.4193425 115.0891258  78.5835034  43.9276466 114.8719295
  79.7407205  47.7415931 117.0208447  79.9173834  48.6633896 116.8329431
  80.5364039  47.4274351 117.4502827  83.8818224  34.6024196 128.6192380
  84.6227937  35.2031349 128.5396843  84.1136147  33.8601834 128.0610423
  79.0259562  39.7880563 126.8970610  78.9113077  38.8865821 127.1977709
  78.1704080  40.0344260 126.5455427  86.1051400  47.7298304 128.4958111
  85.6615254  46.9434682 128.1779015  86.7668613  47.9177454 127.8302001
  80.8638521  49.2594105 123.0218789  81.4145946  49.1311169 122.2495783
  80.0249997  49.5588994 122.6713682  88.2032638  48.0101104 126.5239512
  88.1851113  48.8309985 126.0319781  89.1252558  47.8855179 126.7489653
  84.6605692  45.5245233 127.3663020  85.1934029  44.7633521 127.1362328
  84.1319773  45.2318885 128.1087175  87.8275387  30.6305299 122.8956662
  87.4839656  31.5206941 122.8195773  88.1954350  30.4406957 122.0326247
  75.8961238  42.9538829 115.7145264  76.7336460  43.3635838 115.4978972
  76.0739505  42.0138272 115.6845458  87.7925670  40.6213910 111.4029097
  87.2772293  41.3918515 111.6417485  87.5202978  39.9479046 112.0262159
  85.3772781  35.4663611 116.4614336  84.5214377  35.0770461 116.2819974
  85.7899732  35.5455572 115.6014121  86.9071927  33.0009954 120.8605895
  86.4036723  32.9640089 120.0473701  87.2002534  33.9102697 120.9202552
  83.1514813  33.0848684 119.8672077  84.0167810  32.8891493 119.5077967
  83.2192322  32.8559036 120.7941434  92.7659944  43.3746265 113.3382271
  91.9889387  43.0357424 112.8937433  93.4451425  43.3798888 112.6637236
  87.5811973  38.4941002 113.2288878  87.2762108  38.8087151 114.0799022
  88.5342415  38.5722422 113.2716211  86.0258405  44.6531226 114.8781832
  85.4979766  43.9183985 114.5655070  85.5245907  45.4305902 114.6321801
  91.0051251  42.8480246 119.9948879  90.3474925  43.5379507 120.0829007
  91.8091650  43.2376678 120.3382865  80.7577132  35.3150892 117.2388444
  81.3320884  35.0926073 116.5061637  81.3448115  35.3839586 117.9917045
  89.8156709  41.2024619 118.0452820  90.3288591  41.8354611 118.5474530
  90.4657933  40.6025814 117.6796180  81.0846719  37.3455353 111.2584329
  80.2484032  37.6830039 111.5793604  80.9451489  37.2104333 110.3211466
  83.0599800  32.1892141 115.9663513  82.4064212  31.8741158 115.3420128
  83.0180274  31.5667881 116.6923336  84.1711005  42.4711436 107.8816805
  83.2638067  42.2400689 108.0807954  84.6682037  41.6749055 108.0690787
  87.0779084  51.1808943 110.8013492  86.4040782  51.4840640 111.4098449
  87.4644906  51.9838023 110.4518949  86.2937540  38.6774074 120.2911161
  85.3760102  38.8989021 120.1332849  86.7097684  38.7520385 119.4322868
  87.0772588  40.0765490 115.4213841  87.8244407  40.5886887 115.1120963
  87.3464178  39.7549543 116.2818235  85.3499238  42.5724031 112.4040795
  84.4410458  42.2883063 112.5013265  85.3794322  42.9923109 111.5444102
  90.5818506  46.1830620 116.1731963  90.1280833  45.3421530 116.2297153
  89.9512472  46.8192019 116.5106743  89.5251425  37.1122606 117.4032630
  88.7874182  36.5999992 117.7342873  89.7778199  36.6722988 116.5915907
  89.0251445  48.0207117 117.1081781  89.3174419  48.5812174 116.3894147
  89.5350066  48.3135678 117.8634940  89.6263053  29.8898858 117.9974400
  89.9321929  29.0296222 117.7100315  90.3515657  30.4816478 117.7973394
  75.9187409  40.2929545 116.3855998  75.7211808  39.6998905 115.6607064
  75.3634073  39.9881755 117.1031936  83.8984132  40.1852651 118.5050591
  83.9532742  39.2326488 118.4293067  83.0875334  40.3412090 118.9891889
  85.0475326  44.1132774 109.7428874  84.6094756  43.3968633 109.2834511
  85.7885767  44.3408889 109.1813965  81.8376492  38.8029711 116.2640970
  81.0244358  39.1023882 116.6706162  82.3335486  38.4085400 116.9815452
  83.9885070  48.7987468 118.1975234  83.9461249  49.0248314 117.2683766
  84.9047769  48.5650843 118.3461036  87.4350704  39.2671535 125.0955864
  87.7900092  39.4943009 125.9550329  88.0822835  39.5989912 124.4733119
  93.1648441  42.3889971 115.8005193  93.0266339  42.5791567 114.8726382
  92.8084660  43.1509354 116.2573244  81.3290567  36.3748067 121.8802205
  81.9689946  36.2336826 121.1825168  80.4968098  36.0882580 121.5040807
  93.1917820  44.4566498 120.8116464  93.6254327  44.3641787 121.6599518
  93.9049401  44.4323999 120.1736480  82.1050871  45.6750497 117.9937197
  82.8991469  45.1800817 117.7919772  81.3942563  45.1468360 117.6304903
  86.9245715  48.0568592 122.3449565  86.9782738  48.6259529 123.1127281
  86.0560497  48.2270477 121.9803602  78.4133634  39.8193579 114.0696950
  77.4831222  39.7578034 114.2866912  78.5091106  39.2969531 113.2733591
  78.3319183  36.3448391 116.6575191  78.5926001  37.2593725 116.5484352
  79.1536356  35.8772834 116.8071804  79.8044109  37.7586149 123.8274016
  80.4767162  37.5503511 123.1786665  78.9773895  37.5608235 123.3879248
  94.0533370  44.4990199 123.3449350  94.2469260  45.4036010 123.5908624
  93.9533988  44.0397618 124.1787935  85.7069681  34.3848090 125.8439677
  85.0597596  35.0838039 125.7504153  86.4770696  34.8184234 126.2115925
  89.1148479  44.6496942 128.9190230  88.9633985  44.4207493 128.0020314
  89.1053158  45.6067543 128.9321575  85.8833815  42.2228854 123.9036497
  86.8125875  42.3740014 123.7305464  85.4624845  42.3112875 123.0485143
  84.6822147  46.2479519 121.6735034  84.5433233  45.8798303 122.5460972
  83.8936743  46.7627158 121.5018992  85.2770299  51.3488615 113.0160571
  85.4522055  50.8776659 113.8306193  84.5903087  51.9754382 113.2441831
  86.2327362  45.6261122 119.0623872  85.8977195  45.5861892 119.9581522
  85.7331308  44.9605838 118.5894282  80.2071606  41.0328752 124.5876453
  80.0691404  40.3008990 125.1887992  81.1176529  40.9437652 124.3060641
  89.1686554  42.9717156 109.3360932  88.5515724  42.2463984 109.2393984
  88.7003042  43.7326516 108.9928006  82.8353907  40.7448711 124.0760133
  83.5453525  40.1041903 124.0346751  82.7923215  40.9961606 124.9986314
  90.8240685  47.6816064 126.9966712  90.7653232  46.9975284 126.3297295
  91.2260204  48.4235054 126.5447338  81.5482841  37.7313929 125.8955772
  81.0120198  37.2804667 126.5477369  80.9599549  37.8659838 125.1526237
  79.8431384  54.4977978 119.7900431  80.0827982  55.1296502 120.4679449
  79.0000581  54.1466018 120.0765790  80.9585100  37.1902580 108.4582236
  80.0814566  37.0691381 108.0944483  81.4342853  36.3988659 108.2061125
  90.8258093  45.6455648 125.2280692  89.9384871  45.3081570 125.3507091
  91.3956644  44.9138679 125.4649457  72.4787240  41.9779740 118.5523743
  73.1658280  41.6641470 117.9644758  72.3235368  42.8821105 118.2790994
  77.2821962  36.8669937 122.9808767  77.1980151  36.2595606 122.2459177
  76.4604668  37.3578955 122.9818263  84.3559246  50.3057101 122.1941935
  84.2829418  51.1112072 122.7061239  83.9136639  50.5049066 121.3689956
  84.1449026  49.5428871 115.7044756  83.3616548  50.0850551 115.7982981
  84.8441771  50.0602850 116.1038998  87.4545676  35.3523500 118.3478962
  87.9514375  34.5993462 118.0280032  86.6832657  35.3887817 117.7822171
  95.3075433  41.0563866 119.9897253  95.2965309  41.9388581 119.6191186
  94.4392813  40.7035416 119.7951790  86.8157930  50.2043935 124.3500094
  87.5285902  50.8391399 124.2775995  86.3247958  50.3007801 123.5340095
  88.5375456  44.1095187 115.9217385  87.6031735  44.2296650 115.7522090
  88.7152125  43.2067654 115.6577395  84.0380645  37.4940883 118.0750646
  83.6678432  36.9411923 118.7631552  84.5339737  36.8899017 117.5225646
  91.9248008  39.9512507 116.4567419  92.3908460  40.7840498 116.3827722
  92.3755508  39.4857488 117.1612678  81.8669843  47.9538378 125.1705664
  82.5679303  48.5874861 125.3235059  81.3964958  48.2953110 124.4101304
  89.9924239  46.2956328 113.4553571  90.2684083  46.1812922 114.3647445
  89.1228738  45.8973813 113.4165744  89.8964671  32.3193094 120.4958321
  88.9827750  32.5497320 120.6640528  90.3257772  32.4031538 121.3472353
  89.6671129  40.5082986 122.9958215  89.0142579  40.7558893 122.3410667
  90.0451509  39.6947124 122.6620692  86.6278303  50.5442679 117.0986385
  86.8100697  49.7264335 117.5614137  87.4511289  50.7610371 116.6611275
  86.9620468  49.4710864 114.3601433  87.4908235  48.9603318 113.7471596
  87.2248688  49.1553394 115.2246966  85.7158702  41.2502797 129.4824252
  85.0399339  41.1496926 130.1526627  86.5386336  41.0942010 129.9460249
  77.4637561  47.4874733 122.1036767  78.0490998  46.7418421 122.2364671
  77.2662400  47.7978690 122.9873431  80.3176216  50.5225981 117.1199209
  79.6486592  51.0072108 116.6363249  80.1789086  50.7695201 118.0342588
  72.0555216  40.0580333 120.8241210  72.0939315  39.5243924 121.6178328
  71.5495509  39.5315539 120.2052187  84.4581485  52.5569724 123.7181868
  85.0099793  52.7201346 124.4830953  84.7987678  53.1474162 123.0461893
  79.4345978  34.9044874 124.3203752  79.4987305  35.7659705 123.9081150
  79.3713098  34.2918875 123.5876111  78.9098251  36.9768006 127.9676787
  79.5370290  36.5945084 128.5814311  78.0526170  36.7582208 128.3332479
  89.3092359  47.3830982 129.5730522  89.8532263  47.9960940 129.0785477
  88.7279204  47.9410560 130.0897535  75.6863793  38.7844436 113.8995142
  75.9817235  37.8755114 113.8462195  74.7851829  38.7632175 113.5776144
  87.5949872  50.5051700 120.7045550  87.4701012  49.7041439 120.1956495
  88.2528963  50.9997893 120.2159520  79.2158040  36.8600432 119.8822690
  78.4944626  37.4736400 119.7430163  80.0051296  37.3958197 119.8039336
  89.6584781  48.3060720 122.3325100  88.7115116  48.1866071 122.2603427
  90.0067554  47.4183218 122.4151361  82.0184354  34.1954859 126.1563342
  82.5418756  34.4417155 126.9189651  81.7996687  35.0274893 125.7366479
  77.4151635  36.4658533 114.0234467  77.0864341  35.5855912 113.8409573
  77.7691006  36.4106202 114.9110856  86.6631214  48.1013436 118.5329452
  86.5156176  47.1730143 118.7137022  87.4884707  48.1233527 118.0486527
  80.5293458  36.7531503 114.3909944  80.8689531  37.2817424 113.6688553
  80.9765579  37.0911909 115.1668511  90.2665336  48.9241995 119.6194325
  91.1911883  48.7184856 119.4818776  90.0980639  48.6758396 120.5283666
  83.2236899  35.1368554 123.8413012  82.8833719  34.3376367 124.2433692
  82.5175905  35.4370265 123.2689846  83.8753371  32.2217866 122.2940335
  84.6979440  31.7478344 122.1719226  84.1191434  33.0008350 122.7939022
  82.5161605  35.2506125 112.5903237  83.2369968  35.6287377 112.0866954
  81.8926909  35.9695001 112.6938215  86.6592728  35.9551274 113.5261569
  86.8756343  36.8375911 113.2250398  86.1786795  35.5637487 112.7967211
  81.3991950  38.9136987 120.1032314  81.2536530  39.2277290 120.9956596
  80.9217153  39.5321887 119.5503213  83.2588332  35.9039535 120.1513204
  83.2449901  35.0080628 119.8145502  83.9760761  35.9110198 120.7851490
  85.1114463  36.3376875 122.1966331  84.8532241  37.2593946 122.1950661
  84.5799504  35.9407309 122.8866795  90.0560652  49.4427662 114.9756416
  90.2297530  48.8774085 114.2230269  90.5489543  50.2428557 114.7935906
  75.8737612  41.4542331 123.0419975  75.3291080  42.2302139 123.1740250
  76.7516962  41.8013136 122.8839097  82.6625228  34.7853915 115.4200774
  82.7841140  33.8570561 115.6191661  82.3727271  34.7992601 114.5079089
  85.5316419  32.4708825 118.5567494  85.5538116  32.5348159 117.6019473
  85.9484478  31.6313334 118.7508000  95.9100043  42.2064085 116.5946716
  96.3531189  41.4571410 116.1965839  95.0326553  42.1974221 116.2120448
  91.0435824  48.7594426 112.0753315  91.7386729  49.3801119 112.2940629
  91.3858975  47.9089778 112.3505693  76.6603634  40.5812227 125.9350132
  75.9185370  40.7294863 126.5214763  76.3396378  40.8420493 125.0716882
  92.9427248  46.2094132 113.6040645  93.4678572  46.5481405 112.8789966
  92.8549600  45.2741147 113.4203780  84.6047296  50.1228206 125.7330522
  84.9134423  49.8777352 126.6053222  85.4022778  50.3274844 125.2449392
  84.6267908  52.2766115 117.9635899  84.1872899  51.7842494 118.6568755
  85.3776025  51.7339083 117.7227974  77.1060247  48.4677656 117.9660527
  77.9318267  48.1681428 117.5859170  76.7554299  47.6985279 118.4150315
  82.0741780  47.8204124 120.0358200  81.4521790  47.1574829 119.7360428
  82.7446647  47.8465256 119.3531848  75.3068852  46.3863983 118.9249460
  74.4700761  45.9586157 118.7433462  75.2792498  46.5796426 119.8620252
  82.1466308  36.2985912 129.6290706  82.1954463  37.1748035 129.2468476
  82.6888822  35.7563305 129.0562350  92.6321154  46.8427036 128.9091843
  91.8416697  46.8251174 128.3696343  92.3954508  47.3815329 129.6640880
  92.7519029  43.6919502 126.2224572  92.8017034  43.5269509 127.1640095
  92.6432952  42.8246761 125.8322453  81.6355287  46.3708048 113.5116661
  81.7843408  47.0543512 112.8583334  82.4421731  46.3513138 114.0266117
  90.0422791  39.6750430 127.5383879  90.9432654  39.5356895 127.2467876
  90.1170766  39.8404885 128.4782056  84.3765596  37.0517285 126.3837065
  83.5068906  37.3450851 126.1119654  84.6125077  37.6357730 127.1044329
  94.2537226  46.1116444 126.4666594  93.9622034  46.4746424 127.3030054
  93.6409357  45.3983452 126.2879926  95.4532908  43.6769323 118.9869164
  96.2879799  44.1159127 119.1506724  95.5892037  43.2007977 118.1677410
  92.5024414  41.2349058 124.9346652  92.9778535  41.4276704 124.1265503
  91.5789979  41.2908244 124.6890035  79.3907920  42.3973225 114.5177730
  79.1453962  41.4935555 114.7157940  79.5603835  42.3990376 113.5757208
  87.0804630  33.2696902 123.9002485  87.5986574  34.0057929 123.5748974
  86.7259763  33.5760895 124.7349245  78.6603568  38.1301583 112.0163891
  77.9672813  38.2045938 111.3603927  78.4155320  37.3661927 112.5385408
  87.3317224  29.6897184 119.4203382  87.6118978  29.0220373 120.0463809
  88.1167831  29.8826280 118.9078046  85.1350693  48.8656178 110.9828408
  84.5624660  49.4846365 110.5298880  85.7083487  49.4155540 111.5168330
  91.2026083  38.1114818 123.1674957  92.1543506  38.2112916 123.1887181
  91.0329533  37.3193087 123.6773041  89.2240462  35.1970401 123.3534358
  88.6290394  35.4775414 122.6580847  88.9390159  35.6864302 124.1251099
  88.3547953  49.1493328 112.1136991  89.2878626  49.0838890 112.3169866
  88.2671166  49.9849595 111.6551523  90.9835969  48.4659199 109.0740938
  90.9049601  48.1319062 109.9676696  91.8045636  48.9580967 109.0732411
  93.6814161  41.3320938 122.2817257  93.6490481  40.3936939 122.4676941
  94.2914784  41.4104975 121.5483082  85.5197491  40.2016991 108.3244461
  86.4656596  40.0723199 108.3932879  85.1411736  39.4631653 108.8013889
  93.8308649  38.1231981 122.3275540  93.3147698  37.3390438 122.1405469
  94.7148598  37.7950698 122.4922059  91.4919376  31.8672997 118.2871353
  91.2944197  31.5588085 119.1714685  92.1019082  32.5934636 118.4169282
  99.4990710  42.3936945 121.4223294 100.2294099  42.1322233 121.9830997
  98.8897656  41.6565667 121.4625362  97.5806008  40.5344807 122.0197745
  96.8539171  40.4000772 121.4114236  97.1653294  40.8421636 122.8254463
  85.4036184  44.2534737 129.7845118  86.3239193  44.4313336 129.9785164
  85.3685767  43.3090782 129.6324817  83.7040409  38.1266967 108.2599346
  82.7971864  37.8300080 108.3362060  83.9816390  37.8296785 107.3933632
  74.6218349  39.4473331 118.7098392  74.3021133  38.5938639 118.4172766
  74.0751777  39.6621909 119.4656360  78.3998256  42.1635772 122.4267899
  78.6184266  43.0952879 122.4455933  78.8124030  41.8043746 123.2122703
  85.3202474  32.6703857 114.4143587  84.5103203  32.3250942 114.7898833
  86.0086891  32.3611401 115.0031199  87.2493023  31.7481904 116.0367884
  87.8024061  32.1677357 116.6957907  87.4863109  30.8217652 116.0790840
  83.2726122  37.7368977 131.8170648  83.1722849  38.6863334 131.7482739
  83.0547664  37.4087216 130.9446718  82.4739193  34.9853903 108.4011325
  83.3358357  35.3108801 108.6607143  82.6589537  34.1985398 107.8884391
  74.4906609  43.0676242 120.6791514  73.7970080  42.6530195 120.1661468
  75.2379600  43.1096779 120.0824933  90.6271830  33.8582429 115.5446548
  90.0470499  34.5167233 115.1624601  90.3607762  33.0359774 115.1333966
  89.0775396  33.2587487 117.7467869  89.5775174  33.3704021 116.9382187
  89.7211004  32.9548540 118.3868677  83.1357392  41.1666116 130.6335710
  82.6524474  41.9666476 130.8399599  83.2218331  41.1774061 129.6803154
  76.4043351  42.9994496 118.5557529  76.3814040  43.0982183 117.6039412
  76.7143988  43.8459647 118.8774695  79.0630729  45.0570651 122.6704143
  80.0173983  45.0254593 122.6034075  78.8643253  44.5961275 123.4854369
  79.6530111  43.6271767 125.2374941  80.4723000  44.1215846 125.2609778
  79.9266919  42.7103735 125.2092508  89.4096708  36.0182519 114.6002897
  88.5222563  36.3032170 114.3823091  89.8250697  35.8576283 113.7530173
  92.7611244  36.0429040 118.3157236  93.5371634  36.5325493 118.5881853
  92.0359378  36.4687095 118.7729105  95.1983802  36.7556660 119.3731176
  95.7928293  36.5152396 118.6624485  95.2710386  36.0363790 120.0004713
  77.4180958  50.5990270 119.6874341  77.2835426  49.8390671 119.1212339
  77.0013020  51.3231170 119.2203130  88.5539921  45.7827194 108.6950916
  89.2575771  45.9877197 109.3108572  87.8302570  46.3503956 108.9600000
  89.3837731  41.5337055 114.8153187  89.3272933  41.9905607 113.9760819
  89.9366074  40.7727740 114.6376029  93.1942537  37.3226787 115.6403306
  92.9379472  36.9223423 116.4711514  92.5695405  38.0370581 115.5153445
  97.5054875  40.0622860 118.1474598  96.9454433  40.1316050 118.9206160
  96.8998379  39.8863845 117.4274094  80.5750084  51.4959588 119.8992784
  80.4582468  52.4405020 119.7971474  79.7542530  51.1933149 120.2878583
  90.4626619  46.2209723 110.7449377  91.2972222  45.7890922 110.5626851
  90.3010961  46.0491737 111.6726271  90.1172511  42.7241837 112.1105716
  90.0621315  42.5586108 111.1694160  89.4918566  43.4317869 112.2667906
  74.9065026  37.9609901 125.9367138  75.5523889  37.4508855 126.4254363
  74.6982177  38.6978583 126.5110563  87.4318418  45.0290748 131.4359279
  88.3009578  45.2031401 131.0745914  86.9525169  45.8485165 131.3135008
  83.4268636  32.2249946 111.6891034  83.4147306  33.1691785 111.8459305
  84.3192058  32.0420091 111.3950495  81.6004598  52.1487849 123.1148712
  82.5031845  52.1811460 123.4315207  81.3741968  51.2188300 123.1295048
  83.3558200  50.9018836 119.7758791  82.4053831  50.9020698 119.6623163
  83.6590686  50.1551571 119.2594826  87.2420756  28.8192722 115.9436971
  86.4753151  28.2651209 116.0893653  87.6531461  28.8914591 116.8051123
  79.2462517  35.1077518 130.0342152  80.1093978  34.7514323 130.2445477
  78.6727927  34.7691413 130.7217557  99.0910894  56.7379374 120.8404553
  99.7289304  56.6186122 120.1367893  98.9731737  57.6860218 120.8992505
  95.9000600  56.6906802 120.7766078  95.5619111  56.5747867 119.8886613
  96.7690368  56.2897968 120.7567084  91.7587416  58.5442279 116.7662969
  91.1952281  58.4532216 115.9979257  91.6439811  57.7242183 117.2465461
  96.3820383  57.8441654 126.7352283  96.3709024  57.4494452 125.8632787
  96.5441022  57.1107727 127.3286055  89.3051848  60.0393470 119.6047189
  90.0973139  59.6984295 119.1893489  89.5448498  60.1488445 120.5249343
  97.3386974  62.2113247 112.0777434  96.6874954  62.7967327 111.6911448
  98.1331337  62.7419441 112.1372471  91.2642601  59.3002384 112.4764568
  92.0373477  58.7531371 112.3377444  91.6168000  60.1646633 112.6879030
  93.1027644  60.6278766 125.6831467  92.8117510  61.5324397 125.5678134
  93.7384628  60.6695294 126.3975537  94.0283851  58.0055614 122.2732827
  94.6247423  57.7811637 121.5589790  94.0858822  57.2640360 122.8758275
  93.6008879  55.4595050 110.1083018  93.8534400  54.9376571 109.3466481
  92.6633438  55.2961195 110.2109702  98.6452162  54.4630828 117.9157761
  99.4315251  54.0450251 117.5648178  98.9090866  55.3676920 118.0839410
  98.8162239  59.9003678 112.6146418  98.1808072  59.9738305 113.3267323
  98.4859646  60.4897277 111.9365497 104.0460589  54.4006061 118.8190740
 104.7785761  53.8305278 119.0528569 103.2899945  54.0127662 119.2597245
  93.3205168  57.3623156 112.3107393  93.2041426  56.6868059 112.9788477
  93.4307428  56.8755530 111.4939546  95.6636709  56.8233303 116.0154082
  95.2994916  56.2963924 116.7267004  96.5203825  56.4331772 115.8420568
 101.5686010  48.1127635 123.2785348 101.2369334  48.9823046 123.0546563
 100.9731623  47.7963919 123.9579379  95.3042196  51.8523203 111.0115431
  95.4716598  52.7203439 111.3785902  95.1139365  52.0150484 110.0876720
  98.0617529  60.3140181 122.6781261  97.7618252  61.2165220 122.5697068
  97.7168589  60.0472365 123.5302414  91.5130011  56.7653978 118.7117966
  90.5880507  56.6330192 118.9195657  91.7614424  57.5448198 119.2087908
 101.4614673  52.8322722 120.3578698 100.5531550  52.7638130 120.0637459
 101.4102269  53.3094667 121.1860524  95.2831417  54.3080860 111.9962098
  95.1631042  54.7537911 112.8347578  94.5884005  54.6566178 111.4375636
  88.8738822  56.4087252 119.5461755  89.0031203  56.6621731 120.4601166
  88.1936273  57.0014960 119.2266410  93.0438309  67.0784502 115.6452229
  92.9662339  68.0292327 115.7240709  92.4399953  66.7330374 116.3027155
  95.5355539  54.2512367 128.3013596  94.7588873  54.8106287 128.2916460
  96.1746102  54.7369150 128.8228466 103.3276319  51.0339160 122.1356572
 102.6850700  51.3271693 121.4896367 102.8231248  50.9192080 122.9409769
 100.9816483  54.7802333 112.8242432 101.8934339  55.0129720 112.6490129
 100.4726130  55.3639377 112.2617510  93.7901911  57.0597821 127.8631563
  94.5316595  57.5982865 127.5866386  93.0838896  57.6864109 128.0203115
  99.2657251  59.2026961 126.4603724  99.6740607  58.7609372 125.7158357
  98.5434512  58.6279589 126.7137917  95.6188321  54.1399568 123.8337281
  96.4649516  54.5638981 123.9771930  95.5586958  53.4833192 124.5275844
  99.5886065  59.7628152 120.2156013  98.9594928  59.9273866 119.5132081
  99.2011727  60.1769761 120.9866977 103.4675297  60.6982590 117.5700377
 102.7826335  61.0781491 117.0197410 103.5519147  61.3077916 118.3032325
  98.7687766  51.8003936 125.4918455  98.5248698  52.5545997 124.9552731
  99.0447697  52.1789284 126.3265702 100.7226229  58.3442549 124.1695720
 100.9343124  58.9874308 123.4930101 100.6755977  57.5104865 123.7017650
  98.3252458  50.9560369 121.0732293  97.4636937  51.2541623 121.3649030
  98.3514892  51.1730768 120.1413325  95.1414027  59.5002560 117.4806098
  95.6052373  59.7790263 116.6910721  94.8770825  58.5986004 117.2979189
  92.0338108  59.0474041 120.4185861  92.6039465  59.4761310 119.7803346
  92.6246220  58.7656626 121.1170047  94.0782913  55.6225712 114.2895663
  94.7806957  56.0746756 114.7569590  93.7463542  54.9809531 114.9175556
  92.5263275  54.2137469 128.6646873  91.8961935  54.8953750 128.8982270
  92.4199363  54.1020550 127.7200011  87.8208247  53.8809265 119.5912797
  87.0307301  54.1366793 119.1152908  88.3119495  54.6957603 119.6964837
 101.8372057  61.2214504 122.3418078 102.6589500  60.8194691 122.0600759
 101.8334460  61.1182738 123.2934194  89.7722993  54.2453844 116.5496274
  88.9754156  54.3572538 117.0679769  89.5448585  54.5840496 115.6837164
  95.6028660  60.7698547 124.4978788  95.6673093  61.2318955 125.3336960
  94.8939584  60.1395912 124.6261098  86.1045950  54.1339755 122.0227788
  86.3553989  55.0186765 122.2885364  86.6405499  53.9544357 121.2502880
 109.9278050  57.5653252 118.6903049 109.1741758  56.9960651 118.5347054
 110.0625591  57.5315917 119.6373684  95.3176678  62.4366655 114.3657769
  95.1822353  63.2818191 114.7942616  95.8586490  62.6385932 113.6023702
  91.8044017  48.5158235 131.0272124  91.4110963  47.9624433 131.7019768
  92.6210158  48.8268813 131.4178641  88.7706075  59.9542093 114.9385694
  89.2830596  60.7485343 115.0891258  89.4228788  59.2568383 114.8719295
  90.5800960  63.0707849 117.0208447  90.7567588  63.9925814 116.8329431
  91.3757793  62.7566268 117.4502827  94.7211978  49.9316114 128.6192380
  95.4621692  50.5323267 128.5396843  94.9529901  49.1893752 128.0610423
  89.8653316  55.1172481 126.8970610  89.7506832  54.2157738 127.1977709
  89.0097834  55.3636178 126.5455427  96.9445154  63.0590221 128.4958111
  96.5009008  62.2726600 128.1779015  97.6062368  63.2469372 127.8302001
  91.7032275  64.5886023 123.0218789  92.2539701  64.4603086 122.2495783
  90.8643751  64.8880912 122.6713682  99.0426392  63.3393021 126.5239512
  99.0244868  64.1601902 126.0319781  99.9646312  63.2147096 126.7489653
  95.4999446  60.8537151 127.3663020  96.0327783  60.0925439 127.1362328
  94.9713528  60.5610803 128.1087175  98.6669141  45.9597217 122.8956662
  98.3233411  46.8498858 122.8195773  99.0348104  45.7698874 122.0326247
  86.7354992  58.2830747 115.7145264  87.5730214  58.6927755 115.4978972
  86.9133260  57.3430189 115.6845458  98.6319424  55.9505828 111.4029097
  98.1166048  56.7210432 111.6417485  98.3596733  55.2770964 112.0262159
  96.2166535  50.7955529 116.4614336  95.3608132  50.4062379 116.2819974
  96.6293487  50.8747489 115.6014121  97.7465682  48.3301872 120.8605895
  97.2430477  48.2932007 120.0473701  98.0396289  49.2394615 120.9202552
  93.9908568  48.4140602 119.8672077  94.8561564  48.2183410 119.5077967
  94.0586077  48.1850953 120.7941434 103.6053698  58.7038182 113.3382271
 102.8283141  58.3649342 112.8937433 104.2845179  58.7090806 112.6637236
  98.4205727  53.8232920 113.2288878  98.1155863  54.1379069 114.0799022
  99.3736169  53.9014340 113.2716211  96.8652159  59.9823143 114.8781832
  96.3373521  59.2475903 114.5655070  96.3639662  60.7597820 114.6321801
 101.8445005  58.1772164 119.9948879 101.1868680  58.8671425 120.0829007
 102.6485404  58.5668596 120.3382865  91.5970887  50.6442809 117.2388444
  92.1714639  50.4217991 116.5061637  92.1841869  50.7131504 117.9917045
 100.6550464  56.5316536 118.0452820 101.1682346  57.1646528 118.5474530
 101.3051688  55.9317732 117.6796180  91.9240474  52.6747270 111.2584329
  91.0877786  53.0121957 111.5793604  91.7845244  52.5396250 110.3211466
  93.8993554  47.5184058 115.9663513  93.2457967  47.2033076 115.3420128
  93.8574029  46.8959799 116.6923336  95.0104759  57.8003353 107.8816805
  94.1031821  57.5692607 108.0807954  95.5075791  57.0040973 108.0690787
  97.9172838  66.5100861 110.8013492  97.2434537  66.8132557 111.4098449
  98.3038660  67.3129941 110.4518949  97.1331295  54.0065992 120.2911161
  96.2153856  54.2280939 120.1332849  97.5491438  54.0812302 119.4322868
  97.9166343  55.4057408 115.4213841  98.6638162  55.9178805 115.1120963
  98.1857932  55.0841460 116.2818235  96.1892993  57.9015948 112.4040795
  95.2804212  57.6174981 112.5013265  96.2188077  58.3215027 111.5444102
 101.4212260  61.5122538 116.1731963 100.9674587  60.6713448 116.2297153
 100.7906227  62.1483936 116.5106743 100.3645180  52.4414524 117.4032630
  99.6267937  51.9291910 117.7342873 100.6171953  52.0014905 116.5915907
  99.8645199  63.3499035 117.1081781 100.1568174  63.9104092 116.3894147
 100.3743820  63.6427596 117.8634940 100.4656807  45.2190776 117.9974400
 100.7715684  44.3588139 117.7100315 101.1909412  45.8108396 117.7973394
  86.7581163  55.6221462 116.3855998  86.5605563  55.0290823 115.6607064
  86.2027827  55.3173673 117.1031936  94.7377887  55.5144569 118.5050591
  94.7926497  54.5618405 118.4293067  93.9269089  55.6704008 118.9891889
  95.8869081  59.4424692 109.7428874  95.4488511  58.7260551 109.2834511
  96.6279521  59.6700807 109.1813965  92.6770247  54.1321629 116.2640970
  91.8638112  54.4315799 116.6706162  93.1729241  53.7377317 116.9815452
  94.8278825  64.1279386 118.1975234  94.7855003  64.3540232 117.2683766
  95.7441523  63.8942760 118.3461036  98.2744458  54.5963453 125.0955864
  98.6293846  54.8234926 125.9550329  98.9216590  54.9281830 124.4733119
 104.0042195  57.7181889 115.8005193 103.8660094  57.9083485 114.8726382
 103.6478414  58.4801272 116.2573244  92.1684322  51.7039984 121.8802205
  92.8083701  51.5628743 121.1825168  91.3361852  51.4174498 121.5040807
 104.0311575  59.7858416 120.8116464 104.4648082  59.6933705 121.6599518
 104.7443156  59.7615916 120.1736480  92.9444625  61.0042415 117.9937197
  93.7385224  60.5092735 117.7919772  92.2336318  60.4760278 117.6304903
  97.7639470  63.3860510 122.3449565  97.8176492  63.9551446 123.1127281
  96.8954251  63.5562395 121.9803602  89.2527389  55.1485496 114.0696950
  88.3224977  55.0869952 114.2866912  89.3484861  54.6261449 113.2733591
  89.1712938  51.6740309 116.6575191  89.4319755  52.5885642 116.5484352
  89.9930110  51.2064752 116.8071804  90.6437863  53.0878066 123.8274016
  91.3160917  52.8795428 123.1786665  89.8167650  52.8900152 123.3879248
 104.8927125  59.8282117 123.3449350 105.0863015  60.7327927 123.5908624
 104.7927743  59.3689536 124.1787935  96.5463435  49.7140007 125.8439677
  95.8991350  50.4129957 125.7504153  97.3164451  50.1476151 126.2115925
  99.9542233  59.9788859 128.9190230  99.8027740  59.7499411 128.0020314
  99.9446913  60.9359461 128.9321575  96.7227570  57.5520772 123.9036497
  97.6519630  57.7031932 123.7305464  96.3018600  57.6404793 123.0485143
  95.5215901  61.5771437 121.6735034  95.3826987  61.2090221 122.5460972
  94.7330498  62.0919076 121.5018992  96.1164053  66.6780533 113.0160571
  96.2915809  66.2068576 113.8306193  95.4296841  67.3046299 113.2441831
  97.0721117  60.9553039 119.0623872  96.7370949  60.9153809 119.9581522
  96.5725062  60.2897755 118.5894282  91.0465361  56.3620669 124.5876453
  90.9085158  55.6300908 125.1887992  91.9570284  56.2729569 124.3060641
 100.0080308  58.3009074 109.3360932  99.3909479  57.5755902 109.2393984
  99.5396797  59.0618434 108.9928006  93.6747661  56.0740629 124.0760133
  94.3847280  55.4333821 124.0346751  93.6316969  56.3253523 124.9986314
 101.6634440  63.0107982 126.9966712 101.6046986  62.3267202 126.3297295
 102.0653958  63.7526972 126.5447338  92.3876595  53.0605847 125.8955772
  91.8513952  52.6096585 126.5477369  91.7993304  53.1951755 125.1526237
  90.6825139  69.8269896 119.7900431  90.9221737  70.4588420 120.4679449
  89.8394335  69.4757936 120.0765790  91.7978854  52.5194498 108.4582236
  90.9208320  52.3983299 108.0944483  92.2736607  51.7280576 108.2061125
 101.6651847  60.9747566 125.2280692 100.7778626  60.6373488 125.3507091
 102.2350398  60.2430597 125.4649457  83.3180994  57.3071658 118.5523743
  84.0052034  56.9933388 117.9644758  83.1629123  58.2113022 118.2790994
  88.1215716  52.1961854 122.9808767  88.0373905  51.5887524 122.2459177
  87.2998423  52.6870873 122.9818263  95.1953001  65.6349018 122.1941935
  95.1223172  66.4403990 122.7061239  94.7530394  65.8340984 121.3689956
  94.9842780  64.8720788 115.7044756  94.2010302  65.4142468 115.7982981
  95.6835525  65.3894768 116.1038998  98.2939430  50.6815418 118.3478962
  98.7908130  49.9285380 118.0280032  97.5226412  50.7179734 117.7822171
 106.1469188  56.3855783 119.9897253 106.1359064  57.2680499 119.6191186
 105.2786567  56.0327334 119.7951790  97.6551684  65.5335852 124.3500094
  98.3679656  66.1683317 124.2775995  97.1641713  65.6299718 123.5340095
  99.3769211  59.4387105 115.9217385  98.4425490  59.5588567 115.7522090
  99.5545879  58.5359572 115.6577395  94.8774399  52.8232801 118.0750646
  94.5072187  52.2703841 118.7631552  95.3733491  52.2190934 117.5225646
 102.7641762  55.2804424 116.4567419 103.2302215  56.1132416 116.3827722
 103.2149263  54.8149406 117.1612678  92.7063598  63.2830296 125.1705664
  93.4073057  63.9166779 125.3235059  92.2358713  63.6245027 124.4101304
 100.8317993  61.6248246 113.4553571 101.1077837  61.5104840 114.3647445
  99.9622492  61.2265730 113.4165744 100.7358425  47.6485011 120.4958321
  99.8221505  47.8789238 120.6640528 101.1651527  47.7323455 121.3472353
 100.5064884  55.8374903 122.9958215  99.8536334  56.0850811 122.3410667
 100.8845263  55.0239041 122.6620692  97.4672057  65.8734596 117.0986385
  97.6494452  65.0556252 117.5614137  98.2905043  66.0902289 116.6611275
  97.8014223  64.8002782 114.3601433  98.3301989  64.2895236 113.7471596
  98.0642443  64.4845312 115.2246966  96.5552457  56.5794714 129.4824252
  95.8793094  56.4788844 130.1526627  97.3780090  56.4233928 129.9460249
  88.3031316  62.8166651 122.1036767  88.8884752  62.0710339 122.2364671
  88.1056154  63.1270608 122.9873431  91.1569971  65.8517898 117.1199209
  90.4880346  66.3364026 116.6363249  91.0182841  66.0987119 118.0342588
  82.8948970  55.3872251 120.8241210  82.9333070  54.8535842 121.6178328
  82.3889263  54.8607457 120.2052187  95.2975239  67.8861642 123.7181868
  95.8493547  68.0493263 124.4830953  95.6381433  68.4766080 123.0461893
  90.2739733  50.2336792 124.3203752  90.3381059  51.0951622 123.9081150
  90.2106853  49.6210793 123.5876111  89.7492005  52.3059924 127.9676787
  90.3764044  51.9237001 128.5814311  88.8919924  52.0874126 128.3332479
 100.1486114  62.7122899 129.5730522 100.6926018  63.3252858 129.0785477
  99.5672959  63.2702478 130.0897535  86.5257548  54.1136353 113.8995142
  86.8210989  53.2047032 113.8462195  85.6245584  54.0924093 113.5776144
  98.4343627  65.8343617 120.7045550  98.3094766  65.0333357 120.1956495
  99.0922718  66.3289811 120.2159520  90.0551795  52.1892350 119.8822690
  89.3338381  52.8028317 119.7430163  90.8445051  52.7250115 119.8039336
 100.4978535  63.6352637 122.3325100  99.5508871  63.5157989 122.2603427
 100.8461308  62.7475135 122.4151361  92.8578108  49.5246776 126.1563342
  93.3812510  49.7709073 126.9189651  92.6390442  50.3566811 125.7366479
  88.2545390  51.7950451 114.0234467  87.9258096  50.9147830 113.8409573
  88.6084760  51.7398120 114.9110856  97.5024968  63.4305354 118.5329452
  97.3549931  62.5022061 118.7137022  98.3278462  63.4525444 118.0486527
  91.3687213  52.0823421 114.3909944  91.7083285  52.6109342 113.6688553
  91.8159333  52.4203827 115.1668511 101.1059090  64.2533912 119.6194325
 102.0305638  64.0476774 119.4818776 100.9374394  64.0050313 120.5283666
  94.0630654  50.4660471 123.8413012  93.7227474  49.6668284 124.2433692
  93.3569660  50.7662182 123.2689846  94.7147125  47.5509784 122.2940335
  95.5373195  47.0770262 122.1719226  94.9585189  48.3300268 122.7939022
  93.3555360  50.5798042 112.5903237  94.0763722  50.9579295 112.0866954
  92.7320664  51.2986919 112.6938215  97.4986483  51.2843191 113.5261569
  97.7150097  52.1667829 113.2250398  97.0180550  50.8929405 112.7967211
  92.2385704  54.2428904 120.1032314  92.0930285  54.5569207 120.9956596
  91.7610908  54.8613805 119.5503213  94.0982087  51.2331452 120.1513204
  94.0843656  50.3372546 119.8145502  94.8154515  51.2402116 120.7851490
  95.9508218  51.6668793 122.1966331  95.6925996  52.5885863 122.1950661
  95.4193258  51.2699227 122.8866795 100.8954406  64.7719580 114.9756416
 101.0691284  64.2066002 114.2230269 101.3883298  65.5720475 114.7935906
  86.7131366  56.7834249 123.0419975  86.1684834  57.5594057 123.1740250
  87.5910716  57.1305053 122.8839097  93.5018983  50.1145833 115.4200774
  93.6234894  49.1862479 115.6191661  93.2121025  50.1284519 114.5079089
  96.3710173  47.8000743 118.5567494  96.3931870  47.8640076 117.6019473
  96.7878232  46.9605252 118.7508000 106.7493798  57.5356003 116.5946716
 107.1924944  56.7863328 116.1965839 105.8720308  57.5266139 116.2120448
 101.8829579  64.0886344 112.0753315 102.5780484  64.7093037 112.2940629
 102.2252729  63.2381695 112.3505693  87.4997388  55.9104145 125.9350132
  86.7579124  56.0586780 126.5214763  87.1790132  56.1712411 125.0716882
 103.7821002  61.5386050 113.6040645 104.3072326  61.8773322 112.8789966
 103.6943355  60.6033065 113.4203780  95.4441051  65.4520123 125.7330522
  95.7528177  65.2069270 126.6053222  96.2416533  65.6566762 125.2449392
  95.4661663  67.6058033 117.9635899  95.0266653  67.1134412 118.6568755
  96.2169780  67.0631001 117.7227974  87.9454002  63.7969574 117.9660527
  88.7712022  63.4973346 117.5859170  87.5948054  63.0277196 118.4150315
  92.9135535  63.1496042 120.0358200  92.2915544  62.4866747 119.7360428
  93.5840402  63.1757174 119.3531848  86.1462607  61.7155900 118.9249460
  85.3094515  61.2878075 118.7433462  86.1186252  61.9088344 119.8620252
  92.9860062  51.6277830 129.6290706  93.0348218  52.5039953 129.2468476
  93.5282577  51.0855223 129.0562350 103.4714908  62.1718953 128.9091843
 102.6810452  62.1543092 128.3696343 103.2348263  62.7107247 129.6640880
 103.5912783  59.0211420 126.2224572 103.6410788  58.8561427 127.1640095
 103.4826707  58.1538679 125.8322453  92.4749042  61.6999965 113.5116661
  92.6237162  62.3835430 112.8583334  93.2815485  61.6805055 114.0266117
 100.8816546  55.0042348 127.5383879 101.7826408  54.8648813 127.2467876
 100.9564520  55.1696803 128.4782056  95.2159351  52.3809202 126.3837065
  94.3462660  52.6742769 126.1119654  95.4518831  52.9649647 127.1044329
 105.0930980  61.4408361 126.4666594 104.8015788  61.8038342 127.3030054
 104.4803111  60.7275369 126.2879926 106.2926662  59.0061241 118.9869164
 107.1273554  59.4451045 119.1506724 106.4285791  58.5299894 118.1677410
 103.3418168  56.5640976 124.9346652 103.8172290  56.7568622 124.1265503
 102.4183734  56.6200162 124.6890035  90.2301675  57.7265143 114.5177730
  89.9847717  56.8227473 114.7157940  90.3997589  57.7282293 113.5757208
  97.9198385  48.5988819 123.9002485  98.4380329  49.3349846 123.5748974
  97.5653518  48.9052813 124.7349245  89.4997322  53.4593501 112.0163891
  88.8066567  53.5337856 111.3603927  89.2549074  52.6953844 112.5385408
  98.1710979  45.0189102 119.4203382  98.4512733  44.3512291 120.0463809
  98.9561586  45.2118198 118.9078046  95.9744447  64.1948096 110.9828408
  95.4018414  64.8138283 110.5298880  96.5477241  64.7447458 111.5168330
 102.0419837  53.4406736 123.1674957 102.9937260  53.5404834 123.1887181
 101.8723288  52.6485004 123.6773041 100.0634217  50.5262319 123.3534358
  99.4684149  50.8067332 122.6580847  99.7783913  51.0156220 124.1251099
  99.1941707  64.4785246 112.1136991 100.1272380  64.4130808 112.3169866
  99.1064920  65.3141513 111.6551523 101.8229724  63.7951116 109.0740938
 101.7443355  63.4610980 109.9676696 102.6439391  64.2872884 109.0732411
 104.5207915  56.6612856 122.2817257 104.4884235  55.7228856 122.4676941
 105.1308539  56.7396892 121.5483082  96.3591246  55.5308909 108.3244461
  97.3050351  55.4015117 108.3932879  95.9805491  54.7923570 108.8013889
 104.6702404  53.4523899 122.3275540 104.1541452  52.6682356 122.1405469
 105.5542352  53.1242616 122.4922059 102.3313130  47.1964915 118.2871353
 102.1337952  46.8880003 119.1714685 102.9412836  47.9226554 118.4169282
 110.3384465  57.7228862 121.4223294 111.0687853  57.4614151 121.9830997
 109.7291410  56.9857584 121.4625362 108.4199762  55.8636725 122.0197745
 107.6932926  55.7292690 121.4114236 108.0047049  56.1713554 122.8254463
  96.2429938  59.5826655 129.7845118  97.1632948  59.7605254 129.9785164
  96.2079521  58.6382700 129.6324817  94.5434163  53.4558885 108.2599346
  93.6365618  53.1591998 108.3362060  94.8210144  53.1588703 107.3933632
  85.4612103  54.7765248 118.7098392  85.1414888  53.9230557 118.4172766
  84.9145532  54.9913827 119.4656360  89.2392011  57.4927689 122.4267899
  89.4578021  58.4244797 122.4455933  89.6517785  57.1335664 123.2122703
  96.1596229  47.9995775 114.4143587  95.3496957  47.6542860 114.7898833
  96.8480646  47.6903318 115.0031199  98.0886777  47.0773821 116.0367884
  98.6417816  47.4969275 116.6957907  98.3256863  46.1509570 116.0790840
  94.1119876  53.0660895 131.8170648  94.0116603  54.0155252 131.7482739
  93.8941418  52.7379134 130.9446718  93.3132948  50.3145820 108.4011325
  94.1752112  50.6400718 108.6607143  93.4983292  49.5277316 107.8884391
  85.3300363  58.3968160 120.6791514  84.6363835  57.9822113 120.1661468
  86.0773354  58.4388696 120.0824933 101.4665584  49.1874347 115.5446548
 100.8864253  49.8459151 115.1624601 101.2001517  48.3651691 115.1333966
  99.9169151  48.5879404 117.7467869 100.4168929  48.6995939 116.9382187
 100.5604758  48.2840457 118.3868677  93.9751146  56.4958034 130.6335710
  93.4918228  57.2958394 130.8399599  94.0612085  56.5065979 129.6803154
  87.2437106  58.3286414 118.5557529  87.2207794  58.4274101 117.6039412
  87.5537742  59.1751564 118.8774695  89.9024484  60.3862569 122.6704143
  90.8567737  60.3546511 122.6034075  89.7037007  59.9253192 123.4854369
  90.4923866  58.9563685 125.2374941  91.3116755  59.4507763 125.2609778
  90.7660674  58.0395653 125.2092508 100.2490462  51.3474437 114.6002897
  99.3616317  51.6324088 114.3823091 100.6644451  51.1868200 113.7530173
 103.6004998  51.3720958 118.3157236 104.3765388  51.8617410 118.5881853
 102.8753132  51.7979012 118.7729105 106.0377557  52.0848577 119.3731176
 106.6322048  51.8444313 118.6624485 106.1104141  51.3655708 120.0004713
  88.2574713  65.9282188 119.6874341  88.1229181  65.1682589 119.1212339
  87.8406775  66.6523088 119.2203130  99.3933676  61.1119112 108.6950916
 100.0969526  61.3169114 109.3108572  98.6696324  61.6795874 108.9600000
 100.2231486  56.8628973 114.8153187 100.1666687  57.3197524 113.9760819
 100.7759828  56.1019658 114.6376029 104.0336292  52.6518705 115.6403306
 103.7773226  52.2515340 116.4711514 103.4089160  53.3662499 115.5153445
 108.3448630  55.3914778 118.1474598 107.7848188  55.4607967 118.9206160
 107.7392133  55.2155763 117.4274094  91.4143839  66.8251505 119.8992784
  91.2976223  67.7696938 119.7971474  90.5936285  66.5225067 120.2878583
 101.3020373  61.5501641 110.7449377 102.1365977  61.1182839 110.5626851
 101.1404716  61.3783655 111.6726271 100.9566265  58.0533754 112.1105716
 100.9015069  57.8878026 111.1694160 100.3312320  58.7609787 112.2667906
  85.7458780  53.2901819 125.9367138  86.3917644  52.7800773 126.4254363
  85.5375931  54.0270500 126.5110563  98.2712172  60.3582666 131.4359279
  99.1403332  60.5323318 131.0745914  97.7918924  61.1777083 131.3135008
  94.2662391  47.5541863 111.6891034  94.2541061  48.4983703 111.8459305
  95.1585813  47.3712009 111.3950495  92.4398353  67.4779767 123.1148712
  93.3425599  67.5103377 123.4315207  92.2135723  66.5480218 123.1295048
  94.1951955  66.2310754 119.7758791  93.2447586  66.2312615 119.6623163
  94.4984441  65.4843488 119.2594826  98.0814510  44.1484640 115.9436971
  97.3146906  43.5943127 116.0893653  98.4925215  44.2206509 116.8051123
  90.0856271  50.4369436 130.0342152  90.9487733  50.0806241 130.2445477
  89.5121682  50.0983330 130.7217557 109.9304648  72.0671292 120.8404553
 110.5683058  71.9478039 120.1367893 109.8125491  73.0152136 120.8992505
 106.7394354  72.0198720 120.7766078 106.4012866  71.9039785 119.8886613
 107.6084123  71.6189885 120.7567084 102.5981170  73.8734197 116.7662969
 102.0346035  73.7824133 115.9979257 102.4833565  73.0534101 117.2465461
 107.2214137  73.1733572 126.7352283 107.2102778  72.7786370 125.8632787
 107.3834777  72.4399644 127.3286055 100.1445602  75.3685388 119.6047189
 100.9366894  75.0276213 119.1893489 100.3842252  75.4780363 120.5249343
 108.1780729  77.5405164 112.0777434 107.5268709  78.1259245 111.6911448
 108.9725092  78.0711359 112.1372471 102.1036356  74.6294301 112.4764568
 102.8767232  74.0823288 112.3377444 102.4561755  75.4938551 112.6879030
 103.9421399  75.9570684 125.6831467 103.6511265  76.8616314 125.5678134
 104.5778383  75.9987211 126.3975537 104.8677605  73.3347532 122.2732827
 105.4641178  73.1103555 121.5589790 104.9252577  72.5932278 122.8758275
 104.4402634  70.7886967 110.1083018 104.6928154  70.2668489 109.3466481
 103.5027193  70.6253113 110.2109702 109.4845917  69.7922746 117.9157761
 110.2709006  69.3742169 117.5648178 109.7484621  70.6968838 118.0839410
 109.6555994  75.2295596 112.6146418 109.0201827  75.3030223 113.3267323
 109.3253400  75.8189195 111.9365497 114.8854344  69.7297979 118.8190740
 115.6179516  69.1597196 119.0528569 114.1293699  69.3419580 119.2597245
 104.1598923  72.6915073 112.3107393 104.0435181  72.0159977 112.9788477
 104.2701182  72.2047447 111.4939546 106.5030463  72.1525221 116.0154082
 106.1388671  71.6255842 116.7267004 107.3597579  71.7623690 115.8420568
 112.4079764  63.4419553 123.2785348 112.0763089  64.3114964 123.0546563
 111.8125377  63.1255837 123.9579379 106.1435950  67.1815120 111.0115431
 106.3110353  68.0495357 111.3785902 105.9533120  67.3442402 110.0876720
 108.9011284  75.6432099 122.6781261 108.6012007  76.5457138 122.5697068
 108.5562343  75.3764282 123.5302414 102.3523765  72.0945896 118.7117966
 101.4274262  71.9622110 118.9195657 102.6008178  72.8740115 119.2087908
 112.3008427  68.1614639 120.3578698 111.3925305  68.0930048 120.0637459
 112.2496023  68.6386584 121.1860524 106.1225171  69.6372778 111.9962098
 106.0024797  70.0829829 112.8347578 105.4277760  69.9858095 111.4375636
  99.7132576  71.7379170 119.5461755  99.8424957  71.9913648 120.4601166
  99.0330027  72.3306878 119.2266410 103.8832063  82.4076420 115.6452229
 103.8056093  83.3584245 115.7240709 103.2793707  82.0622292 116.3027155
 106.3749293  69.5804285 128.3013596 105.5982627  70.1398205 128.2916460
 107.0139856  70.0661068 128.8228466 114.1670074  66.3631078 122.1356572
 113.5244454  66.6563611 121.4896367 113.6625002  66.2483998 122.9409769
 111.8210237  70.1094251 112.8242432 112.7328094  70.3421638 112.6490129
 111.3119885  70.6931295 112.2617510 104.6295666  72.3889738 127.8631563
 105.3710350  72.9274782 127.5866386 103.9232651  73.0156027 128.0203115
 110.1051005  74.5318879 126.4603724 110.5134361  74.0901289 125.7158357
 109.3828267  73.9571506 126.7137917 106.4582075  69.4691486 123.8337281
 107.3043270  69.8930899 123.9771930 106.3980713  68.8125110 124.5275844
 110.4279820  75.0920069 120.2156013 109.7988682  75.2565784 119.5132081
 110.0405482  75.5061679 120.9866977 114.3069052  76.0274507 117.5700377
 113.6220090  76.4073409 117.0197410 114.3912901  76.6369834 118.3032325
 109.6081521  67.1295854 125.4918455 109.3642452  67.8837914 124.9552731
 109.8841451  67.5081201 126.3265702 111.5619983  73.6734466 124.1695720
 111.7736879  74.3166226 123.4930101 111.5149732  72.8396783 123.7017650
 109.1646212  66.2852287 121.0732293 108.3030691  66.5833540 121.3649030
 109.1908647  66.5022686 120.1413325 105.9807782  74.8294477 117.4806098
 106.4446127  75.1082180 116.6910721 105.7164580  73.9277922 117.2979189
 102.8731863  74.3765959 120.4185861 103.4433220  74.8053227 119.7803346
 103.4639975  74.0948544 121.1170047 104.9176668  70.9517630 114.2895663
 105.6200711  71.4038674 114.7569590 104.5857296  70.3101449 114.9175556
 103.3657029  69.5429386 128.6646873 102.7355690  70.2245667 128.8982270
 103.2593117  69.4312468 127.7200011  98.6602002  69.2101182 119.5912797
  97.8701056  69.4658711 119.1152908  99.1513249  70.0249520 119.6964837
 112.6765811  76.5506422 122.3418078 113.4983255  76.1486609 122.0600759
 112.6728214  76.4474656 123.2934194 100.6116747  69.5745762 116.5496274
  99.8147910  69.6864456 117.0679769 100.3842339  69.9132414 115.6837164
 106.4422415  76.0990465 124.4978788 106.5066847  76.5610872 125.3336960
 105.7333339  75.4687830 124.6261098  96.9439705  69.4631673 122.0227788
  97.1947743  70.3478683 122.2885364  97.4799253  69.2836274 121.2502880
 120.7671804  72.8945170 118.6903049 120.0135513  72.3252568 118.5347054
 120.9019346  72.8607835 119.6373684 106.1570432  77.7658572 114.3657769
 106.0216107  78.6110108 114.7942616 106.6980245  77.9677850 113.6023702
 102.6437772  63.8450152 131.0272124 102.2504718  63.2916351 131.7019768
 103.4603912  64.1560731 131.4178641  99.6099830  75.2834010 114.9385694
 100.1224350  76.0777261 115.0891258 100.2622543  74.5860301 114.8719295
 101.4194714  78.3999767 117.0208447 101.5961343  79.3217731 116.8329431
 102.2151548  78.0858186 117.4502827 105.5605733  65.2608031 128.6192380
 106.3015446  65.8615185 128.5396843 105.7923656  64.5185669 128.0610423
 100.7047071  70.4464399 126.8970610 100.5900586  69.5449656 127.1977709
  99.8491589  70.6928095 126.5455427 107.7838909  78.3882139 128.4958111
 107.3402763  77.6018518 128.1779015 108.4456122  78.5761289 127.8302001
 102.5426030  79.9177941 123.0218789 103.0933455  79.7895004 122.2495783
 101.7037506  80.2172830 122.6713682 109.8820147  78.6684939 126.5239512
 109.8638622  79.4893820 126.0319781 110.8040067  78.5439014 126.7489653
 106.3393201  76.1829068 127.3663020 106.8721538  75.4217357 127.1362328
 105.8107282  75.8902720 128.1087175 109.5062896  61.2889134 122.8956662
 109.1627165  62.1790776 122.8195773 109.8741859  61.0990792 122.0326247
  97.5748747  73.6122665 115.7145264  98.4123969  74.0219673 115.4978972
  97.7527014  72.6722107 115.6845458 109.4713179  71.2797745 111.4029097
 108.9559802  72.0502350 111.6417485 109.1990487  70.6062882 112.0262159
 107.0560290  66.1247446 116.4614336 106.2001886  65.7354297 116.2819974
 107.4687241  66.2039407 115.6014121 108.5859436  63.6593789 120.8605895
 108.0824232  63.6223925 120.0473701 108.8790043  64.5686532 120.9202552
 104.8302322  63.7432519 119.8672077 105.6955319  63.5475328 119.5077967
 104.8979831  63.5142871 120.7941434 114.4447453  74.0330100 113.3382271
 113.6676896  73.6941260 112.8937433 115.1238934  74.0382723 112.6637236
 109.2599482  69.1524838 113.2288878 108.9549617  69.4670987 114.0799022
 110.2129924  69.2306257 113.2716211 107.7045914  75.3115061 114.8781832
 107.1767275  74.5767820 114.5655070 107.2033416  76.0889737 114.6321801
 112.6838760  73.5064081 119.9948879 112.0262434  74.1963343 120.0829007
 113.4879159  73.8960513 120.3382865 102.4364641  65.9734727 117.2388444
 103.0108393  65.7509909 116.5061637 103.0235624  66.0423422 117.9917045
 111.4944218  71.8608454 118.0452820 112.0076100  72.4938446 118.5474530
 112.1445442  71.2609650 117.6796180 102.7634228  68.0039188 111.2584329
 101.9271541  68.3413875 111.5793604 102.6238998  67.8688168 110.3211466
 104.7387309  62.8475976 115.9663513 104.0851721  62.5324993 115.3420128
 104.6967783  62.2251717 116.6923336 105.8498514  73.1295271 107.8816805
 104.9425576  72.8984525 108.0807954 106.3469546  72.3332890 108.0690787
 108.7566593  81.8392778 110.8013492 108.0828291  82.1424475 111.4098449
 109.1432415  82.6421859 110.4518949 107.9725049  69.3357910 120.2911161
 107.0547611  69.5572857 120.1332849 108.3885193  69.4104220 119.4322868
 108.7560097  70.7349325 115.4213841 109.5031916  71.2470722 115.1120963
 109.0251687  70.4133378 116.2818235 107.0286747  73.2307866 112.4040795
 106.1197967  72.9466899 112.5013265 107.0581831  73.6506945 111.5444102
 112.2606015  76.8414455 116.1731963 111.8068342  76.0005365 116.2297153
 111.6299981  77.4775854 116.5106743 111.2038934  67.7706442 117.4032630
 110.4661691  67.2583828 117.7342873 111.4565708  67.3306823 116.5915907
 110.7038954  78.6790952 117.1081781 110.9961928  79.2396009 116.3894147
 111.2137575  78.9719513 117.8634940 111.3050562  60.5482694 117.9974400
 111.6109438  59.6880057 117.7100315 112.0303166  61.1400314 117.7973394
  97.5974918  70.9513380 116.3855998  97.3999317  70.3582741 115.6607064
  97.0421582  70.6465590 117.1031936 105.5771641  70.8436487 118.5050591
 105.6320251  69.8910323 118.4293067 104.7662843  70.9995926 118.9891889
 106.7262835  74.7716610 109.7428874 106.2882265  74.0552469 109.2834511
 107.4673276  74.9992724 109.1813965 103.5164001  69.4613546 116.2640970
 102.7031867  69.7607717 116.6706162 104.0122995  69.0669235 116.9815452
 105.6672579  79.4571303 118.1975234 105.6248758  79.6832150 117.2683766
 106.5835278  79.2234678 118.3461036 109.1138213  69.9255371 125.0955864
 109.4687601  70.1526844 125.9550329 109.7610344  70.2573748 124.4733119
 114.8435950  73.0473807 115.8005193 114.7053848  73.2375403 114.8726382
 114.4872169  73.8093190 116.2573244 103.0078076  67.0331902 121.8802205
 103.6477455  66.8920661 121.1825168 102.1755607  66.7466415 121.5040807
 114.8705329  75.1150334 120.8116464 115.3041836  75.0225623 121.6599518
 115.5836910  75.0907834 120.1736480 103.7838380  76.3334332 117.9937197
 104.5778978  75.8384652 117.7919772 103.0730072  75.8052195 117.6304903
 108.6033224  78.7152428 122.3449565 108.6570247  79.2843364 123.1127281
 107.7348006  78.8854313 121.9803602 100.0921143  70.4777414 114.0696950
  99.1618731  70.4161870 114.2866912 100.1878615  69.9553367 113.2733591
 100.0106692  67.0032227 116.6575191 100.2713510  67.9177560 116.5484352
 100.8323865  66.5356669 116.8071804 101.4831618  68.4169984 123.8274016
 102.1554671  68.2087346 123.1786665 100.6561404  68.2192070 123.3879248
 115.7320879  75.1574034 123.3449350 115.9256769  76.0619845 123.5908624
 115.6321497  74.6981453 124.1787935 107.3857190  65.0431925 125.8439677
 106.7385105  65.7421875 125.7504153 108.1558205  65.4768069 126.2115925
 110.7935988  75.3080777 128.9190230 110.6421494  75.0791329 128.0020314
 110.7840667  76.2651379 128.9321575 107.5621324  72.8812690 123.9036497
 108.4913384  73.0323849 123.7305464 107.1412354  72.9696711 123.0485143
 106.3609656  76.9063354 121.6735034 106.2220742  76.5382139 122.5460972
 105.5724252  77.4210994 121.5018992 106.9557808  82.0072451 113.0160571
 107.1309564  81.5360494 113.8306193 106.2690596  82.6338217 113.2441831
 107.9114871  76.2844957 119.0623872 107.5764704  76.2445727 119.9581522
 107.4118817  75.6189673 118.5894282 101.8859115  71.6912587 124.5876453
 101.7478913  70.9592826 125.1887992 102.7964038  71.6021487 124.3060641
 110.8474063  73.6300991 109.3360932 110.2303233  72.9047819 109.2393984
 110.3790551  74.3910352 108.9928006 104.5141416  71.4032546 124.0760133
 105.2241034  70.7625739 124.0346751 104.4710724  71.6545441 124.9986314
 112.5028194  78.3399900 126.9966712 112.4440741  77.6559120 126.3297295
 112.9047713  79.0818890 126.5447338 103.2270350  68.3897764 125.8955772
 102.6907707  67.9388503 126.5477369 102.6387058  68.5243673 125.1526237
 101.5218893  85.1561814 119.7900431 101.7615491  85.7880338 120.4679449
 100.6788090  84.8049854 120.0765790 102.6372609  67.8486416 108.4582236
 101.7602075  67.7275216 108.0944483 103.1130362  67.0572494 108.2061125
 112.5045602  76.3039484 125.2280692 111.6172380  75.9665405 125.3507091
 113.0744153  75.5722515 125.4649457  94.1574749  72.6363575 118.5523743
  94.8445789  72.3225305 117.9644758  94.0022877  73.5404940 118.2790994
  98.9609471  67.5253772 122.9808767  98.8767660  66.9179441 122.2459177
  98.1392177  68.0162790 122.9818263 106.0346755  80.9640936 122.1941935
 105.9616926  81.7695907 122.7061239 105.5924148  81.1632902 121.3689956
 105.8236535  80.2012706 115.7044756 105.0404057  80.7434386 115.7982981
 106.5229280  80.7186686 116.1038998 109.1333185  66.0107335 118.3478962
 109.6301884  65.2577298 118.0280032 108.3620166  66.0471652 117.7822171
 116.9862942  71.7147701 119.9897253 116.9752818  72.5972416 119.6191186
 116.1180322  71.3619252 119.7951790 108.4945439  80.8627770 124.3500094
 109.2073411  81.4975235 124.2775995 108.0035467  80.9591636 123.5340095
 110.2162965  74.7679023 115.9217385 109.2819244  74.8880485 115.7522090
 110.3939634  73.8651489 115.6577395 105.7168154  68.1524718 118.0750646
 105.3465941  67.5995759 118.7631552 106.2127246  67.5482852 117.5225646
 113.6035517  70.6096342 116.4567419 114.0695969  71.4424334 116.3827722
 114.0543017  70.1441324 117.1612678 103.5457352  78.6122213 125.1705664
 104.2466812  79.2458696 125.3235059 103.0752467  78.9536945 124.4101304
 111.6711748  76.9540163 113.4553571 111.9471592  76.8396758 114.3647445
 110.8016247  76.5557648 113.4165744 111.5752180  62.9776929 120.4958321
 110.6615259  63.2081156 120.6640528 112.0045281  63.0615373 121.3472353
 111.3458638  71.1666821 122.9958215 110.6930088  71.4142728 122.3410667
 111.7239018  70.3530959 122.6620692 108.3065812  81.2026514 117.0986385
 108.4888206  80.3848170 117.5614137 109.1298798  81.4194206 116.6611275
 108.6407977  80.1294699 114.3601433 109.1695744  79.6187154 113.7471596
 108.9036197  79.8137229 115.2246966 107.3946211  71.9086632 129.4824252
 106.7186848  71.8080761 130.1526627 108.2173845  71.7525846 129.9460249
  99.1425070  78.1458568 122.1036767  99.7278507  77.4002256 122.2364671
  98.9449909  78.4562525 122.9873431 101.9963725  81.1809816 117.1199209
 101.3274101  81.6655944 116.6363249 101.8576595  81.4279036 118.0342588
  93.7342725  70.7164169 120.8241210  93.7726824  70.1827759 121.6178328
  93.2283018  70.1899374 120.2052187 106.1368994  83.2153559 123.7181868
 106.6887302  83.3785181 124.4830953 106.4775187  83.8057997 123.0461893
 101.1133487  65.5628709 124.3203752 101.1774814  66.4243540 123.9081150
 101.0500607  64.9502711 123.5876111 100.5885760  67.6351842 127.9676787
 101.2157799  67.2528919 128.5814311  99.7313679  67.4166044 128.3332479
 110.9879868  78.0414817 129.5730522 111.5319772  78.6544775 129.0785477
 110.4066713  78.5994395 130.0897535  97.3651302  69.4428271 113.8995142
  97.6604744  68.5338949 113.8462195  96.4639338  69.4216010 113.5776144
 109.2737381  81.1635535 120.7045550 109.1488521  80.3625275 120.1956495
 109.9316472  81.6581728 120.2159520 100.8945549  67.5184267 119.8822690
 100.1732135  68.1320235 119.7430163 101.6838805  68.0542032 119.8039336
 111.3372290  78.9644555 122.3325100 110.3902625  78.8449906 122.2603427
 111.6855063  78.0767053 122.4151361 103.6971863  64.8538694 126.1563342
 104.2206265  65.1000990 126.9189651 103.4784196  65.6858729 125.7366479
  99.0939144  67.1242369 114.0234467  98.7651850  66.2439747 113.8409573
  99.4478515  67.0690037 114.9110856 108.3418723  78.7597271 118.5329452
 108.1943685  77.8313979 118.7137022 109.1672216  78.7817362 118.0486527
 102.2080967  67.4115338 114.3909944 102.5477040  67.9401260 113.6688553
 102.6553088  67.7495744 115.1668511 111.9452845  79.5825830 119.6194325
 112.8699392  79.3768691 119.4818776 111.7768148  79.3342231 120.5283666
 104.9024408  65.7952389 123.8413012 104.5621228  64.9960202 124.2433692
 104.1963414  66.0954100 123.2689846 105.5540880  62.8801701 122.2940335
 106.3766949  62.4062180 122.1719226 105.7978943  63.6592185 122.7939022
 104.1949114  65.9089960 112.5903237 104.9157477  66.2871213 112.0866954
 103.5714418  66.6278837 112.6938215 108.3380237  66.6135109 113.5261569
 108.5543852  67.4959747 113.2250398 107.8574304  66.2221322 112.7967211
 103.0779459  69.5720822 120.1032314 102.9324039  69.8861125 120.9956596
 102.6004662  70.1905722 119.5503213 104.9375841  66.5623370 120.1513204
 104.9237410  65.6664463 119.8145502 105.6548270  66.5694034 120.7851490
 106.7901972  66.9960710 122.1966331 106.5319750  67.9177781 122.1950661
 106.2587013  66.5991145 122.8866795 111.7348161  80.1011497 114.9756416
 111.9085038  79.5357920 114.2230269 112.2277052  80.9012392 114.7935906
  97.5525121  72.1126166 123.0419975  97.0078589  72.8885974 123.1740250
  98.4304471  72.4596971 122.8839097 104.3412737  65.4437750 115.4200774
 104.4628649  64.5154397 115.6191661 104.0514780  65.4576436 114.5079089
 107.2103928  63.1292661 118.5567494 107.2325625  63.1931994 117.6019473
 107.6271987  62.2897169 118.7508000 117.5887552  72.8647920 116.5946716
 118.0318698  72.1155246 116.1965839 116.7114062  72.8558057 116.2120448
 112.7223333  79.4178262 112.0753315 113.4174238  80.0384954 112.2940629
 113.0646484  78.5673613 112.3505693  98.3391143  71.2396063 125.9350132
  97.5972879  71.3878698 126.5214763  98.0183887  71.5004328 125.0716882
 114.6214757  76.8677967 113.6040645 115.1466081  77.2065240 112.8789966
 114.5337109  75.9324983 113.4203780 106.2834805  80.7812041 125.7330522
 106.5921932  80.5361188 126.6053222 107.0810287  80.9858679 125.2449392
 106.3055417  82.9349951 117.9635899 105.8660408  82.4426329 118.6568755
 107.0563534  82.3922918 117.7227974  98.7847756  79.1261491 117.9660527
  99.6105776  78.8265263 117.5859170  98.4341808  78.3569114 118.4150315
 103.7529289  78.4787960 120.0358200 103.1309299  77.8158665 119.7360428
 104.4234156  78.5049092 119.3531848  96.9856361  77.0447818 118.9249460
  96.1488270  76.6169992 118.7433462  96.9580007  77.2380261 119.8620252
 103.8253817  66.9569748 129.6290706 103.8741972  67.8331871 129.2468476
 104.3676331  66.4147141 129.0562350 114.3108663  77.5010871 128.9091843
 113.5204206  77.4835010 128.3696343 114.0742017  78.0399165 129.6640880
 114.4306538  74.3503337 126.2224572 114.4804543  74.1853345 127.1640095
 114.3220461  73.4830596 125.8322453 103.3142796  77.0291883 113.5116661
 103.4630917  77.7127347 112.8583334 104.1209240  77.0096973 114.0266117
 111.7210300  70.3334265 127.5383879 112.6220163  70.1940730 127.2467876
 111.7958275  70.4988720 128.4782056 106.0553105  67.7101120 126.3837065
 105.1856415  68.0034686 126.1119654 106.2912586  68.2941565 127.1044329
 115.9324735  76.7700279 126.4666594 115.6409543  77.1330259 127.3030054
 115.3196866  76.0567287 126.2879926 117.1320417  74.3353159 118.9869164
 117.9667308  74.7742963 119.1506724 117.2679546  73.8591812 118.1677410
 114.1811923  71.8932893 124.9346652 114.6566044  72.0860540 124.1265503
 113.2577488  71.9492079 124.6890035 101.0695429  73.0557061 114.5177730
 100.8241471  72.1519391 114.7157940 101.2391344  73.0574211 113.5757208
 108.7592139  63.9280737 123.9002485 109.2774083  64.6641764 123.5748974
 108.4047272  64.2344730 124.7349245 100.3391077  68.7885418 112.0163891
  99.6460322  68.8629773 111.3603927 100.0942829  68.0245762 112.5385408
 109.0104733  60.3481020 119.4203382 109.2906487  59.6804209 120.0463809
 109.7955340  60.5410115 118.9078046 106.8138202  79.5240013 110.9828408
 106.2412169  80.1430201 110.5298880 107.3870996  80.0739375 111.5168330
 112.8813592  68.7698654 123.1674957 113.8331015  68.8696751 123.1887181
 112.7117042  67.9776922 123.6773041 110.9027971  65.8554237 123.3534358
 110.3077903  66.1359250 122.6580847 110.6177668  66.3448138 124.1251099
 110.0335462  79.8077164 112.1136991 110.9666135  79.7422725 112.3169866
 109.9458675  80.6433430 111.6551523 112.6623478  79.1243034 109.0740938
 112.5837110  78.7902898 109.9676696 113.4833145  79.6164802 109.0732411
 115.3601670  71.9904773 122.2817257 115.3277990  71.0520774 122.4676941
 115.9702293  72.0688810 121.5483082 107.1985000  70.8600826 108.3244461
 108.1444105  70.7307034 108.3932879 106.8199245  70.1215488 108.8013889
 115.5096158  68.7815817 122.3275540 114.9935207  67.9974273 122.1405469
 116.3936107  68.4534533 122.4922059 113.1706885  62.5256832 118.2871353
 112.9731706  62.2171920 119.1714685 113.7806591  63.2518471 118.4169282
 121.1778219  73.0520780 121.4223294 121.9081608  72.7906068 121.9830997
 120.5685165  72.3149502 121.4625362 119.2593517  71.1928643 122.0197745
 118.5326680  71.0584608 121.4114236 118.8440803  71.5005471 122.8254463
 107.0823693  74.9118572 129.7845118 108.0026702  75.0897171 129.9785164
 107.0473276  73.9674618 129.6324817 105.3827918  68.7850803 108.2599346
 104.4759373  68.4883915 108.3362060 105.6603899  68.4880621 107.3933632
  96.3005858  70.1057166 118.7098392  95.9808642  69.2522474 118.4172766
  95.7539286  70.3205744 119.4656360 100.0785765  72.8219607 122.4267899
 100.2971775  73.7536715 122.4455933 100.4911539  72.4627581 123.2122703
 106.9989983  63.3287692 114.4143587 106.1890712  62.9834777 114.7898833
 107.6874400  63.0195236 115.0031199 108.9280532  62.4065739 116.0367884
 109.4811570  62.8261193 116.6957907 109.1650618  61.4801487 116.0790840
 104.9513631  68.3952813 131.8170648 104.8510358  69.3447170 131.7482739
 104.7335173  68.0671052 130.9446718 104.1526702  65.6437738 108.4011325
 105.0145866  65.9692636 108.6607143 104.3377046  64.8569234 107.8884391
  96.1694118  73.7260078 120.6791514  95.4757589  73.3114030 120.1661468
  96.9167109  73.7680614 120.0824933 112.3059339  64.5166264 115.5446548
 111.7258008  65.1751068 115.1624601 112.0395271  63.6943609 115.1333966
 110.7562905  63.9171322 117.7467869 111.2562683  64.0287857 116.9382187
 111.3998513  63.6132375 118.3868677 104.8144901  71.8249952 130.6335710
 104.3311983  72.6250312 130.8399599 104.9005840  71.8357897 129.6803154
  98.0830860  73.6578331 118.5557529  98.0601549  73.7566019 117.6039412
  98.3931497  74.5043482 118.8774695 100.7418238  75.7154486 122.6704143
 101.6961492  75.6838429 122.6034075 100.5430762  75.2545110 123.4854369
 101.3317620  74.2855602 125.2374941 102.1510509  74.7799681 125.2609778
 101.6054428  73.3687571 125.2092508 111.0884217  66.6766355 114.6002897
 110.2010072  66.9616005 114.3823091 111.5038206  66.5160118 113.7530173
 114.4398753  66.7012876 118.3157236 115.2159143  67.1909328 118.5881853
 113.7146887  67.1270930 118.7729105 116.8771311  67.4140495 119.3731176
 117.4715802  67.1736231 118.6624485 116.9497895  66.6947625 120.0004713
  99.0968467  81.2574106 119.6874341  98.9622935  80.4974507 119.1212339
  98.6800529  81.9815006 119.2203130 110.2327430  76.4411029 108.6950916
 110.9363280  76.6461032 109.3108572 109.5090079  77.0087791 108.9600000
 111.0625240  72.1920891 114.8153187 111.0060442  72.6489442 113.9760819
 111.6153583  71.4311575 114.6376029 114.8730046  67.9810622 115.6403306
 114.6166981  67.5807258 116.4711514 114.2482914  68.6954416 115.5153445
 119.1842384  70.7206696 118.1474598 118.6241942  70.7899885 118.9206160
 118.5785888  70.5447680 117.4274094 102.2537593  82.1543423 119.8992784
 102.1369977  83.0988855 119.7971474 101.4330039  81.8516984 120.2878583
 112.1414128  76.8793559 110.7449377 112.9759731  76.4474757 110.5626851
 111.9798470  76.7075572 111.6726271 111.7960020  73.3825672 112.1105716
 111.7408824  73.2169943 111.1694160 111.1706075  74.0901705 112.2667906
  96.5852535  68.6193736 125.9367138  97.2311398  68.1092690 126.4254363
  96.3769686  69.3562418 126.5110563 109.1105927  75.6874584 131.4359279
 109.9797087  75.8615236 131.0745914 108.6312678  76.5069001 131.3135008
 105.1056145  62.8833781 111.6891034 105.0934815  63.8275621 111.8459305
 105.9979567  62.7003926 111.3950495 103.2792107  82.8071685 123.1148712
 104.1819354  82.8395295 123.4315207 103.0529477  81.8772136 123.1295048
 105.0345709  81.5602671 119.7758791 104.0841340  81.5604533 119.6623163
 105.3378195  80.8135406 119.2594826 108.9208265  59.4776558 115.9436971
 108.1540660  58.9235044 116.0893653 109.3318970  59.5498426 116.8051123
 100.9250026  65.7661353 130.0342152 101.7881487  65.4098158 130.2445477
 100.3515436  65.4275248 130.7217557 120.7698403  87.3963210 120.8404553
 121.4076813  87.2769957 120.1367893 120.6519246  88.3444054 120.8992505
 117.5788109  87.3490638 120.7766078 117.2406620  87.2331702 119.8886613
 118.4477877  86.9481803 120.7567084 113.4374925  89.2026114 116.7662969
 112.8739790  89.1116051 115.9979257 113.3227320  88.3826019 117.2465461
 118.0607892  88.5025490 126.7352283 118.0496533  88.1078288 125.8632787
 118.2228531  87.7691562 127.3286055 110.9839357  90.6977306 119.6047189
 111.7760648  90.3568130 119.1893489 111.2236007  90.8072281 120.5249343
 119.0174483  92.8697082 112.0777434 118.3662463  93.4551162 111.6911448
 119.8118846  93.4003277 112.1372471 112.9430110  89.9586219 112.4764568
 113.7160986  89.4115206 112.3377444 113.2955509  90.8230468 112.6879030
 114.7815153  91.2862601 125.6831467 114.4905019  92.1908232 125.5678134
 115.4172137  91.3279129 126.3975537 115.7071360  88.6639450 122.2732827
 116.3034932  88.4395472 121.5589790 115.7646331  87.9224195 122.8758275
 115.2796388  86.1178885 110.1083018 115.5321909  85.5960406 109.3466481
 114.3420947  85.9545031 110.2109702 120.3239671  85.1214664 117.9157761
 121.1102760  84.7034087 117.5648178 120.5878375  86.0260756 118.0839410
 120.4949748  90.5587514 112.6146418 119.8595581  90.6322140 113.3267323
 120.1647155  91.1481113 111.9365497 125.7248098  85.0589897 118.8190740
 126.4573270  84.4889114 119.0528569 124.9687454  84.6711497 119.2597245
 114.9992677  88.0206991 112.3107393 114.8828935  87.3451895 112.9788477
 115.1094937  87.5339365 111.4939546 117.3424218  87.4817138 116.0154082
 116.9782425  86.9547759 116.7267004 118.1991334  87.0915607 115.8420568
 123.2473519  78.7711471 123.2785348 122.9156843  79.6406882 123.0546563
 122.6519132  78.4547755 123.9579379 116.9829705  82.5107038 111.0115431
 117.1504107  83.3787274 111.3785902 116.7926874  82.6734320 110.0876720
 119.7405038  90.9724017 122.6781261 119.4405761  91.8749056 122.5697068
 119.3956098  90.7056200 123.5302414 113.1917520  87.4237814 118.7117966
 112.2668016  87.2914028 118.9195657 113.4401933  88.2032033 119.2087908
 123.1402182  83.4906557 120.3578698 122.2319059  83.4221965 120.0637459
 123.0889778  83.9678502 121.1860524 116.9618926  84.9664695 111.9962098
 116.8418551  85.4121746 112.8347578 116.2671514  85.3150013 111.4375636
 110.5526331  87.0671087 119.5461755 110.6818712  87.3205566 120.4601166
 109.8723782  87.6598795 119.2266410 114.7225818  97.7368337 115.6452229
 114.6449848  98.6876162 115.7240709 114.1187462  97.3914210 116.3027155
 117.2143048  84.9096203 128.3013596 116.4376382  85.4690123 128.2916460
 117.8533611  85.3952986 128.8228466 125.0063828  81.6922995 122.1356572
 124.3638209  81.9855529 121.4896367 124.5018757  81.5775916 122.9409769
 122.6603992  85.4386169 112.8242432 123.5721848  85.6713555 112.6490129
 122.1513639  86.0223213 112.2617510 115.4689420  87.7181656 127.8631563
 116.2104104  88.2566700 127.5866386 114.7626405  88.3447945 128.0203115
 120.9444760  89.8610796 126.4603724 121.3528116  89.4193207 125.7158357
 120.2222021  89.2863424 126.7137917 117.2975830  84.7983403 123.8337281
 118.1437025  85.2222817 123.9771930 117.2374467  84.1417028 124.5275844
 121.2673574  90.4211987 120.2156013 120.6382437  90.5857701 119.5132081
 120.8799236  90.8353597 120.9866977 125.1462806  91.3566425 117.5700377
 124.4613844  91.7365326 117.0197410 125.2306655  91.9661752 118.3032325
 120.4475275  82.4587772 125.4918455 120.2036207  83.2129832 124.9552731
 120.7235206  82.8373119 126.3265702 122.4013738  89.0026384 124.1695720
 122.6130633  89.6458144 123.4930101 122.3543486  88.1688700 123.7017650
 120.0039967  81.6144205 121.0732293 119.1424446  81.9125458 121.3649030
 120.0302401  81.8314603 120.1413325 116.8201536  90.1586395 117.4806098
 117.2839882  90.4374098 116.6910721 116.5558334  89.2569840 117.2979189
 113.7125617  89.7057877 120.4185861 114.2826974  90.1345145 119.7803346
 114.3033729  89.4240461 121.1170047 115.7570422  86.2809548 114.2895663
 116.4594466  86.7330591 114.7569590 115.4251051  85.6393366 114.9175556
 114.2050784  84.8721304 128.6646873 113.5749444  85.5537585 128.8982270
 114.0986872  84.7604386 127.7200011 109.4995756  84.5393100 119.5912797
 108.7094810  84.7950629 119.1152908 109.9907004  85.3541438 119.6964837
 123.5159566  91.8798339 122.3418078 124.3377009  91.4778527 122.0600759
 123.5121969  91.7766574 123.2934194 111.4510502  84.9037679 116.5496274
 110.6541665  85.0156374 117.0679769 111.2236094  85.2424332 115.6837164
 117.2816169  91.4282383 124.4978788 117.3460602  91.8902790 125.3336960
 116.5727093  90.7979748 124.6261098 107.7833459  84.7923591 122.0227788
 108.0341498  85.6770601 122.2885364 108.3193008  84.6128192 121.2502880
 131.6065559  88.2237088 118.6903049 130.8529267  87.6544486 118.5347054
 131.7413100  88.1899752 119.6373684 116.9964187  93.0950490 114.3657769
 116.8609862  93.9402026 114.7942616 117.5373999  93.2969768 113.6023702
 113.4831526  79.1742070 131.0272124 113.0898472  78.6208269 131.7019768
 114.2997667  79.4852648 131.4178641 110.4493584  90.6125928 114.9385694
 110.9618105  91.4069178 115.0891258 111.1016297  89.9152219 114.8719295
 112.2588469  93.7291684 117.0208447 112.4355097  94.6509649 116.8329431
 113.0545302  93.4150104 117.4502827 116.3999487  80.5899949 128.6192380
 117.1409201  81.1907102 128.5396843 116.6317410  79.8477587 128.0610423
 111.5440825  85.7756316 126.8970610 111.4294341  84.8741574 127.1977709
 110.6885343  86.0220013 126.5455427 118.6232663  93.7174057 128.4958111
 118.1796517  92.9310435 128.1779015 119.2849877  93.9053207 127.8302001
 113.3819784  95.2469858 123.0218789 113.9327210  95.1186922 122.2495783
 112.5431260  95.5464747 122.6713682 120.7213901  93.9976857 126.5239512
 120.7032377  94.8185738 126.0319781 121.6433821  93.8730932 126.7489653
 117.1786955  91.5120986 127.3663020 117.7115292  90.7509274 127.1362328
 116.6501037  91.2194638 128.1087175 120.3456650  76.6181052 122.8956662
 120.0020920  77.5082694 122.8195773 120.7135613  76.4282710 122.0326247
 108.4142501  88.9414582 115.7145264 109.2517723  89.3511591 115.4978972
 108.5920769  88.0014025 115.6845458 120.3106933  86.6089663 111.4029097
 119.7953557  87.3794268 111.6417485 120.0384242  85.9354799 112.0262159
 117.8954044  81.4539364 116.4614336 117.0395640  81.0646214 116.2819974
 118.3080996  81.5331325 115.6014121 119.4253191  78.9885707 120.8605895
 118.9217986  78.9515842 120.0473701 119.7183798  79.8978450 120.9202552
 115.6696077  79.0724437 119.8672077 116.5349073  78.8767246 119.5077967
 115.7373586  78.8434789 120.7941434 125.2841207  89.3622018 113.3382271
 124.5070650  89.0233177 112.8937433 125.9632688  89.3674641 112.6637236
 120.0993236  84.4816755 113.2288878 119.7943372  84.7962904 114.0799022
 121.0523678  84.5598175 113.2716211 118.5439668  90.6406979 114.8781832
 118.0161030  89.9059738 114.5655070 118.0427171  91.4181655 114.6321801
 123.5232514  88.8355999 119.9948879 122.8656189  89.5255260 120.0829007
 124.3272913  89.2252431 120.3382865 113.2758396  81.3026645 117.2388444
 113.8502148  81.0801826 116.5061637 113.8629378  81.3715339 117.9917045
 122.3337973  87.1900372 118.0452820 122.8469855  87.8230364 118.5474530
 122.9839197  86.5901567 117.6796180 113.6027983  83.3331106 111.2584329
 112.7665295  83.6705792 111.5793604 113.4632753  83.1980086 110.3211466
 115.5781063  78.1767894 115.9663513 114.9245476  77.8616911 115.3420128
 115.5361538  77.5543634 116.6923336 116.6892268  88.4587189 107.8816805
 115.7819330  88.2276442 108.0807954 117.1863300  87.6624808 108.0690787
 119.5960347  97.1684696 110.8013492 118.9222046  97.4716393 111.4098449
 119.9826169  97.9713776 110.4518949 118.8118804  84.6649827 120.2911161
 117.8941365  84.8864774 120.1332849 119.2278947  84.7396138 119.4322868
 119.5953852  86.0641243 115.4213841 120.3425671  86.5762640 115.1120963
 119.8645441  85.7425296 116.2818235 117.8680502  88.5599784 112.4040795
 116.9591721  88.2758816 112.5013265 117.8975586  88.9798862 111.5444102
 123.0999769  92.1706373 116.1731963 122.6462096  91.3297283 116.2297153
 122.4693736  92.8067772 116.5106743 122.0432689  83.0998359 117.4032630
 121.3055446  82.5875745 117.7342873 122.2959462  82.6598741 116.5915907
 121.5432708  94.0082870 117.1081781 121.8355683  94.5687927 116.3894147
 122.0531329  94.3011431 117.8634940 122.1444316  75.8774611 117.9974400
 122.4503193  75.0171975 117.7100315 122.8696921  76.4692231 117.7973394
 108.4368672  86.2805298 116.3855998 108.2393072  85.6874658 115.6607064
 107.8815336  85.9757508 117.1031936 116.4165396  86.1728404 118.5050591
 116.4714006  85.2202241 118.4293067 115.6056598  86.3287843 118.9891889
 117.5656590  90.1008527 109.7428874 117.1276019  89.3844386 109.2834511
 118.3067030  90.3284642 109.1813965 114.3557756  84.7905464 116.2640970
 113.5425621  85.0899635 116.6706162 114.8516750  84.3961153 116.9815452
 116.5066334  94.7863221 118.1975234 116.4642512  95.0124067 117.2683766
 117.4229032  94.5526596 118.3461036 119.9531967  85.2547288 125.0955864
 120.3081355  85.4818762 125.9550329 120.6004099  85.5865665 124.4733119
 125.6829704  88.3765724 115.8005193 125.5447603  88.5667320 114.8726382
 125.3265923  89.1385107 116.2573244 113.8471830  82.3623820 121.8802205
 114.4871210  82.2212579 121.1825168 113.0149361  82.0758333 121.5040807
 125.7099084  90.4442251 120.8116464 126.1435591  90.3517540 121.6599518
 126.4230665  90.4199752 120.1736480 114.6232134  91.6626250 117.9937197
 115.4172733  91.1676570 117.7919772 113.9123827  91.1344113 117.6304903
 119.4426979  94.0444345 122.3449565 119.4964001  94.6135282 123.1127281
 118.5741760  94.2146231 121.9803602 110.9314898  85.8069332 114.0696950
 110.0012486  85.7453787 114.2866912 111.0272370  85.2845284 113.2733591
 110.8500447  82.3324145 116.6575191 111.1107264  83.2469478 116.5484352
 111.6717619  81.8648587 116.8071804 112.3225372  83.7461902 123.8274016
 112.9948426  83.5379264 123.1786665 111.4955159  83.5483988 123.3879248
 126.5714634  90.4865952 123.3449350 126.7650524  91.3911763 123.5908624
 126.4715252  90.0273371 124.1787935 118.2250944  80.3723843 125.8439677
 117.5778859  81.0713792 125.7504153 118.9951960  80.8059987 126.2115925
 121.6329742  90.6372695 128.9190230 121.4815249  90.4083246 128.0020314
 121.6234422  91.5943296 128.9321575 118.4015079  88.2104608 123.9036497
 119.3307139  88.3615767 123.7305464 117.9806109  88.2988628 123.0485143
 117.2003410  92.2355272 121.6735034 117.0614496  91.8674056 122.5460972
 116.4118007  92.7502911 121.5018992 117.7951562  97.3364368 113.0160571
 117.9703318  96.8652412 113.8306193 117.1084350  97.9630135 113.2441831
 118.7508626  91.6136875 119.0623872 118.4158458  91.5737645 119.9581522
 118.2512571  90.9481591 118.5894282 112.7252869  87.0204505 124.5876453
 112.5872667  86.2884743 125.1887992 113.6357793  86.9313405 124.3060641
 121.6867817  88.9592909 109.3360932 121.0696988  88.2339737 109.2393984
 121.2184306  89.7202269 108.9928006 115.3535170  86.7324464 124.0760133
 116.0634789  86.0917656 124.0346751 115.3104478  86.9837359 124.9986314
 123.3421949  93.6691817 126.9966712 123.2834495  92.9851037 126.3297295
 123.7441467  94.4110807 126.5447338 114.0664104  83.7189682 125.8955772
 113.5301461  83.2680420 126.5477369 113.4780813  83.8535591 125.1526237
 113.4766363  83.1778333 108.4582236 112.5995829  83.0567134 108.0944483
 113.9524116  82.3864412 108.2061125 123.3439356  91.6331401 125.2280692
 122.4566135  91.2957323 125.3507091 123.9137907  90.9014433 125.4649457
 104.9968503  87.9655493 118.5523743 105.6839543  87.6517223 117.9644758
 104.8416632  88.8696858 118.2790994 109.8003225  82.8545690 122.9808767
 109.7161414  82.2471359 122.2459177 108.9785932  83.3454708 122.9818263
 116.8740510  96.2932854 122.1941935 116.8010681  97.0987825 122.7061239
 116.4317903  96.4924819 121.3689956 116.6630289  95.5304624 115.7044756
 115.8797811  96.0726304 115.7982981 117.3623034  96.0478603 116.1038998
 119.9726939  81.3399253 118.3478962 120.4695639  80.5869215 118.0280032
 119.2013921  81.3763570 117.7822171 127.8256697  87.0439619 119.9897253
 127.8146573  87.9264334 119.6191186 126.9574076  86.6911169 119.7951790
 119.3339193  96.1919688 124.3500094 120.0467165  96.8267152 124.2775995
 118.8429222  96.2883554 123.5340095 121.0556720  90.0970940 115.9217385
 120.1212999  90.2172403 115.7522090 121.2333388  89.1943407 115.6577395
 116.5561908  83.4816636 118.0750646 116.1859696  82.9287676 118.7631552
 117.0521000  82.8774770 117.5225646 124.4429271  85.9388260 116.4567419
 124.9089723  86.7716251 116.3827722 124.8936772  85.4733241 117.1612678
 114.3851107  93.9414131 125.1705664 115.0860566  94.5750614 125.3235059
 113.9146222  94.2828863 124.4101304 122.5105502  92.2832081 113.4553571
 122.7865346  92.1688675 114.3647445 121.6410001  91.8849566 113.4165744
 122.4145934  78.3068847 120.4958321 121.5009014  78.5373073 120.6640528
 122.8439035  78.3907291 121.3472353 122.1852393  86.4958739 122.9958215
 121.5323843  86.7434646 122.3410667 122.5632772  85.6822877 122.6620692
 119.1459566  96.5318432 117.0986385 119.3281961  95.7140088 117.5614137
 119.9692552  96.7486124 116.6611275 119.4801732  95.4586617 114.3601433
 120.0089498  94.9479071 113.7471596 119.7429951  95.1429147 115.2246966
 118.2339966  87.2378550 129.4824252 117.5580603  87.1372679 130.1526627
 119.0567599  87.0817763 129.9460249 109.9818825  93.4750486 122.1036767
 110.5672261  92.7294174 122.2364671 109.7843663  93.7854443 122.9873431
 104.5736479  86.0456086 120.8241210 104.6120579  85.5119677 121.6178328
 104.0676772  85.5191292 120.2052187 116.9762748  98.5445477 123.7181868
 117.5281056  98.7077099 124.4830953 117.3168942  99.1349915 123.0461893
 111.9527242  80.8920627 124.3203752 112.0168568  81.7535458 123.9081150
 111.8894362  80.2794629 123.5876111 111.4279514  82.9643759 127.9676787
 112.0551553  82.5820837 128.5814311 110.5707433  82.7457961 128.3332479
 121.8273623  93.3706735 129.5730522 122.3713527  93.9836693 129.0785477
 121.2460468  93.9286313 130.0897535 108.2045057  84.7720189 113.8995142
 108.4998498  83.8630867 113.8462195 107.3033093  84.7507928 113.5776144
 120.1131136  96.4927453 120.7045550 119.9882275  95.6917192 120.1956495
 120.7710227  96.9873646 120.2159520 111.7339304  82.8476185 119.8822690
 111.0125890  83.4612153 119.7430163 112.5232560  83.3833950 119.8039336
 122.1766044  94.2936473 122.3325100 121.2296380  94.1741824 122.2603427
 122.5248817  93.4058971 122.4151361 114.5365617  80.1830612 126.1563342
 115.0600019  80.4292908 126.9189651 114.3177951  81.0150646 125.7366479
 109.9332899  82.4534286 114.0234467 109.6045605  81.5731665 113.8409573
 110.2872269  82.3981955 114.9110856 119.1812477  94.0889189 118.5329452
 119.0337440  93.1605896 118.7137022 120.0065971  94.1109280 118.0486527
 113.0474722  82.7407256 114.3909944 113.3870794  83.2693177 113.6688553
 113.4946842  83.0787662 115.1668511 122.7846599  94.9117748 119.6194325
 123.7093147  94.7060609 119.4818776 122.6161903  94.6634149 120.5283666
 115.7418163  81.1244307 123.8413012 115.4014983  80.3252120 124.2433692
 115.0357169  81.4246018 123.2689846 116.3934634  78.2093619 122.2940335
 117.2160704  77.7354097 122.1719226 116.6372698  78.9884103 122.7939022
 115.0342869  81.2381878 112.5903237 115.7551231  81.6163130 112.0866954
 114.4108173  81.9570754 112.6938215 119.1773992  81.9427027 113.5261569
 119.3937606  82.8251664 113.2250398 118.6968059  81.5513240 112.7967211
 113.9173213  84.9012740 120.1032314 113.7717794  85.2153043 120.9956596
 113.4398417  85.5197640 119.5503213 115.7769596  81.8915288 120.1513204
 115.7631165  80.9956381 119.8145502 116.4942024  81.8985952 120.7851490
 117.6295727  82.3252628 122.1966331 117.3713505  83.2469699 122.1950661
 117.0980767  81.9283062 122.8866795 122.5741915  95.4303415 114.9756416
 122.7478793  94.8649838 114.2230269 123.0670807  96.2304310 114.7935906
 108.3918875  87.4418084 123.0419975 107.8472343  88.2177892 123.1740250
 109.2698225  87.7888889 122.8839097 115.1806492  80.7729668 115.4200774
 115.3022403  79.8446314 115.6191661 114.8908534  80.7868354 114.5079089
 118.0497682  78.4584578 118.5567494 118.0719379  78.5223912 117.6019473
 118.4665741  77.6189087 118.7508000 128.4281307  88.1939838 116.5946716
 128.8712453  87.4447163 116.1965839 127.5507817  88.1849974 116.2120448
 123.5617088  94.7470179 112.0753315 124.2567993  95.3676872 112.2940629
 123.9040238  93.8965531 112.3505693 109.1784897  86.5687980 125.9350132
 108.4366633  86.7170616 126.5214763 108.8577641  86.8296246 125.0716882
 125.4608511  92.1969885 113.6040645 125.9859835  92.5357158 112.8789966
 125.3730864  91.2616900 113.4203780 117.1228560  96.1103959 125.7330522
 117.4315686  95.8653105 126.6053222 117.9204042  96.3150597 125.2449392
 117.1449172  98.2641868 117.9635899 116.7054162  97.7718247 118.6568755
 117.8957289  97.7214836 117.7227974 114.5923044  93.8079877 120.0358200
 113.9703053  93.1450582 119.7360428 115.2627911  93.8341009 119.3531848
 107.8250116  92.3739736 118.9249460 106.9882024  91.9461910 118.7433462
 107.7973761  92.5672179 119.8620252 114.6647571  82.2861665 129.6290706
 114.7135727  83.1623788 129.2468476 115.2070086  81.7439058 129.0562350
 125.1502417  92.8302789 128.9091843 124.3597961  92.8126928 128.3696343
 124.9135772  93.3691082 129.6640880 125.2700292  89.6795255 126.2224572
 125.3198297  89.5145262 127.1640095 125.1614216  88.8122514 125.8322453
 114.1536551  92.3583801 113.5116661 114.3024671  93.0419265 112.8583334
 114.9602994  92.3388891 114.0266117 122.5604055  85.6626183 127.5383879
 123.4613917  85.5232648 127.2467876 122.6352029  85.8280638 128.4782056
 116.8946860  83.0393038 126.3837065 116.0250169  83.3326604 126.1119654
 117.1306340  83.6233483 127.1044329 126.7718489  92.0992197 126.4666594
 126.4803297  92.4622177 127.3030054 126.1590620  91.3859205 126.2879926
 127.9714171  89.6645076 118.9869164 128.8061063  90.1034880 119.1506724
 128.1073300  89.1883730 118.1677410 125.0205677  87.2224811 124.9346652
 125.4959799  87.4152457 124.1265503 124.0971243  87.2783997 124.6890035
 111.9089184  88.3848978 114.5177730 111.6635226  87.4811308 114.7157940
 112.0785098  88.3866129 113.5757208 119.5985894  79.2572655 123.9002485
 120.1167838  79.9933682 123.5748974 119.2441026  79.5636648 124.7349245
 111.1784831  84.1177336 112.0163891 110.4854076  84.1921691 111.3603927
 110.9336583  83.3537680 112.5385408 119.8498488  75.6772937 119.4203382
 120.1300242  75.0096126 120.0463809 120.6349095  75.8702033 118.9078046
 117.6531956  94.8531931 110.9828408 117.0805923  95.4722118 110.5298880
 118.2264750  95.4031293 111.5168330 123.7207346  84.0990571 123.1674957
 124.6724769  84.1988669 123.1887181 123.5510797  83.3068840 123.6773041
 121.7421726  81.1846154 123.3534358 121.1471658  81.4651167 122.6580847
 121.4571422  81.6740055 124.1251099 120.8729216  95.1369081 112.1136991
 121.8059889  95.0714643 112.3169866 120.7852429  95.9725348 111.6551523
 123.5017233  94.4534952 109.0740938 123.4230864  94.1194815 109.9676696
 124.3226900  94.9456720 109.0732411 126.1995424  87.3196691 122.2817257
 126.1671744  86.3812692 122.4676941 126.8096048  87.3980728 121.5483082
 118.0378755  86.1892744 108.3244461 118.9837860  86.0598952 108.3932879
 117.6593000  85.4507406 108.8013889 126.3489913  84.1107734 122.3275540
 125.8328961  83.3266191 122.1405469 127.2329861  83.7826451 122.4922059
 124.0100639  77.8548750 118.2871353 123.8125461  77.5463838 119.1714685
 124.6200345  78.5810389 118.4169282 132.0171974  88.3812698 121.4223294
 132.7475362  88.1197986 121.9830997 131.4078919  87.6441420 121.4625362
 130.0987271  86.5220560 122.0197745 129.3720435  86.3876525 121.4114236
 129.6834558  86.8297389 122.8254463 117.9217447  90.2410490 129.7845118
 118.8420457  90.4189089 129.9785164 117.8867030  89.2966535 129.6324817
 116.2221672  84.1142720 108.2599346 115.3153127  83.8175833 108.3362060
 116.4997653  83.8172538 107.3933632 107.1399612  85.4349084 118.7098392
 106.8202397  84.5814392 118.4172766 106.5933041  85.6497662 119.4656360
 110.9179520  88.1511525 122.4267899 111.1365530  89.0828633 122.4455933
 111.3305294  87.7919499 123.2122703 117.8383738  78.6579610 114.4143587
 117.0284466  78.3126695 114.7898833 118.5268155  78.3487154 115.0031199
 119.7674286  77.7357657 116.0367884 120.3205325  78.1553110 116.6957907
 120.0044372  76.8093405 116.0790840 115.7907385  83.7244730 131.8170648
 115.6904112  84.6739087 131.7482739 115.5728927  83.3962969 130.9446718
 114.9920457  80.9729656 108.4011325 115.8539621  81.2984554 108.6607143
 115.1770801  80.1861151 107.8884391 107.0087872  89.0551995 120.6791514
 106.3151344  88.6405948 120.1661468 107.7560863  89.0972532 120.0824933
 123.1453093  79.8458182 115.5446548 122.5651762  80.5042986 115.1624601
 122.8789026  79.0235527 115.1333966 121.5956660  79.2463240 117.7467869
 122.0956438  79.3579774 116.9382187 122.2392267  78.9424293 118.3868677
 115.6538655  87.1541869 130.6335710 115.1705737  87.9542229 130.8399599
 115.7399594  87.1649814 129.6803154 108.9224615  88.9870249 118.5557529
 108.8995303  89.0857936 117.6039412 109.2325251  89.8335400 118.8774695
 111.5811993  91.0446404 122.6704143 112.5355246  91.0130346 122.6034075
 111.3824516  90.5837028 123.4854369 112.1711375  89.6147520 125.2374941
 112.9904264  90.1091599 125.2609778 112.4448183  88.6979488 125.2092508
 121.9277971  82.0058272 114.6002897 121.0403826  82.2907923 114.3823091
 122.3431960  81.8452036 113.7530173 125.2792507  82.0304793 118.3157236
 126.0552897  82.5201246 118.5881853 124.5540641  82.4562848 118.7729105
 127.7165066  82.7432413 119.3731176 128.3109557  82.5028149 118.6624485
 127.7891650  82.0239543 120.0004713 121.0721185  91.7702947 108.6950916
 121.7757035  91.9752950 109.3108572 120.3483833  92.3379709 108.9600000
 121.9018995  87.5212808 114.8153187 121.8454196  87.9781360 113.9760819
 122.4547337  86.7603493 114.6376029 125.7123801  83.3102540 115.6403306
 125.4560735  82.9099176 116.4711514 125.0876669  84.0246334 115.5153445
 130.0236139  86.0498613 118.1474598 129.4635697  86.1191803 118.9206160
 129.4179642  85.8739598 117.4274094 122.9807882  92.2085476 110.7449377
 123.8153486  91.7766675 110.5626851 122.8192225  92.0367490 111.6726271
 122.6353774  88.7117590 112.1105716 122.5802578  88.5461861 111.1694160
 122.0099829  89.4193622 112.2667906 107.4246289  83.9485654 125.9367138
 108.0705153  83.4384608 126.4254363 107.2163440  84.6854336 126.5110563
 119.9499681  91.0166501 131.4359279 120.8190841  91.1907154 131.0745914
 119.4706433  91.8360918 131.3135008 115.9449900  78.2125699 111.6891034
 115.9328569  79.1567538 111.8459305 116.8373322  78.0295844 111.3950495
 114.1185862  98.1363602 123.1148712 115.0213108  98.1687213 123.4315207
 113.8923232  97.2064053 123.1295048 115.8739464  96.8894589 119.7758791
 114.9235095  96.8896451 119.6623163 116.1771950  96.1427324 119.2594826
 119.7602019  74.8068475 115.9436971 118.9934415  74.2526962 116.0893653
 120.1712724  74.8790344 116.8051123 111.7643780  81.0953271 130.0342152
 112.6275242  80.7390076 130.2445477 111.1909191  80.7567166 130.7217557
 131.6092157 102.7255127 120.8404553 132.2470567 102.6061875 120.1367893
 131.4913000 103.6735971 120.8992505 128.4181863 102.6782555 120.7766078
 128.0800375 102.5623620 119.8886613 129.2871632 102.2773721 120.7567084
 124.2768679 104.5318032 116.7662969 123.7133544 104.4407969 115.9979257
 124.1621074 103.7117936 117.2465461 128.9001646 103.8317407 126.7352283
 128.8890287 103.4370205 125.8632787 129.0622286 103.0983480 127.3286055
 121.8233111 106.0269223 119.6047189 122.6154403 105.6860048 119.1893489
 122.0629761 106.1364199 120.5249343 129.8568238 108.1989000 112.0777434
 129.2056218 108.7843080 111.6911448 130.6512601 108.7295194 112.1372471
 123.7823865 105.2878137 112.4764568 124.5554741 104.7407124 112.3377444
 124.1349264 106.1522386 112.6879030 125.6208908 106.6154519 125.6831467
 125.3298774 107.5200150 125.5678134 126.2565892 106.6571047 126.3975537
 126.5465114 103.9931368 122.2732827 127.1428687 103.7687390 121.5589790
 126.6040086 103.2516113 122.8758275 126.1190143 101.4470803 110.1083018
 126.3715663 100.9252324 109.3466481 125.1814702 101.2836948 110.2109702
 131.1633426 100.4506581 117.9157761 131.9496515 100.0326004 117.5648178
 131.4272130 101.3552673 118.0839410 131.3343503 105.8879432 112.6146418
 130.6989336 105.9614058 113.3267323 131.0040909 106.4773030 111.9365497
 136.5641853 100.3881814 118.8190740 137.2967025  99.8181031 119.0528569
 135.8081208 100.0003415 119.2597245 125.8386432 103.3498909 112.3107393
 125.7222690 102.6743812 112.9788477 125.9488691 102.8631283 111.4939546
 128.1817972 102.8109056 116.0154082 127.8176180 102.2839677 116.7267004
 129.0385088 102.4207525 115.8420568 134.0867273  94.1003389 123.2785348
 133.7550598  94.9698799 123.0546563 133.4912886  93.7839673 123.9579379
 127.8223459  97.8398956 111.0115431 127.9897862  98.7079192 111.3785902
 127.6320629  98.0026237 110.0876720 130.5798793 106.3015935 122.6781261
 130.2799516 107.2040973 122.5697068 130.2349852 106.0348118 123.5302414
 124.0311274 102.7529731 118.7117966 123.1061771 102.6205945 118.9195657
 124.2795687 103.5323951 119.2087908 133.9795936  98.8198475 120.3578698
 133.0712814  98.7513883 120.0637459 133.9283532  99.2970420 121.1860524
 127.8012680 100.2956613 111.9962098 127.6812306 100.7413664 112.8347578
 127.1065269 100.6441931 111.4375636 121.3920085 102.3963005 119.5461755
 121.5212466 102.6497484 120.4601166 120.7117536 102.9890713 119.2266410
 125.5619572 113.0660255 115.6452229 125.4843602 114.0168080 115.7240709
 124.9581216 112.7206127 116.3027155 128.0536802 100.2388120 128.3013596
 127.2770136 100.7982040 128.2916460 128.6927365 100.7244903 128.8228466
 135.8457583  97.0214913 122.1356572 135.2031963  97.3147446 121.4896367
 135.3412511  96.9067833 122.9409769 133.4997746 100.7678086 112.8242432
 134.4115603 101.0005473 112.6490129 132.9907394 101.3515130 112.2617510
 126.3083174 103.0473574 127.8631563 127.0497859 103.5858618 127.5866386
 125.6020160 103.6739862 128.0203115 131.7838514 105.1902714 126.4603724
 132.1921870 104.7485125 125.7158357 131.0615776 104.6155342 126.7137917
 128.1369584 100.1275321 123.8337281 128.9830779 100.5514734 123.9771930
 128.0768222  99.4708945 124.5275844 132.1067329 105.7503905 120.2156013
 131.4776191 105.9149619 119.5132081 131.7192991 106.1645514 120.9866977
 135.9856561 106.6858343 117.5700377 135.3007599 107.0657244 117.0197410
 136.0700410 107.2953669 118.3032325 131.2869030  97.7879689 125.4918455
 131.0429961  98.5421750 124.9552731 131.5628960  98.1665037 126.3265702
 133.2407492 104.3318302 124.1695720 133.4524388 104.9750061 123.4930101
 133.1937241 103.4980618 123.7017650 130.8433721  96.9436122 121.0732293
 129.9818200  97.2417376 121.3649030 130.8696156  97.1606521 120.1413325
 127.6595291 105.4878313 117.4806098 128.1233636 105.7666016 116.6910721
 127.3952089 104.5861757 117.2979189 124.5519372 105.0349794 120.4185861
 125.1220729 105.4637063 119.7803346 125.1427484 104.7532379 121.1170047
 126.5964177 101.6101465 114.2895663 127.2988220 102.0622509 114.7569590
 126.2644805 100.9685284 114.9175556 125.0444538 100.2013222 128.6646873
 124.4143199 100.8829503 128.8982270 124.9380626 100.0896303 127.7200011
 120.3389511  99.8685018 119.5912797 119.5488565 100.1242546 119.1152908
 120.8300758 100.6833356 119.6964837 134.3553320 107.2090257 122.3418078
 135.1770764 106.8070444 122.0600759 134.3515723 107.1058491 123.2934194
 122.2904256 100.2329597 116.5496274 121.4935419 100.3448291 117.0679769
 122.0629848 100.5716249 115.6837164 128.1209924 106.7574300 124.4978788
 128.1854356 107.2194708 125.3336960 127.4120848 106.1271665 124.6261098
 118.6227214 100.1215508 122.0227788 118.8735252 101.0062518 122.2885364
 119.1586762  99.9420110 121.2502880 142.4459313 103.5529006 118.6903049
 141.6923022 102.9836404 118.5347054 142.5806854 103.5191670 119.6373684
 127.8357941 108.4242408 114.3657769 127.7003616 109.2693944 114.7942616
 128.3767754 108.6261685 113.6023702 124.3225281  94.5033988 131.0272124
 123.9292227  93.9500186 131.7019768 125.1391421  94.8144566 131.4178641
 121.2887339 105.9417846 114.9385694 121.8011859 106.7361096 115.0891258
 121.9410052 105.2444136 114.8719295 123.0982223 109.0583602 117.0208447
 123.2748852 109.9801567 116.8329431 123.8939057 108.7442021 117.4502827
 127.2393242  95.9191867 128.6192380 127.9802955  96.5199020 128.5396843
 127.4711165  95.1769505 128.0610423 122.3834580 101.1048234 126.8970610
 122.2688095 100.2033491 127.1977709 121.5279098 101.3511931 126.5455427
 129.4626418 109.0465974 128.4958111 129.0190272 108.2602353 128.1779015
 130.1243631 109.2345125 127.8302001 124.2213539 110.5761776 123.0218789
 124.7720964 110.4478839 122.2495783 123.3825015 110.8756665 122.6713682
 131.5607656 109.3268774 126.5239512 131.5426131 110.1477655 126.0319781
 132.4827576 109.2022849 126.7489653 128.0180710 106.8412904 127.3663020
 128.5509047 106.0801192 127.1362328 127.4894791 106.5486556 128.1087175
 131.1850405  91.9472970 122.8956662 130.8414674  92.8374611 122.8195773
 131.5529367  91.7574627 122.0326247 119.2536256 104.2706500 115.7145264
 120.0911478 104.6803509 115.4978972 119.4314523 103.3305942 115.6845458
 131.1500688 101.9381581 111.4029097 130.6347311 102.7086185 111.6417485
 130.8777996 101.2646717 112.0262159 128.7347799  96.7831282 116.4614336
 127.8789395  96.3938132 116.2819974 129.1474750  96.8623242 115.6014121
 130.2646945  94.3177625 120.8605895 129.7611741  94.2807760 120.0473701
 130.5577552  95.2270368 120.9202552 126.5089831  94.4016355 119.8672077
 127.3742828  94.2059163 119.5077967 126.5767340  94.1726706 120.7941434
 136.1234962 104.6913935 113.3382271 135.3464405 104.3525095 112.8937433
 136.8026443 104.6966559 112.6637236 130.9386991  99.8108673 113.2288878
 130.6337126 100.1254822 114.0799022 131.8917433  99.8890093 113.2716211
 129.3833423 105.9698896 114.8781832 128.8554784 105.2351656 114.5655070
 128.8820925 106.7473573 114.6321801 134.3626269 104.1647917 119.9948879
 133.7049943 104.8547178 120.0829007 135.1666668 104.5544349 120.3382865
 124.1152150  96.6318562 117.2388444 124.6895902  96.4093744 116.5061637
 124.7023133  96.7007257 117.9917045 133.1731727 102.5192289 118.0452820
 133.6863609 103.1522281 118.5474530 133.8232951 101.9193485 117.6796180
 124.4421737  98.6623024 111.2584329 123.6059050  98.9997710 111.5793604
 124.3026507  98.5272003 110.3211466 126.4174818  93.5059811 115.9663513
 125.7639230  93.1908829 115.3420128 126.3755292  92.8835552 116.6923336
 127.5286023 103.7879106 107.8816805 126.6213085 103.5568360 108.0807954
 128.0257055 102.9916726 108.0690787 130.4354102 112.4976614 110.8013492
 129.7615800 112.8008310 111.4098449 130.8219924 113.3005694 110.4518949
 129.6512558  99.9941745 120.2911161 128.7335120 100.2156692 120.1332849
 130.0672702 100.0688055 119.4322868 130.4347606 101.3933161 115.4213841
 131.1819425 101.9054558 115.1120963 130.7039196 101.0717213 116.2818235
 128.7074256 103.8891701 112.4040795 127.7985476 103.6050734 112.5013265
 128.7369340 104.3090780 111.5444102 133.9393524 107.4998291 116.1731963
 133.4855851 106.6589201 116.2297153 133.3087490 108.1359689 116.5106743
 132.8826443  98.4290277 117.4032630 132.1449200  97.9167663 117.7342873
 133.1353217  97.9890658 116.5915907 132.3826463 109.3374788 117.1081781
 132.6749437 109.8979845 116.3894147 132.8925083 109.6303349 117.8634940
 132.9838071  91.2066529 117.9974400 133.2896947  90.3463892 117.7100315
 133.7090675  91.7984149 117.7973394 119.2762427 101.6097215 116.3855998
 119.0786826 101.0166576 115.6607064 118.7209091 101.3049426 117.1031936
 127.2559150 101.5020322 118.5050591 127.3107760 100.5494158 118.4293067
 126.4450352 101.6579761 118.9891889 128.4050344 105.4300445 109.7428874
 127.9669774 104.7136304 109.2834511 129.1460785 105.6576560 109.1813965
 125.1951510 100.1197382 116.2640970 124.3819376 100.4191552 116.6706162
 125.6910504  99.7253070 116.9815452 127.3460088 110.1155139 118.1975234
 127.3036267 110.3415985 117.2683766 128.2622787 109.8818513 118.3461036
 130.7925722 100.5839206 125.0955864 131.1475110 100.8110679 125.9550329
 131.4397853 100.9157583 124.4733119 136.5223459 103.7057642 115.8005193
 136.3841357 103.8959238 114.8726382 136.1659678 104.4677025 116.2573244
 124.6865585  97.6915737 121.8802205 125.3264964  97.5504496 121.1825168
 123.8543116  97.4050251 121.5040807 136.5492838 105.7734169 120.8116464
 136.9829345 105.6809458 121.6599518 137.2624419 105.7491670 120.1736480
 125.4625889 106.9918168 117.9937197 126.2566487 106.4968488 117.7919772
 124.7517581 106.4636031 117.6304903 130.2820733 109.3736263 122.3449565
 130.3357756 109.9427199 123.1127281 129.4135515 109.5438148 121.9803602
 121.7708652 101.1361249 114.0696950 120.8406240 101.0745705 114.2866912
 121.8666124 100.6137202 113.2733591 121.6894201  97.6616062 116.6575191
 121.9501019  98.5761395 116.5484352 122.5111374  97.1940505 116.8071804
 123.1619127  99.0753819 123.8274016 123.8342180  98.8671182 123.1786665
 122.3348913  98.8775905 123.3879248 137.4108388 105.8157870 123.3449350
 137.6044278 106.7203680 123.5908624 137.3109006 105.3565289 124.1787935
 129.0644699  95.7015760 125.8439677 128.4172614  96.4005710 125.7504153
 129.8345714  96.1351904 126.2115925 132.4723497 105.9664612 128.9190230
 132.3209003 105.7375164 128.0020314 132.4628176 106.9235214 128.9321575
 129.2408833 103.5396525 123.9036497 130.1700893 103.6907685 123.7305464
 128.8199863 103.6280546 123.0485143 128.0397165 107.5647190 121.6735034
 127.9008251 107.1965974 122.5460972 127.2511761 108.0794829 121.5018992
 128.6345317 112.6656286 113.0160571 128.8097073 112.1944329 113.8306193
 127.9478105 113.2922052 113.2441831 129.5902380 106.9428792 119.0623872
 129.2552213 106.9029562 119.9581522 129.0906326 106.2773508 118.5894282
 123.5646624 102.3496422 124.5876453 123.4266422 101.6176661 125.1887992
 124.4751547 102.2605322 124.3060641 132.5261572 104.2884827 109.3360932
 131.9090742 103.5631655 109.2393984 132.0578060 105.0494187 108.9928006
 126.1928925 102.0616382 124.0760133 126.9028543 101.4209574 124.0346751
 126.1498233 102.3129277 124.9986314 134.1815703 108.9983735 126.9966712
 134.1228249 108.3142955 126.3297295 134.5835222 109.7402725 126.5447338
 124.9057859  99.0481600 125.8955772 124.3695216  98.5972338 126.5477369
 124.3174567  99.1827508 125.1526237 123.2006402 115.8145649 119.7900431
 123.4403000 116.4464173 120.4679449 122.3575599 115.4633689 120.0765790
 124.3160118  98.5070251 108.4582236 123.4389584  98.3859052 108.0944483
 124.7917871  97.7156329 108.2061125 134.1833111 106.9623319 125.2280692
 133.2959889 106.6249241 125.3507091 134.7531662 106.2306350 125.4649457
 115.8362258 103.2947411 118.5523743 116.5233298 102.9809141 117.9644758
 115.6810386 104.1988775 118.2790994 120.6396980  98.1837607 122.9808767
 120.5555169  97.5763277 122.2459177 119.8179686  98.6746626 122.9818263
 127.7134264 111.6224771 122.1941935 127.6404435 112.4279743 122.7061239
 127.2711657 111.8216737 121.3689956 127.5024044 110.8596541 115.7044756
 126.7191566 111.4018222 115.7982981 128.2016789 111.3770521 116.1038998
 130.8120694  96.6691171 118.3478962 131.3089393  95.9161133 118.0280032
 130.0407675  96.7055487 117.7822171 138.6650451 102.3731536 119.9897253
 138.6540327 103.2556252 119.6191186 137.7967831 102.0203087 119.7951790
 130.1732948 111.5211605 124.3500094 130.8860920 112.1559070 124.2775995
 129.6822976 111.6175471 123.5340095 131.8950474 105.4262858 115.9217385
 130.9606753 105.5464320 115.7522090 132.0727143 104.5235325 115.6577395
 127.3955662  98.8108554 118.0750646 127.0253450  98.2579594 118.7631552
 127.8914755  98.2066687 117.5225646 135.2823026 101.2680177 116.4567419
 135.7483478 102.1008169 116.3827722 135.7330526 100.8025159 117.1612678
 125.2244861 109.2706049 125.1705664 125.9254321 109.9042532 125.3235059
 124.7539976 109.6120780 124.4101304 133.3499257 107.6123999 113.4553571
 133.6259101 107.4980593 114.3647445 132.4803756 107.2141483 113.4165744
 133.2539689  93.6360764 120.4958321 132.3402768  93.8664991 120.6640528
 133.6832790  93.7199208 121.3472353 133.0246147 101.8250656 122.9958215
 132.3717597 102.0726564 122.3410667 133.4026527 101.0114794 122.6620692
 129.9853321 111.8610349 117.0986385 130.1675715 111.0432005 117.5614137
 130.8086307 112.0778042 116.6611275 130.3195486 110.7878535 114.3601433
 130.8483253 110.2770989 113.7471596 130.5823706 110.4721065 115.2246966
 129.0733720 102.5670467 129.4824252 128.3974357 102.4664597 130.1526627
 129.8961354 102.4109681 129.9460249 120.8212579 108.8042404 122.1036767
 121.4066016 108.0586092 122.2364671 120.6237418 109.1146361 122.9873431
 123.6751234 111.8393651 117.1199209 123.0061610 112.3239779 116.6363249
 123.5364104 112.0862872 118.0342588 115.4130234 101.3748004 120.8241210
 115.4514333 100.8411595 121.6178328 114.9070527 100.8483210 120.2052187
 127.8156503 113.8737395 123.7181868 128.3674811 114.0369016 124.4830953
 128.1562696 114.4641833 123.0461893 122.7920996  96.2212545 124.3203752
 122.8562323  97.0827375 123.9081150 122.7288116  95.6086546 123.5876111
 122.2673269  98.2935677 127.9676787 122.8945307  97.9112754 128.5814311
 121.4101188  98.0749879 128.3332479 132.6667377 108.6998652 129.5730522
 133.2107281 109.3128611 129.0785477 132.0854222 109.2578231 130.0897535
 119.0438811 100.1012106 113.8995142 119.3392253  99.1922785 113.8462195
 118.1426847 100.0799846 113.5776144 130.9524890 111.8219370 120.7045550
 130.8276030 111.0209110 120.1956495 131.6103981 112.3165564 120.2159520
 122.5733058  98.1768103 119.8822690 121.8519644  98.7904070 119.7430163
 123.3626314  98.7125868 119.8039336 133.0159799 109.6228390 122.3325100
 132.0690134 109.5033742 122.2603427 133.3642572 108.7350888 122.4151361
 125.3759372  95.5122529 126.1563342 125.8993774  95.7584826 126.9189651
 125.1571705  96.3442564 125.7366479 120.7726653  97.7826204 114.0234467
 120.4439359  96.9023583 113.8409573 121.1266024  97.7273873 114.9110856
 130.0206232 109.4181107 118.5329452 129.8731194 108.4897814 118.7137022
 130.8459725 109.4401197 118.0486527 123.8868476  98.0699174 114.3909944
 124.2264549  98.5985095 113.6688553 124.3340597  98.4079580 115.1668511
 133.6240354 110.2409665 119.6194325 134.5486901 110.0352527 119.4818776
 133.4555657 109.9926066 120.5283666 126.5811917  96.4536224 123.8413012
 126.2408737  95.6544037 124.2433692 125.8750923  96.7537935 123.2689846
 127.2328389  93.5385537 122.2940335 128.0554458  93.0646015 122.1719226
 127.4766452  94.3176021 122.7939022 125.8736623  96.5673795 112.5903237
 126.5944986  96.9455048 112.0866954 125.2501927  97.2862672 112.6938215
 130.0167746  97.2718944 113.5261569 130.2331361  98.1543582 113.2250398
 129.5361813  96.8805158 112.7967211 124.7566968 100.2304657 120.1032314
 124.6111548 100.5444961 120.9956596 124.2792171 100.8489558 119.5503213
 126.6163350  97.2207205 120.1513204 126.6024919  96.3248299 119.8145502
 127.3335779  97.2277869 120.7851490 128.4689481  97.6544546 122.1966331
 128.2107259  98.5761616 122.1950661 127.9374522  97.2574980 122.8866795
 133.4135670 110.7595333 114.9756416 133.5872547 110.1941755 114.2230269
 133.9064561 111.5596228 114.7935906 119.2312630 102.7710002 123.0419975
 118.6866098 103.5469810 123.1740250 120.1091980 103.1180806 122.8839097
 126.0200246  96.1021586 115.4200774 126.1416158  95.1738232 115.6191661
 125.7302289  96.1160272 114.5079089 128.8891437  93.7876496 118.5567494
 128.9113134  93.8515829 117.6019473 129.3059496  92.9481005 118.7508000
 139.2675061 103.5231756 116.5946716 139.7106207 102.7739081 116.1965839
 138.3901571 103.5141892 116.2120448 134.4010842 110.0762097 112.0753315
 135.0961747 110.6968790 112.2940629 134.7433993 109.2257448 112.3505693
 120.0178652 101.8979898 125.9350132 119.2760388 102.0462533 126.5214763
 119.6971396 102.1588164 125.0716882 136.3002266 107.5261803 113.6040645
 136.8253590 107.8649075 112.8789966 136.2124618 106.5908818 113.4203780
 127.9622314 111.4395876 125.7330522 128.2709441 111.1945023 126.6053222
 128.7597796 111.6442515 125.2449392 127.9842926 113.5933786 117.9635899
 127.5447917 113.1010165 118.6568755 128.7351043 113.0506754 117.7227974
 120.4635265 109.7845327 117.9660527 121.2893285 109.4849099 117.5859170
 120.1129317 109.0152949 118.4150315 125.4316798 109.1371795 120.0358200
 124.8096808 108.4742500 119.7360428 126.1021665 109.1632927 119.3531848
 118.6643870 107.7031653 118.9249460 117.8275779 107.2753828 118.7433462
 118.6367516 107.8964097 119.8620252 125.5041326  97.6153583 129.6290706
 125.5529481  98.4915706 129.2468476 126.0463840  97.0730976 129.0562350
 135.9896172 108.1594706 128.9091843 135.1991715 108.1418845 128.3696343
 135.7529526 108.6983000 129.6640880 136.1094047 105.0087173 126.2224572
 136.1592052 104.8437180 127.1640095 136.0007970 104.1414432 125.8322453
 124.9930305 107.6875718 113.5116661 125.1418426 108.3711183 112.8583334
 125.7996749 107.6680808 114.0266117 133.3997809 100.9918101 127.5383879
 134.3007672 100.8524566 127.2467876 133.4745784 101.1572556 128.4782056
 127.7340614  98.3684955 126.3837065 126.8643924  98.6618522 126.1119654
 127.9700095  98.9525400 127.1044329 137.6112243 107.4284114 126.4666594
 137.3197052 107.7914095 127.3030054 136.9984375 106.7151123 126.2879926
 138.8107926 104.9936994 118.9869164 139.6454817 105.4326798 119.1506724
 138.9467055 104.5175647 118.1677410 135.8599432 102.5516729 124.9346652
 136.3353553 102.7444375 124.1265503 134.9364997 102.6075915 124.6890035
 122.7482938 103.7140896 114.5177730 122.5028980 102.8103226 114.7157940
 122.9178853 103.7158046 113.5757208 130.4379648  94.5864572 123.9002485
 130.9561592  95.3225599 123.5748974 130.0834781  94.8928566 124.7349245
 122.0178586  99.4469254 112.0163891 121.3247831  99.5213609 111.3603927
 121.7730338  98.6829597 112.5385408 130.6892242  91.0064855 119.4203382
 130.9693996  90.3388044 120.0463809 131.4742849  91.1993951 118.9078046
 128.4925711 110.1823849 110.9828408 127.9199678 110.8014036 110.5298880
 129.0658505 110.7323211 111.5168330 134.5601101  99.4282489 123.1674957
 135.5118524  99.5280587 123.1887181 134.3904551  98.6360757 123.6773041
 132.5815480  96.5138072 123.3534358 131.9865412  96.7943085 122.6580847
 132.2965177  97.0031973 124.1251099 131.7122971 110.4660999 112.1136991
 132.6453644 110.4006561 112.3169866 131.6246183 111.3017266 111.6551523
 134.3410987 109.7826869 109.0740938 134.2624619 109.4486733 109.9676696
 135.1620654 110.2748637 109.0732411 137.0389179 102.6488609 122.2817257
 137.0065499 101.7104609 122.4676941 137.6489802 102.7272645 121.5483082
 128.8772509 101.5184662 108.3244461 129.8231614 101.3890870 108.3932879
 128.4986754 100.7799324 108.8013889 137.1883667  99.4399652 122.3275540
 136.6722716  98.6558109 122.1405469 138.0723616  99.1118369 122.4922059
 134.8494394  93.1840668 118.2871353 134.6519215  92.8755756 119.1714685
 135.4594099  93.9102307 118.4169282 142.8565728 103.7104615 121.4223294
 143.5869117 103.4489904 121.9830997 142.2472674 102.9733337 121.4625362
 140.9381025 101.8512478 122.0197745 140.2114189 101.7168443 121.4114236
 140.5228312 102.1589307 122.8254463 128.7611202 105.5702408 129.7845118
 129.6814211 105.7481007 129.9785164 128.7260785 104.6258453 129.6324817
 127.0615427  99.4434638 108.2599346 126.1546882  99.1467751 108.3362060
 127.3391408  99.1464456 107.3933632 117.9793367 100.7641001 118.7098392
 117.6596151  99.9106310 118.4172766 117.4326795 100.9789580 119.4656360
 121.7573274 103.4803442 122.4267899 121.9759284 104.4120550 122.4455933
 122.1699048 103.1211417 123.2122703 128.6777492  93.9871528 114.4143587
 127.8678221  93.6418613 114.7898833 129.3661909  93.6779071 115.0031199
 130.6068041  93.0649575 116.0367884 131.1599079  93.4845028 116.6957907
 130.8438127  92.1385323 116.0790840 126.6301140  99.0536648 131.8170648
 126.5297867 100.0031005 131.7482739 126.4122682  98.7254887 130.9446718
 125.8314211  96.3021573 108.4011325 126.6933375  96.6276472 108.6607143
 126.0164555  95.5153069 107.8884391 117.8481627 104.3843913 120.6791514
 117.1545098 103.9697866 120.1661468 118.5954618 104.4264449 120.0824933
 133.9846848  95.1750100 115.5446548 133.4045517  95.8334904 115.1624601
 133.7182780  94.3527444 115.1333966 132.4350414  94.5755157 117.7467869
 132.9350192  94.6871692 116.9382187 133.0786022  94.2716210 118.3868677
 126.4932410 102.4833787 130.6335710 126.0099492 103.2834147 130.8399599
 126.5793349 102.4941732 129.6803154 119.7618369 104.3162167 118.5557529
 119.7389058 104.4149854 117.6039412 120.0719006 105.1627317 118.8774695
 122.4205747 106.3738322 122.6704143 123.3749001 106.3422264 122.6034075
 122.2218271 105.9128945 123.4854369 123.0105129 104.9439438 125.2374941
 123.8298018 105.4383516 125.2609778 123.2841937 104.0271406 125.2092508
 132.7671726  97.3350190 114.6002897 131.8797581  97.6199841 114.3823091
 133.1825715  97.1743953 113.7530173 136.1186262  97.3596711 118.3157236
 136.8946652  97.8493163 118.5881853 135.3934396  97.7854765 118.7729105
 138.5558820  98.0724330 119.3731176 139.1503311  97.8320066 118.6624485
 138.6285404  97.3531461 120.0004713 120.7755976 111.9157941 119.6874341
 120.6410444 111.1558342 119.1212339 120.3588038 112.6398841 119.2203130
 131.9114939 107.0994865 108.6950916 132.6150789 107.3044867 109.3108572
 131.1877588 107.6671627 108.9600000 132.7412749 102.8504726 114.8153187
 132.6847951 103.3073277 113.9760819 133.2941092 102.0895411 114.6376029
 136.5517555  98.6394458 115.6403306 136.2954490  98.2391094 116.4711514
 135.9270423  99.3538252 115.5153445 140.8629893 101.3790531 118.1474598
 140.3029451 101.4483720 118.9206160 140.2573397 101.2031516 117.4274094
 123.9325102 112.8127258 119.8992784 123.8157486 113.7572691 119.7971474
 123.1117548 112.5100820 120.2878583 133.8201637 107.5377394 110.7449377
 134.6547240 107.1058592 110.5626851 133.6585979 107.3659408 111.6726271
 133.4747529 104.0409507 112.1105716 133.4196332 103.8753779 111.1694160
 132.8493584 104.7485540 112.2667906 118.2640044  99.2777572 125.9367138
 118.9098907  98.7676526 126.4254363 118.0557195 100.0146253 126.5110563
 130.7893436 106.3458419 131.4359279 131.6584596 106.5199071 131.0745914
 130.3100187 107.1652836 131.3135008 126.7843654  93.5417616 111.6891034
 126.7722324  94.4859456 111.8459305 127.6767076  93.3587762 111.3950495
 124.9579616 113.4655520 123.1148712 125.8606863 113.4979130 123.4315207
 124.7316986 112.5355971 123.1295048 126.7133218 112.2186507 119.7758791
 125.7628849 112.2188368 119.6623163 127.0165704 111.4719241 119.2594826
 130.5995774  90.1360393 115.9436971 129.8328169  89.5818880 116.0893653
 131.0106479  90.2082262 116.8051123 122.6037535  96.4245189 130.0342152
 123.4668996  96.0681994 130.2445477 122.0302945  96.0859084 130.7217557
 142.4485912 118.0547045 120.8404553 143.0864322 117.9353792 120.1367893
 142.3306754 119.0027889 120.8992505 139.2575618 118.0074473 120.7766078
 138.9194129 117.8915538 119.8886613 140.1265386 117.6065638 120.7567084
 135.1162434 119.8609950 116.7662969 134.5527299 119.7699886 115.9979257
 135.0014829 119.0409854 117.2465461 139.7395401 119.1609325 126.7352283
 139.7284042 118.7662123 125.8632787 139.9016040 118.4275397 127.3286055
 132.6626866 121.3561141 119.6047189 133.4548157 121.0151966 119.1893489
 132.9023516 121.4656116 120.5249343 140.6961992 123.5280917 112.0777434
 140.0449972 124.1134998 111.6911448 141.4906355 124.0587112 112.1372471
 134.6217619 120.6170054 112.4764568 135.3948495 120.0699041 112.3377444
 134.9743018 121.4814304 112.6879030 136.4602662 121.9446437 125.6831467
 136.1692528 122.8492068 125.5678134 137.0959646 121.9862964 126.3975537
 137.3858869 119.3223285 122.2732827 137.9822441 119.0979308 121.5589790
 137.4433840 118.5808031 122.8758275 136.9583897 116.7762721 110.1083018
 137.2109418 116.2544242 109.3466481 136.0208456 116.6128866 110.2109702
 142.0027180 115.7798499 117.9157761 142.7890269 115.3617922 117.5648178
 142.2665884 116.6844591 118.0839410 142.1737257 121.2171349 112.6146418
 141.5383090 121.2905976 113.3267323 141.8434664 121.8064948 111.9365497
 147.4035607 115.7173732 118.8190740 148.1360779 115.1472949 119.0528569
 146.6474963 115.3295333 119.2597245 136.6780186 118.6790826 112.3107393
 136.5616444 118.0035730 112.9788477 136.7882446 118.1923200 111.4939546
 139.0211727 118.1400974 116.0154082 138.6569934 117.6131595 116.7267004
 139.8778843 117.7499443 115.8420568 144.9261028 109.4295306 123.2785348
 144.5944352 110.2990717 123.0546563 144.3306641 109.1131590 123.9579379
 138.6617214 113.1690873 111.0115431 138.8291616 114.0371110 111.3785902
 138.4714383 113.3318155 110.0876720 141.4192547 121.6307852 122.6781261
 141.1193270 122.5332891 122.5697068 141.0743607 121.3640035 123.5302414
 134.8705029 118.0821649 118.7117966 133.9455525 117.9497863 118.9195657
 135.1189442 118.8615868 119.2087908 144.8189691 114.1490392 120.3578698
 143.9106568 114.0805801 120.0637459 144.7677287 114.6262337 121.1860524
 138.6406435 115.6248531 111.9962098 138.5206060 116.0705582 112.8347578
 137.9459023 115.9733848 111.4375636 132.2313840 117.7254923 119.5461755
 132.3606221 117.9789402 120.4601166 131.5511291 118.3182631 119.2266410
 136.4013327 128.3952173 115.6452229 136.3237357 129.3459998 115.7240709
 135.7974970 128.0498045 116.3027155 138.8930557 115.5680038 128.3013596
 138.1163891 116.1273958 128.2916460 139.5321120 116.0536821 128.8228466
 146.6851337 112.3506831 122.1356572 146.0425718 112.6439364 121.4896367
 146.1806266 112.2359751 122.9409769 144.3391501 116.0970004 112.8242432
 145.2509357 116.3297391 112.6490129 143.8301148 116.6807048 112.2617510
 137.1476929 118.3765491 127.8631563 137.8891613 118.9150535 127.5866386
 136.4413914 119.0031780 128.0203115 142.6232269 120.5194632 126.4603724
 143.0315625 120.0777042 125.7158357 141.9009530 119.9447259 126.7137917
 138.9763339 115.4567239 123.8337281 139.8224534 115.8806652 123.9771930
 138.9161976 114.8000863 124.5275844 142.9461083 121.0795822 120.2156013
 142.3169946 121.2441537 119.5132081 142.5586745 121.4937432 120.9866977
 146.8250315 122.0150260 117.5700377 146.1401353 122.3949162 117.0197410
 146.9094164 122.6245587 118.3032325 142.1262784 113.1171607 125.4918455
 141.8823716 113.8713667 124.9552731 142.4022715 113.4956955 126.3265702
 144.0801247 119.6610219 124.1695720 144.2918142 120.3041979 123.4930101
 144.0330995 118.8272536 123.7017650 141.6827476 112.2728040 121.0732293
 140.8211955 112.5709293 121.3649030 141.7089910 112.4898439 120.1413325
 138.4989045 120.8170230 117.4806098 138.9627391 121.0957933 116.6910721
 138.2345843 119.9153675 117.2979189 135.3913126 120.3641712 120.4185861
 135.9614483 120.7928980 119.7803346 135.9821238 120.0824297 121.1170047
 137.4357931 116.9393383 114.2895663 138.1381975 117.3914427 114.7569590
 137.1038560 116.2977202 114.9175556 135.8838293 115.5305139 128.6646873
 135.2536953 116.2121420 128.8982270 135.7774381 115.4188221 127.7200011
 131.1783265 115.1976936 119.5912797 130.3882319 115.4534464 119.1152908
 131.6694513 116.0125273 119.6964837 145.1947075 122.5382175 122.3418078
 146.0164518 122.1362362 122.0600759 145.1909478 122.4350409 123.2934194
 133.1298011 115.5621515 116.5496274 132.3329174 115.6740209 117.0679769
 132.9023603 115.9008167 115.6837164 138.9603678 122.0866218 124.4978788
 139.0248111 122.5486625 125.3336960 138.2514602 121.4563583 124.6261098
 129.4620968 115.4507426 122.0227788 129.7129007 116.3354436 122.2885364
 129.9980517 115.2712028 121.2502880 153.2853068 118.8820923 118.6903049
 152.5316776 118.3128321 118.5347054 153.4200609 118.8483588 119.6373684
 138.6751696 123.7534325 114.3657769 138.5397371 124.5985861 114.7942616
 139.2161508 123.9553603 113.6023702 135.1619035 109.8325905 131.0272124
 134.7685981 109.2792104 131.7019768 135.9785176 110.1436484 131.4178641
 132.1281093 121.2709764 114.9385694 132.6405614 122.0653014 115.0891258
 132.7803806 120.5736054 114.8719295 133.9375978 124.3875520 117.0208447
 134.1142606 125.3093485 116.8329431 134.7332811 124.0733939 117.4502827
 138.0786996 111.2483784 128.6192380 138.8196710 111.8490938 128.5396843
 138.3104919 110.5061422 128.0610423 133.2228334 116.4340152 126.8970610
 133.1081850 115.5325409 127.1977709 132.3672852 116.6803848 126.5455427
 135.0607293 125.9053694 123.0218789 135.6114718 125.7770757 122.2495783
 134.2218769 126.2048583 122.6713682 138.8574464 122.1704821 127.3663020
 139.3902801 121.4093110 127.1362328 138.3288546 121.8778473 128.1087175
 142.0244159 107.2764887 122.8956662 141.6808429 108.1666529 122.8195773
 142.3923122 107.0866545 122.0326247 130.0930010 119.5998418 115.7145264
 130.9305232 120.0095426 115.4978972 130.2708278 118.6597860 115.6845458
 141.9894442 117.2673498 111.4029097 141.4741066 118.0378103 111.6417485
 141.7171751 116.5938635 112.0262159 139.5741553 112.1123199 116.4614336
 138.7183149 111.7230050 116.2819974 139.9868505 112.1915160 115.6014121
 141.1040700 109.6469543 120.8605895 140.6005495 109.6099678 120.0473701
 141.3971307 110.5562285 120.9202552 137.3483586 109.7308272 119.8672077
 138.2136582 109.5351081 119.5077967 137.4161095 109.5018624 120.7941434
 146.9628716 120.0205853 113.3382271 146.1858159 119.6817013 112.8937433
 147.6420197 120.0258476 112.6637236 141.7780745 115.1400591 113.2288878
 141.4730881 115.4546740 114.0799022 142.7311187 115.2182010 113.2716211
 140.2227177 121.2990814 114.8781832 139.6948539 120.5643573 114.5655070
 139.7214680 122.0765490 114.6321801 145.2020023 119.4939834 119.9948879
 144.5443698 120.1839096 120.0829007 146.0060422 119.8836266 120.3382865
 134.9545905 111.9610480 117.2388444 135.5289657 111.7385662 116.5061637
 135.5416887 112.0299175 117.9917045 144.0125482 117.8484207 118.0452820
 144.5257364 118.4814199 118.5474530 144.6626706 117.2485403 117.6796180
 135.2815492 113.9914941 111.2584329 134.4452804 114.3289628 111.5793604
 135.1420261 113.8563921 110.3211466 137.2568572 108.8351729 115.9663513
 136.6032985 108.5200746 115.3420128 137.2149047 108.2127470 116.6923336
 138.3679777 119.1171024 107.8816805 137.4606839 118.8860278 108.0807954
 138.8650809 118.3208643 108.0690787 141.2747856 127.8268531 110.8013492
 140.6009555 128.1300228 111.4098449 141.6613678 128.6297612 110.4518949
 140.4906313 115.3233663 120.2911161 139.5728874 115.5448610 120.1332849
 140.9066456 115.3979973 119.4322868 141.2741361 116.7225078 115.4213841
 142.0213180 117.2346476 115.1120963 141.5432950 116.4009131 116.2818235
 139.5468011 119.2183619 112.4040795 138.6379230 118.9342652 112.5013265
 139.5763095 119.6382698 111.5444102 144.7787278 122.8290209 116.1731963
 144.3249605 121.9881118 116.2297153 144.1481245 123.4651607 116.5106743
 143.7220198 113.7582195 117.4032630 142.9842955 113.2459581 117.7342873
 143.9746971 113.3182576 116.5915907 143.2220217 124.6666705 117.1081781
 143.5143192 125.2271762 116.3894147 143.7318838 124.9595266 117.8634940
 143.8231825 106.5358447 117.9974400 144.1290702 105.6755810 117.7100315
 144.5484430 107.1276067 117.7973394 130.1156181 116.9389133 116.3855998
 129.9180581 116.3458494 115.6607064 129.5602845 116.6341343 117.1031936
 138.0952905 116.8312240 118.5050591 138.1501515 115.8786076 118.4293067
 137.2844107 116.9871679 118.9891889 139.2444099 120.7592363 109.7428874
 138.8063528 120.0428222 109.2834511 139.9854539 120.9868478 109.1813965
 136.0345265 115.4489299 116.2640970 135.2213130 115.7483470 116.6706162
 136.5304259 115.0544988 116.9815452 138.1853843 125.4447056 118.1975234
 138.1430021 125.6707903 117.2683766 139.1016541 125.2110431 118.3461036
 141.6319476 115.9131124 125.0955864 141.9868864 116.1402597 125.9550329
 142.2791608 116.2449501 124.4733119 147.3617213 119.0349560 115.8005193
 147.2235112 119.2251156 114.8726382 147.0053432 119.7968943 116.2573244
 135.5259339 113.0207655 121.8802205 136.1658719 112.8796414 121.1825168
 134.6936870 112.7342168 121.5040807 147.3886593 121.1026087 120.8116464
 147.8223100 121.0101376 121.6599518 148.1018174 121.0783587 120.1736480
 136.3019643 122.3210085 117.9937197 137.0960242 121.8260405 117.7919772
 135.5911336 121.7927948 117.6304903 141.1214488 124.7028181 122.3449565
 141.1751510 125.2719117 123.1127281 140.2529269 124.8730066 121.9803602
 132.6102407 116.4653167 114.0696950 131.6799995 116.4037623 114.2866912
 132.7059879 115.9429120 113.2733591 132.5287956 112.9907980 116.6575191
 132.7894773 113.9053313 116.5484352 133.3505128 112.5232422 116.8071804
 134.0012881 114.4045737 123.8274016 134.6735935 114.1963099 123.1786665
 133.1742668 114.2067823 123.3879248 148.2502143 121.1449787 123.3449350
 148.4438033 122.0495598 123.5908624 148.1502761 120.6857206 124.1787935
 139.9038453 111.0307678 125.8439677 139.2566368 111.7297628 125.7504153
 140.6739469 111.4643822 126.2115925 140.0802588 118.8688443 123.9036497
 141.0094648 119.0199602 123.7305464 139.6593618 118.9572464 123.0485143
 138.8790919 122.8939107 121.6735034 138.7402005 122.5257892 122.5460972
 138.0905516 123.4086747 121.5018992 139.4739071 127.9948204 113.0160571
 139.6490827 127.5236247 113.8306193 138.7871859 128.6213970 113.2441831
 140.4296135 122.2720710 119.0623872 140.0945967 122.2321480 119.9581522
 139.9300080 121.6065426 118.5894282 134.4040378 117.6788340 124.5876453
 134.2660176 116.9468579 125.1887992 135.3145302 117.5897240 124.3060641
 143.3655326 119.6176744 109.3360932 142.7484497 118.8923572 109.2393984
 142.8971815 120.3786105 108.9928006 137.0322679 117.3908299 124.0760133
 137.7422298 116.7501492 124.0346751 136.9891987 117.6421194 124.9986314
 135.7451613 114.3773517 125.8955772 135.2088970 113.9264256 126.5477369
 135.1568322 114.5119426 125.1526237 134.0400157 131.1437567 119.7900431
 134.2796755 131.7756091 120.4679449 133.1969353 130.7925607 120.0765790
 135.1553872 113.8362169 108.4582236 134.2783338 113.7150969 108.0944483
 135.6311625 113.0448247 108.2061125 145.0226865 122.2915237 125.2280692
 144.1353644 121.9541158 125.3507091 145.5925416 121.5598268 125.4649457
 126.6756012 118.6239328 118.5523743 127.3627052 118.3101058 117.9644758
 126.5204141 119.5280693 118.2790994 131.4790734 113.5129525 122.9808767
 131.3948923 112.9055194 122.2459177 130.6573441 114.0038543 122.9818263
 138.5528018 126.9516689 122.1941935 138.4798190 127.7571660 122.7061239
 138.1105412 127.1508655 121.3689956 138.3417798 126.1888459 115.7044756
 137.5585320 126.7310139 115.7982981 139.0410543 126.7062439 116.1038998
 141.6514448 111.9983088 118.3478962 142.1483148 111.2453051 118.0280032
 140.8801430 112.0347405 117.7822171 149.5044206 117.7023454 119.9897253
 149.4934082 118.5848169 119.6191186 148.6361585 117.3495005 119.7951790
 142.7344229 120.7554776 115.9217385 141.8000508 120.8756238 115.7522090
 142.9120897 119.8527242 115.6577395 138.2349417 114.1400471 118.0750646
 137.8647204 113.5871512 118.7631552 138.7308509 113.5358605 117.5225646
 146.1216780 116.5972095 116.4567419 146.5877232 117.4300087 116.3827722
 146.5724281 116.1317077 117.1612678 136.0638616 124.5997966 125.1705664
 136.7648075 125.2334449 125.3235059 135.5933731 124.9412698 124.4101304
 144.1893011 122.9415916 113.4553571 144.4652855 122.8272511 114.3647445
 143.3197510 122.5433401 113.4165744 144.0933443 108.9652682 120.4958321
 143.1796523 109.1956909 120.6640528 144.5226544 109.0491126 121.3472353
 143.8639902 117.1542574 122.9958215 143.2111352 117.4018481 122.3410667
 144.2420281 116.3406712 122.6620692 140.8247075 127.1902267 117.0986385
 141.0069470 126.3723923 117.5614137 141.6480061 127.4069959 116.6611275
 141.1589241 126.1170452 114.3601433 141.6877007 125.6062907 113.7471596
 141.4217460 125.8012982 115.2246966 139.9127475 117.8962385 129.4824252
 139.2368112 117.7956514 130.1526627 140.7355108 117.7401599 129.9460249
 131.6606334 124.1334322 122.1036767 132.2459770 123.3878009 122.2364671
 131.4631172 124.4438278 122.9873431 134.5144989 127.1685569 117.1199209
 133.8455364 127.6531697 116.6363249 134.3757859 127.4154789 118.0342588
 126.2523988 116.7039922 120.8241210 126.2908088 116.1703512 121.6178328
 125.7464281 116.1775127 120.2052187 133.6314751 111.5504462 124.3203752
 133.6956077 112.4119293 123.9081150 133.5681871 110.9378464 123.5876111
 133.1067023 113.6227595 127.9676787 133.7339062 113.2404672 128.5814311
 132.2494942 113.4041797 128.3332479 129.8832566 115.4304024 113.8995142
 130.1786007 114.5214702 113.8462195 128.9820602 115.4091763 113.5776144
 141.7918645 127.1511288 120.7045550 141.6669784 126.3501028 120.1956495
 142.4497736 127.6457481 120.2159520 133.4126813 113.5060020 119.8822690
 132.6913399 114.1195988 119.7430163 134.2020069 114.0417785 119.8039336
 143.8553553 124.9520308 122.3325100 142.9083889 124.8325659 122.2603427
 144.2036326 124.0642806 122.4151361 136.2153126 110.8414447 126.1563342
 136.7387528 111.0876743 126.9189651 135.9965460 111.6734482 125.7366479
 131.6120408 113.1118122 114.0234467 131.2833114 112.2315500 113.8409573
 131.9659778 113.0565790 114.9110856 140.8599986 124.7473024 118.5329452
 140.7124949 123.8189732 118.7137022 141.6853480 124.7693115 118.0486527
 134.7262231 113.3991091 114.3909944 135.0658303 113.9277013 113.6688553
 135.1734351 113.7371497 115.1668511 144.4634108 125.5701583 119.6194325
 145.3880656 125.3644444 119.4818776 144.2949412 125.3217984 120.5283666
 137.4205671 111.7828142 123.8413012 137.0802492 110.9835955 124.2433692
 136.7144678 112.0829853 123.2689846 138.0722143 108.8677454 122.2940335
 138.8948213 108.3937933 122.1719226 138.3160207 109.6467938 122.7939022
 136.7130378 111.8965713 112.5903237 137.4338740 112.2746966 112.0866954
 136.0895682 112.6154590 112.6938215 140.8561501 112.6010862 113.5261569
 141.0725115 113.4835500 113.2250398 140.3755568 112.2097075 112.7967211
 135.5960722 115.5596575 120.1032314 135.4505303 115.8736878 120.9956596
 135.1185926 116.1781475 119.5503213 137.4557105 112.5499123 120.1513204
 137.4418674 111.6540216 119.8145502 138.1729533 112.5569787 120.7851490
 139.3083236 112.9836463 122.1966331 139.0501013 113.9053534 122.1950661
 138.7768276 112.5866898 122.8866795 144.2529424 126.0887250 114.9756416
 144.4266302 125.5233673 114.2230269 144.7458316 126.8888145 114.7935906
 130.0706384 118.1001920 123.0419975 129.5259852 118.8761727 123.1740250
 130.9485734 118.4472724 122.8839097 136.8594001 111.4313503 115.4200774
 136.9809912 110.5030150 115.6191661 136.5696043 111.4452189 114.5079089
 139.7285191 109.1168414 118.5567494 139.7506888 109.1807747 117.6019473
 140.1453250 108.2772922 118.7508000 150.1068816 118.8523673 116.5946716
 150.5499962 118.1030999 116.1965839 149.2295326 118.8433810 116.2120448
 145.2404597 125.4054015 112.0753315 145.9355502 126.0260708 112.2940629
 145.5827747 124.5549366 112.3505693 130.8572406 117.2271816 125.9350132
 130.1154142 117.3754451 126.5214763 130.5365150 117.4880081 125.0716882
 147.1396020 122.8553720 113.6040645 147.6647344 123.1940993 112.8789966
 147.0518373 121.9200736 113.4203780 138.8236681 128.9225704 117.9635899
 138.3841671 128.4302082 118.6568755 139.5744798 128.3798671 117.7227974
 131.3029020 125.1137245 117.9660527 132.1287040 124.8141016 117.5859170
 130.9523072 124.3444867 118.4150315 136.2710553 124.4663713 120.0358200
 135.6490562 123.8034418 119.7360428 136.9415420 124.4924845 119.3531848
 129.5037625 123.0323571 118.9249460 128.6669533 122.6045745 118.7433462
 129.4761270 123.2256014 119.8620252 136.3435080 112.9445501 129.6290706
 136.3923236 113.8207624 129.2468476 136.8857595 112.4022894 129.0562350
 135.8324060 123.0167636 113.5116661 135.9812180 123.7003100 112.8583334
 136.6390503 122.9972726 114.0266117 144.2391564 116.3210018 127.5383879
 145.1401426 116.1816483 127.2467876 144.3139538 116.4864473 128.4782056
 138.5734369 113.6976873 126.3837065 137.7037678 113.9910439 126.1119654
 138.8093849 114.2817318 127.1044329 149.6501680 120.3228912 118.9869164
 150.4848572 120.7618716 119.1506724 149.7860809 119.8467565 118.1677410
 146.6993186 117.8808647 124.9346652 147.1747308 118.0736293 124.1265503
 145.7758752 117.9367832 124.6890035 133.5876693 119.0432814 114.5177730
 133.3422735 118.1395144 114.7157940 133.7572607 119.0449964 113.5757208
 141.2773403 109.9156490 123.9002485 141.7955347 110.6517517 123.5748974
 140.9228535 110.2220483 124.7349245 132.8572340 114.7761171 112.0163891
 132.1641585 114.8505526 111.3603927 132.6124092 114.0121515 112.5385408
 141.5285997 106.3356773 119.4203382 141.8087751 105.6679962 120.0463809
 142.3136604 106.5285868 118.9078046 139.3319465 125.5115767 110.9828408
 138.7593432 126.1305954 110.5298880 139.9052259 126.0615128 111.5168330
 145.3994855 114.7574407 123.1674957 146.3512278 114.8572504 123.1887181
 145.2298306 113.9652675 123.6773041 143.4209235 111.8429990 123.3534358
 142.8259167 112.1235003 122.6580847 143.1358931 112.3323891 124.1251099
 142.5516725 125.7952917 112.1136991 143.4847398 125.7298478 112.3169866
 142.4639938 126.6309184 111.6551523 145.1804742 125.1118787 109.0740938
 145.1018373 124.7778651 109.9676696 146.0014409 125.6040555 109.0732411
 147.8782933 117.9780526 122.2817257 147.8459253 117.0396527 122.4676941
 148.4883557 118.0564563 121.5483082 139.7166264 116.8476579 108.3244461
 140.6625369 116.7182787 108.3932879 139.3380509 116.1091241 108.8013889
 148.0277421 114.7691570 122.3275540 147.5116470 113.9850026 122.1405469
 148.9117370 114.4410286 122.4922059 145.6888148 108.5132585 118.2871353
 145.4912970 108.2047673 119.1714685 146.2987854 109.2394224 118.4169282
 153.6959483 119.0396533 121.4223294 154.4262871 118.7781821 121.9830997
 153.0866428 118.3025255 121.4625362 151.7774780 117.1804396 122.0197745
 151.0507944 117.0460361 121.4114236 151.3622067 117.4881224 122.8254463
 137.9009181 114.7726556 108.2599346 136.9940636 114.4759668 108.3362060
 138.1785162 114.4756374 107.3933632 128.8187121 116.0932919 118.7098392
 128.4989906 115.2398227 118.4172766 128.2720550 116.3081497 119.4656360
 132.5967029 118.8095360 122.4267899 132.8153039 119.7412468 122.4455933
 133.0092803 118.4503334 123.2122703 139.5171247 109.3163445 114.4143587
 138.7071975 108.9710530 114.7898833 140.2055664 109.0070989 115.0031199
 141.4461795 108.3941492 116.0367884 141.9992834 108.8136946 116.6957907
 141.6831881 107.4677240 116.0790840 137.4694894 114.3828566 131.8170648
 137.3691621 115.3322923 131.7482739 137.2516436 114.0546805 130.9446718
 136.6707966 111.6313491 108.4011325 137.5327130 111.9568389 108.6607143
 136.8558310 110.8444987 107.8884391 128.6875381 119.7135831 120.6791514
 127.9938853 119.2989783 120.1661468 129.4348372 119.7556367 120.0824933
 144.8240602 110.5042017 115.5446548 144.2439271 111.1626821 115.1624601
 144.5576535 109.6819362 115.1333966 143.2744168 109.9047075 117.7467869
 143.7743947 110.0163610 116.9382187 143.9179776 109.6008128 118.3868677
 137.3326164 117.8125705 130.6335710 136.8493246 118.6126065 130.8399599
 137.4187103 117.8233650 129.6803154 130.6012124 119.6454084 118.5557529
 130.5782812 119.7441772 117.6039412 130.9112760 120.4919235 118.8774695
 133.2599502 121.7030239 122.6704143 134.2142755 121.6714182 122.6034075
 133.0612025 121.2420863 123.4854369 133.8498884 120.2731355 125.2374941
 134.6691773 120.7675434 125.2609778 134.1235692 119.3563324 125.2092508
 143.6065480 112.6642108 114.6002897 142.7191335 112.9491758 114.3823091
 144.0219469 112.5035871 113.7530173 146.9580016 112.6888629 118.3157236
 147.7340406 113.1785081 118.5881853 146.2328150 113.1146683 118.7729105
 149.3952575 113.4016248 119.3731176 149.9897066 113.1611984 118.6624485
 149.4679159 112.6823378 120.0004713 131.6149731 127.2449859 119.6874341
 131.4804199 126.4850260 119.1212339 131.1981793 127.9690759 119.2203130
 142.7508694 122.4286782 108.6950916 143.4544544 122.6336785 109.3108572
 142.0271342 122.9963544 108.9600000 143.5806504 118.1796644 114.8153187
 143.5241705 118.6365195 113.9760819 144.1334846 117.4187328 114.6376029
 147.3911310 113.9686376 115.6403306 147.1348244 113.5683011 116.4711514
 146.7664178 114.6830169 115.5153445 151.7023648 116.7082449 118.1474598
 151.1423206 116.7775638 118.9206160 151.0967151 116.5323433 117.4274094
 134.7718856 128.1419176 119.8992784 134.6551241 129.0864608 119.7971474
 133.9511303 127.8392737 120.2878583 144.6595391 122.8669312 110.7449377
 145.4940995 122.4350510 110.5626851 144.4979734 122.6951325 111.6726271
 144.3141283 119.3701425 112.1105716 144.2590087 119.2045696 111.1694160
 143.6887338 120.0777458 112.2667906 129.1033798 114.6069489 125.9367138
 129.7492662 114.0968443 126.4254363 128.8950949 115.3438171 126.5110563
 137.6237409 108.8709534 111.6891034 137.6116078 109.8151374 111.8459305
 138.5160831 108.6879679 111.3950495 135.7973371 128.7947438 123.1148712
 136.7000617 128.8271048 123.4315207 135.5710741 127.8647889 123.1295048
 137.5526973 127.5478424 119.7758791 136.6022604 127.5480286 119.6623163
 137.8559459 126.8011159 119.2594826 141.4389528 105.4652311 115.9436971
 140.6721924 104.9110797 116.0893653 141.8500233 105.5374179 116.8051123
 133.4431289 111.7537106 130.0342152 134.3062751 111.3973911 130.2445477
 132.8696700 111.4151001 130.7217557 145.9556188 135.1901867 116.7662969
 145.3921053 135.0991804 115.9979257 145.8408583 134.3701772 117.2465461
 151.5355747 138.8572835 112.0777434 150.8843727 139.4426915 111.6911448
 152.3300110 139.3879030 112.1372471 145.4611374 135.9461972 112.4764568
 146.2342250 135.3990959 112.3377444 145.8136773 136.8106221 112.6879030
 147.7977652 132.1054638 110.1083018 148.0503172 131.5836159 109.3466481
 146.8602211 131.9420784 110.2109702 153.0131012 136.5463267 112.6146418
 152.3776845 136.6197893 113.3267323 152.6828418 137.1356866 111.9365497
 147.5173941 134.0082744 112.3107393 147.4010199 133.3327648 112.9788477
 147.6276200 133.5215118 111.4939546 149.8605481 133.4692891 116.0154082
 149.4963689 132.9423512 116.7267004 150.7172597 133.0791360 115.8420568
 149.5010968 128.4982791 111.0115431 149.6685371 129.3663027 111.3785902
 149.3108137 128.6610073 110.0876720 149.4800189 130.9540448 111.9962098
 149.3599814 131.3997499 112.8347578 148.7852778 131.3025766 111.4375636
 155.1785255 131.4261922 112.8242432 156.0903112 131.6589308 112.6490129
 154.6694903 132.0098966 112.2617510 148.2751686 132.2685301 114.2895663
 148.9775729 132.7206344 114.7569590 147.9432314 131.6269119 114.9175556
 142.0177020 130.5268853 119.5912797 141.2276074 130.7826382 119.1152908
 142.5088267 131.3417191 119.6964837 143.9691765 130.8913432 116.5496274
 143.1722928 131.0032127 117.0679769 143.7417357 131.2300085 115.6837164
 142.9674848 136.6001681 114.9385694 143.4799368 137.3944931 115.0891258
 143.6197561 135.9027972 114.8719295 140.9323764 134.9290336 115.7145264
 141.7698986 135.3387344 115.4978972 141.1102032 133.9889778 115.6845458
 152.8288197 132.5965416 111.4029097 152.3134820 133.3670021 111.6417485
 152.5565505 131.9230552 112.0262159 150.4135308 127.4415117 116.4614336
 149.5576904 127.0521967 116.2819974 150.8262259 127.5207078 115.6014121
 148.1877340 125.0600190 119.8672077 149.0530337 124.8642999 119.5077967
 148.2554849 124.8310542 120.7941434 152.6174500 130.4692508 113.2288878
 152.3124635 130.7838657 114.0799022 153.5704942 130.5473928 113.2716211
 151.0620932 136.6282732 114.8781832 150.5342293 135.8935491 114.5655070
 150.5608434 137.4057408 114.6321801 145.7939659 127.2902398 117.2388444
 146.3683411 127.0677579 116.5061637 146.3810642 127.3591092 117.9917045
 146.1209246 129.3206859 111.2584329 145.2846559 129.6581545 111.5793604
 145.9814016 129.1855839 110.3211466 148.0962327 124.1643647 115.9663513
 147.4426739 123.8492664 115.3420128 148.0542801 123.5419387 116.6923336
 149.2073532 134.4462942 107.8816805 148.3000594 134.2152195 108.0807954
 149.7044564 133.6500561 108.0690787 152.1135115 132.0516996 115.4213841
 152.8606934 132.5638393 115.1120963 152.3826705 131.7301049 116.2818235
 150.3861765 134.5475537 112.4040795 149.4772984 134.2634570 112.5013265
 150.4156849 134.9674615 111.5444102 154.5613952 129.0874112 117.4032630
 153.8236709 128.5751498 117.7342873 154.8140726 128.6474494 116.5915907
 154.6625580 121.8650364 117.9974400 154.9684456 121.0047728 117.7100315
 155.3878184 122.4567984 117.7973394 140.9549936 132.2681051 116.3855998
 140.7574335 131.6750412 115.6607064 140.3996600 131.9633261 117.1031936
 150.0837853 136.0884280 109.7428874 149.6457283 135.3720139 109.2834511
 150.8248294 136.3160395 109.1813965 146.8739019 130.7781217 116.2640970
 146.0606885 131.0775388 116.6706162 147.3698013 130.3836906 116.9815452
 143.4496161 131.7945085 114.0696950 142.5193749 131.7329540 114.2866912
 143.5453633 131.2721037 113.2733591 143.3681710 128.3199898 116.6575191
 143.6288528 129.2345231 116.5484352 144.1898883 127.8524340 116.8071804
 154.2049081 134.9468662 109.3360932 153.5878251 134.2215490 109.2393984
 153.7365569 135.7078022 108.9928006 145.9947627 129.1654086 108.4582236
 145.1177093 129.0442887 108.0944483 146.4705380 128.3740165 108.2061125
 137.5149767 133.9531246 118.5523743 138.2020807 133.6392976 117.9644758
 137.3597895 134.8572611 118.2790994 142.3184489 128.8421443 122.9808767
 142.2342678 128.2347112 122.2459177 141.4967195 129.3330461 122.9818263
 152.4908203 127.3275006 118.3478962 152.9876902 126.5744968 118.0280032
 151.7195184 127.3639323 117.7822171 149.0743171 129.4692389 118.0750646
 148.7040959 128.9163430 118.7631552 149.5702264 128.8650523 117.5225646
 137.0917743 132.0331839 120.8241210 137.1301842 131.4995430 121.6178328
 136.5858036 131.5067045 120.2052187 140.7226320 130.7595942 113.8995142
 141.0179761 129.8506620 113.8462195 139.8214356 130.7383681 113.5776144
 144.2520567 128.8351938 119.8822690 143.5307153 129.4487906 119.7430163
 145.0413823 129.3709703 119.8039336 142.4514162 128.4410039 114.0234467
 142.1226868 127.5607418 113.8409573 142.8053533 128.3857708 114.9110856
 145.5655985 128.7283009 114.3909944 145.9052058 129.2568930 113.6688553
 146.0128106 129.0663415 115.1668511 147.5524132 127.2257631 112.5903237
 148.2732495 127.6038883 112.0866954 146.9289436 127.9446507 112.6938215
 151.6955255 127.9302780 113.5261569 151.9118870 128.8127417 113.2250398
 151.2149322 127.5388993 112.7967211 148.2950859 127.8791041 120.1513204
 148.2812428 126.9832134 119.8145502 149.0123288 127.8861705 120.7851490
 147.6987755 126.7605421 115.4200774 147.8203667 125.8322067 115.6191661
 147.4089798 126.7744107 114.5079089 150.5678946 124.4460332 118.5567494
 150.5900643 124.5099665 117.6019473 150.9847005 123.6064840 118.7508000
 146.6717814 138.3459554 113.5116661 146.8205935 139.0295018 112.8583334
 147.4784258 138.3264644 114.0266117 144.4270447 134.3724731 114.5177730
 144.1816489 133.4687061 114.7157940 144.5966362 134.3741882 113.5757208
 143.6966095 130.1053089 112.0163891 143.0035340 130.1797444 111.3603927
 143.4517847 129.3413433 112.5385408 152.3679751 121.6648690 119.4203382
 152.6481505 120.9971879 120.0463809 153.1530358 121.8577786 118.9078046
 150.1713220 140.8407684 110.9828408 149.5987187 141.4597871 110.5298880
 150.7446014 141.3907046 111.5168330 150.5560018 132.1768497 108.3244461
 151.5019123 132.0474705 108.3932879 150.1774263 131.4383159 108.8013889
 156.5281903 123.8424503 118.2871353 156.3306724 123.5339591 119.1714685
 157.1381608 124.5686142 118.4169282 148.7402936 130.1018473 108.2599346
 147.8334391 129.8051586 108.3362060 149.0178917 129.8048291 107.3933632
 139.6580876 131.4224837 118.7098392 139.3383660 130.5690145 118.4172766
 139.1114304 131.6373415 119.4656360 150.3565001 124.6455363 114.4143587
 149.5465730 124.3002448 114.7898833 151.0449418 124.3362907 115.0031199
 152.2855550 123.7233410 116.0367884 152.8386588 124.1428863 116.6957907
 152.5225636 122.7969158 116.0790840 147.5101720 126.9605409 108.4011325
 148.3720884 127.2860307 108.6607143 147.6952064 126.1736904 107.8884391
 155.6634357 125.8333935 115.5446548 155.0833026 126.4918739 115.1624601
 155.3970289 125.0111280 115.1333966 154.1137923 125.2338993 117.7467869
 154.6137701 125.3455527 116.9382187 154.7573531 124.9300046 118.3868677
 141.4405878 134.9746002 118.5557529 141.4176567 135.0733689 117.6039412
 141.7506515 135.8211153 118.8774695 154.4459235 127.9934025 114.6002897
 153.5585090 128.2783676 114.3823091 154.8613224 127.8327789 113.7530173
 153.5902448 137.7578700 108.6950916 154.2938298 137.9628703 109.3108572
 152.8665097 138.3255462 108.9600000 154.4200258 133.5088561 114.8153187
 154.3635460 133.9657113 113.9760819 154.9728601 132.7479246 114.6376029
 158.2305064 129.2978293 115.6403306 157.9741999 128.8974929 116.4711514
 157.6057932 130.0122087 115.5153445 155.4989145 138.1961229 110.7449377
 156.3334749 137.7642428 110.5626851 155.3373488 138.0243243 111.6726271
 155.1535038 134.6993343 112.1105716 155.0983841 134.5337614 111.1694160
 154.5281093 135.4069375 112.2667906 148.4631163 124.2001452 111.6891034
 148.4509833 125.1443292 111.8459305 149.3554585 124.0171597 111.3950495
 152.2783283 120.7944228 115.9436971 151.5115678 120.2402715 116.0893653
 152.6893988 120.8666097 116.8051123  59.2406153 -10.4371352 103.4908276
  58.6771019 -10.5281415 102.7224563  59.1258548 -11.2571447 103.9710768
  56.7870585  -8.9420160 106.3292496  57.5791877  -9.2829335 105.9138795
  57.0267236  -8.8325185 107.2494649  64.8205712  -6.7700384  98.8022740
  64.1693692  -6.1846303  98.4156754  65.6150075  -6.2394189  98.8617778
  58.7461339  -9.6811247  99.2009875  59.5192215 -10.2282260  99.0622751
  59.0986738  -8.8166997  99.4124336  60.5846382  -8.3534864 112.4076774
  60.2936248  -7.4489234 112.2923440  61.2203366  -8.3118337 113.1220844
  66.2980977  -9.0809952  99.3391725  65.6626810  -9.0075325 100.0512629
  65.9678384  -8.4916353  98.6610804  65.5436267  -8.6673449 109.4026568
  65.2436990  -7.7648410 109.2942375  65.1987326  -8.9341266 110.2547721
  56.3557559 -12.5726379 106.2707061  56.4849941 -12.3191900 107.1846473
  55.6755011 -11.9798671 105.9511716  60.5257047  -1.9029129 102.3697536
  60.4481076  -0.9521304 102.4486016  59.9218690  -2.2483256 103.0272462
  62.6232765  -9.4811071 104.2051405  63.0871110  -9.2023368 103.4156027
  62.3589563 -10.3827626 104.0224496  59.5156846  -9.9339589 107.1431168
  60.0858203  -9.5052321 106.5048653  60.1064958 -10.2157004 107.8415354
  63.0847398  -8.2115083 111.2224095  63.1491831  -7.7494676 112.0582267
  62.3758322  -8.8417718 111.3506405  62.7995416  -6.5446976 101.0903075
  62.6641090  -5.6995440 101.5187923  63.3405228  -6.3427698 100.3269009
  56.2524813  -9.0271538 101.6631000  56.7649334  -8.2328287 101.8136565
  56.9047526  -9.7245247 101.5964602  58.0619698  -5.9105781 103.7453753
  58.2386326  -4.9887817 103.5574737  58.8576531  -6.2247362 104.1748133
  64.4263892  -5.9223409 115.2203417  63.9827746  -6.7087031 114.9024322
  65.0881106  -5.7344259 114.5547308  59.1851013  -4.3927608 109.7464096
  59.7358438  -4.5210544 108.9741090  58.3462489  -4.0932719 109.3958989
  66.5245130  -5.6420609 113.2484819  66.5063605  -4.8211728 112.7565088
  67.4465050  -5.7666534 113.4734960  62.9818184  -8.1276480 114.0908327
  63.5146521  -8.8888192 113.8607635  62.4532265  -8.4202828 114.8332481
  54.2173730 -10.6982883 102.4390571  55.0548952 -10.2885875 102.2224279
  54.3951998 -11.6383441 102.4090765  64.3470897  -8.9990487 101.6027139
  63.8192259  -9.7337728 101.2900376  63.8458400  -8.2215811 101.3567107
  65.3991576  -2.4712770  97.5258798  64.7253275  -2.1681073  98.1343756
  65.7857398  -1.6683689  97.1764255  68.9030998  -7.4691093 102.8977270
  68.4493325  -8.3100183 102.9542460  68.2724965  -6.8329694 103.2352050
  67.3463937  -5.6314596 103.8327088  67.6386912  -5.0709539 103.1139453
  67.8562558  -5.3386035 104.5880247  63.3687818  -9.5388938  96.4674181
  62.9307248 -10.2553080  96.0079818  64.1098259  -9.3112824  95.9059272
  62.3097562  -4.8534245 104.9220541  62.2673741  -4.6273399 103.9929073
  63.2260261  -5.0870870 105.0706342  60.4263363  -7.9771216 104.7182504
  61.2203962  -8.4720896 104.5165079  59.7155056  -8.5053353 104.3550209
  65.2458208  -5.5953120 109.0694871  65.2995230  -5.0262184 109.8372587
  64.3772989  -5.4251235 108.7048908  63.0034639  -7.4042194 108.3980341
  62.8645725  -7.7723409 109.2706279  62.2149235  -6.8894554 108.2264299
  63.5982791  -2.3033097  99.7405877  63.7734547  -2.7745054 100.5551500
  62.9115579  -1.6767331  99.9687138  64.5539854  -8.0260591 105.7869179
  64.2189687  -8.0659821 106.6826828  64.0543800  -8.6915875 105.3139589
  69.1453178  -5.9705648 113.7212019  69.0865724  -6.6546428 113.0542602
  69.5472696  -5.2286658 113.2692645  58.1643876   0.8456265 106.5145738
  58.4040475   1.4774790 107.1924756  57.3213073   0.4944305 106.8011097
  50.7999732 -11.6741973 105.2769050  51.4870772 -11.9880243 104.6890065
  50.6447861 -10.7700608 105.0036301  62.6771738  -3.3464612 108.9187242
  62.6041910  -2.5409641 109.4306546  62.2349131  -3.1472646 108.0935263
  62.4661518  -4.1092842 102.4290063  61.6829040  -3.5671162 102.5228288
  63.1654263  -3.5918862 102.8284304  65.1370422  -3.4477778 111.0745400
  65.8498394  -2.8130313 111.0021302  64.6460450  -3.3513912 110.2585402
  60.1882335  -5.6983335 111.8950971  60.8891795  -5.0646852 112.0480365
  59.7177450  -5.3568603 111.1346610  68.3136731  -7.3565385 100.1798878
  68.5896575  -7.4708790 101.0892752  67.4441230  -7.7547900 100.1411051
  64.9490795  -3.1079034 103.8231692  65.1313190  -3.9257378 104.2859444
  65.7723781  -2.8911342 103.3856582  65.2832961  -4.1810849 101.0846740
  65.8120727  -4.6918394 100.4716902  65.5461180  -4.4968319 101.9492273
  55.7850053  -6.1646980 108.8282074  56.3703490  -6.9103292 108.9609978
  55.5874892  -5.8543023 109.7118738  58.6388709  -3.1295732 103.8444516
  57.9699084  -2.6449605 103.3608556  58.5001578  -2.8826512 104.7587895
  62.7793977  -1.0951989 110.4427174  63.3312285  -0.9320367 111.2076260
  63.1200171  -0.5047551 109.7707199  67.6304852  -6.2690731 116.2975829
  68.1744756  -5.6560773 115.8030784  67.0491696  -5.7111153 116.8142842
  65.9162365  -3.1470013 107.4290857  65.7913504  -3.9480273 106.9201802
  66.5741456  -2.6523820 106.9404827  67.9797273  -5.3460993 109.0570407
  67.0327608  -5.4655642 108.9848733  68.3280046  -6.2338495 109.1396668
  64.9843706  -5.5508277 105.2574759  64.8368669  -6.4791569 105.4382329
  65.8097200  -5.5288186 104.7731834  68.5877828  -4.7279718 106.3439632
  69.5124376  -4.9336857 106.2064083  68.4193131  -4.9763317 107.2528973
  68.3773144  -4.2094051 101.7001723  68.5510022  -4.7747628 100.9475576
  68.8702035  -3.4093156 101.5181213  54.1950104 -12.1979382 109.7665282
  53.6503572 -11.4219574 109.8985556  55.0729454 -11.8508577 109.6084403
  69.3648317  -4.8927286  98.7998621  70.0599221  -4.2720594  99.0185936
  69.7071467  -5.7431935  99.0750999  62.9259789  -3.5293507 112.4575829
  63.2346915  -3.7744360 113.3298528  63.7235271  -3.3246869 111.9694699
  62.9480401  -1.3755597 104.6881205  62.5085391  -1.8679219 105.3814062
  63.6988518  -1.9182630 104.4473281  55.4272740  -5.1844057 104.6905833
  56.2530759  -5.4840285 104.3104477  55.0766792  -5.9536434 105.1395622
  60.3954273  -5.8317588 106.7603507  59.7734282  -6.4946883 106.4605735
  61.0659140  -5.8056457 106.0777155  53.6281345  -7.2657730 105.6494767
  52.7913253  -7.6935556 105.4678768  53.6004990  -7.0725287 106.5865558
  70.9533646  -6.8094677 115.6337150  70.1629190  -6.8270538 115.0941650
  70.7167000  -6.2706383 116.3886187  59.9567780  -7.2813665 100.2361968
  60.1055900  -6.5978201  99.5828640  60.7634223  -7.3008575 100.7511423
  57.7120413 -11.2548487 101.2423036  57.4666455 -12.1586157 101.4403247
  57.8816327 -11.2531337 100.3002514  63.4563185  -4.7865535  97.7073715
  62.8837152  -4.1675347  97.2544187  64.0295979  -4.2366173  98.2413637
  66.6760445  -4.5028384  98.8382297  67.6091118  -4.5682823  99.0415173
  66.5883658  -3.6672118  98.3796830  69.3048462  -5.1862514  95.7986245
  69.2262093  -5.5202651  96.6922003  70.1258128  -4.6940746  95.7977717
  56.7210749 -11.4885941 109.1513206  56.9396759 -10.5568833 109.1701239
  57.1336523 -11.8477967 109.9368009  52.8119101 -10.5845471 107.4036821
  52.1182573 -10.9991518 106.8906775  53.5592092 -10.5424934 106.8070240
  54.7255844 -10.6527217 105.2802836  54.7026532 -10.5539530 104.3284719
  55.0356480  -9.8062066 105.6020002  57.3843222  -8.5951062 109.3949450
  58.3386475  -8.6267119 109.3279382  57.1855745  -9.0560438 110.2099676
  57.9742604 -10.0249946 111.9620248  58.7935493  -9.5305867 111.9855085
  58.2479411 -10.9417978 111.9337815  55.7393450  -3.0531442 106.4119648
  55.6047918  -3.8131041 105.8457646  55.3225513  -2.3290542 105.9448437
  66.8752413  -7.8694519  95.4196223  67.5788264  -7.6644516  96.0353879
  66.1515062  -7.3017757  95.6845307  58.8962576  -2.1562125 106.6238090
  58.7794960  -1.2116693 106.5216781  58.0755023  -2.4588564 107.0123890
  68.7839111  -7.4311990  97.4694683  69.6184715  -7.8630791  97.2872158
  68.6223454  -7.6029976  98.3971578  65.7530910  -8.6230964 118.1604585
  66.6222070  -8.4490312 117.7991220  65.2737662  -7.8036548 118.0380315
  59.9217090  -1.5033863 109.8394019  60.8244337  -1.4710253 110.1560514
  59.6954460  -2.4333412 109.8540355  61.6770692  -2.7502877 106.5004098
  60.7266323  -2.7501015 106.3868470  61.9803179  -3.4970142 105.9840132
  77.4123386   3.0857662 107.5649860  78.0501796   2.9664409 106.8613200
  77.2944229   4.0338506 107.6237812  74.2213092   3.0385090 107.5011385
  73.8831604   2.9226154 106.6131919  75.0902860   2.6376255 107.4812391
  70.0799908   4.8920566 103.4908276  69.5164773   4.8010503 102.7224563
  69.9652303   4.0720471 103.9710768  74.7032875   4.1919941 113.4597590
  74.6921516   3.7972740 112.5878094  74.8653515   3.4586014 114.0531362
  67.6264340   6.3871758 106.3292496  68.4185632   6.0462582 105.9138795
  67.8660990   6.4966733 107.2494649  75.6599467   8.5591534  98.8022740
  75.0087446   9.1445614  98.4156754  76.4543829   9.0897729  98.8617778
  69.5855094   5.6480671  99.2009875  70.3585970   5.1009658  99.0622751
  69.9380493   6.5124920  99.4124336  71.4240136   6.9757053 112.4076774
  71.1330002   7.8802684 112.2923440  72.0597121   7.0173581 113.1220844
  72.3496343   4.3533902 108.9978134  72.9459915   4.1289924 108.2835097
  72.4071315   3.6118647 109.6003582  71.9221372   1.8073337  96.8328325
  72.1746892   1.2854858  96.0711788  70.9845931   1.6439483  96.9355008
  76.9664654   0.8109115 104.6403068  77.7527744   0.3928539 104.2893485
  77.2303359   1.7155208 104.8084716  77.1374732   6.2481966  99.3391725
  76.5020565   6.3216592 100.0512629  76.8072138   6.8375565  98.6610804
  82.3673082   0.7484349 105.5436046  83.0998253   0.1783565 105.7773876
  81.6112437   0.3605949 105.9842552  71.6417660   3.7101443  99.0352700
  71.5253918   3.0346346  99.7033784  71.7519920   3.2233817  98.2184853
  73.9849201   3.1711590 102.7399389  73.6207408   2.6442211 103.4512310
  74.8416317   2.7810059 102.5665874  73.6254688  -1.7998510  97.7360737
  73.7929091  -0.9318274  98.1031208  73.4351857  -1.6371228  96.8122027
  76.3830021   6.6618469 109.4026568  76.0830745   7.5643508 109.2942375
  76.0381081   6.3950652 110.2547721  69.8342503   3.1132266 105.4363272
  68.9092999   2.9808480 105.6440964  70.0826916   3.8926485 105.9333215
  79.7827165  -0.8198991 107.0824005  78.8744043  -0.8883583 106.7882766
  79.7314761  -0.3427046 107.9105831  73.6043909   0.6559147  98.7207404
  73.4843534   1.1016198  99.5592885  72.9096497   1.0044465  98.1620942
  67.1951314   2.7565539 106.2707061  67.3243695   3.0100018 107.1846473
  66.5148765   3.3493247 105.9511716  71.3650801  13.4262789 102.3697536
  71.2874831  14.3770614 102.4486016  70.7612445  13.0808662 103.0272462
  73.8568031   0.5990654 115.0258902  73.0801365   1.1584575 115.0161767
  74.4958594   1.0847437 115.5473773  81.6488812  -2.6182553 108.8601879
  81.0063192  -2.3250020 108.2141674  81.1443740  -2.7329632 109.6655076
  79.3028975   1.1280620  99.5487738  80.2146831   1.3608007  99.3735436
  78.7938622   1.7117665  98.9862817  72.1114403   3.4076108 114.5876869
  72.8529088   3.9461152 114.3111693  71.4051389   4.0342397 114.7448421
  77.5869743   5.5505248 113.1849031  77.9953099   5.1087659 112.4403663
  76.8647004   4.9757876 113.4383224  73.9400813   0.4877855 110.5582588
  74.7862008   0.9117269 110.7017237  73.8799451  -0.1688521 111.2521151
  77.9098558   6.1106439 106.9401320  77.2807420   6.2752153 106.2377388
  77.5224220   6.5248049 107.7112284  81.7887789   7.0460877 104.2945684
  81.1038828   7.4259778 103.7442717  81.8731639   7.6556203 105.0277631
  77.0900258  -1.8517777 112.2163761  76.8461190  -1.0975716 111.6798037
  77.3660189  -1.4732429 113.0511009  79.0438721   4.6920836 110.8941027
  79.2555616   5.3352596 110.2175408  78.9968469   3.8583152 110.4262957
  76.6464950  -2.6961344 107.7977599  75.7849429  -2.3980090 108.0894337
  76.6727385  -2.4790945 106.8658632  73.4626519   5.8480847 104.2051405
  73.9264865   6.1268550 103.4156027  73.1983318   4.9464292 104.0224496
  70.3550601   5.3952329 107.1431168  70.9251958   5.8239597 106.5048653
  70.9458712   5.1134913 107.8415354  72.3995406   1.9703999 101.0140970
  73.1019449   2.4225043 101.4814896  72.0676034   1.3287818 101.6420863
  70.8475767   0.5615756 115.3892179  70.2174428   1.2432037 115.6227576
  70.7411855   0.4498838 114.4445318  66.1420739   0.2287552 106.3158104
  65.3519793   0.4845081 105.8398214  66.6331987   1.0435890 106.4210144
  80.1584549   7.5692791 109.0663384  80.9801993   7.1672979 108.7846066
  80.1546952   7.4661025 110.0179500  68.0935485   0.5932131 103.2741580
  67.2966648   0.7050826 103.7925076  67.8661077   0.9318784 102.4082471
  73.9241152   7.1176835 111.2224095  73.9885585   7.5797242 112.0582267
  73.2152076   6.4874199 111.3506405  64.4258442   0.4818043 108.7473094
  64.6766481   1.3665052 109.0130670  64.9617991   0.3022644 107.9748186
  88.2490542   3.9131540 105.4148356  87.4954250   3.3438938 105.2592360
  88.3838083   3.8794204 106.3618991  73.6389170   8.7844942 101.0903075
  73.5034845   9.6296478 101.5187923  74.1798983   8.9864220 100.3269009
  70.1256510  -5.1363478 117.7517430  69.7323455  -5.6897280 118.4265075
  70.9422650  -4.8252900 118.1423948  67.0918568   6.3020380 101.6631000
  67.6043088   7.0963630 101.8136565  67.7441280   5.6046671 101.5964602
  68.9013452   9.4186136 103.7453753  69.0780081  10.3404101 103.5574737
  69.6970286   9.1044556 104.1748133  73.0424471  -3.7205599 115.3437687
  73.7834184  -3.1198446 115.2642149  73.2742394  -4.4627961 114.7855730
  68.1865809   1.4650768 113.6215917  68.0719324   0.5636025 113.9223016
  67.3310327   1.7114465 113.2700733  75.2657647   9.4068509 115.2203417
  74.8221501   8.6204887 114.9024322  75.9274860   9.5947659 114.5547308
  70.0244768  10.9364310 109.7464096  70.5752193  10.8081373 108.9741090
  69.1856244  11.2359199 109.3958989  77.3638885   9.6871308 113.2484819
  77.3457360  10.5080190 112.7565088  78.2858805   9.5625384 113.4734960
  73.8211939   7.2015438 114.0908327  74.3540276   6.4403726 113.8607635
  73.2926020   6.9089090 114.8332481  65.0567484   4.6309034 102.4390571
  65.8942706   5.0406043 102.2224279  65.2345752   3.6908477 102.4090765
  76.9531916   2.2984115  98.1274404  76.4378540   3.0688720  98.3662791
  76.6809225   1.6249251  98.7507465  74.5379027  -2.8566184 103.1859642
  73.6820624  -3.2459334 103.0065281  74.9505979  -2.7774223 102.3259428
  76.0678174  -5.3219841 107.5851202  75.5642970  -5.3589706 106.7719007
  76.3608781  -4.4127098 107.6447859  72.3121060  -5.2381111 106.5917384
  73.1774057  -5.4338303 106.2323273  72.3798569  -5.4670759 107.5186740
  81.9266191   5.0516470 100.0627577  81.1495633   4.7127629  99.6182739
  82.6057672   5.0569093  99.3882542  76.7418220   0.1711207  99.9534185
  76.4368355   0.4857356 100.8044328  77.6948662   0.2492627  99.9961518
  75.1864651   6.3301430 101.6027139  74.6586013   5.5954190 101.2900376
  74.6852154   7.1076107 101.3567107  80.1657497   4.5250451 106.7194185
  79.5081172   5.2149712 106.8074314  80.9697897   4.9146883 107.0628172
  69.9183379  -3.0078903 103.9633750  70.4927131  -3.2303722 103.2306943
  70.5054361  -2.9390209 104.7162352  78.9762956   2.8794824 104.7698127
  79.4894838   3.5124815 105.2719837  79.6264180   2.2796019 104.4041487
  70.2452966  -0.9774442  97.9829636  69.4090278  -0.6399756  98.3038910
  70.1057736  -1.1125462  97.0456773  72.2206047  -6.1337654 102.6908820
  71.5670459  -6.4488637 102.0665435  72.1786521  -6.7561914 103.4168643
  73.3317252   4.1481641  94.6062112  72.4244313   3.9170894  94.8053261
  73.8288284   3.3519260  94.7936094  76.2385331  12.8579148  97.5258798
  75.5647029  13.1610845  98.1343756  76.6251152  13.6608228  97.1764255
  75.4543787   0.3544279 107.0156468  74.5366348   0.5759226 106.8578156
  75.8703931   0.4290590 106.1568175  76.2378835   1.7535695 102.1459148
  76.9850654   2.2657092 101.8366270  76.5070424   1.4319748 103.0063541
  74.5105485   4.2494236  99.1286102  73.6016704   3.9653268  99.2258572
  74.5400569   4.6693314  98.2689409  79.7424752   7.8600825 102.8977270
  79.2887080   7.0191735 102.9542460  79.1118719   8.4962223 103.2352050
  78.6857672  -1.2107189 104.1277937  77.9480429  -1.7229803 104.4588180
  78.9384446  -1.6506807 103.3161214  78.1857692   9.6977322 103.8327088
  78.4780666  10.2582379 103.1139453  78.6956312   9.9905883 104.5880247
  65.0793655   1.9699750 103.1101304  64.8818055   1.3769110 102.3852371
  64.5240319   1.6651960 103.8277243  73.0590379   1.8622856 105.2295897
  73.1138989   0.9096693 105.1538374  72.2481581   2.0182295 105.7137196
  74.2081573   5.7902979  96.4674181  73.7701003   5.0738838  96.0079818
  74.9492014   6.0179094  95.9059272  70.9982739   0.4799916 102.9886276
  70.1850605   0.7794086 103.3951468  71.4941733   0.0855605 103.7060759
  73.1491317  10.4757673 104.9220541  73.1067496  10.7018519 103.9929073
  74.0654016  10.2421047 105.0706342  76.5956951   0.9441740 111.8201170
  76.9506338   1.1713214 112.6795636  77.2429082   1.2760117 111.1978426
  82.3254688   4.0660176 102.5250499  82.1872586   4.2561772 101.5971688
  81.9690906   4.8279559 102.9818550  70.4896814  -1.9481729 108.6047511
  71.1296193  -2.0892969 107.9070475  69.6574344  -2.2347215 108.2286113
  82.3524067   6.1336703 107.5361771  82.7860574   6.0411992 108.3844825
  83.0655648   6.1094204 106.8981787  71.2657118   7.3520702 104.7182504
  72.0597716   6.8571022 104.5165079  70.5548810   6.8238565 104.3550209
  76.0851962   9.7338797 109.0694871  76.1388984  10.3029734 109.8372587
  75.2166744   9.9040682 108.7048908  67.5739881   1.4963784 100.7942256
  66.6437469   1.4348239 101.0112219  67.6697353   0.9739736  99.9978898
  67.4925430  -1.9781404 103.3820498  67.7532248  -1.0636070 103.2729659
  68.3142603  -2.4456961 103.5317111  68.9650356  -0.5643646 110.5519323
  69.6373409  -0.7726284 109.9031972  68.1380142  -0.7621560 110.1124555
  83.2139617   6.1760404 110.0694656  83.4075507   7.0806214 110.3153931
  83.1140235   5.7167823 110.9033241  74.8675928  -3.9381705 112.5684983
  74.2203843  -3.2391756 112.4749460  75.6376943  -3.5045562 112.9361232
  78.2754725   6.3267147 115.6435537  78.1240232   6.0977698 114.7265620
  78.2659405   7.2837748 115.6566882  75.0440062   3.8999059 110.6281803
  75.9732122   4.0510219 110.4550771  74.6231092   3.9883080 109.7730450
  73.8428394   7.9249724 108.3980341  73.7039479   7.5568508 109.2706279
  73.0542990   8.4397363 108.2264299  74.4376546  13.0258820  99.7405877
  74.6128301  12.5546863 100.5551500  73.7509334  13.6524586  99.9687138
  75.3933609   7.3031327 105.7869179  75.0583441   7.2632096 106.6826828
  74.8937555   6.6376042 105.3139589  69.3677853   2.7098957 111.3121760
  69.2297651   1.9779195 111.9133299  70.2782776   2.6207857 111.0305948
  78.3292800   4.6487361  96.0606238  77.7121971   3.9234189  95.9639291
  77.8609289   5.4096721  95.7173313  71.9960153   2.4218916 110.8005439
  72.7059772   1.7812108 110.7592058  71.9529462   2.6731811 111.7231620
  79.9846932   9.3586269 113.7212019  79.9259478   8.6745489 113.0542602
  80.3866451  10.1005259 113.2692645  70.7089087  -0.5915866 112.6201079
  70.1726444  -1.0425128 113.2722675  70.1205796  -0.4569957 111.8771543
  69.0037631  16.1748183 106.5145738  69.2434229  16.8066707 107.1924756
  68.1606827  15.8236223 106.8011097  70.1191346  -1.1327215  95.1827543
  69.2420813  -1.2538414  94.8189789  70.5949099  -1.9241137  94.9306431
  79.9864339   7.3225853 111.9525998  79.0991118   6.9851775 112.0752397
  80.5562890   6.5908884 112.1894764  61.6393487   3.6549945 105.2769050
  62.3264526   3.3411675 104.6890065  61.4841615   4.5591310 105.0036301
  66.4428209  -1.4559859 109.7054073  66.3586397  -2.0634189 108.9704483
  65.6210915  -0.9650840 109.7063570  73.5165493  11.9827306 108.9187242
  73.4435664  12.7882277 109.4306546  73.0742886  12.1819271 108.0935263
  73.3055272  11.2199076 102.4290063  72.5222794  11.7620756 102.5228288
  74.0048018  11.7373055 102.8284304  76.6151923  -2.9706295 105.0724268
  77.1120622  -3.7236333 104.7525339  75.8438904  -2.9341978 104.5067478
  84.4681680   2.7334071 106.7142560  84.4571556   3.6158786 106.3436493
  83.5999059   2.3805621 106.5197097  75.9764176  11.8814140 111.0745400
  76.6892149  12.5161604 111.0021302  75.4854205  11.9778006 110.2585402
  77.6981703   5.7865392 102.6462692  76.7637982   5.9066855 102.4767396
  77.8758372   4.8837859 102.3822702  73.1986891  -0.8288912 104.7995953
  72.8284679  -1.3817872 105.4876859  73.6945984  -1.4330779 104.2470953
  81.0854255   1.6282711 103.1812726  81.5514707   2.4610703 103.1073029
  81.5361755   1.1627693 103.8857984  71.0276090   9.6308583 111.8950971
  71.7285549  10.2645066 112.0480365  70.5571205   9.9723315 111.1346610
  79.1530486   7.9726533 100.1798878  79.4290330   7.8583127 101.0892752
  78.2834984   7.5744018 100.1411051  78.8277376   2.1853190 109.7203521
  78.1748826   2.4329098 109.0655974  79.2057756   1.3717329 109.3865999
  75.7884550  12.2212884 103.8231692  75.9706944  11.4034540 104.2859444
  76.6117536  12.4380576 103.3856582  76.1226715  11.1481069 101.0846740
  76.6514482  10.6373523 100.4716902  76.3854935  10.8323599 101.9492273
  74.8764949   2.9273002 116.2069558  74.2005586   2.8267131 116.8771934
  75.6992583   2.7712215 116.6705556  66.6243808   9.1644938 108.8282074
  67.2097245   8.4188626 108.9609978  66.4268646   9.4748895 109.7118738
  69.4782463  12.1996185 103.8444516  68.8092838  12.6842313 103.3608556
  69.3395333  12.4465406 104.7587895  61.2161463   1.7350538 107.5486517
  61.2545562   1.2014129 108.3423635  60.7101755   1.2085744 106.9297494
  73.6187732  14.2339929 110.4427174  74.1706040  14.3971550 111.2076260
  73.9593925  14.8244367 109.7707199  68.5952225  -3.4184921 111.0449059
  68.6593551  -2.5570090 110.6326457  68.5319345  -4.0310920 110.3121418
  68.0704497  -1.3461789 114.6922093  68.6976536  -1.7284711 115.3059618
  67.2132416  -1.5647587 115.0577786  78.4698606   9.0601186 116.2975829
  79.0138510   9.6731145 115.8030784  77.8885451   9.6180765 116.8142842
  64.8470040   0.4614640 100.6240448  65.1423481  -0.4474681 100.5707502
  63.9458076   0.4402380 100.3021451  76.7556119  12.1821904 107.4290857
  76.6307258  11.3811644 106.9201802  77.4135210  12.6768098 106.9404827
  68.3764287  -1.4629363 106.6067997  67.6550873  -0.8493395 106.4675470
  69.1657543  -0.9271598 106.5284643  78.8191027   9.9830925 109.0570407
  77.8721363   9.8636276 108.9848733  79.1673800   9.0953423 109.1396668
  71.1790601  -4.1274937 112.8808649  71.7025003  -3.8812640 113.6434958
  70.9602934  -3.2954902 112.4611786  66.5757882  -1.8571262 100.7479773
  66.2470588  -2.7373883 100.5654879  66.9297253  -1.9123593 101.6356163
  75.8237461   9.7783641 105.2574759  75.6762423   8.8500348 105.4382329
  76.6490954   9.8003731 104.7731834  69.6899705  -1.5698292 101.1155251
  70.0295777  -1.0412371 100.3933859  70.1371825  -1.2317886 101.8913818
  79.4271583  10.6012200 106.3439632  80.3518130  10.3955061 106.2064083
  79.2586886  10.3528601 107.2528973  72.3843146  -3.1861241 110.5658319
  72.0439966  -3.9853428 110.9678999  71.6782152  -2.8859531 109.9935152
  71.6767852  -3.0723671  99.3148544  72.3976215  -2.6942418  98.8112261
  71.0533156  -2.3534794  99.4183522  75.8198975  -2.3678522 100.2506876
  76.0362589  -1.4853884  99.9495704  75.3393042  -2.7592308  99.5212518
  70.5598196   0.5907192 106.8277621  70.4142777   0.9047495 107.7201902
  70.0823400   1.2092092 106.2748519  72.4194579  -2.4190260 106.8758510
  72.4056148  -3.3149167 106.5390808  73.1367007  -2.4119597 107.5096796
  74.2720710  -1.9852920 108.9211638  74.0138488  -1.0635850 108.9195968
  73.7405750  -2.3822486 109.6112102  79.2166899  11.1197867 101.7001723
  79.3903776  10.5544289 100.9475576  79.7095790  11.9198762 101.5181213
  65.0343859   3.1312536 109.7665282  64.4897327   3.9072344 109.8985556
  65.9123208   3.4783341 109.6084403  71.8231475  -3.5375880 102.1446080
  71.9447386  -4.4659234 102.3436968  71.5333518  -3.5237194 101.2324396
  85.0706290   3.8834290 103.3192023  85.5137436   3.1341615 102.9211146
  84.1932800   3.8744426 102.9365755  80.2042071  10.4364631  98.7998621
  80.8992976  11.0571324  99.0185936  80.5465221   9.5859983  99.0750999
  65.8209880   2.2582432 112.6595439  65.0791616   2.4065068 113.2460069
  65.5002625   2.5190698 111.7962188  82.1033494   7.8864337 100.3285952
  82.6284818   8.2251610  99.6035272  82.0155847   6.9511352 100.1449087
  73.7653543  11.7998411 112.4575829  74.0740669  11.5547557 113.3298528
  74.5629025  12.0045049 111.9694699  73.7874155  13.9536320 104.6881205
  73.3479145  13.4612699 105.3814062  74.5382272  13.4109288 104.4473281
  66.2666494  10.1447861 104.6905833  67.0924514   9.8451633 104.3104477
  65.9160546   9.3755483 105.1395622  71.2348027   9.4974329 106.7603507
  70.6128037   8.8345034 106.4605735  71.9052894   9.5235461 106.0777155
  64.4675099   8.0634188 105.6494767  63.6307007   7.6356362 105.4678768
  64.4398745   8.2566631 106.5865558  71.3072555  -2.0243883 116.3536013
  71.3560710  -1.1481760 115.9713783  71.8495069  -2.5666490 115.7807656
  81.7927400   8.5197241 115.6337150  81.0022944   8.5021379 115.0941650
  81.5560755   9.0585534 116.3886187  81.9125275   5.3689707 112.9469879
  81.9623280   5.2039714 113.8885401  81.8039199   4.5016966 112.5567759
  70.7961534   8.0478253 100.2361968  70.9449655   8.7313717  99.5828640
  71.6027978   8.0283343 100.7511423  79.2029038   1.3520635 114.2629185
  80.1038901   1.2127100 113.9713183  79.2777012   1.5175090 115.2027363
  73.5371843  -1.2712510 113.1082372  72.6675153  -0.9778944 112.8364960
  73.7731324  -0.6872065 113.8289635  83.4143472   7.7886648 113.1911900
  83.1228281   8.1516629 114.0275361  82.8015604   7.0753657 113.0125232
  84.6139155   5.3539528 105.7114470  85.4486046   5.7929332 105.8752031
  84.7498283   4.8778181 104.8922716  81.6630661   2.9119263 111.6591958
  82.1384782   3.1046909 110.8510810  80.7396226   2.9678449 111.4135342
  68.5514167   4.0743430 101.2423036  68.3060209   3.1705760 101.4403247
  68.7210082   4.0760581 100.3002514  76.2410877  -5.0532893 110.6247792
  76.7592821  -4.3171866 110.2994281  75.8866010  -4.7468900 111.4594551
  67.8209815  -0.1928212  98.7409198  67.1279060  -0.1183857  98.0849234
  67.5761567  -0.9567869  99.2630715  74.2956940  10.5426383  97.7073715
  73.7230907  11.1616570  97.2544187  74.8689733  11.0925745  98.2413637
  80.3632330  -0.2114977 109.8920264  81.3149752  -0.1116879 109.9132488
  80.1935780  -1.0036708 110.4018348  78.3846709  -3.1259394 110.0779665
  77.7896641  -2.8454381 109.3826153  78.0996406  -2.6365493 110.8496406
  77.5154199  10.8263533  98.8382297  78.4484873  10.7609095  99.0415173
  77.4277412  11.6619800  98.3796830  80.1442216  10.1429404  95.7986245
  80.0655848   9.8089267  96.6922003  80.9651883  10.6351171  95.7977717
  82.8420407   3.0091143 109.0062563  82.8096727   2.0707144 109.1922247
  83.4521031   3.0875180 108.2728388  74.6803738   1.8787196  95.0489767
  75.6262843   1.7493404  95.1178185  74.3017983   1.1401858  95.5259196
  82.9914896  -0.1997814 109.0520847  82.4753944  -0.9839357 108.8650775
  83.8754844  -0.5279097 109.2167366  88.6596957   4.0707150 108.1468600
  89.3900346   3.8092438 108.7076304  88.0503903   3.3335872 108.1870668
  86.7412254   2.2115012 108.7443051  86.0145418   2.0770977 108.1359543
  86.3259541   2.5191841 109.5499769  74.5642431   5.9304942 116.5090424
  75.4845440   6.1083541 116.7030471  74.5292014   4.9860987 116.3570124
  72.8646655  -0.1962828  94.9844653  71.9578111  -0.4929715  95.0607366
  73.1422636  -0.4933010  94.1178939  63.7824596   1.1243536 105.4343699
  63.4627380   0.2708844 105.1418073  63.2358024   1.3392114 106.1901666
  67.5604503   3.8405977 109.1513206  67.7790513   4.7723084 109.1701239
  67.9730277   3.4813951 109.9368009  74.4808721  -5.6525938 101.1388894
  73.6709449  -5.9978853 101.5144140  75.1693138  -5.9618394 101.7276506
  72.4332369  -0.5860818 118.5415955  72.3329095   0.3633539 118.4728046
  72.2153911  -0.9142579 117.6692025  71.6345440  -3.3375893  95.1256632
  72.4964604  -3.0120994  95.3852449  71.8195784  -4.1244397  94.6129698
  63.6512856   4.7446447 107.4036821  62.9576327   4.3300400 106.8906775
  64.3985847   4.7866984 106.8070240  72.2963639   2.8436321 117.3581016
  71.8130720   3.6436681 117.5644905  72.3824578   2.8544266 116.4048460
  65.5649598   4.6764701 105.2802836  65.5420286   4.7752388 104.3284719
  65.8750235   5.5229852 105.6020002  68.2236976   6.7340856 109.3949450
  69.1780230   6.7024798 109.3279382  68.0249500   6.2731480 110.2099676
  68.8136358   5.3041972 111.9620248  69.6329247   5.7986051 111.9855085
  69.0873166   4.3873940 111.9337815  78.5702954  -2.3047276 101.3248203
  77.6828809  -2.0197625 101.1068398  78.9856944  -2.4653512 100.4775480
  81.9217491  -2.2800755 105.0402542  82.6977881  -1.7904302 105.3127159
  81.1965625  -1.8542701 105.4974412  84.3590049  -1.5673136 106.0976483
  84.9534540  -1.8077400 105.3869791  84.4316633  -2.2866005 106.7250019
  66.5787205  12.2760475 106.4119648  66.4441673  11.5160876 105.8457646
  66.1619267  13.0001375 105.9448437  77.7146168   7.4597399  95.4196223
  78.4182018   7.6647401  96.0353879  76.9908817   8.0274161  95.6845307
  78.5443978   3.2107260 101.5398493  78.4879180   3.6675812 100.7006126
  79.0972321   2.4497945 101.3621336  82.3548784  -1.0003008 102.3648613
  82.0985718  -1.4006372 103.1956820  81.7301652  -0.2859214 102.2398752
  86.6661122   1.7393065 104.8719904  86.1060680   1.8086255 105.6451466
  86.0604625   1.5634050 104.1519400  69.7356331  13.1729792 106.6238090
  69.6188715  14.1175225 106.5216781  68.9148777  12.8703354 107.0123890
  79.6232865   7.8979928  97.4694683  80.4578469   7.4661127  97.2872158
  79.4617208   7.7261942  98.3971578  79.2778758   4.4012041  98.8351022
  79.2227561   4.2356313  97.8939467  78.6524813   5.1088074  98.9913212
  64.0671272  -0.3619894 112.6612445  64.7130136  -0.8720940 113.1499670
  63.8588424   0.3748787 113.2355870  76.5924665   6.7060953 118.1604585
  77.4615824   6.8801606 117.7991220  76.1131416   7.5255370 118.0380315
  72.5874883  -6.0979850  98.4136341  72.5753553  -5.1538010  98.5704612
  73.4798305  -6.2809704  98.1195802  70.7610845  13.8258054 109.8394019
  71.6638092  13.8581665 110.1560514  70.5348215  12.8958505 109.8540355
  72.5164447  12.5789041 106.5004098  71.5660078  12.5790902 106.3868470
  72.8196933  11.8321775 105.9840132  68.4068763  -3.2152277 116.7587459
  69.2700225  -3.5715472 116.9690783  67.8334174  -3.5538382 117.4462863
  88.2517140  18.4149579 107.5649860  88.8895550  18.2956327 106.8613200
  88.1337983  19.3630423 107.6237812  85.0606847  18.3677007 107.5011385
  84.7225358  18.2518072 106.6131919  85.9296615  17.9668172 107.4812391
  80.9193662  20.2212484 103.4908276  80.3558528  20.1302421 102.7224563
  80.8046057  19.4012388 103.9710768  85.5426630  19.5211859 113.4597590
  85.5315270  19.1264657 112.5878094  85.7047269  18.7877932 114.0531362
  78.4658094  21.7163675 106.3292496  79.2579386  21.3754500 105.9138795
  78.7054744  21.8258650 107.2494649  86.4993221  23.8883451  98.8022740
  85.8481201  24.4737532  98.4156754  87.2937584  24.4189646  98.8617778
  80.4248848  20.9772589  99.2009875  81.1979724  20.4301576  99.0622751
  80.7774247  21.8416838  99.4124336  82.2633891  22.3048971 112.4076774
  81.9723757  23.2094602 112.2923440  82.8990875  22.3465498 113.1220844
  83.1890098  19.6825819 108.9978134  83.7853670  19.4581842 108.2835097
  83.2465069  18.9410565 109.6003582  82.7615126  17.1365255  96.8328325
  83.0140647  16.6146776  96.0711788  81.8239685  16.9731400  96.9355008
  87.8058409  16.1401033 104.6403068  88.5921498  15.7220456 104.2893485
  88.0697113  17.0447125 104.8084716  87.9768486  21.5773883  99.3391725
  87.3414319  21.6508510 100.0512629  87.6465893  22.1667482  98.6610804
  93.2066836  16.0776266 105.5436046  93.9392008  15.5075483 105.7773876
  92.4506192  15.6897867 105.9842552  82.4811415  19.0393361  99.0352700
  82.3647673  18.3638264  99.7033784  82.5913675  18.5525735  98.2184853
  84.8242956  18.5003508 102.7399389  84.4601163  17.9734129 103.4512310
  85.6810072  18.1101977 102.5665874  90.7292256   9.7897840 110.0030655
  90.3975581  10.6593251 109.7791870  90.1337870   9.4734124 110.6824685
  84.4648443  13.5293407  97.7360737  84.6322845  14.3973644  98.1031208
  84.2745612  13.6920689  96.8122027  87.2223776  21.9910386 109.4026568
  86.9224499  22.8935425 109.2942375  86.8774835  21.7242570 110.2547721
  80.6736257  18.4424183 105.4363272  79.7486754  18.3100397 105.6440964
  80.9220671  19.2218402 105.9333215  90.6220920  14.5092927 107.0824005
  89.7137797  14.4408335 106.7882766  90.5708515  14.9864872 107.9105831
  84.4437664  15.9851065  98.7207404  84.3237289  16.4308116  99.5592885
  83.7490252  16.3336383  98.1620942  78.0345068  18.0857457 106.2707061
  78.1637450  18.3391936 107.1846473  77.3542520  18.6785165 105.9511716
  82.2044556  28.7554707 102.3697536  82.1268585  29.7062532 102.4486016
  81.6006199  28.4100579 103.0272462  84.6961785  15.9282572 115.0258902
  83.9195120  16.4876492 115.0161767  85.3352349  16.4139355 115.5473773
  92.4882566  12.7109365 108.8601879  91.8456946  13.0041898 108.2141674
  91.9837495  12.5962285 109.6655076  90.1422730  16.4572538  99.5487738
  91.0540586  16.6899925  99.3735436  89.6332377  17.0409582  98.9862817
  82.9508158  18.7368026 114.5876869  83.6922842  19.2753069 114.3111693
  82.2445143  19.3634314 114.7448421  88.4263497  20.8797166 113.1849031
  88.8346853  20.4379577 112.4403663  87.7040759  20.3049794 113.4383224
  84.7794567  15.8169773 110.5582588  85.6255763  16.2409186 110.7017237
  84.7193205  15.1603397 111.2521151  88.7492312  21.4398357 106.9401320
  88.1201175  21.6044071 106.2377388  88.3617974  21.8539966 107.7112284
  92.6281544  22.3752794 104.2945684  91.9432582  22.7551696 103.7442717
  92.7125393  22.9848121 105.0277631  87.9294013  13.4774141 112.2163761
  87.6854945  14.2316202 111.6798037  88.2053943  13.8559489 113.0511009
  89.8832476  20.0212753 110.8941027  90.0949371  20.6644513 110.2175408
  89.8362224  19.1875070 110.4262957  87.4858705  12.6330574 107.7977599
  86.6243184  12.9311828 108.0894337  87.5121139  12.8500973 106.8658632
  84.3020274  21.1772765 104.2051405  84.7658619  21.4560468 103.4156027
  84.0377072  20.2756209 104.0224496  81.1944355  20.7244246 107.1431168
  81.7645712  21.1531515 106.5048653  81.7852467  20.4426831 107.8415354
  83.2389160  17.2995917 101.0140970  83.9413203  17.7516961 101.4814896
  82.9069789  16.6579736 101.6420863  81.6869522  15.8907674 115.3892179
  81.0568182  16.5723955 115.6227576  81.5805609  15.7790755 114.4445318
  76.9814494  15.5579470 106.3158104  76.1913548  15.8136998 105.8398214
  77.4725741  16.3727808 106.4210144  90.9978304  22.8984709 109.0663384
  91.8195747  22.4964896 108.7846066  90.9940706  22.7952943 110.0179500
  78.9329239  15.9224049 103.2741580  78.1360403  16.0342743 103.7925076
  78.7054832  16.2610701 102.4082471  84.7634907  22.4468752 111.2224095
  84.8279339  22.9089159 112.0582267  84.0545831  21.8166117 111.3506405
  75.2652197  15.8109960 108.7473094  75.5160235  16.6956970 109.0130670
  75.8011745  15.6314562 107.9748186  99.0884297  19.2423457 105.4148356
  98.3348005  18.6730855 105.2592360  99.2231838  19.2086122 106.3618991
  84.4782925  24.1136860 101.0903075  84.3428599  24.9588395 101.5187923
  85.0192737  24.3156137 100.3269009  80.9650264  10.1928440 117.7517430
  80.5717210   9.6394638 118.4265075  81.7816405  10.5039018 118.1423948
  77.9312322  21.6312298 101.6631000  78.4436843  22.4255548 101.8136565
  78.5835035  20.9338588 101.5964602  79.7407207  24.7478054 103.7453753
  79.9173835  25.6696019 103.5574737  80.5364040  24.4336473 104.1748133
  83.8818225  11.6086319 115.3437687  84.6227939  12.2093472 115.2642149
  84.1136148  10.8663956 114.7855730  79.0259563  16.7942686 113.6215917
  78.9113078  15.8927943 113.9223016  78.1704081  17.0406383 113.2700733
  86.1051401  24.7360426 115.2203417  85.6615255  23.9496805 114.9024322
  86.7668615  24.9239577 114.5547308  80.8638522  26.2656228 109.7464096
  81.4145947  26.1373291 108.9741090  80.0249998  26.5651117 109.3958989
  88.2032639  25.0163226 113.2484819  88.1851114  25.8372107 112.7565088
  89.1252559  24.8917301 113.4734960  84.6605693  22.5307356 114.0908327
  85.1934030  21.7695644 113.8607635  84.1319774  22.2381007 114.8332481
  87.8275388   7.6367422 109.6201969  87.4839658   8.5269063 109.5441079
  88.1954351   7.4469079 108.7571554  75.8961239  19.9600952 102.4390571
  76.7336461  20.3697960 102.2224279  76.0739506  19.0200394 102.4090765
  87.7925671  17.6276033  98.1274404  87.2772294  18.3980637  98.3662791
  87.5202979  16.9541169  98.7507465  85.3772782  12.4725733 103.1859642
  84.5214378  12.0832584 103.0065281  85.7899734  12.5517694 102.3259428
  86.9071929  10.0072077 107.5851202  86.4036724   9.9702212 106.7719007
  87.2002535  10.9164819 107.6447859  83.1514814  10.0910806 106.5917384
  84.0167811   9.8953615 106.2323273  83.2192323   9.8621158 107.5186740
  92.7659945  20.3808387 100.0627577  91.9889388  20.0419547  99.6182739
  93.4451426  20.3861010  99.3882542  87.5811974  15.5003125  99.9534185
  87.2762110  15.8149274 100.8044328  88.5342416  15.5784545  99.9961518
  86.0258406  21.6593348 101.6027139  85.4979768  20.9246108 101.2900376
  85.5245909  22.4368024 101.3567107  91.0051252  19.8542369 106.7194185
  90.3474926  20.5441630 106.8074314  91.8091651  20.2438801 107.0628172
  80.7577134  12.3213014 103.9633750  81.3320885  12.0988196 103.2306943
  81.3448116  12.3901709 104.7162352  89.8156711  18.2086741 104.7698127
  90.3288593  18.8416733 105.2719837  90.4657935  17.6087937 104.4041487
  81.0846721  14.3517475  97.9829636  80.2484033  14.6892162  98.3038910
  80.9451490  14.2166455  97.0456773  83.0599801   9.1954263 102.6908820
  82.4064214   8.8803280 102.0665435  83.0180275   8.5730004 103.4168643
  84.1711006  19.4773558  94.6062112  83.2638068  19.2462812  94.8053261
  84.6682038  18.6811178  94.7936094  87.0779085  28.1871066  97.5258798
  86.4040784  28.4902762  98.1343756  87.4644907  28.9900146  97.1764255
  86.2937542  15.6836197 107.0156468  85.3760103  15.9051144 106.8578156
  86.7097685  15.7582507 106.1568175  87.0772589  17.0827613 102.1459148
  87.8244408  17.5949010 101.8366270  87.3464179  16.7611665 103.0063541
  85.3499240  19.5786153  99.1286102  84.4410459  19.2945186  99.2258572
  85.3794323  19.9985232  98.2689409  90.5818507  23.1892743 102.8977270
  90.1280834  22.3483653 102.9542460  89.9512474  23.8254141 103.2352050
  89.5251427  14.1184729 104.1277937  88.7874183  13.6062115 104.4588180
  89.7778200  13.6785110 103.3161214  89.0251446  25.0269239 103.8327088
  89.3174421  25.5874297 103.1139453  89.5350067  25.3197800 104.5880247
  89.6263054   6.8960981 104.7219706  89.9321931   6.0358344 104.4345621
  90.3515659   7.4878601 104.5218700  75.9187410  17.2991667 103.1101304
  75.7211810  16.7061028 102.3852371  75.3634074  16.9943878 103.8277243
  83.8984134  17.1914774 105.2295897  83.9532743  16.2388610 105.1538374
  83.0875336  17.3474213 105.7137196  85.0475327  21.1194897  96.4674181
  84.6094757  20.4030756  96.0079818  85.7885768  21.3471012  95.9059272
  81.8376494  15.8091834 102.9886276  81.0244359  16.1086004 103.3951468
  82.3335488  15.4147522 103.7060759  83.9885071  25.8049591 104.9220541
  83.9461250  26.0310437 103.9929073  84.9047770  25.5712965 105.0706342
  87.4350705  16.2733658 111.8201170  87.7900093  16.5005131 112.6795636
  88.0822836  16.6052035 111.1978426  93.1648442  19.3952094 102.5250499
  93.0266341  19.5853690 101.5971688  92.8084661  20.1571477 102.9818550
  81.3290568  13.3810189 108.6047511  81.9689948  13.2398948 107.9070475
  80.4968099  13.0944702 108.2286113  93.1917822  21.4628621 107.5361771
  93.6254328  21.3703910 108.3844825  93.9049402  21.4386121 106.8981787
  82.1050872  22.6812620 104.7182504  82.8991471  22.1862940 104.5165079
  81.3942565  22.1530483 104.3550209  86.9245717  25.0630715 109.0694871
  86.9782739  25.6321651 109.8372587  86.0560498  25.2332600 108.7048908
  78.4133636  16.8255701 100.7942256  77.4831224  16.7640157 101.0112219
  78.5091108  16.3031654  99.9978898  78.3319185  13.3510514 103.3820498
  78.5926002  14.2655847 103.2729659  79.1536357  12.8834957 103.5317111
  79.8044110  14.7648271 110.5519323  80.4767163  14.5565633 109.9031972
  78.9773897  14.5670357 110.1124555  94.0533371  21.5052322 110.0694656
  94.2469261  22.4098132 110.3153931  93.9533989  21.0459741 110.9033241
  85.7069682  11.3910212 112.5684983  85.0597597  12.0900162 112.4749460
  86.4770697  11.8246356 112.9361232  89.1148480  21.6559064 115.6435537
  88.9633986  21.4269616 114.7265620  89.1053159  22.6129666 115.6566882
  85.8833816  19.2290977 110.6281803  86.8125876  19.3802137 110.4550771
  85.4624846  19.3174998 109.7730450  84.6822148  23.2541642 108.3980341
  84.5433234  22.8860426 109.2706279  83.8936744  23.7689281 108.2264299
  85.2770300  28.3550738  99.7405877  85.4522056  27.8838781 100.5551500
  84.5903088  28.9816504  99.9687138  86.2327363  22.6323244 105.7869179
  85.8977196  22.5924014 106.6826828  85.7331309  21.9667960 105.3139589
  80.2071607  18.0390874 111.3121760  80.0691405  17.3071113 111.9133299
  81.1176531  17.9499774 111.0305948  89.1686555  19.9779279  96.0606238
  88.5515726  19.2526107  95.9639291  88.7003043  20.7388639  95.7173313
  82.8353908  17.7510834 110.8005439  83.5453526  17.1104026 110.7592058
  82.7923216  18.0023728 111.7231620  90.8240687  24.6878187 113.7212019
  90.7653233  24.0037407 113.0542602  91.2260205  25.4297177 113.2692645
  81.5482842  14.7376051 112.6201079  81.0120199  14.2866790 113.2722675
  80.9599550  14.8721960 111.8771543  79.8431385  31.5040101 106.5145738
  80.0827984  32.1358625 107.1924756  79.0000582  31.1528141 106.8011097
  80.9585101  14.1964703  95.1827543  80.0814567  14.0753504  94.8189789
  81.4342854  13.4050781  94.9306431  90.8258094  22.6517771 111.9525998
  89.9384873  22.3143693 112.0752397  91.3956645  21.9200802 112.1894764
  72.4787241  18.9841863 105.2769050  73.1658281  18.6703593 104.6890065
  72.3235370  19.8883227 105.0036301  77.2821963  13.8732059 109.7054073
  77.1980152  13.2657729 108.9704483  76.4604670  14.3641077 109.7063570
  84.3559247  27.3119223 108.9187242  84.2829419  28.1174195 109.4306546
  83.9136640  27.5111189 108.0935263  84.1449027  26.5490993 102.4290063
  83.3616549  27.0912673 102.5228288  84.8441772  27.0664973 102.8284304
  87.4545677  12.3585623 105.0724268  87.9514377  11.6055585 104.7525339
  86.6832659  12.3949939 104.5067478  95.3075434  18.0625988 106.7142560
  95.2965311  18.9450704 106.3436493  94.4392814  17.7097539 106.5197097
  86.8157931  27.2106057 111.0745400  87.5285903  27.8453522 111.0021302
  86.3247959  27.3069923 110.2585402  88.5375458  21.1157310 102.6462692
  87.6031736  21.2358772 102.4767396  88.7152126  20.2129777 102.3822702
  84.0380646  14.5003006 104.7995953  83.6678433  13.9474046 105.4876859
  84.5339738  13.8961139 104.2470953  91.9248009  16.9574629 103.1812726
  92.3908461  17.7902621 103.1073029  92.3755510  16.4919611 103.8857984
  81.8669844  24.9600501 111.8950971  82.5679304  25.5936984 112.0480365
  81.3964959  25.3015232 111.1346610  89.9924240  23.3018450 100.1798878
  90.2684084  23.1875045 101.0892752  89.1228739  22.9035935 100.1411051
  89.8964672   9.3255216 107.2203627  88.9827752   9.5559443 107.3885834
  90.3257773   9.4093660 108.0717660  89.6671130  17.5145108 109.7203521
  89.0142581  17.7621016 109.0655974  90.0451510  16.7009246 109.3865999
  86.6278304  27.5504801 103.8231692  86.8100699  26.7326457 104.2859444
  87.4511290  27.7672494 103.3856582  86.9620470  26.4772986 101.0846740
  87.4908236  25.9665441 100.4716902  87.2248689  26.1615517 101.9492273
  85.7158703  18.2564919 116.2069558  85.0399340  18.1559049 116.8771934
  86.5386337  18.1004133 116.6705556  77.4637562  24.4936856 108.8282074
  78.0490999  23.7480544 108.9609978  77.2662401  24.8040812 109.7118738
  80.3176218  27.5288103 103.8444516  79.6486593  28.0134231 103.3608556
  80.1789087  27.7757324 104.7587895  72.0555217  17.0642456 107.5486517
  72.0939317  16.5306047 108.3423635  71.5495510  16.5377661 106.9297494
  84.4581486  29.5631847 110.4427174  85.0099794  29.7263468 111.2076260
  84.7987680  30.1536284 109.7707199  79.4345979  11.9106996 111.0449059
  79.4987306  12.7721827 110.6326457  79.3713100  11.2980998 110.3121418
  78.9098252  13.9830129 114.6922093  79.5370291  13.6007206 115.3059618
  78.0526171  13.7644331 115.0577786  89.3092361  24.3893104 116.2975829
  89.8532265  25.0023062 115.8030784  88.7279205  24.9472683 116.8142842
  75.6863795  15.7906558 100.6240448  75.9817236  14.8817237 100.5707502
  74.7851830  15.7694298 100.3021451  87.5949873  27.5113822 107.4290857
  87.4701013  26.7103562 106.9201802  88.2528965  28.0060016 106.9404827
  79.2158042  13.8662555 106.6067997  78.4944627  14.4798522 106.4675470
  80.0051297  14.4020319 106.5284643  89.6584782  25.3122842 109.0570407
  88.7115117  25.1928193 108.9848733  90.0067555  24.4245340 109.1396668
  82.0184355  11.2016981 112.8808649  82.5418757  11.4479278 113.6434958
  81.7996689  12.0337016 112.4611786  77.4151636  13.4720656 100.7479773
  77.0864342  12.5918035 100.5654879  77.7691007  13.4168324 101.6356163
  86.6631215  25.1075558 105.2574759  86.5156178  24.1792266 105.4382329
  87.4884709  25.1295649 104.7731834  80.5293459  13.7593626 101.1155251
  80.8689532  14.2879547 100.3933859  80.9765580  14.0974032 101.8913818
  90.2665337  25.9304117 106.3439632  91.1911884  25.7246979 106.2064083
  90.0980640  25.6820518 107.2528973  83.2236900  12.1430676 110.5658319
  82.8833721  11.3438489 110.9678999  82.5175907  12.4432387 109.9935152
  83.8753372   9.2279989 109.0185642  84.6979441   8.7540467 108.8964532
  84.1191436  10.0070472 109.5184328  82.5161607  12.2568247  99.3148544
  83.2369969  12.6349500  98.8112261  81.8926911  12.9757124  99.4183522
  86.6592729  12.9613396 100.2506876  86.8756344  13.8438034  99.9495704
  86.1786797  12.5699610  99.5212518  81.3991951  15.9199109 106.8277621
  81.2536532  16.2339412 107.7201902  80.9217154  16.5384010 106.2748519
  83.2588334  12.9101657 106.8758510  83.2449903  12.0142751 106.5390808
  83.9760762  12.9172321 107.5096796  85.1114464  13.3438998 108.9211638
  84.8532242  14.2656068 108.9195968  84.5799505  12.9469432 109.6112102
  90.0560653  26.4489785 101.7001723  90.2297531  25.8836207 100.9475576
  90.5489544  27.2490680 101.5181213  75.8737613  18.4604454 109.7665282
  75.3291081  19.2364262 109.8985556  76.7516963  18.8075258 109.6084403
  82.6625230  11.7916038 102.1446080  82.7841141  10.8632684 102.3436968
  82.3727272  11.8054724 101.2324396  85.5316420   9.4770948 105.2812800
  85.5538117   9.5410281 104.3264780  85.9484479   8.6375457 105.4753306
  95.9100044  19.2126208 103.3192023  96.3531190  18.4633533 102.9211146
  95.0326555  19.2036344 102.9365755  91.0435826  25.7656549  98.7998621
  91.7386730  26.3863242  99.0185936  91.3858976  24.9151900  99.0750999
  76.6603635  17.5874350 112.6595439  75.9185371  17.7356985 113.2460069
  76.3396379  17.8482616 111.7962188  92.9427249  23.2156255 100.3285952
  93.4678573  23.5543527  99.6035272  92.8549601  22.2803270 100.1449087
  84.6047298  27.1290328 112.4575829  84.9134424  26.8839475 113.3298528
  85.4022780  27.3336967 111.9694699  84.6267910  29.2828238 104.6881205
  84.1872900  28.7904617 105.3814062  85.3776027  28.7401206 104.4473281
  77.1060249  25.4739779 104.6905833  77.9318268  25.1743551 104.3104477
  76.7554301  24.7047401 105.1395622  82.0741782  24.8266247 106.7603507
  81.4521791  24.1636952 106.4605735  82.7446649  24.8527379 106.0777155
  75.3068854  23.3926105 105.6494767  74.4700762  22.9648280 105.4678768
  75.2792499  23.5858549 106.5865558  82.1466309  13.3048035 116.3536013
  82.1954465  14.1810158 115.9713783  82.6888823  12.7625428 115.7807656
  92.6321155  23.8489158 115.6337150  91.8416699  23.8313297 115.0941650
  92.3954509  24.3877452 116.3886187  92.7519030  20.6981625 112.9469879
  92.8017035  20.5331632 113.8885401  92.6432953  19.8308884 112.5567759
  81.6355289  23.3770170 100.2361968  81.7843409  24.0605635  99.5828640
  82.4421732  23.3575260 100.7511423  90.0422792  16.6812553 114.2629185
  90.9432655  16.5419017 113.9713183  90.1170767  16.8467007 115.2027363
  84.3765598  14.0579407 113.1082372  83.5068907  14.3512973 112.8364960
  84.6125078  14.6419852 113.8289635  94.2537227  23.1178566 113.1911900
  93.9622035  23.4808547 114.0275361  93.6409358  22.4045574 113.0125232
  95.4532909  20.6831446 105.7114470  96.2879800  21.1221250 105.8752031
  95.5892038  20.2070099 104.8922716  92.5024415  18.2411181 111.6591958
  92.9778537  18.4338827 110.8510810  91.5789980  18.2970367 111.4135342
  79.3907922  19.4035348 101.2423036  79.1453964  18.4997678 101.4403247
  79.5603836  19.4052498 100.3002514  87.0804632  10.2759024 110.6247792
  87.5986575  11.0120051 110.2994281  86.7259764  10.5823018 111.4594551
  78.6603569  15.1363706  98.7409198  77.9672814  15.2108060  98.0849234
  78.4155321  14.3724049  99.2630715  87.3317226   6.6959307 106.1448689
  87.6118979   6.0282496 106.7709115  88.1167833   6.8888402 105.6323352
  85.1350694  25.8718301  97.7073715  84.5624661  26.4908488  97.2544187
  85.7083488  26.4217662  98.2413637  91.2026084  15.1176941 109.8920264
  92.1543507  15.2175038 109.9132488  91.0329534  14.3255209 110.4018348
  89.2240463  12.2032524 110.0779665  88.6290396  12.4837537 109.3826153
  88.9390160  12.6926425 110.8496406  88.3547954  26.1555451  98.8382297
  89.2878627  26.0901013  99.0415173  88.2671167  26.9911718  98.3796830
  90.9835971  25.4721321  95.7986245  90.9049602  25.1381185  96.6922003
  91.8045637  25.9643089  95.7977717  93.6814162  18.3383061 109.0062563
  93.6490482  17.3999061 109.1922247  94.2914785  18.4167097 108.2728388
  85.5197493  17.2079113  95.0489767  86.4656597  17.0785322  95.1178185
  85.1411738  16.4693775  95.5259196  93.8308650  15.1294104 109.0520847
  93.3147699  14.3452561 108.8650775  94.7148599  14.8012821 109.2167366
  91.4919377   8.8735120 105.0116659  91.2944198   8.5650208 105.8959991
  92.1019083   9.5996758 105.1414589  99.4990712  19.3999067 108.1468600
 100.2294100  19.1384355 108.7076304  98.8897657  18.6627789 108.1870668
  97.5806009  17.5406930 108.7443051  96.8539172  17.4062895 108.1359543
  97.1653296  17.8483759 109.5499769  85.4036185  21.2596860 116.5090424
  86.3239195  21.4375459 116.7030471  85.3685768  20.3152905 116.3570124
  83.7040410  15.1329090  94.9844653  82.7971865  14.8362203  95.0607366
  83.9816391  14.8358908  94.1178939  74.6218350  16.4535453 105.4343699
  74.3021135  15.6000761 105.1418073  74.0751778  16.6684031 106.1901666
  78.3998258  19.1697894 109.1513206  78.6184268  20.1015002 109.1701239
  78.8124032  18.8105869 109.9368009  85.3202476   9.6765980 101.1388894
  84.5103204   9.3313065 101.5144140  86.0086892   9.3673523 101.7276506
  87.2493024   8.7544026 102.7613191  87.8024062   9.1739480 103.4203214
  87.4863110   7.8279775 102.8036147  83.2726123  14.7431100 118.5415955
  83.1722850  15.6925457 118.4728046  83.0547665  14.4149339 117.6692025
  82.4739194  11.9916025  95.1256632  83.3358358  12.3170923  95.3852449
  82.6589539  11.2047521  94.6129698  74.4906610  20.0738365 107.4036821
  73.7970082  19.6592318 106.8906775  75.2379601  20.1158901 106.8070240
  90.6271831  10.8644552 102.2691855  90.0470500  11.5229356 101.8869907
  90.3607764  10.0421896 101.8579272  89.0775397  10.2649609 104.4713175
  89.5775176  10.3766144 103.6627494  89.7211005   9.9610662 105.1113984
  83.1357393  18.1728239 117.3581016  82.6524475  18.9728599 117.5644905
  83.2218332  18.1836184 116.4048460  76.4043353  20.0056619 105.2802836
  76.3814041  20.1044306 104.3284719  76.7143989  20.8521769 105.6020002
  79.0630731  22.0632774 109.3949450  80.0173984  22.0316716 109.3279382
  78.8643254  21.6023397 110.2099676  79.6530113  20.6333890 111.9620248
  80.4723002  21.1277968 111.9855085  79.9266920  19.7165858 111.9337815
  89.4096709  13.0244642 101.3248203  88.5222564  13.3094293 101.1068398
  89.8250698  12.8638405 100.4775480  92.7611245  13.0491163 105.0402542
  93.5371635  13.5387615 105.3127159  92.0359379  13.4749217 105.4974412
  95.1983804  13.7618782 106.0976483  95.7928295  13.5214518 105.3869791
  95.2710387  13.0425913 106.7250019  77.4180959  27.6052393 106.4119648
  77.2835427  26.8452794 105.8457646  77.0013022  28.3293293 105.9448437
  88.5539922  22.7889317  95.4196223  89.2575773  22.9939319  96.0353879
  87.8302571  23.3566079  95.6845307  89.3837733  18.5399178 101.5398493
  89.3272934  18.9967729 100.7006126  89.9366075  17.7789862 101.3621336
  93.1942539  14.3288910 102.3648613  92.9379473  13.9285545 103.1956820
  92.5695407  15.0432704 102.2398752  97.5054876  17.0684983 104.8719904
  96.9454434  17.1378172 105.6451466  96.8998380  16.8925968 104.1519400
  80.5750085  28.5021710 106.6238090  80.4582469  29.4467143 106.5216781
  79.7542532  28.1995272 107.0123890  90.4626620  23.2271846  97.4694683
  91.2972224  22.7953044  97.2872158  90.3010963  23.0553860  98.3971578
  90.1172512  19.7303959  98.8351022  90.0621316  19.5648231  97.8939467
  89.4918567  20.4379992  98.9913212  74.9065027  14.9672024 112.6612445
  75.5523891  14.4570977 113.1499670  74.6982178  15.7040705 113.2355870
  87.4318419  22.0352871 118.1604585  88.3009579  22.2093523 117.7991220
  86.9525171  22.8547288 118.0380315  83.4268637   9.2312068  98.4136341
  83.4147307  10.1753908  98.5704612  84.3192059   9.0482214  98.1195802
  81.6004599  29.1549972 109.8394019  82.5031846  29.1873582 110.1560514
  81.3741969  28.2250423 109.8540355  83.3558201  27.9080959 106.5004098
  82.4053832  27.9082820 106.3868470  83.6590688  27.1613693 105.9840132
  87.2420757   5.8254845 102.6682278  86.4753153   5.2713331 102.8138960
  87.6531462   5.8976714 103.5296429  79.2462518  12.1139641 116.7587459
  80.1093980  11.7576445 116.9690783  78.6727929  11.7753535 117.4462863
  99.0910895  33.7441497 107.5649860  99.7289305  33.6248244 106.8613200
  98.9731738  34.6922341 107.6237812  95.9000601  33.6968925 107.5011385
  95.5619113  33.5809990 106.6131919  96.7690369  33.2960090 107.4812391
  91.7587417  35.5504401 103.4908276  91.1952282  35.4594338 102.7224563
  91.6439812  34.7304306 103.9710768  96.3820384  34.8503777 113.4597590
  96.3709025  34.4556575 112.5878094  96.5441024  34.1169849 114.0531362
  89.3051849  37.0455593 106.3292496  90.0973141  36.7046418 105.9138795
  89.5448499  37.1550568 107.2494649  97.3386976  39.2175369  98.8022740
  96.6874955  39.8029450  98.4156754  98.1331338  39.7481564  98.8617778
  91.2642603  36.3064506  99.2009875  92.0373479  35.7593493  99.0622751
  91.6168002  37.1708756  99.4124336  93.1027645  37.6340889 112.4076774
  92.8117511  38.5386519 112.2923440  93.7384630  37.6757416 113.1220844
  94.0283852  35.0117737 108.9978134  94.6247424  34.7873759 108.2835097
  94.0858824  34.2702483 109.6003582  93.6008881  32.4657172  96.8328325
  93.8534401  31.9438694  96.0711788  92.6633440  32.3023318  96.9355008
  98.6452163  31.4692951 104.6403068  99.4315253  31.0512374 104.2893485
  98.9090868  32.3739043 104.8084716  98.8162241  36.9065801  99.3391725
  98.1808074  36.9800428 100.0512629  98.4859647  37.4959400  98.6610804
 104.0460591  31.4068184 105.5436046 104.7785762  30.8367401 105.7773876
 103.2899946  31.0189784 105.9842552  93.3205169  34.3685278  99.0352700
  93.2041427  33.6930182  99.7033784  93.4307429  33.8817652  98.2184853
  95.6636710  33.8295425 102.7399389  95.2994917  33.3026046 103.4512310
  96.5203826  33.4393895 102.5665874 101.5686011  25.1189758 110.0030655
 101.2369336  25.9885169 109.7791870 100.9731624  24.8026042 110.6824685
  95.3042197  28.8585325  97.7360737  95.4716600  29.7265562  98.1031208
  95.1139366  29.0212607  96.8122027  98.0617530  37.3202304 109.4026568
  97.7618253  38.2227343 109.2942375  97.7168590  37.0534487 110.2547721
  91.5130012  33.7716101 105.4363272  90.5880508  33.6392315 105.6440964
  91.7614425  34.5510320 105.9333215 101.4614674  29.8384844 107.0824005
 100.5531552  29.7700253 106.7882766 101.4102270  30.3156789 107.9105831
  95.2831418  31.3142983  98.7207404  95.1631043  31.7600033  99.5592885
  94.5884006  31.6628300  98.1620942  88.8738823  33.4149374 106.2707061
  89.0031204  33.6683853 107.1846473  88.1936274  34.0077082 105.9511716
  93.0438310  44.0846624 102.3697536  92.9662340  45.0354450 102.4486016
  92.4399954  43.7392497 103.0272462  95.5355540  31.2574490 115.0258902
  94.7588874  31.8168410 115.0161767  96.1746103  31.7431273 115.5473773
 103.3276321  28.0401283 108.8601879 102.6850701  28.3333816 108.2141674
 102.8231249  27.9254203 109.6655076 100.9816484  31.7864456  99.5487738
 101.8934340  32.0191843  99.3735436 100.4726131  32.3701500  98.9862817
  93.7901912  34.0659943 114.5876869  94.5316597  34.6044987 114.3111693
  93.0838898  34.6926232 114.7448421  99.2657252  36.2089084 113.1849031
  99.6740608  35.7671494 112.4403663  98.5434513  35.6341711 113.4383224
  95.6188322  31.1461690 110.5582588  96.4649517  31.5701104 110.7017237
  95.5586960  30.4895315 111.2521151  99.5886067  36.7690274 106.9401320
  98.9594929  36.9335988 106.2377388  99.2011729  37.1831884 107.7112284
 103.4675298  37.7044712 104.2945684 102.7826337  38.0843614 103.7442717
 103.5519148  38.3140039 105.0277631  98.7687767  28.8066059 112.2163761
  98.5248699  29.5608119 111.6798037  99.0447698  29.1851406 113.0511009
 100.7226230  35.3504671 110.8941027 100.9343125  35.9936431 110.2175408
 100.6755978  34.5166988 110.4262957  98.3252459  27.9622492 107.7977599
  97.4636938  28.2603745 108.0894337  98.3514894  28.1792891 106.8658632
  95.1414028  36.5064682 104.2051405  95.6052374  36.7852385 103.4156027
  94.8770827  35.6048127 104.0224496  92.0338110  36.0536164 107.1431168
  92.6039467  36.4823432 106.5048653  92.6246221  35.7718749 107.8415354
  94.0782915  32.6287835 101.0140970  94.7806958  33.0808878 101.4814896
  93.7463543  31.9871654 101.6420863  92.5263276  31.2199591 115.3892179
  91.8961937  31.9015872 115.6227576  92.4199364  31.1082673 114.4445318
  87.8208248  30.8871387 106.3158104  87.0307302  31.1428916 105.8398214
  88.3119496  31.7019725 106.4210144 101.8372058  38.2276627 109.0663384
 102.6589502  37.8256814 108.7846066 101.8334461  38.1244861 110.0179500
  89.7722994  31.2515967 103.2741580  88.9754157  31.3634661 103.7925076
  89.5448586  31.5902619 102.4082471  95.6028661  37.7760670 111.2224095
  95.6673094  38.2381077 112.0582267  94.8939585  37.1458035 111.3506405
  86.1045951  31.1401878 108.7473094  86.3553990  32.0248888 109.0130670
  86.6405500  30.9606479 107.9748186 109.9278051  34.5715375 105.4148356
 109.1741759  34.0022773 105.2592360 110.0625592  34.5378040 106.3618991
  95.3176679  39.4428777 101.0903075  95.1822354  40.2880313 101.5187923
  95.8586492  39.6448055 100.3269009  91.8044019  25.5220357 117.7517430
  91.4110964  24.9686556 118.4265075  92.6210159  25.8330936 118.1423948
  88.7706077  36.9604215 101.6631000  89.2830597  37.7547466 101.8136565
  89.4228789  36.2630506 101.5964602  90.5800961  40.0769972 103.7453753
  90.7567590  40.9987936 103.5574737  91.3757795  39.7628391 104.1748133
  94.7211980  26.9378236 115.3437687  95.4621693  27.5385389 115.2642149
  94.9529903  26.1955874 114.7855730  89.8653318  32.1234604 113.6215917
  89.7506833  31.2219861 113.9223016  89.0097836  32.3698300 113.2700733
  96.9445155  40.0652344 115.2203417  96.5009010  39.2788722 114.9024322
  97.6062369  40.2531494 114.5547308  91.7032277  41.5948145 109.7464096
  92.2539702  41.4665209 108.9741090  90.8643753  41.8943034 109.3958989
  99.0426394  40.3455144 113.2484819  99.0244869  41.1664025 112.7565088
  99.9646314  40.2209219 113.4734960  95.4999448  37.8599273 114.0908327
  96.0327785  37.0987561 113.8607635  94.9713529  37.5672925 114.8332481
  98.6669143  22.9659339 109.6201969  98.3233412  23.8560981 109.5441079
  99.0348105  22.7760997 108.7571554  86.7354993  35.2892870 102.4390571
  87.5730215  35.6989878 102.2224279  86.9133261  34.3492312 102.4090765
  98.6319425  32.9567950  98.1274404  98.1166049  33.7272555  98.3662791
  98.3596734  32.2833087  98.7507465  96.2166536  27.8017651 103.1859642
  95.3608133  27.4124502 103.0065281  96.6293488  27.8809612 102.3259428
  97.7465683  25.3363994 107.5851202  97.2430479  25.2994130 106.7719007
  98.0396290  26.2456737 107.6447859  93.9908569  25.4202724 106.5917384
  94.8561566  25.2245533 106.2323273  94.0586078  25.1913076 107.5186740
 103.6053700  35.7100305 100.0627577 102.8283142  35.3711465  99.6182739
 104.2845181  35.7152928  99.3882542  98.4205729  30.8295042  99.9534185
  98.1155864  31.1441192 100.8044328  99.3736171  30.9076462  99.9961518
  96.8652160  36.9885266 101.6027139  96.3373522  36.2538025 101.2900376
  96.3639663  37.7659942 101.3567107 101.8445006  35.1834286 106.7194185
 101.1868681  35.8733548 106.8074314 102.6485406  35.5730718 107.0628172
  91.5970888  27.6504932 103.9633750  92.1714640  27.4280114 103.2306943
  92.1841870  27.7193627 104.7162352 100.6550465  33.5378659 104.7698127
 101.1682347  34.1708651 105.2719837 101.3051689  32.9379854 104.4041487
  91.9240475  29.6809393  97.9829636  91.0877787  30.0184080  98.3038910
  91.7845245  29.5458373  97.0456773  93.8993556  24.5246181 102.6908820
  93.2457968  24.2095198 102.0665435  93.8574030  23.9021921 103.4168643
  95.0104761  34.8065476  94.6062112  94.1031822  34.5754729  94.8053261
  95.5075793  34.0103095  94.7936094  97.9172839  43.5162983  97.5258798
  97.2434538  43.8194680  98.1343756  98.3038661  44.3192064  97.1764255
  97.1331296  31.0128115 107.0156468  96.2153857  31.2343062 106.8578156
  97.5491440  31.0874425 106.1568175  97.9166344  32.4119530 102.1459148
  98.6638163  32.9240927 101.8366270  98.1857933  32.0903583 103.0063541
  96.1892994  34.9078071  99.1286102  95.2804213  34.6237104  99.2258572
  96.2188078  35.3277149  98.2689409 101.4212261  38.5184660 102.8977270
 100.9674589  37.6775570 102.9542460 100.7906228  39.1546059 103.2352050
 100.3645181  29.4476646 104.1277937  99.6267938  28.9354033 104.4588180
 100.6171955  29.0077028 103.3161214  99.8645201  40.3561157 103.8327088
 100.1568175  40.9166214 103.1139453 100.3743821  40.6489718 104.5880247
 100.4656808  22.2252898 104.7219706 100.7715685  21.3650262 104.4345621
 101.1909413  22.8170519 104.5218700  86.7581164  32.6283585 103.1101304
  86.5605564  32.0352946 102.3852371  86.2027828  32.3235795 103.8277243
  94.7377888  32.5206692 105.2295897  94.7926498  31.5680528 105.1538374
  93.9269090  32.6766131 105.7137196  95.8869082  36.4486815  96.4674181
  95.4488512  35.7322674  96.0079818  96.6279523  36.6762929  95.9059272
  92.6770248  31.1383751 102.9886276  91.8638114  31.4377922 103.3951468
  93.1729242  30.7439440 103.7060759  94.8278826  41.1341508 104.9220541
  94.7855005  41.3602354 103.9929073  95.7441525  40.9004883 105.0706342
  98.2744460  31.6025576 111.8201170  98.6293847  31.8297049 112.6795636
  98.9216591  31.9343953 111.1978426 104.0042197  34.7244012 102.5250499
 103.8660095  34.9145608 101.5971688 103.6478415  35.4863394 102.9818550
  92.1684323  28.7102107 108.6047511  92.8083702  28.5690866 107.9070475
  91.3361853  28.4236620 108.2286113 104.0311576  36.7920539 107.5361771
 104.4648083  36.6995828 108.3844825 104.7443157  36.7678039 106.8981787
  92.9444627  38.0104537 104.7182504  93.7385225  37.5154857 104.5165079
  92.2336319  37.4822400 104.3550209  97.7639471  40.3922633 109.0694871
  97.8176493  40.9613569 109.8372587  96.8954253  40.5624518 108.7048908
  89.2527390  32.1547619 100.7942256  88.3224978  32.0932074 101.0112219
  89.3484862  31.6323572  99.9978898  89.1712939  28.6802432 103.3820498
  89.4319756  29.5947765 103.2729659  89.9930112  28.2126874 103.5317111
  90.6437865  30.0940189 110.5519323  91.3160918  29.8857551 109.9031972
  89.8167651  29.8962275 110.1124555 104.8927126  36.8344239 110.0694656
 105.0863016  37.7390050 110.3153931 104.7927744  36.3751658 110.9033241
  96.5463437  26.7202130 112.5684983  95.8991352  27.4192080 112.4749460
  97.3164452  27.1538274 112.9361232  99.9542234  36.9850982 115.6435537
  99.8027741  36.7561534 114.7265620  99.9446914  37.9421583 115.6566882
  96.7227571  34.5582895 110.6281803  97.6519631  34.7094054 110.4550771
  96.3018601  34.6466916 109.7730450  95.5215903  38.5833559 108.3980341
  95.3826988  38.2152344 109.2706279  94.7330499  39.0981199 108.2264299
  96.1164055  43.6842656  99.7405877  96.2915810  43.2130699 100.5551500
  95.4296843  44.3108422  99.9687138  97.0721118  37.9615162 105.7869179
  96.7370950  37.9215932 106.6826828  96.5725063  37.2959878 105.3139589
  91.0465362  33.3682792 111.3121760  90.9085160  32.6363031 111.9133299
  91.9570285  33.2791692 111.0305948 100.0080309  35.3071196  96.0606238
  99.3909480  34.5818024  95.9639291  99.5396798  36.0680557  95.7173313
  93.6747662  33.0802751 110.8005439  94.3847281  32.4395943 110.7592058
  93.6316971  33.3315646 111.7231620 101.6634441  40.0170105 113.7212019
 101.6046987  39.3329325 113.0542602 102.0653959  40.7589095 113.2692645
  92.3876596  30.0667969 112.6201079  91.8513953  29.6158708 113.2722675
  91.7993305  30.2013878 111.8771543  90.6825140  46.8332018 106.5145738
  90.9221738  47.4650543 107.1924756  89.8394336  46.4820058 106.8011097
  91.7978855  29.5256621  95.1827543  90.9208322  29.4045421  94.8189789
  92.2736608  28.7342699  94.9306431 101.6651848  37.9809689 111.9525998
 100.7778627  37.6435610 112.0752397 102.2350399  37.2492720 112.1894764
  83.3180996  34.3133780 105.2769050  84.0052035  33.9995510 104.6890065
  83.1629124  35.2175145 105.0036301  88.1215718  29.2023977 109.7054073
  88.0373906  28.5949646 108.9704483  87.2998424  29.6932995 109.7063570
  95.1953002  42.6411141 108.9187242  95.1223173  43.4466112 109.4306546
  94.7530395  42.8403107 108.0935263  94.9842781  41.8782911 102.4290063
  94.2010303  42.4204591 102.5228288  95.6835527  42.3956891 102.8284304
  98.2939432  27.6877540 105.0724268  98.7908131  26.9347503 104.7525339
  97.5226413  27.7241857 104.5067478 106.1469189  33.3917906 106.7142560
 106.1359065  34.2742621 106.3436493 105.2786568  33.0389457 106.5197097
  97.6551685  42.5397975 111.0745400  98.3679658  43.1745440 111.0021302
  97.1641714  42.6361841 110.2585402  99.3769212  36.4449228 102.6462692
  98.4425491  36.5650690 102.4767396  99.5545881  35.5421694 102.3822702
  94.8774400  29.8294923 104.7995953  94.5072188  29.2765964 105.4876859
  95.3733493  29.2253057 104.2470953 102.7641764  32.2866547 103.1812726
 103.2302216  33.1194538 103.1073029 103.2149264  31.8211528 103.8857984
  92.7063599  40.2892418 111.8950971  93.4073058  40.9228901 112.0480365
  92.2358714  40.6307150 111.1346610 100.8317995  38.6310368 100.1798878
 101.1077839  38.5166963 101.0892752  99.9622493  38.2327853 100.1411051
 100.7358426  24.6547134 107.2203627  99.8221506  24.8851361 107.3885834
 101.1651528  24.7385578 108.0717660 100.5064885  32.8437026 109.7203521
  99.8536335  33.0912933 109.0655974 100.8845265  32.0301164 109.3865999
  97.4672059  42.8796719 103.8231692  97.6494453  42.0618375 104.2859444
  98.2905045  43.0964411 103.3856582  97.8014224  41.8064904 101.0846740
  98.3301991  41.2957359 100.4716902  98.0642444  41.4907434 101.9492273
  96.5552458  33.5856837 116.2069558  95.8793095  33.4850966 116.8771934
  97.3780092  33.4296051 116.6705556  88.3031317  39.8228773 108.8282074
  88.8884754  39.0772461 108.9609978  88.1056155  40.1332730 109.7118738
  91.1569972  42.8580021 103.8444516  90.4880347  43.3426148 103.3608556
  91.0182842  43.1049241 104.7587895  82.8948972  32.3934374 107.5486517
  82.9333071  31.8597964 108.3423635  82.3889264  31.8669579 106.9297494
  95.2975241  44.8923764 110.4427174  95.8493549  45.0555386 111.2076260
  95.6381434  45.4828202 109.7707199  90.2739734  27.2398914 111.0449059
  90.3381060  28.1013745 110.6326457  90.2106854  26.6272916 110.3121418
  89.7492006  29.3122047 114.6922093  90.3764045  28.9299124 115.3059618
  88.8919925  29.0936249 115.0577786 100.1486115  39.7185022 116.2975829
 100.6926019  40.3314980 115.8030784  99.5672960  40.2764600 116.8142842
  86.5257549  31.1198476 100.6240448  86.8210990  30.2109154 100.5707502
  85.6245585  31.0986215 100.3021451  98.4343628  42.8405740 107.4290857
  98.3094767  42.0395480 106.9201802  99.0922719  43.3351933 106.9404827
  90.0551796  29.1954472 106.6067997  89.3338382  29.8090440 106.4675470
  90.8445052  29.7312237 106.5284643 100.4978536  40.6414760 109.0570407
  99.5508872  40.5220111 108.9848733 100.8461309  39.7537258 109.1396668
  92.8578110  26.5308899 112.8808649  93.3812512  26.7771195 113.6434958
  92.6390443  27.3628934 112.4611786  88.2545391  28.8012573 100.7479773
  87.9258097  27.9209952 100.5654879  88.6084761  28.7460242 101.6356163
  97.5024970  40.4367476 105.2574759  97.3549932  39.5084184 105.4382329
  98.3278463  40.4587567 104.7731834  91.3687214  29.0885543 101.1155251
  91.7083286  29.6171464 100.3933859  91.8159334  29.4265949 101.8913818
 101.1059092  41.2596035 106.3439632 102.0305639  41.0538896 106.2064083
 100.9374395  41.0112436 107.2528973  94.0630655  27.4722594 110.5658319
  93.7227475  26.6730407 110.9678999  93.3569661  27.7724305 109.9935152
  94.7147127  24.5571906 109.0185642  95.5373196  24.0832385 108.8964532
  94.9585190  25.3362390 109.5184328  93.3555361  27.5860165  99.3148544
  94.0763724  27.9641418  98.8112261  92.7320665  28.3049042  99.4183522
  97.4986484  28.2905314 100.2506876  97.7150098  29.1729952  99.9495704
  97.0180551  27.8991527  99.5212518  92.2385705  31.2491027 106.8277621
  92.0930286  31.5631330 107.7201902  91.7610909  31.8675927 106.2748519
  94.0982088  28.2393575 106.8758510  94.0843657  27.3434668 106.5390808
  94.8154516  28.2464239 107.5096796  95.9508219  28.6730915 108.9211638
  95.6925997  29.5947986 108.9195968  95.4193259  28.2761350 109.6112102
 100.8954408  41.7781702 101.7001723 101.0691285  41.2128125 100.9475576
 101.3883299  42.5782597 101.5181213  86.7131368  33.7896371 109.7665282
  86.1684836  34.5656179 109.8985556  87.5910717  34.1367176 109.6084403
  93.5018984  27.1207955 102.1446080  93.6234895  26.1924601 102.3436968
  93.2121027  27.1346641 101.2324396  96.3710175  24.8062866 105.2812800
  96.3931871  24.8702199 104.3264780  96.7878234  23.9667374 105.4753306
 106.7493799  34.5418125 103.3192023 107.1924945  33.7925450 102.9211146
 105.8720309  34.5328262 102.9365755 101.8829580  41.0948467  98.7998621
 102.5780485  41.7155159  99.0185936 102.2252730  40.2443818  99.0750999
  87.4997389  32.9166268 112.6595439  86.7579125  33.0648903 113.2460069
  87.1790134  33.1774533 111.7962188 103.7821003  38.5448172 100.3285952
 104.3072327  38.8835445  99.6035272 103.6943356  37.6095188 100.1449087
  95.4441052  42.4582246 112.4575829  95.7528178  42.2131393 113.3298528
  96.2416534  42.6628884 111.9694699  95.4661664  44.6120156 104.6881205
  95.0266654  44.1196534 105.3814062  96.2169781  44.0693123 104.4473281
  87.9454003  40.8031696 104.6905833  88.7712023  40.5035468 104.3104477
  87.5948055  40.0339319 105.1395622  92.9135536  40.1558165 106.7603507
  92.2915546  39.4928870 106.4605735  93.5840403  40.1819297 106.0777155
  86.1462608  38.7218023 105.6494767  85.3094516  38.2940197 105.4678768
  86.1186254  38.9150466 106.5865558  92.9860064  28.6339953 116.3536013
  93.0348219  29.5102075 115.9713783  93.5282578  28.0917346 115.7807656
 103.4714909  39.1781076 115.6337150 102.6810453  39.1605215 115.0941650
 103.2348264  39.7169370 116.3886187 103.5912784  36.0273542 112.9469879
 103.6410789  35.8623550 113.8885401 103.4826708  35.1600801 112.5567759
  92.4749043  38.7062088 100.2361968  92.6237164  39.3897552  99.5828640
  93.2815487  38.6867178 100.7511423 100.8816547  32.0104470 114.2629185
 101.7826410  31.8710935 113.9713183 100.9564521  32.1758925 115.2027363
  95.2159352  29.3871325 113.1082372  94.3462662  29.6804891 112.8364960
  95.4518833  29.9711770 113.8289635 105.0930981  38.4470484 113.1911900
 104.8015790  38.8100464 114.0275361 104.4803113  37.7337492 113.0125232
 106.2926664  36.0123364 105.7114470 107.1273555  36.4513168 105.8752031
 106.4285792  35.5362017 104.8922716 103.3418170  33.5703098 111.6591958
 103.8172291  33.7630745 110.8510810 102.4183735  33.6262284 111.4135342
  90.2301676  34.7327266 101.2423036  89.9847718  33.8289596 101.4403247
  90.3997591  34.7344416 100.3002514  97.9198386  25.6050942 110.6247792
  98.4380330  26.3411969 110.2994281  97.5653519  25.9114935 111.4594551
  89.4997324  30.4655623  98.7409198  88.8066569  30.5399978  98.0849234
  89.2549076  29.7015967  99.2630715  98.1710980  22.0251225 106.1448689
  98.4512734  21.3574414 106.7709115  98.9561587  22.2180320 105.6323352
  95.9744449  41.2010218  97.7073715  95.4018416  41.8200406  97.2544187
  96.5477242  41.7509580  98.2413637 102.0419839  30.4468859 109.8920264
 102.9937261  30.5466956 109.9132488 101.8723289  29.6547127 110.4018348
 100.0634218  27.5324442 110.0779665  99.4684150  27.8129454 109.3826153
  99.7783915  28.0218343 110.8496406  99.1941708  41.4847369  98.8382297
 100.1272382  41.4192930  99.0415173  99.1064921  42.3203635  98.3796830
 101.8229725  40.8013239  95.7986245 101.7443357  40.4673102  96.6922003
 102.6439392  41.2935007  95.7977717 104.5207916  33.6674978 109.0062563
 104.4884236  32.7290979 109.1922247 105.1308540  33.7459015 108.2728388
  96.3591247  32.5371031  95.0489767  97.3050352  32.4077239  95.1178185
  95.9805492  31.7985693  95.5259196 104.6702405  30.4586022 109.0520847
 104.1541453  29.6744478 108.8650775 105.5542353  30.1304738 109.2167366
 102.3313132  24.2027037 105.0116659 102.1337953  23.8942125 105.8959991
 102.9412837  24.9288676 105.1414589 110.3384466  34.7290985 108.1468600
 111.0687855  34.4676273 108.7076304 109.7291412  33.9919707 108.1870668
 108.4199763  32.8698848 108.7443051 107.6932927  32.7354813 108.1359543
 108.0047050  33.1775676 109.5499769  96.2429940  36.5888777 116.5090424
  97.1632949  36.7667376 116.7030471  96.2079523  35.6444823 116.3570124
  94.5434164  30.4621008  94.9844653  93.6365620  30.1654120  95.0607366
  94.8210145  30.1650826  94.1178939  85.4612105  31.7827371 105.4343699
  85.1414889  30.9292679 105.1418073  84.9145533  31.9975949 106.1901666
  89.2392012  34.4989812 109.1513206  89.4578022  35.4306920 109.1701239
  89.6517786  34.1397786 109.9368009  96.1596230  25.0057897 101.1388894
  95.3496958  24.6604982 101.5144140  96.8480647  24.6965441 101.7276506
  98.0886778  24.0835944 102.7613191  98.6417817  24.5031397 103.4203214
  98.3256865  23.1571692 102.8036147  94.1119878  30.0723018 118.5415955
  94.0116604  31.0217375 118.4728046  93.8941420  29.7441257 117.6692025
  93.3132949  27.3207943  95.1256632  94.1752113  27.6462841  95.3852449
  93.4983293  26.5339439  94.6129698  85.3300365  35.4030282 107.4036821
  84.6363836  34.9884235 106.8906775  86.0773356  35.4450819 106.8070240
 101.4665585  26.1936469 102.2691855 100.8864254  26.8521273 101.8869907
 101.2001518  25.3713814 101.8579272  99.9169152  25.5941527 104.4713175
 100.4168930  25.7058061 103.6627494 100.5604760  25.2902580 105.1113984
  93.9751148  33.5020157 117.3581016  93.4918229  34.3020517 117.5644905
  94.0612087  33.5128101 116.4048460  87.2437107  35.3348536 105.2802836
  87.2207795  35.4336224 104.3284719  87.5537744  36.1813687 105.6020002
  89.9024485  37.3924691 109.3949450  90.8567739  37.3608634 109.3279382
  89.7037009  36.9315315 110.2099676  90.4923867  35.9625807 111.9620248
  91.3116756  36.4569886 111.9855085  90.7660675  35.0457775 111.9337815
 100.2490463  28.3536560 101.3248203  99.3616318  28.6386210 101.1068398
 100.6644453  28.1930323 100.4775480 103.6005000  28.3783081 105.0402542
 104.3765390  28.8679533 105.3127159 102.8753134  28.8041135 105.4974412
 106.0377558  29.0910700 106.0976483 106.6322049  28.8506436 105.3869791
 106.1104142  28.3717830 106.7250019  88.2574714  42.9344311 106.4119648
  88.1229182  42.1744712 105.8457646  87.8406776  43.6585211 105.9448437
  99.3933677  38.1181234  95.4196223 100.0969527  38.3231237  96.0353879
  98.6696326  38.6857996  95.6845307 100.2231487  33.8691096 101.5398493
 100.1666689  34.3259647 100.7006126 100.7759830  33.1081780 101.3621336
 104.0336293  29.6580827 102.3648613 103.7773227  29.2577463 103.1956820
 103.4089161  30.3724621 102.2398752 108.3448631  32.3976901 104.8719904
 107.7848189  32.4670090 105.6451466 107.7392134  32.2217885 104.1519400
  91.4143840  43.8313628 106.6238090  91.2976224  44.7759060 106.5216781
  90.5936286  43.5287189 107.0123890 101.3020374  38.5563763  97.4694683
 102.1365978  38.1244962  97.2872158 101.1404717  38.3845777  98.3971578
 100.9566266  35.0595877  98.8351022 100.9015070  34.8940148  97.8939467
 100.3312322  35.7671910  98.9913212  85.7458781  30.2963941 112.6612445
  86.3917645  29.7862895 113.1499670  85.5375933  31.0332623 113.2355870
  98.2712174  37.3644789 118.1604585  99.1403333  37.5385441 117.7991220
  97.7918925  38.1839205 118.0380315  94.2662392  24.5603986  98.4136341
  94.2541062  25.5045826  98.5704612  95.1585814  24.3774131  98.1195802
  92.4398354  44.4841890 109.8394019  93.3425601  44.5165500 110.1560514
  92.2135724  43.5542341 109.8540355  94.1951956  43.2372876 106.5004098
  93.2447587  43.2374738 106.3868470  94.4984442  42.4905611 105.9840132
  98.0814511  21.1546762 102.6682278  97.3146907  20.6005249 102.8138960
  98.4925216  21.2268631 103.5296429  90.0856272  27.4431558 116.7587459
  90.9487734  27.0868363 116.9690783  89.5121683  27.1045453 117.4462863
 109.9304649  49.0733415 107.5649860 110.5683059  48.9540162 106.8613200
 109.8125492  50.0214259 107.6237812 106.7394356  49.0260843 107.5011385
 106.4012867  48.9101907 106.6131919 107.6084124  48.6252008 107.4812391
 102.5981171  50.8796319 103.4908276 102.0346037  50.7886256 102.7224563
 102.4833566  50.0596224 103.9710768 107.2214139  50.1795694 113.4597590
 107.2102779  49.7848493 112.5878094 107.3834778  49.4461767 114.0531362
 100.1445603  52.3747511 106.3292496 100.9366895  52.0338335 105.9138795
 100.3842253  52.4842486 107.2494649 108.1780730  54.5467287  98.8022740
 107.5268710  55.1321367  98.4156754 108.9725093  55.0773482  98.8617778
 102.1036357  51.6356424  99.2009875 102.8767233  51.0885411  99.0622751
 102.4561756  52.5000673  99.4124336 103.9421400  52.9632806 112.4076774
 103.6511266  53.8678437 112.2923440 104.5778384  53.0049334 113.1220844
 104.8677607  50.3409655 108.9978134 105.4641179  50.1165677 108.2835097
 104.9252578  49.5994400 109.6003582 104.4402635  47.7949090  96.8328325
 104.6928156  47.2730611  96.0711788 103.5027194  47.6315236  96.9355008
 109.4845918  46.7984868 104.6403068 110.2709007  46.3804292 104.2893485
 109.7484622  47.7030961 104.8084716 109.6555995  52.2357719  99.3391725
 109.0201828  52.3092345 100.0512629 109.3253402  52.8251318  98.6610804
 114.8854345  46.7360102 105.5436046 115.6179517  46.1659318 105.7773876
 114.1293701  46.3481702 105.9842552 104.1598924  49.6977196  99.0352700
 104.0435182  49.0222099  99.7033784 104.2701184  49.2109570  98.2184853
 106.5030465  49.1587343 102.7399389 106.1388672  48.6317964 103.4512310
 107.3597581  48.7685812 102.5665874 112.4079765  40.4481676 110.0030655
 112.0763090  41.3177087 109.7791870 111.8125379  40.1317960 110.6824685
 106.1435952  44.1877243  97.7360737 106.3110354  45.0557479  98.1031208
 105.9533121  44.3504525  96.8122027 108.9011285  52.6494222 109.4026568
 108.6012008  53.5519261 109.2942375 108.5562344  52.3826405 110.2547721
 102.3523766  49.1008019 105.4363272 101.4274263  48.9684233 105.6440964
 102.6008180  49.8802238 105.9333215 112.3008429  45.1676762 107.0824005
 111.3925306  45.0992170 106.7882766 112.2496024  45.6448707 107.9105831
 106.1225173  46.6434900  98.7207404 106.0024798  47.0891951  99.5592885
 105.4277761  46.9920218  98.1620942  99.7132577  48.7441292 106.2707061
  99.8424959  48.9975771 107.1846473  99.0330029  49.3369000 105.9511716
 103.8832065  59.4138542 102.3697536 103.8056094  60.3646367 102.4486016
 103.2793708  59.0684415 103.0272462 106.3749294  46.5866408 115.0258902
 105.5982629  47.1460328 115.0161767 107.0139858  47.0723191 115.5473773
 114.1670075  43.3693200 108.8601879 113.5244455  43.6625733 108.2141674
 113.6625004  43.2546121 109.6655076 111.8210239  47.1156374  99.5487738
 112.7328095  47.3483760  99.3735436 111.3119886  47.6993418  98.9862817
 104.6295667  49.3951861 114.5876869 105.3710351  49.9336905 114.3111693
 103.9232652  50.0218150 114.7448421 110.1051006  51.5381001 113.1849031
 110.5134362  51.0963412 112.4403663 109.3828268  50.9633629 113.4383224
 106.4582076  46.4753608 110.5582588 107.3043272  46.8993022 110.7017237
 106.3980714  45.8187232 111.2521151 110.4279821  52.0982192 106.9401320
 109.7988683  52.2627906 106.2377388 110.0405483  52.5123802 107.7112284
 114.3069053  53.0336630 104.2945684 113.6220091  53.4135531 103.7442717
 114.3912902  53.6431956 105.0277631 109.6081522  44.1357976 112.2163761
 109.3642454  44.8900037 111.6798037 109.8841452  44.5143324 113.0511009
 111.5619985  50.6796589 110.8941027 111.7736880  51.3228349 110.2175408
 111.5149733  49.8458905 110.4262957 109.1646214  43.2914409 107.7977599
 108.3030693  43.5895663 108.0894337 109.1908648  43.5084808 106.8658632
 105.9807783  51.8356600 104.2051405 106.4446128  52.1144303 103.4156027
 105.7164581  50.9340045 104.0224496 102.8731864  51.3828082 107.1431168
 103.4433221  51.8115350 106.5048653 103.4639976  51.1010666 107.8415354
 104.9176669  47.9579752 101.0140970 105.6200712  48.4100796 101.4814896
 104.5857297  47.3163571 101.6420863 103.3657031  46.5491509 115.3892179
 102.7355691  47.2307790 115.6227576 103.2593118  46.4374591 114.4445318
  98.6602003  46.2163305 106.3158104  97.8701057  46.4720834 105.8398214
  99.1513250  47.0311643 106.4210144 112.6765813  53.5568544 109.0663384
 113.4983256  53.1548732 108.7846066 112.6728215  53.4536778 110.0179500
 100.6116748  46.5807884 103.2741580  99.8147912  46.6926579 103.7925076
 100.3842341  46.9194537 102.4082471 106.4422416  53.1052588 111.2224095
 106.5066848  53.5672995 112.0582267 105.7333340  52.4749952 111.3506405
  96.9439706  46.4693796 108.7473094  97.1947744  47.3540805 109.0130670
  97.4799254  46.2898397 107.9748186 120.7671806  49.9007293 105.4148356
 120.0135514  49.3314691 105.2592360 120.9019347  49.8669957 106.3618991
 106.1570434  54.7720695 101.0903075 106.0216108  55.6172231 101.5187923
 106.6980246  54.9739973 100.3269009 102.6437773  40.8512275 117.7517430
 102.2504719  40.2978473 118.4265075 103.4603914  41.1622853 118.1423948
  99.6099831  52.2896133 101.6631000 100.1224352  53.0839383 101.8136565
 100.2622544  51.5922424 101.5964602 101.4194716  55.4061889 103.7453753
 101.5961344  56.3279854 103.5574737 102.2151549  55.0920309 104.1748133
 105.5605734  42.2670154 115.3437687 106.3015448  42.8677307 115.2642149
 105.7923657  41.5247792 114.7855730 100.7047072  47.4526521 113.6215917
 100.5900587  46.5511778 113.9223016  99.8491590  47.6990218 113.2700733
 107.7838910  55.3944262 115.2203417 107.3402764  54.6080640 114.9024322
 108.4456124  55.5823412 114.5547308 102.5426031  56.9240063 109.7464096
 103.0933456  56.7957127 108.9741090 101.7037507  57.2234952 109.3958989
 109.8820148  55.6747061 113.2484819 109.8638623  56.4955943 112.7565088
 110.8040068  55.5501137 113.4734960 106.3393202  53.1891191 114.0908327
 106.8721539  52.4279479 113.8607635 105.8107283  52.8964843 114.8332481
 109.5062897  38.2951257 109.6201969 109.1627167  39.1852899 109.5441079
 109.8741860  38.1052915 108.7571554  97.5748748  50.6184787 102.4390571
  98.4123970  51.0281796 102.2224279  97.7527015  49.6784230 102.4090765
 109.4713180  48.2859868  98.1274404 108.9559803  49.0564473  98.3662791
 109.1990488  47.6125004  98.7507465 107.0560291  43.1309569 103.1859642
 106.2001887  42.7416419 103.0065281 107.4687243  43.2101530 102.3259428
 108.5859438  40.6655912 107.5851202 108.0824233  40.6286047 106.7719007
 108.8790044  41.5748655 107.6447859 104.8302323  40.7494642 106.5917384
 105.6955320  40.5537450 106.2323273 104.8979832  40.5204994 107.5186740
 114.4447454  51.0392223 100.0627577 113.6676897  50.7003382  99.6182739
 115.1238935  51.0444846  99.3882542 109.2599483  46.1586960  99.9534185
 108.9549619  46.4733109 100.8044328 110.2129925  46.2368380  99.9961518
 107.7045915  52.3177183 101.6027139 107.1767276  51.5829943 101.2900376
 107.2033418  53.0951860 101.3567107 112.6838761  50.5126204 106.7194185
 112.0262435  51.2025465 106.8074314 113.4879160  50.9022636 107.0628172
 102.4364643  42.9796850 103.9633750 103.0108394  42.7572031 103.2306943
 103.0235625  43.0485544 104.7162352 111.4944220  48.8670577 104.7698127
 112.0076101  49.5000568 105.2719837 112.1445444  48.2671772 104.4041487
 102.7634230  45.0101311  97.9829636 101.9271542  45.3475997  98.3038910
 102.6238999  44.8750291  97.0456773 104.7387310  39.8538099 102.6908820
 104.0851723  39.5387116 102.0665435 104.6967784  39.2313839 103.4168643
 105.8498515  50.1357394  94.6062112 104.9425577  49.9046647  94.8053261
 106.3469547  49.3395013  94.7936094 108.7566594  58.8454901  97.5258798
 108.0828293  59.1486598  98.1343756 109.1432416  59.6483981  97.1764255
 107.9725051  46.3420032 107.0156468 107.0547612  46.5634979 106.8578156
 108.3885194  46.4166343 106.1568175 108.7560098  47.7411448 102.1459148
 109.5031917  48.2532845 101.8366270 109.0251688  47.4195501 103.0063541
 107.0286749  50.2369989  99.1286102 106.1197968  49.9529021  99.2258572
 107.0581832  50.6569067  98.2689409 112.2606016  53.8476578 102.8977270
 111.8068343  53.0067488 102.9542460 111.6299983  54.4837976 103.2352050
 111.2038936  44.7768564 104.1277937 110.4661692  44.2645950 104.4588180
 111.4565709  44.3368946 103.3161214 110.7038955  55.6853075 103.8327088
 110.9961930  56.2458132 103.1139453 111.2137576  55.9781636 104.5880247
 111.3050563  37.5544816 104.7219706 111.6109440  36.6942180 104.4345621
 112.0303168  38.1462436 104.5218700  97.5974919  47.9575503 103.1101304
  97.3999319  47.3644863 102.3852371  97.0421583  47.6527713 103.8277243
 105.5771643  47.8498609 105.2295897 105.6320252  46.8972446 105.1538374
 104.7662845  48.0058048 105.7137196 106.7262836  51.7778732  96.4674181
 106.2882266  51.0614591  96.0079818 107.4673277  52.0054847  95.9059272
 103.5164002  46.4675669 102.9886276 102.7031868  46.7669839 103.3951468
 104.0122997  46.0731358 103.7060759 105.6672580  56.4633426 104.9220541
 105.6248759  56.6894272 103.9929073 106.5835279  56.2296800 105.0706342
 109.1138214  46.9317493 111.8201170 109.4687602  47.1588967 112.6795636
 109.7610345  47.2635870 111.1978426 114.8435951  50.0535929 102.5250499
 114.7053850  50.2437525 101.5971688 114.4872170  50.8155312 102.9818550
 103.0078077  44.0394024 108.6047511 103.6477457  43.8982784 107.9070475
 102.1755608  43.7528538 108.2286113 114.8705331  52.1212456 107.5361771
 115.3041837  52.0287745 108.3844825 115.5836911  52.0969957 106.8981787
 103.7838381  53.3396455 104.7182504 104.5778980  52.8446775 104.5165079
 103.0730074  52.8114318 104.3550209 108.6033226  55.7214550 109.0694871
 108.6570248  56.2905487 109.8372587 107.7348007  55.8916435 108.7048908
 100.0921145  47.4839537 100.7942256  99.1618733  47.4223992 101.0112219
 100.1878617  46.9615489  99.9978898 100.0106694  44.0094349 103.3820498
 100.2713511  44.9239683 103.2729659 100.8323866  43.5418792 103.5317111
 101.4831619  45.4232107 110.5519323 102.1554672  45.2149469 109.9031972
 100.6561406  45.2254193 110.1124555 115.7320880  52.1636157 110.0694656
 115.9256770  53.0681967 110.3153931 115.6321498  51.7043576 110.9033241
 107.3857191  42.0494048 112.5684983 106.7385106  42.7483997 112.4749460
 108.1558206  42.4830191 112.9361232 110.7935989  52.3142900 115.6435537
 110.6421495  52.0853451 114.7265620 110.7840668  53.2713501 115.6566882
 107.5621325  49.8874812 110.6281803 108.4913385  50.0385972 110.4550771
 107.1412355  49.9758833 109.7730450 106.3609657  53.9125477 108.3980341
 106.2220743  53.5444261 109.2706279 105.5724253  54.4273116 108.2264299
 106.9557809  59.0134573  99.7405877 107.1309565  58.5422617 100.5551500
 106.2690597  59.6400340  99.9687138 107.9114872  53.2907080 105.7869179
 107.5764705  53.2507850 106.6826828 107.4118818  52.6251795 105.3139589
 101.8859116  48.6974710 111.3121760 101.7478914  47.9654948 111.9133299
 102.7964040  48.6083610 111.0305948 110.8474064  50.6363114  96.0606238
 110.2303235  49.9109942  95.9639291 110.3790552  51.3972474  95.7173313
 104.5141417  48.4094669 110.8005439 105.2241035  47.7687861 110.7592058
 104.4710725  48.6607564 111.7231620 112.5028196  55.3462022 113.7212019
 112.4440742  54.6621242 113.0542602 112.9047714  56.0881012 113.2692645
 103.2270351  45.3959887 112.6201079 102.6907708  44.9450625 113.2722675
 102.6387059  45.5305796 111.8771543 101.5218894  62.1623936 106.5145738
 101.7615493  62.7942460 107.1924756 100.6788091  61.8111976 106.8011097
 102.6372610  44.8548538  95.1827543 101.7602076  44.7337339  94.8189789
 103.1130363  44.0634617  94.9306431 112.5045603  53.3101606 111.9525998
 111.6172382  52.9727528 112.0752397 113.0744154  52.5784637 112.1894764
  94.1574750  49.6425698 105.2769050  94.8445790  49.3287428 104.6890065
  94.0022879  50.5467063 105.0036301  98.9609472  44.5315894 109.7054073
  98.8767661  43.9241564 108.9704483  98.1392179  45.0224913 109.7063570
 106.0346756  57.9703059 108.9187242 105.9616928  58.7758030 109.4306546
 105.5924149  58.1695024 108.0935263 105.8236536  57.2074829 102.4290063
 105.0404058  57.7496509 102.5228288 106.5229281  57.7248808 102.8284304
 109.1333186  43.0169458 105.0724268 109.6301886  42.2639420 104.7525339
 108.3620168  43.0533775 104.5067478 116.9862943  48.7209824 106.7142560
 116.9752820  49.6034539 106.3436493 116.1180323  48.3681374 106.5197097
 108.4945440  57.8689893 111.0745400 109.2073412  58.5037357 111.0021302
 108.0035468  57.9653759 110.2585402 110.2162967  51.7741145 102.6462692
 109.2819245  51.8942608 102.4767396 110.3939635  50.8713612 102.3822702
 105.7168155  45.1586841 104.7995953 105.3465942  44.6057881 105.4876859
 106.2127247  44.5544974 104.2470953 113.6035518  47.6158465 103.1812726
 114.0695970  48.4486456 103.1073029 114.0543019  47.1503446 103.8857984
 103.5457353  55.6184336 111.8950971 104.2466813  56.2520819 112.0480365
 103.0752468  55.9599068 111.1346610 111.6711749  53.9602286 100.1798878
 111.9471593  53.8458880 101.0892752 110.8016248  53.5619771 100.1411051
 111.5752181  39.9839052 107.2203627 110.6615261  40.2143278 107.3885834
 112.0045282  40.0677496 108.0717660 111.3458639  48.1728943 109.7203521
 110.6930090  48.4204851 109.0655974 111.7239019  47.3593082 109.3865999
 108.3065813  58.2088637 103.8231692 108.4888208  57.3910293 104.2859444
 109.1298799  58.4256329 103.3856582 108.6407979  57.1356822 101.0846740
 109.1695745  56.6249276 100.4716902 108.9036198  56.8199352 101.9492273
 107.3946212  48.9148755 116.2069558 106.7186849  48.8142884 116.8771934
 108.2173846  48.7587968 116.6705556  99.1425071  55.1520691 108.8282074
  99.7278508  54.4064379 108.9609978  98.9449910  55.4624648 109.7118738
 101.9963727  58.1871938 103.8444516 101.3274102  58.6718066 103.3608556
 101.8576596  58.4341159 104.7587895  93.7342726  47.7226291 107.5486517
  93.7726826  47.1889882 108.3423635  93.2283019  47.1961497 106.9297494
 106.1368995  60.2215682 110.4427174 106.6887303  60.3847303 111.2076260
 106.4775189  60.8120120 109.7707199 101.1133488  42.5690832 111.0449059
 101.1774815  43.4305663 110.6326457 101.0500609  41.9564833 110.3121418
 100.5885761  44.6413964 114.6922093 101.2157800  44.2591042 115.3059618
  99.7313680  44.4228166 115.0577786 110.9879870  55.0476940 116.2975829
 111.5319773  55.6606898 115.8030784 110.4066714  55.6056518 116.8142842
  97.3651304  46.4490393 100.6240448  97.6604745  45.5401072 100.5707502
  96.4639339  46.4278133 100.3021451 109.2737382  58.1697658 107.4290857
 109.1488522  57.3687397 106.9201802 109.9316474  58.6643851 106.9404827
 100.8945551  44.5246390 106.6067997 100.1732136  45.1382358 106.4675470
 101.6838806  45.0604155 106.5284643 111.3372291  55.9706678 109.0570407
 110.3902626  55.8512029 108.9848733 111.6855064  55.0829176 109.1396668
 103.6971864  41.8600817 112.8808649 104.2206266  42.1063113 113.6434958
 103.4784197  42.6920851 112.4611786  99.0939145  44.1304491 100.7479773
  98.7651851  43.2501870 100.5654879  99.4478516  44.0752160 101.6356163
 108.3418724  55.7659394 105.2574759 108.1943687  54.8376101 105.4382329
 109.1672218  55.7879485 104.7731834 102.2080968  44.4177461 101.1155251
 102.5477041  44.9463382 100.3933859 102.6553089  44.7557867 101.8913818
 111.9452846  56.5887953 106.3439632 112.8699393  56.3830814 106.2064083
 111.7768149  56.3404354 107.2528973 104.9024409  42.8014512 110.5658319
 104.5621230  42.0022325 110.9678999 104.1963416  43.1016222 109.9935152
 105.5540881  39.8863824 109.0185642 106.3766950  39.4124302 108.8964532
 105.7978945  40.6654308 109.5184328 104.1949116  42.9152082  99.3148544
 104.9157478  43.2933335  98.8112261 103.5714420  43.6340959  99.4183522
 108.3380238  43.6197231 100.2506876 108.5543853  44.5021869  99.9495704
 107.8574306  43.2283445  99.5212518 103.0779460  46.5782945 106.8277621
 102.9324041  46.8923248 107.7201902 102.6004663  47.1967845 106.2748519
 104.9375843  43.5685493 106.8758510 104.9237411  42.6726586 106.5390808
 105.6548271  43.5756156 107.5096796 106.7901973  44.0022833 108.9211638
 106.5319751  44.9239904 108.9195968 106.2587014  43.6053267 109.6112102
 111.7348162  57.1073620 101.7001723 111.9085040  56.5420042 100.9475576
 112.2277053  57.9074515 101.5181213  97.5525122  49.1188289 109.7665282
  97.0078590  49.8948097 109.8985556  98.4304472  49.4659094 109.6084403
 104.3412739  42.4499873 102.1446080 104.4628650  41.5216519 102.3436968
 104.0514781  42.4638559 101.2324396 107.2103929  40.1354783 105.2812800
 107.2325626  40.1994116 104.3264780 107.6271988  39.2959292 105.4753306
 117.5887553  49.8710043 103.3192023 118.0318699  49.1217368 102.9211146
 116.7114064  49.8620179 102.9365755 112.7223335  56.4240384  98.7998621
 113.4174239  57.0447077  99.0185936 113.0646485  55.5735736  99.0750999
  98.3391144  48.2458185 112.6595439  97.5972880  48.3940821 113.2460069
  98.0183888  48.5066451 111.7962188 114.6214758  53.8740090 100.3285952
 115.1466082  54.2127363  99.6035272 114.5337110  52.9387105 100.1449087
 106.2834807  57.7874164 112.4575829 106.5921933  57.5423310 113.3298528
 107.0810289  57.9920802 111.9694699 106.3055419  59.9412073 104.6881205
 105.8660409  59.4488452 105.3814062 107.0563536  59.3985041 104.4473281
  98.7847758  56.1323614 104.6905833  99.6105777  55.8327386 104.3104477
  98.4341810  55.3631237 105.1395622 103.7529291  55.4850082 106.7603507
 103.1309300  54.8220787 106.4605735 104.4234158  55.5111214 106.0777155
  96.9856363  54.0509941 105.6494767  96.1488271  53.6232115 105.4678768
  96.9580008  54.2442384 106.5865558 103.8253818  43.9631870 116.3536013
 103.8741974  44.8393993 115.9713783 104.3676332  43.4209263 115.7807656
 114.3108664  54.5072994 115.6337150 113.5204208  54.4897132 115.0941650
 114.0742018  55.0461287 116.3886187 114.4306539  51.3565460 112.9469879
 114.4804544  51.1915467 113.8885401 114.3220462  50.4892719 112.5567759
 103.3142798  54.0354006 100.2361968 103.4630918  54.7189470  99.5828640
 104.1209241  54.0159096 100.7511423 111.7210301  47.3396388 114.2629185
 112.6220164  47.2002853 113.9713183 111.7958276  47.5050843 115.2027363
 106.0553107  44.7163243 113.1082372 105.1856416  45.0096809 112.8364960
 106.2912587  45.3003688 113.8289635 115.9324736  53.7762401 113.1911900
 115.6409544  54.1392382 114.0275361 115.3196867  53.0629410 113.0125232
 117.1320418  51.3415281 105.7114470 117.9667309  51.7805085 105.8752031
 117.2679547  50.8653934 104.8922716 114.1811924  48.8995016 111.6591958
 114.6566046  49.0922662 110.8510810 113.2577489  48.9554202 111.4135342
 101.0695431  50.0619183 101.2423036 100.8241473  49.1581513 101.4403247
 101.2391345  50.0636334 100.3002514 108.7592140  40.9342860 110.6247792
 109.2774084  41.6703887 110.2994281 108.4047273  41.2406853 111.4594551
 100.3391078  45.7947541  98.7409198  99.6460323  45.8691896  98.0849234
 100.0942830  45.0307884  99.2630715 109.0104735  37.3543142 106.1448689
 109.2906488  36.6866331 106.7709115 109.7955342  37.5472238 105.6323352
 106.8138203  56.5302136  97.7073715 106.2412170  57.1492323  97.2544187
 107.3870997  57.0801498  98.2413637 112.8813593  45.7760776 109.8920264
 113.8331016  45.8758874 109.9132488 112.7117043  44.9839045 110.4018348
 110.9027972  42.8616359 110.0779665 110.3077905  43.1421372 109.3826153
 110.6177669  43.3510260 110.8496406 110.0335463  56.8139286  98.8382297
 110.9666136  56.7484848  99.0415173 109.9458676  57.6495553  98.3796830
 112.6623480  56.1305157  95.7986245 112.5837111  55.7965020  96.6922003
 113.4833146  56.6226924  95.7977717 115.3601671  48.9966896 109.0062563
 115.3277991  48.0582897 109.1922247 115.9702294  49.0750933 108.2728388
 107.1985002  47.8662949  95.0489767 108.1444106  47.7369157  95.1178185
 106.8199247  47.1277611  95.5259196 115.5096159  45.7877939 109.0520847
 114.9935208  45.0036396 108.8650775 116.3936108  45.4596656 109.2167366
 113.1706886  39.5318955 105.0116659 112.9731707  39.2234043 105.8959991
 113.7806592  40.2580594 105.1414589 121.1778221  50.0582903 108.1468600
 121.9081609  49.7968191 108.7076304 120.5685166  49.3211625 108.1870668
 119.2593518  48.1990765 108.7443051 118.5326681  48.0646730 108.1359543
 118.8440805  48.5067594 109.5499769 107.0823694  51.9180695 116.5090424
 108.0026704  52.0959294 116.7030471 107.0473277  50.9736740 116.3570124
 105.3827919  45.7912925  94.9844653 104.4759374  45.4946038  95.0607366
 105.6603900  45.4942743  94.1178939  96.3005859  47.1119289 105.4343699
  95.9808644  46.2584597 105.1418073  95.7539287  47.3267867 106.1901666
 100.0785767  49.8281730 109.1513206 100.2971777  50.7598837 109.1701239
 100.4911541  49.4689704 109.9368009 106.9989985  40.3349815 101.1388894
 106.1890713  39.9896900 101.5144140 107.6874401  40.0257359 101.7276506
 108.9280533  39.4127862 102.7613191 109.4811571  39.8323315 103.4203214
 109.1650619  38.4863610 102.8036147 104.9513632  45.4014935 118.5415955
 104.8510359  46.3509292 118.4728046 104.7335174  45.0733174 117.6692025
 104.1526703  42.6499860  95.1256632 105.0145867  42.9754759  95.3852449
 104.3377048  41.8631356  94.6129698  96.1694119  50.7322200 107.4036821
  95.4757591  50.3176153 106.8906775  96.9167110  50.7742737 106.8070240
 112.3059340  41.5228387 102.2691855 111.7258009  42.1813191 101.8869907
 112.0395273  40.7005732 101.8579272 110.7562906  40.9233445 104.4713175
 111.2562685  41.0349979 103.6627494 111.3998514  40.6194497 105.1113984
 104.8144902  48.8312074 117.3581016 104.3311984  49.6312434 117.5644905
 104.9005841  48.8420019 116.4048460  98.0830862  50.6640454 105.2802836
  98.0601550  50.7628141 104.3284719  98.3931498  51.5105605 105.6020002
 100.7418240  52.7216609 109.3949450 101.6961493  52.6900551 109.3279382
 100.5430763  52.2607233 110.2099676 101.3317622  51.2917725 111.9620248
 102.1510511  51.7861804 111.9855085 101.6054429  50.3749693 111.9337815
 111.0884218  43.6828477 101.3248203 110.2010073  43.9678128 101.1068398
 111.5038207  43.5222241 100.4775480 114.4398754  43.7074998 105.0402542
 115.2159144  44.1971451 105.3127159 113.7146888  44.1333052 105.4974412
 116.8771313  44.4202617 106.0976483 117.4715803  44.1798353 105.3869791
 116.9497896  43.7009748 106.7250019  99.0968468  58.2636228 106.4119648
  98.9622936  57.5036629 105.8457646  98.6800531  58.9877128 105.9448437
 110.2327431  53.4473152  95.4196223 110.9363282  53.6523154  96.0353879
 109.5090080  54.0149914  95.6845307 111.0625242  49.1983013 101.5398493
 111.0060443  49.6551565 100.7006126 111.6153584  48.4373698 101.3621336
 114.8730048  44.9872745 102.3648613 114.6166982  44.5869381 103.1956820
 114.2482916  45.7016539 102.2398752 119.1842385  47.7268818 104.8719904
 118.6241943  47.7962008 105.6451466 118.5785889  47.5509803 104.1519400
 102.2537594  59.1605545 106.6238090 102.1369978  60.1050978 106.5216781
 101.4330041  58.8579107 107.0123890 112.1414129  53.8855681  97.4694683
 112.9759733  53.4536880  97.2872158 111.9798472  53.7137695  98.3971578
 111.7960021  50.3887794  98.8351022 111.7408825  50.2232066  97.8939467
 111.1706076  51.0963827  98.9913212  96.5852536  45.6255859 112.6612445
  97.2311400  45.1154813 113.1499670  96.3769687  46.3624540 113.2355870
 109.1105928  52.6936706 118.1604585 109.9797088  52.8677359 117.7991220
 108.6312680  53.5131123 118.0380315 105.1056146  39.8895903  98.4136341
 105.0934816  40.8337743  98.5704612 105.9979568  39.7066049  98.1195802
 103.2792108  59.8133807 109.8394019 104.1819355  59.8457418 110.1560514
 103.0529478  58.8834258 109.8540355 105.0345710  58.5664794 106.5004098
 104.0841341  58.5666655 106.3868470 105.3378197  57.8197528 105.9840132
 108.9208266  36.4838680 102.6682278 108.1540662  35.9297167 102.8138960
 109.3318971  36.5560549 103.5296429 100.9250027  42.7723476 116.7587459
 101.7881489  42.4160281 116.9690783 100.3515438  42.4337371 117.4462863
 120.7698404  64.4025332 107.5649860 121.4076814  64.2832080 106.8613200
 120.6519247  65.3506176 107.6237812 117.5788110  64.3552760 107.5011385
 117.2406622  64.2393825 106.6131919 118.4477878  63.9543925 107.4812391
 113.4374926  66.2088237 103.4908276 112.8739791  66.1178174 102.7224563
 113.3227321  65.3888141 103.9710768 118.0607893  65.5087612 113.4597590
 118.0496534  65.1140410 112.5878094 118.2228533  64.7753685 114.0531362
 110.9839358  67.7039428 106.3292496 111.7760650  67.3630253 105.9138795
 111.2236008  67.8134403 107.2494649 119.0174485  69.8759204  98.8022740
 118.3662464  70.4613285  98.4156754 119.8118847  70.4065399  98.8617778
 112.9430112  66.9648342  99.2009875 113.7160988  66.4177329  99.0622751
 113.2955511  67.8292591  99.4124336 114.7815154  68.2924724 112.4076774
 114.4905020  69.1970355 112.2923440 115.4172139  68.3341252 113.1220844
 115.7071361  65.6701572 108.9978134 116.3034933  65.4457595 108.2835097
 115.7646333  64.9286318 109.6003582 115.2796390  63.1241008  96.8328325
 115.5321910  62.6022529  96.0711788 114.3420949  62.9607153  96.9355008
 120.3239672  62.1276786 104.6403068 121.1102762  61.7096209 104.2893485
 120.5878377  63.0322878 104.8084716 120.4949750  67.5649636  99.3391725
 119.8595583  67.6384263 100.0512629 120.1647156  68.1543235  98.6610804
 125.7248100  62.0652019 105.5436046 126.4573271  61.4951236 105.7773876
 124.9687455  61.6773620 105.9842552 114.9992678  65.0269114  99.0352700
 114.8828936  64.3514017  99.7033784 115.1094938  64.5401488  98.2184853
 117.3424219  64.4879261 102.7399389 116.9782426  63.9609882 103.4512310
 118.1991335  64.0977730 102.5665874 123.2473520  55.7773593 110.0030655
 122.9156845  56.6469004 109.7791870 122.6519133  55.4609877 110.6824685
 116.9829706  59.5169161  97.7360737 117.1504109  60.3849397  98.1031208
 116.7926875  59.6796442  96.8122027 119.7405039  67.9786139 109.4026568
 119.4405762  68.8811178 109.2942375 119.3956099  67.7118323 110.2547721
 113.1917521  64.4299936 105.4363272 112.2668017  64.2976150 105.6440964
 113.4401934  65.2094156 105.9333215 123.1402183  60.4968680 107.0824005
 122.2319061  60.4284088 106.7882766 123.0889779  60.9740625 107.9105831
 116.9618927  61.9726818  98.7207404 116.8418552  62.4183869  99.5592885
 116.2671515  62.3212136  98.1620942 110.5526332  64.0733210 106.2707061
 110.6818713  64.3267689 107.1846473 109.8723783  64.6660918 105.9511716
 114.7225819  74.7430460 102.3697536 114.6449849  75.6938285 102.4486016
 114.1187463  74.3976332 103.0272462 117.2143049  61.9158325 115.0258902
 116.4376383  62.4752245 115.0161767 117.8533612  62.4015108 115.5473773
 125.0063830  58.6985118 108.8601879 124.3638210  58.9917651 108.2141674
 124.5018758  58.5838038 109.6655076 122.6603993  62.4448291  99.5487738
 123.5721849  62.6775678  99.3735436 122.1513640  63.0285335  98.9862817
 115.4689421  64.7243779 114.5876869 116.2104106  65.2628823 114.3111693
 114.7626407  65.3510067 114.7448421 120.9444761  66.8672919 113.1849031
 121.3528117  66.4255330 112.4403663 120.2222022  66.2925547 113.4383224
 117.2975831  61.8045526 110.5582588 118.1437026  62.2284939 110.7017237
 117.2374469  61.1479150 111.2521151 121.2673576  67.4274110 106.9401320
 120.6382438  67.5919824 106.2377388 120.8799238  67.8415719 107.7112284
 125.1462807  68.3628548 104.2945684 124.4613846  68.7427449 103.7442717
 125.2306657  68.9723874 105.0277631 120.4475276  59.4649894 112.2163761
 120.2036208  60.2191955 111.6798037 120.7235207  59.8435242 113.0511009
 122.4013739  66.0088507 110.8941027 122.6130634  66.6520266 110.2175408
 122.3543487  65.1750823 110.4262957 120.0039968  58.6206327 107.7977599
 119.1424447  58.9187581 108.0894337 120.0302403  58.8376726 106.8658632
 116.8201537  67.1648518 104.2051405 117.2839883  67.4436221 103.4156027
 116.5558336  66.2631962 104.0224496 113.7125618  66.7119999 107.1431168
 114.2826976  67.1407268 106.5048653 114.3033730  66.4302584 107.8415354
 115.7570423  63.2871670 101.0140970 116.4594467  63.7392714 101.4814896
 115.4251052  62.6455489 101.6420863 114.2050785  61.8783427 115.3892179
 113.5749446  62.5599708 115.6227576 114.0986873  61.7666508 114.4445318
 109.4995757  61.5455223 106.3158104 108.7094811  61.8012751 105.8398214
 109.9907005  62.3603561 106.4210144 123.5159567  68.8860462 109.0663384
 124.3377011  68.4840649 108.7846066 123.5121970  68.7828696 110.0179500
 111.4510503  61.9099802 103.2741580 110.6541666  62.0218496 103.7925076
 111.2236095  62.2486454 102.4082471 117.2816170  68.4344505 111.2224095
 117.3460603  68.8964912 112.0582267 116.5727094  67.8041870 111.3506405
 107.7833460  61.7985713 108.7473094 108.0341499  62.6832723 109.0130670
 108.3193009  61.6190315 107.9748186 131.6065560  65.2299210 105.4148356
 130.8529268  64.6606608 105.2592360 131.7413101  65.1961875 106.3618991
 116.9964188  70.1012613 101.0903075 116.8609863  70.9464148 101.5187923
 117.5374001  70.3031890 100.3269009 113.4831528  56.1804193 117.7517430
 113.0898473  55.6270391 118.4265075 114.2997668  56.4914771 118.1423948
 110.4493585  67.6188051 101.6631000 110.9618106  68.4131301 101.8136565
 111.1016298  66.9214341 101.5964602 112.2588470  70.7353807 103.7453753
 112.4355099  71.6571772 103.5574737 113.0545304  70.4212226 104.1748133
 116.3999489  57.5962072 115.3437687 117.1409202  58.1969225 115.2642149
 116.6317412  56.8539709 114.7855730 111.5440827  62.7818439 113.6215917
 111.4294342  61.8803696 113.9223016 110.6885344  63.0282136 113.2700733
 118.6232664  70.7236179 115.2203417 118.1796519  69.9372558 114.9024322
 119.2849878  70.9115330 114.5547308 113.3819786  72.2531981 109.7464096
 113.9327211  72.1249044 108.9741090 112.5431262  72.5526870 109.3958989
 120.7213903  71.0038979 113.2484819 120.7032378  71.8247860 112.7565088
 121.6433823  70.8793054 113.4734960 117.1786957  68.5183109 114.0908327
 117.7115293  67.7571397 113.8607635 116.6501038  68.2256760 114.8332481
 120.3456652  53.6243175 109.6201969 120.0020921  54.5144816 109.5441079
 120.7135614  53.4344832 108.7571554 108.4142502  65.9476705 102.4390571
 109.2517724  66.3573713 102.2224279 108.5920770  65.0076147 102.4090765
 120.3106934  63.6151786  98.1274404 119.7953558  64.3856390  98.3662791
 120.0384243  62.9416922  98.7507465 117.8954045  58.4601486 103.1859642
 117.0395642  58.0708337 103.0065281 118.3080997  58.5393447 102.3259428
 119.4253192  55.9947830 107.5851202 118.9217988  55.9577965 106.7719007
 119.7183799  56.9040572 107.6447859 115.6696078  56.0786559 106.5917384
 116.5349075  55.8829368 106.2323273 115.7373587  55.8496911 107.5186740
 125.2841209  66.3684140 100.0627577 124.5070651  66.0295300  99.6182739
 125.9632689  66.3736764  99.3882542 120.0993238  61.4878878  99.9534185
 119.7943373  61.8025027 100.8044328 121.0523680  61.5660298  99.9961518
 118.5439669  67.6469101 101.6027139 118.0161031  66.9121861 101.2900376
 118.0427172  68.4243777 101.3567107 123.5232515  65.8418122 106.7194185
 122.8656190  66.5317383 106.8074314 124.3272915  66.2314554 107.0628172
 113.2758397  58.3088767 103.9633750 113.8502149  58.0863949 103.2306943
 113.8629379  58.3777462 104.7162352 122.3337974  64.1962494 104.7698127
 122.8469856  64.8292486 105.2719837 122.9839198  63.5963690 104.4041487
 113.6027984  60.3393228  97.9829636 112.7665296  60.6767915  98.3038910
 113.4632754  60.2042208  97.0456773 115.5781065  55.1830016 102.6908820
 114.9245477  54.8679033 102.0665435 115.5361539  54.5605757 103.4168643
 116.6892270  65.4649311  94.6062112 115.7819331  65.2338565  94.8053261
 117.1863302  64.6686931  94.7936094 119.5960348  74.1746819  97.5258798
 118.9222047  74.4778515  98.1343756 119.9826170  74.9775899  97.1764255
 118.8118805  61.6711950 107.0156468 117.8941366  61.8926897 106.8578156
 119.2278949  61.7458260 106.1568175 119.5953853  63.0703366 102.1459148
 120.3425672  63.5824763 101.8366270 119.8645442  62.7487418 103.0063541
 117.8680503  65.5661906  99.1286102 116.9591722  65.2820939  99.2258572
 117.8975587  65.9860985  98.2689409 123.0999770  69.1768496 102.8977270
 122.6462098  68.3359406 102.9542460 122.4693737  69.8129894 103.2352050
 122.0432690  60.1060482 104.1277937 121.3055447  59.5937868 104.4588180
 122.2959464  59.6660863 103.3161214 121.5432710  71.0144992 103.8327088
 121.8355684  71.5750050 103.1139453 122.0531330  71.3073553 104.5880247
 122.1444317  52.8836734 104.7219706 122.4503194  52.0234097 104.4345621
 122.8696922  53.4754354 104.5218700 108.4368673  63.2867420 103.1101304
 108.2393073  62.6936781 102.3852371 107.8815337  62.9819631 103.8277243
 116.4165397  63.1790527 105.2295897 116.4714007  62.2264363 105.1538374
 115.6056599  63.3349966 105.7137196 117.5656591  67.1070650  96.4674181
 117.1276021  66.3906509  96.0079818 118.3067032  67.3346765  95.9059272
 114.3557757  61.7967587 102.9886276 113.5425623  62.0961757 103.3951468
 114.8516751  61.4023275 103.7060759 116.5066335  71.7925344 104.9220541
 116.4642514  72.0186190 103.9929073 117.4229034  71.5588718 105.0706342
 119.9531969  62.2609411 111.8201170 120.3081356  62.4880884 112.6795636
 120.6004100  62.5927788 111.1978426 125.6829706  65.3827847 102.5250499
 125.5447604  65.5729443 101.5971688 125.3265924  66.1447230 102.9818550
 113.8471832  59.3685942 108.6047511 114.4871211  59.2274701 107.9070475
 113.0149362  59.0820456 108.2286113 125.7099085  67.4504374 107.5361771
 126.1435592  67.3579663 108.3844825 126.4230666  67.4261874 106.8981787
 114.6232136  68.6688373 104.7182504 115.4172734  68.1738693 104.5165079
 113.9123828  68.1406236 104.3550209 119.4426980  71.0506468 109.0694871
 119.4964002  71.6197404 109.8372587 118.5741761  71.2208353 108.7048908
 110.9314899  62.8131454 100.7942256 110.0012487  62.7515910 101.0112219
 111.0272371  62.2907407  99.9978898 110.8500448  59.3386267 103.3820498
 111.1107265  60.2531600 103.2729659 111.6717620  58.8710710 103.5317111
 112.3225373  60.7524024 110.5519323 112.9948427  60.5441386 109.9031972
 111.4955160  60.5546110 110.1124555 126.5714635  67.4928075 110.0694656
 126.7650525  68.3973885 110.3153931 126.4715253  67.0335494 110.9033241
 118.2250946  57.3785965 112.5684983 117.5778861  58.0775915 112.4749460
 118.9951961  57.8122109 112.9361232 121.6329743  67.6434817 115.6435537
 121.4815250  67.4145369 114.7265620 121.6234423  68.6005419 115.6566882
 118.4015080  65.2166730 110.6281803 119.3307140  65.3677890 110.4550771
 117.9806110  65.3050751 109.7730450 117.2003412  69.2417395 108.3980341
 117.0614497  68.8736179 109.2706279 116.4118008  69.7565034 108.2264299
 117.7951564  74.3426491  99.7405877 117.9703319  73.8714534 100.5551500
 117.1084352  74.9692257  99.9687138 118.7508627  68.6198997 105.7869179
 118.4158459  68.5799767 106.6826828 118.2512572  67.9543713 105.3139589
 112.7252871  64.0266627 111.3121760 112.5872669  63.2946866 111.9133299
 113.6357794  63.9375527 111.0305948 121.6867818  65.9655032  96.0606238
 121.0696989  65.2401860  95.9639291 121.2184307  66.7264392  95.7173313
 115.3535171  63.7386587 110.8005439 116.0634790  63.0979779 110.7592058
 115.3104480  63.9899481 111.7231620 123.3421950  70.6753940 113.7212019
 123.2834496  69.9913160 113.0542602 123.7441468  71.4172930 113.2692645
 114.0664105  60.7251804 112.6201079 113.5301462  60.2742543 113.2722675
 113.4780814  60.8597713 111.8771543 112.3612649  77.4915854 106.5145738
 112.6009247  78.1234378 107.1924756 111.5181845  77.1403894 106.8011097
 113.4766364  60.1840456  95.1827543 112.5995831  60.0629257  94.8189789
 113.9524117  59.3926534  94.9306431 123.3439357  68.6393524 111.9525998
 122.4566136  68.3019446 112.0752397 123.9137908  67.9076555 112.1894764
 104.9968504  64.9717616 105.2769050 105.6839544  64.6579346 104.6890065
 104.8416633  65.8758980 105.0036301 109.8003227  59.8607812 109.7054073
 109.7161415  59.2533482 108.9704483 108.9785933  60.3516830 109.7063570
 116.8740511  73.2994976 108.9187242 116.8010682  74.1049948 109.4306546
 116.4317904  73.4986942 108.0935263 116.6630290  72.5366746 102.4290063
 115.8797812  73.0788426 102.5228288 117.3623036  73.0540726 102.8284304
 119.9726940  58.3461376 105.0724268 120.4695640  57.5931338 104.7525339
 119.2013922  58.3825692 104.5067478 127.8256698  64.0501741 106.7142560
 127.8146574  64.9326457 106.3436493 126.9574077  63.6973292 106.5197097
 119.3339194  73.1981810 111.0745400 120.0467166  73.8329275 111.0021302
 118.8429223  73.2945676 110.2585402 121.0556721  67.1033063 102.6462692
 120.1213000  67.2234525 102.4767396 121.2333390  66.2005530 102.3822702
 116.5561909  60.4878759 104.7995953 116.1859697  59.9349799 105.4876859
 117.0521002  59.8836892 104.2470953 124.4429273  62.9450382 103.1812726
 124.9089725  63.7778374 103.1073029 124.8936773  62.4795364 103.8857984
 114.3851108  70.9476254 111.8950971 115.0860567  71.5812737 112.0480365
 113.9146223  71.2890985 111.1346610 122.5105504  69.2894203 100.1798878
 122.7865348  69.1750798 101.0892752 121.6410002  68.8911688 100.1411051
 122.4145935  55.3130969 107.2203627 121.5009015  55.5435196 107.3885834
 122.8439037  55.3969413 108.0717660 122.1852394  63.5020861 109.7203521
 121.5323844  63.7496769 109.0655974 122.5632774  62.6884999 109.3865999
 119.1459568  73.5380554 103.8231692 119.3281962  72.7202210 104.2859444
 119.9692554  73.7548247 103.3856582 119.4801733  72.4648739 101.0846740
 120.0089500  71.9541194 100.4716902 119.7429953  72.1491270 101.9492273
 118.2339967  64.2440672 116.2069558 117.5580604  64.1434802 116.8771934
 119.0567601  64.0879886 116.6705556 109.9818826  70.4812609 108.8282074
 110.5672263  69.7356297 108.9609978 109.7843664  70.7916565 109.7118738
 112.8357481  73.5163856 103.8444516 112.1667856  74.0009984 103.3608556
 112.6970351  73.7633077 104.7587895 104.5736481  63.0518209 107.5486517
 104.6120580  62.5181800 108.3423635 104.0676773  62.5253414 106.9297494
 116.9762750  75.5507600 110.4427174 117.5281058  75.7139221 111.2076260
 117.3168943  76.1412037 109.7707199 111.9527243  57.8982749 111.0449059
 112.0168569  58.7597580 110.6326457 111.8894363  57.2856751 110.3121418
 111.4279515  59.9705882 114.6922093 112.0551554  59.5882959 115.3059618
 110.5707434  59.7520084 115.0577786 121.8273624  70.3768857 116.2975829
 122.3713528  70.9898815 115.8030784 121.2460469  70.9348436 116.8142842
 108.2045058  61.7782311 100.6240448 108.4998499  60.8692990 100.5707502
 107.3033094  61.7570051 100.3021451 120.1131137  73.4989575 107.4290857
 119.9882276  72.6979315 106.9201802 120.7710228  73.9935769 106.9404827
 111.7339305  59.8538308 106.6067997 111.0125891  60.4674275 106.4675470
 112.5232561  60.3896073 106.5284643 122.1766045  71.2998595 109.0570407
 121.2296381  71.1803946 108.9848733 122.5248818  70.4121093 109.1396668
 114.5365619  57.1892734 112.8808649 115.0600021  57.4355031 113.6434958
 114.3177952  58.0212769 112.4611786 109.9332900  59.4596409 100.7479773
 109.6045606  58.5793788 100.5654879 110.2872270  59.4044077 101.6356163
 119.1812479  71.0951311 105.2574759 119.0337441  70.1668019 105.4382329
 120.0065972  71.1171402 104.7731834 113.0474723  59.7469379 101.1155251
 113.3870795  60.2755300 100.3933859 113.4946843  60.0849785 101.8913818
 122.7846600  71.9179870 106.3439632 123.7093148  71.7122732 106.2064083
 122.6161904  71.6696271 107.2528973 115.7418164  58.1306429 110.5658319
 115.4014984  57.3314242 110.9678999 115.0357170  58.4308140 109.9935152
 116.3934636  55.2155742 109.0185642 117.2160705  54.7416220 108.8964532
 116.6372699  55.9946225 109.5184328 115.0342870  58.2444000  99.3148544
 115.7551233  58.6225253  98.8112261 114.4108174  58.9632877  99.4183522
 119.1773993  58.9489149 100.2506876 119.3937607  59.8313787  99.9495704
 118.6968060  58.5575363  99.5212518 113.9173214  61.9074862 106.8277621
 113.7717795  62.2215165 107.7201902 113.4398418  62.5259763 106.2748519
 115.7769597  58.8977410 106.8758510 115.7631166  58.0018504 106.5390808
 116.4942025  58.9048074 107.5096796 117.6295728  59.3314751 108.9211638
 117.3713506  60.2531821 108.9195968 117.0980768  58.9345185 109.6112102
 122.5741917  72.4365538 101.7001723 122.7478794  71.8711960 100.9475576
 123.0670808  73.2366433 101.5181213 108.3918876  64.4480207 109.7665282
 107.8472345  65.2240015 109.8985556 109.2698226  64.7951011 109.6084403
 115.1806493  57.7791791 102.1446080 115.3022404  56.8508437 102.3436968
 114.8908536  57.7930477 101.2324396 118.0497684  55.4646701 105.2812800
 118.0719380  55.5286034 104.3264780 118.4665743  54.6251210 105.4753306
 128.4281308  65.2001961 103.3192023 128.8712454  64.4509286 102.9211146
 127.5507818  65.1912097 102.9365755 123.5617089  71.7532302  98.7998621
 124.2567994  72.3738995  99.0185936 123.9040239  70.9027653  99.0750999
 109.1784898  63.5750103 112.6595439 108.4366634  63.7232738 113.2460069
 108.8577643  63.8358369 111.7962188 125.4608512  69.2032008 100.3285952
 125.9859836  69.5419280  99.6035272 125.3730865  68.2679023 100.1449087
 117.1228561  73.1166081 112.4575829 117.4315687  72.8715228 113.3298528
 117.9204043  73.3212720 111.9694699 117.1449173  75.2703991 104.6881205
 116.7054163  74.7780370 105.3814062 117.8957290  74.7276959 104.4473281
 109.6241512  71.4615532 104.6905833 110.4499532  71.1619304 104.3104477
 109.2735564  70.6923154 105.1395622 114.5923045  70.8142000 106.7603507
 113.9703054  70.1512705 106.4605735 115.2627912  70.8403132 106.0777155
 107.8250117  69.3801858 105.6494767 106.9882025  68.9524033 105.4678768
 107.7973763  69.5734302 106.5865558 114.6647573  59.2923788 116.3536013
 114.7135728  60.1685911 115.9713783 115.2070087  58.7501181 115.7807656
 125.1502418  69.8364911 115.6337150 124.3597962  69.8189050 115.0941650
 124.9135773  70.3753205 116.3886187 125.2700293  66.6857378 112.9469879
 125.3198298  66.5207385 113.8885401 125.1614217  65.8184637 112.5567759
 114.1536552  69.3645923 100.2361968 114.3024672  70.0481388  99.5828640
 114.9602996  69.3451013 100.7511423 122.5604056  62.6688306 114.2629185
 123.4613919  62.5294771 113.9713183 122.6352030  62.8342760 115.2027363
 116.8946861  60.0455160 113.1082372 116.0250171  60.3388726 112.8364960
 117.1306341  60.6295605 113.8289635 126.7718490  69.1054319 113.1911900
 126.4803299  69.4684300 114.0275361 126.1590622  68.3921327 113.0125232
 127.9714173  66.6707199 105.7114470 128.8061064  67.1097003 105.8752031
 128.1073301  66.1945852 104.8922716 125.0205678  64.2286934 111.6591958
 125.4959800  64.4214580 110.8510810 124.0971244  64.2846120 111.4135342
 111.9089185  65.3911101 101.2423036 111.6635227  64.4873431 101.4403247
 112.0785100  65.3928251 100.3002514 119.5985895  56.2634777 110.6247792
 120.1167839  56.9995804 110.2994281 119.2441028  56.5698771 111.4594551
 111.1784833  61.1239459  98.7409198 110.4854078  61.1983814  98.0849234
 110.9336585  60.3599802  99.2630715 119.8498489  52.6835060 106.1448689
 120.1300243  52.0158249 106.7709115 120.6349096  52.8764155 105.6323352
 117.6531958  71.8594054  97.7073715 117.0805925  72.4784241  97.2544187
 118.2264751  72.4093415  98.2413637 123.7207347  61.1052694 109.8920264
 124.6724770  61.2050792 109.9132488 123.5510798  60.3130962 110.4018348
 121.7421727  58.1908277 110.0779665 121.1471659  58.4713290 109.3826153
 121.4571424  58.6802178 110.8496406 120.8729217  72.1431204  98.8382297
 121.8059891  72.0776766  99.0415173 120.7852430  72.9787471  98.3796830
 123.5017234  71.4597074  95.7986245 123.4230866  71.1256938  96.6922003
 124.3226901  71.9518842  95.7977717 126.1995425  64.3258814 109.0062563
 126.1671745  63.3874814 109.1922247 126.8096049  64.4042850 108.2728388
 118.0378756  63.1954867  95.0489767 118.9837861  63.0661075  95.1178185
 117.6593001  62.4569528  95.5259196 126.3489914  61.1169857 109.0520847
 125.8328962  60.3328314 108.8650775 127.2329862  60.7888574 109.2167366
 124.0100641  54.8610873 105.0116659 123.8125462  54.5525961 105.8959991
 124.6200346  55.5872511 105.1414589 132.0171975  65.3874820 108.1468600
 132.7475364  65.1260109 108.7076304 131.4078921  64.6503542 108.1870668
 130.0987272  63.5282683 108.7443051 129.3720436  63.3938648 108.1359543
 129.6834559  63.8359512 109.5499769 117.9217449  67.2472613 116.5090424
 118.8420458  67.4251212 116.7030471 117.8867032  66.3028658 116.3570124
 116.2221673  61.1204843  94.9844653 115.3153129  60.8237956  95.0607366
 116.4997654  60.8234661  94.1178939 107.1399614  62.4411206 105.4343699
 106.8202398  61.5876515 105.1418073 106.5933042  62.6559784 106.1901666
 110.9179521  65.1573647 109.1513206 111.1365531  66.0890755 109.1701239
 111.3305295  64.7981622 109.9368009 117.8383739  55.6641733 101.1388894
 117.0284467  55.3188818 101.5144140 118.5268156  55.3549276 101.7276506
 119.7674287  54.7419779 102.7613191 120.3205326  55.1615233 103.4203214
 120.0044374  53.8155528 102.8036147 115.7907387  60.7306853 118.5415955
 115.6904113  61.6801210 118.4728046 115.5728929  60.4025092 117.6692025
 114.9920458  57.9791778  95.1256632 115.8539622  58.3046676  95.3852449
 115.1770802  57.1923274  94.6129698 107.0087874  66.0614118 107.4036821
 106.3151345  65.6468071 106.8906775 107.7560865  66.1034654 106.8070240
 123.1453094  56.8520305 102.2691855 122.5651763  57.5105109 101.8869907
 122.8789027  56.0297649 101.8579272 121.5956661  56.2525362 104.4713175
 122.0956439  56.3641897 103.6627494 122.2392269  55.9486415 105.1113984
 115.6538657  64.1603992 117.3581016 115.1705738  64.9604352 117.5644905
 115.7399596  64.1711937 116.4048460 108.9224616  65.9932372 105.2802836
 108.8995304  66.0920059 104.3284719 109.2325253  66.8397522 105.6020002
 111.5811994  68.0508527 109.3949450 112.5355248  68.0192469 109.3279382
 111.3824518  67.5899150 110.2099676 112.1711376  66.6209643 111.9620248
 112.9904265  67.1153721 111.9855085 112.4448184  65.7041611 111.9337815
 121.9277972  59.0120395 101.3248203 121.0403827  59.2970046 101.1068398
 122.3431961  58.8514158 100.4775480 125.2792509  59.0366916 105.0402542
 126.0552899  59.5263368 105.3127159 124.5540643  59.4624970 105.4974412
 127.7165067  59.7494535 106.0976483 128.3109558  59.5090271 105.3869791
 127.7891651  59.0301666 106.7250019 109.9362223  73.5928146 106.4119648
 109.8016691  72.8328547 105.8457646 109.5194285  74.3169046 105.9448437
 121.0721186  68.7765070  95.4196223 121.7757036  68.9815072  96.0353879
 120.3483835  69.3441832  95.6845307 121.9018996  64.5274931 101.5398493
 121.8454198  64.9843482 100.7006126 122.4547339  63.7665616 101.3621336
 125.7123802  60.3164663 102.3648613 125.4560736  59.9161298 103.1956820
 125.0876670  61.0308457 102.2398752 130.0236140  63.0560736 104.8719904
 129.4635698  63.1253925 105.6451466 129.4179643  62.8801721 104.1519400
 113.0931349  74.4897463 106.6238090 112.9763733  75.4342896 106.5216781
 112.2723795  74.1871025 107.0123890 122.9807883  69.2147599  97.4694683
 123.8153487  68.7828797  97.2872158 122.8192226  69.0429613  98.3971578
 122.6353775  65.7179712  98.8351022 122.5802579  65.5523984  97.8939467
 122.0099831  66.4255745  98.9913212 107.4246290  60.9547777 112.6612445
 108.0705154  60.4446731 113.1499670 107.2163442  61.6916458 113.2355870
 119.9499683  68.0228624 118.1604585 120.8190842  68.1969276 117.7991220
 119.4706434  68.8423041 118.0380315 115.9449901  55.2187821  98.4136341
 115.9328571  56.1629661  98.5704612 116.8373323  55.0357967  98.1195802
 114.1185863  75.1425725 109.8394019 115.0213110  75.1749335 110.1560514
 113.8923233  74.2126176 109.8540355 115.8739465  73.8956712 106.5004098
 114.9235096  73.8958573 106.3868470 116.1771951  73.1489446 105.9840132
 119.7602020  51.8130598 102.6682278 118.9934416  51.2589084 102.8138960
 120.1712725  51.8852467 103.5296429 111.7643781  58.1015394 116.7587459
 112.6275243  57.7452198 116.9690783 111.1909192  57.7629288 117.4462863
 131.6092158  79.7317250 107.5649860 132.2470568  79.6123997 106.8613200
 131.4913001  80.6798094 107.6237812 128.4181865  79.6844678 107.5011385
 128.0800376  79.5685743 106.6131919 129.2871633  79.2835843 107.4812391
 124.2768680  81.5380154 103.4908276 123.7133545  81.4470091 102.7224563
 124.1621075  80.7180059 103.9710768 128.9001648  80.8379530 113.4597590
 128.8890288  80.4432328 112.5878094 129.0622287  80.1045602 114.0531362
 121.8233112  83.0331346 106.3292496 122.6154404  82.6922171 105.9138795
 122.0629762  83.1426321 107.2494649 129.8568239  85.2051122  98.8022740
 129.2056219  85.7905203  98.4156754 130.6512602  85.7357317  98.8617778
 123.7823866  82.2940259  99.2009875 124.5554742  81.7469246  99.0622751
 124.1349265  83.1584509  99.4124336 125.6208909  83.6216642 112.4076774
 125.3298775  84.5262272 112.2923440 126.2565893  83.6633169 113.1220844
 126.5465116  80.9993490 108.9978134 127.1428688  80.7749513 108.2835097
 126.6040087  80.2578236 109.6003582 126.1190144  78.4532925  96.8328325
 126.3715665  77.9314447  96.0711788 125.1814703  78.2899071  96.9355008
 131.1633427  77.4568704 104.6403068 131.9496516  77.0388127 104.2893485
 131.4272131  78.3614796 104.8084716 131.3343504  82.8941554  99.3391725
 130.6989337  82.9676181 100.0512629 131.0040911  83.4835153  98.6610804
 136.5641854  77.3943937 105.5436046 137.2967026  76.8243154 105.7773876
 135.8081210  77.0065537 105.9842552 125.8386433  80.3561031  99.0352700
 125.7222691  79.6805935  99.7033784 125.9488693  79.8693405  98.2184853
 128.1817974  79.8171179 102.7399389 127.8176181  79.2901799 103.4512310
 129.0385090  79.4269648 102.5665874 134.0867274  71.1065511 110.0030655
 133.7550599  71.9760922 109.7791870 133.4912888  70.7901795 110.6824685
 127.8223461  74.8461078  97.7360737 127.9897863  75.7141315  98.1031208
 127.6320630  75.0088360  96.8122027 130.5798794  83.3078057 109.4026568
 130.2799517  84.2103096 109.2942375 130.2349853  83.0410240 110.2547721
 124.0311275  79.7591854 105.4363272 123.1061772  79.6268068 105.6440964
 124.2795689  80.5386073 105.9333215 133.9795938  75.8260597 107.0824005
 133.0712815  75.7576006 106.7882766 133.9283533  76.3032542 107.9105831
 127.8012682  77.3018736  98.7207404 127.6812307  77.7475786  99.5592885
 127.1065270  77.6504053  98.1620942 121.3920086  79.4025127 106.2707061
 121.5212468  79.6559606 107.1846473 120.7117538  79.9952835 105.9511716
 125.5619574  90.0722377 102.3697536 125.4843603  91.0230203 102.4486016
 124.9581217  89.7268250 103.0272462 128.0536803  77.2450243 115.0258902
 127.2770138  77.8044163 115.0161767 128.6927366  77.7307026 115.5473773
 135.8457584  74.0277036 108.8601879 135.2031964  74.3209569 108.2141674
 135.3412513  73.9129956 109.6655076 133.4997748  77.7740209  99.5487738
 134.4115604  78.0067596  99.3735436 132.9907395  78.3577253  98.9862817
 126.3083176  80.0535696 114.5876869 127.0497860  80.5920740 114.3111693
 125.6020161  80.6801985 114.7448421 131.7838515  82.1964837 113.1849031
 132.1921871  81.7547247 112.4403663 131.0615777  81.6217464 113.4383224
 128.1369585  77.1337443 110.5582588 128.9830781  77.5576857 110.7017237
 128.0768223  76.4771068 111.2521151 132.1067330  82.7566027 106.9401320
 131.4776192  82.9211741 106.2377388 131.7192992  83.1707637 107.7112284
 135.9856562  83.6920465 104.2945684 135.3007600  84.0719367 103.7442717
 136.0700411  84.3015792 105.0277631 131.2869031  74.7941812 112.2163761
 131.0429963  75.5483872 111.6798037 131.5628961  75.1727159 113.0511009
 133.2407494  81.3380424 110.8941027 133.4524389  81.9812184 110.2175408
 133.1937242  80.5042741 110.4262957 130.8433722  73.9498245 107.7977599
 129.9818202  74.2479498 108.0894337 130.8696157  74.1668644 106.8658632
 127.6595292  82.4940435 104.2051405 128.1233637  82.7728138 103.4156027
 127.3952090  81.5923880 104.0224496 124.5519373  82.0411917 107.1431168
 125.1220730  82.4699185 106.5048653 125.1427485  81.7594502 107.8415354
 126.5964178  78.6163588 101.0140970 127.2988221  79.0684631 101.4814896
 126.2644806  77.9747407 101.6420863 125.0444539  77.2075344 115.3892179
 124.4143200  77.8891625 115.6227576 124.9380627  77.0958426 114.4445318
 120.3389512  76.8747140 106.3158104 119.5488566  77.1304669 105.8398214
 120.8300759  77.6895478 106.4210144 134.3553321  84.2152380 109.0663384
 135.1770765  83.8132567 108.7846066 134.3515724  84.1120614 110.0179500
 122.2904257  77.2391720 103.2741580 121.4935421  77.3510414 103.7925076
 122.0629850  77.5778372 102.4082471 128.1209925  83.7636423 111.2224095
 128.1854357  84.2256830 112.0582267 127.4120849  83.1333788 111.3506405
 118.6227215  77.1277631 108.7473094 118.8735253  78.0124641 109.0130670
 119.1586763  76.9482232 107.9748186 142.4459315  80.5591128 105.4148356
 141.6923023  79.9898526 105.2592360 142.5806856  80.5253793 106.3618991
 127.8357943  85.4304530 101.0903075 127.7003617  86.2756066 101.5187923
 128.3767755  85.6323808 100.3269009 124.3225282  71.5096110 117.7517430
 123.9292228  70.9562309 118.4265075 125.1391423  71.8206689 118.1423948
 121.2887340  82.9479968 101.6631000 121.8011861  83.7423219 101.8136565
 121.9410053  82.2506259 101.5964602 123.0982225  86.0645725 103.7453753
 123.2748853  86.9863689 103.5574737 123.8939058  85.7504144 104.1748133
 127.2393243  72.9253989 115.3437687 127.9802957  73.5261142 115.2642149
 127.4711166  72.1831627 114.7855730 122.3834581  78.1110357 113.6215917
 122.2688096  77.2095614 113.9223016 121.5279099  78.3574053 113.2700733
 129.4626419  86.0528097 115.2203417 129.0190273  85.2664475 114.9024322
 130.1243633  86.2407247 114.5547308 124.2213540  87.5823899 109.7464096
 124.7720965  87.4540962 108.9741090 123.3825016  87.8818788 109.3958989
 131.5607657  86.3330897 113.2484819 131.5426132  87.1539778 112.7565088
 132.4827577  86.2084972 113.4734960 128.0180711  83.8475026 114.0908327
 128.5509048  83.0863315 113.8607635 127.4894792  83.5548678 114.8332481
 131.1850406  68.9535092 109.6201969 130.8414676  69.8436734 109.5441079
 131.5529369  68.7636750 108.7571554 119.2536257  81.2768623 102.4390571
 120.0911479  81.6865631 102.2224279 119.4314524  80.3368065 102.4090765
 131.1500689  78.9443703  98.1274404 130.6347312  79.7148308  98.3662791
 130.8777997  78.2708840  98.7507465 128.7347800  73.7893404 103.1859642
 127.8789396  73.4000255 103.0065281 129.1474752  73.8685365 102.3259428
 130.2646947  71.3239747 107.5851202 129.7611742  71.2869883 106.7719007
 130.5577553  72.2332490 107.6447859 126.5089832  71.4078477 106.5917384
 127.3742829  71.2121286 106.2323273 126.5767341  71.1788829 107.5186740
 136.1234963  81.6976058 100.0627577 135.3464406  81.3587218  99.6182739
 136.8026444  81.7028681  99.3882542 130.9386992  76.8170795  99.9534185
 130.6337128  77.1316945 100.8044328 131.8917434  76.8952215  99.9961518
 129.3833424  82.9761019 101.6027139 128.8554785  82.2413778 101.2900376
 128.8820927  83.7535695 101.3567107 134.3626270  81.1710039 106.7194185
 133.7049944  81.8609301 106.8074314 135.1666669  81.5606471 107.0628172
 124.1152152  73.6380685 103.9633750 124.6895903  73.4155867 103.2306943
 124.7023134  73.7069380 104.7162352 133.1731729  79.5254412 104.7698127
 133.6863610  80.1584404 105.2719837 133.8232953  78.9255607 104.4041487
 124.4421739  75.6685146  97.9829636 123.6059051  76.0059833  98.3038910
 124.3026508  75.5334126  97.0456773 126.4174819  70.5121934 102.6908820
 125.7639232  70.1970951 102.0665435 126.3755293  69.8897674 103.4168643
 127.5286024  80.7941229  94.6062112 126.6213086  80.5630483  94.8053261
 128.0257056  79.9978848  94.7936094 130.4354103  89.5038736  97.5258798
 129.7615802  89.8070433  98.1343756 130.8219925  90.3067817  97.1764255
 129.6512560  77.0003868 107.0156468 128.7335121  77.2218815 106.8578156
 130.0672703  77.0750178 106.1568175 130.4347607  78.3995283 102.1459148
 131.1819426  78.9116680 101.8366270 130.7039197  78.0779336 103.0063541
 128.7074258  80.8953824  99.1286102 127.7985477  80.6112857  99.2258572
 128.7369341  81.3152903  98.2689409 133.9393525  84.5060413 102.8977270
 133.4855852  83.6651323 102.9542460 133.3087492  85.1421812 103.2352050
 132.8826444  75.4352399 104.1277937 132.1449201  74.9229786 104.4588180
 133.1353218  74.9952781 103.3161214 132.3826464  86.3436910 103.8327088
 132.6749439  86.9041967 103.1139453 132.8925085  86.6365471 104.5880247
 132.9838072  68.2128651 104.7219706 133.2896949  67.3526015 104.4345621
 133.7090677  68.8046272 104.5218700 119.2762428  78.6159338 103.1101304
 119.0786828  78.0228699 102.3852371 118.7209092  78.3111548 103.8277243
 127.2559152  78.5082445 105.2295897 127.3107761  77.5556281 105.1538374
 126.4450354  78.6641884 105.7137196 128.4050345  82.4362568  96.4674181
 127.9669775  81.7198427  96.0079818 129.1460786  82.6638682  95.9059272
 125.1951511  77.1259504 102.9886276 124.3819377  77.4253675 103.3951468
 125.6910506  76.7315193 103.7060759 127.3460089  87.1217261 104.9220541
 127.3036268  87.3478108 103.9929073 128.2622788  86.8880636 105.0706342
 130.7925723  77.5901329 111.8201170 131.1475111  77.8172802 112.6795636
 131.4397854  77.9219706 111.1978426 136.5223460  80.7119765 102.5250499
 136.3841359  80.9021361 101.5971688 136.1659679  81.4739147 102.9818550
 124.6865586  74.6977860 108.6047511 125.3264966  74.5566619 107.9070475
 123.8543117  74.4112373 108.2286113 136.5492840  82.7796292 107.5361771
 136.9829346  82.6871581 108.3844825 137.2624420  82.7553792 106.8981787
 125.4625890  83.9980290 104.7182504 126.2566489  83.5030610 104.5165079
 124.7517583  83.4698153 104.3550209 130.2820735  86.3798386 109.0694871
 130.3357757  86.9489322 109.8372587 129.4135516  86.5500271 108.7048908
 121.7708654  78.1423372 100.7942256 120.8406242  78.0807827 101.0112219
 121.8666126  77.6199325  99.9978898 121.6894203  74.6678185 103.3820498
 121.9501020  75.5823518 103.2729659 122.5111375  74.2002627 103.5317111
 123.1619128  76.0815942 110.5519323 123.8342181  75.8733304 109.9031972
 122.3348915  75.8838028 110.1124555 137.4108389  82.8219992 110.0694656
 137.6044279  83.7265803 110.3153931 137.3109007  82.3627411 110.9033241
 129.0644700  72.7077883 112.5684983 128.4172615  73.4067833 112.4749460
 129.8345715  73.1414027 112.9361232 132.4723498  82.9726735 115.6435537
 132.3209004  82.7437287 114.7265620 132.4628177  83.9297336 115.6566882
 129.2408834  80.5458648 110.6281803 130.1700894  80.6969807 110.4550771
 128.8199864  80.6342669 109.7730450 128.0397166  84.5709312 108.3980341
 127.9008252  84.2028097 109.2706279 127.2511762  85.0856952 108.2264299
 128.6345318  89.6718409  99.7405877 128.8097074  89.2006452 100.5551500
 127.9478106  90.2984175  99.9687138 129.5902381  83.9490915 105.7869179
 129.2552214  83.9091685 106.6826828 129.0906327  83.2835631 105.3139589
 123.5646625  79.3558545 111.3121760 123.4266423  78.6238784 111.9133299
 124.4751549  79.2667445 111.0305948 132.5261573  81.2946949  96.0606238
 131.9090744  80.5693777  95.9639291 132.0578061  82.0556310  95.7173313
 126.1928926  79.0678504 110.8005439 126.9028544  78.4271696 110.7592058
 126.1498234  79.3191399 111.7231620 134.1815705  86.0045858 113.7212019
 134.1228251  85.3205078 113.0542602 134.5835223  86.7464848 113.2692645
 124.9057860  76.0543722 112.6201079 124.3695217  75.6034461 113.2722675
 124.3174568  76.1889631 111.8771543 123.2006403  92.8207771 106.5145738
 123.4403002  93.4526296 107.1924756 122.3575600  92.4695811 106.8011097
 124.3160119  75.5132374  95.1827543 123.4389585  75.3921174  94.8189789
 124.7917872  74.7218452  94.9306431 134.1833112  83.9685442 111.9525998
 133.2959891  83.6311363 112.0752397 134.7531663  83.2368473 112.1894764
 115.8362259  80.3009533 105.2769050 116.5233299  79.9871263 104.6890065
 115.6810388  81.2050898 105.0036301 120.6396981  75.1899730 109.7054073
 120.5555170  74.5825399 108.9704483 119.8179688  75.6808748 109.7063570
 127.7134265  88.6286894 108.9187242 127.6404437  89.4341865 109.4306546
 127.2711658  88.8278860 108.0935263 127.5024045  87.8658664 102.4290063
 126.7191567  88.4080344 102.5228288 128.2016790  88.3832644 102.8284304
 130.8120695  73.6753293 105.0724268 131.3089395  72.9223256 104.7525339
 130.0407676  73.7117610 104.5067478 138.6650452  79.3793659 106.7142560
 138.6540329  80.2618374 106.3436493 137.7967832  79.0265210 106.5197097
 130.1732949  88.5273728 111.0745400 130.8860921  89.1621193 111.0021302
 129.6822977  88.6237594 110.2585402 131.8950476  82.4324981 102.6462692
 130.9606754  82.5526443 102.4767396 132.0727144  81.5297447 102.3822702
 127.3955664  75.8170676 104.7995953 127.0253451  75.2641717 105.4876859
 127.8914756  75.2128810 104.2470953 135.2823027  78.2742300 103.1812726
 135.7483479  79.1070291 103.1073029 135.7330528  77.8087281 103.8857984
 125.2244862  86.2768171 111.8950971 125.9254322  86.9104654 112.0480365
 124.7539977  86.6182903 111.1346610 133.3499258  84.6186121 100.1798878
 133.6259102  84.5042716 101.0892752 132.4803757  84.2203606 100.1411051
 133.2539690  70.6422887 107.2203627 132.3402770  70.8727114 107.3885834
 133.6832791  70.7261331 108.0717660 133.0246148  78.8312779 109.7203521
 132.3717599  79.0788686 109.0655974 133.4026528  78.0176917 109.3865999
 129.9853322  88.8672472 103.8231692 130.1675717  88.0494128 104.2859444
 130.8086308  89.0840164 103.3856582 130.3195488  87.7940657 101.0846740
 130.8483254  87.2833112 100.4716902 130.5823707  87.4783187 101.9492273
 129.0733721  79.5732590 116.2069558 128.3974358  79.4726719 116.8771934
 129.8961355  79.4171804 116.6705556 120.8212580  85.8104526 108.8282074
 121.4066017  85.0648214 108.9609978 120.6237419  86.1208483 109.7118738
 123.6751236  88.8455774 103.8444516 123.0061611  89.3301901 103.3608556
 123.5364105  89.0924994 104.7587895 115.4130235  78.3810127 107.5486517
 115.4514335  77.8473717 108.3423635 114.9070528  77.8545332 106.9297494
 127.8156504  90.8799517 110.4427174 128.3674812  91.0431139 111.2076260
 128.1562698  91.4703955 109.7707199 122.7920997  73.2274667 111.0449059
 122.8562324  74.0889498 110.6326457 122.7288118  72.6148669 110.3121418
 122.2673270  75.2997800 114.6922093 122.8945309  74.9174877 115.3059618
 121.4101189  75.0812002 115.0577786 132.6667378  85.7060775 116.2975829
 133.2107282  86.3190733 115.8030784 132.0854223  86.2640353 116.8142842
 119.0438813  77.1074229 100.6240448 119.3392254  76.1984907 100.5707502
 118.1426848  77.0861968 100.3021451 130.9524891  88.8281493 107.4290857
 130.8276031  88.0271233 106.9201802 131.6103983  89.3227686 106.9404827
 122.5733060  75.1830225 106.6067997 121.8519645  75.7966193 106.4675470
 123.3626315  75.7187990 106.5284643 133.0159800  86.6290513 109.0570407
 132.0690135  86.5095864 108.9848733 133.3642573  85.7413011 109.1396668
 125.3759373  72.5184652 112.8808649 125.8993775  72.7646948 113.6434958
 125.1571706  73.3504687 112.4611786 120.7726654  74.7888326 100.7479773
 120.4439360  73.9085705 100.5654879 121.1266025  74.7335995 101.6356163
 130.0206233  86.4243229 105.2574759 129.8731196  85.4959937 105.4382329
 130.8459727  86.4463320 104.7731834 123.8868477  75.0761296 101.1155251
 124.2264550  75.6047218 100.3933859 124.3340598  75.4141702 101.8913818
 133.6240355  87.2471788 106.3439632 134.5486902  87.0414649 106.2064083
 133.4555658  86.9988189 107.2528973 126.5811918  73.4598347 110.5658319
 126.2408739  72.6606160 110.9678999 125.8750925  73.7600058 109.9935152
 127.2328390  70.5447659 109.0185642 128.0554459  70.0708138 108.8964532
 127.4766454  71.3238143 109.5184328 125.8736625  73.5735918  99.3148544
 126.5944987  73.9517171  98.8112261 125.2501929  74.2924795  99.4183522
 130.0167747  74.2781067 100.2506876 130.2331362  75.1605705  99.9495704
 129.5361815  73.8867280  99.5212518 124.7566969  77.2366780 106.8277621
 124.6111550  77.5507083 107.7201902 124.2792172  77.8551680 106.2748519
 126.6163352  74.2269328 106.8758510 126.6024920  73.3310421 106.5390808
 127.3335780  74.2339992 107.5096796 128.4689482  74.6606668 108.9211638
 128.2107260  75.5823739 108.9195968 127.9374523  74.2637103 109.6112102
 133.4135671  87.7657455 101.7001723 133.5872549  87.2003878 100.9475576
 133.9064562  88.5658350 101.5181213 119.2312631  79.7772124 109.7665282
 118.6866099  80.5531932 109.8985556 120.1091981  80.1242929 109.6084403
 126.0200248  73.1083708 102.1446080 126.1416159  72.1800354 102.3436968
 125.7302290  73.1222394 101.2324396 128.8891438  70.7938619 105.2812800
 128.9113135  70.8577952 104.3264780 129.3059497  69.9543127 105.4753306
 139.2675062  80.5293878 103.3192023 139.7106208  79.7801203 102.9211146
 138.3901573  80.5204015 102.9365755 134.4010844  87.0824220  98.7998621
 135.0961748  87.7030912  99.0185936 134.7433994  86.2319571  99.0750999
 120.0178653  78.9042021 112.6595439 119.2760389  79.0524656 113.2460069
 119.6971397  79.1650286 111.7962188 136.3002267  84.5323925 100.3285952
 136.8253591  84.8711198  99.6035272 136.2124619  83.5970941 100.1449087
 127.9622315  88.4457999 112.4575829 128.2709442  88.2007146 113.3298528
 128.7597798  88.6504637 111.9694699 127.9842928  90.5995909 104.6881205
 127.5447918  90.1072287 105.3814062 128.7351044  90.0568876 104.4473281
 120.4635267  86.7907449 104.6905833 121.2893286  86.4911221 104.3104477
 120.1129319  86.0215072 105.1395622 125.4316800  86.1433918 106.7603507
 124.8096809  85.4804623 106.4605735 126.1021667  86.1695050 106.0777155
 118.6643872  84.7093776 105.6494767 117.8275780  84.2815950 105.4678768
 118.6367517  84.9026219 106.5865558 125.5041327  74.6215706 116.3536013
 125.5529483  75.4977828 115.9713783 126.0463841  74.0793099 115.7807656
 135.9896173  85.1656829 115.6337150 135.1991717  85.1480968 115.0941650
 135.7529527  85.7045123 116.3886187 136.1094048  82.0149295 112.9469879
 136.1592053  81.8499303 113.8885401 136.0007971  81.1476554 112.5567759
 124.9930307  84.6937841 100.2361968 125.1418427  85.3773305  99.5828640
 125.7996750  84.6742931 100.7511423 133.3997810  77.9980223 114.2629185
 134.3007673  77.8586688 113.9713183 133.4745785  78.1634678 115.2027363
 127.7340616  75.3747078 113.1082372 126.8643925  75.6680644 112.8364960
 127.9700096  75.9587523 113.8289635 137.6112245  84.4346237 113.1911900
 137.3197053  84.7976217 114.0275361 136.9984376  83.7213245 113.0125232
 138.8107927  81.9999117 105.7114470 139.6454818  82.4388921 105.8752031
 138.9467056  81.5237770 104.8922716 135.8599433  79.5578851 111.6591958
 136.3353555  79.7506498 110.8510810 134.9364998  79.6138037 111.4135342
 122.7482940  80.7203019 101.2423036 122.5028982  79.8165349 101.4403247
 122.9178854  80.7220169 100.3002514 130.4379649  71.5926695 110.6247792
 130.9561593  72.3287722 110.2994281 130.0834782  71.8990688 111.4594551
 122.0178587  76.4531376  98.7409198 121.3247832  76.5275731  98.0849234
 121.7730339  75.6891720  99.2630715 130.6892244  68.0126978 106.1448689
 130.9693997  67.3450167 106.7709115 131.4742851  68.2056073 105.6323352
 128.4925712  87.1885971  97.7073715 127.9199679  87.8076159  97.2544187
 129.0658506  87.7385333  98.2413637 134.5601102  76.4344612 109.8920264
 135.5118525  76.5342709 109.9132488 134.3904552  75.6422880 110.4018348
 132.5815481  73.5200195 110.0779665 131.9865414  73.8005207 109.3826153
 132.2965178  74.0094096 110.8496406 131.7122972  87.4723122  98.8382297
 132.6453645  87.4068683  99.0415173 131.6246185  88.3079388  98.3796830
 134.3410989  86.7888992  95.7986245 134.2624620  86.4548856  96.6922003
 135.1620655  87.2810760  95.7977717 137.0389180  79.6550731 109.0062563
 137.0065500  78.7166732 109.1922247 137.6489803  79.7334768 108.2728388
 128.8772511  78.5246784  95.0489767 129.8231615  78.3952992  95.1178185
 128.4986756  77.7861446  95.5259196 137.1883668  76.4461775 109.0520847
 136.6722717  75.6620231 108.8650775 138.0723617  76.1180491 109.2167366
 134.8494395  70.1902790 105.0116659 134.6519216  69.8817878 105.8959991
 135.4594101  70.9164429 105.1414589 142.8565730  80.7166738 108.1468600
 143.5869118  80.4552026 108.7076304 142.2472675  79.9795460 108.1870668
 140.9381027  78.8574601 108.7443051 140.2114190  78.7230566 108.1359543
 140.5228314  79.1651429 109.5499769 128.7611203  82.5764530 116.5090424
 129.6814213  82.7543129 116.7030471 128.7260786  81.6320576 116.3570124
 127.0615428  76.4496761  94.9844653 126.1546883  76.1529873  95.0607366
 127.3391409  76.1526579  94.1178939 117.9793368  77.7703124 105.4343699
 117.6596153  76.9168432 105.1418073 117.4326796  77.9851702 106.1901666
 121.7573276  80.4865565 109.1513206 121.9759285  81.4182673 109.1701239
 122.1699050  80.1273539 109.9368009 128.6777494  70.9933650 101.1388894
 127.8678222  70.6480735 101.5144140 129.3661910  70.6841194 101.7276506
 130.6068042  70.0711697 102.7613191 131.1599080  70.4907151 103.4203214
 130.8438128  69.1447445 102.8036147 126.6301141  76.0598771 118.5415955
 126.5297868  77.0093128 118.4728046 126.4122683  75.7317010 117.6692025
 125.8314212  73.3083696  95.1256632 126.6933376  73.6338594  95.3852449
 126.0164557  72.5215192  94.6129698 117.8481628  81.3906035 107.4036821
 117.1545100  80.9759988 106.8906775 118.5954619  81.4326572 106.8070240
 133.9846849  72.1812222 102.2691855 133.4045518  72.8397026 101.8869907
 133.7182782  71.3589567 101.8579272 132.4350415  71.5817280 104.4713175
 132.9350194  71.6933815 103.6627494 133.0786023  71.2778333 105.1113984
 126.4932411  79.4895910 117.3581016 126.0099493  80.2896270 117.5644905
 126.5793350  79.5003854 116.4048460 119.7618371  81.3224289 105.2802836
 119.7389059  81.4211977 104.3284719 120.0719007  82.1689440 105.6020002
 122.4205749  83.3800444 109.3949450 123.3749002  83.3484387 109.3279382
 122.2218272  82.9191068 110.2099676 123.0105131  81.9501560 111.9620248
 123.8298020  82.4445639 111.9855085 123.2841938  81.0333528 111.9337815
 132.7671727  74.3412313 101.3248203 131.8797582  74.6261963 101.1068398
 133.1825716  74.1806076 100.4775480 136.1186263  74.3658834 105.0402542
 136.8946653  74.8555286 105.3127159 135.3934397  74.7916888 105.4974412
 138.5558822  75.0786453 106.0976483 139.1503312  74.8382189 105.3869791
 138.6285405  74.3593583 106.7250019 120.7755977  88.9220064 106.4119648
 120.6410445  88.1620465 105.8457646 120.3588040  89.6460964 105.9448437
 131.9114940  84.1056987  95.4196223 132.6150790  84.3106990  96.0353879
 131.1877589  84.6733749  95.6845307 132.7412751  79.8566849 101.5398493
 132.6847952  80.3135400 100.7006126 133.2941093  79.0957533 101.3621336
 136.5517557  75.6456580 102.3648613 136.2954491  75.2453216 103.1956820
 135.9270425  76.3600374 102.2398752 140.8629894  78.3852654 104.8719904
 140.3029452  78.4545843 105.6451466 140.2573398  78.2093638 104.1519400
 123.9325103  89.8189381 106.6238090 123.8157487  90.7634813 106.5216781
 123.1117549  89.5162942 107.0123890 133.8201638  84.5439517  97.4694683
 134.6547242  84.1120715  97.2872158 133.6585981  84.3721530  98.3971578
 133.4747530  81.0471630  98.8351022 133.4196334  80.8815901  97.8939467
 132.8493585  81.7547663  98.9913212 118.2640045  76.2839694 112.6612445
 118.9098909  75.7738648 113.1499670 118.0557196  77.0208376 113.2355870
 130.7893437  83.3520542 118.1604585 131.6584597  83.5261194 117.7991220
 130.3100189  84.1714959 118.0380315 126.7843655  70.5479739  98.4136341
 126.7722325  71.4921579  98.5704612 127.6767077  70.3649884  98.1195802
 124.9579617  90.4717643 109.8394019 125.8606864  90.5041253 110.1560514
 124.7316987  89.5418094 109.8540355 126.7133219  89.2248629 106.5004098
 125.7628850  89.2250491 106.3868470 127.0165706  88.4781364 105.9840132
 130.5995775  67.1422515 102.6682278 129.8328171  66.5881002 102.8138960
 131.0106480  67.2144384 103.5296429 122.6037536  73.4307311 116.7587459
 123.4668997  73.0744116 116.9690783 122.0302947  73.0921206 117.4462863
 142.4485913  95.0609168 107.5649860 143.0864323  94.9415915 106.8613200
 142.3306756  96.0090012 107.6237812 139.2575619  95.0136596 107.5011385
 138.9194131  94.8977660 106.6131919 140.1265387  94.6127761 107.4812391
 135.1162435  96.8672072 103.4908276 134.5527300  96.7762009 102.7224563
 135.0014830  96.0471977 103.9710768 139.7395402  96.1671447 113.4597590
 139.7284043  95.7724246 112.5878094 139.9016042  95.4337520 114.0531362
 132.6626867  98.3623264 106.3292496 133.4548159  98.0214088 105.9138795
 132.9023517  98.4718239 107.2494649 140.6961994 100.5343040  98.8022740
 140.0449973 101.1197120  98.4156754 141.4906356 101.0649235  98.8617778
 134.6217621  97.6232177  99.2009875 135.3948497  97.0761164  99.0622751
 134.9743020  98.4876426  99.4124336 136.4602663  98.9508559 112.4076774
 136.1692529  99.8554190 112.2923440 137.0959648  98.9925087 113.1220844
 137.3858870  96.3285408 108.9978134 137.9822442  96.1041430 108.2835097
 137.4433842  95.5870153 109.6003582 136.9583899  93.7824843  96.8328325
 137.2109419  93.2606364  96.0711788 136.0208458  93.6190989  96.9355008
 142.0027181  92.7860621 104.6403068 142.7890271  92.3680045 104.2893485
 142.2665886  93.6906714 104.8084716 142.1737259  98.2233472  99.3391725
 141.5383092  98.2968098 100.0512629 141.8434665  98.8127071  98.6610804
 147.4035608  92.7235855 105.5436046 148.1360780  92.1535071 105.7773876
 146.6474964  92.3357455 105.9842552 136.6780187  95.6852949  99.0352700
 136.5616445  95.0097852  99.7033784 136.7882447  95.1985323  98.2184853
 139.0211728  95.1463096 102.7399389 138.6569935  94.6193717 103.4512310
 139.8778844  94.7561565 102.5665874 144.9261029  86.4357429 110.0030655
 144.5944354  87.3052840 109.7791870 144.3306642  86.1193713 110.6824685
 138.6617215  90.1752996  97.7360737 138.8291618  91.0433232  98.1031208
 138.4714384  90.3380278  96.8122027 141.4192548  98.6369975 109.4026568
 141.1193271  99.5395014 109.2942375 141.0743608  98.3702158 110.2547721
 134.8705030  95.0883772 105.4363272 133.9455526  94.9559986 105.6440964
 135.1189443  95.8677991 105.9333215 144.8189692  91.1552515 107.0824005
 143.9106569  91.0867923 106.7882766 144.7677288  91.6324460 107.9105831
 138.6406436  92.6310653  98.7207404 138.5206061  93.0767704  99.5592885
 137.9459024  92.9795971  98.1620942 132.2313841  94.7317045 106.2707061
 132.3606222  94.9851524 107.1846473 131.5511292  95.3244753 105.9511716
 136.4013328 105.4014295 102.3697536 136.3237358 106.3522120 102.4486016
 135.7974972 105.0560168 103.0272462 138.8930558  92.5742161 115.0258902
 138.1163892  93.1336081 115.0161767 139.5321121  93.0598944 115.5473773
 146.6851339  89.3568953 108.8601879 146.0425719  89.6501487 108.2141674
 146.1806267  89.2421874 109.6655076 144.3391502  93.1032127  99.5487738
 145.2509358  93.3359513  99.3735436 143.8301149  93.6869171  98.9862817
 137.1476930  95.3827614 114.5876869 137.8891615  95.9212658 114.3111693
 136.4413916  96.0093903 114.7448421 142.6232270  97.5256754 113.1849031
 143.0315626  97.0839165 112.4403663 141.9009531  96.9509382 113.4383224
 138.9763340  92.4629361 110.5582588 139.8224535  92.8868775 110.7017237
 138.9161978  91.8062985 111.2521151 142.9461085  98.0857945 106.9401320
 142.3169947  98.2503659 106.2377388 142.5586747  98.4999555 107.7112284
 146.8250316  99.0212383 104.2945684 146.1401355  99.4011284 103.7442717
 146.9094166  99.6307710 105.0277631 142.1262785  90.1233730 112.2163761
 141.8823717  90.8775790 111.6798037 142.4022716  90.5019077 113.0511009
 144.0801248  96.6672342 110.8941027 144.2918143  97.3104102 110.2175408
 144.0330996  95.8334658 110.4262957 141.6827477  89.2790163 107.7977599
 140.8211956  89.5771416 108.0894337 141.7089912  89.4960561 106.8658632
 138.4989046  97.8232353 104.2051405 138.9627392  98.1020056 103.4156027
 138.2345845  96.9215798 104.0224496 135.3913127  97.3703835 107.1431168
 135.9614485  97.7991103 106.5048653 135.9821239  97.0886419 107.8415354
 137.4357932  93.9455505 101.0140970 138.1381976  94.3976549 101.4814896
 137.1038561  93.3039324 101.6420863 135.8838294  92.5367262 115.3892179
 135.2536955  93.2183543 115.6227576 135.7774382  92.4250344 114.4445318
 131.1783266  92.2039058 106.3158104 130.3882320  92.4596587 105.8398214
 131.6694514  93.0187396 106.4210144 145.1947076  99.5444297 109.0663384
 146.0164520  99.1424485 108.7846066 145.1909479  99.4412531 110.0179500
 133.1298012  92.5683637 103.2741580 132.3329175  92.6802332 103.7925076
 132.9023604  92.9070290 102.4082471 138.9603679  99.0928341 111.2224095
 139.0248112  99.5548748 112.0582267 138.2514603  98.4625706 111.3506405
 129.4620969  92.4569549 108.7473094 129.7129008  93.3416558 109.0130670
 129.9980518  92.2774150 107.9748186 153.2853069  95.8883046 105.4148356
 152.5316777  95.3190444 105.2592360 153.4200610  95.8545710 106.3618991
 138.6751697 100.7596448 101.0903075 138.5397372 101.6047984 101.5187923
 139.2161510 100.9615726 100.3269009 135.1619037  86.8388028 117.7517430
 134.7685982  86.2854226 118.4265075 135.9785177  87.1498606 118.1423948
 132.1281094  98.2771886 101.6631000 132.6405615  99.0715136 101.8136565
 132.7803807  97.5798177 101.5964602 133.9375979 101.3937642 103.7453753
 134.1142608 102.3155607 103.5574737 134.7332813 101.0796062 104.1748133
 138.0786998  88.2545907 115.3437687 138.8196711  88.8553060 115.2642149
 138.3104921  87.5123545 114.7855730 133.2228336  93.4402274 113.6215917
 133.1081851  92.5387532 113.9223016 132.3672853  93.6865971 113.2700733
 140.3020173 101.3820015 115.2203417 139.8584028 100.5956393 114.9024322
 140.9637387 101.5699165 114.5547308 135.0607295 102.9115816 109.7464096
 135.6114720 102.7832880 108.9741090 134.2218771 103.2110705 109.3958989
 142.4001412 101.6622815 113.2484819 142.3819887 102.4831696 112.7565088
 143.3221332 101.5376890 113.4734960 138.8574466  99.1766944 114.0908327
 139.3902802  98.4155232 113.8607635 138.3288547  98.8840596 114.8332481
 142.0244161  84.2827010 109.6201969 141.6808430  85.1728652 109.5441079
 142.3923123  84.0928668 108.7571554 130.0930011  96.6060540 102.4390571
 130.9305233  97.0157549 102.2224279 130.2708279  95.6659983 102.4090765
 141.9894443  94.2735621  98.1274404 141.4741067  95.0440226  98.3662791
 141.7171752  93.6000757  98.7507465 139.5741554  89.1185322 103.1859642
 138.7183151  88.7292172 103.0065281 139.9868506  89.1977283 102.3259428
 141.1040701  86.6531665 107.5851202 140.6005497  86.6161800 106.7719007
 141.3971308  87.5624408 107.6447859 137.3483587  86.7370395 106.5917384
 138.2136584  86.5413204 106.2323273 137.4161096  86.5080747 107.5186740
 146.9628717  97.0267976 100.0627577 146.1858160  96.6879135  99.6182739
 147.6420198  97.0320599  99.3882542 141.7780747  92.1462713  99.9534185
 141.4730882  92.4608862 100.8044328 142.7311189  92.2244133  99.9961518
 140.2227178  98.3052936 101.6027139 139.6948540  97.5705696 101.2900376
 139.7214681  99.0827613 101.3567107 145.2020024  96.5001957 106.7194185
 144.5443699  97.1901218 106.8074314 146.0060424  96.8898389 107.0628172
 134.9545906  88.9672603 103.9633750 135.5289658  88.7447784 103.2306943
 135.5416888  89.0361297 104.7162352 144.0125483  94.8546330 104.7698127
 144.5257365  95.4876321 105.2719837 144.6626707  94.2547525 104.4041487
 135.2815493  90.9977064  97.9829636 134.4452805  91.3351750  98.3038910
 135.1420263  90.8626044  97.0456773 137.2568574  85.8413852 102.6908820
 136.6032986  85.5262869 102.0665435 137.2149048  85.2189592 103.4168643
 138.3679779  96.1233147  94.6062112 137.4606840  95.8922400  94.8053261
 138.8650811  95.3270766  94.7936094 141.2747857 104.8330654  97.5258798
 140.6009556 105.1362351  98.1343756 141.6613679 105.6359734  97.1764255
 140.4906314  92.3295785 107.0156468 139.5728875  92.5510732 106.8578156
 140.9066458  92.4042096 106.1568175 141.2741362  93.7287201 102.1459148
 142.0213181  94.2408598 101.8366270 141.5432951  93.4071254 103.0063541
 139.5468012  96.2245742  99.1286102 138.6379231  95.9404774  99.2258572
 139.5763096  96.6444820  98.2689409 144.7787279  99.8352331 102.8977270
 144.3249607  98.9943241 102.9542460 144.1481246 100.4713729 103.2352050
 143.7220199  90.7644317 104.1277937 142.9842956  90.2521703 104.4588180
 143.9746973  90.3244699 103.3161214 143.2220219 101.6728828 103.8327088
 143.5143193 102.2333885 103.1139453 143.7318839 101.9657389 104.5880247
 143.8231826  83.5420569 104.7219706 144.1290703  82.6817933 104.4345621
 144.5484431  84.1338189 104.5218700 130.1156182  93.9451256 103.1101304
 129.9180582  93.3520616 102.3852371 129.5602846  93.6403466 103.8277243
 138.0952906  93.8374362 105.2295897 138.1501516  92.8848199 105.1538374
 137.2844108  93.9933801 105.7137196 139.2444100  97.7654485  96.4674181
 138.8063530  97.0490344  96.0079818 139.9854541  97.9930600  95.9059272
 136.0345266  92.4551422 102.9886276 135.2213131  92.7545593 103.3951468
 136.5304260  92.0607111 103.7060759 138.1853844 102.4509179 104.9220541
 138.1430023 102.6770025 103.9929073 139.1016543 102.2172553 105.0706342
 141.6319478  92.9193246 111.8201170 141.9868865  93.1464720 112.6795636
 142.2791609  93.2511623 111.1978426 147.3617215  96.0411682 102.5250499
 147.2235113  96.2313278 101.5971688 147.0053433  96.8031065 102.9818550
 135.5259341  90.0269777 108.6047511 136.1658720  89.8858537 107.9070475
 134.6936871  89.7404291 108.2286113 147.3886594  98.1088209 107.5361771
 147.8223101  98.0163498 108.3844825 148.1018175  98.0845710 106.8981787
 136.3019645  99.3272208 104.7182504 137.0960243  98.8322528 104.5165079
 135.5911337  98.7990071 104.3550209 141.1214489 101.7090303 109.0694871
 141.1751511 102.2781240 109.8372587 140.2529270 101.8792188 108.7048908
 132.6102408  93.4715290 100.7942256 131.6799996  93.4099745 101.0112219
 132.7059880  92.9491242  99.9978898 132.5287957  89.9970102 103.3820498
 132.7894774  90.9115436 103.2729659 133.3505129  89.5294545 103.5317111
 134.0012882  91.4107860 110.5519323 134.6735936  91.2025222 109.9031972
 133.1742669  91.2129946 110.1124555 148.2502144  98.1511910 110.0694656
 148.4438034  99.0557720 110.3153931 148.1502762  97.6919329 110.9033241
 139.9038454  88.0369801 112.5684983 139.2566370  88.7359750 112.4749460
 140.6739470  88.4705944 112.9361232 143.3117252  98.3018653 115.6435537
 143.1602759  98.0729204 114.7265620 143.3021932  99.2589254 115.6566882
 140.0802589  95.8750565 110.6281803 141.0094649  96.0261725 110.4550771
 139.6593619  95.9634586 109.7730450 138.8790921  99.9001230 108.3980341
 138.7402006  99.5320014 109.2706279 138.0905517 100.4148869 108.2264299
 139.4739073 105.0010326  99.7405877 139.6490828 104.5298370 100.5551500
 138.7871861 105.6276093  99.9687138 140.4296136  99.2782833 105.7869179
 140.0945968  99.2383603 106.6826828 139.9300081  98.6127549 105.3139589
 134.4040380  94.6850463 111.3121760 134.2660178  93.9530701 111.9133299
 135.3145303  94.5959363 111.0305948 143.3655327  96.6238867  96.0606238
 142.7484498  95.8985695  95.9639291 142.8971816  97.3848227  95.7173313
 137.0322680  94.3970422 110.8005439 137.7422299  93.7563614 110.7592058
 136.9891989  94.6483317 111.7231620 145.0209459 101.3337775 113.7212019
 144.9622005 100.6496995 113.0542602 145.4228977 102.0756765 113.2692645
 135.7451614  91.3835640 112.6201079 135.2088971  90.9326378 113.2722675
 135.1568323  91.5181549 111.8771543 134.0400158 108.1499689 106.5145738
 134.2796756 108.7818213 107.1924756 133.1969354 107.7987729 106.8011097
 135.1553873  90.8424291  95.1827543 134.2783340  90.7213092  94.8189789
 135.6311626  90.0510370  94.9306431 145.0226866  99.2977359 111.9525998
 144.1353645  98.9603281 112.0752397 145.5925417  98.5660390 112.1894764
 126.6756013  95.6301451 105.2769050 127.3627053  95.3163181 104.6890065
 126.5204142  96.5342816 105.0036301 131.4790736  90.5191648 109.7054073
 131.3948924  89.9117317 108.9704483 130.6573442  91.0100666 109.7063570
 138.5528020 103.9578812 108.9187242 138.4798191 104.7633783 109.4306546
 138.1105413 104.1570777 108.0935263 138.3417799 103.1950582 102.4290063
 137.5585321 103.7372262 102.5228288 139.0410545 103.7124561 102.8284304
 141.6514449  89.0045211 105.0724268 142.1483149  88.2515173 104.7525339
 140.8801431  89.0409528 104.5067478 149.5044207  94.7085577 106.7142560
 149.4934083  95.5910292 106.3436493 148.6361586  94.3557127 106.5197097
 141.0126703 103.8565646 111.0745400 141.7254675 104.4913110 111.0021302
 140.5216732 103.9529512 110.2585402 142.7344230  97.7616898 102.6462692
 141.8000509  97.8818361 102.4767396 142.9120899  96.8589365 102.3822702
 138.2349418  91.1462594 104.7995953 137.8647206  90.5933634 105.4876859
 138.7308511  90.5420728 104.2470953 146.1216782  93.6034218 103.1812726
 146.5877234  94.4362209 103.1073029 146.5724282  93.1379199 103.8857984
 136.0638617 101.6060089 111.8950971 136.7648076 102.2396572 112.0480365
 135.5933732 101.9474821 111.1346610 144.1893013  99.9478039 100.1798878
 144.4652857  99.8334633 101.0892752 143.3197511  99.5495524 100.1411051
 144.0933444  85.9714805 107.2203627 143.1796524  86.2019031 107.3885834
 144.5226546  86.0553249 108.0717660 143.8639903  94.1604697 109.7203521
 143.2111353  94.4080604 109.0655974 144.2420283  93.3468835 109.3865999
 140.8247077 104.1964390 103.8231692 141.0069471 103.3786046 104.2859444
 141.6480063 104.4132082 103.3856582 141.1589242 103.1232575 101.0846740
 141.6877009 102.6125029 100.4716902 141.4217462 102.8075105 101.9492273
 139.9127476  94.9024508 116.2069558 139.2368113  94.8018637 116.8771934
 140.7355110  94.7463721 116.6705556 131.6606335 101.1396444 108.8282074
 132.2459772 100.3940132 108.9609978 131.4631173 101.4500401 109.7118738
 134.5144990 104.1747692 103.8444516 133.8455365 104.6593819 103.3608556
 134.3757860 104.4216912 104.7587895 126.2523990  93.7102044 107.5486517
 126.2908089  93.1765635 108.3423635 125.7464282  93.1837250 106.9297494
 138.6550259 106.2091435 110.4427174 139.2068567 106.3723057 111.2076260
 138.9956452 106.7995873 109.7707199 133.6314752  88.5566585 111.0449059
 133.6956078  89.4181416 110.6326457 133.5681872  87.9440586 110.3121418
 133.1067024  90.6289717 114.6922093 133.7339063  90.2466795 115.3059618
 132.2494943  90.4103919 115.0577786 143.5061133 101.0352693 116.2975829
 144.0501037 101.6482651 115.8030784 142.9247978 101.5932271 116.8142842
 129.8832567  92.4366146 100.6240448 130.1786008  91.5276825 100.5707502
 128.9820603  92.4153886 100.3021451 141.7918646 104.1573411 107.4290857
 141.6669785 103.3563150 106.9201802 142.4497737 104.6519604 106.9404827
 133.4126814  90.5122143 106.6067997 132.6913400  91.1258111 106.4675470
 134.2020070  91.0479908 106.5284643 143.8553554 101.9582431 109.0570407
 142.9083890 101.8387782 108.9848733 144.2036327 101.0704929 109.1396668
 136.2153128  87.8476570 112.8808649 136.7387530  88.0938866 113.6434958
 135.9965461  88.6796604 112.4611786 131.6120409  90.1180244 100.7479773
 131.2833115  89.2377623 100.5654879 131.9659779  90.0627913 101.6356163
 140.8599988 101.7535147 105.2574759 140.7124950 100.8251854 105.4382329
 141.6853481 101.7755238 104.7731834 134.7262232  90.4053214 101.1155251
 135.0658304  90.9339135 100.3933859 135.1734352  90.7433620 101.8913818
 144.4634109 102.5763706 106.3439632 145.3880657 102.3706567 106.2064083
 144.2949413 102.3280107 107.2528973 137.4205673  88.7890265 110.5658319
 137.0802493  87.9898078 110.9678999 136.7144679  89.0891975 109.9935152
 138.0722145  85.8739577 109.0185642 138.8948214  85.4000055 108.8964532
 138.3160208  86.6530061 109.5184328 136.7130379  88.9027836  99.3148544
 137.4338742  89.2809088  98.8112261 136.0895683  89.6216712  99.4183522
 140.8561502  89.6072984 100.2506876 141.0725116  90.4897622  99.9495704
 140.3755569  89.2159198  99.5212518 135.5960723  92.5658698 106.8277621
 135.4505304  92.8799001 107.7201902 135.1185927  93.1843598 106.2748519
 137.4557106  89.5561246 106.8758510 137.4418675  88.6602339 106.5390808
 138.1729534  89.5631909 107.5096796 139.3083237  89.9898586 108.9211638
 139.0501015  90.9115657 108.9195968 138.7768277  89.5929020 109.6112102
 144.2529426 103.0949373 101.7001723 144.4266303 102.5295796 100.9475576
 144.7458317 103.8950268 101.5181213 130.0706385  95.1064042 109.7665282
 129.5259854  95.8823850 109.8985556 130.9485735  95.4534847 109.6084403
 136.8594002  88.4375626 102.1446080 136.9809913  87.5092272 102.3436968
 136.5696045  88.4514312 101.2324396 139.7285193  86.1230536 105.2812800
 139.7506889  86.1869870 104.3264780 140.1453252  85.2835045 105.4753306
 150.1068817  95.8585796 103.3192023 150.5499963  95.1093121 102.9211146
 149.2295327  95.8495932 102.9365755 145.2404598 102.4116137  98.7998621
 145.9355503 103.0322830  99.0185936 145.5827748 101.5611489  99.0750999
 130.8572407  94.2333938 112.6595439 130.1154143  94.3816574 113.2460069
 130.5365152  94.4942204 111.7962188 147.1396021  99.8615843 100.3285952
 147.6647345 100.2003116  99.6035272 147.0518374  98.9262858 100.1449087
 138.8016070 103.7749917 112.4575829 139.1103196 103.5299063 113.3298528
 139.5991552 103.9796555 111.9694699 138.8236682 105.9287826 104.6881205
 138.3841672 105.4364205 105.3814062 139.5744799 105.3860794 104.4473281
 131.3029021 102.1199367 104.6905833 132.1287041 101.8203139 104.3104477
 130.9523073 101.3506990 105.1395622 136.2710554 101.4725835 106.7603507
 135.6490563 100.8096540 106.4605735 136.9415421 101.4986967 106.0777155
 129.5037626 100.0385694 105.6494767 128.6669534  99.6107868 105.4678768
 129.4761271 100.2318137 106.5865558 136.3435082  89.9507623 116.3536013
 136.3923237  90.8269746 115.9713783 136.8857596  89.4085016 115.7807656
 146.8289927 100.4948747 115.6337150 146.0385471 100.4772885 115.0941650
 146.5923282 101.0337040 116.3886187 146.9487802  97.3441213 112.9469879
 146.9985807  97.1791220 113.8885401 146.8401726  96.4768472 112.5567759
 135.8324061 100.0229759 100.2361968 135.9812181 100.7065223  99.5828640
 136.6390505 100.0034849 100.7511423 144.2391565  93.3272141 114.2629185
 145.1401428  93.1878606 113.9713183 144.3139539  93.4926596 115.2027363
 138.5734370  90.7038996 113.1082372 137.7037680  90.9972562 112.8364960
 138.8093850  91.2879441 113.8289635 148.4505999  99.7638154 113.1911900
 148.1590808 100.1268135 114.0275361 147.8378131  99.0505163 113.0125232
 149.6501682  97.3291034 105.7114470 150.4848573  97.7680838 105.8752031
 149.7860810  96.8529687 104.8922716 146.6993187  94.8870769 111.6591958
 147.1747309  95.0798415 110.8510810 145.7758753  94.9429955 111.4135342
 133.5876694  96.0494936 101.2423036 133.3422736  95.1457266 101.4403247
 133.7572609  96.0512087 100.3002514 141.2773404  86.9218613 110.6247792
 141.7955348  87.6579640 110.2994281 140.9228537  87.2282606 111.4594551
 132.8572342  91.7823294  98.7409198 132.1641587  91.8567649  98.0849234
 132.6124094  91.0183638  99.2630715 141.5285998  83.3418895 106.1448689
 141.8087752  82.6742084 106.7709115 142.3136605  83.5347991 105.6323352
 139.3319467 102.5177889  97.7073715 138.7593434 103.1368076  97.2544187
 139.9052260 103.0677251  98.2413637 145.3994856  91.7636529 109.8920264
 146.3512279  91.8634627 109.9132488 145.2298307  90.9714798 110.4018348
 143.4209236  88.8492112 110.0779665 142.8259168  89.1297125 109.3826153
 143.1358933  89.3386013 110.8496406 142.5516726 102.8015039  98.8382297
 143.4847400 102.7360601  99.0415173 142.4639939 103.6371306  98.3796830
 145.1804743 102.1180910  95.7986245 145.1018375 101.7840773  96.6922003
 146.0014410 102.6102678  95.7977717 147.8782934  94.9842649 109.0062563
 147.8459254  94.0458650 109.1922247 148.4883558  95.0626686 108.2728388
 139.7166265  93.8538702  95.0489767 140.6625370  93.7244910  95.1178185
 139.3380510  93.1153364  95.5259196 148.0277423  91.7753692 109.0520847
 147.5116471  90.9912149 108.8650775 148.9117371  91.4472409 109.2167366
 145.6888150  85.5194708 105.0116659 145.4912971  85.2109796 105.8959991
 146.2987855  86.2456347 105.1414589 153.6959484  96.0458656 108.1468600
 154.4262873  95.7843944 108.7076304 153.0866430  95.3087378 108.1870668
 151.7774781  94.1866518 108.7443051 151.0507945  94.0522483 108.1359543
 151.3622068  94.4943347 109.5499769 139.6004958  97.9056448 116.5090424
 140.5207967  98.0835047 116.7030471 139.5654541  96.9612493 116.3570124
 137.9009182  91.7788678  94.9844653 136.9940638  91.4821791  95.0607366
 138.1785163  91.4818496  94.1178939 128.8187123  93.0995042 105.4343699
 128.4989907  92.2460350 105.1418073 128.2720551  93.3143620 106.1901666
 132.5967030  95.8157483 109.1513206 132.8153040  96.7474590 109.1701239
 133.0092804  95.4565457 109.9368009 139.5171248  86.3225568 101.1388894
 138.7071976  85.9772653 101.5144140 140.2055665  86.0133112 101.7276506
 141.4461796  85.4003615 102.7613191 141.9992835  85.8199068 103.4203214
 141.6831883  84.4739363 102.8036147 137.4694896  91.3890688 118.5415955
 137.3691622  92.3385045 118.4728046 137.2516438  91.0608927 117.6692025
 136.6707967  88.6375613  95.1256632 137.5327131  88.9630512  95.3852449
 136.8558311  87.8507109  94.6129698 128.6875383  96.7197953 107.4036821
 127.9938854  96.3051906 106.8906775 129.4348374  96.7618490 106.8070240
 144.8240603  87.5104140 102.2691855 144.2439272  88.1688944 101.8869907
 144.5576536  86.6881485 101.8579272 143.2744170  86.9109198 104.4713175
 143.7743948  87.0225732 103.6627494 143.9179778  86.6070250 105.1113984
 137.3326166  94.8187827 117.3581016 136.8493247  95.6188187 117.5644905
 137.4187105  94.8295772 116.4048460 130.6012125  96.6516207 105.2802836
 130.5782813  96.7503894 104.3284719 130.9112762  97.4981358 105.6020002
 133.2599503  98.7092362 109.3949450 134.2142757  98.6776304 109.3279382
 133.0612027  98.2482986 110.2099676 133.8498885  97.2793478 111.9620248
 134.6691774  97.7737557 111.9855085 134.1235693  96.3625446 111.9337815
 143.6065481  89.6704230 101.3248203 142.7191336  89.9553881 101.1068398
 144.0219470  89.5097994 100.4775480 146.9580018  89.6950751 105.0402542
 147.7340408  90.1847204 105.3127159 146.2328152  90.1208805 105.4974412
 149.3952576  90.4078371 106.0976483 149.9897067  90.1674106 105.3869791
 149.4679160  89.6885501 106.7250019 131.6149732 104.2511981 106.4119648
 131.4804200 103.4912382 105.8457646 131.1981794 104.9752881 105.9448437
 142.7508695  99.4348905  95.4196223 143.4544545  99.6398907  96.0353879
 142.0271344 100.0025667  95.6845307 143.5806505  95.1858766 101.5398493
 143.5241707  95.6427318 100.7006126 144.1334848  94.4249451 101.3621336
 147.3911311  90.9748498 102.3648613 147.1348245  90.5745134 103.1956820
 146.7664179  91.6892292 102.2398752 151.7023649  93.7144571 104.8719904
 151.1423207  93.7837761 105.6451466 151.0967152  93.5385556 104.1519400
 134.7718858 105.1481298 106.6238090 134.6551242 106.0926731 106.5216781
 133.9511304 104.8454860 107.0123890 144.6595392  99.8731434  97.4694683
 145.4940996  99.4412633  97.2872158 144.4979735  99.7013448  98.3971578
 144.3141284  96.3763548  98.8351022 144.2590088  96.2107819  97.8939467
 143.6887340  97.0839580  98.9913212 129.1033799  91.6131612 112.6612445
 129.7492663  91.1030566 113.1499670 128.8950951  92.3500294 113.2355870
 141.6287192  98.6812459 118.1604585 142.4978351  98.8553112 117.7991220
 141.1493943  99.5006876 118.0380315 137.6237410  85.8771657  98.4136341
 137.6116080  86.8213496  98.5704612 138.5160832  85.6941802  98.1195802
 135.7973372 105.8009560 109.8394019 136.7000619 105.8333171 110.1560514
 135.5710742 104.8710011 109.8540355 137.5526974 104.5540547 106.5004098
 136.6022605 104.5542409 106.3868470 137.8559460 103.8073281 105.9840132
 141.4389529  82.4714433 102.6682278 140.6721925  81.9172920 102.8138960
 141.8500234  82.5436302 103.5296429 133.4431290  88.7599229 116.7587459
 134.3062752  88.4036034 116.9690783 132.8696701  88.4213124 117.4462863
 153.2879667 110.3901085 107.5649860 153.9258077 110.2707833 106.8613200
 153.1700510 111.3381929 107.6237812 150.0969374 110.3428513 107.5011385
 149.7587885 110.2269578 106.6131919 150.9659142 109.9419679 107.4812391
 145.9556189 112.1963990 103.4908276 145.3921054 112.1053927 102.7224563
 145.8408584 111.3763894 103.9710768 150.5789157 111.4963365 113.4597590
 150.5677797 111.1016163 112.5878094 150.7409796 110.7629438 114.0531362
 143.5020621 113.6915181 106.3292496 144.2941913 113.3506006 105.9138795
 143.7417271 113.8010156 107.2494649 151.5355748 115.8634958  98.8022740
 150.8843728 116.4489038  98.4156754 152.3300111 116.3941152  98.8617778
 145.4611375 112.9524095  99.2009875 146.2342251 112.4053082  99.0622751
 145.8136774 113.8168344  99.4124336 147.2996418 114.2800477 112.4076774
 147.0086284 115.1846108 112.2923440 147.9353402 114.3217005 113.1220844
 148.2252625 111.6577325 108.9978134 148.8216197 111.4333348 108.2835097
 148.2827596 110.9162071 109.6003582 147.7977653 109.1116761  96.8328325
 148.0503174 108.5898282  96.0711788 146.8602212 108.9482906  96.9355008
 152.8420936 108.1152539 104.6403068 153.6284025 107.6971962 104.2893485
 153.1059640 109.0198631 104.8084716 153.0131013 113.5525389  99.3391725
 152.3776846 113.6260016 100.0512629 152.6828420 114.1418988  98.6610804
 158.2429363 108.0527772 105.5436046 158.9754535 107.4826989 105.7773876
 157.4868719 107.6649373 105.9842552 147.5173942 111.0144867  99.0352700
 147.4010200 110.3389770  99.7033784 147.6276202 110.5277241  98.2184853
 149.8605483 110.4755014 102.7399389 149.4963690 109.9485635 103.4512310
 150.7172599 110.0853483 102.5665874 155.7654783 101.7649346 110.0030655
 155.4338108 102.6344757 109.7791870 155.1700397 101.4485630 110.6824685
 149.5010970 105.5044914  97.7360737 149.6685372 106.3725150  98.1031208
 149.3108139 105.6672195  96.8122027 152.2586303 113.9661892 109.4026568
 151.9587026 114.8686931 109.2942375 151.9137362 113.6994076 110.2547721
 145.7098784 110.4175689 105.4363272 144.7849281 110.2851903 105.6440964
 145.9583198 111.1969909 105.9333215 155.6583447 106.4844433 107.0824005
 154.7500324 106.4159841 106.7882766 155.6071042 106.9616378 107.9105831
 149.4800191 107.9602571  98.7207404 149.3599816 108.4059622  99.5592885
 148.7852779 108.3087889  98.1620942 143.0707595 110.0608963 106.2707061
 143.1999977 110.3143442 107.1846473 142.3905047 110.6536671 105.9511716
 147.2407083 120.7306213 102.3697536 147.1631112 121.6814038 102.4486016
 146.6368726 120.3852085 103.0272462 149.7324312 107.9034078 115.0258902
 148.9557646 108.4627998 115.0161767 150.3714875 108.3890861 115.5473773
 157.5245093 104.6860871 108.8601879 156.8819473 104.9793404 108.2141674
 157.0200022 104.5713791 109.6655076 155.1785257 108.4324044  99.5487738
 156.0903113 108.6651431  99.3735436 154.6694904 109.0161088  98.9862817
 147.9870685 110.7119532 114.5876869 148.7285369 111.2504576 114.3111693
 147.2807670 111.3385820 114.7448421 153.4626024 112.8548672 113.1849031
 153.8709380 112.4131083 112.4403663 152.7403286 112.2801300 113.4383224
 149.8157094 107.7921279 110.5582588 150.6618290 108.2160692 110.7017237
 149.7555732 107.1354903 111.2521151 153.7854839 113.4149863 106.9401320
 153.1563701 113.5795577 106.2377388 153.3980501 113.8291472 107.7112284
 157.6644071 114.3504301 104.2945684 156.9795109 114.7303202 103.7442717
 157.7487920 114.9599627 105.0277631 152.9656540 105.4525647 112.2163761
 152.7217472 106.2067708 111.6798037 153.2416470 105.8310995 113.0511009
 154.9195003 111.9964260 110.8941027 155.1311898 112.6396019 110.2175408
 154.8724751 111.1626576 110.4262957 152.5221231 104.6082080 107.7977599
 151.6605711 104.9063334 108.0894337 152.5483666 104.8252479 106.8658632
 149.3382801 113.1524271 104.2051405 149.8021146 113.4311974 103.4156027
 149.0739599 112.2507715 104.0224496 146.2306882 112.6995752 107.1431168
 146.8008239 113.1283021 106.5048653 146.8214994 112.4178337 107.8415354
 148.2751687 109.2747423 101.0140970 148.9775730 109.7268467 101.4814896
 147.9432315 108.6331242 101.6420863 146.7232048 107.8659180 115.3892179
 146.0930709 108.5475461 115.6227576 146.6168136 107.7542261 114.4445318
 142.0177021 107.5330976 106.3158104 141.2276075 107.7888504 105.8398214
 142.5088268 108.3479314 106.4210144 156.0340830 114.8736215 109.0663384
 156.8558274 114.4716402 108.7846066 156.0303233 114.7704449 110.0179500
 143.9691766 107.8975555 103.2741580 143.1722930 108.0094249 103.7925076
 143.7417358 108.2362207 102.4082471 149.7997434 114.4220258 111.2224095
 149.8641866 114.8840666 112.0582267 149.0908358 113.7917623 111.3506405
 140.3014724 107.7861466 108.7473094 140.5522762 108.6708476 109.0130670
 140.8374272 107.6066068 107.9748186 149.5145452 116.0888366 101.0903075
 149.3791126 116.9339901 101.5187923 150.0555264 116.2907643 100.3269009
 146.0012791 102.1679946 117.7517430 145.6079737 101.6146144 118.4265075
 146.8178932 102.4790524 118.1423948 142.9674849 113.6063804 101.6631000
 143.4799370 114.4007054 101.8136565 143.6197562 112.9090094 101.5964602
 144.7769734 116.7229560 103.7453753 144.9536362 117.6447525 103.5574737
 145.5726567 116.4087979 104.1748133 148.9180752 103.5837825 115.3437687
 149.6590466 104.1844978 115.2642149 149.1498675 102.8415462 114.7855730
 144.0622090 108.7694192 113.6215917 143.9475605 107.8679449 113.9223016
 143.2066608 109.0157889 113.2700733 151.1413928 116.7111932 115.2203417
 150.6977782 115.9248311 114.9024322 151.8031142 116.8991083 114.5547308
 145.9001049 118.2407734 109.7464096 146.4508474 118.1124797 108.9741090
 145.0612525 118.5402623 109.3958989 153.2395166 116.9914732 113.2484819
 153.2213641 117.8123613 112.7565088 154.1615086 116.8668807 113.4734960
 149.6968220 114.5058862 114.0908327 150.2296557 113.7447150 113.8607635
 149.1682301 114.2132513 114.8332481 152.8637915  99.6118928 109.6201969
 152.5202185 100.5020569 109.5441079 153.2316878  99.4220585 108.7571554
 140.9323766 111.9352458 102.4390571 141.7698988 112.3449466 102.2224279
 141.1102033 110.9951900 102.4090765 152.8288198 109.6027539  98.1274404
 152.3134821 110.3732143  98.3662791 152.5565506 108.9292675  98.7507465
 150.4135309 104.4477240 103.1859642 149.5576905 104.0584090 103.0065281
 150.8262261 104.5269200 102.3259428 151.9434456 101.9823583 107.5851202
 151.4399251 101.9453718 106.7719007 152.2365062 102.8916326 107.6447859
 148.1877341 102.0662313 106.5917384 149.0530338 101.8705121 106.2323273
 148.2554850 101.8372664 107.5186740 157.8022472 112.3559893 100.0627577
 157.0251915 112.0171053  99.6182739 158.4813953 112.3612517  99.3882542
 152.6174501 107.4754631  99.9534185 152.3124637 107.7900780 100.8044328
 153.5704943 107.5536051  99.9961518 151.0620933 113.6344854 101.6027139
 150.5342294 112.8997614 101.2900376 150.5608436 114.4119531 101.3567107
 156.0413779 111.8293875 106.7194185 155.3837453 112.5193136 106.8074314
 156.8454178 112.2190307 107.0628172 145.7939660 104.2964520 103.9633750
 146.3683412 104.0739702 103.2306943 146.3810643 104.3653215 104.7162352
 154.8519238 110.1838247 104.7698127 155.3651119 110.8168239 105.2719837
 155.5020462 109.5839443 104.4041487 146.1209248 106.3268981  97.9829636
 145.2846560 106.6643668  98.3038910 145.9814017 106.1917961  97.0456773
 148.0962328 101.1705769 102.6908820 147.4426741 100.8554787 102.0665435
 148.0542802 100.5481510 103.4168643 149.2073533 111.4525064  94.6062112
 148.3000595 111.2214318  94.8053261 149.7044565 110.6562684  94.7936094
 152.1141612 120.1622572  97.5258798 151.4403311 120.4654268  98.1343756
 152.5007434 120.9651652  97.1764255 151.3300069 107.6587703 107.0156468
 150.4122630 107.8802650 106.8578156 151.7460212 107.7334013 106.1568175
 152.1135116 109.0579119 102.1459148 152.8606935 109.5700516 101.8366270
 152.3826706 108.7363171 103.0063541 150.3861766 111.5537659  99.1286102
 149.4772986 111.2696692  99.2258572 150.4156850 111.9736738  98.2689409
 155.6181034 115.1644249 102.8977270 155.1643361 114.3235159 102.9542460
 154.9875001 115.8005647 103.2352050 154.5613953 106.0936235 104.1277937
 153.8236710 105.5813621 104.4588180 154.8140727 105.6536616 103.3161214
 154.0613973 117.0020745 103.8327088 154.3536948 117.5625803 103.1139453
 154.5712594 117.2949306 104.5880247 154.6625581  98.8712487 104.7219706
 154.9684458  98.0109850 104.4345621 155.3878186  99.4630107 104.5218700
 140.9549937 109.2743173 103.1101304 140.7574337 108.6812534 102.3852371
 140.3996601 108.9695384 103.8277243 148.9346661 109.1666280 105.2295897
 148.9895270 108.2140116 105.1538374 148.1237863 109.3225719 105.7137196
 150.0837854 113.0946403  96.4674181 149.6457284 112.3782262  96.0079818
 150.8248295 113.3222518  95.9059272 146.8739020 107.7843340 102.9886276
 146.0606886 108.0837510 103.3951468 147.3698015 107.3899028 103.7060759
 149.0247598 117.7801097 104.9220541 148.9823777 118.0061943 103.9929073
 149.9410297 117.5464471 105.0706342 152.4713232 108.2485164 111.8201170
 152.8262620 108.4756637 112.6795636 153.1185363 108.5803541 111.1978426
 158.2010969 111.3703600 102.5250499 158.0628868 111.5605196 101.5971688
 157.8447188 112.1322983 102.9818550 146.3653095 105.3561695 108.6047511
 147.0052475 105.2150454 107.9070475 145.5330626 105.0696209 108.2286113
 158.2280349 113.4380127 107.5361771 158.6616855 113.3455416 108.3844825
 158.9411929 113.4137627 106.8981787 147.1413399 114.6564126 104.7182504
 147.9353998 114.1614446 104.5165079 146.4305091 114.1281989 104.3550209
 151.9608244 117.0382221 109.0694871 152.0145266 117.6073157 109.8372587
 151.0923025 117.2084106 108.7048908 143.4496163 108.8007207 100.7942256
 142.5193751 108.7391663 101.0112219 143.5453635 108.2783160  99.9978898
 143.3681712 105.3262020 103.3820498 143.6288529 106.2407353 103.2729659
 144.1898884 104.8586463 103.5317111 144.8406637 106.7399777 110.5519323
 145.5129690 106.5317139 109.9031972 144.0136423 106.5421863 110.1124555
 150.7432209 103.3661718 112.5684983 150.0960124 104.0651668 112.4749460
 151.5133224 103.7997862 112.9361232 154.1511007 113.6310570 115.6435537
 153.9996513 113.4021122 114.7265620 154.1415686 114.5881172 115.6566882
 150.9196343 111.2042483 110.6281803 151.8488403 111.3553643 110.4550771
 150.4987373 111.2926504 109.7730450 149.7184675 115.2293148 108.3980341
 149.5795761 114.8611932 109.2706279 148.9299271 115.7440787 108.2264299
 150.3132827 120.3302244  99.7405877 150.4884583 119.8590287 100.5551500
 149.6265615 120.9568010  99.9687138 151.2689890 114.6074750 105.7869179
 150.9339723 114.5675520 106.6826828 150.7693836 113.9419466 105.3139589
 145.2434134 110.0142380 111.3121760 145.1053932 109.2822619 111.9133299
 146.1539058 109.9251280 111.0305948 154.2049082 111.9530785  96.0606238
 153.5878253 111.2277613  95.9639291 153.7365570 112.7140145  95.7173313
 147.8716435 109.7262340 110.8005439 148.5816053 109.0855532 110.7592058
 147.8285743 109.9775234 111.7231620 155.8603214 116.6629693 113.7212019
 155.8015760 115.9788913 113.0542602 156.2622732 117.4048683 113.2692645
 146.5845369 106.7127558 112.6201079 146.0482726 106.2618296 113.2722675
 145.9962077 106.8473466 111.8771543 144.8793912 123.4791607 106.5145738
 145.1190511 124.1110131 107.1924756 144.0363109 123.1279647 106.8011097
 145.9947628 106.1716209  95.1827543 145.1177094 106.0505010  94.8189789
 146.4705381 105.3802287  94.9306431 155.8620621 114.6269277 111.9525998
 154.9747400 114.2895199 112.0752397 156.4319172 113.8952308 112.1894764
 137.5149768 110.9593369 105.2769050 138.2020808 110.6455099 104.6890065
 137.3597897 111.8634733 105.0036301 142.3184490 105.8483565 109.7054073
 142.2342679 105.2409235 108.9704483 141.4967196 106.3392584 109.7063570
 149.3921774 119.2870729 108.9187242 149.3191946 120.0925701 109.4306546
 148.9499167 119.4862695 108.0935263 149.1811554 118.5242499 102.4290063
 148.3979076 119.0664179 102.5228288 149.8804299 119.0416479 102.8284304
 152.4908204 104.3337129 105.0724268 152.9876904 103.5807091 104.7525339
 151.7195185 104.3701445 104.5067478 151.8520458 119.1857563 111.0745400
 152.5648430 119.8205028 111.0021302 151.3610486 119.2821429 110.2585402
 153.5737985 113.0908816 102.6462692 152.6394263 113.2110278 102.4767396
 153.7514653 112.1881283 102.3822702 149.0743173 106.4754512 104.7995953
 148.7040960 105.9225552 105.4876859 149.5702265 105.8712645 104.2470953
 156.9610536 108.9326135 103.1812726 157.4270988 109.7654127 103.1073029
 157.4118037 108.4671117 103.8857984 146.9032371 116.9352007 111.8950971
 147.6041831 117.5688490 112.0480365 146.4327486 117.2766738 111.1346610
 155.0286767 115.2769957 100.1798878 155.3046611 115.1626551 101.0892752
 154.1591266 114.8787441 100.1411051 154.9327199 101.3006722 107.2203627
 154.0190279 101.5310949 107.3885834 155.3620300 101.3845166 108.0717660
 154.7033657 109.4896614 109.7203521 154.0505107 109.7372522 109.0655974
 155.0814037 108.6760752 109.3865999 151.6640831 119.5256307 103.8231692
 151.8463226 118.7077963 104.2859444 152.4873817 119.7424000 103.3856582
 151.9982997 118.4524492 101.0846740 152.5270763 117.9416947 100.4716902
 152.2611216 118.1367023 101.9492273 150.7521230 110.2316425 116.2069558
 150.0761867 110.1310555 116.8771934 151.5748864 110.0755639 116.6705556
 142.5000089 116.4688362 108.8282074 143.0853526 115.7232050 108.9609978
 142.3024928 116.7792318 109.7118738 145.3538745 119.5039609 103.8444516
 144.6849120 119.9885737 103.3608556 145.2151614 119.7508830 104.7587895
 137.0917744 109.0393962 107.5486517 137.1301844 108.5057553 108.3423635
 136.5858037 108.5129168 106.9297494 149.4944013 121.5383353 110.4427174
 150.0462321 121.7014974 111.2076260 149.8350207 122.1287791 109.7707199
 144.4708506 103.8858503 111.0449059 144.5349833 104.7473333 110.6326457
 144.4075627 103.2732504 110.3121418 143.9460779 105.9581635 114.6922093
 144.5732818 105.5758712 115.3059618 143.0888698 105.7395837 115.0577786
 154.3454887 116.3644610 116.2975829 154.8894791 116.9774568 115.8030784
 153.7641732 116.9224189 116.8142842 140.7226322 107.7658064 100.6240448
 141.0179763 106.8568743 100.5707502 139.8214357 107.7445804 100.3021451
 152.6312400 119.4865328 107.4290857 152.5063540 118.6855068 106.9201802
 153.2891492 119.9811522 106.9404827 144.2520569 105.8414061 106.6067997
 143.5307154 106.4550028 106.4675470 145.0413824 106.3771826 106.5284643
 154.6947309 117.2874348 109.0570407 153.7477644 117.1679699 108.9848733
 155.0430082 116.3996846 109.1396668 147.0546882 103.1768487 112.8808649
 147.5781284 103.4230784 113.6434958 146.8359215 104.0088522 112.4611786
 142.4514163 105.4472162 100.7479773 142.1226869 104.5669541 100.5654879
 142.8053534 105.3919831 101.6356163 151.6993742 117.0827065 105.2574759
 151.5518705 116.1543772 105.4382329 152.5247236 117.1047155 104.7731834
 145.5655986 105.7345132 101.1155251 145.9052059 106.2631053 100.3933859
 146.0128107 106.0725538 101.8913818 155.3027864 117.9055623 106.3439632
 156.2274411 117.6998485 106.2064083 155.1343167 117.6572024 107.2528973
 148.2599427 104.1182182 110.5658319 147.9196248 103.3189995 110.9678999
 147.5538433 104.4183893 109.9935152 148.9115899 101.2031495 109.0185642
 149.7341968 100.7291973 108.8964532 149.1553963 101.9821979 109.5184328
 147.5524134 104.2319753  99.3148544 148.2732496 104.6101006  98.8112261
 146.9289438 104.9508630  99.4183522 151.6955256 104.9364902 100.2506876
 151.9118871 105.8189540  99.9495704 151.2149324 104.5451116  99.5212518
 146.4354478 107.8950615 106.8277621 146.2899059 108.2090918 107.7201902
 145.9579681 108.5135516 106.2748519 148.2950861 104.8853163 106.8758510
 148.2812429 103.9894257 106.5390808 149.0123289 104.8923827 107.5096796
 150.1476991 105.3190504 108.9211638 149.8894769 106.2407574 108.9195968
 149.6162032 104.9220938 109.6112102 155.0923180 118.4241291 101.7001723
 155.2660058 117.8587713 100.9475576 155.5852071 119.2242186 101.5181213
 140.9100140 110.4355960 109.7665282 140.3653608 111.2115768 109.8985556
 141.7879490 110.7826764 109.6084403 147.6987757 103.7667544 102.1446080
 147.8203668 102.8384190 102.3436968 147.4089799 103.7806230 101.2324396
 150.5678947 101.4522454 105.2812800 150.5900644 101.5161787 104.3264780
 150.9847006 100.6126963 105.4753306 156.0798353 117.7408055  98.7998621
 156.7749257 118.3614748  99.0185936 156.4221503 116.8903406  99.0750999
 141.6966162 109.5625856 112.6595439 140.9547898 109.7108491 113.2460069
 141.3758906 109.8234122 111.7962188 157.9789776 115.1907761 100.3285952
 158.5041100 115.5295033  99.6035272 157.8912128 114.2554776 100.1449087
 149.6409824 119.1041834 112.4575829 149.9496951 118.8590981 113.3298528
 150.4385306 119.3088473 111.9694699 149.6630437 121.2579744 104.6881205
 149.2235427 120.7656123 105.3814062 150.4138553 120.7152712 104.4473281
 142.1422776 117.4491285 104.6905833 142.9680795 117.1495057 104.3104477
 141.7916827 116.6798907 105.1395622 147.1104309 116.8017753 106.7603507
 146.4884318 116.1388458 106.4605735 147.7809176 116.8278885 106.0777155
 140.3431381 115.3677611 105.6494767 139.5063289 114.9399786 105.4678768
 140.3155026 115.5610055 106.5865558 147.1828836 105.2799541 116.3536013
 147.2316992 106.1561664 115.9713783 147.7251350 104.7376934 115.7807656
 157.6683682 115.8240664 115.6337150 156.8779226 115.8064803 115.0941650
 157.4317036 116.3628958 116.3886187 157.7881557 112.6733131 112.9469879
 157.8379562 112.5083138 113.8885401 157.6795480 111.8060390 112.5567759
 146.6717816 115.3521676 100.2361968 146.8205936 116.0357141  99.5828640
 147.4784259 115.3326766 100.7511423 155.0785319 108.6564059 114.2629185
 155.9795182 108.5170524 113.9713183 155.1533294 108.8218514 115.2027363
 149.4128125 106.0330913 113.1082372 148.5431434 106.3264479 112.8364960
 149.6487605 106.6171358 113.8289635 157.5386942 110.2162687 111.6591958
 158.0141064 110.4090333 110.8510810 156.6152507 110.2721873 111.4135342
 144.4270449 111.3786854 101.2423036 144.1816491 110.4749184 101.4403247
 144.5966363 111.3804004 100.3002514 152.1167158 102.2510530 110.6247792
 152.6349102 102.9871557 110.2994281 151.7622291 102.5574524 111.4594551
 143.6966096 107.1115212  98.7409198 143.0035341 107.1859567  98.0849234
 143.4517848 106.3475555  99.2630715 152.3679753  98.6710813 106.1448689
 152.6481506  98.0034002 106.7709115 153.1530360  98.8639909 105.6323352
 150.1713221 117.8469807  97.7073715 149.5987188 118.4659994  97.2544187
 150.7446015 118.3969168  98.2413637 156.2388611 107.0928447 109.8920264
 157.1906034 107.1926545 109.9132488 156.0692061 106.3006715 110.4018348
 154.2602990 104.1784030 110.0779665 153.6652923 104.4589043 109.3826153
 153.9752687 104.6677931 110.8496406 153.3910481 118.1306957  98.8382297
 154.3241154 118.0652519  99.0415173 153.3033694 118.9663224  98.3796830
 156.0198498 117.4472827  95.7986245 155.9412129 117.1132691  96.6922003
 156.8408164 117.9394595  95.7977717 150.5560020 109.1830620  95.0489767
 151.5019124 109.0536828  95.1178185 150.1774265 108.4445281  95.5259196
 156.5281904 100.8486626 105.0116659 156.3306725 100.5401714 105.8959991
 157.1381610 101.5748264 105.1414589 150.4398712 113.2348366 116.5090424
 151.3601722 113.4126965 116.7030471 150.4048295 112.2904411 116.3570124
 148.7402937 107.1080596  94.9844653 147.8334392 106.8113709  95.0607366
 149.0178918 106.8110414  94.1178939 139.6580877 108.4286959 105.4343699
 139.3383661 107.5752268 105.1418073 139.1114305 108.6435537 106.1901666
 143.4360785 111.1449400 109.1513206 143.6546794 112.0766508 109.1701239
 143.8486559 110.7857375 109.9368009 150.3565002 101.6517486 101.1388894
 149.5465731 101.3064571 101.5144140 151.0449419 101.3425029 101.7276506
 152.2855551 100.7295532 102.7613191 152.8386589 101.1490986 103.4203214
 152.5225637  99.8031281 102.8036147 148.3088650 106.7182606 118.5415955
 148.2085377 107.6676963 118.4728046 148.0910192 106.3900845 117.6692025
 147.5101721 103.9667531  95.1256632 148.3720885 104.2922429  95.3852449
 147.6952066 103.1799027  94.6129698 139.5269137 112.0489871 107.4036821
 138.8332609 111.6343824 106.8906775 140.2742128 112.0910407 106.8070240
 155.6634358 102.8396058 102.2691855 155.0833027 103.4980862 101.8869907
 155.3970291 102.0173402 101.8579272 154.1137924 102.2401115 104.4713175
 154.6137703 102.3517650 103.6627494 154.7573532 101.9362168 105.1113984
 148.1719920 110.1479745 117.3581016 147.6887002 110.9480105 117.5644905
 148.2580859 110.1587690 116.4048460 141.4405880 111.9808125 105.2802836
 141.4176568 112.0795812 104.3284719 141.7506516 112.8273275 105.6020002
 144.0993258 114.0384280 109.3949450 145.0536511 114.0068222 109.3279382
 143.9005781 113.5774903 110.2099676 144.6892640 112.6085396 111.9620248
 145.5085529 113.1029474 111.9855085 144.9629447 111.6917364 111.9337815
 154.4459236 104.9996148 101.3248203 153.5585091 105.2845799 101.1068398
 154.8613225 104.8389911 100.4775480 157.7973772 105.0242669 105.0402542
 158.5734162 105.5139121 105.3127159 157.0721906 105.4500723 105.4974412
 142.4543486 119.5803899 106.4119648 142.3197954 118.8204300 105.8457646
 142.0375549 120.3044799 105.9448437 153.5902449 114.7640823  95.4196223
 154.2938299 114.9690825  96.0353879 152.8665098 115.3317585  95.6845307
 154.4200260 110.5150684 101.5398493 154.3635461 110.9719235 100.7006126
 154.9728602 109.7541369 101.3621336 158.2305066 106.3040416 102.3648613
 157.9742000 105.9037051 103.1956820 157.6057934 107.0184210 102.2398752
 145.6112612 120.4773216 106.6238090 145.4944996 121.4218649 106.5216781
 144.7905058 120.1746778 107.0123890 155.4989147 115.2023352  97.4694683
 156.3334751 114.7704550  97.2872158 155.3373490 115.0305366  98.3971578
 155.1535039 111.7055465  98.8351022 155.0983843 111.5399737  97.8939467
 154.5281094 112.4131498  98.9913212 139.9427554 106.9423530 112.6612445
 140.5886418 106.4322484 113.1499670 139.7344705 107.6792211 113.2355870
 152.4680946 114.0104377 118.1604585 153.3372106 114.1845029 117.7991220
 151.9887698 114.8298794 118.0380315 148.4631164 101.2063574  98.4136341
 148.4509834 102.1505414  98.5704612 149.3554586 101.0233720  98.1195802
 146.6367126 121.1301478 109.8394019 147.5394373 121.1625088 110.1560514
 146.4104496 120.2001929 109.8540355 148.3920728 119.8832465 106.5004098
 147.4416359 119.8834326 106.3868470 148.6953214 119.1365199 105.9840132
 152.2783284  97.8006351 102.6682278 151.5115680  97.2464838 102.8138960
 152.6893989  97.8728220 103.5296429 144.2825045 104.0891147 116.7587459
 145.1456506 103.7327951 116.9690783 143.7090456 103.7505041 117.4462863
 156.7949944 127.5255908 103.4908276 156.2314809 127.4345844 102.7224563
 156.6802339 126.7055812 103.9710768 154.3414376 129.0207099 106.3292496
 155.1335668 128.6797924 105.9138795 154.5811026 129.1302074 107.2494649
 156.3005130 128.2816012  99.2009875 157.0736006 127.7344999  99.0622751
 156.6530529 129.1460262  99.4124336 158.1390172 129.6092395 112.4076774
 157.8480038 130.5138025 112.2923440 158.7747157 129.6508922 113.1220844
 158.6371408 124.4408678  96.8328325 158.8896928 123.9190200  96.0711788
 157.6995967 124.2774824  96.9355008 158.3567696 126.3436784  99.0352700
 158.2403954 125.6681688  99.7033784 158.4669956 125.8569158  98.2184853
 156.5492539 125.7467607 105.4363272 155.6243035 125.6143821 105.6440964
 156.7976952 126.5261826 105.9333215 153.9101350 125.3900881 106.2707061
 154.0393731 125.6435359 107.1846473 153.2298801 125.9828589 105.9511716
 157.0700636 128.0287670 107.1431168 157.6401994 128.4574938 106.5048653
 157.6608748 127.7470255 107.8415354 157.5625803 123.1951097 115.3892179
 156.9324464 123.8767378 115.6227576 157.4561891 123.0834179 114.4445318
 152.8570775 122.8622893 106.3158104 152.0669829 123.1180422 105.8398214
 153.3482023 123.6771231 106.4210144 154.8085521 123.2267473 103.2741580
 154.0116684 123.3386167 103.7925076 154.5811113 123.5654125 102.4082471
 151.1408478 123.1153384 108.7473094 151.3916517 124.0000394 109.0130670
 151.6768027 122.9357985 107.9748186 156.8406546 117.4971863 117.7517430
 156.4473491 116.9438062 118.4265075 157.6572686 117.8082442 118.1423948
 153.8068603 128.9355721 101.6631000 154.3193124 129.7298972 101.8136565
 154.4591316 128.2382012 101.5964602 155.6163488 132.0521478 103.7453753
 155.7930116 132.9739442 103.5574737 156.4120322 131.7379897 104.1748133
 154.9015845 124.0986110 113.6215917 154.7869360 123.1971367 113.9223016
 154.0460362 124.3449806 113.2700733 156.7394804 133.5699652 109.7464096
 157.2902229 133.4416715 108.9741090 155.9006280 133.8694541 109.3958989
 151.7717520 127.2644376 102.4390571 152.6092742 127.6741384 102.2224279
 151.9495788 126.3243818 102.4090765 156.6333415 119.6256438 103.9633750
 157.2077167 119.4031620 103.2306943 157.2204397 119.6945133 104.7162352
 156.9603002 121.6560899  97.9829636 156.1240314 121.9935586  98.3038910
 156.8207772 121.5209879  97.0456773 158.9356083 116.4997687 102.6908820
 158.2820495 116.1846704 102.0665435 158.8936557 115.8773427 103.4168643
 151.7943691 124.6035091 103.1101304 151.5968091 124.0104452 102.3852371
 151.2390355 124.2987301 103.8277243 157.7132775 123.1135257 102.9886276
 156.9000640 123.4129428 103.3951468 158.2091769 122.7190946 103.7060759
 157.2046850 120.6853613 108.6047511 157.8446229 120.5442372 107.9070475
 156.3724380 120.3988126 108.2286113 157.9807154 129.9856043 104.7182504
 158.7747752 129.4906363 104.5165079 157.2698846 129.4573906 104.3550209
 154.2889917 124.1299125 100.7942256 153.3587505 124.0683580 101.0112219
 154.3847389 123.6075078  99.9978898 154.2075466 120.6553938 103.3820498
 154.4682283 121.5699271 103.2729659 155.0292638 120.1878380 103.5317111
 155.6800391 122.0691695 110.5519323 156.3523445 121.8609057 109.9031972
 154.8530178 121.8713781 110.1124555 156.0827889 125.3434298 111.3121760
 155.9447687 124.6114537 111.9133299 156.9932812 125.2543198 111.0305948
 157.4239123 122.0419475 112.6201079 156.8876480 121.5910214 113.2722675
 156.8355832 122.1765384 111.8771543 156.8341382 121.5008127  95.1827543
 155.9570849 121.3796927  94.8189789 157.3099135 120.7094205  94.9306431
 148.3543522 126.2885286 105.2769050 149.0414562 125.9747016 104.6890065
 148.1991651 127.1926651 105.0036301 153.1578245 121.1775483 109.7054073
 153.0736433 120.5701152 108.9704483 152.3360951 121.6684501 109.7063570
 157.7426126 132.2643924 111.8950971 158.4435585 132.8980407 112.0480365
 157.2721241 132.6058656 111.1346610 153.3393844 131.7980279 108.8282074
 153.9247281 131.0523967 108.9609978 153.1418682 132.1084236 109.7118738
 156.1932499 134.8331527 103.8444516 155.5242874 135.3177654 103.3608556
 156.0545369 135.0800747 104.7587895 147.9311499 124.3685880 107.5486517
 147.9695598 123.8349470 108.3423635 147.4251791 123.8421085 106.9297494
 155.3102261 119.2150420 111.0449059 155.3743587 120.0765251 110.6326457
 155.2469381 118.6024422 110.3121418 154.7854533 121.2873553 114.6922093
 155.4126572 120.9050630 115.3059618 153.9282452 121.0687755 115.0577786
 151.5620076 123.0949982 100.6240448 151.8573517 122.1860660 100.5707502
 150.6608112 123.0737721 100.3021451 155.0914323 121.1705978 106.6067997
 154.3700909 121.7841946 106.4675470 155.8807579 121.7063743 106.5284643
 157.8940637 118.5060405 112.8808649 158.4175038 118.7522701 113.6434958
 157.6752970 119.3380440 112.4611786 153.2907918 120.7764079 100.7479773
 152.9620624 119.8961458 100.5654879 153.6447288 120.7211748 101.6356163
 156.4049741 121.0637049 101.1155251 156.7445813 121.5922971 100.3933859
 156.8521861 121.4017455 101.8913818 159.0993182 119.4474100 110.5658319
 158.7590002 118.6481913 110.9678999 158.3932188 119.7475811 109.9935152
 158.3917888 119.5611671  99.3148544 159.1126251 119.9392924  98.8112261
 157.7683192 120.2800548  99.4183522 157.2748232 123.2242533 106.8277621
 157.1292813 123.5382836 107.7201902 156.7973436 123.8427433 106.2748519
 151.7493894 125.7647877 109.7665282 151.2047363 126.5407685 109.8985556
 152.6273244 126.1118682 109.6084403 158.5381511 119.0959461 102.1446080
 158.6597422 118.1676108 102.3436968 158.2483553 119.1098147 101.2324396
 152.5359916 124.8917774 112.6595439 151.7941652 125.0400409 113.2460069
 152.2152661 125.1526039 111.7962188 152.9816530 132.7783202 104.6905833
 153.8074550 132.4786974 104.3104477 152.6310582 132.0090825 105.1395622
 157.9498063 132.1309671 106.7603507 157.3278072 131.4680376 106.4605735
 158.6202930 132.1570803 106.0777155 151.1825135 130.6969529 105.6494767
 150.3457043 130.2691703 105.4678768 151.1548780 130.8901972 106.5865558
 158.0222591 120.6091459 116.3536013 158.0710746 121.4853582 115.9713783
 158.5645105 120.0668852 115.7807656 157.5111570 130.6813594 100.2361968
 157.6599690 131.3649058  99.5828640 158.3178014 130.6618684 100.7511423
 155.2664203 126.7078772 101.2423036 155.0210245 125.8041102 101.4403247
 155.4360118 126.7095922 100.3002514 154.5359851 122.4407129  98.7409198
 153.8429096 122.5151484  98.0849234 154.2911602 121.6767473  99.2630715
 150.4974632 123.7578877 105.4343699 150.1777416 122.9044185 105.1418073
 149.9508060 123.9727455 106.1901666 154.2754539 126.4741318 109.1513206
 154.4940549 127.4058426 109.1701239 154.6880313 126.1149292 109.9368009
 159.1482404 122.0474524 118.5415955 159.0479131 122.9968881 118.4728046
 158.9303947 121.7192763 117.6692025 158.3495476 119.2959449  95.1256632
 159.2114640 119.6214347  95.3852449 158.5345820 118.5090945  94.6129698
 150.3662892 127.3781789 107.4036821 149.6726363 126.9635741 106.8906775
 151.1135883 127.4202325 106.8070240 159.0113675 125.4771663 117.3581016
 158.5280756 126.2772023 117.5644905 159.0974614 125.4879607 116.4048460
 152.2799634 127.3100042 105.2802836 152.2570322 127.4087730 104.3284719
 152.5900271 128.1565193 105.6020002 154.9387012 129.3676197 109.3949450
 155.8930266 129.3360140 109.3279382 154.7399536 128.9066821 110.2099676
 155.5286394 127.9377313 111.9620248 156.3479283 128.4321392 111.9855085
 155.8023202 127.0209282 111.9337815 153.2937241 134.9095817 106.4119648
 153.1591709 134.1496218 105.8457646 152.8769303 135.6336717 105.9448437
 156.4506367 135.8065134 106.6238090 156.3338751 136.7510566 106.5216781
 155.6298813 135.5038695 107.0123890 150.7821308 122.2715447 112.6612445
 151.4280172 121.7614401 113.1499670 150.5738460 123.0084129 113.2355870
 157.4760881 136.4593396 109.8394019 158.3788128 136.4917006 110.1560514
 157.2498251 135.5293847 109.8540355 155.1218799 119.4183064 116.7587459
 155.9850261 119.0619869 116.9690783 154.5484210 119.0796959 117.4462863
  69.0037632  -6.8189694  93.2391044  69.2434230  -6.1871170  93.9170063
  68.1606829  -7.1701654  93.5256403  80.9193664  -2.7725394  90.2153582
  80.3558529  -2.8635457  89.4469870  80.8046059  -3.5925489  90.6956075
  78.4658096  -1.2774202  93.0537803  79.2579387  -1.6183377  92.6384102
  78.7054746  -1.1679227  93.9739956  86.4993222   0.8945574  85.5268047
  85.8481202   1.4799654  85.1402061  87.2937585   1.4251769  85.5863085
  80.4248850  -2.0165289  85.9255181  81.1979726  -2.5636302  85.7868057
  80.7774248  -1.1521039  86.1369643  82.2633892  -0.6888907  99.1322081
  81.9723758   0.2156724  99.0168747  82.8990876  -0.6472379  99.8466150
  87.9768488  -1.4163994  86.0637031  87.3414320  -1.3429367  86.7757936
  87.6465894  -0.8270395  85.3856111  87.2223777  -1.0027491  96.1271874
  86.9224500  -0.1002452  96.0187682  86.8774837  -1.2695308  96.9793027
  78.0345070  -4.9080421  92.9952368  78.1637451  -4.6545942  93.9091780
  77.3542521  -4.3152713  92.6757023  82.2044557   5.7616829  89.0942842
  82.1268587   6.7124654  89.1731323  81.6006201   5.4162702  89.7517768
  84.3020275  -1.8165113  90.9296712  84.7658621  -1.5377410  90.1401334
  84.0377073  -2.7181668  90.7469802  81.1944356  -2.2693631  93.8676475
  81.7645713  -1.8406363  93.2293959  81.7852468  -2.5511046  94.5660660
  84.7634908  -0.5469125  97.9469402  84.8279341  -0.0848718  98.7827573
  84.0545832  -1.1771760  98.0751711  84.4782926   1.1198982  87.8148382
  84.3428601   1.9650518  88.2433230  85.0192738   1.3218260  87.0514316
  77.9312323  -1.3625580  88.3876307  78.4436844  -0.5682329  88.5381872
  78.5835036  -2.0599289  88.3209908  79.7407208   1.7540177  90.4699060
  79.9173836   2.6758141  90.2820044  80.5364041   1.4398596  90.8993440
  86.1051402   1.7422549 101.9448724  85.6615256   0.9558927 101.6269628
  86.7668616   1.9301699 101.2792615  80.8638523   3.2718350  96.4709402
  81.4145949   3.1435414  95.6986396  80.0249999   3.5713239  96.1204295
  88.2032640   2.0225349  99.9730125  88.1851116   2.8434230  99.4810394
  89.1252560   1.8979424 100.1980266  84.6605694  -0.4630522 100.8153634
  85.1934031  -1.2242234 100.5852942  84.1319776  -0.7556870 101.5577788
  75.8961240  -3.0336925  89.1635877  76.7336462  -2.6239917  88.9469585
  76.0739508  -3.9737483  89.1336071  86.0258407  -1.3344529  88.3272446
  85.4979769  -2.0691770  88.0145683  85.5245910  -0.5569853  88.0812414
  87.0779086   5.1933188  84.2504105  86.4040785   5.4964885  84.8589063
  87.4644908   5.9962268  83.9009562  90.5818508   0.1954865  89.6222576
  90.1280835  -0.6454225  89.6787767  89.9512475   0.8316264  89.9597356
  89.0251447   2.0331362  90.5572394  89.3174422   2.5936419  89.8384760
  89.5350068   2.3259923  91.3125554  85.0475329  -1.8742981  83.1919487
  84.6094759  -2.5907122  82.7325125  85.7885769  -1.6466866  82.6304579
  83.9885073   2.8111713  91.6465848  83.9461251   3.0372559  90.7174380
  84.9047772   2.5775088  91.7951649  82.1050873  -0.3125258  91.4427810
  82.8991472  -0.8074938  91.2410385  81.3942566  -0.8407395  91.0795516
  86.9245718   2.0692838  95.7940178  86.9782740   2.6383774  96.5617894
  86.0560499   2.2394723  95.4294215  84.6822149   0.2603764  95.1225647
  84.5433235  -0.1077451  95.9951586  83.8936746   0.7751404  94.9509605
  85.2770301   5.3612861  86.4651184  85.4522057   4.8900904  87.2796807
  84.5903089   5.9878627  86.6932445  86.2327365  -0.3614633  92.5114485
  85.8977197  -0.4013863  93.4072135  85.7331310  -1.0269917  92.0384895
  90.8240688   1.6940309 100.4457325  90.7653234   1.0099530  99.7787908
  91.2260206   2.4359300  99.9937951  79.8431387   8.5102223  93.2391044
  80.0827985   9.1420747  93.9170063  79.0000583   8.1590263  93.5256403
  72.4787242  -4.0096015  92.0014356  73.1658282  -4.3234285  91.4135372
  72.3235371  -3.1054650  91.7281608  84.3559249   4.3181346  95.6432548
  84.2829420   5.1236317  96.1551853  83.9136642   4.5173312  94.8180570
  84.1449028   3.5553116  89.1535370  83.3616550   4.0974796  89.2473594
  84.8441773   4.0727095  89.5529611  86.8157932   4.2168180  97.7990707
  87.5285904   4.8515645  97.7266608  86.3247961   4.3132046  96.9830709
  81.8669846   1.9662623  98.6196278  82.5679305   2.5999106  98.7725672
  81.3964961   2.3077355  97.8591917  89.9924241   0.3080573  86.9044185
  90.2684085   0.1937168  87.8138059  89.1228740  -0.0901942  86.8656358
  86.6278305   4.5566924  90.5476998  86.8100700   3.7388580  91.0104751
  87.4511291   4.7734616  90.1101888  86.9620471   3.4835109  87.8092047
  87.4908237   2.9727564  87.1962209  87.2248691   3.1677639  88.6737580
  77.4637564   1.4998978  95.5527380  78.0491000   0.7542666  95.6855285
  77.2662402   1.8102935  96.4364044  80.3176219   4.5350226  90.5689823
  79.6486594   5.0196353  90.0853863  80.1789089   4.7819446  91.4833201
  72.0555218  -5.9295421  94.2731823  72.0939318  -6.4631831  95.0668942
  71.5495511  -6.4560216  93.6542801  84.4581487   6.5693969  97.1672481
  85.0099796   6.7325591  97.9321566  84.7987681   7.1598407  96.4952506
  89.3092362   1.3955227 103.0221135  89.8532266   2.0085185 102.5276090
  88.7279207   1.9534805 103.5388148  87.5949875   4.5175945  94.1536163
  87.4701014   3.7165685  93.6447109  88.2528966   5.0122138  93.6650133
  89.6584783   2.3184965  95.7815713  88.7115119   2.1990316  95.7094040
  90.0067556   1.4307463  95.8641975  86.6631216   2.1137681  91.9820066
  86.5156179   1.1854388  92.1627636  87.4884710   2.1357772  91.4977141
  90.2665338   2.9366240  93.0684938  91.1911886   2.7309101  92.9309389
  90.0980642   2.6882641  93.9774280  90.0560654   3.4551907  88.4247030
  90.2297532   2.8898330  87.6720882  90.5489546   4.2552802  88.2426520
  75.8737614  -4.5333424  96.4910589  75.3291082  -3.7573616  96.6230863
  76.7516964  -4.1862619  96.3329710  91.0435827   2.7718672  85.5243928
  91.7386732   3.3925364  85.7431243  91.3858977   1.9214023  85.7996306
  76.6603636  -5.4063527  99.3840745  75.9185372  -5.2580892  99.9705376
  76.3396380  -5.1455262  98.5207495  84.6047299   4.1352451  99.1821135
  84.9134425   3.8901598 100.0543835  85.4022781   4.3399089  98.6940006
  84.6267911   6.2890360  91.4126512  84.1872901   5.7966739  92.1059369
  85.3776028   5.7463328  91.1718587  77.1060250   2.4801901  91.4151140
  77.9318270   2.1805673  91.0349784  76.7554302   1.7109524  91.8640929
  82.0741783   1.8328370  93.4848814  81.4521792   1.1699075  93.1851041
  82.7446650   1.8589501  92.8022461  75.3068855   0.3988228  92.3740074
  74.4700763  -0.0289598  92.1924075  75.2792500   0.5920671  93.3110865
  92.6321156   0.8551281 102.3582457  91.8416700   0.8375420 101.8186956
  92.3954511   1.3939575 103.1131493  81.6355290   0.3832293  86.9607274
  81.7843410   1.0667757  86.3073947  82.4421733   0.3637383  87.4756730
  79.3907923  -3.5902529  87.9668343  79.1453965  -4.4940199  88.1648553
  79.5603837  -3.5885379  87.0247821  85.1350695   2.8780423  84.4319022
  84.5624663   3.4970610  83.9789493  85.7083489   3.4279785  84.9658944
  88.3547955   3.1617573  85.5627604  89.2878628   3.0963135  85.7660479
  88.2671168   3.9973840  85.1042137  90.9835972   2.4783444  82.5231551
  90.9049603   2.1443307  83.4167309  91.8045639   2.9705212  82.5223024
  78.3998259  -3.8239983  95.8758512  78.6184269  -2.8922875  95.8946546
  78.8124033  -4.1832009  96.6613316  74.4906611  -2.9199513  94.1282127
  73.7970083  -3.3345560  93.6152082  75.2379602  -2.8778976  93.5315546
  76.4043354  -2.9881259  92.0048142  76.3814042  -2.8893572  91.0530025
  76.7143990  -2.1416108  92.3265308  79.0630732  -0.9305104  96.1194757
  80.0173985  -0.9621161  96.0524688  78.8643255  -1.3914480  96.9344983
  79.6530114  -2.3603988  98.6865554  80.4723003  -1.8659909  98.7100392
  79.9266922  -3.2772020  98.6583122  77.4180961   4.6114516  93.1364954
  77.2835429   3.8514917  92.5702953  77.0013023   5.3355416  92.6693743
  88.5539924  -0.2048561  82.1441530  89.2575774   0.0001442  82.7599185
  87.8302572   0.3628201  82.4090613  80.5750087   5.5083833  93.3483397
  80.4582471   6.4529265  93.2462087  79.7542533   5.2057394  93.7369196
  90.4626621   0.2333968  84.1939990  91.2972225  -0.1984833  84.0117465
  90.3010964   0.0615982  85.1216884  87.4318420  -0.9585006 104.8849892
  88.3009580  -0.7844354 104.5236527  86.9525172  -0.1390590 104.7625621
  81.6004601   6.1612095  96.5639326  82.5031847   6.1935705  96.8805820
  81.3741971   5.2312546  96.5785661  83.3558203   4.9143081  93.2249404
  82.4053834   4.9144943  93.1113776  83.6590689   4.1675816  92.7085439
  99.0910896  10.7503620  94.2895167  99.7289306  10.6310367  93.5858507
  98.9731739  11.6984463  94.3483119  95.9000602  10.7031048  94.2256691
  95.5619114  10.5872112  93.3377226  96.7690371  10.3022213  94.2057697
  91.7587418  12.5566524  90.2153582  91.1952283  12.4656461  89.4469870
  91.6439813  11.7366428  90.6956075  96.3820385  11.8565899 100.1842897
  96.3709026  11.4618698  99.3123400  96.5441025  11.1231972 100.7776668
  89.3051850  14.0517716  93.0537803  90.0973142  13.7108540  92.6384102
  89.5448500  14.1612691  93.9739956  97.3386977  16.2237492  85.5268047
  96.6874957  16.8091572  85.1402061  98.1331340  16.7543687  85.5863085
  91.2642604  13.3126629  85.9255181  92.0373480  12.7655616  85.7868057
  91.6168003  14.1770878  86.1369643  93.1027647  14.6403011  99.1322081
  92.8117513  15.5448642  99.0168747  93.7384631  14.6819539  99.8466150
  94.0283853  12.0179860  95.7223440  94.6247426  11.7935882  95.0080403
  94.0858825  11.2764605  96.3248888  93.6008882   9.4719295  83.5573631
  93.8534403   8.9500816  82.7957094  92.6633441   9.3085440  83.6600315
  98.6452165   8.4755073  91.3648375  99.4315254   8.0574497  91.0138792
  98.9090869   9.3801166  91.5330023  98.8162242  13.9127924  86.0637031
  98.1808075  13.9862550  86.7757936  98.4859648  14.5021523  85.3856111
 104.0460592   8.4130307  92.2681353 104.7785764   7.8429523  92.5019183
 103.2899947   8.0251907  92.7087859  93.3205171  11.3747401  85.7598006
  93.2041429  10.6992304  86.4279091  93.4307430  10.8879775  84.9430159
  95.6636711  10.8357548  89.4644696  95.2994919  10.3088169  90.1757617
  96.5203827  10.4456017  89.2911181  95.3042198   5.8647448  84.4606044
  95.4716601   6.7327684  84.8276515  95.1139368   6.0274729  83.5367333
  98.0617532  14.3264427  96.1271874  97.7618255  15.2289465  96.0187682
  97.7168591  14.0596610  96.9793027  91.5130013  10.7778224  92.1608579
  90.5880510  10.6454438  92.3686271  91.7614426  11.5572443  92.6578521
 101.4614675   6.8446967  93.8069312 100.5531553   6.7762375  93.5128073
 101.4102271   7.3218912  94.6351137  95.2831419   8.3205105  85.4452711
  95.1631045   8.7662156  86.2838191  94.5884008   8.6690423  84.8866249
  88.8738824  10.4211497  92.9952368  89.0031205  10.6745976  93.9091780
  88.1936275  11.0139205  92.6757023  93.0438311  21.0908747  89.0942842
  92.9662341  22.0416572  89.1731323  92.4399955  20.7454620  89.7517768
  95.5355541   8.2636612 101.7504209  94.7588875   8.8230533 101.7407074
  96.1746104   8.7493395 102.2719079 103.3276322   5.0463405  95.5847186
 102.6850702   5.3395938  94.9386980 102.8231250   4.9316326  96.3900382
 100.9816486   8.7926578  86.2733045 101.8934342   9.0253965  86.0980742
 100.4726133   9.3763623  85.7108124  93.7901914  11.0722066 101.3122176
  94.5316598  11.6107110 101.0357000  93.0838899  11.6988355 101.4693728
  99.2657253  13.2151206  99.9094338  99.6740609  12.7733617  99.1648970
  98.5434515  12.6403834 100.1628530  95.6188323   8.1523813  97.2827894
  96.4649518   8.5763227  97.4262543  95.5586961   7.4957437  97.9766458
  99.5886068  13.7752397  93.6646626  98.9594930  13.9398111  92.9622694
  99.2011730  14.1894006  94.4357590 103.4675300  14.7106835  91.0190990
 102.7826338  15.0905736  90.4688023 103.5519149  15.3202161  91.7522938
  98.7687769   5.8128181  98.9409068  98.5248700   6.5670242  98.4043344
  99.0447699   6.1913529  99.7756315 100.7226231  12.3566794  97.6186334
 100.9343127  12.9998554  96.9420715 100.6755980  11.5229110  97.1508264
  98.3252460   4.9684614  94.5222906  97.4636939   5.2665868  94.8139643
  98.3514895   5.1855013  93.5903938  95.1414030  13.5126805  90.9296712
  95.6052375  13.7914508  90.1401334  94.8770828  12.6110250  90.7469802
  92.0338111  13.0598287  93.8676475  92.6039468  13.4885555  93.2293959
  92.6246223  12.7780871  94.5660660  94.0782916   9.6349957  87.7386277
  94.7806959  10.0871001  88.2060203  93.7463544   8.9933776  88.3666170
  92.5263277   8.2261714 102.1137486  91.8961938   8.9077995 102.3472883
  92.4199365   8.1144796 101.1690624  87.8208250   7.8933510  93.0403410
  87.0307304   8.1491039  92.5643521  88.3119497   8.7081848  93.1455451
 101.8372059  15.2338749  95.7908691 102.6589503  14.8318936  95.5091373
 101.8334462  15.1306983  96.7424807  89.7722995   8.2578089  89.9986887
  88.9754158   8.3696784  90.5170383  89.5448587   8.5964741  89.1327777
  95.6028663  14.7822792  97.9469402  95.6673095  15.2443200  98.7827573
  94.8939587  14.1520157  98.0751711  86.1045953   8.1464000  95.4718401
  86.3553991   9.0311010  95.7375977  86.6405501   7.9668602  94.6993493
 109.9278052  11.5777498  92.1393663 109.1741761  11.0084896  91.9837667
 110.0625594  11.5440162  93.0864297  95.3176680  16.4490900  87.8148382
  95.1822355  17.2942436  88.2433230  95.8586493  16.6510178  87.0514316
  91.8044020   2.5282480 104.4762737  91.4110966   1.9748678 105.1510381
  92.6210160   2.8393058 104.8669255  88.7706078  13.9666338  88.3876307
  89.2830598  14.7609588  88.5381872  89.4228791  13.2692628  88.3209908
  90.5800962  17.0832094  90.4699060  90.7567591  18.0050059  90.2820044
  91.3757796  16.7690513  90.8993440  94.7211981   3.9440359 102.0682994
  95.4621694   4.5447512 101.9887456  94.9529904   3.2017997 101.5101036
  89.8653319   9.1296726 100.3461223  89.7506834   8.2281983 100.6468322
  89.0097837   9.3760423  99.9946040  96.9445157  17.0714466 101.9448724
  96.5009011  16.2850845 101.6269628  97.6062370  17.2593617 101.2792615
  91.7032278  18.6010268  96.4709402  92.2539703  18.4727331  95.6986396
  90.8643754  18.9005157  96.1204295  99.0426395  17.3517266  99.9730125
  99.0244870  18.1726147  99.4810394  99.9646315  17.2271342 100.1980266
  95.4999449  14.8661396 100.8153634  96.0327786  14.1049684 100.5852942
  94.9713530  14.5735048 101.5577788  86.7354995  12.2954992  89.1635877
  87.5730217  12.7052001  88.9469585  86.9133262  11.3554434  89.1336071
  98.6319427   9.9630073  84.8519710  98.1166050  10.7334678  85.0908098
  98.3596735   9.2895209  85.4752772  96.2166538   4.8079774  89.9104949
  95.3608134   4.4186624  89.7310588  96.6293489   4.8871735  89.0504734
  97.7465684   2.3426117  94.3096509  97.2430480   2.3056252  93.4964314
  98.0396291   3.2518860  94.3693165  93.9908570   2.4264847  93.3162690
  94.8561567   2.2307655  92.9568580  94.0586079   2.1975199  94.2432047
 103.6053701  12.7162428  86.7872884 102.8283144  12.3773587  86.3428046
 104.2845182  12.7215051  86.1127849  98.4205730   7.8357165  86.6779492
  98.1155865   8.1503314  87.5289635  99.3736172   7.9138585  86.7206825
  96.8652162  13.9947388  88.3272446  96.3373523  13.2600148  88.0145683
  96.3639664  14.7722065  88.0812414 101.8445008  12.1896409  93.4439492
 101.1868682  12.8795670  93.5319621 102.6485407  12.5792841  93.7873478
  91.5970889   4.6567055  90.6879057  92.1714641   4.4342236  89.9552250
  92.1841872   4.7255749  91.4407658 100.6550467  10.5440782  91.4943434
 101.1682348  11.1770773  91.9965143 101.3051690   9.9441977  91.1286794
  91.9240476   6.6871516  84.7074942  91.0877789   7.0246202  85.0284217
  91.7845246   6.5520495  83.7702079  93.8993557   1.5308304  89.4154127
  93.2457969   1.2157321  88.7910741  93.8574031   0.9084044  90.1413949
  95.0104762  11.8127599  81.3307419  94.1031824  11.5816852  81.5298568
  95.5075794  11.0165218  81.5181400  97.9172841  20.5225106  84.2504105
  97.2434540  20.8256803  84.8589063  98.3038663  21.3254186  83.9009562
  97.1331297   8.0190237  93.7401774  96.2153859   8.2405184  93.5823462
  97.5491441   8.0936548  92.8813482  97.9166345   9.4181653  88.8704454
  98.6638164   9.9303050  88.5611576  98.1857935   9.0965706  89.7308848
  96.1892995  11.9140194  85.8531409  95.2804215  11.6299226  85.9503878
  96.2188079  12.3339272  84.9934716 101.4212263  15.5246783  89.6222576
 100.9674590  14.6837693  89.6787767 100.7906229  16.1608181  89.9597356
 100.3645182   6.4538769  90.8523244  99.6267939   5.9416155  91.1833486
 100.6171956   6.0139151  90.0406521  99.8645202  17.3623280  90.5572394
 100.1568176  17.9228337  89.8384760 100.3743823  17.6551841  91.3125554
  86.7581166   9.6345708  89.8346611  86.5605565   9.0415068  89.1097678
  86.2027830   9.3297918  90.5522550  94.7377889   9.5268814  91.9541204
  94.7926499   8.5742651  91.8783681  93.9269091   9.6828253  92.4382502
  95.8869083  13.4548937  83.1919487  95.4488513  12.7384796  82.7325125
  96.6279524  13.6825052  82.6304579  92.6770249   8.1445874  89.7131583
  91.8638115   8.4440044  90.1196775  93.1729243   7.7501563  90.4306065
  94.8278827  18.1403631  91.6465848  94.7855006  18.3664477  90.7174380
  95.7441526  17.9067005  91.7951649  98.2744461   8.6087698  98.5446477
  98.6293849   8.8359171  99.4040943  98.9216592   8.9406075  97.9223732
 104.0042198  11.7306134  89.2495806 103.8660096  11.9207730  88.3216995
 103.6478417  12.4925517  89.7063857  92.1684324   5.7164229  95.3292818
  92.8083703   5.5752988  94.6315781  91.3361855   5.4298743  94.9531420
 104.0311577  13.7982661  94.2607077 104.4648084  13.7057950  95.1090131
 104.7443158  13.7740162  93.6227093  92.9444628  15.0166660  91.4427810
  93.7385226  14.5216980  91.2410385  92.2336320  14.4884523  91.0795516
  97.7639472  17.3984755  95.7940178  97.8176495  17.9675692  96.5617894
  96.8954254  17.5686640  95.4294215  89.2527391   9.1609742  87.5187563
  88.3224979   9.0994197  87.7357525  89.3484863   8.6385694  86.7224204
  89.1712940   5.6864554  90.1065805  89.4319758   6.6009888  89.9974965
  89.9930113   5.2188997  90.2562418  90.6437866   7.1002312  97.2764629
  91.3160919   6.8919674  96.6277278  89.8167652   6.9024398  96.8369862
 104.8927127  13.8406362  96.7939963 105.0863017  14.7452172  97.0399238
 104.7927745  13.3813781  97.6278548  96.5463438   3.7264252  99.2930290
  95.8991353   4.4254202  99.1994767  97.3164453   4.1600396  99.6606538
  99.9542236  13.9913105 102.3680843  99.8027742  13.7623656 101.4510927
  99.9446915  14.9483706 102.3812188  96.7227572  11.5645017  97.3527110
  97.6519632  11.7156177  97.1796077  96.3018602  11.6529038  96.4975756
  95.5215904  15.5895682  95.1225647  95.3826990  15.2214466  95.9951586
  94.7330500  16.1043321  94.9509605  96.1164056  20.6904778  86.4651184
  96.2915812  20.2192821  87.2796807  95.4296844  21.3170544  86.6932445
  97.0721119  14.9677284  92.5114485  96.7370952  14.9278054  93.4072135
  96.5725065  14.3022000  92.0384895  91.0465363  10.3744915  98.0367066
  90.9085161   9.6425153  98.6378605  91.9570286  10.2853815  97.7551254
 100.0080311  12.3133319  82.7851545  99.3909481  11.5880147  82.6884598
  99.5396799  13.0742679  82.4418619  93.6747664  10.0864874  97.5250746
  94.3847282   9.4458066  97.4837364  93.6316972  10.3377769  98.4476927
 101.6634442  17.0232227 100.4457325 101.6046989  16.3391447  99.7787908
 102.0653961  17.7651217  99.9937951  92.3876598   7.0730092  99.3446386
  91.8513955   6.6220830  99.9967982  91.7993306   7.2076001  98.6016850
  90.6825141  23.8394141  93.2391044  90.9221739  24.4712665  93.9170063
  89.8394338  23.4882181  93.5256403  91.7978857   6.5318743  81.9072849
  90.9208323   6.4107544  81.5435096  92.2736610   5.7404821  81.6551738
 101.6651850  14.9871811  98.6771305 100.7778628  14.6497733  98.7997704
 102.2350401  14.2554842  98.9140070  83.3180997  11.3195903  92.0014356
  84.0052037  11.0057633  91.4135372  83.1629125  12.2237267  91.7281608
  88.1215719   6.2086099  96.4299380  88.0373908   5.6011769  95.6949790
  87.2998425   6.6995118  96.4308876  95.1953003  19.6473263  95.6432548
  95.1223175  20.4528235  96.1551853  94.7530396  19.8465229  94.8180570
  94.9842783  18.8845033  89.1535370  94.2010305  19.4266714  89.2473594
  95.6835528  19.4019013  89.5529611  98.2939433   4.6939663  91.7969575
  98.7908132   3.9409625  91.4770645  97.5226414   4.7303980  91.2312784
 106.1469190  10.3980028  93.4387867 106.1359066  11.2804744  93.0681800
 105.2786570  10.0451579  93.2442404  97.6551687  19.5460097  97.7990707
  98.3679659  20.1807562  97.7266608  97.1641715  19.6423963  96.9830709
  99.3769213  13.4511350  89.3707998  98.4425492  13.5712813  89.2012703
  99.5545882  12.5483817  89.1068008  94.8774402   6.8357046  91.5241260
  94.5072189   6.2828086  92.2122165  95.3733494   6.2315179  90.9716260
 102.7641765   9.2928669  89.9058033 103.2302217  10.1256661  89.8318335
 103.2149265   8.8273651  90.6103291  92.7063600  17.2954541  98.6196278
  93.4073060  17.9291024  98.7725672  92.2358715  17.6369272  97.8591917
 100.8317996  15.6372491  86.9044185 101.1077840  15.5229085  87.8138059
  99.9622495  15.2389976  86.8656358 100.5064886   9.8499148  96.4448828
  99.8536336  10.0975056  95.7901281 100.8845266   9.0363287  96.1111305
  97.4672060  19.8858842  90.5476998  97.6494454  19.0680498  91.0104751
  98.2905046  20.1026534  90.1101888  97.8014225  18.8127027  87.8092047
  98.3301992  18.3019481  87.1962209  98.0642445  18.4969557  88.6737580
  96.5552459  10.5918959 102.9314865  95.8793096  10.4913089 103.6017240
  97.3780093  10.4358173 103.3950862  88.3031318  16.8290896  95.5527380
  88.8884755  16.0834584  95.6855285  88.1056157  17.1394853  96.4364044
  91.1569973  19.8642143  90.5689823  90.4880349  20.3488271  90.0853863
  91.0182843  20.1111364  91.4833201  82.8948973   9.3996496  94.2731823
  82.9333072   8.8660087  95.0668942  82.3889266   8.8731702  93.6542801
  95.2975242  21.8985887  97.1672481  95.8493550  22.0617508  97.9321566
  95.6381435  22.4890325  96.4952506  90.2739735   4.2461037  97.7694366
  90.3381062   5.1075868  97.3571763  90.2106855   3.6335038  97.0366724
  89.7492008   6.3184169 101.4167400  90.3764047   5.9361247 102.0304924
  88.8919927   6.0998371 101.7823093 100.1486116  16.7247144 103.0221135
 100.6926020  17.3377103 102.5276090  99.5672961  17.2826723 103.5388148
  86.5257550   8.1260598  87.3485755  86.8210992   7.2171277  87.2952809
  85.6245586   8.1048338  87.0266757  98.4343629  19.8467862  94.1536163
  98.3094769  19.0457602  93.6447109  99.0922720  20.3414056  93.6650133
  90.0551797   6.2016595  93.3313303  89.3338383   6.8152563  93.1920777
  90.8445053   6.7374360  93.2529949 100.4978538  17.6476883  95.7815713
  99.5508873  17.5282234  95.7094040 100.8461311  16.7599381  95.8641975
  92.8578111   3.5371021  99.6053955  93.3812513   3.7833318 100.3680264
  92.6390444   4.3691056  99.1857093  88.2545392   5.8074696  87.4725080
  87.9258098   4.9272075  87.2900186  88.6084763   5.7522365  88.3601469
  97.5024971  17.4429599  91.9820066  97.3549933  16.5146306  92.1627636
  98.3278464  17.4649689  91.4977141  91.3687215   6.0947666  87.8400558
  91.7083288   6.6233587  87.1179166  91.8159336   6.4328072  88.6159124
 101.1059093  18.2658157  93.0684938 102.0305640  18.0601019  92.9309389
 100.9374396  18.0174559  93.9774280  94.0630656   4.4784717  97.2903626
  93.7227476   3.6792530  97.6924306  93.3569662   4.7786427  96.7180459
  93.3555362   4.5922287  86.0393850  94.0763725   4.9703540  85.5357567
  92.7320666   5.3111164  86.1428828  97.4986485   5.2967436  86.9752183
  97.7150100   6.1792074  86.6741011  97.0180552   4.9053650  86.2457825
  92.2385707   8.2553150  93.5522927  92.0930287   8.5693453  94.4447209
  91.7610910   8.8738050  92.9993826  94.0982089   5.2455698  93.6003817
  94.0843658   4.3496791  93.2636115  94.8154518   5.2526361  94.2342103
  95.9508220   5.6793038  95.6456944  95.6925998   6.6010108  95.6441275
  95.4193261   5.2823472  96.3357408 100.8954409  18.7843825  88.4247030
 101.0691287  18.2190247  87.6720882 101.3883300  19.5844720  88.2426520
  86.7131369  10.7958494  96.4910589  86.1684837  11.5718302  96.6230863
  87.5910719  11.1429298  96.3329710  93.5018985   4.1270078  88.8691387
  93.6234897   3.1986724  89.0682275  93.2121028   4.1408764  87.9569702
 106.7493800  11.5480248  90.0437329 107.1924946  10.7987573  89.6456453
 105.8720310  11.5390384  89.6611061 101.8829581  18.1010589  85.5243928
 102.5780486  18.7217282  85.7431243 102.2252732  17.2505941  85.7996306
  87.4997391   9.9228390  99.3840745  86.7579127  10.0711026  99.9705376
  87.1790135  10.1836656  98.5207495 103.7821005  15.5510295  87.0531259
 104.3072329  15.8897568  86.3280579 103.6943357  14.6157310  86.8694393
  95.4441053  19.4644369  99.1821135  95.7528180  19.2193515 100.0543835
  96.2416535  19.6691007  98.6940006  95.4661665  21.6182278  91.4126512
  95.0266656  21.1258657  92.1059369  96.2169782  21.0755246  91.1718587
  87.9454004  17.8093819  91.4151140  88.7712024  17.5097591  91.0349784
  87.5948056  17.0401441  91.8640929  92.9135537  17.1620287  93.4848814
  92.2915547  16.4990992  93.1851041  93.5840404  17.1881419  92.8022461
  86.1462609  15.7280145  92.3740074  85.3094518  15.3002320  92.1924075
  86.1186255  15.9212589  93.3110865  92.9860065   5.6402075 103.0781320
  93.0348220   6.5164198 102.6959089  93.5282579   5.0979468 102.5052963
 103.4714911  16.1843198 102.3582457 102.6810454  16.1667337 101.8186956
 103.2348265  16.7231492 103.1131493 103.5912786  13.0335665  99.6715185
 103.6410791  12.8685672 100.6130708 103.4826709  12.1662924  99.2813066
  92.4749044  15.7124211  86.9607274  92.6237165  16.3959675  86.3073947
  93.2815488  15.6929301  87.4756730 100.8816548   9.0166593 100.9874492
 101.7826411   8.8773058 100.6958490 100.9564523   9.1821048 101.9272669
  95.2159353   6.3933448  99.8327678  94.3462663   6.6867014  99.5610267
  95.4518834   6.9773893 100.5534942 105.0930983  15.4532606  99.9157207
 104.8015791  15.8162587 100.7520668 104.4803114  14.7399615  99.7370539
 106.2926665  13.0185486  92.4359777 107.1273556  13.4575290  92.5997337
 106.4285794  12.5424139  91.6168023 103.3418171  10.5765221  98.3837265
 103.8172292  10.7692867  97.5756116 102.4183736  10.6324407  98.1380648
  90.2301677  11.7389388  87.9668343  89.9847719  10.8351718  88.1648553
  90.3997592  11.7406539  87.0247821  97.9198387   2.6113065  97.3493099
  98.4380331   3.3474092  97.0239587  97.5653520   2.9177058  98.1839858
  89.4997325   7.4717746  85.4654505  88.8066570   7.5462101  84.8094541
  89.2549077   6.7078089  85.9876021  95.9744450  18.2072341  84.4319022
  95.4018417  18.8262528  83.9789493  96.5477244  18.7571703  84.9658944
 102.0419840   7.4530981  96.6165570 102.9937263   7.5529079  96.6377794
 101.8723290   6.6609250  97.1263655 100.0634219   4.5386564  96.8024971
  99.4684151   4.8191577  96.1071460  99.7783916   5.0280465  97.5741712
  99.1941710  18.4909491  85.5627604 100.1272383  18.4255053  85.7660479
  99.1064923  19.3265758  85.1042137 101.8229726  17.8075361  82.5231551
 101.7443358  17.4735225  83.4167309 102.6439393  18.2997129  82.5223024
 104.5207918  10.6737101  95.7307870 104.4884238   9.7353102  95.9167554
 105.1308541  10.7521138  94.9973695  96.3591248   9.5433154  81.7735074
  97.3050353   9.4139362  81.8423492  95.9805493   8.8047816  82.2504502
 104.6702406   7.4648144  95.7766153 104.1541455   6.6806601  95.5896082
 105.5542355   7.1366861  95.9412673 110.3384467  11.7353108  94.8713907
 111.0687856  11.4738396  95.4321610 109.7291413  10.9981830  94.9115975
 108.4199765   9.8760970  95.4688358 107.6932928   9.7416935  94.8604850
 108.0047051  10.1837799  96.2745076  96.2429941  13.5950900 103.2335731
  97.1632950  13.7729499 103.4275778  96.2079524  12.6506945 103.0815430
  94.5434166   7.4683130  81.7089959  93.6365621   7.1716243  81.7852673
  94.8210147   7.1712948  80.8424246  85.4612106   8.7889494  92.1589006
  85.1414890   7.9354802  91.8663380  84.9145534   9.0038072  92.9146973
  89.2392013  11.5051935  95.8758512  89.4578023  12.4369042  95.8946546
  89.6517787  11.1459909  96.6613316  96.1596231   2.0120020  87.8634201
  95.3496960   1.6667105  88.2389447  96.8480648   1.7027564  88.4521812
  94.1119879   7.0785140 105.2661261  94.0116606   8.0279497 105.1973352
  93.8941421   6.7503379 104.3937331  93.3132950   4.3270065  81.8501939
  94.1752114   4.6524964  82.1097756  93.4983294   3.5401561  81.3375004
  85.3300366  12.4092405  94.1282127  84.6363837  11.9946358  93.6152082
  86.0773357  12.4512942  93.5315546  93.9751149  10.5082279 104.0826323
  93.4918231  11.3082639 104.2890212  94.0612088  10.5190224 103.1293767
  87.2437108  12.3410659  92.0048142  87.2207797  12.4398346  91.0530025
  87.5537745  13.1875810  92.3265308  89.9024486  14.3986814  96.1194757
  90.8567740  14.3670756  96.0524688  89.7037010  13.9377438  96.9344983
  90.4923868  12.9687930  98.6865554  91.3116757  13.4632009  98.7100392
  90.7660676  12.0519898  98.6583122 100.2490465   5.3598682  88.0493510
  99.3616320   5.6448333  87.8313705 100.6644454   5.1992446  87.2020787
 103.6005001   5.3845203  91.7647849 104.3765391   5.8741656  92.0372466
 102.8753135   5.8103257  92.2219719 106.0377559   6.0972822  92.8221790
 106.6322050   5.8568558  92.1115098 106.1104143   5.3779953  93.4495326
  88.2574715  19.9406433  93.1364954  88.1229183  19.1806834  92.5702953
  87.8406777  20.6647333  92.6693743  99.3933678  15.1243357  82.1441530
 100.0969528  15.3293359  82.7599185  98.6696327  15.6920119  82.4090613
 100.2231488  10.8753218  88.2643800 100.1666690  11.3321770  87.4251432
 100.7759831  10.1143903  88.0866643 104.0336294   6.6642950  89.0893919
 103.7773229   6.2639586  89.9202127 103.4089162   7.3786744  88.9644059
 108.3448632   9.4039023  91.5965211 107.7848190   9.4732213  92.3696773
 107.7392136   9.2280008  90.8764707  91.4143841  20.8375750  93.3483397
  91.2976225  21.7821183  93.2462087  90.5936287  20.5349312  93.7369196
 101.3020376  15.5625886  84.1939990 102.1365979  15.1307085  84.0117465
 101.1404718  15.3907900  85.1216884 100.9566268  12.0657999  85.5596329
 100.9015072  11.9002271  84.6184773 100.3312323  12.7734032  85.7158519
  85.7458783   7.3026064  99.3857751  86.3917646   6.7925018  99.8744977
  85.5375934   8.0394745  99.9601177  98.2712175  14.3706911 104.8849892
  99.1403335  14.5447564 104.5236527  97.7918926  15.1901328 104.7625621
  94.2662393   1.5666108  85.1381648  94.2541063   2.5107948  85.2949918
  95.1585815   1.3836254  84.8441109  92.4398355  21.4904012  96.5639326
  93.3425602  21.5227623  96.8805820  92.2135725  20.5604463  96.5785661
  94.1951957  20.2434999  93.2249404  93.2447588  20.2436860  93.1113776
  94.4984443  19.4967733  92.7085439  90.0856274   4.4493681 103.4832766
  90.9487735   4.0930486 103.6936090  89.5121684   4.1107576 104.1708170
 109.9304651  26.0795537  94.2895167 110.5683061  25.9602285  93.5858507
 109.8125494  27.0276381  94.3483119 106.7394357  26.0322965  94.2256691
 106.4012868  25.9164030  93.3377226 107.6084125  25.6314130  94.2057697
 102.5981173  27.8858442  90.2153582 102.0346038  27.7948379  89.4469870
 102.4833568  27.0658346  90.6956075 107.2214140  27.1857817 100.1842897
 107.2102781  26.7910615  99.3123400 107.3834779  26.4523890 100.7776668
 100.1445605  29.3809633  93.0537803 100.9366896  29.0400458  92.6384102
 100.3842255  29.4904608  93.9739956 108.1780731  31.5529409  85.5268047
 107.5268711  32.1383490  85.1402061 108.9725094  32.0835604  85.5863085
 102.1036358  28.6418547  85.9255181 102.8767234  28.0947534  85.7868057
 102.4561757  29.5062796  86.1369643 103.9421401  29.9694929  99.1322081
 103.6511267  30.8740560  99.0168747 104.5778385  30.0111456  99.8466150
 104.8677608  27.3471777  95.7223440 105.4641180  27.1227800  95.0080403
 104.9252579  26.6056523  96.3248888 104.4402636  24.8011213  83.5573631
 104.6928157  24.2792734  82.7957094 103.5027195  24.6377358  83.6600315
 109.4845919  23.8046991  91.3648375 110.2709008  23.3866414  91.0138792
 109.7484623  24.7093083  91.5330023 109.6555996  29.2419841  86.0637031
 109.0201829  29.3154468  86.7757936 109.3253403  29.8313440  85.3856111
 114.8854346  23.7422224  92.2681353 115.6179518  23.1721441  92.5019183
 114.1293702  23.3543825  92.7087859 104.1598925  26.7039319  85.7598006
 104.0435183  26.0284222  86.4279091 104.2701185  26.2171693  84.9430159
 106.5030466  26.1649466  89.4644696 106.1388673  25.6380087  90.1757617
 107.3597582  25.7747935  89.2911181 112.4079767  17.4543798  96.7275962
 112.0763091  18.3239209  96.5037177 111.8125380  17.1380082  97.4069992
 106.1435953  21.1939365  84.4606044 106.3110355  22.0619602  84.8276515
 105.9533122  21.3566647  83.5367333 108.9011286  29.6556344  96.1271874
 108.6012009  30.5581383  96.0187682 108.5562346  29.3888528  96.9793027
 102.3523768  26.1070141  92.1608579 101.4274264  25.9746355  92.3686271
 102.6008181  26.8864360  92.6578521 112.3008430  22.1738885  93.8069312
 111.3925307  22.1054293  93.5128073 112.2496026  22.6510829  94.6351137
 106.1225174  23.6497023  85.4452711 106.0024799  24.0954074  86.2838191
 105.4277762  23.9982341  84.8866249  99.7132579  25.7503415  92.9952368
  99.8424960  26.0037894  93.9091780  99.0330030  26.3431123  92.6757023
 103.8832066  36.4200665  89.0942842 103.8056096  37.3708490  89.1731323
 103.2793710  36.0746537  89.7517768 106.3749296  23.5928530 101.7504209
 105.5982630  24.1522450 101.7407074 107.0139859  24.0785313 102.2719079
 114.1670076  20.3755323  95.5847186 113.5244457  20.6687856  94.9386980
 113.6625005  20.2608243  96.3900382 111.8210240  24.1218496  86.2733045
 112.7328096  24.3545883  86.0980742 111.3119887  24.7055540  85.7108124
 104.6295668  26.4013983 101.3122176 105.3710352  26.9399027 101.0357000
 103.9232653  27.0280272 101.4693728 110.1051008  28.5443124  99.9094338
 110.5134364  28.1025534  99.1648970 109.3828269  27.9695751 100.1628530
 106.4582078  23.4815731  97.2827894 107.3043273  23.9055144  97.4262543
 106.3980715  22.8249355  97.9766458 110.4279822  29.1044315  93.6646626
 109.7988685  29.2690029  92.9622694 110.0405484  29.5185924  94.4357590
 114.3069054  30.0398752  91.0190990 113.6220092  30.4197654  90.4688023
 114.3912904  30.6494079  91.7522938 109.6081523  21.1420099  98.9409068
 109.3642455  21.8962160  98.4043344 109.8841454  21.5205447  99.7756315
 111.5619986  27.6858711  97.6186334 111.7736881  28.3290471  96.9420715
 111.5149734  26.8521028  97.1508264 109.1646215  20.2976532  94.5222906
 108.3030694  20.5957786  94.8139643 109.1908649  20.5146931  93.5903938
 105.9807784  28.8418723  90.9296712 106.4446130  29.1206426  90.1401334
 105.7164582  27.9402167  90.7469802 102.8731865  28.3890204  93.8676475
 103.4433222  28.8177473  93.2293959 103.4639977  28.1072789  94.5660660
 104.9176670  24.9641875  87.7386277 105.6200714  25.4162919  88.2060203
 104.5857299  24.3225694  88.3666170 103.3657032  23.5553632 102.1137486
 102.7355692  24.2369913 102.3472883 103.2593120  23.4436713 101.1690624
  98.6602004  23.2225428  93.0403410  97.8701058  23.4782956  92.5643521
  99.1513252  24.0373766  93.1455451 112.6765814  30.5630667  95.7908691
 113.4983257  30.1610854  95.5091373 112.6728217  30.4598901  96.7424807
 100.6116750  23.5870007  89.9986887  99.8147913  23.6988701  90.5170383
 100.3842342  23.9256659  89.1327777 106.4422417  30.1114710  97.9469402
 106.5066850  30.5735117  98.7827573 105.7333341  29.4812075  98.0751711
  96.9439707  23.4755918  95.4718401  97.1947746  24.3602928  95.7375977
  97.4799256  23.2960520  94.6993493 120.7671807  26.9069415  92.1393663
 120.0135515  26.3376813  91.9837667 120.9019348  26.8732080  93.0864297
 106.1570435  31.7782818  87.8148382 106.0216110  32.6234353  88.2433230
 106.6980247  31.9802095  87.0514316 102.6437774  17.8574398 104.4762737
 102.2504720  17.3040596 105.1510381 103.4603915  18.1684976 104.8669255
  99.6099832  29.2958256  88.3876307 100.1224353  30.0901506  88.5381872
 100.2622545  28.5984546  88.3209908 101.4194717  32.4124012  90.4699060
 101.5961345  33.3341977  90.2820044 102.2151550  32.0982431  90.8993440
 105.5605735  19.2732277 102.0682994 106.3015449  19.8739430 101.9887456
 105.7923658  18.5309914 101.5101036 100.7047074  24.4588644 100.3461223
 100.5900589  23.5573901 100.6468322  99.8491591  24.7052341  99.9946040
 107.7838911  32.4006384 101.9448724 107.3402765  31.6142763 101.6269628
 108.4456125  32.5885535 101.2792615 102.5426032  33.9302186  96.4709402
 103.0933458  33.8019249  95.6986396 101.7037508  34.2297075  96.1204295
 109.8820149  32.6809184  99.9730125 109.8638625  33.5018065  99.4810394
 110.8040069  32.5563259 100.1980266 106.3393203  30.1953314 100.8153634
 106.8721540  29.4341602 100.5852942 105.8107285  29.9026965 101.5577788
 109.5062898  15.3013380  96.3447275 109.1627168  16.1915021  96.2686386
 109.8741861  15.1115037  95.4816860  97.5748749  27.6246910  89.1635877
  98.4123971  28.0343918  88.9469585  97.7527017  26.6846352  89.1336071
 109.4713181  25.2921991  84.8519710 108.9559805  26.0626595  85.0908098
 109.1990490  24.6187127  85.4752772 107.0560292  20.1371691  89.9104949
 106.2001889  19.7478542  89.7310588 107.4687244  20.2163652  89.0504734
 108.5859439  17.6718035  94.3096509 108.0824234  17.6348170  93.4964314
 108.8790046  18.5810777  94.3693165 104.8302325  17.7556764  93.3162690
 105.6955321  17.5599573  92.9568580 104.8979834  17.5267116  94.2432047
 114.4447455  28.0454345  86.7872884 113.6676898  27.7065505  86.3428046
 115.1238936  28.0506968  86.1127849 109.2599484  23.1649083  86.6779492
 108.9549620  23.4795232  87.5289635 110.2129926  23.2430503  86.7206825
 107.7045916  29.3239306  88.3272446 107.1767278  28.5892066  88.0145683
 107.2033419  30.1013982  88.0812414 112.6838762  27.5188327  93.4439492
 112.0262437  28.2087588  93.5319621 113.4879161  27.9084758  93.7873478
 102.4364644  19.9858972  90.6879057 103.0108396  19.7634154  89.9552250
 103.0235626  20.0547667  91.4407658 111.4944221  25.8732699  91.4943434
 112.0076103  26.5062691  91.9965143 112.1445445  25.2733895  91.1286794
 102.7634231  22.0163433  84.7074942 101.9271543  22.3538120  85.0284217
 102.6239001  21.8812413  83.7702079 104.7387311  16.8600221  89.4154127
 104.0851724  16.5449238  88.7910741 104.6967786  16.2375962  90.1413949
 105.8498516  27.1419516  81.3307419 104.9425578  26.9108770  81.5298568
 106.3469548  26.3457136  81.5181400 108.7566595  35.8517024  84.2504105
 108.0828294  36.1548720  84.8589063 109.1432417  36.6546104  83.9009562
 107.9725052  23.3482155  93.7401774 107.0547613  23.5697102  93.5823462
 108.3885195  23.4228465  92.8813482 108.7560100  24.7473570  88.8704454
 109.5031919  25.2594968  88.5611576 109.0251689  24.4257623  89.7308848
 107.0286750  27.2432111  85.8531409 106.1197969  26.9591144  85.9503878
 107.0581834  27.6631190  84.9934716 112.2606017  30.8538701  89.6222576
 111.8068344  30.0129611  89.6787767 111.6299984  31.4900099  89.9597356
 111.2038937  21.7830687  90.8523244 110.4661694  21.2708073  91.1833486
 111.4565710  21.3431068  90.0406521 110.7038956  32.6915197  90.5572394
 110.9961931  33.2520254  89.8384760 111.2137577  32.9843758  91.3125554
 111.3050564  14.5606939  91.4465013 111.6109441  13.7004302  91.1590928
 112.0303169  15.1524559  91.2464007  97.5974920  24.9637625  89.8346611
  97.3999320  24.3706986  89.1097678  97.0421584  24.6589835  90.5522550
 105.5771644  24.8560732  91.9541204 105.6320254  23.9034568  91.8783681
 104.7662846  25.0120171  92.4382502 106.7262838  28.7840855  83.1919487
 106.2882268  28.0676714  82.7325125 107.4673278  29.0116970  82.6304579
 103.5164004  23.4737792  89.7131583 102.7031869  23.7731962  90.1196775
 104.0122998  23.0793480  90.4306065 105.6672582  33.4695548  91.6465848
 105.6248760  33.6956395  90.7174380 106.5835280  33.2358923  91.7951649
 109.1138215  23.9379616  98.5446477 109.4687603  24.1651089  99.4040943
 109.7610347  24.2697993  97.9223732 114.8435952  27.0598052  89.2495806
 114.7053851  27.2499648  88.3216995 114.4872171  27.8217435  89.7063857
 103.0078079  21.0456147  95.3292818 103.6477458  20.9044906  94.6315781
 102.1755609  20.7590660  94.9531420 114.8705332  29.1274579  94.2607077
 115.3041839  29.0349868  95.1090131 115.5836913  29.1032079  93.6227093
 103.7838382  30.3458577  91.4427810 104.5778981  29.8508898  91.2410385
 103.0730075  29.8176441  91.0795516 108.6033227  32.7276673  95.7940178
 108.6570249  33.2967609  96.5617894 107.7348008  32.8978558  95.4294215
 100.0921146  24.4901659  87.5187563  99.1618734  24.4286115  87.7357525
 100.1878618  23.9677612  86.7224204 100.0106695  21.0156472  90.1065805
 100.2713512  21.9301805  89.9974965 100.8323867  20.5480915  90.2562418
 101.4831620  22.4294229  97.2764629 102.1554674  22.2211591  96.6277278
 100.6561407  22.2316315  96.8369862 115.7320882  29.1698280  96.7939963
 115.9256772  30.0744090  97.0399238 115.6321500  28.7105699  97.6278548
 107.3857192  19.0556170  99.2930290 106.7385107  19.7546120  99.1994767
 108.1558208  19.4892314  99.6606538 110.7935990  29.3205022 102.3680843
 110.6421497  29.0915574 101.4510927 110.7840670  30.2775624 102.3812188
 107.5621327  26.8936935  97.3527110 108.4913387  27.0448095  97.1796077
 107.1412357  26.9820956  96.4975756 106.3609658  30.9187599  95.1225647
 106.2220744  30.5506384  95.9951586 105.5724255  31.4335239  94.9509605
 106.9557810  36.0196696  86.4651184 107.1309566  35.5484739  87.2796807
 106.2690598  36.6462462  86.6932445 107.9114874  30.2969202  92.5114485
 107.5764706  30.2569972  93.4072135 107.4118819  29.6313918  92.0384895
 101.8859118  25.7036832  98.0367066 101.7478915  24.9717071  98.6378605
 102.7964041  25.6145732  97.7551254 110.8474065  27.6425236  82.7851545
 110.2303236  26.9172065  82.6884598 110.3790554  28.4034597  82.4418619
 104.5141418  25.4156792  97.5250746 105.2241037  24.7749984  97.4837364
 104.4710726  25.6669686  98.4476927 112.5028197  32.3524145 100.4457325
 112.4440743  31.6683365  99.7787908 112.9047715  33.0943135  99.9937951
 103.2270352  22.4022009  99.3446386 102.6907709  21.9512748  99.9967982
 102.6387061  22.5367918  98.6016850 101.5218896  39.1686059  93.2391044
 101.7615494  39.8004583  93.9170063 100.6788092  38.8174099  93.5256403
 102.6372611  21.8610661  81.9072849 101.7602077  21.7399462  81.5435096
 103.1130364  21.0696739  81.6551738 112.5045604  30.3163729  98.6771305
 111.6172383  29.9789651  98.7997704 113.0744155  29.5846760  98.9140070
  94.1574751  26.6487821  92.0014356  94.8445791  26.3349551  91.4135372
  94.0022880  27.5529185  91.7281608  98.9609473  21.5378017  96.4299380
  98.8767662  20.9303687  95.6949790  98.1392180  22.0287035  96.4308876
 106.0346758  34.9765181  95.6432548 105.9616929  35.7820153  96.1551853
 105.5924151  35.1757147  94.8180570 105.8236537  34.2136951  89.1535370
 105.0404059  34.7558631  89.2473594 106.5229282  34.7310931  89.5529611
 109.1333187  20.0231581  91.7969575 109.6301887  19.2701543  91.4770645
 108.3620169  20.0595897  91.2312784 116.9862945  25.7271946  93.4387867
 116.9752821  26.6096662  93.0681800 116.1180324  25.3743497  93.2442404
 108.4945441  34.8752015  97.7990707 109.2073413  35.5099480  97.7266608
 108.0035470  34.9715881  96.9830709 110.2162968  28.7803268  89.3707998
 109.2819247  28.9004730  89.2012703 110.3939636  27.8775735  89.1068008
 105.7168156  22.1648964  91.5241260 105.3465944  21.6120004  92.2122165
 106.2127248  21.5607097  90.9716260 113.6035519  24.6220587  89.9058033
 114.0695972  25.4548579  89.8318335 114.0543020  24.1565569  90.6103291
 103.5457355  32.6246459  98.6196278 104.2466814  33.2582942  98.7725672
 103.0752470  32.9661190  97.8591917 111.6711750  30.9664408  86.9044185
 111.9471594  30.8521003  87.8138059 110.8016249  30.5681893  86.8656358
 111.5752182  16.9901174  93.9448934 110.6615262  17.2205401  94.1131141
 112.0045284  17.0739618  94.7962966 111.3458641  25.1791066  96.4448828
 110.6930091  25.4266974  95.7901281 111.7239020  24.3655204  96.1111305
 108.3065814  35.2150759  90.5476998 108.4888209  34.3972415  91.0104751
 109.1298800  35.4318452  90.1101888 108.6407980  34.1418944  87.8092047
 109.1695746  33.6311399  87.1962209 108.9036200  33.8261475  88.6737580
 107.3946214  25.9210877 102.9314865 106.7186851  25.8205006 103.6017240
 108.2173847  25.7650091 103.3950862  99.1425073  32.1582814  95.5527380
  99.7278509  31.4126502  95.6855285  98.9449911  32.4686770  96.4364044
 101.9963728  35.1934061  90.5689823 101.3274103  35.6780189  90.0853863
 101.8576598  35.4403282  91.4833201  93.7342727  24.7288414  94.2731823
  93.7726827  24.1952005  95.0668942  93.2283020  24.2023619  93.6542801
 106.1368996  37.2277805  97.1672481 106.6887304  37.3909426  97.9321566
 106.4775190  37.8182242  96.4952506 101.1133490  19.5752954  97.7694366
 101.1774816  20.4367785  97.3571763 101.0500610  18.9626956  97.0366724
 100.5885762  21.6476087 101.4167400 101.2157801  21.2653164 102.0304924
  99.7313681  21.4290289 101.7823093 110.9879871  32.0539062 103.0221135
 111.5319775  32.6669020 102.5276090 110.4066716  32.6118641 103.5388148
  97.3651305  23.4552516  87.3485755  97.6604746  22.5463194  87.2952809
  96.4639341  23.4340255  87.0266757 109.2737384  35.1759780  94.1536163
 109.1488523  34.3749520  93.6447109 109.9316475  35.6705973  93.6650133
 100.8945552  21.5308513  93.3313303 100.1732138  22.1444480  93.1920777
 101.6838808  22.0666277  93.2529949 111.3372292  32.9768800  95.7815713
 110.3902628  32.8574151  95.7094040 111.6855065  32.0891298  95.8641975
 103.6971865  18.8662939  99.6053955 104.2206267  19.1125236 100.3680264
 103.4784199  19.6982974  99.1857093  99.0939147  21.1366614  87.4725080
  98.7651853  20.2563993  87.2900186  99.4478517  21.0814282  88.3601469
 108.3418725  32.7721516  91.9820066 108.1943688  31.8438224  92.1627636
 109.1672219  32.7941607  91.4977141 102.2080970  21.4239583  87.8400558
 102.5477042  21.9525505  87.1179166 102.6553090  21.7619990  88.6159124
 111.9452847  33.5950075  93.0684938 112.8699395  33.3892936  92.9309389
 111.7768151  33.3466476  93.9774280 104.9024411  19.8076634  97.2903626
 104.5621231  19.0084447  97.6924306 104.1963417  20.1078345  96.7180459
 105.5540882  16.8925947  95.7430949 106.3766952  16.4186425  95.6209839
 105.7978946  17.6716430  96.2429635 104.1949117  19.9214205  86.0393850
 104.9157479  20.2995458  85.5357567 103.5714421  20.6403082  86.1428828
 108.3380240  20.6259354  86.9752183 108.5543854  21.5083992  86.6741011
 107.8574307  20.2345567  86.2457825 103.0779461  23.5845067  93.5522927
 102.9324042  23.8985370  94.4447209 102.6004665  24.2029968  92.9993826
 104.9375844  20.5747615  93.6003817 104.9237413  19.6788709  93.2636115
 105.6548272  20.5818279  94.2342103 106.7901975  21.0084955  95.6456944
 106.5319753  21.9302026  95.6441275 106.2587015  20.6115390  96.3357408
 111.7348163  34.1135743  88.4247030 111.9085041  33.5482165  87.6720882
 112.2277055  34.9136637  88.2426520  97.5525123  26.1250412  96.4910589
  97.0078591  26.9010220  96.6230863  98.4304473  26.4721216  96.3329710
 104.3412740  19.4561996  88.8691387 104.4628651  18.5278642  89.0682275
 104.0514782  19.4700682  87.9569702 107.2103930  17.1416906  92.0058107
 107.2325627  17.2056239  91.0510086 107.6271989  16.3021415  92.1998613
 117.5887555  26.8772166  90.0437329 118.0318701  26.1279491  89.6456453
 116.7114065  26.8682302  89.6611061 112.7223336  33.4302507  85.5243928
 113.4174241  34.0509200  85.7431243 113.0646486  32.5797858  85.7996306
  98.3391145  25.2520308  99.3840745  97.5972881  25.4002943  99.9705376
  98.0183889  25.5128574  98.5207495 114.6214759  30.8802213  87.0531259
 115.1466083  31.2189485  86.3280579 114.5337112  29.9449228  86.8694393
 106.2834808  34.7936286  99.1821135 106.5921934  34.5485433 100.0543835
 107.0810290  34.9982925  98.6940006 106.3055420  36.9474196  91.4126512
 105.8660410  36.4550575  92.1059369 107.0563537  36.4047163  91.1718587
  98.7847759  33.1385737  91.4151140  99.6105779  32.8389509  91.0349784
  98.4341811  32.3693359  91.8640929 103.7529292  32.4912205  93.4848814
 103.1309301  31.8282910  93.1851041 104.4234159  32.5173337  92.8022461
  96.9856364  31.0572063  92.3740074  96.1488272  30.6294237  92.1924075
  96.9580009  31.2504506  93.3110865 103.8253819  20.9693993 103.0781320
 103.8741975  21.8456116 102.6959089 104.3676334  20.4271386 102.5052963
 114.3108665  31.5135116 102.3582457 113.5204209  31.4959255 101.8186956
 114.0742020  32.0523410 103.1131493 114.4306540  28.3627583  99.6715185
 114.4804545  28.1977590 100.6130708 114.3220464  27.4954842  99.2813066
 103.3142799  31.0416128  86.9607274 103.4630919  31.7251593  86.3073947
 104.1209242  31.0221218  87.4756730 111.7210303  24.3458511 100.9874492
 112.6220165  24.2064975 100.6958490 111.7958277  24.5112965 101.9272669
 106.0553108  21.7225365  99.8327678 105.1856417  22.0158931  99.5610267
 106.2912588  22.3065810 100.5534942 115.9324737  30.7824524  99.9157207
 115.6409545  31.1454505 100.7520668 115.3196868  30.0691532  99.7370539
 117.1320419  28.3477404  92.4359777 117.9667311  28.7867208  92.5997337
 117.2679548  27.8716057  91.6168023 114.1811925  25.9057139  98.3837265
 114.6566047  26.0984785  97.5756116 113.2577491  25.9616325  98.1380648
 101.0695432  27.0681306  87.9668343 100.8241474  26.1643636  88.1648553
 101.2391346  27.0698456  87.0247821 108.7592142  17.9404982  97.3493099
 109.2774086  18.6766009  97.0239587 108.4047275  18.2468976  98.1839858
 100.3391079  22.8009663  85.4654505  99.6460324  22.8754018  84.8094541
 100.0942831  22.0370007  85.9876021 109.0104736  14.3605265  92.8693995
 109.2906490  13.6928454  93.4954422 109.7955343  14.5534360  92.3568659
 106.8138204  33.5364259  84.4319022 106.2412171  34.1554446  83.9789493
 107.3870998  34.0863620  84.9658944 112.8813594  22.7822899  96.6165570
 113.8331017  22.8820996  96.6377794 112.7117045  21.9901167  97.1263655
 110.9027974  19.8678482  96.8024971 110.3077906  20.1483495  96.1071460
 110.6177670  20.3572383  97.5741712 110.0335464  33.8201409  85.5627604
 110.9666137  33.7546970  85.7660479 109.9458677  34.6557676  85.1042137
 112.6623481  33.1367279  82.5231551 112.5837112  32.8027143  83.4167309
 113.4833148  33.6289047  82.5223024 115.3601672  26.0029018  95.7307870
 115.3277992  25.0645019  95.9167554 115.9702296  26.0813055  94.9973695
 107.1985003  24.8725071  81.7735074 108.1444108  24.7431280  81.8423492
 106.8199248  24.1339733  82.2504502 115.5096161  22.7940062  95.7766153
 114.9935209  22.0098519  95.5896082 116.3936109  22.4658779  95.9412673
 113.1706887  16.5381077  91.7361966 112.9731709  16.2296166  92.6205298
 113.7806593  17.2642716  91.8659896 121.1778222  27.0645025  94.8713907
 121.9081610  26.8030313  95.4321610 120.5685167  26.3273747  94.9115975
 119.2593519  25.2052888  95.4688358 118.5326683  25.0708853  94.8604850
 118.8440806  25.5129717  96.2745076 107.0823695  28.9242818 103.2335731
 108.0026705  29.1021417 103.4275778 107.0473278  27.9798863 103.0815430
 105.3827920  22.7975048  81.7089959 104.4759375  22.5008161  81.7852673
 105.6603901  22.5004866  80.8424246  96.3005860  24.1181411  92.1589006
  95.9808645  23.2646719  91.8663380  95.7539289  24.3329989  92.9146973
 100.0785768  26.8343852  95.8758512 100.2971778  27.7660960  95.8946546
 100.4911542  26.4751827  96.6613316 106.9989986  17.3411938  87.8634201
 106.1890714  16.9959023  88.2389447 107.6874403  17.0319481  88.4521812
 108.9280534  16.4189984  89.4858497 109.4811573  16.8385438  90.1448520
 109.1650620  15.4925732  89.5281453 104.9513633  22.4077058 105.2661261
 104.8510360  23.3571415 105.1973352 104.7335175  22.0795297 104.3937331
 104.1526705  19.6561983  81.8501939 105.0145869  19.9816881  82.1097756
 104.3377049  18.8693479  81.3375004  96.1694120  27.7384323  94.1282127
  95.4757592  27.3238276  93.6152082  96.9167111  27.7804859  93.5315546
 112.3059341  18.5290510  88.9937162 111.7258010  19.1875314  88.6115214
 112.0395274  17.7067854  88.5824579 110.7562908  17.9295567  91.1958482
 111.2562686  18.0412102  90.3872801 111.3998515  17.6256620  91.8359290
 104.8144903  25.8374197 104.0826323 104.3311985  26.6374557 104.2890212
 104.9005842  25.8482142 103.1293767  98.0830863  27.6702577  92.0048142
  98.0601551  27.7690264  91.0530025  98.3931499  28.5167727  92.3265308
 100.7418241  29.7278732  96.1194757 101.6961494  29.6962674  96.0524688
 100.5430764  29.2669355  96.9344983 101.3317623  28.2979848  98.6865554
 102.1510512  28.7923926  98.7100392 101.6054431  27.3811816  98.6583122
 111.0884219  20.6890600  88.0493510 110.2010074  20.9740251  87.8313705
 111.5038208  20.5284363  87.2020787 114.4398755  20.7137121  91.7647849
 115.2159145  21.2033573  92.0372466 113.7146889  21.1395175  92.2219719
 116.8771314  21.4264740  92.8221790 117.4715805  21.1860476  92.1115098
 116.9497898  20.7071871  93.4495326  99.0968470  35.2698351  93.1364954
  98.9622938  34.5098752  92.5702953  98.6800532  35.9939251  92.6693743
 110.2327433  30.4535275  82.1441530 110.9363283  30.6585277  82.7599185
 109.5090081  31.0212036  82.4090613 111.0625243  26.2045136  88.2643800
 111.0060444  26.6613687  87.4251432 111.6153585  25.4435820  88.0866643
 114.8730049  21.9934868  89.0893919 114.6166983  21.5931503  89.9202127
 114.2482917  22.7078662  88.9644059 119.1842387  24.7330941  91.5965211
 118.6241945  24.8024130  92.3696773 118.5785890  24.5571926  90.8764707
 102.2537596  36.1667668  93.3483397 102.1369980  37.1113101  93.2462087
 101.4330042  35.8641230  93.7369196 112.1414130  30.8917804  84.1939990
 112.9759734  30.4599002  84.0117465 111.9798473  30.7199817  85.1216884
 111.7960022  27.3949917  85.5596329 111.7408826  27.2294188  84.6184773
 111.1706078  28.1025950  85.7158519  96.5852537  22.6317981  99.3857751
  97.2311401  22.1216935  99.8744977  96.3769688  23.3686663  99.9601177
 109.1105929  29.6998829 104.8849892 109.9797089  29.8739481 104.5236527
 108.6312681  30.5193246 104.7625621 105.1056148  16.8958026  85.1381648
 105.0934818  17.8399866  85.2949918 105.9979570  16.7128171  84.8441109
 103.2792110  36.8195930  96.5639326 104.1819356  36.8519540  96.8805820
 103.0529480  35.8896381  96.5785661 105.0345712  35.5726916  93.2249404
 104.0841343  35.5728778  93.1113776 105.3378198  34.8259651  92.7085439
 108.9208267  13.4900803  89.3927584 108.1540663  12.9359289  89.5384267
 109.3318972  13.5622671  90.2541736 100.9250028  19.7785599 103.4832766
 101.7881490  19.4222403 103.6936090 100.3515439  19.4399493 104.1708170
 120.7698405  41.4087455  94.2895167 121.4076815  41.2894202  93.5858507
 120.6519248  42.3568299  94.3483119 117.5788111  41.3614883  94.2256691
 117.2406623  41.2455948  93.3377226 118.4477880  40.9606048  94.2057697
 113.4374927  43.2150359  90.2153582 112.8739792  43.1240296  89.4469870
 113.3227322  42.3950264  90.6956075 118.0607894  42.5149735 100.1842897
 118.0496535  42.1202533  99.3123400 118.2228534  41.7815807 100.7776668
 110.9839359  44.7101551  93.0537803 111.7760651  44.3692376  92.6384102
 111.2236009  44.8196526  93.9739956 119.0174486  46.8821327  85.5268047
 118.3662466  47.4675408  85.1402061 119.8118849  47.4127522  85.5863085
 112.9430113  43.9710464  85.9255181 113.7160989  43.4239451  85.7868057
 113.2955512  44.8354714  86.1369643 114.7815156  45.2986847  99.1322081
 114.4905022  46.2032477  99.0168747 115.4172140  45.3403374  99.8466150
 115.7071362  42.6763695  95.7223440 116.3034935  42.4519717  95.0080403
 115.7646334  41.9348441  96.3248888 115.2796391  40.1303130  83.5573631
 115.5321911  39.6084652  82.7957094 114.3420950  39.9669276  83.6600315
 120.3239674  39.1338909  91.3648375 121.1102763  38.7158332  91.0138792
 120.5878378  40.0385001  91.5330023 120.4949751  44.5711759  86.0637031
 119.8595584  44.6446386  86.7757936 120.1647157  45.1605358  85.3856111
 125.7248101  39.0714142  92.2681353 126.4573273  38.5013359  92.5019183
 124.9687456  38.6835742  92.7087859 114.9992680  42.0331236  85.7598006
 114.8828938  41.3576140  86.4279091 115.1094939  41.5463610  84.9430159
 117.3424220  41.4941383  89.4644696 116.9782428  40.9672004  90.1757617
 118.1991336  41.1039852  89.2911181 123.2473521  32.7835716  96.7275962
 122.9156846  33.6531127  96.5037177 122.6519134  32.4672000  97.4069992
 116.9829707  36.5231283  84.4606044 117.1504110  37.3911520  84.8276515
 116.7926877  36.6858565  83.5367333 119.7405041  44.9848262  96.1271874
 119.4405764  45.8873301  96.0187682 119.3956100  44.7180445  96.9793027
 113.1917522  41.4362059  92.1608579 112.2668019  41.3038273  92.3686271
 113.4401935  42.2156278  92.6578521 123.1402184  37.5030802  93.8069312
 122.2319062  37.4346211  93.5128073 123.0889780  37.9802747  94.6351137
 116.9618928  38.9788941  85.4452711 116.8418554  39.4245991  86.2838191
 116.2671517  39.3274258  84.8866249 110.5526333  41.0795332  92.9952368
 110.6818714  41.3329811  93.9091780 109.8723784  41.6723040  92.6757023
 114.7225820  51.7492582  89.0942842 114.6449850  52.7000407  89.1731323
 114.1187464  51.4038455  89.7517768 117.2143050  38.9220448 101.7504209
 116.4376384  39.4814368 101.7407074 117.8533613  39.4077231 102.2719079
 125.0063831  35.7047241  95.5847186 124.3638211  35.9979774  94.9386980
 124.5018759  35.5900161  96.3900382 122.6603994  39.4510414  86.2733045
 123.5721851  39.6837801  86.0980742 122.1513642  40.0347458  85.7108124
 115.4689423  41.7305901 101.3122176 116.2104107  42.2690945 101.0357000
 114.7626408  42.3572190 101.4693728 120.9444762  43.8735042  99.9094338
 121.3528118  43.4317452  99.1648970 120.2222024  43.2987669 100.1628530
 117.2975832  38.8107648  97.2827894 118.1437027  39.2347062  97.4262543
 117.2374470  38.1541273  97.9766458 121.2673577  44.4336232  93.6646626
 120.6382439  44.5981946  92.9622694 120.8799239  44.8477842  94.4357590
 125.1462809  45.3690670  91.0190990 124.4613847  45.7489571  90.4688023
 125.2306658  45.9785997  91.7522938 120.4475278  36.4712017  98.9409068
 120.2036209  37.2254077  98.4043344 120.7235208  36.8497364  99.7756315
 122.4013740  43.0150629  97.6186334 122.6130636  43.6582389  96.9420715
 122.3543489  42.1812946  97.1508264 120.0039969  35.6268450  94.5222906
 119.1424448  35.9249703  94.8139643 120.0302404  35.8438849  93.5903938
 116.8201539  44.1710640  90.9296712 117.2839884  44.4498343  90.1401334
 116.5558337  43.2694085  90.7469802 113.7125620  43.7182122  93.8676475
 114.2826977  44.1469390  93.2293959 114.3033732  43.4364707  94.5660660
 115.7570425  40.2933793  87.7386277 116.4594468  40.7454836  88.2060203
 115.4251053  39.6517612  88.3666170 114.2050786  38.8845549 102.1137486
 113.5749447  39.5661830 102.3472883 114.0986874  38.7728631 101.1690624
 109.4995759  38.5517345  93.0403410 108.7094813  38.8074874  92.5643521
 109.9907006  39.3665683  93.1455451 123.5159568  45.8922585  95.7908691
 124.3377012  45.4902772  95.5091373 123.5121971  45.7890819  96.7424807
 111.4510504  38.9161925  89.9986887 110.6541667  39.0280619  90.5170383
 111.2236096  39.2548577  89.1327777 117.2816172  45.4406628  97.9469402
 117.3460604  45.9027035  98.7827573 116.5727096  44.8103993  98.0751711
 107.7833462  38.8047836  95.4718401 108.0341500  39.6894846  95.7375977
 108.3193010  38.6252437  94.6993493 131.6065561  42.2361333  92.1393663
 130.8529270  41.6668731  91.9837667 131.7413103  42.2023998  93.0864297
 116.9964189  47.1074735  87.8148382 116.8609864  47.9526271  88.2433230
 117.5374002  47.3094013  87.0514316 113.4831529  33.1866315 104.4762737
 113.0898475  32.6332514 105.1510381 114.2997669  33.4976894 104.8669255
 110.4493587  44.6250173  88.3876307 110.9618107  45.4193424  88.5381872
 111.1016300  43.9276464  88.3209908 112.2588471  47.7415930  90.4699060
 112.4355100  48.6633894  90.2820044 113.0545305  47.4274349  90.8993440
 116.3999490  34.6024194 102.0682994 117.1409203  35.2031347 101.9887456
 116.6317413  33.8601832 101.5101036 111.5440828  39.7880562 100.3461223
 111.4294343  38.8865819 100.6468322 110.6885346  40.0344258  99.9946040
 118.6232666  47.7298302 101.9448724 118.1796520  46.9434680 101.6269628
 119.2849879  47.9177452 101.2792615 113.3819787  49.2594103  96.4709402
 113.9327212  49.1311167  95.6986396 112.5431263  49.5588992  96.1204295
 120.7213904  48.0101102  99.9730125 120.7032379  48.8309983  99.4810394
 121.6433824  47.8855177 100.1980266 117.1786958  45.5245231 100.8153634
 117.7115295  44.7633519 100.5852942 116.6501039  45.2318883 101.5577788
 120.3456653  30.6305297  96.3447275 120.0020922  31.5206939  96.2686386
 120.7135616  30.4406955  95.4816860 108.4142504  42.9538828  89.1635877
 109.2517726  43.3635836  88.9469585 108.5920771  42.0138270  89.1336071
 120.3106936  40.6213908  84.8519710 119.7953559  41.3918513  85.0908098
 120.0384244  39.9479044  85.4752772 117.8954047  35.4663609  89.9104949
 117.0395643  35.0770459  89.7310588 118.3080998  35.5455570  89.0504734
 119.4253193  33.0009952  94.3096509 118.9217989  32.9640088  93.4964314
 119.7183800  33.9102695  94.3693165 115.6696079  33.0848682  93.3162690
 116.5349076  32.8891491  92.9568580 115.7373588  32.8559034  94.2432047
 125.2841210  43.3746263  86.7872884 124.5070653  43.0357422  86.3428046
 125.9632691  43.3798886  86.1127849 120.0993239  38.4941000  86.6779492
 119.7943374  38.8087150  87.5289635 121.0523681  38.5722420  86.7206825
 118.5439671  44.6531224  88.3272446 118.0161032  43.9183983  88.0145683
 118.0427173  45.4305900  88.0812414 123.5232517  42.8480244  93.4439492
 122.8656191  43.5379506  93.5319621 124.3272916  43.2376676  93.7873478
 113.2758398  35.3150890  90.6879057 113.8502150  35.0926072  89.9552250
 113.8629381  35.3839585  91.4407658 122.3337975  41.2024617  91.4943434
 122.8469857  41.8354609  91.9965143 122.9839199  40.6025812  91.1286794
 113.6027985  37.3455351  84.7074942 112.7665298  37.6830038  85.0284217
 113.4632755  37.2104331  83.7702079 115.5781066  32.1892139  89.4154127
 114.9245478  31.8741156  88.7910741 115.5361540  31.5667879  90.1413949
 116.6892271  42.4711434  81.3307419 115.7819333  42.2400687  81.5298568
 117.1863303  41.6749053  81.5181400 119.5960350  51.1808941  84.2504105
 118.9222048  51.4840638  84.8589063 119.9826172  51.9838022  83.9009562
 118.8118806  38.6774072  93.7401774 117.8941368  38.8989019  93.5823462
 119.2278950  38.7520383  92.8813482 119.5953854  40.0765488  88.8704454
 120.3425673  40.5886885  88.5611576 119.8645444  39.7549541  89.7308848
 117.8680504  42.5724029  85.8531409 116.9591724  42.2883062  85.9503878
 117.8975588  42.9923107  84.9934716 123.0999772  46.1830618  89.6222576
 122.6462099  45.3421528  89.6787767 122.4693738  46.8192017  89.9597356
 122.0432691  37.1122604  90.8523244 121.3055448  36.5999991  91.1833486
 122.2959465  36.6722986  90.0406521 121.5432711  48.0207115  90.5572394
 121.8355685  48.5812172  89.8384760 122.0531332  48.3135676  91.3125554
 122.1444319  29.8898856  91.4465013 122.4503195  29.0296220  91.1590928
 122.8696923  30.4816477  91.2464007 108.4368675  40.2929543  89.8346611
 108.2393074  39.6998904  89.1097678 107.8815339  39.9881753  90.5522550
 116.4165398  40.1852649  91.9541204 116.4714008  39.2326486  91.8783681
 115.6056600  40.3412089  92.4382502 117.5656592  44.1132773  83.1919487
 117.1276022  43.3968631  82.7325125 118.3067033  44.3408887  82.6304579
 114.3557758  38.8029709  89.7131583 113.5425624  39.1023880  90.1196775
 114.8516752  38.4085398  90.4306065 116.5066336  48.7987466  91.6465848
 116.4642515  49.0248312  90.7174380 117.4229035  48.5650841  91.7951649
 119.9531970  39.2671534  98.5446477 120.3081358  39.4943007  99.4040943
 120.6004101  39.5989910  97.9223732 125.6829707  42.3889970  89.2495806
 125.5447605  42.5791566  88.3216995 125.3265926  43.1509352  89.7063857
 113.8471833  36.3748065  95.3292818 114.4871212  36.2336824  94.6315781
 113.0149364  36.0882578  94.9531420 125.7099086  44.4566497  94.2607077
 126.1435593  44.3641786  95.1090131 126.4230667  44.4323997  93.6227093
 114.6232137  45.6750495  91.4427810 115.4172735  45.1800815  91.2410385
 113.9123829  45.1468358  91.0795516 119.4426981  48.0568591  95.7940178
 119.4964004  48.6259527  96.5617894 118.5741763  48.2270476  95.4294215
 110.9314900  39.8193577  87.5187563 110.0012488  39.7578032  87.7357525
 111.0272372  39.2969530  86.7224204 110.8500449  36.3448390  90.1065805
 111.1107267  37.2593723  89.9974965 111.6717622  35.8772832  90.2562418
 112.3225375  37.7586147  97.2764629 112.9948428  37.5503509  96.6277278
 111.4955161  37.5608233  96.8369862 126.5714636  44.4990197  96.7939963
 126.7650526  45.4036008  97.0399238 126.4715254  44.0397616  97.6278548
 118.2250947  34.3848088  99.2930290 117.5778862  35.0838037  99.1994767
 118.9951962  34.8184232  99.6606538 121.6329745  44.6496940 102.3680843
 121.4815251  44.4207492 101.4510927 121.6234424  45.6067541 102.3812188
 118.4015081  42.2228853  97.3527110 119.3307141  42.3740012  97.1796077
 117.9806111  42.3112874  96.4975756 117.2003413  46.2479517  95.1225647
 117.0614499  45.8798302  95.9951586 116.4118009  46.7627157  94.9509605
 117.7951565  51.3488614  86.4651184 117.9703321  50.8776657  87.2796807
 117.1084353  51.9754380  86.6932445 118.7508628  45.6261120  92.5114485
 118.4158461  45.5861890  93.4072135 118.2512574  44.9605836  92.0384895
 112.7252872  41.0328750  98.0367066 112.5872670  40.3008989  98.6378605
 113.6357795  40.9437650  97.7551254 121.6867820  42.9717154  82.7851545
 121.0696990  42.2463982  82.6884598 121.2184308  43.7326514  82.4418619
 115.3535173  40.7448709  97.5250746 116.0634791  40.1041901  97.4837364
 115.3104481  40.9961604  98.4476927 123.3421951  47.6816063 100.4457325
 123.2834498  46.9975283  99.7787908 123.7441470  48.4235053  99.9937951
 114.0664107  37.7313927  99.3446386 113.5301464  37.2804666  99.9967982
 113.4780815  37.8659836  98.6016850 112.3612650  54.4977976  93.2391044
 112.6009248  55.1296501  93.9170063 111.5181847  54.1466016  93.5256403
 113.4766366  37.1902578  81.9072849 112.5995832  37.0691379  81.5435096
 113.9524119  36.3988657  81.6551738 123.3439359  45.6455646  98.6771305
 122.4566137  45.3081568  98.7997704 123.9137910  44.9138678  98.9140070
 104.9968506  41.9779738  92.0014356 105.6839546  41.6641468  91.4135372
 104.8416634  42.8821103  91.7281608 109.8003228  36.8669935  96.4299380
 109.7161417  36.2595604  95.6949790 108.9785934  37.3578953  96.4308876
 116.8740512  50.3057099  95.6432548 116.8010683  51.1112070  96.1551853
 116.4317905  50.5049065  94.8180570 116.6630292  49.5428869  89.1535370
 115.8797814  50.0850549  89.2473594 117.3623037  50.0602848  89.5529611
 119.9726942  35.3523498  91.7969575 120.4695641  34.5993461  91.4770645
 119.2013923  35.3887815  91.2312784 127.8256699  41.0563864  93.4387867
 127.8146575  41.9388579  93.0681800 126.9574079  40.7035415  93.2442404
 119.3339196  50.2043933  97.7990707 120.0467168  50.8391398  97.7266608
 118.8429224  50.3007799  96.9830709 121.0556722  44.1095186  89.3707998
 120.1213001  44.2296648  89.2012703 121.2333391  43.2067652  89.1068008
 116.5561911  37.4940881  91.5241260 116.1859698  36.9411922  92.2122165
 117.0521003  36.8899015  90.9716260 124.4429274  39.9512505  89.9058033
 124.9089726  40.7840496  89.8318335 124.8936774  39.4857486  90.6103291
 114.3851109  47.9538376  98.6196278 115.0860569  48.5874859  98.7725672
 113.9146224  48.2953108  97.8591917 122.5105505  46.2956326  86.9044185
 122.7865349  46.1812921  87.8138059 121.6410004  45.8973811  86.8656358
 122.4145937  32.3193092  93.9448934 121.5009016  32.5497319  94.1131141
 122.8439038  32.4031536  94.7962966 122.1852395  40.5082984  96.4448828
 121.5323845  40.7558891  95.7901281 122.5632775  39.6947122  96.1111305
 119.1459569  50.5442677  90.5476998 119.3281963  49.7264333  91.0104751
 119.9692555  50.7610369  90.1101888 119.4801734  49.4710862  87.8092047
 120.0089501  48.9603317  87.1962209 119.7429954  49.1553392  88.6737580
 118.2339968  41.2502795 102.9314865 117.5580605  41.1496924 103.6017240
 119.0567602  41.0942009 103.3950862 109.9818827  47.4874731  95.5527380
 110.5672264  46.7418419  95.6855285 109.7843666  47.7978688  96.4364044
 112.8357482  50.5225979  90.5689823 112.1667858  51.0072106  90.0853863
 112.6970352  50.7695199  91.4833201 104.5736482  40.0580332  94.2731823
 104.6120581  39.5243922  95.0668942 104.0676775  39.5315537  93.6542801
 116.9762751  52.5569722  97.1672481 117.5281059  52.7201344  97.9321566
 117.3168944  53.1474160  96.4952506 111.9527244  34.9044872  97.7694366
 112.0168571  35.7659703  97.3571763 111.8894364  34.2918874  97.0366724
 111.4279517  36.9768005 101.4167400 112.0551556  36.5945082 102.0304924
 110.5707436  36.7582207 101.7823093 121.8273625  47.3830980 103.0221135
 122.3713529  47.9960938 102.5276090 121.2460470  47.9410558 103.5388148
 108.2045059  38.7844434  87.3485755 108.4998501  37.8755112  87.2952809
 107.3033095  38.7632173  87.0266757 120.1131138  50.5051698  94.1536163
 119.9882278  49.7041438  93.6447109 120.7710229  50.9997891  93.6650133
 111.7339306  36.8600430  93.3313303 111.0125892  37.4736398  93.1920777
 112.5232562  37.3958195  93.2529949 122.1766047  48.3060718  95.7815713
 121.2296382  48.1866069  95.7094040 122.5248820  47.4183216  95.8641975
 114.5365620  34.1954857  99.6053955 115.0600022  34.4417153 100.3680264
 114.3177953  35.0274892  99.1857093 109.9332901  36.4658531  87.4725080
 109.6045607  35.5855910  87.2900186 110.2872272  36.4106200  88.3601469
 119.1812480  48.1013434  91.9820066 119.0337442  47.1730142  92.1627636
 120.0065973  48.1233525  91.4977141 113.0474724  36.7531501  87.8400558
 113.3870797  37.2817422  87.1179166 113.4946845  37.0911907  88.6159124
 122.7846602  48.9241993  93.0684938 123.7093149  48.7184854  92.9309389
 122.6161905  48.6758394  93.9774280 115.7418165  35.1368552  97.2903626
 115.4014985  34.3376365  97.6924306 115.0357171  35.4370263  96.7180459
 116.3934637  32.2217864  95.7430949 117.2160706  31.7478343  95.6209839
 116.6372700  33.0008348  96.2429635 115.0342871  35.2506123  86.0393850
 115.7551234  35.6287376  85.5357567 114.4108175  35.9695000  86.1428828
 119.1773994  35.9551272  86.9752183 119.3937609  36.8375910  86.6741011
 118.6968061  35.5637485  86.2457825 113.9173216  38.9136985  93.5522927
 113.7717796  39.2277288  94.4447209 113.4398419  39.5321885  92.9993826
 115.7769598  35.9039533  93.6003817 115.7631167  35.0080626  93.2636115
 116.4942027  35.9110197  94.2342103 117.6295729  36.3376873  95.6456944
 117.3713507  37.2593944  95.6441275 117.0980770  35.9407308  96.3357408
 122.5741918  49.4427660  88.4247030 122.7478795  48.8774083  87.6720882
 123.0670809  50.2428555  88.2426520 108.3918878  41.4542329  96.4910589
 107.8472346  42.2302137  96.6230863 109.2698228  41.8013134  96.3329710
 115.1806494  34.7853913  88.8691387 115.3022406  33.8570559  89.0682275
 114.8908537  34.7992599  87.9569702 118.0497685  32.4708824  92.0058107
 118.0719382  32.5348157  91.0510086 118.4665744  31.6313332  92.1998613
 128.4281309  42.2064083  90.0437329 128.8712455  41.4571408  89.6456453
 127.5507819  42.1974220  89.6611061 123.5617090  48.7594425  85.5243928
 124.2567995  49.3801117  85.7431243 123.9040241  47.9089776  85.7996306
 109.1784900  40.5812226  99.3840745 108.4366636  40.7294861  99.9705376
 108.8577644  40.8420491  98.5207495 125.4608514  46.2094130  87.0531259
 125.9859838  46.5481403  86.3280579 125.3730866  45.2741146  86.8694393
 117.1228562  50.1228204  99.1821135 117.4315689  49.8777351 100.0543835
 117.9204044  50.3274842  98.6940006 117.1449174  52.2766113  91.4126512
 116.7054165  51.7842492  92.1059369 117.8957291  51.7339081  91.1718587
 109.6241513  48.4677654  91.4151140 110.4499533  48.1681426  91.0349784
 109.2735565  47.6985277  91.8640929 114.5923046  47.8204123  93.4848814
 113.9703056  47.1574828  93.1851041 115.2627913  47.8465254  92.8022461
 107.8250118  46.3863981  92.3740074 106.9882027  45.9586155  92.1924075
 107.7973764  46.5796424  93.3110865 114.6647574  36.2985911 103.0781320
 114.7135729  37.1748033 102.6959089 115.2070088  35.7563304 102.5052963
 125.1502420  46.8427034 102.3582457 124.3597963  46.8251173 101.8186956
 124.9135774  47.3815328 103.1131493 125.2700295  43.6919500  99.6715185
 125.3198300  43.5269508 100.6130708 125.1614218  42.8246759  99.2813066
 114.1536553  46.3708046  86.9607274 114.3024674  47.0543510  86.3073947
 114.9602997  46.3513136  87.4756730 122.5604057  39.6750428 100.9874492
 123.4613920  39.5356893 100.6958490 122.6352032  39.8404883 101.9272669
 116.8946862  37.0517283  99.8327678 116.0250172  37.3450849  99.5610267
 117.1306343  37.6357728 100.5534942 126.7718492  46.1116442  99.9157207
 126.4803300  46.4746422 100.7520668 126.1590623  45.3983450  99.7370539
 127.9714174  43.6769322  92.4359777 128.8061065  44.1159126  92.5997337
 128.1073303  43.2007975  91.6168023 125.0205680  41.2349056  98.3837265
 125.4959801  41.4276703  97.5756116 124.0971245  41.2908242  98.1380648
 111.9089186  42.3973224  87.9668343 111.6635228  41.4935554  88.1648553
 112.0785101  42.3990374  87.0247821 119.5985896  33.2696900  97.3493099
 120.1167840  34.0057927  97.0239587 119.2441029  33.5760893  98.1839858
 111.1784834  38.1301581  85.4654505 110.4854079  38.2045936  84.8094541
 110.9336586  37.3661925  85.9876021 119.8498490  29.6897182  92.8693995
 120.1300244  29.0220372  93.4954422 120.6349097  29.8826278  92.3568659
 117.6531959  48.8656176  84.4319022 117.0805926  49.4846363  83.9789493
 118.2264753  49.4155538  84.9658944 123.7207349  38.1114816  96.6165570
 124.6724772  38.2112914  96.6377794 123.5510799  37.3193085  97.1263655
 121.7421728  35.1970400  96.8024971 121.1471660  35.4775412  96.1071460
 121.4571425  35.6864301  97.5741712 120.8729219  49.1493326  85.5627604
 121.8059892  49.0838888  85.7660479 120.7852432  49.9849593  85.1042137
 123.5017235  48.4659197  82.5231551 123.4230867  48.1319060  83.4167309
 124.3226902  48.9580965  82.5223024 126.1995427  41.3320936  95.7307870
 126.1671747  40.3936937  95.9167554 126.8096050  41.4104973  94.9973695
 118.0378757  40.2016989  81.7735074 118.9837862  40.0723197  81.8423492
 117.6593002  39.4631651  82.2504502 126.3489915  38.1231980  95.7766153
 125.8328964  37.3390436  95.5896082 127.2329864  37.7950696  95.9412673
 124.0100642  31.8672995  91.7361966 123.8125463  31.5588083  92.6205298
 124.6200348  32.5934634  91.8659896 132.0171976  42.3936943  94.8713907
 132.7475365  42.1322231  95.4321610 131.4078922  41.6565665  94.9115975
 130.0987274  40.5344806  95.4688358 129.3720437  40.4000771  94.8604850
 129.6834560  40.8421634  96.2745076 117.9217450  44.2534735 103.2335731
 118.8420459  44.4313334 103.4275778 117.8867033  43.3090781 103.0815430
 116.2221675  38.1266966  81.7089959 115.3153130  37.8300078  81.7852673
 116.4997656  37.8296784  80.8424246 107.1399615  39.4473329  92.1589006
 106.8202399  38.5938637  91.8663380 106.5933043  39.6621907  92.9146973
 110.9179522  42.1635770  95.8758512 111.1365532  43.0952878  95.8946546
 111.3305296  41.8043744  96.6613316 117.8383740  32.6703855  87.8634201
 117.0284469  32.3250940  88.2389447 118.5268157  32.3611399  88.4521812
 119.7674289  31.7481902  89.4858497 120.3205327  32.1677355  90.1448520
 120.0044375  30.8217650  89.5281453 115.7907388  37.7368976 105.2661261
 115.6904115  38.6863333 105.1973352 115.5728930  37.4087215 104.3937331
 114.9920459  34.9853901  81.8501939 115.8539623  35.3108799  82.1097756
 115.1770803  34.1985397  81.3375004 107.0087875  43.0676240  94.1282127
 106.3151346  42.6530193  93.6152082 107.7560866  43.1096777  93.5315546
 123.1453096  33.8582427  88.9937162 122.5651765  34.5167231  88.6115214
 122.8789028  33.0359772  88.5824579 121.5956662  33.2587485  91.1958482
 122.0956440  33.3704019  90.3872801 122.2392270  32.9548538  91.8359290
 115.6538658  41.1666115 104.0826323 115.1705740  41.9666475 104.2890212
 115.7399597  41.1774059 103.1293767 108.9224617  42.9994494  92.0048142
 108.8995306  43.0982181  91.0530025 109.2325254  43.8459645  92.3265308
 111.5811995  45.0570649  96.1194757 112.5355249  45.0254592  96.0524688
 111.3824519  44.5961273  96.9344983 112.1711377  43.6271765  98.6865554
 112.9904266  44.1215844  98.7100392 112.4448185  42.7103733  98.6583122
 121.9277974  36.0182518  88.0493510 121.0403829  36.3032168  87.8313705
 122.3431963  35.8576281  87.2020787 125.2792510  36.0429039  91.7647849
 126.0552900  36.5325491  92.0372466 124.5540644  36.4687093  92.2219719
 127.7165068  36.7556658  92.8221790 128.3109559  36.5152394  92.1115098
 127.7891652  36.0363788  93.4495326 109.9362224  50.5990269  93.1364954
 109.8016692  49.8390670  92.5702953 109.5194286  51.3231169  92.6693743
 121.0721187  45.7827192  82.1441530 121.7757037  45.9877195  82.7599185
 120.3483836  46.3503954  82.4090613 121.9018997  41.5337054  88.2643800
 121.8454199  41.9905605  87.4251432 122.4547340  40.7727738  88.0866643
 125.7123803  37.3226785  89.0893919 125.4560738  36.9223421  89.9202127
 125.0876671  38.0370579  88.9644059 130.0236141  40.0622859  91.5965211
 129.4635699  40.1316048  92.3696773 129.4179645  39.8863843  90.8764707
 113.0931350  51.4959586  93.3483397 112.9763734  52.4405018  93.2462087
 112.2723796  51.1933147  93.7369196 122.9807885  46.2209721  84.1939990
 123.8153488  45.7890920  84.0117465 122.8192227  46.0491735  85.1216884
 122.6353777  42.7241835  85.5596329 122.5802581  42.5586106  84.6184773
 122.0099832  43.4317868  85.7158519 107.4246292  37.9609899  99.3857751
 108.0705155  37.4508853  99.8744977 107.2163443  38.6978581  99.9601177
 119.9499684  45.0290747 104.8849892 120.8190844  45.2031399 104.5236527
 119.4706435  45.8485163 104.7625621 115.9449902  32.2249944  85.1381648
 115.9328572  33.1691784  85.2949918 116.8373324  32.0420089  84.8441109
 114.1185864  52.1487848  96.5639326 115.0213111  52.1811458  96.8805820
 113.8923234  51.2188299  96.5785661 115.8739466  50.9018834  93.2249404
 114.9235097  50.9020696  93.1113776 116.1771952  50.1551569  92.7085439
 119.7602022  28.8192720  89.3927584 118.9934417  28.2651207  89.5384267
 120.1712727  28.8914589  90.2541736 111.7643783  35.1077516 103.4832766
 112.6275244  34.7514321 103.6936090 111.1909193  34.7691411 104.1708170
 131.6092160  56.7379373  94.2895167 132.2470570  56.6186120  93.5858507
 131.4913003  57.6860217  94.3483119 128.4181866  56.6906801  94.2256691
 128.0800377  56.5747865  93.3377226 129.2871634  56.2897966  94.2057697
 124.2768682  58.5442277  90.2153582 123.7133547  58.4532214  89.4469870
 124.1621077  57.7242182  90.6956075 128.9001649  57.8441652 100.1842897
 128.8890290  57.4494451  99.3123400 129.0622288  57.1107725 100.7776668
 121.8233114  60.0393469  93.0537803 122.6154405  59.6984293  92.6384102
 122.0629764  60.1488444  93.9739956 129.8568240  62.2113245  85.5268047
 129.2056220  62.7967325  85.1402061 130.6512603  62.7419440  85.5863085
 123.7823867  59.3002382  85.9255181 124.5554743  58.7531369  85.7868057
 124.1349266  60.1646631  86.1369643 125.6208910  60.6278764  99.1322081
 125.3298776  61.5324395  99.0168747 126.2565894  60.6695292  99.8466150
 126.5465117  58.0055613  95.7223440 127.1428689  57.7811635  95.0080403
 126.6040088  57.2640358  96.3248888 126.1190145  55.4595048  83.5573631
 126.3715666  54.9376569  82.7957094 125.1814704  55.2961193  83.6600315
 131.1633428  54.4630826  91.3648375 131.9496517  54.0450250  91.0138792
 131.4272132  55.3676919  91.5330023 131.3343505  59.9003677  86.0637031
 130.6989338  59.9738303  86.7757936 131.0040912  60.4897276  85.3856111
 136.5641855  54.4006060  92.2681353 137.2967027  53.8305276  92.5019183
 135.8081211  54.0127660  92.7087859 125.8386434  57.3623154  85.7598006
 125.7222692  56.6868057  86.4279091 125.9488694  56.8755528  84.9430159
 128.1817975  56.8233301  89.4644696 127.8176182  56.2963922  90.1757617
 129.0385091  56.4331770  89.2911181 134.0867276  48.1127634  96.7275962
 133.7550600  48.9823045  96.5037177 133.4912889  47.7963918  97.4069992
 127.8223462  51.8523201  84.4606044 127.9897864  52.7203437  84.8276515
 127.6320631  52.0150482  83.5367333 130.5798795  60.3140180  96.1271874
 130.2799518  61.2165219  96.0187682 130.2349855  60.0472363  96.9793027
 124.0311277  56.7653977  92.1608579 123.1061773  56.6330191  92.3686271
 124.2795690  57.5448196  92.6578521 133.9795939  52.8322720  93.8069312
 133.0712816  52.7638128  93.5128073 133.9283535  53.3094665  94.6351137
 127.8012683  54.3080858  85.4452711 127.6812308  54.7537909  86.2838191
 127.1065271  54.6566176  84.8866249 121.3920088  56.4087250  92.9952368
 121.5212469  56.6621729  93.9091780 120.7117539  57.0014958  92.6757023
 125.5619575  67.0784500  89.0942842 125.4843605  68.0292325  89.1731323
 124.9581219  66.7330373  89.7517768 128.0536805  54.2512365 101.7504209
 127.2770139  54.8106286 101.7407074 128.6927368  54.7369148 102.2719079
 135.8457585  51.0339158  95.5847186 135.2031966  51.3271691  94.9386980
 135.3412514  50.9192079  96.3900382 133.4997749  54.7802331  86.2733045
 134.4115605  55.0129718  86.0980742 132.9907396  55.3639376  85.7108124
 126.3083177  57.0597819 101.3122176 127.0497861  57.5982863 101.0357000
 125.6020162  57.6864108 101.4693728 131.7838517  59.2026959  99.9094338
 132.1921873  58.7609370  99.1648970 131.0615778  58.6279587 100.1628530
 128.1369587  54.1399566  97.2827894 128.9830782  54.5638980  97.4262543
 128.0768224  53.4833190  97.9766458 132.1067331  59.7628150  93.6646626
 131.4776194  59.9273864  92.9622694 131.7192993  60.1769759  94.4357590
 135.9856563  60.6982588  91.0190990 135.3007601  61.0781489  90.4688023
 136.0700412  61.3077914  91.7522938 131.2869032  51.8003934  98.9409068
 131.0429964  52.5545995  98.4043344 131.5628963  52.1789282  99.7756315
 133.2407495  58.3442547  97.6186334 133.4524390  58.9874307  96.9420715
 133.1937243  57.5104863  97.1508264 130.8433724  50.9560367  94.5222906
 129.9818203  51.2541621  94.8139643 130.8696158  51.1730766  93.5903938
 127.6595293  59.5002558  90.9296712 128.1233639  59.7790261  90.1401334
 127.3952091  58.5986003  90.7469802 124.5519374  59.0474040  93.8676475
 125.1220731  59.4761308  93.2293959 125.1427486  58.7656624  94.5660660
 126.5964179  55.6225710  87.7386277 127.2988223  56.0746754  88.2060203
 126.2644808  54.9809529  88.3666170 125.0444541  54.2137467 102.1137486
 124.4143201  54.8953748 102.3472883 124.9380629  54.1020549 101.1690624
 120.3389513  53.8809263  93.0403410 119.5488567  54.1366792  92.5643521
 120.8300761  54.6957601  93.1455451 134.3553323  61.2214502  95.7908691
 135.1770766  60.8194689  95.5091373 134.3515726  61.1182736  96.7424807
 122.2904259  54.2453842  89.9986887 121.4935422  54.3572537  90.5170383
 122.0629851  54.5840495  89.1327777 128.1209926  60.7698546  97.9469402
 128.1854359  61.2318953  98.7827573 127.4120850  60.1395910  98.0751711
 118.6227216  54.1339753  95.4718401 118.8735255  55.0186763  95.7375977
 119.1586765  53.9544355  94.6993493 142.4459316  57.5653251  92.1393663
 141.6923024  56.9960649  91.9837667 142.5806857  57.5315915  93.0864297
 127.8357944  62.4366653  87.8148382 127.7003619  63.2818189  88.2433230
 128.3767756  62.6385931  87.0514316 124.3225283  48.5158233 104.4762737
 123.9292229  47.9624431 105.1510381 125.1391424  48.8268811 104.8669255
 121.2887341  59.9542091  88.3876307 121.8011862  60.7485341  88.5381872
 121.9410054  59.2568381  88.3209908 123.0982226  63.0707847  90.4699060
 123.2748854  63.9925812  90.2820044 123.8939059  62.7566267  90.8993440
 127.2393244  49.9316112 102.0682994 127.9802958  50.5323265 101.9887456
 127.4711167  49.1893750 101.5101036 122.3834582  55.1172479 100.3461223
 122.2688098  54.2157736 100.6468322 121.5279100  55.3636176  99.9946040
 129.4626420  63.0590220 101.9448724 129.0190274  62.2726598 101.6269628
 130.1243634  63.2469370 101.2792615 124.2213541  64.5886021  96.4709402
 124.7720967  64.4603084  95.6986396 123.3825017  64.8880910  96.1204295
 131.5607658  63.3393019  99.9730125 131.5426134  64.1601900  99.4810394
 132.4827578  63.2147095 100.1980266 128.0180712  60.8537149 100.8153634
 128.5509049  60.0925437 100.5852942 127.4894794  60.5610801 101.5577788
 131.1850407  45.9597215  96.3447275 130.8414677  46.8498857  96.2686386
 131.5529370  45.7698873  95.4816860 119.2536258  58.2830745  89.1635877
 120.0911480  58.6927754  88.9469585 119.4314526  57.3430188  89.1336071
 131.1500690  55.9505826  84.8519710 130.6347314  56.7210431  85.0908098
 130.8777999  55.2770962  85.4752772 128.7347801  50.7955527  89.9104949
 127.8789398  50.4062377  89.7310588 129.1474753  50.8747488  89.0504734
 130.2646948  48.3301870  94.3096509 129.7611743  48.2932005  93.4964314
 130.5577555  49.2394613  94.3693165 126.5089834  48.4140600  93.3162690
 127.3742830  48.2183408  92.9568580 126.5767343  48.1850952  94.2432047
 136.1234964  58.7038181  86.7872884 135.3464407  58.3649340  86.3428046
 136.8026445  58.7090804  86.1127849 130.9386993  53.8232918  86.6779492
 130.6337129  54.1379067  87.5289635 131.8917435  53.9014338  86.7206825
 129.3833425  59.9823141  88.3272446 128.8554787  59.2475901  88.0145683
 128.8820928  60.7597818  88.0812414 134.3626271  58.1772162  93.4439492
 133.7049946  58.8671423  93.5319621 135.1666670  58.5668594  93.7873478
 124.1152153  50.6442808  90.6879057 124.6895905  50.4217989  89.9552250
 124.7023135  50.7131502  91.4407658 133.1731730  56.5316535  91.4943434
 133.6863612  57.1646526  91.9965143 133.8232954  55.9317730  91.1286794
 124.4421740  52.6747269  84.7074942 123.6059052  53.0121955  85.0284217
 124.3026510  52.5396249  83.7702079 126.4174820  47.5184057  89.4154127
 125.7639233  47.2033074  88.7910741 126.3755295  46.8959797  90.1413949
 127.5286025  57.8003352  81.3307419 126.6213087  57.5692605  81.5298568
 128.0257057  57.0040971  81.5181400 130.4354104  66.5100859  84.2504105
 129.7615803  66.8132556  84.8589063 130.8219926  67.3129939  83.9009562
 129.6512561  54.0065990  93.7401774 128.7335122  54.2280937  93.5823462
 130.0672704  54.0812301  92.8813482 130.4347609  55.4057406  88.8704454
 131.1819428  55.9178803  88.5611576 130.7039198  55.0841459  89.7308848
 128.7074259  57.9015947  85.8531409 127.7985478  57.6174979  85.9503878
 128.7369343  58.3215025  84.9934716 133.9393526  61.5122536  89.6222576
 133.4855853  60.6713446  89.6787767 133.3087493  62.1483934  89.9597356
 132.8826446  52.4414522  90.8523244 132.1449203  51.9291908  91.1833486
 133.1353219  52.0014904  90.0406521 132.3826465  63.3499033  90.5572394
 132.6749440  63.9104090  89.8384760 132.8925086  63.6427594  91.3125554
 132.9838073  45.2190774  91.4465013 133.2896950  44.3588137  91.1590928
 133.7090678  45.8108394  91.2464007 119.2762429  55.6221461  89.8346611
 119.0786829  55.0290821  89.1097678 118.7209093  55.3173671  90.5522550
 127.2559153  55.5144567  91.9541204 127.3107763  54.5618404  91.8783681
 126.4450355  55.6704006  92.4382502 128.4050347  59.4424690  83.1919487
 127.9669776  58.7260549  82.7325125 129.1460787  59.6700805  82.6304579
 125.1951513  54.1321627  89.7131583 124.3819378  54.4315797  90.1196775
 125.6910507  53.7377316  90.4306065 127.3460091  64.1279384  91.6465848
 127.3036269  64.3540230  90.7174380 128.2622789  63.8942758  91.7951649
 130.7925724  54.5963451  98.5446477 131.1475112  54.8234924  99.4040943
 131.4397856  54.9281828  97.9223732 136.5223461  57.7181887  89.2495806
 136.3841360  57.9083483  88.3216995 136.1659680  58.4801270  89.7063857
 124.6865587  51.7039982  95.3292818 125.3264967  51.5628742  94.6315781
 123.8543118  51.4174496  94.9531420 136.5492841  59.7858414  94.2607077
 136.9829348  59.6933703  95.1090131 137.2624422  59.7615915  93.6227093
 125.4625891  61.0042413  91.4427810 126.2566490  60.5092733  91.2410385
 124.7517584  60.4760276  91.0795516 130.2820736  63.3860508  95.7940178
 130.3357758  63.9551445  96.5617894 129.4135517  63.5562393  95.4294215
 121.7708655  55.1485495  87.5187563 120.8406243  55.0869950  87.7357525
 121.8666127  54.6261447  86.7224204 121.6894204  51.6740307  90.1065805
 121.9501021  52.5885641  89.9974965 122.5111376  51.2064750  90.2562418
 123.1619129  53.0878065  97.2764629 123.8342183  52.8795427  96.6277278
 122.3348916  52.8900151  96.8369862 137.4108391  59.8282115  96.7939963
 137.6044281  60.7327925  97.0399238 137.3109009  59.3689534  97.6278548
 129.0644701  49.7140005  99.2930290 128.4172616  50.4129955  99.1994767
 129.8345717  50.1476149  99.6606538 132.4723499  59.9788858 102.3680843
 132.3209006  59.7499409 101.4510927 132.4628179  60.9359459 102.3812188
 129.2408836  57.5520770  97.3527110 130.1700896  57.7031930  97.1796077
 128.8199866  57.6404791  96.4975756 128.0397167  61.5771435  95.1225647
 127.9008253  61.2090219  95.9951586 127.2511764  62.0919074  94.9509605
 128.6345319  66.6780531  86.4651184 128.8097075  66.2068574  87.2796807
 127.9478107  67.3046297  86.6932445 129.5902383  60.9553038  92.5114485
 129.2552215  60.9153807  93.4072135 129.0906328  60.2897753  92.0384895
 123.5646626  56.3620668  98.0367066 123.4266424  55.6300906  98.6378605
 124.4751550  56.2729568  97.7551254 132.5261574  58.3009072  82.7851545
 131.9090745  57.5755900  82.6884598 132.0578063  59.0618432  82.4418619
 126.1928927  56.0740627  97.5250746 126.9028546  55.4333819  97.4837364
 126.1498235  56.3253522  98.4476927 134.1815706  63.0107980 100.4457325
 134.1228252  62.3267200  99.7787908 134.5835224  63.7526970  99.9937951
 124.9057861  53.0605845  99.3446386 124.3695218  52.6096583  99.9967982
 124.3174570  53.1951754  98.6016850 123.2006405  69.8269894  93.2391044
 123.4403003  70.4588418  93.9170063 122.3575601  69.4757934  93.5256403
 124.3160120  52.5194496  81.9072849 123.4389586  52.3983297  81.5435096
 124.7917873  51.7280574  81.6551738 134.1833113  60.9747564  98.6771305
 133.2959892  60.6373486  98.7997704 134.7531664  60.2430595  98.9140070
 115.8362260  57.3071656  92.0014356 116.5233300  56.9933386  91.4135372
 115.6810389  58.2113021  91.7281608 120.6396982  52.1961852  96.4299380
 120.5555171  51.5887522  95.6949790 119.8179689  52.6870871  96.4308876
 127.7134267  65.6349016  95.6432548 127.6404438  66.4403988  96.1551853
 127.2711660  65.8340982  94.8180570 127.5024046  64.8720787  89.1535370
 126.7191568  65.4142467  89.2473594 128.2016791  65.3894766  89.5529611
 130.8120696  50.6815416  91.7969575 131.3089396  49.9285378  91.4770645
 130.0407678  50.7179733  91.2312784 138.6650454  56.3855782  93.4387867
 138.6540330  57.2680497  93.0681800 137.7967833  56.0327332  93.2442404
 130.1732950  65.5335851  97.7990707 130.8860922  66.1683315  97.7266608
 129.6822979  65.6299717  96.9830709 131.8950477  59.4387103  89.3707998
 130.9606756  59.5588566  89.2012703 132.0727145  58.5359570  89.1068008
 127.3955665  52.8232799  91.5241260 127.0253453  52.2703839  92.2122165
 127.8914757  52.2190932  90.9716260 135.2823028  55.2804422  89.9058033
 135.7483480  56.1132414  89.8318335 135.7330529  54.8149404  90.6103291
 125.2244864  63.2830294  98.6196278 125.9254323  63.9166777  98.7725672
 124.7539979  63.6245026  97.8591917 133.3499259  61.6248244  86.9044185
 133.6259103  61.5104838  87.8138059 132.4803758  61.2265729  86.8656358
 133.2539691  47.6485009  93.9448934 132.3402771  47.8789236  94.1131141
 133.6832792  47.7323454  94.7962966 133.0246150  55.8374901  96.4448828
 132.3717600  56.0850809  95.7901281 133.4026529  55.0239040  96.1111305
 129.9853323  65.8734595  90.5476998 130.1675718  65.0556251  91.0104751
 130.8086309  66.0902287  90.1101888 130.3195489  64.8002780  87.8092047
 130.8483255  64.2895234  87.1962209 130.5823708  64.4845310  88.6737580
 129.0733723  56.5794712 102.9314865 128.3974360  56.4788842 103.6017240
 129.8961356  56.4233926 103.3950862 120.8212582  62.8166649  95.5527380
 121.4066018  62.0710337  95.6855285 120.6237420  63.1270606  96.4364044
 123.6751237  65.8517896  90.5689823 123.0061612  66.3364024  90.0853863
 123.5364107  66.0987117  91.4833201 115.4130236  55.3872249  94.2731823
 115.4514336  54.8535840  95.0668942 114.9070529  54.8607455  93.6542801
 127.8156505  67.8861640  97.1672481 128.3674813  68.0493261  97.9321566
 128.1562699  68.4766078  96.4952506 122.7920999  50.2336790  97.7694366
 122.8562325  51.0951621  97.3571763 122.7288119  49.6210791  97.0366724
 122.2673271  52.3059922 101.4167400 122.8945310  51.9237000 102.0304924
 121.4101190  52.0874124 101.7823093 132.6667380  62.7122897 103.0221135
 133.2107284  63.3252856 102.5276090 132.0854225  63.2702476 103.5388148
 119.0438814  54.1136351  87.3485755 119.3392255  53.2047030  87.2952809
 118.1426850  54.0924091  87.0266757 130.9524893  65.8343615  94.1536163
 130.8276032  65.0333355  93.6447109 131.6103984  66.3289809  93.6650133
 122.5733061  52.1892348  93.3313303 121.8519647  52.8028316  93.1920777
 123.3626317  52.7250113  93.2529949 133.0159801  63.6352636  95.7815713
 132.0690137  63.5157987  95.7094040 133.3642574  62.7475134  95.8641975
 125.3759374  49.5246774  99.6053955 125.8993776  49.7709071 100.3680264
 125.1571708  50.3566809  99.1857093 120.7726656  51.7950449  87.4725080
 120.4439362  50.9147828  87.2900186 121.1266026  51.7398118  88.3601469
 130.0206234  63.4305352  91.9820066 129.8731197  62.5022059  92.1627636
 130.8459728  63.4525442  91.4977141 123.8868479  52.0823419  87.8400558
 124.2264551  52.6109340  87.1179166 124.3340599  52.4203825  88.6159124
 133.6240356  64.2533910  93.0684938 134.5486904  64.0476772  92.9309389
 133.4555660  64.0050312  93.9774280 126.5811920  50.4660470  97.2903626
 126.2408740  49.6668283  97.6924306 125.8750926  50.7662180  96.7180459
 127.2328391  47.5509782  95.7430949 128.0554461  47.0770260  95.6209839
 127.4766455  48.3300266  96.2429635 125.8736626  50.5798040  86.0393850
 126.5944988  50.9579293  85.5357567 125.2501930  51.2986917  86.1428828
 130.0167749  51.2843189  86.9752183 130.2331363  52.1667827  86.6741011
 129.5361816  50.8929403  86.2457825 124.7566970  54.2428903  93.5522927
 124.6111551  54.5569206  94.4447209 124.2792174  54.8613803  92.9993826
 126.6163353  51.2331451  93.6003817 126.6024922  50.3372544  93.2636115
 127.3335781  51.2402114  94.2342103 128.4689484  51.6668791  95.6456944
 128.2107262  52.5885861  95.6441275 127.9374524  51.2699225  96.3357408
 133.4135672  64.7719578  88.4247030 133.5872550  64.2066000  87.6720882
 133.9064564  65.5720473  88.2426520 119.2312632  56.7834247  96.4910589
 118.6866100  57.5594055  96.6230863 120.1091982  57.1305052  96.3329710
 126.0200249  50.1145831  88.8691387 126.1416160  49.1862477  89.0682275
 125.7302291  50.1284517  87.9569702 128.8891439  47.8000741  92.0058107
 128.9113136  47.8640074  91.0510086 129.3059498  46.9605250  92.1998613
 139.2675064  57.5356001  90.0437329 139.7106210  56.7863326  89.6456453
 138.3901574  57.5266137  89.6611061 134.4010845  64.0886342  85.5243928
 135.0961750  64.7093035  85.7431243 134.7433995  63.2381694  85.7996306
 120.0178654  55.9104143  99.3840745 119.2760390  56.0586779  99.9705376
 119.6971398  56.1712409  98.5207495 136.3002268  61.5386048  87.0531259
 136.8253592  61.8773321  86.3280579 136.2124621  60.6033063  86.8694393
 127.9622317  65.4520122  99.1821135 128.2709443  65.2069268 100.0543835
 128.7597799  65.6566760  98.6940006 127.9842929  67.6058031  91.4126512
 127.5447919  67.1134410  92.1059369 128.7351046  67.0630999  91.1718587
 120.4635268  63.7969572  91.4151140 121.2893288  63.4973344  91.0349784
 120.1129320  63.0277194  91.8640929 125.4316801  63.1496040  93.4848814
 124.8096810  62.4866745  93.1851041 126.1021668  63.1757172  92.8022461
 118.6643873  61.7155898  92.3740074 117.8275781  61.2878073  92.1924075
 118.6367518  61.9088342  93.3110865 125.5041328  51.6277828 103.0781320
 125.5529484  52.5039951 102.6959089 126.0463843  51.0855221 102.5052963
 135.9896174  62.1718952 102.3582457 135.1991718  62.1543090 101.8186956
 135.7529529  62.7107245 103.1131493 136.1094049  59.0211418  99.6715185
 136.1592054  58.8561425 100.6130708 136.0007973  58.1538677  99.2813066
 124.9930308  61.6999964  86.9607274 125.1418428  62.3835428  86.3073947
 125.7996751  61.6805054  87.4756730 133.3997812  55.0042346 100.9874492
 134.3007674  54.8648811 100.6958490 133.4745786  55.1696801 101.9272669
 127.7340617  52.3809201  99.8327678 126.8643926  52.6742767  99.5610267
 127.9700097  52.9649646 100.5534942 137.6112246  61.4408359  99.9157207
 137.3197054  61.8038340 100.7520668 136.9984377  60.7275368  99.7370539
 138.8107928  59.0061239  92.4359777 139.6454820  59.4451043  92.5997337
 138.9467057  58.5299892  91.6168023 135.8599434  56.5640974  98.3837265
 136.3353556  56.7568620  97.5756116 134.9365000  56.6200160  98.1380648
 122.7482941  57.7265141  87.9668343 122.5028983  56.8227471  88.1648553
 122.9178855  57.7282292  87.0247821 130.4379651  48.5988818  97.3493099
 130.9561595  49.3349845  97.0239587 130.0834783  48.9052811  98.1839858
 122.0178588  53.4593499  85.4654505 121.3247833  53.5337854  84.8094541
 121.7730340  52.6953842  85.9876021 130.6892245  45.0189100  92.8693995
 130.9693999  44.3512289  93.4954422 131.4742852  45.2118196  92.3568659
 128.4925713  64.1948094  84.4319022 127.9199680  64.8138281  83.9789493
 129.0658507  64.7447456  84.9658944 134.5601103  53.4406734  96.6165570
 135.5118526  53.5404832  96.6377794 134.3904554  52.6485003  97.1263655
 132.5815483  50.5262317  96.8024971 131.9865415  50.8067330  96.1071460
 132.2965179  51.0156218  97.5741712 131.7122973  64.4785244  85.5627604
 132.6453646  64.4130806  85.7660479 131.6246186  65.3141511  85.1042137
 134.3410990  63.7951115  82.5231551 134.2624621  63.4610978  83.4167309
 135.1620657  64.2872882  82.5223024 137.0389181  56.6612854  95.7307870
 137.0065501  55.7228855  95.9167554 137.6489805  56.7396891  94.9973695
 128.8772512  55.5308907  81.7735074 129.8231617  55.4015115  81.8423492
 128.4986757  54.7923569  82.2504502 137.1883670  53.4523897  95.7766153
 136.6722718  52.6682354  95.5896082 138.0723618  53.1242614  95.9412673
 134.8494396  47.1964913  91.7361966 134.6519218  46.8880001  92.6205298
 135.4594102  47.9226552  91.8659896 142.8565731  57.7228861  94.8713907
 143.5869119  57.4614149  95.4321610 142.2472676  56.9857583  94.9115975
 140.9381028  55.8636723  95.4688358 140.2114192  55.7292688  94.8604850
 140.5228315  56.1713552  96.2745076 128.7611204  59.5826653 103.2335731
 129.6814214  59.7605252 103.4275778 128.7260787  58.6382698 103.0815430
 127.0615429  53.4558883  81.7089959 126.1546884  53.1591996  81.7852673
 127.3391410  53.1588701  80.8424246 117.9793369  54.7765247  92.1589006
 117.6596154  53.9230555  91.8663380 117.4326798  54.9913825  92.9146973
 121.7573277  57.4927688  95.8758512 121.9759287  58.4244795  95.8946546
 122.1699051  57.1335662  96.6613316 128.6777495  47.9995773  87.8634201
 127.8678223  47.6542858  88.2389447 129.3661912  47.6903317  88.4521812
 130.6068043  47.0773820  89.4858497 131.1599082  47.4969273  90.1448520
 130.8438129  46.1509568  89.5281453 126.6301142  53.0660893 105.2661261
 126.5297869  54.0155250 105.1973352 126.4122684  52.7379132 104.3937331
 125.8314214  50.3145818  81.8501939 126.6933378  50.6400717  82.1097756
 126.0164558  49.5277314  81.3375004 117.8481629  58.3968158  94.1282127
 117.1545101  57.9822111  93.6152082 118.5954620  58.4388695  93.5315546
 133.9846850  49.1874345  88.9937162 133.4045519  49.8459149  88.6115214
 133.7182783  48.3651689  88.5824579 132.4350417  48.5879403  91.1958482
 132.9350195  48.6995937  90.3872801 133.0786024  48.2840455  91.8359290
 126.4932412  56.4958032 104.0826323 126.0099494  57.2958392 104.2890212
 126.5793351  56.5065977 103.1293767 119.7618372  58.3286412  92.0048142
 119.7389060  58.4274099  91.0530025 120.0719008  59.1751563  92.3265308
 122.4205750  60.3862567  96.1194757 123.3749003  60.3546509  96.0524688
 122.2218273  59.9253191  96.9344983 123.0105132  58.9563683  98.6865554
 123.8298021  59.4507762  98.7100392 123.2841940  58.0395651  98.6583122
 132.7671728  51.3474435  88.0493510 131.8797583  51.6324086  87.8313705
 133.1825717  51.1868199  87.2020787 136.1186264  51.3720956  91.7647849
 136.8946654  51.8617409  92.0372466 135.3934398  51.7979010  92.2219719
 138.5558823  52.0848575  92.8221790 139.1503314  51.8444311  92.1115098
 138.6285407  51.3655706  93.4495326 120.7755979  65.9282186  93.1364954
 120.6410447  65.1682587  92.5702953 120.3588041  66.6523086  92.6693743
 131.9114942  61.1119110  82.1441530 132.6150792  61.3169112  82.7599185
 131.1877590  61.6795872  82.4090613 132.7412752  56.8628971  88.2643800
 132.6847953  57.3197523  87.4251432 133.2941094  56.1019656  88.0866643
 136.5517558  52.6518703  89.0893919 136.2954492  52.2515339  89.9202127
 135.9270426  53.3662497  88.9644059 140.8629896  55.3914776  91.5965211
 140.3029454  55.4607966  92.3696773 140.2573399  55.2155761  90.8764707
 123.9325104  66.8251503  93.3483397 123.8157489  67.7696936  93.2462087
 123.1117551  66.5225065  93.7369196 133.8201639  61.5501639  84.1939990
 134.6547243  61.1182838  84.0117465 133.6585982  61.3783653  85.1216884
 133.4747531  58.0533752  85.5596329 133.4196335  57.8878024  84.6184773
 132.8493586  58.7609785  85.7158519 118.2640046  53.2901817  99.3857751
 118.9098910  52.7800771  99.8744977 118.0557197  54.0270498  99.9601177
 130.7893438  60.3582664 104.8849892 131.6584598  60.5323317 104.5236527
 130.3100190  61.1777081 104.7625621 126.7843657  47.5541861  85.1381648
 126.7722326  48.4983701  85.2949918 127.6767079  47.3712007  84.8441109
 124.9579619  67.4779765  96.5639326 125.8606865  67.5103376  96.8805820
 124.7316989  66.5480216  96.5785661 126.7133221  66.2310752  93.2249404
 125.7628852  66.2312613  93.1113776 127.0165707  65.4843486  92.7085439
 130.5995776  44.1484638  89.3927584 129.8328172  43.5943125  89.5384267
 131.0106481  44.2206507  90.2541736 122.6037537  50.4369434 103.4832766
 123.4668999  50.0806239 103.6936090 122.0302948  50.0983329 104.1708170
 142.4485914  72.0671290  94.2895167 143.0864324  71.9478038  93.5858507
 142.3306757  73.0152134  94.3483119 139.2575620  72.0198718  94.2256691
 138.9194132  71.9039783  93.3377226 140.1265389  71.6189883  94.2057697
 135.1162436  73.8734195  90.2153582 134.5527301  73.7824132  89.4469870
 135.0014831  73.0534099  90.6956075 139.7395403  73.1733570 100.1842897
 139.7284044  72.7786368  99.3123400 139.9016043  72.4399643 100.7776668
 132.6626868  75.3685386  93.0537803 133.4548160  75.0276211  92.6384102
 132.9023518  75.4780361  93.9739956 140.6961995  77.5405162  85.5268047
 140.0449975  78.1259243  85.1402061 141.4906358  78.0711357  85.5863085
 134.6217622  74.6294300  85.9255181 135.3948498  74.0823287  85.7868057
 134.9743021  75.4938549  86.1369643 136.4602665  75.9570682  99.1322081
 136.1692531  76.8616313  99.0168747 137.0959649  75.9987209  99.8466150
 137.3858871  73.3347530  95.7223440 137.9822444  73.1103553  95.0080403
 137.4433843  72.5932276  96.3248888 136.9583900  70.7886966  83.5573631
 137.2109420  70.2668487  82.7957094 136.0208459  70.6253111  83.6600315
 142.0027183  69.7922744  91.3648375 142.7890272  69.3742167  91.0138792
 142.2665887  70.6968836  91.5330023 142.1737260  75.2295594  86.0637031
 141.5383093  75.3030221  86.7757936 141.8434666  75.8189193  85.3856111
 147.4035610  69.7297977  92.2681353 148.1360782  69.1597194  92.5019183
 146.6474965  69.3419578  92.7087859 136.6780189  72.6915072  85.7598006
 136.5616447  72.0159975  86.4279091 136.7882448  72.2047446  84.9430159
 139.0211729  72.1525219  89.4644696 138.6569937  71.6255840  90.1757617
 139.8778845  71.7623688  89.2911181 144.9261030  63.4419551  96.7275962
 144.5944355  64.3114962  96.5037177 144.3306643  63.1255835  97.4069992
 138.6617216  67.1815118  84.4606044 138.8291619  68.0495355  84.8276515
 138.4714386  67.3442400  83.5367333 141.4192550  75.6432097  96.1271874
 141.1193273  76.5457136  96.0187682 141.0743609  75.3764281  96.9793027
 134.8705031  72.0945894  92.1608579 133.9455528  71.9622108  92.3686271
 135.1189444  72.8740113  92.6578521 144.8189693  68.1614638  93.8069312
 143.9106571  68.0930046  93.5128073 144.7677289  68.6386582  94.6351137
 138.6406437  69.6372776  85.4452711 138.5206063  70.0829827  86.2838191
 137.9459026  69.9858094  84.8866249 132.2313842  71.7379168  92.9952368
 132.3606223  71.9913647  93.9091780 131.5511293  72.3306876  92.6757023
 136.4013329  82.4076418  89.0942842 136.3237359  83.3584243  89.1731323
 135.7974973  82.0622290  89.7517768 138.8930559  69.5804283 101.7504209
 138.1163893  70.1398203 101.7407074 139.5321122  70.0661066 102.2719079
 146.6851340  66.3631076  95.5847186 146.0425720  66.6563609  94.9386980
 146.1806268  66.2483996  96.3900382 144.3391503  70.1094249  86.2733045
 145.2509360  70.3421636  86.0980742 143.8301151  70.6931293  85.7108124
 137.1476931  72.3889737 101.3122176 137.8891616  72.9274780 101.0357000
 136.4413917  73.0156025 101.4693728 142.6232271  74.5318877  99.9094338
 143.0315627  74.0901287  99.1648970 141.9009533  73.9571504 100.1628530
 138.9763341  69.4691484  97.2827894 139.8224536  69.8930897  97.4262543
 138.9161979  68.8125108  97.9766458 142.9461086  75.0920068  93.6646626
 142.3169948  75.2565782  92.9622694 142.5586748  75.5061677  94.4357590
 146.8250318  76.0274505  91.0190990 146.1401356  76.4073407  90.4688023
 146.9094167  76.6369832  91.7522938 142.1262787  67.1295852  98.9409068
 141.8823718  67.8837913  98.4043344 142.4022717  67.5081200  99.7756315
 144.0801249  73.6734464  97.6186334 144.2918145  74.3166224  96.9420715
 144.0330998  72.8396781  97.1508264 141.6827478  66.2852285  94.5222906
 140.8211957  66.5833539  94.8139643 141.7089913  66.5022684  93.5903938
 138.4989048  74.8294476  90.9296712 138.9627393  75.1082179  90.1401334
 138.2345846  73.9277920  90.7469802 135.3913129  74.3765957  93.8676475
 135.9614486  74.8053226  93.2293959 135.9821241  74.0948542  94.5660660
 137.4357934  70.9517628  87.7386277 138.1381977  71.4038672  88.2060203
 137.1038562  70.3101447  88.3666170 135.8838295  69.5429385 102.1137486
 135.2536956  70.2245666 102.3472883 135.7774383  69.4312466 101.1690624
 131.1783268  69.2101181  93.0403410 130.3882322  69.4658709  92.5643521
 131.6694515  70.0249519  93.1455451 145.1947077  76.5506420  95.7908691
 146.0164521  76.1486607  95.5091373 145.1909480  76.4474654  96.7424807
 133.1298013  69.5745760  89.9986887 132.3329176  69.6864454  90.5170383
 132.9023605  69.9132412  89.1327777 138.9603681  76.0990463  97.9469402
 139.0248113  76.5610870  98.7827573 138.2514605  75.4687828  98.0751711
 129.4620971  69.4631671  95.4718401 129.7129009  70.3478681  95.7375977
 129.9980519  69.2836273  94.6993493 153.2853070  72.8945168  92.1393663
 152.5316779  72.3252566  91.9837667 153.4200611  72.8607833  93.0864297
 138.6751698  77.7658571  87.8148382 138.5397373  78.6110106  88.2433230
 139.2161511  77.9677848  87.0514316 135.1619038  63.8450151 104.4762737
 134.7685984  63.2916349 105.1510381 135.9785178  64.1560729 104.8669255
 132.1281096  75.2834009  88.3876307 132.6405616  76.0777259  88.5381872
 132.7803809  74.5860299  88.3209908 133.9375980  78.3999765  90.4699060
 134.1142609  79.3217730  90.2820044 134.7332814  78.0858184  90.8993440
 138.0786999  65.2608030 102.0682994 138.8196712  65.8615183 101.9887456
 138.3104922  64.5185667 101.5101036 133.2228337  70.4464397 100.3461223
 133.1081852  69.5449654 100.6468322 132.3672855  70.6928094  99.9946040
 140.3020175  78.3882137 101.9448724 139.8584029  77.6018516 101.6269628
 140.9637388  78.5761288 101.2792615 135.0607296  79.9177939  96.4709402
 135.6114721  79.7895002  95.6986396 134.2218772  80.2172828  96.1204295
 142.4001413  78.6684937  99.9730125 142.3819888  79.4893818  99.4810394
 143.3221333  78.5439012 100.1980266 138.8574467  76.1829067 100.8153634
 139.3902804  75.4217355 100.5852942 138.3288548  75.8902718 101.5577788
 142.0244162  61.2889133  96.3447275 141.6808431  62.1790774  96.2686386
 142.3923125  61.0990790  95.4816860 130.0930013  73.6122663  89.1635877
 130.9305235  74.0219671  88.9469585 130.2708280  72.6722105  89.1336071
 141.9894445  71.2797744  84.8519710 141.4741068  72.0502348  85.0908098
 141.7171753  70.6062880  85.4752772 139.5741556  66.1247444  89.9104949
 138.7183152  65.7354295  89.7310588 139.9868507  66.2039405  89.0504734
 141.1040702  63.6593788  94.3096509 140.6005498  63.6223923  93.4964314
 141.3971309  64.5686530  94.3693165 137.3483588  63.7432517  93.3162690
 138.2136585  63.5475326  92.9568580 137.4161097  63.5142869  94.2432047
 146.9628719  74.0330098  86.7872884 146.1858162  73.6941258  86.3428046
 147.6420200  74.0382721  86.1127849 141.7780748  69.1524836  86.6779492
 141.4730883  69.4670985  87.5289635 142.7311190  69.2306256  86.7206825
 140.2227180  75.3115059  88.3272446 139.6948541  74.5767819  88.0145683
 139.7214682  76.0889735  88.0812414 145.2020026  73.5064080  93.4439492
 144.5443700  74.1963341  93.5319621 146.0060425  73.8960512  93.7873478
 134.9545907  65.9734725  90.6879057 135.5289659  65.7509907  89.9552250
 135.5416890  66.0423420  91.4407658 144.0125484  71.8608452  91.4943434
 144.5257366  72.4938444  91.9965143 144.6626708  71.2609648  91.1286794
 135.2815494  68.0039186  84.7074942 134.4452807  68.3413873  85.0284217
 135.1420264  67.8688166  83.7702079 137.2568575  62.8475974  89.4154127
 136.6032987  62.5324991  88.7910741 137.2149049  62.2251715  90.1413949
 138.3679780  73.1295269  81.3307419 137.4606842  72.8984523  81.5298568
 138.8650812  72.3332889  81.5181400 141.2747859  81.8392777  84.2504105
 140.6009557  82.1424473  84.8589063 141.6613681  82.6421857  83.9009562
 140.4906315  69.3357908  93.7401774 139.5728877  69.5572855  93.5823462
 140.9066459  69.4104218  92.8813482 141.2741363  70.7349323  88.8704454
 142.0213182  71.2470721  88.5611576 141.5432953  70.4133376  89.7308848
 139.5468013  73.2307864  85.8531409 138.6379233  72.9466897  85.9503878
 139.5763097  73.6506943  84.9934716 144.7787281  76.8414454  89.6222576
 144.3249608  76.0005364  89.6787767 144.1481247  77.4775852  89.9597356
 143.7220200  67.7706440  90.8523244 142.9842957  67.2583826  91.1833486
 143.9746974  67.3306821  90.0406521 143.2220220  78.6790950  90.5572394
 143.5143194  79.2396008  89.8384760 143.7318840  78.9719511  91.3125554
 143.8231828  60.5482692  91.4465013 144.1290704  59.6880055  91.1590928
 144.5484432  61.1400312  91.2464007 130.1156184  70.9513378  89.8346611
 129.9180583  70.3582739  89.1097678 129.5602848  70.6465589  90.5522550
 138.0952907  70.8436485  91.9541204 138.1501517  69.8910321  91.8783681
 137.2844109  70.9995924  92.4382502 139.2444101  74.7716608  83.1919487
 138.8063531  74.0552467  82.7325125 139.9854542  74.9992723  82.6304579
 136.0345267  69.4613545  89.7131583 135.2213133  69.7607715  90.1196775
 136.5304261  69.0669233  90.4306065 138.1853845  79.4571301  91.6465848
 138.1430024  79.6832148  90.7174380 139.1016544  79.2234676  91.7951649
 141.6319479  69.9255369  98.5446477 141.9868867  70.1526842  99.4040943
 142.2791610  70.2573746  97.9223732 147.3617216  73.0473805  89.2495806
 147.2235114  73.2375401  88.3216995 147.0053435  73.8093188  89.7063857
 135.5259342  67.0331900  95.3292818 136.1658721  66.8920659  94.6315781
 134.6936873  66.7466413  94.9531420 147.3886595  75.1150332  94.2607077
 147.8223102  75.0225621  95.1090131 148.1018176  75.0907832  93.6227093
 136.3019646  76.3334330  91.4427810 137.0960244  75.8384651  91.2410385
 135.5911338  75.8052194  91.0795516 141.1214490  78.7152426  95.7940178
 141.1751513  79.2843362  96.5617894 140.2529272  78.8854311  95.4294215
 132.6102409  70.4777412  87.5187563 131.6799997  70.4161868  87.7357525
 132.7059881  69.9553365  86.7224204 132.5287958  67.0032225  90.1065805
 132.7894776  67.9177558  89.9974965 133.3505131  66.5356668  90.2562418
 134.0012884  68.4169982  97.2764629 134.6735937  68.2087344  96.6277278
 133.1742670  68.2192068  96.8369862 148.2502145  75.1574033  96.7939963
 148.4438035  76.0619843  97.0399238 148.1502763  74.6981452  97.6278548
 139.9038456  65.0431923  99.2930290 139.2566371  65.7421873  99.1994767
 140.6739471  65.4768067  99.6606538 143.3117254  75.3080775 102.3680843
 143.1602760  75.0791327 101.4510927 143.3021933  76.2651377 102.3812188
 140.0802590  72.8812688  97.3527110 141.0094650  73.0323848  97.1796077
 139.6593620  72.9696709  96.4975756 138.8790922  76.9063352  95.1225647
 138.7402008  76.5382137  95.9951586 138.0905518  77.4210992  94.9509605
 139.4739074  82.0072449  86.4651184 139.6490830  81.5360492  87.2796807
 138.7871862  82.6338215  86.6932445 140.4296137  76.2844955  92.5114485
 140.0945970  76.2445725  93.4072135 139.9300083  75.6189671  92.0384895
 134.4040381  71.6912585  98.0367066 134.2660179  70.9592824  98.6378605
 135.3145304  71.6021485  97.7551254 143.3655329  73.6300990  82.7851545
 142.7484499  72.9047818  82.6884598 142.8971817  74.3910350  82.4418619
 137.0322682  71.4032545  97.5250746 137.7422300  70.7625737  97.4837364
 136.9891990  71.6545439  98.4476927 145.0209460  78.3399898 100.4457325
 144.9622006  77.6559118  99.7787908 145.4228979  79.0818888  99.9937951
 135.7451616  68.3897762  99.3446386 135.2088973  67.9388501  99.9967982
 135.1568324  68.5243671  98.6016850 134.0400159  85.1561812  93.2391044
 134.2796757  85.7880336  93.9170063 133.1969356  84.8049852  93.5256403
 135.1553875  67.8486414  81.9072849 134.2783341  67.7275215  81.5435096
 135.6311628  67.0572492  81.6551738 145.0226868  76.3039482  98.6771305
 144.1353646  75.9665404  98.7997704 145.5925419  75.5722513  98.9140070
 126.6756015  72.6363574  92.0014356 127.3627055  72.3225304  91.4135372
 126.5204143  73.5404938  91.7281608 131.4790737  67.5253770  96.4299380
 131.3948926  66.9179440  95.6949790 130.6573443  68.0162788  96.4308876
 138.5528021  80.9640934  95.6432548 138.4798192  81.7695906  96.1551853
 138.1105414  81.1632900  94.8180570 138.3417801  80.2012704  89.1535370
 137.5585323  80.7434384  89.2473594 139.0410546  80.7186684  89.5529611
 141.6514451  66.0107334  91.7969575 142.1483150  65.2577296  91.4770645
 140.8801432  66.0471650  91.2312784 149.5044208  71.7147699  93.4387867
 149.4934084  72.5972415  93.0681800 148.6361588  71.3619250  93.2442404
 141.0126705  80.8627768  97.7990707 141.7254677  81.4975233  97.7266608
 140.5216733  80.9591634  96.9830709 142.7344231  74.7679021  89.3707998
 141.8000510  74.8880483  89.2012703 142.9120900  73.8651488  89.1068008
 138.2349419  68.1524717  91.5241260 137.8647207  67.5995757  92.2122165
 138.7308512  67.5482850  90.9716260 146.1216783  70.6096340  89.9058033
 146.5877235  71.4424332  89.8318335 146.5724283  70.1441322  90.6103291
 136.0638618  78.6122212  98.6196278 136.7648078  79.2458695  98.7725672
 135.5933733  78.9536943  97.8591917 144.1893014  76.9540161  86.9044185
 144.4652858  76.8396756  87.8138059 143.3197513  76.5557646  86.8656358
 144.0933446  62.9776927  93.9448934 143.1796525  63.2081154  94.1131141
 144.5226547  63.0615371  94.7962966 143.8639904  71.1666819  96.4448828
 143.2111354  71.4142727  95.7901281 144.2420284  70.3530957  96.1111305
 140.8247078  81.2026512  90.5476998 141.0069472  80.3848168  91.0104751
 141.6480064  81.4194205  90.1101888 141.1589243  80.1294697  87.8092047
 141.6877010  79.6187152  87.1962209 141.4217463  79.8137228  88.6737580
 139.9127477  71.9086630 102.9314865 139.2368114  71.8080759 103.6017240
 140.7355111  71.7525844 103.3950862 131.6606336  78.1458567  95.5527380
 132.2459773  77.4002255  95.6855285 131.4631175  78.4562523  96.4364044
 134.5144991  81.1809814  90.5689823 133.8455367  81.6655942  90.0853863
 134.3757861  81.4279035  91.4833201 126.2523991  70.7164167  94.2731823
 126.2908090  70.1827758  95.0668942 125.7464284  70.1899372  93.6542801
 138.6550260  83.2153558  97.1672481 139.2068568  83.3785179  97.9321566
 138.9956453  83.8057995  96.4952506 133.6314753  65.5628707  97.7694366
 133.6956080  66.4243538  97.3571763 133.5681873  64.9502709  97.0366724
 133.1067026  67.6351840 101.4167400 133.7339064  67.2528917 102.0304924
 132.2494945  67.4166042 101.7823093 143.5061134  78.0414815 103.0221135
 144.0501038  78.6544773 102.5276090 142.9247979  78.5994394 103.5388148
 129.8832568  69.4428269  87.3485755 130.1786010  68.5338947  87.2952809
 128.9820604  69.4216009  87.0266757 141.7918647  81.1635533  94.1536163
 141.6669787  80.3625273  93.6447109 142.4497738  81.6581727  93.6650133
 133.4126815  67.5184266  93.3313303 132.6913401  68.1320233  93.1920777
 134.2020071  68.0542030  93.2529949 143.8553556  78.9644553  95.7815713
 142.9083891  78.8449904  95.7094040 144.2036329  78.0767051  95.8641975
 136.2153129  64.8538692  99.6053955 136.7387531  65.1000989 100.3680264
 135.9965462  65.6858727  99.1857093 131.6120410  67.1242367  87.4725080
 131.2833116  66.2439746  87.2900186 131.9659781  67.0690035  88.3601469
 140.8599989  78.7597269  91.9820066 140.7124951  77.8313977  92.1627636
 141.6853482  78.7817360  91.4977141 134.7262233  67.4115337  87.8400558
 135.0658306  67.9401258  87.1179166 135.1734354  67.7495743  88.6159124
 144.4634111  79.5825828  93.0684938 145.3880658  79.3768690  92.9309389
 144.2949414  79.3342229  93.9774280 137.4205674  65.7952387  97.2903626
 137.0802494  64.9960200  97.6924306 136.7144680  66.0954098  96.7180459
 138.0722146  62.8801700  95.7430949 138.8948215  62.4062178  95.6209839
 138.3160209  63.6592183  96.2429635 136.7130380  65.9089958  86.0393850
 137.4338743  66.2871211  85.5357567 136.0895684  66.6278835  86.1428828
 140.8561503  66.6135107  86.9752183 141.0725118  67.4959745  86.6741011
 140.3755570  66.2221320  86.2457825 135.5960725  69.5720820  93.5522927
 135.4505305  69.8861123  94.4447209 135.1185928  70.1905721  92.9993826
 137.4557107  66.5623368  93.6003817 137.4418676  65.6664462  93.2636115
 138.1729536  66.5694032  94.2342103 139.3083238  66.9960709  95.6456944
 139.0501016  67.9177779  95.6441275 138.7768279  66.5991143  96.3357408
 144.2529427  80.1011496  88.4247030 144.4266304  79.5357918  87.6720882
 144.7458318  80.9012391  88.2426520 130.0706387  72.1126165  96.4910589
 129.5259855  72.8885973  96.6230863 130.9485737  72.4596969  96.3329710
 136.8594003  65.4437749  88.8691387 136.9809915  64.5154395  89.0682275
 136.5696046  65.4576435  87.9569702 139.7285194  63.1292659  92.0058107
 139.7506891  63.1931992  91.0510086 140.1453253  62.2897168  92.1998613
 150.1068818  72.8647919  90.0437329 150.5499964  72.1155244  89.6456453
 149.2295328  72.8558055  89.6611061 145.2404599  79.4178260  85.5243928
 145.9355504  80.0384953  85.7431243 145.5827750  78.5673611  85.7996306
 130.8572409  71.2396061  99.3840745 130.1154145  71.3878696  99.9705376
 130.5365153  71.5004327  98.5207495 147.1396023  76.8677966  87.0531259
 147.6647347  77.2065238  86.3280579 147.0518375  75.9324981  86.8694393
 138.8016071  80.7812039  99.1821135 139.1103198  80.5361186 100.0543835
 139.5991553  80.9858678  98.6940006 138.8236683  82.9349949  91.4126512
 138.3841674  82.4426328  92.1059369 139.5744800  82.3922917  91.1718587
 131.3029022  79.1261490  91.4151140 132.1287042  78.8265262  91.0349784
 130.9523074  78.3569112  91.8640929 136.2710555  78.4787958  93.4848814
 135.6490565  77.8158663  93.1851041 136.9415422  78.5049090  92.8022461
 129.5037627  77.0447816  92.3740074 128.6669536  76.6169991  92.1924075
 129.4761273  77.2380260  93.3110865 136.3435083  66.9569746 103.0781320
 136.3923238  67.8331869 102.6959089 136.8857597  66.4147139 102.5052963
 146.8289929  77.5010869 102.3582457 146.0385472  77.4835008 101.8186956
 146.5923283  78.0399163 103.1131493 146.9487804  74.3503336  99.6715185
 146.9985809  74.1853343 100.6130708 146.8401727  73.4830595  99.2813066
 135.8324062  77.0291881  86.9607274 135.9812183  77.7127346  86.3073947
 136.6390506  77.0096971  87.4756730 144.2391566  70.3334264 100.9874492
 145.1401429  70.1940728 100.6958490 144.3139541  70.4988718 101.9272669
 138.5734371  67.7101118  99.8327678 137.7037681  68.0034684  99.5610267
 138.8093852  68.2941563 100.5534942 148.4506000  76.7700277  99.9157207
 148.1590809  77.1330258 100.7520668 147.8378132  76.0567285  99.7370539
 149.6501683  74.3353157  92.4359777 150.4848574  74.7742961  92.5997337
 149.7860812  73.8591810  91.6168023 146.6993189  71.8932892  98.3837265
 147.1747310  72.0860538  97.5756116 145.7758754  71.9492078  98.1380648
 133.5876695  73.0557059  87.9668343 133.3422737  72.1519389  88.1648553
 133.7572610  73.0574209  87.0247821 141.2773405  63.9280735  97.3493099
 141.7955349  64.6641762  97.0239587 140.9228538  64.2344729  98.1839858
 132.8572343  68.7885416  85.4654505 132.1641588  68.8629771  84.8094541
 132.6124095  68.0245760  85.9876021 141.5285999  60.3481018  92.8693995
 141.8087753  59.6804207  93.4954422 142.3136606  60.5410113  92.3568659
 139.3319468  79.5240012  84.4319022 138.7593435  80.1430199  83.9789493
 139.9052262  80.0739373  84.9658944 145.3994858  68.7698652  96.6165570
 146.3512281  68.8696749  96.6377794 145.2298308  67.9776920  97.1263655
 143.4209237  65.8554235  96.8024971 142.8259169  66.1359248  96.1071460
 143.1358934  66.3448136  97.5741712 142.5516728  79.8077162  85.5627604
 143.4847401  79.7422724  85.7660479 142.4639940  80.6433429  85.1042137
 145.1804744  79.1243032  82.5231551 145.1018376  78.7902896  83.4167309
 146.0014411  79.6164800  82.5223024 147.8782936  71.9904772  95.7307870
 147.8459256  71.0520772  95.9167554 148.4883559  72.0688808  94.9973695
 139.7166266  70.8600824  81.7735074 140.6625371  70.7307033  81.8423492
 139.3380511  70.1215486  82.2504502 148.0277424  68.7815815  95.7766153
 147.5116473  67.9974272  95.5896082 148.9117373  68.4534532  95.9412673
 145.6888151  62.5256831  91.7361966 145.4912972  62.2171919  92.6205298
 146.2987856  63.2518469  91.8659896 153.6959485  73.0520778  94.8713907
 154.4262874  72.7906066  95.4321610 153.0866431  72.3149500  94.9115975
 151.7774782  71.1928641  95.4688358 151.0507946  71.0584606  94.8604850
 151.3622069  71.5005470  96.2745076 139.6004959  74.9118571 103.2335731
 140.5207968  75.0897170 103.4275778 139.5654542  73.9674616 103.0815430
 137.9009184  68.7850801  81.7089959 136.9940639  68.4883914  81.7852673
 138.1785165  68.4880619  80.8424246 128.8187124  70.1057164  92.1589006
 128.4989908  69.2522472  91.8663380 128.2720552  70.3205742  92.9146973
 132.5967031  72.8219605  95.8758512 132.8153041  73.7536713  95.8946546
 133.0092805  72.4627580  96.6613316 139.5171249  63.3287691  87.8634201
 138.7071978  62.9834776  88.2389447 140.2055666  63.0195234  88.4521812
 141.4461798  62.4065737  89.4858497 141.9992836  62.8261191  90.1448520
 141.6831884  61.4801485  89.5281453 137.4694897  68.3952811 105.2661261
 137.3691624  69.3447168 105.1973352 137.2516439  68.0671050 104.3937331
 136.6707968  65.6437736  81.8501939 137.5327132  65.9692634  82.1097756
 136.8558312  64.8569232  81.3375004 128.6875384  73.7260076  94.1282127
 127.9938855  73.3114029  93.6152082 129.4348375  73.7680612  93.5315546
 144.8240605  64.5166263  88.9937162 144.2439274  65.1751067  88.6115214
 144.5576537  63.6943607  88.5824579 143.2744171  63.9171320  91.1958482
 143.7743949  64.0287855  90.3872801 143.9179779  63.6132373  91.8359290
 137.3326167  71.8249950 104.0826323 136.8493249  72.6250310 104.2890212
 137.4187106  71.8357895 103.1293767 130.6012126  73.6578330  92.0048142
 130.5782815  73.7566017  91.0530025 130.9112763  74.5043480  92.3265308
 133.2599504  75.7154485  96.1194757 134.2142758  75.6838427  96.0524688
 133.0612028  75.2545108  96.9344983 133.8498886  74.2855601  98.6865554
 134.6691775  74.7799679  98.7100392 134.1235694  73.3687569  98.6583122
 143.6065483  66.6766353  88.0493510 142.7191338  66.9616004  87.8313705
 144.0219472  66.5160116  87.2020787 146.9580019  66.7012874  91.7647849
 147.7340409  67.1909326  92.0372466 146.2328153  67.1270928  92.2219719
 149.3952577  67.4140493  92.8221790 149.9897068  67.1736229  92.1115098
 149.4679161  66.6947624  93.4495326 131.6149733  81.2574104  93.1364954
 131.4804201  80.4974505  92.5702953 131.1981795  81.9815004  92.6693743
 142.7508696  76.4411028  82.1441530 143.4544546  76.6461030  82.7599185
 142.0271345  77.0087789  82.4090613 143.5806506  72.1920889  88.2643800
 143.5241708  72.6489440  87.4251432 144.1334849  71.4311573  88.0866643
 147.3911312  67.9810621  89.0893919 147.1348247  67.5807256  89.9202127
 146.7664180  68.6954415  88.9644059 151.7023650  70.7206694  91.5965211
 151.1423208  70.7899883  92.3696773 151.0967154  70.5447679  90.8764707
 134.7718859  82.1543421  93.3483397 134.6551243  83.0988854  93.2462087
 133.9511305  81.8516983  93.7369196 144.6595394  76.8793557  84.1939990
 145.4940997  76.4474755  84.0117465 144.4979736  76.7075570  85.1216884
 144.3141286  73.3825670  85.5596329 144.2590089  73.2169942  84.6184773
 143.6887341  74.0901703  85.7158519 129.1033801  68.6193734  99.3857751
 129.7492664  68.1092688  99.8744977 128.8950952  69.3562416  99.9601177
 141.6287193  75.6874582 104.8849892 142.4978353  75.8615234 104.5236527
 141.1493944  76.5068999 104.7625621 137.6237411  62.8833779  85.1381648
 137.6116081  63.8275619  85.2949918 138.5160833  62.7003925  84.8441109
 135.7973373  82.8071683  96.5639326 136.7000620  82.8395293  96.8805820
 135.5710743  81.8772134  96.5785661 137.5526975  81.5602670  93.2249404
 136.6022606  81.5604531  93.1113776 137.8559461  80.8135404  92.7085439
 141.4389531  59.4776556  89.3927584 140.6721926  58.9235042  89.5384267
 141.8500236  59.5498425  90.2541736 133.4431292  65.7661352 103.4832766
 134.3062753  65.4098156 103.6936090 132.8696702  65.4275246 104.1708170
 153.2879669  87.3963208  94.2895167 153.9258079  87.2769955  93.5858507
 153.1700512  88.3444052  94.3483119 150.0969375  87.3490636  94.2256691
 149.7587886  87.2331701  93.3377226 150.9659143  86.9481801  94.2057697
 145.9556191  89.2026112  90.2153582 145.3921056  89.1116049  89.4469870
 145.8408586  88.3826017  90.6956075 150.5789158  88.5025488 100.1842897
 150.5677799  88.1078286  99.3123400 150.7409797  87.7691560 100.7776668
 143.5020623  90.6977304  93.0537803 144.2941914  90.3568129  92.6384102
 143.7417273  90.8072279  93.9739956 151.5355749  92.8697080  85.5268047
 150.8843729  93.4551161  85.1402061 152.3300112  93.4003275  85.5863085
 145.4611376  89.9586217  85.9255181 146.2342252  89.4115204  85.7868057
 145.8136775  90.8230467  86.1369643 147.2996419  91.2862600  99.1322081
 147.0086285  92.1908230  99.0168747 147.9353403  91.3279127  99.8466150
 148.2252626  88.6639448  95.7223440 148.8216198  88.4395470  95.0080403
 148.2827597  87.9224194  96.3248888 147.7977654  86.1178883  83.5573631
 148.0503175  85.5960405  82.7957094 146.8602213  85.9545029  83.6600315
 152.8420937  85.1214662  91.3648375 153.6284026  84.7034085  91.0138792
 153.1059641  86.0260754  91.5330023 153.0131014  90.5587512  86.0637031
 152.3776847  90.6322139  86.7757936 152.6828421  91.1481111  85.3856111
 158.2429364  85.0589895  92.2681353 158.9754536  84.4889112  92.5019183
 157.4868720  84.6711495  92.7087859 147.5173943  88.0206989  85.7598006
 147.4010201  87.3451893  86.4279091 147.6276203  87.5339363  84.9430159
 149.8605484  87.4817136  89.4644696 149.4963691  86.9547757  90.1757617
 150.7172600  87.0915606  89.2911181 155.7654785  78.7711469  96.7275962
 155.4338109  79.6406880  96.5037177 155.1700398  78.4547753  97.4069992
 149.5010971  82.5107036  84.4606044 149.6685373  83.3787273  84.8276515
 149.3108140  82.6734318  83.5367333 152.2586304  90.9724015  96.1271874
 151.9587027  91.8749054  96.0187682 151.9137364  90.7056198  96.9793027
 145.7098786  87.4237812  92.1608579 144.7849282  87.2914026  92.3686271
 145.9583199  88.2032031  92.6578521 155.6583448  83.4906555  93.8069312
 154.7500325  83.4221964  93.5128073 155.6071044  83.9678500  94.6351137
 149.4800192  84.9664694  85.4452711 149.3599817  85.4121744  86.2838191
 148.7852780  85.3150011  84.8866249 143.0707597  87.0671085  92.9952368
 143.1999978  87.3205564  93.9091780 142.3905048  87.6598793  92.6757023
 147.2407084  97.7368335  89.0942842 147.1631114  98.6876160  89.1731323
 146.6368727  97.3914208  89.7517768 149.7324314  84.9096201 101.7504209
 148.9557648  85.4690121 101.7407074 150.3714877  85.3952984 102.2719079
 157.5245094  81.6922994  95.5847186 156.8819475  81.9855527  94.9386980
 157.0200023  81.5775914  96.3900382 155.1785258  85.4386167  86.2733045
 156.0903114  85.6713554  86.0980742 154.6694905  86.0223211  85.7108124
 147.9870686  87.7181654 101.3122176 148.7285370  88.2566698 101.0357000
 147.2807671  88.3447943 101.4693728 153.4626026  89.8610795  99.9094338
 153.8709382  89.4193205  99.1648970 152.7403287  89.2863422 100.1628530
 149.8157096  84.7983401  97.2827894 150.6618291  85.2222815  97.4262543
 149.7555733  84.1417026  97.9766458 153.7854840  90.4211985  93.6646626
 153.1563703  90.5857699  92.9622694 153.3980502  90.8353595  94.4357590
 157.6644072  91.3566423  91.0190990 156.9795110  91.7365324  90.4688023
 157.7487921  91.9661750  91.7522938 152.9656541  82.4587770  98.9409068
 152.7217473  83.2129830  98.4043344 153.2416472  82.8373117  99.7756315
 154.9195004  89.0026382  97.6186334 155.1311899  89.6458142  96.9420715
 154.8724752  88.1688699  97.1508264 152.5221233  81.6144203  94.5222906
 151.6605712  81.9125456  94.8139643 152.5483667  81.8314602  93.5903938
 149.3382802  90.1586393  90.9296712 149.8021148  90.4374096  90.1401334
 149.0739600  89.2569838  90.7469802 146.2306883  89.7057875  93.8676475
 146.8008240  90.1345143  93.2293959 146.8214995  89.4240460  94.5660660
 148.2751688  86.2809546  87.7386277 148.9775732  86.7330589  88.2060203
 147.9432317  85.6393365  88.3666170 146.7232050  84.8721302 102.1137486
 146.0930710  85.5537583 102.3472883 146.6168138  84.7604384 101.1690624
 142.0177022  84.5393098  93.0403410 141.2276076  84.7950627  92.5643521
 142.5088270  85.3541436  93.1455451 156.0340832  91.8798338  95.7908691
 156.8558275  91.4778525  95.5091373 156.0303235  91.7766572  96.7424807
 143.9691768  84.9037678  89.9986887 143.1722931  85.0156372  90.5170383
 143.7417360  85.2424330  89.1327777 149.7997435  91.4282381  97.9469402
 149.8641868  91.8902788  98.7827573 149.0908359  90.7979746  98.0751711
 140.3014725  84.7923589  95.4718401 140.5522764  85.6770599  95.7375977
 140.8374274  84.6128190  94.6993493 149.5145453  93.0950488  87.8148382
 149.3791128  93.9402024  88.2433230 150.0555265  93.2969766  87.0514316
 146.0012792  79.1742068 104.4762737 145.6079738  78.6208267 105.1510381
 146.8178933  79.4852647 104.8669255 142.9674850  90.6125926  88.3876307
 143.4799371  91.4069177  88.5381872 143.6197563  89.9152217  88.3209908
 144.7769735  93.7291683  90.4699060 144.9536363  94.6509647  90.2820044
 145.5726568  93.4150102  90.8993440 148.9180753  80.5899947 102.0682994
 149.6590467  81.1907100 101.9887456 149.1498676  79.8477585 101.5101036
 144.0622091  85.7756315 100.3461223 143.9475607  84.8741572 100.6468322
 143.2066609  86.0220011  99.9946040 151.1413929  93.7174055 101.9448724
 150.6977783  92.9310433 101.6269628 151.8031143  93.9053205 101.2792615
 145.9001050  95.2469856  96.4709402 146.4508475  95.1186920  95.6986396
 145.0612526  95.5464745  96.1204295 153.2395167  93.9976855  99.9730125
 153.2213643  94.8185736  99.4810394 154.1615087  93.8730930 100.1980266
 149.6968221  91.5120984 100.8153634 150.2296558  90.7509272 100.5852942
 149.1682303  91.2194636 101.5577788 152.8637916  76.6181050  96.3447275
 152.5202186  77.5082692  96.2686386 153.2316879  76.4282708  95.4816860
 140.9323767  88.9414581  89.1635877 141.7698989  89.3511589  88.9469585
 141.1102035  88.0014023  89.1336071 152.8288199  86.6089661  84.8519710
 152.3134823  87.3794266  85.0908098 152.5565508  85.9354798  85.4752772
 150.4135310  81.4539362  89.9104949 149.5576906  81.0646213  89.7310588
 150.8262262  81.5331323  89.0504734 151.9434457  78.9885705  94.3096509
 151.4399252  78.9515841  93.4964314 152.2365064  79.8978448  94.3693165
 148.1877343  79.0724435  93.3162690 149.0530339  78.8767244  92.9568580
 148.2554852  78.8434787  94.2432047 157.8022473  89.3622016  86.7872884
 157.0251916  89.0233175  86.3428046 158.4813954  89.3674639  86.1127849
 152.6174502  84.4816753  86.6779492 152.3124638  84.7962903  87.5289635
 153.5704944  84.5598173  86.7206825 151.0620934  90.6406977  88.3272446
 150.5342296  89.9059736  88.0145683 150.5608437  91.4181653  88.0812414
 156.0413780  88.8355997  93.4439492 155.3837455  89.5255259  93.5319621
 156.8454179  89.2252429  93.7873478 145.7939662  81.3026643  90.6879057
 146.3683414  81.0801825  89.9552250 146.3810644  81.3715338  91.4407658
 154.8519239  87.1900370  91.4943434 155.3651121  87.8230362  91.9965143
 155.5020463  86.5901565  91.1286794 146.1209249  83.3331104  84.7074942
 145.2846561  83.6705791  85.0284217 145.9814018  83.1980084  83.7702079
 148.0962329  78.1767892  89.4154127 147.4426742  77.8616909  88.7910741
 148.0542804  77.5543632  90.1413949 149.2073534  88.4587187  81.3307419
 148.3000596  88.2276440  81.5298568 149.7044566  87.6624806  81.5181400
 152.1141613  97.1684694  84.2504105 151.4403312  97.4716391  84.8589063
 152.5007435  97.9713775  83.9009562 151.3300070  84.6649825  93.7401774
 150.4122631  84.8864772  93.5823462 151.7460213  84.7396136  92.8813482
 152.1135118  86.0641241  88.8704454 152.8606937  86.5762638  88.5611576
 152.3826707  85.7425294  89.7308848 150.3861768  88.5599782  85.8531409
 149.4772987  88.2758815  85.9503878 150.4156852  88.9798860  84.9934716
 155.6181035  92.1706371  89.6222576 155.1643362  91.3297281  89.6787767
 154.9875002  92.8067770  89.9597356 154.5613955  83.0998357  90.8523244
 153.8236712  82.5875744  91.1833486 154.8140728  82.6598739  90.0406521
 154.0613974  94.0082868  90.5572394 154.3536949  94.5687925  89.8384760
 154.5712595  94.3011429  91.3125554 154.6625582  75.8774609  91.4465013
 154.9684459  75.0171973  91.1590928 155.3878187  76.4692230  91.2464007
 140.9549938  86.2805296  89.8346611 140.7574338  85.6874657  89.1097678
 140.3996602  85.9757506  90.5522550 148.9346662  86.1728402  91.9541204
 148.9895272  85.2202239  91.8783681 148.1237864  86.3287842  92.4382502
 150.0837856  90.1008526  83.1919487 149.6457285  89.3844384  82.7325125
 150.8248296  90.3284640  82.6304579 146.8739022  84.7905462  89.7131583
 146.0606887  85.0899633  90.1196775 147.3698016  84.3961151  90.4306065
 149.0247600  94.7863219  91.6465848 148.9823778  95.0124065  90.7174380
 149.9410298  94.5526594  91.7951649 152.4713233  85.2547287  98.5446477
 152.8262621  85.4818760  99.4040943 153.1185365  85.5865663  97.9223732
 158.2010970  88.3765723  89.2495806 158.0628869  88.5667319  88.3216995
 157.8447189  89.1385105  89.7063857 146.3653096  82.3623818  95.3292818
 147.0052476  82.2212577  94.6315781 145.5330627  82.0758331  94.9531420
 158.2280350  90.4442250  94.2607077 158.6616857  90.3517539  95.1090131
 158.9411931  90.4199750  93.6227093 147.1413400  91.6626248  91.4427810
 147.9353999  91.1676568  91.2410385 146.4305093  91.1344111  91.0795516
 151.9608245  94.0444344  95.7940178 152.0145267  94.6135280  96.5617894
 151.0923026  94.2146229  95.4294215 143.4496164  85.8069330  87.5187563
 142.5193752  85.7453785  87.7357525 143.5453636  85.2845283  86.7224204
 143.3681713  82.3324143  90.1065805 143.6288530  83.2469476  89.9974965
 144.1898885  81.8648585  90.2562418 144.8406638  83.7461900  97.2764629
 145.5129692  83.5379262  96.6277278 144.0136425  83.5483986  96.8369862
 150.7432210  80.3723841  99.2930290 150.0960125  81.0713790  99.1994767
 151.5133226  80.8059985  99.6606538 154.1511008  90.6372693 102.3680843
 153.9996515  90.4083245 101.4510927 154.1415688  91.5943294 102.3812188
 150.9196345  88.2104606  97.3527110 151.8488405  88.3615765  97.1796077
 150.4987375  88.2988627  96.4975756 149.7184676  92.2355270  95.1225647
 149.5795762  91.8674055  95.9951586 148.9299273  92.7502910  94.9509605
 150.3132828  97.3364367  86.4651184 150.4884584  96.8652410  87.2796807
 149.6265616  97.9630133  86.6932445 151.2689892  91.6136873  92.5114485
 150.9339724  91.5737643  93.4072135 150.7693837  90.9481589  92.0384895
 145.2434135  87.0204503  98.0367066 145.1053933  86.2884742  98.6378605
 146.1539059  86.9313403  97.7551254 154.2049083  88.9592907  82.7851545
 153.5878254  88.2339735  82.6884598 153.7365572  89.7202267  82.4418619
 147.8716436  86.7324462  97.5250746 148.5816055  86.0917654  97.4837364
 147.8285744  86.9837357  98.4476927 155.8603215  93.6691816 100.4457325
 155.8015761  92.9851036  99.7787908 156.2622733  94.4110806  99.9937951
 146.5845370  83.7189680  99.3446386 146.0482727  83.2680419  99.9967982
 145.9962079  83.8535589  98.6016850 144.8793914 100.4853729  93.2391044
 145.1190512 101.1172254  93.9170063 144.0363110 100.1341769  93.5256403
 145.9947629  83.1778332  81.9072849 145.1177095  83.0567132  81.5435096
 146.4705382  82.3864410  81.6551738 155.8620622  91.6331399  98.6771305
 154.9747401  91.2957321  98.7997704 156.4319173  90.9014431  98.9140070
 137.5149769  87.9655491  92.0014356 138.2020809  87.6517221  91.4135372
 137.3597898  88.8696856  91.7281608 142.3184491  82.8545688  96.4299380
 142.2342680  82.2471357  95.6949790 141.4967198  83.3454706  96.4308876
 149.3921775  96.2932852  95.6432548 149.3191947  97.0987823  96.1551853
 148.9499169  96.4924818  94.8180570 149.1811555  95.5304622  89.1535370
 148.3979077  96.0726302  89.2473594 149.8804300  96.0478602  89.5529611
 152.4908205  81.3399251  91.7969575 152.9876905  80.5869214  91.4770645
 151.7195187  81.3763568  91.2312784 151.8520459  96.1919686  97.7990707
 152.5648431  96.8267151  97.7266608 151.3610488  96.2883552  96.9830709
 153.5737986  90.0970939  89.3707998 152.6394265  90.2172401  89.2012703
 153.7514654  89.1943405  89.1068008 149.0743174  83.4816634  91.5241260
 148.7040961  82.9287675  92.2122165 149.5702266  82.8774768  90.9716260
 156.9610537  85.9388258  89.9058033 157.4270989  86.7716249  89.8318335
 157.4118038  85.4733239  90.6103291 146.9032373  93.9414129  98.6196278
 147.6041832  94.5750612  98.7725672 146.4327488  94.2828861  97.8591917
 155.0286768  92.2832079  86.9044185 155.3046612  92.1688674  87.8138059
 154.1591267  91.8849564  86.8656358 154.9327200  78.3068845  93.9448934
 154.0190280  78.5373072  94.1131141 155.3620301  78.3907289  94.7962966
 154.7033659  86.4958737  96.4448828 154.0505109  86.7434644  95.7901281
 155.0814038  85.6822875  96.1111305 151.6640832  96.5318430  90.5476998
 151.8463227  95.7140086  91.0104751 152.4873818  96.7486122  90.1101888
 151.9982998  95.4586615  87.8092047 152.5270764  94.9479070  87.1962209
 152.2611217  95.1429145  88.6737580 150.7521232  87.2378548 102.9314865
 150.0761869  87.1372677 103.6017240 151.5748865  87.0817762 103.3950862
 142.5000091  93.4750484  95.5527380 143.0853527  92.7294172  95.6855285
 142.3024929  93.7854441  96.4364044 145.3538746  96.5101732  90.5689823
 144.6849121  96.9947859  90.0853863 145.2151616  96.7570952  91.4833201
 137.0917745  86.0456085  94.2731823 137.1301845  85.5119675  95.0668942
 136.5858038  85.5191290  93.6542801 149.4944014  98.5445475  97.1672481
 150.0462322  98.7077097  97.9321566 149.8350208  99.1349913  96.4952506
 144.4708508  80.8920625  97.7694366 144.5349834  81.7535456  97.3571763
 144.4075628  80.2794627  97.0366724 143.9460780  82.9643758 101.4167400
 144.5732819  82.5820835 102.0304924 143.0888699  82.7457960 101.7823093
 154.3454889  93.3706733 103.0221135 154.8894793  93.9836691 102.5276090
 153.7641734  93.9286311 103.5388148 140.7226323  84.7720187  87.3485755
 141.0179764  83.8630865  87.2952809 139.8214359  84.7507926  87.0266757
 152.6312402  96.4927451  94.1536163 152.5063541  95.6917191  93.6447109
 153.2891493  96.9873644  93.6650133 144.2520570  82.8476183  93.3313303
 143.5307156  83.4612151  93.1920777 145.0413826  83.3833948  93.2529949
 154.6947310  94.2936471  95.7815713 153.7477646  94.1741822  95.7094040
 155.0430083  93.4058969  95.8641975 147.0546883  80.1830610  99.6053955
 147.5781285  80.4292906 100.3680264 146.8359217  81.0150645  99.1857093
 142.4514165  82.4534284  87.4725080 142.1226871  81.5731663  87.2900186
 142.8053535  82.3981953  88.3601469 151.6993743  94.0889187  91.9820066
 151.5518706  93.1605895  92.1627636 152.5247237  94.1109278  91.4977141
 145.5655988  82.7407254  87.8400558 145.9052060  83.2693175  87.1179166
 146.0128108  83.0787660  88.6159124 155.3027865  94.9117746  93.0684938
 156.2274413  94.7060607  92.9309389 155.1343169  94.6634147  93.9774280
 148.2599428  81.1244305  97.2903626 147.9196249  80.3252118  97.6924306
 147.5538435  81.4246016  96.7180459 148.9115900  78.2093617  95.7430949
 149.7341970  77.7354096  95.6209839 149.1553964  78.9884101  96.2429635
 147.5524135  81.2381876  86.0393850 148.2732497  81.6163129  85.5357567
 146.9289439  81.9570753  86.1428828 151.6955258  81.9427025  86.9752183
 151.9118872  82.8251663  86.6741011 151.2149325  81.5513238  86.2457825
 146.4354479  84.9012738  93.5522927 146.2899060  85.2153041  94.4447209
 145.9579683  85.5197638  92.9993826 148.2950862  81.8915286  93.6003817
 148.2812431  80.9956379  93.2636115 149.0123290  81.8985950  94.2342103
 150.1476993  82.3252626  95.6456944 149.8894770  83.2469697  95.6441275
 149.6162033  81.9283061  96.3357408 155.0923181  95.4303413  88.4247030
 155.2660059  94.8649836  87.6720882 155.5852073  96.2304308  88.2426520
 140.9100141  87.4418082  96.4910589 140.3653609  88.2177890  96.6230863
 141.7879491  87.7888887  96.3329710 147.6987758  80.7729666  88.8691387
 147.8203669  79.8446312  89.0682275 147.4089800  80.7868352  87.9569702
 150.5678948  78.4584577  92.0058107 150.5900645  78.5223910  91.0510086
 150.9847007  77.6189085  92.1998613 156.0798354  94.7470178  85.5243928
 156.7749259  95.3676870  85.7431243 156.4221504  93.8965529  85.7996306
 141.6966163  86.5687979  99.3840745 140.9547899  86.7170614  99.9705376
 141.3758907  86.8296244  98.5207495 157.9789777  92.1969883  87.0531259
 158.5041101  92.5357156  86.3280579 157.8912130  91.2616899  86.8694393
 149.6409826  96.1103957  99.1821135 149.9496952  95.8653104 100.0543835
 150.4385308  96.3150595  98.6940006 149.6630438  98.2641867  91.4126512
 149.2235428  97.7718245  92.1059369 150.4138555  97.7214834  91.1718587
 142.1422777  94.4553407  91.4151140 142.9680797  94.1557179  91.0349784
 141.7916829  93.6861030  91.8640929 147.1104310  93.8079876  93.4848814
 146.4884319  93.1450581  93.1851041 147.7809177  93.8341007  92.8022461
 140.3431382  92.3739734  92.3740074 139.5063290  91.9461908  92.1924075
 140.3155027  92.5672177  93.3110865 147.1828837  82.2861664 103.0781320
 147.2316993  83.1623786 102.6959089 147.7251352  81.7439057 102.5052963
 157.6683683  92.8302787 102.3582457 156.8779227  92.8126926 101.8186956
 157.4317038  93.3691081 103.1131493 157.7881558  89.6795253  99.6715185
 157.8379563  89.5145261 100.6130708 157.6795481  88.8122512  99.2813066
 146.6717817  92.3583799  86.9607274 146.8205937  93.0419263  86.3073947
 147.4784260  92.3388889  87.4756730 155.0785321  85.6626181 100.9874492
 155.9795183  85.5232646 100.6958490 155.1533295  85.8280636 101.9272669
 149.4128126  83.0393036  99.8327678 148.5431435  83.3326602  99.5610267
 149.6487606  83.6233481 100.5534942 157.5386943  87.2224809  98.3837265
 158.0141065  87.4152456  97.5756116 156.6152509  87.2783995  98.1380648
 144.4270450  88.3848977  87.9668343 144.1816492  87.4811307  88.1648553
 144.5966364  88.3866127  87.0247821 152.1167160  79.2572653  97.3493099
 152.6349104  79.9933680  97.0239587 151.7622292  79.5636646  98.1839858
 143.6966097  84.1177334  85.4654505 143.0035342  84.1921689  84.8094541
 143.4517849  83.3537678  85.9876021 152.3679754  75.6772935  92.8693995
 152.6481508  75.0096125  93.4954422 153.1530361  75.8702031  92.3568659
 150.1713222  94.8531929  84.4319022 149.5987189  95.4722117  83.9789493
 150.7446016  95.4031291  84.9658944 156.2388612  84.0990569  96.6165570
 157.1906035  84.1988667  96.6377794 156.0692063  83.3068838  97.1263655
 154.2602992  81.1846153  96.8024971 153.6652924  81.4651165  96.1071460
 153.9752688  81.6740054  97.5741712 153.3910482  95.1369080  85.5627604
 154.3241155  95.0714641  85.7660479 153.3033695  95.9725346  85.1042137
 156.0198499  94.4534950  82.5231551 155.9412130  94.1194813  83.4167309
 156.8408166  94.9456718  82.5223024 150.5560021  86.1892742  81.7735074
 151.5019126  86.0598950  81.8423492 150.1774266  85.4507404  82.2504502
 156.5281905  77.8548748  91.7361966 156.3306727  77.5463836  92.6205298
 157.1381611  78.5810387  91.8659896 150.4398713  90.2410488 103.2335731
 151.3601723  90.4189087 103.4275778 150.4048296  89.2966534 103.0815430
 148.7402938  84.1142719  81.7089959 147.8334393  83.8175831  81.7852673
 149.0178919  83.8172537  80.8424246 139.6580878  85.4349082  92.1589006
 139.3383663  84.5814390  91.8663380 139.1114307  85.6497660  92.9146973
 143.4360786  88.1511523  95.8758512 143.6546796  89.0828631  95.8946546
 143.8486560  87.7919497  96.6613316 150.3565004  78.6579608  87.8634201
 149.5465732  78.3126693  88.2389447 151.0449421  78.3487152  88.4521812
 152.2855552  77.7357655  89.4858497 152.8386591  78.1553108  90.1448520
 152.5225638  76.8093403  89.5281453 148.3088651  83.7244729 105.2661261
 148.2085378  84.6739086 105.1973352 148.0910193  83.3962968 104.3937331
 147.5101723  80.9729654  81.8501939 148.3720887  81.2984552  82.1097756
 147.6952067  80.1861150  81.3375004 139.5269138  89.0551993  94.1282127
 138.8332610  88.6405946  93.6152082 140.2742129  89.0972530  93.5315546
 155.6634359  79.8458180  88.9937162 155.0833028  80.5042984  88.6115214
 155.3970292  79.0235525  88.5824579 154.1137925  79.2463238  91.1958482
 154.6137704  79.3579772  90.3872801 154.7573533  78.9424291  91.8359290
 148.1719921  87.1541868 104.0826323 147.6887003  87.9542228 104.2890212
 148.2580860  87.1649812 103.1293767 141.4405881  88.9870247  92.0048142
 141.4176569  89.0857934  91.0530025 141.7506517  89.8335398  92.3265308
 144.0993259  91.0446402  96.1194757 145.0536512  91.0130345  96.0524688
 143.9005782  90.5837026  96.9344983 144.6892641  89.6147518  98.6865554
 145.5085530  90.1091597  98.7100392 144.9629449  88.6979486  98.6583122
 154.4459237  82.0058271  88.0493510 153.5585092  82.2907921  87.8313705
 154.8613226  81.8452034  87.2020787 157.7973773  82.0304792  91.7647849
 158.5734163  82.5201244  92.0372466 157.0721907  82.4562846  92.2219719
 142.4543488  96.5866022  93.1364954 142.3197956  95.8266423  92.5702953
 142.0375550  97.3106922  92.6693743 153.5902451  91.7702945  82.1441530
 154.2938301  91.9752948  82.7599185 152.8665099  92.3379707  82.4090613
 154.4200261  87.5212807  88.2643800 154.3635462  87.9781358  87.4251432
 154.9728603  86.7603491  88.0866643 158.2305067  83.3102538  89.0893919
 157.9742001  82.9099174  89.9202127 157.6057935  84.0246332  88.9644059
 145.6112613  97.4835339  93.3483397 145.4944998  98.4280771  93.2462087
 144.7905060  97.1808900  93.7369196 155.4989148  92.2085474  84.1939990
 156.3334752  91.7766673  84.0117465 155.3373491  92.0367488  85.1216884
 155.1535040  88.7117588  85.5596329 155.0983844  88.5461859  84.6184773
 154.5281095  89.4193621  85.7158519 139.9427555  83.9485652  99.3857751
 140.5886419  83.4384606  99.8744977 139.7344706  84.6854334  99.9601177
 152.4680947  91.0166500 104.8849892 153.3372107  91.1907152 104.5236527
 151.9887699  91.8360916 104.7625621 148.4631166  78.2125697  85.1381648
 148.4509835  79.1567537  85.2949918 149.3554588  78.0295842  84.8441109
 146.6367128  98.1363601  96.5639326 147.5394374  98.1687211  96.8805820
 146.4104498  97.2064052  96.5785661 148.3920730  96.8894587  93.2249404
 147.4416361  96.8896449  93.1113776 148.6953216  96.1427322  92.7085439
 152.2783285  74.8068473  89.3927584 151.5115681  74.2526960  89.5384267
 152.6893990  74.8790342  90.2541736 144.2825046  81.0953269 103.4832766
 145.1456508  80.7390074 103.6936090 143.7090457  80.7567164 104.1708170
 156.7949945 104.5318030  90.2153582 156.2314810 104.4407967  89.4469870
 156.6802340 103.7117935  90.6956075 154.3414377 106.0269222  93.0537803
 155.1335669 105.6860046  92.6384102 154.5811027 106.1364197  93.9739956
 156.3005131 105.2878135  85.9255181 157.0736007 104.7407122  85.7868057
 156.6530530 106.1522384  86.1369643 158.1390174 106.6154517  99.1322081
 157.8480039 107.5200148  99.0168747 158.7747158 106.6571045  99.8466150
 158.6371409 101.4470801  83.5573631 158.8896929 100.9252322  82.7957094
 157.6995968 101.2836947  83.6600315 158.3567698 103.3498907  85.7598006
 158.2403956 102.6743810  86.4279091 158.4669957 102.8631281  84.9430159
 156.5492540 102.7529730  92.1608579 155.6243037 102.6205944  92.3686271
 156.7976953 103.5323949  92.6578521 153.9101351 102.3963003  92.9952368
 154.0393732 102.6497482  93.9091780 153.2298802 102.9890711  92.6757023
 158.0800838 113.0660253  89.0942842 158.0024868 114.0168078  89.1731323
 157.4762482 112.7206126  89.7517768 157.0700638 105.0349793  93.8676475
 157.6401995 105.4637061  93.2293959 157.6608750 104.7532377  94.5660660
 157.5625804 100.2013220 102.1137486 156.9324465 100.8829501 102.3472883
 157.4561892 100.0896302 101.1690624 152.8570777  99.8685016  93.0403410
 152.0669831 100.1242545  92.5643521 153.3482024 100.6833354  93.1455451
 154.8085522 100.2329595  89.9986887 154.0116685 100.3448290  90.5170383
 154.5811114 100.5716248  89.1327777 151.1408480 100.1215507  95.4718401
 151.3916518 101.0062516  95.7375977 151.6768028  99.9420108  94.6993493
 156.8406547  94.5033986 104.4762737 156.4473493  93.9500184 105.1510381
 157.6572687  94.8144564 104.8669255 153.8068605 105.9417844  88.3876307
 154.3193125 106.7361094  88.5381872 154.4591318 105.2444135  88.3209908
 155.6163489 109.0583600  90.4699060 155.7930118 109.9801565  90.2820044
 156.4120323 108.7442020  90.8993440 154.9015846 101.1048232 100.3461223
 154.7869361 100.2033489 100.6468322 154.0460364 101.3511929  99.9946040
 156.7394805 110.5761774  96.4709402 157.2902230 110.4478837  95.6986396
 155.9006281 110.8756663  96.1204295 151.7717521 104.2706498  89.1635877
 152.6092743 104.6803507  88.9469585 151.9495789 103.3305941  89.1336071
 156.6333416  96.6318561  90.6879057 157.2077168  96.4093742  89.9552250
 157.2204399  96.7007255  91.4407658 156.9603003  98.6623022  84.7074942
 156.1240316  98.9997708  85.0284217 156.8207773  98.5272002  83.7702079
 158.9356084  93.5059810  89.4154127 158.2820496  93.1908827  88.7910741
 158.8936558  92.8835550  90.1413949 151.7943693 101.6097214  89.8346611
 151.5968092 101.0166574  89.1097678 151.2390357 101.3049424  90.5522550
 157.7132776 100.1197380  89.7131583 156.9000642 100.4191550  90.1196775
 158.2091770  99.7253069  90.4306065 157.2046851  97.6915735  95.3292818
 157.8446230  97.5504495  94.6315781 156.3724382  97.4050249  94.9531420
 157.9807155 106.9918166  91.4427810 158.7747753 106.4968486  91.2410385
 157.2698847 106.4636029  91.0795516 154.2889918 101.1361248  87.5187563
 153.3587506 101.0745703  87.7357525 154.3847390 100.6137200  86.7224204
 154.2075467  97.6616060  90.1065805 154.4682285  98.5761394  89.9974965
 155.0292640  97.1940503  90.2562418 155.6800393  99.0753818  97.2764629
 156.3523446  98.8671180  96.6277278 154.8530179  98.8775904  96.8369862
 156.0827890 102.3496421  98.0367066 155.9447688 101.6176659  98.6378605
 156.9932813 102.2605321  97.7551254 157.4239125  99.0481598  99.3446386
 156.8876482  98.5972336  99.9967982 156.8355833  99.1827507  98.6016850
 155.7187668 115.8145647  93.2391044 155.9584266 116.4464171  93.9170063
 154.8756865 115.4633687  93.5256403 156.8341384  98.5070249  81.9072849
 155.9570850  98.3859050  81.5435096 157.3099137  97.7156327  81.6551738
 148.3543524 103.2947409  92.0014356 149.0414564 102.9809139  91.4135372
 148.1991652 104.1988774  91.7281608 153.1578246  98.1837605  96.4299380
 153.0736435  97.5763275  95.6949790 152.3360952  98.6746624  96.4308876
 157.7426127 109.2706047  98.6196278 158.4435587 109.9042530  98.7725672
 157.2721242 109.6120779  97.8591917 153.3393845 108.8042402  95.5527380
 153.9247282 108.0586090  95.6855285 153.1418684 109.1146359  96.4364044
 156.1932500 111.8393649  90.5689823 155.5242876 112.3239777  90.0853863
 156.0545370 112.0862870  91.4833201 147.9311500 101.3748002  94.2731823
 147.9695599 100.8411593  95.0668942 147.4251793 100.8483208  93.6542801
 155.3102262  96.2212543  97.7694366 155.3743589  97.0827374  97.3571763
 155.2469382  95.6086544  97.0366724 154.7854535  98.2935675 101.4167400
 155.4126573  97.9112753 102.0304924 153.9282454  98.0749877 101.7823093
 151.5620077 100.1012104  87.3485755 151.8573518  99.1922783  87.2952809
 150.6608113 100.0799844  87.0266757 155.0914324  98.1768101  93.3313303
 154.3700910  98.7904069  93.1920777 155.8807580  98.7125866  93.2529949
 157.8940638  95.5122527  99.6053955 158.4175040  95.7584824 100.3680264
 157.6752971  96.3442562  99.1857093 153.2907919  97.7826202  87.4725080
 152.9620625  96.9023581  87.2900186 153.6447290  97.7273871  88.3601469
 156.4049742  98.0699172  87.8400558 156.7445815  98.5985093  87.1179166
 156.8521863  98.4079578  88.6159124 159.0993183  96.4536223  97.2903626
 158.7590003  95.6544036  97.6924306 158.3932189  96.7537933  96.7180459
 158.3917889  96.5673793  86.0393850 159.1126252  96.9455046  85.5357567
 157.7683193  97.2862670  86.1428828 157.2748234 100.2304656  93.5522927
 157.1292814 100.5444959  94.4447209 156.7973437 100.8489556  92.9993826
 151.7493896 102.7710000  96.4910589 151.2047364 103.5469808  96.6230863
 152.6273246 103.1180805  96.3329710 158.5381512  96.1021584  88.8691387
 158.6597424  95.1738230  89.0682275 158.2483555  96.1160270  87.9569702
 152.5359918 101.8979896  99.3840745 151.7941654 102.0462532  99.9705376
 152.2152662 102.1588162  98.5207495 152.9816531 109.7845325  91.4151140
 153.8074551 109.4849097  91.0349784 152.6310583 109.0152947  91.8640929
 157.9498064 109.1371793  93.4848814 157.3278074 108.4742498  93.1851041
 158.6202931 109.1632925  92.8022461 151.1825136 107.7031652  92.3740074
 150.3457045 107.2753826  92.1924075 151.1548782 107.8964095  93.3110865
 158.0222592  97.6153581 103.0781320 158.0710747  98.4915704 102.6959089
 158.5645106  97.0730974 102.5052963 157.5111571 107.6875717  86.9607274
 157.6599692 108.3711181  86.3073947 158.3178015 107.6680807  87.4756730
 155.2664204 103.7140894  87.9668343 155.0210246 102.8103224  88.1648553
 155.4360119 103.7158045  87.0247821 154.5359852  99.4469252  85.4654505
 153.8429097  99.5213607  84.8094541 154.2911604  98.6829595  85.9876021
 150.4974633 100.7641000  92.1589006 150.1777417  99.9106308  91.8663380
 149.9508061 100.9789578  92.9146973 154.2754540 103.4803441  95.8758512
 154.4940550 104.4120548  95.8946546 154.6880314 103.1211415  96.6613316
 159.1482406  99.0536646 105.2661261 159.0479133 100.0031003 105.1973352
 158.9303948  98.7254885 104.3937331 158.3495477  96.3021571  81.8501939
 159.2114641  96.6276470  82.1097756 158.5345821  95.5153067  81.3375004
 150.3662893 104.3843911  94.1282127 149.6726364 103.9697864  93.6152082
 151.1135884 104.4264448  93.5315546 159.0113676 102.4833785 104.0826323
 158.5280758 103.2834145 104.2890212 159.0974615 102.4941730 103.1293767
 152.2799635 104.3162165  92.0048142 152.2570324 104.4149852  91.0530025
 152.5900272 105.1627316  92.3265308 154.9387013 106.3738320  96.1194757
 155.8930267 106.3422262  96.0524688 154.7399537 105.9128944  96.9344983
 155.5286395 104.9439436  98.6865554 156.3479284 105.4383515  98.7100392
 155.8023203 104.0271404  98.6583122 153.2937242 111.9157939  93.1364954
 153.1591710 111.1558340  92.5702953 152.8769304 112.6398839  92.6693743
 156.4506368 112.8127256  93.3483397 156.3338752 113.7572689  93.2462087
 155.6298814 112.5100818  93.7369196 150.7821310  99.2777570  99.3857751
 151.4280173  98.7676524  99.8744977 150.5738461 100.0146251  99.9601177
 157.4760882 113.4655518  96.5639326 158.3788129 113.4979129  96.8805820
 157.2498252 112.5355969  96.5785661 155.1218801  96.4245187 103.4832766
 155.9850262  96.0681992 103.6936090 154.5484211  96.0859082 104.1708170
 158.7705254 116.7039920  94.2731823 158.8089354 116.1703511  95.0668942
 158.2645547 116.1775125  93.6542801  90.6825142   0.8456264  79.9636351
  90.9221741   1.4774788  80.6415369  89.8394339   0.4944304  80.2501710
 102.5981174   4.8920564  76.9398889 102.0346039   4.8010501  76.1715177
 102.4833569   4.0720469  77.4201381 100.1445606   6.3871756  79.7783109
 100.9366898   6.0462581  79.3629409 100.3842256   6.4966731  80.6985263
 108.1780733   8.5591532  72.2513354 107.5268712   9.1445612  71.8647368
 108.9725095   9.0897727  72.3108391 102.1036360   5.6480669  72.6500488
 102.8767236   5.1009656  72.5113364 102.4561759   6.5124918  72.8614949
 103.9421402   6.9757051  85.8567387 103.6511268   7.8802682  85.7414054
 104.5778387   7.0173579  86.5711457 109.6555998   6.2481964  72.7882338
 109.0201831   6.3216590  73.5003243 109.3253404   6.8375563  72.1101417
 108.9011287   6.6618467  82.8517181 108.6012010   7.5643506  82.7432988
 108.5562347   6.3950650  83.7038334  99.7132580   2.7565537  79.7197675
  99.8424961   3.0100016  80.6337086  99.0330031   3.3493245  79.4002330
 103.8832067  13.4262787  75.8188149 103.8056097  14.3770612  75.8976629
 103.2793711  13.0808660  76.4763075 105.9807785   5.8480845  77.6542018
 106.4446131   6.1268548  76.8646641 105.7164584   4.9464290  77.4715109
 102.8731867   5.3952327  80.5921781 103.4433224   5.8239595  79.9539266
 103.4639978   5.1134911  81.2905967 106.4422418   7.1176833  84.6714708
 106.5066851   7.5797240  85.5072880 105.7333342   6.4874198  84.7997018
 106.1570436   8.7844940  74.5393688 106.0216111   9.6296476  74.9678536
 106.6980249   8.9864218  73.7759622  99.6099834   6.3020378  75.1121614
 100.1224354   7.0963629  75.2627178 100.2622546   5.6046669  75.0455215
 101.4194718   9.4186135  77.1944367 101.5961347  10.3404099  77.0065351
 102.2151552   9.1044554  77.6238747 107.7838913   9.4068507  88.6694031
 107.3402767   8.6204885  88.3514935 108.4456126   9.5947657  88.0037921
 102.5426034  10.9364308  83.1954709 103.0933459  10.8081372  82.4231703
 101.7037510  11.2359197  82.8449602 109.8820151   9.6871307  86.6975432
 109.8638626  10.5080188  86.2055701 110.8040071   9.5625382  86.9225573
 106.3393205   7.2015436  87.5398940 106.8721542   6.4403724  87.3098248
 105.8107286   6.9089088  88.2823095  97.5748750   4.6309033  75.8881184
  98.4123972   5.0406041  75.6714892  97.7527018   3.6908475  75.8581378
 107.7045917   6.3301429  75.0517752 107.1767279   5.5954188  74.7390990
 107.2033420   7.1076105  74.8057721 108.7566596  12.8579146  70.9749411
 108.0828295  13.1610843  71.5834369 109.1432418  13.6608226  70.6254868
 112.2606018   7.8600823  76.3467883 111.8068346   7.0191733  76.4033073
 111.6299985   8.4962222  76.6842663 110.7038958   9.6977320  77.2817701
 110.9961932  10.2582377  76.5630067 111.2137578   9.9905881  78.0370860
 106.7262839   5.7902977  69.9164794 106.2882269   5.0738836  69.4570431
 107.4673280   6.0179092  69.3549885 105.6672583  10.4757671  78.3711154
 105.6248762  10.7018517  77.4419686 106.5835282  10.2421046  78.5196955
 103.7838384   7.3520700  78.1673117 104.5778982   6.8571020  77.9655692
 103.0730076   6.8238563  77.8040823 108.6033228   9.7338796  82.5185485
 108.6570250  10.3029732  83.2863201 107.7348010   9.9040681  82.1539522
 106.3609660   7.9249722  81.8470954 106.2220745   7.5568506  82.7196892
 105.5724256   8.4397361  81.6754912 106.9557812  13.0258819  73.1896491
 107.1309567  12.5546862  74.0042113 106.2690600  13.6524585  73.4177751
 107.9114875   7.3031325  79.2359792 107.5764707   7.2632095  80.1317442
 107.4118820   6.6376041  78.7630202 112.5028198   9.3586267  87.1702632
 112.4440744   8.6745488  86.5033215 112.9047717  10.1005257  86.7183258
 101.5218897  16.1748181  79.9636351 101.7615495  16.8066705  80.6415369
 100.6788093  15.8236221  80.2501710  94.1574753   3.6549943  78.7259663
  94.8445792   3.3411673  78.1380678  94.0022881   4.5591308  78.4526914
 106.0346759  11.9827304  82.3677855 105.9616930  12.7882275  82.8797159
 105.5924152  12.1819270  81.5425876 105.8236538  11.2199074  75.8780676
 105.0404060  11.7620754  75.9718901 106.5229284  11.7373053  76.2774917
 108.4945442  11.8814138  84.5236013 109.2073415  12.5161603  84.4511915
 108.0035471  11.9778004  83.7076015 103.5457356   9.6308581  85.3441584
 104.2466815  10.2645064  85.4970978 103.0752471   9.9723313  84.5837224
 111.6711752   7.9726531  73.6289491 111.9471596   7.8583126  74.5383365
 110.8016250   7.5744016  73.5901664 108.3065816  12.2212882  77.2722305
 108.4888210  11.4034538  77.7350057 109.1298802  12.4380574  76.8347195
 108.6407981  11.1481067  74.5337353 109.1695748  10.6373522  73.9207515
 108.9036201  10.8323597  75.3982886  99.1425074   9.1644936  82.2772687
  99.7278511   8.4188624  82.4100591  98.9449912   9.4748893  83.1609351
 101.9963729  12.1996184  77.2935129 101.3274104  12.6842311  76.8099169
 101.8576599  12.4465404  78.2078508  93.7342729   1.7350536  80.9977130
  93.7726828   1.2014127  81.7914248  93.2283021   1.2085742  80.3788107
 106.1368998  14.2339927  83.8917788 106.6887306  14.3971549  84.6566873
 106.4775191  14.8244365  83.2197813 110.9879872   9.0601185  89.7466442
 111.5319776   9.6731143  89.2521397 110.4066717   9.6180763  90.2633455
 109.2737385  12.1821903  80.8781470 109.1488524  11.3811643  80.3692415
 109.9316476  12.6768096  80.3895440 111.3372293   9.9830923  82.5061020
 110.3902629   9.8636274  82.4339347 111.6855066   9.0953421  82.5887281
 108.3418727   9.7783639  78.7065372 108.1943689   8.8500346  78.8872942
 109.1672220   9.8003730  78.2222447 111.9452849  10.6012198  79.7930245
 112.8699396  10.3955059  79.6554696 111.7768152  10.3528599  80.7019586
 111.7348165  11.1197865  75.1492336 111.9085042  10.5544288  74.3966189
 112.2277056  11.9198760  74.9671826  97.5525125   3.1312534  83.2155895
  97.0078593   3.9072342  83.3476169  98.4304474   3.4783339  83.0575017
 112.7223337  10.4364630  72.2489235 113.4174242  11.0571322  72.4676549
 113.0646487   9.5859981  72.5241613  98.3391146   2.2582431  86.1086052
  97.5972882   2.4065066  86.6950682  98.0183891   2.5190696  85.2452801
 106.2834809  11.7998409  85.9066442 106.5921935  11.5547556  86.7789142
 107.0810291  12.0045047  85.4185312 106.3055421  13.9536318  78.1371819
 105.8660411  13.4612697  78.8304675 107.0563538  13.4109286  77.8963894
  98.7847760  10.1447859  78.1396447  99.6105780   9.8451631  77.7595090
  98.4341812   9.3755482  78.5886235 103.7529293   9.4974327  80.2094120
 103.1309303   8.8345033  79.9096348 104.4234160   9.5235459  79.5267768
  96.9856365   8.0634186  79.0985380  96.1488273   7.6356360  78.9169382
  96.9580011   8.2566629  80.0356171 114.3108666   8.5197239  89.0827763
 113.5204210   8.5021378  88.5432263 114.0742021   9.0585532  89.8376800
 103.3142800   8.0478251  73.6852581 103.4630921   8.7313715  73.0319254
 104.1209244   8.0283341  74.2002037 101.0695433   4.0743428  74.6913650
 100.8241475   3.1705758  74.8893860 101.2391348   4.0760579  73.7493128
 106.8138206  10.5426381  71.1564328 106.2412173  11.1616568  70.7034800
 107.3870999  11.0925743  71.6904250 110.0335465  10.8263531  72.2872911
 110.9666139  10.7609093  72.4905786 109.9458678  11.6619798  71.8287443
 112.6623482  10.1429402  69.2476858 112.5837114   9.8089265  70.1412616
 113.4833149  10.6351170  69.2468330 100.0785769   3.8405975  82.6003819
 100.2971779   4.7723083  82.6191853 100.4911543   3.4813949  83.3858623
  96.1694122   4.7446445  80.8527434  95.4757593   4.3300398  80.3397388
  96.9167113   4.7866982  80.2560853  98.0830864   4.6764699  78.7293449
  98.0601552   4.7752386  77.7775332  98.3931501   5.5229850  79.0510615
 100.7418242   6.7340854  82.8440063 101.6961496   6.7024796  82.7769995
 100.5430766   6.2731478  83.6590289 101.3317624   5.3041970  85.4110861
 102.1510513   5.7986049  85.4345698 101.6054432   4.3873938  85.3828428
  99.0968471  12.2760474  79.8610261  98.9622939  11.5160875  79.2948259
  98.6800533  13.0001373  79.3939050 110.2327434   7.4597397  68.8686836
 110.9363284   7.6647400  69.4844492 109.5090083   8.0274159  69.1335920
 102.2537597  13.1729791  80.0728704 102.1369981  14.1175223  79.9707394
 101.4330043  12.8703352  80.4614503 112.1414131   7.8979926  70.9185296
 112.9759735   7.4661125  70.7362771 111.9798474   7.7261940  71.8462191
 109.1105931   6.7060952  91.6095199 109.9797090   6.8801604  91.2481833
 108.6312682   7.5255368  91.4870928 103.2792111  13.8258053  83.2884632
 104.1819358  13.8581663  83.6051127 103.0529481  12.8958503  83.3030968
 105.0345713  12.5789039  79.9494711 104.0841344  12.5790901  79.8359083
 105.3378199  11.8321774  79.4330745 120.7698406  18.4149577  81.0140473
 121.4076816  18.2956325  80.3103813 120.6519249  19.3630421  81.0728425
 117.5788113  18.3677006  80.9501998 117.2406624  18.2518070  80.0622533
 118.4477881  17.9668171  80.9303004 113.4374928  20.2212482  76.9398889
 112.8739794  20.1302419  76.1715177 113.3227323  19.4012386  77.4201381
 118.0607896  19.5211857  86.9088203 118.0496536  19.1264656  86.0368707
 118.2228535  18.7877930  87.5021975 110.9839360  21.7163674  79.7783109
 111.7760652  21.3754498  79.3629409 111.2236010  21.8258649  80.6985263
 119.0174487  23.8883450  72.2513354 118.3662467  24.4737530  71.8647368
 119.8118850  24.4189645  72.3108391 112.9430114  20.9772587  72.6500488
 113.7160990  20.4301574  72.5113364 113.2955513  21.8416836  72.8614949
 114.7815157  22.3048969  85.8567387 114.4905023  23.2094600  85.7414054
 115.4172141  22.3465497  86.5711457 115.7071364  19.6825818  82.4468747
 116.3034936  19.4581840  81.7325710 115.7646335  18.9410563  83.0494195
 115.2796392  17.1365253  70.2818938 115.5321913  16.6146774  69.5202401
 114.3420951  16.9731398  70.3845622 120.3239675  16.1401031  78.0893681
 121.1102764  15.7220454  77.7384098 120.5878379  17.0447124  78.2575330
 120.4949752  21.5773882  72.7882338 119.8595585  21.6508508  73.5003243
 120.1647159  22.1667480  72.1101417 125.7248102  16.0776265  78.9926660
 126.4573274  15.5075481  79.2264489 124.9687458  15.6897865  79.4333165
 114.9992681  19.0393359  72.4843313 114.8828939  18.3638262  73.1524397
 115.1094941  18.5525733  71.6675466 117.3424222  18.5003506  76.1890002
 116.9782429  17.9734127  76.9002924 118.1991338  18.1101975  76.0156488
 116.9829709  13.5293406  71.1851351 117.1504111  14.3973642  71.5521822
 116.7926878  13.6920687  70.2612640 119.7405042  21.9910385  82.8517181
 119.4405765  22.8935423  82.7432988 119.3956101  21.7242568  83.7038334
 113.1917523  18.4424181  78.8853886 112.2668020  18.3100396  79.0931577
 113.4401937  19.2218401  79.3823828 123.1402186  14.5092925  80.5314618
 122.2319063  14.4408333  80.2373379 123.0889781  14.9864870  81.3596444
 116.9618930  15.9851063  72.1698018 116.8418555  16.4308114  73.0083498
 116.2671518  16.3336381  71.6111556 110.5526334  18.0857455  79.7197675
 110.6818716  18.3391934  80.6337086 109.8723786  18.6785163  79.4002330
 114.7225822  28.7554705  75.8188149 114.6449851  29.7062530  75.8976629
 114.1187465  28.4100577  76.4763075 117.2143051  15.9282570  88.4749516
 116.4376386  16.4876491  88.4652380 117.8533615  16.4139353  88.9964386
 125.0063832  12.7109363  82.3092492 124.3638212  13.0041896  81.6632287
 124.5018761  12.5962284  83.1145689 122.6603996  16.4572536  72.9978352
 123.5721852  16.6899923  72.8226049 122.1513643  17.0409581  72.4353430
 115.4689424  18.7368024  88.0367483 116.2104108  19.2753068  87.7602306
 114.7626409  19.3634313  88.1939034 120.9444763  20.8797164  86.6339644
 121.3528119  20.4379575  85.8894277 120.2222025  20.3049792  86.8873837
 117.2975833  15.8169771  84.0073201 118.1437029  16.2409185  84.1507850
 117.2374471  15.1603395  84.7011764 121.2673578  21.4398355  80.3891933
 120.6382441  21.6044069  79.6868001 120.8799240  21.8539964  81.1602897
 125.1462810  22.3752793  77.7436297 124.4613848  22.7551694  77.1933330
 125.2306659  22.9848119  78.4768245 120.4475279  13.4774139  85.6654375
 120.2036211  14.2316200  85.1288650 120.7235209  13.8559487  86.5001622
 122.4013742  20.0212752  84.3431640 122.6130637  20.6644512  83.6666021
 122.3543490  19.1875068  83.8753570 120.0039971  12.6330572  81.2468212
 119.1424450  12.9311826  81.5384950 120.0302405  12.8500971  80.3149245
 116.8201540  21.1772763  77.6542018 117.2839885  21.4560466  76.8646641
 116.5558338  20.2756208  77.4715109 113.7125621  20.7244244  80.5921781
 114.2826978  21.1531513  79.9539266 114.3033733  20.4426829  81.2905967
 115.7570426  17.2995915  74.4631583 116.4594469  17.7516959  74.9305510
 115.4251054  16.6579734  75.0911476 114.2050788  15.8907672  88.8382793
 113.5749448  16.5723953  89.0718189 114.0986875  15.7790754  87.8935931
 109.4995760  15.5579468  79.7648717 108.7094814  15.8136996  79.2888827
 109.9907007  16.3727806  79.8700757 123.5159570  22.8984707  82.5153998
 124.3377013  22.4964894  82.2336679 123.5121972  22.7952941  83.4670113
 111.4510505  15.9224047  76.7232194 110.6541669  16.0342741  77.2415689
 111.2236098  16.2610699  75.8573084 117.2816173  22.4468750  84.6714708
 117.3460605  22.9089158  85.5072880 116.5727097  21.8166115  84.7997018
 107.7833463  15.8109958  82.1963708 108.0341501  16.6956968  82.4621284
 108.3193011  15.6314560  81.4238799 131.6065563  19.2423456  78.8638969
 130.8529271  18.6730854  78.7082974 131.7413104  19.2086120  79.8109604
 116.9964191  24.1136858  74.5393688 116.8609865  24.9588394  74.9678536
 117.5374003  24.3156136  73.7759622 113.4831530  10.1928438  91.2008044
 113.0898476   9.6394636  91.8755688 114.2997671  10.5039016  91.5914561
 110.4493588  21.6312296  75.1121614 110.9618109  22.4255546  75.2627178
 111.1016301  20.9338586  75.0455215 112.2588473  24.7478052  77.1944367
 112.4355101  25.6696017  77.0065351 113.0545306  24.4336471  77.6238747
 116.3999491  11.6086317  88.7928300 117.1409205  12.2093470  88.7132763
 116.6317414  10.8663955  88.2346343 111.5440829  16.7942684  87.0706530
 111.4294344  15.8927941  87.3713629 110.6885347  17.0406381  86.7191347
 118.6232667  24.7360424  88.6694031 118.1796521  23.9496803  88.3514935
 119.2849881  24.9239575  88.0037921 113.3819788  26.2656226  83.1954709
 113.9327213  26.1373289  82.4231703 112.5431264  26.5651115  82.8449602
 120.7213905  25.0163224  86.6975432 120.7032380  25.8372105  86.2055701
 121.6433825  24.8917300  86.9225573 117.1786959  22.5307354  87.5398940
 117.7115296  21.7695642  87.3098248 116.6501040  22.2381006  88.2823095
 108.4142505  19.9600950  75.8881184 109.2517727  20.3697959  75.6714892
 108.5920772  19.0200392  75.8581378 120.3106937  17.6276031  71.5765017
 119.7953560  18.3980636  71.8153404 120.0384245  16.9541167  72.1998079
 117.8954048  12.4725732  76.6350255 117.0395644  12.0832582  76.4555894
 118.3081000  12.5517692  75.7750041 119.4253195  10.0072075  81.0341815
 118.9217990   9.9702210  80.2209620 119.7183801  10.9164818  81.0938472
 115.6696080  10.0910805  80.0407997 116.5349077   9.8953613  79.6813886
 115.7373589   9.8621156  80.9677354 125.2841211  20.3808386  73.5118191
 124.5070654  20.0419545  73.0673353 125.9632692  20.3861009  72.8373156
 120.0993240  15.5003123  73.4024798 119.7943376  15.8149272  74.2534941
 121.0523682  15.5784543  73.4452131 118.5439672  21.6593346  75.0517752
 118.0161033  20.9246106  74.7390990 118.0427175  22.4368023  74.8057721
 123.5232518  19.8542367  80.1684799 122.8656192  20.5441628  80.2564927
 124.3272917  20.2438799  80.5118785 113.2758400  12.3213013  77.4124364
 113.8502151  12.0988194  76.6797557 113.8629382  12.3901707  78.1652965
 122.3337977  18.2086739  78.2188740 122.8469858  18.8416731  78.7210450
 122.9839201  17.6087935  77.8532100 113.6027987  14.3517474  71.4320249
 112.7665299  14.6892160  71.7529524 113.4632756  14.2166453  70.4947386
 115.5781067   9.1954262  76.1399433 114.9245480   8.8803279  75.5156048
 115.5361541   8.5730002  76.8659256 116.6892272  19.4773557  68.0552725
 115.7819334  19.2462810  68.2543874 117.1863304  18.6811176  68.2426707
 119.5960351  28.1871064  70.9749411 118.9222050  28.4902761  71.5834369
 119.9826173  28.9900144  70.6254868 118.8118808  15.6836195  80.4647081
 117.8941369  15.9051142  80.3068769 119.2278951  15.7582506  79.6058788
 119.5953855  17.0827611  75.5949761 120.3425674  17.5949008  75.2856883
 119.8645445  16.7611663  76.4554155 117.8680506  19.5786151  72.5776715
 116.9591725  19.2945184  72.6749185 117.8975589  19.9985230  71.7180022
 123.0999773  23.1892741  76.3467883 122.6462100  22.3483651  76.4033073
 122.4693740  23.8254139  76.6842663 122.0432693  14.1184727  77.5768550
 121.3055449  13.6062113  77.9078793 122.2959466  13.6785109  76.7651827
 121.5432712  25.0269238  77.2817701 121.8355687  25.5874295  76.5630067
 122.0531333  25.3197799  78.0370860 108.4368676  17.2991666  76.5591918
 108.2393076  16.7061026  75.8342984 107.8815340  16.9943876  77.2767856
 116.4165400  17.1914772  78.6786511 116.4714009  16.2388608  78.6028987
 115.6056602  17.3474211  79.1627809 117.5656593  21.1194895  69.9164794
 117.1276023  20.4030754  69.4570431 118.3067034  21.3471010  69.3549885
 114.3557759  15.8091832  76.4376890 113.5425625  16.1086002  76.8442082
 114.8516754  15.4147521  77.1551372 116.5066337  25.8049589  78.3711154
 116.4642516  26.0310435  77.4419686 117.4229036  25.5712963  78.5196955
 119.9531971  16.2733656  85.2691783 120.3081359  16.5005129  86.1286249
 120.6004102  16.6052033  84.6469039 125.6829708  19.3952092  75.9741112
 125.5447607  19.5853688  75.0462302 125.3265927  20.1571475  76.4309164
 113.8471834  13.3810187  82.0538125 114.4871214  13.2398946  81.3561088
 113.0149365  13.0944701  81.6776727 125.7099088  21.4628619  80.9852384
 126.1435594  21.3703908  81.8335438 126.4230668  21.4386120  80.3472400
 114.6232138  22.6812618  78.1673117 115.4172737  22.1862938  77.9655692
 113.9123831  22.1530481  77.8040823 119.4426983  25.0630713  82.5185485
 119.4964005  25.6321650  83.2863201 118.5741764  25.2332598  82.1539522
 110.9314902  16.8255699  74.2432870 110.0012490  16.7640155  74.4602832
 111.0272374  16.3031652  73.4469511 110.8500451  13.3510512  76.8311111
 111.1107268  14.2655846  76.7220272 111.6717623  12.8834955  76.9807724
 112.3225376  14.7648269  84.0009936 112.9948429  14.5565632  83.3522585
 111.4955163  14.5670355  83.5615168 126.5714637  21.5052320  83.5185269
 126.7650527  22.4098130  83.7644544 126.4715255  21.0459739  84.3523854
 118.2250948  11.3910210  86.0175597 117.5778863  12.0900160  85.9240073
 118.9951963  11.8246354  86.3851845 121.6329746  21.6559063  89.0926150
 121.4815252  21.4269614  88.1756234 121.6234425  22.6129664  89.1057495
 118.4015082  19.2290975  84.0772416 119.3307142  19.3802135  83.9041384
 117.9806112  19.3174996  83.2221063 117.2003414  23.2541640  81.8470954
 117.0614500  22.8860424  82.7196892 116.4118010  23.7689279  81.6754912
 117.7951566  28.3550736  73.1896491 117.9703322  27.8838779  74.0042113
 117.1084354  28.9816502  73.4177751 118.7508629  22.6323242  79.2359792
 118.4158462  22.5924012  80.1317442 118.2512575  21.9667958  78.7630202
 112.7252873  18.0390872  84.7612373 112.5872671  17.3071111  85.3623912
 113.6357797  17.9499773  84.4796561 121.6867821  19.9779277  69.5096852
 121.0696992  19.2526105  69.4129904 121.2184309  20.7388637  69.1663926
 115.3535174  17.7510832  84.2496053 116.0634792  17.1104024  84.2082671
 115.3104482  18.0023727  85.1722233 123.3421953  24.6878185  87.1702632
 123.2834499  24.0037405  86.5033215 123.7441471  25.4297175  86.7183258
 114.0664108  14.7376050  86.0691692 113.5301465  14.2866788  86.7213288
 113.4780816  14.8721958  85.3262157 112.3612651  31.5040099  79.9636351
 112.6009250  32.1358623  80.6415369 111.5181848  31.1528139  80.2501710
 113.4766367  14.1964701  68.6318156 112.5995833  14.0753502  68.2680402
 113.9524120  13.4050779  68.3797044 123.3439360  22.6517769  85.4016612
 122.4566139  22.3143691  85.5243010 123.9137911  21.9200800  85.6385377
 104.9968507  18.9841861  78.7259663 105.6839547  18.6703591  78.1380678
 104.8416636  19.8883225  78.4526914 109.8003229  13.8732057  83.1544687
 109.7161418  13.2657727  82.4195097 108.9785936  14.3641076  83.1554183
 116.8740513  27.3119221  82.3677855 116.8010685  28.1174193  82.8797159
 116.4317906  27.5111187  81.5425876 116.6630293  26.5490991  75.8780676
 115.8797815  27.0912672  75.9718901 117.3623038  27.0664971  76.2774917
 119.9726943  12.3585621  78.5214882 120.4695643  11.6055583  78.2015952
 119.2013925  12.3949938  77.9558091 127.8256700  18.0625986  80.1633173
 127.8146577  18.9450702  79.7927106 126.9574080  17.7097537  79.9687710
 119.3339197  27.2106055  84.5236013 120.0467169  27.8453520  84.4511915
 118.8429225  27.3069921  83.7076015 121.0556724  21.1157308  76.0953305
 120.1213002  21.2358771  75.9258009 121.2333392  20.2129775  75.8313315
 116.5561912  14.5003004  78.2486566 116.1859699  13.9474044  78.9367472
 117.0521004  13.8961137  77.6961566 124.4429275  16.9574627  76.6303339
 124.9089727  17.7902619  76.5563642 124.8936776  16.4919609  77.3348598
 114.3851110  24.9600499  85.3441584 115.0860570  25.5936982  85.4970978
 113.9146225  25.3015230  84.5837224 122.5105506  23.3018449  73.6289491
 122.7865350  23.1875043  74.5383365 121.6410005  22.9035934  73.5901664
 122.1852396  17.5145106  83.1694135 121.5323847  17.7621014  82.5146587
 122.5632776  16.7009245  82.8356612 119.1459570  27.5504800  77.2722305
 119.3281965  26.7326455  77.7350057 119.9692556  27.7672492  76.8347195
 119.4801736  26.4772985  74.5337353 120.0089502  25.9665439  73.9207515
 119.7429955  26.1615515  75.3982886 118.2339969  18.2564917  89.6560172
 117.5580606  18.1559047  90.3262547 119.0567603  18.1004131  90.1196169
 109.9818828  24.4936854  82.2772687 110.5672265  23.7480542  82.4100591
 109.7843667  24.8040811  83.1609351 112.8357484  27.5288101  77.2935129
 112.1667859  28.0134229  76.8099169 112.6970353  27.7757322  78.2078508
 104.5736483  17.0642454  80.9977130 104.6120583  16.5306045  81.7914248
 104.0676776  16.5377660  80.3788107 116.9762752  29.5631845  83.8917788
 117.5281060  29.7263466  84.6566873 117.3168946  30.1536283  83.2197813
 111.9527245  11.9106995  84.4939672 112.0168572  12.7721826  84.0817070
 111.8894366  11.2980996  83.7612031 111.4279518  13.9830127  88.1412707
 112.0551557  13.6007205  88.7550231 110.5707437  13.7644329  88.5068399
 121.8273627  24.3893102  89.7466442 122.3713531  25.0023061  89.2521397
 121.2460471  24.9472681  90.2633455 108.2045061  15.7906556  74.0731061
 108.4998502  14.8817235  74.0198115 107.3033096  15.7694296  73.7512064
 120.1131139  27.5113820  80.8781470 119.9882279  26.7103560  80.3692415
 120.7710231  28.0060014  80.3895440 111.7339308  13.8662553  80.0558610
 111.0125893  14.4798521  79.9166083 112.5232563  14.4020318  79.9775256
 122.1766048  25.3122840  82.5061020 121.2296383  25.1928192  82.4339347
 122.5248821  24.4245339  82.5887281 114.5365621  11.2016979  86.3299262
 115.0600023  11.4479276  87.0925571 114.3177954  12.0337014  85.9102399
 109.9332902  13.4720654  74.1970387 109.6045608  12.5918033  74.0145493
 110.2872273  13.4168323  75.0846776 119.1812481  25.1075557  78.7065372
 119.0337444  24.1792264  78.8872942 120.0065975  25.1295647  78.2222447
 113.0474725  13.7593624  74.5645864 113.3870798  14.2879545  73.8424473
 113.4946846  14.0974030  75.3404431 122.7846603  25.9304115  79.7930245
 123.7093150  25.7246977  79.6554696 122.6161906  25.6820517  80.7019586
 115.7418166  12.1430675  84.0148932 115.4014987  11.3438488  84.4169612
 115.0357173  12.4432385  83.4425766 115.0342873  12.2568245  72.7639157
 115.7551235  12.6349498  72.2602874 114.4108177  12.9757122  72.8674135
 119.1773995  12.9613394  73.6997489 119.3937610  13.8438032  73.3986318
 118.6968063  12.5699608  72.9703131 113.9173217  15.9199108  80.2768234
 113.7717798  16.2339411  81.1692515 113.4398420  16.5384008  79.7239133
 115.7769600  12.9101656  80.3249124 115.7631168  12.0142749  79.9881421
 116.4942028  12.9172319  80.9587410 117.6295730  13.3438996  82.3702251
 117.3713508  14.2656066  82.3686581 117.0980771  12.9469430  83.0602715
 122.5741919  26.4489783  75.1492336 122.7478797  25.8836205  74.3966189
 123.0670810  27.2490678  74.9671826 108.3918879  18.4604452  83.2155895
 107.8472347  19.2364260  83.3476169 109.2698229  18.8075256  83.0575017
 115.1806496  11.7916036  75.5936694 115.3022407  10.8632682  75.7927581
 114.8908538  11.8054722  74.6815009 128.4281310  19.2126206  76.7682636
 128.8712456  18.4633531  76.3701759 127.5507821  19.2036342  76.3856368
 123.5617092  25.7656547  72.2489235 124.2567996  26.3863240  72.4676549
 123.9040242  24.9151898  72.5241613 109.1784901  17.5874348  86.1086052
 108.4366637  17.7356984  86.6950682 108.8577645  17.8482614  85.2452801
 125.4608515  23.2156253  73.7776565 125.9859839  23.5543526  73.0525885
 125.3730867  22.2803268  73.5939700 117.1228564  27.1290326  85.9066442
 117.4315690  26.8839473  86.7789142 117.9204046  27.3336965  85.4185312
 117.1449176  29.2828236  78.1371819 116.7054166  28.7904615  78.8304675
 117.8957293  28.7401204  77.8963894 109.6241515  25.4739777  78.1396447
 110.4499534  25.1743549  77.7595090 109.2735567  24.7047399  78.5886235
 114.5923048  24.8266245  80.2094120 113.9703057  24.1636950  79.9096348
 115.2627915  24.8527377  79.5267768 107.8250120  23.3926103  79.0985380
 106.9882028  22.9648278  78.9169382 107.7973765  23.5858547  80.0356171
 114.6647575  13.3048033  89.8026626 114.7135731  14.1810156  89.4204396
 115.2070089  12.7625426  89.2298270 125.1502421  23.8489156  89.0827763
 124.3597965  23.8313295  88.5432263 124.9135775  24.3877450  89.8376800
 125.2700296  20.6981623  86.3960492 125.3198301  20.5331630  87.3376015
 125.1614219  19.8308882  86.0058373 114.1536555  23.3770169  73.6852581
 114.3024675  24.0605633  73.0319254 114.9602998  23.3575259  74.2002037
 122.5604058  16.6812551  87.7119799 123.4613921  16.5419016  87.4203796
 122.6352033  16.8467006  88.6517976 116.8946864  14.0579406  86.5572985
 116.0250173  14.3512972  86.2855573 117.1306344  14.6419851  87.2780249
 126.7718493  23.1178564  86.6402513 126.4803301  23.4808545  87.4765974
 126.1590624  22.4045573  86.4615846 127.9714175  20.6831444  79.1605084
 128.8061066  21.1221248  79.3242644 128.1073304  20.2070097  78.3413329
 125.0205681  18.2411179  85.1082571 125.4959803  18.4338825  84.3001423
 124.0971246  18.2970365  84.8625955 111.9089188  19.4035346  74.6913650
 111.6635230  18.4997676  74.8893860 112.0785102  19.4052497  73.7493128
 119.5985897  10.2759023  84.0738405 120.1167841  11.0120049  83.7484894
 119.2441030  10.5823016  84.9085164 111.1784835  15.1363704  72.1899811
 110.4854080  15.2108059  71.5339847 110.9336587  14.3724047  72.7121328
 117.6531960  25.8718299  71.1564328 117.0805927  26.4908486  70.7034800
 118.2264754  26.4217661  71.6904250 123.7207350  15.1176939  83.3410877
 124.6724773  15.2175037  83.3623101 123.5510800  14.3255208  83.8508961
 121.7421729  12.2032522  83.5270278 121.1471662  12.4837535  82.8316767
 121.4571426  12.6926423  84.2987019 120.8729220  26.1555449  72.2872911
 121.8059893  26.0901011  72.4905786 120.7852433  26.9911716  71.8287443
 123.5017237  25.4721319  69.2476858 123.4230868  25.1381183  70.1412616
 124.3226903  25.9643087  69.2468330 126.1995428  18.3383059  82.4553177
 126.1671748  17.3999059  82.6412861 126.8096051  18.4167095  81.7219002
 118.0378759  17.2079112  68.4980381 118.9837863  17.0785320  68.5668799
 117.6593004  16.4693774  68.9749809 126.3489916  15.1294102  82.5011460
 125.8328965  14.3452559  82.3141389 127.2329865  14.8012819  82.6657979
 132.0171978  19.3999066  81.5959213 132.7475366  19.1384354  82.1566917
 131.4078923  18.6627788  81.6361281 130.0987275  17.5406928  82.1933665
 129.3720438  17.4062893  81.5850156 129.6834562  17.8483757  82.9990383
 117.9217451  21.2596858  89.9581038 118.8420461  21.4375457  90.1521084
 117.8867034  20.3152903  89.8060737 116.2221676  15.1329088  68.4335266
 115.3153131  14.8362201  68.5097980 116.4997657  14.8358906  67.5669552
 107.1399616  16.4535452  78.8834312 106.8202401  15.6000760  78.5908686
 106.5933044  16.6684030  79.6392280 110.9179524  19.1697893  82.6003819
 111.1365534  20.1015000  82.6191853 111.3305298  18.8105867  83.3858623
 117.8383742   9.6765978  74.5879507 117.0284470   9.3313063  74.9634753
 118.5268158   9.3673522  75.1767119 115.7907389  14.7431098  91.9906568
 115.6904116  15.6925455  91.9218659 115.5728931  14.4149337  91.1182638
 114.9920460  11.9916023  68.5747245 115.8539624  12.3170922  68.8343062
 115.1770805  11.2047519  68.0620311 107.0087876  20.0738363  80.8527434
 106.3151348  19.6592316  80.3397388 107.7560867  20.1158900  80.2560853
 115.6538659  18.1728237  90.8071629 115.1705741  18.9728597  91.0135518
 115.7399598  18.1836182  89.8539073 108.9224619  20.0056617  78.7293449
 108.8995307  20.1044304  77.7775332 109.2325255  20.8521768  79.0510615
 111.5811997  22.0632772  82.8440063 112.5355250  22.0316714  82.7769995
 111.3824520  21.6023396  83.6590289 112.1711379  20.6333888  85.4110861
 112.9904268  21.1277967  85.4345698 112.4448186  19.7165856  85.3828428
 121.9277975  13.0244640  74.7738816 121.0403830  13.3094291  74.5559011
 122.3431964  12.8638404  73.9266093 125.2792511  13.0491161  78.4893156
 126.0552901  13.5387614  78.7617772 124.5540645  13.4749215  78.9465025
 127.7165070  13.7618780  79.5467096 128.3109560  13.5214516  78.8360405
 127.7891653  13.0425911  80.1740633 109.9362225  27.6052391  79.8610261
 109.8016693  26.8452792  79.2948259 109.5194288  28.3293291  79.3939050
 121.0721188  22.7889315  68.8686836 121.7757039  22.9939317  69.4844492
 120.3483837  23.3566077  69.1335920 121.9018999  18.5399176  74.9889107
 121.8454200  18.9967728  74.1496739 122.4547341  17.7789861  74.8111949
 125.7123805  14.3288908  75.8139226 125.4560739  13.9285544  76.6447434
 125.0876673  15.0432702  75.6889365 130.0236142  17.0684981  78.3210517
 129.4635700  17.1378171  79.0942080 129.4179646  16.8925966  77.6010014
 113.0931351  28.5021708  80.0728704 112.9763735  29.4467141  79.9707394
 112.2723798  28.1995270  80.4614503 122.9807886  23.2271844  70.9185296
 123.8153490  22.7953043  70.7362771 122.8192229  23.0553858  71.8462191
 122.6353778  19.7303957  72.2841636 122.5802582  19.5648229  71.3430080
 122.0099833  20.4379990  72.4403825 107.4246293  14.9672022  86.1103058
 108.0705157  14.4570976  86.5990283 107.2163444  15.7040703  86.6846483
 119.9499685  22.0352869  91.6095199 120.8190845  22.2093521  91.2481833
 119.4706437  22.8547286  91.4870928 115.9449903   9.2312066  71.8626954
 115.9328573  10.1753906  72.0195225 116.8373325   9.0482212  71.5686415
 114.1185865  29.1549970  83.2884632 115.0213112  29.1873580  83.6051127
 113.8923235  28.2250421  83.3030968 115.8739467  27.9080957  79.9494711
 114.9235098  27.9082818  79.8359083 116.1771954  27.1613691  79.4330745
 111.7643784  12.1139639  90.2078072 112.6275246  11.7576444  90.4181397
 111.1909195  11.7753534  90.8953476 131.6092161  33.7441495  81.0140473
 132.2470571  33.6248243  80.3103813 131.4913004  34.6922339  81.0728425
 128.4181867  33.6968923  80.9501998 128.0800379  33.5809988  80.0622533
 129.2871635  33.2960088  80.9303004 124.2768683  35.5504400  76.9398889
 123.7133548  35.4594337  76.1715177 124.1621078  34.7304304  77.4201381
 128.9001650  34.8503775  86.9088203 128.8890291  34.4556573  86.0368707
 129.0622290  34.1169848  87.5021975 121.8233115  37.0455591  79.7783109
 122.6154407  36.7046416  79.3629409 122.0629765  37.1550566  80.6985263
 129.8568242  39.2175367  72.2513354 129.2056221  39.8029448  71.8647368
 130.6512604  39.7481562  72.3108391 123.7823869  36.3064505  72.6500488
 124.5554745  35.7593492  72.5113364 124.1349268  37.1708754  72.8614949
 125.6208911  37.6340887  85.8567387 125.3298777  38.5386518  85.7414054
 126.2565896  37.6757414  86.5711457 126.5465118  35.0117735  82.4468747
 127.1428690  34.7873758  81.7325710 126.6040090  34.2702481  83.0494195
 126.1190147  32.4657171  70.2818938 126.3715667  31.9438692  69.5202401
 125.1814706  32.3023316  70.3845622 131.1633429  31.4692949  78.0893681
 131.9496519  31.0512372  77.7384098 131.4272134  32.3739041  78.2575330
 131.3343507  36.9065799  72.7882338 130.6989340  36.9800426  73.5003243
 131.0040913  37.4959398  72.1101417 136.5641857  31.4068182  78.9926660
 137.2967028  30.8367399  79.2264489 135.8081212  31.0189783  79.4333165
 125.8386435  34.3685277  72.4843313 125.7222693  33.6930180  73.1524397
 125.9488695  33.8817651  71.6675466 128.1817976  33.8295424  76.1890002
 127.8176183  33.3026045  76.9002924 129.0385092  33.4393893  76.0156488
 134.0867277  25.1189756  83.4521268 133.7550602  25.9885167  83.2282483
 133.4912890  24.8026040  84.1315299 127.8223463  28.8585323  71.1851351
 127.9897866  29.7265560  71.5521822 127.6320632  29.0212605  70.2612640
 130.5798796  37.3202302  82.8517181 130.2799519  38.2227341  82.7432988
 130.2349856  37.0534486  83.7038334 124.0311278  33.7716099  78.8853886
 123.1061774  33.6392313  79.0931577 124.2795691  34.5510318  79.3823828
 133.9795940  29.8384842  80.5314618 133.0712818  29.7700251  80.2373379
 133.9283536  30.3156787  81.3596444 127.8012684  31.3142981  72.1698018
 127.6812309  31.7600032  73.0083498 127.1065272  31.6628299  71.6111556
 121.3920089  33.4149373  79.7197675 121.5212470  33.6683852  80.6337086
 120.7117540  34.0077081  79.4002330 125.5619576  44.0846623  75.8188149
 125.4843606  45.0354448  75.8976629 124.9581220  43.7392495  76.4763075
 128.0536806  31.2574488  88.4749516 127.2770140  31.8168408  88.4652380
 128.6927369  31.7431271  88.9964386 135.8457587  28.0401281  82.3092492
 135.2031967  28.3333814  81.6632287 135.3412515  27.9254201  83.1145689
 133.4997750  31.7864454  72.9978352 134.4115606  32.0191841  72.8226049
 132.9907397  32.3701498  72.4353430 126.3083178  34.0659941  88.0367483
 127.0497863  34.6044985  87.7602306 125.6020164  34.6926230  88.1939034
 131.7838518  36.2089082  86.6339644 132.1921874  35.7671492  85.8894277
 131.0615779  35.6341709  86.8873837 128.1369588  31.1461689  84.0073201
 128.9830783  31.5701102  84.1507850 128.0768226  30.4895313  84.7011764
 132.1067333  36.7690273  80.3891933 131.4776195  36.9335987  79.6868001
 131.7192995  37.1831882  81.1602897 135.9856564  37.7044710  77.7436297
 135.3007603  38.0843612  77.1933330 136.0700414  38.3140037  78.4768245
 131.2869033  28.8066057  85.6654375 131.0429965  29.5608118  85.1288650
 131.5628964  29.1851405  86.5001622 133.2407496  35.3504669  84.3431640
 133.4524391  35.9936429  83.6666021 133.1937244  34.5166986  83.8753570
 130.8433725  27.9622490  81.2468212 129.9818204  28.2603744  81.5384950
 130.8696160  28.1792889  80.3149245 127.6595294  36.5064681  77.6542018
 128.1233640  36.7852384  76.8646641 127.3952093  35.6048125  77.4715109
 124.5519375  36.0536162  80.5921781 125.1220733  36.4823431  79.9539266
 125.1427487  35.7718747  81.2905967 126.5964180  32.6287833  74.4631583
 127.2988224  33.0808877  74.9305510 126.2644809  31.9871652  75.0911476
 125.0444542  31.2199590  88.8382793 124.4143203  31.9015870  89.0718189
 124.9380630  31.1082671  87.8935931 120.3389514  30.8871386  79.7648717
 119.5488568  31.1428914  79.2888827 120.8300762  31.7019723  79.8700757
 134.3553324  38.2276625  82.5153998 135.1770768  37.8256812  82.2336679
 134.3515727  38.1244859  83.4670113 122.2904260  31.2515965  76.7232194
 121.4935423  31.3634659  77.2415689 122.0629852  31.5902617  75.8573084
 128.1209927  37.7760668  84.6714708 128.1854360  38.2381075  85.5072880
 127.4120851  37.1458033  84.7997018 118.6227217  31.1401876  82.1963708
 118.8735256  32.0248886  82.4621284 119.1586766  30.9606478  81.4238799
 142.4459317  34.5715373  78.8638969 141.6923025  34.0022771  78.7082974
 142.5806858  34.5378038  79.8109604 127.8357945  39.4428776  74.5393688
 127.7003620  40.2880311  74.9678536 128.3767758  39.6448053  73.7759622
 124.3225285  25.5220355  91.2008044 123.9292230  24.9686554  91.8755688
 125.1391425  25.8330934  91.5914561 121.2887342  36.9604214  75.1121614
 121.8011863  37.7547464  75.2627178 121.9410055  36.2630504  75.0455215
 123.0982227  40.0769970  77.1944367 123.2748856  40.9987935  77.0065351
 123.8939061  39.7628389  77.6238747 127.2393246  26.9378235  88.7928300
 127.9802959  27.5385388  88.7132763 127.4711169  26.1955872  88.2346343
 122.3834584  32.1234602  87.0706530 122.2688099  31.2219859  87.3713629
 121.5279101  32.3698299  86.7191347 129.4626421  40.0652342  88.6694031
 129.0190276  39.2788721  88.3514935 130.1243635  40.2531493  88.0037921
 124.2213543  41.5948144  83.1954709 124.7720968  41.4665207  82.4231703
 123.3825019  41.8943033  82.8449602 131.5607660  40.3455142  86.6975432
 131.5426135  41.1664023  86.2055701 132.4827580  40.2209217  86.9225573
 128.0180714  37.8599272  87.5398940 128.5509051  37.0987560  87.3098248
 127.4894795  37.5672923  88.2823095 131.1850409  22.9659337  83.0692582
 130.8414678  23.8560979  82.9931693 131.5529371  22.7760995  82.2062167
 119.2536259  35.2892868  75.8881184 120.0911481  35.6989876  75.6714892
 119.4314527  34.3492310  75.8581378 131.1500691  32.9567949  71.5765017
 130.6347315  33.7272553  71.8153404 130.8778000  32.2833085  72.1998079
 128.7347802  27.8017649  76.6350255 127.8789399  27.4124500  76.4555894
 129.1474754  27.8809610  75.7750041 130.2646949  25.3363993  81.0341815
 129.7611745  25.2994128  80.2209620 130.5577556  26.2456735  81.0938472
 126.5089835  25.4202722  80.0407997 127.3742832  25.2245531  79.6813886
 126.5767344  25.1913074  80.9677354 136.1234966  35.7100303  73.5118191
 135.3464408  35.3711463  73.0673353 136.8026446  35.7152926  72.8373156
 130.9386995  30.8295041  73.4024798 130.6337130  31.1441190  74.2534941
 131.8917437  30.9076461  73.4452131 129.3833426  36.9885264  75.0517752
 128.8554788  36.2538024  74.7390990 128.8820929  37.7659940  74.8057721
 134.3626272  35.1834284  80.1684799 133.7049947  35.8733546  80.2564927
 135.1666672  35.5730716  80.5118785 124.1152154  27.6504930  77.4124364
 124.6895906  27.4280112  76.6797557 124.7023136  27.7193625  78.1652965
 133.1731731  33.5378657  78.2188740 133.6863613  34.1708649  78.7210450
 133.8232955  32.9379853  77.8532100 124.4421741  29.6809391  71.4320249
 123.6059053  30.0184078  71.7529524 124.3026511  29.5458371  70.4947386
 126.4174822  24.5246179  76.1399433 125.7639234  24.2095196  75.5156048
 126.3755296  23.9021920  76.8659256 127.5286027  34.8065474  68.0552725
 126.6213088  34.5754728  68.2543874 128.0257059  34.0103094  68.2426707
 130.4354105  43.5162981  70.9749411 129.7615804  43.8194678  71.5834369
 130.8219927  44.3192062  70.6254868 129.6512562  31.0128113  80.4647081
 128.7335123  31.2343060  80.3068769 130.0672706  31.0874423  79.6058788
 130.4347610  32.4119528  75.5949761 131.1819429  32.9240926  75.2856883
 130.7039199  32.0903581  76.4554155 128.7074260  34.9078069  72.5776715
 127.7985479  34.6237102  72.6749185 128.7369344  35.3277148  71.7180022
 133.9393527  38.5184659  76.3467883 133.4855855  37.6775569  76.4033073
 133.3087494  39.1546057  76.6842663 132.8826447  29.4476645  77.5768550
 132.1449204  28.9354031  77.9078793 133.1353221  29.0077026  76.7651827
 132.3826467  40.3561155  77.2817701 132.6749441  40.9166212  76.5630067
 132.8925087  40.6489716  78.0370860 132.9838074  22.2252897  78.1710320
 133.2896951  21.3650260  77.8836235 133.7090679  22.8170517  77.9709314
 119.2762430  32.6283583  76.5591918 119.0786830  32.0352944  75.8342984
 118.7209094  32.3235793  77.2767856 127.2559154  32.5206690  78.6786511
 127.3107764  31.5680526  78.6028987 126.4450356  32.6766129  79.1627809
 128.4050348  36.4486813  69.9164794 127.9669778  35.7322672  69.4570431
 129.1460789  36.6762928  69.3549885 125.1951514  31.1383749  76.4376890
 124.3819380  31.4377920  76.8442082 125.6910508  30.7439438  77.1551372
 127.3460092  41.1341506  78.3711154 127.3036271  41.3602353  77.4419686
 128.2622791  40.9004881  78.5196955 130.7925726  31.6025574  85.2691783
 131.1475113  31.8297047  86.1286249 131.4397857  31.9343951  84.6469039
 136.5223463  34.7244010  75.9741112 136.3841361  34.9145606  75.0462302
 136.1659681  35.4863393  76.4309164 124.6865589  28.7102105  82.0538125
 125.3264968  28.5690864  81.3561088 123.8543119  28.4236618  81.6776727
 136.5492842  36.7920537  80.9852384 136.9829349  36.6995826  81.8335438
 137.2624423  36.7678037  80.3472400 125.4625893  38.0104535  78.1673117
 126.2566491  37.5154856  77.9655692 124.7517585  37.4822399  77.8040823
 130.2820737  40.3922631  82.5185485 130.3357759  40.9613567  83.2863201
 129.4135518  40.5624516  82.1539522 121.7708656  32.1547617  74.2432870
 120.8406244  32.0932073  74.4602832 121.8666128  31.6323570  73.4469511
 121.6894205  28.6802430  76.8311111 121.9501022  29.5947763  76.7220272
 122.5111377  28.2126873  76.9807724 123.1619130  30.0940187  84.0009936
 123.8342184  29.8857549  83.3522585 122.3348917  29.8962273  83.5615168
 137.4108392  36.8344237  83.5185269 137.6044282  37.7390048  83.7644544
 137.3109010  36.3751657  84.3523854 129.0644703  26.7202128  86.0175597
 128.4172618  27.4192078  85.9240073 129.8345718  27.1538272  86.3851845
 132.4723500  36.9850980  89.0926150 132.3209007  36.7561532  88.1756234
 132.4628180  37.9421582  89.1057495 129.2408837  34.5582893  84.0772416
 130.1700897  34.7094053  83.9041384 128.8199867  34.6466914  83.2221063
 128.0397169  38.5833557  81.8470954 127.9008254  38.2152342  82.7196892
 127.2511765  39.0981197  81.6754912 128.6345321  43.6842654  73.1896491
 128.8097076  43.2130697  74.0042113 127.9478109  44.3108420  73.4177751
 129.5902384  37.9615160  79.2359792 129.2552216  37.9215930  80.1317442
 129.0906329  37.2959876  78.7630202 123.5646628  33.3682790  84.7612373
 123.4266426  32.6363029  85.3623912 124.4751551  33.2791690  84.4796561
 132.5261575  35.3071194  69.5096852 131.9090746  34.5818023  69.4129904
 132.0578064  36.0680555  69.1663926 126.1928928  33.0802749  84.2496053
 126.9028547  32.4395942  84.2082671 126.1498237  33.3315644  85.1722233
 134.1815707  40.0170103  87.1702632 134.1228253  39.3329323  86.5033215
 134.5835225  40.7589093  86.7183258 124.9057862  30.0667967  86.0691692
 124.3695219  29.6158706  86.7213288 124.3174571  30.2013876  85.3262157
 123.2006406  46.8332017  79.9636351 123.4403004  47.4650541  80.6415369
 122.3575602  46.4820057  80.2501710 124.3160121  29.5256619  68.6318156
 123.4389588  29.4045420  68.2680402 124.7917874  28.7342697  68.3797044
 134.1833114  37.9809687  85.4016612 133.2959893  37.6435609  85.5243010
 134.7531665  37.2492718  85.6385377 115.8362261  34.3133778  78.7259663
 116.5233301  33.9995509  78.1380678 115.6810390  35.2175143  78.4526914
 120.6396984  29.2023975  83.1544687 120.5555172  28.5949645  82.4195097
 119.8179690  29.6932993  83.1554183 127.7134268  42.6411139  82.3677855
 127.6404439  43.4466111  82.8797159 127.2711661  42.8403105  81.5425876
 127.5024047  41.8782909  75.8780676 126.7191569  42.4204589  75.9718901
 128.2016793  42.3956889  76.2774917 130.8120697  27.6877539  78.5214882
 131.3089397  26.9347501  78.2015952 130.0407679  27.7241855  77.9558091
 138.6650455  33.3917904  80.1633173 138.6540331  34.2742620  79.7927106
 137.7967834  33.0389455  79.9687710 130.1732951  42.5397973  84.5236013
 130.8860923  43.1745438  84.4511915 129.6822980  42.6361839  83.7076015
 131.8950478  36.4449226  76.0953305 130.9606757  36.5650688  75.9258009
 132.0727147  35.5421693  75.8313315 127.3955666  29.8294922  78.2486566
 127.0253454  29.2765962  78.9367472 127.8914759  29.2253055  77.6961566
 135.2823030  32.2866545  76.6303339 135.7483482  33.1194537  76.5563642
 135.7330530  31.8211527  77.3348598 125.2244865  40.2892417  85.3441584
 125.9254324  40.9228900  85.4970978 124.7539980  40.6307148  84.5837224
 133.3499261  38.6310366  73.6289491 133.6259105  38.5166961  74.5383365
 132.4803759  38.2327851  73.5901664 133.2539692  24.6547132  80.6694241
 132.3402772  24.8851359  80.8376448 133.6832794  24.7385576  81.5208273
 133.0246151  32.8437024  83.1694135 132.3717601  33.0912931  82.5146587
 133.4026531  32.0301162  82.8356612 129.9853325  42.8796717  77.2722305
 130.1675719  42.0618373  77.7350057 130.8086311  43.0964409  76.8347195
 130.3195490  41.8064902  74.5337353 130.8483257  41.2957357  73.9207515
 130.5823710  41.4907433  75.3982886 129.0733724  33.5856835  89.6560172
 128.3974361  33.4850964  90.3262547 129.8961358  33.4296049  90.1196169
 120.8212583  39.8228772  82.2772687 121.4066020  39.0772460  82.4100591
 120.6237421  40.1332728  83.1609351 123.6751238  42.8580019  77.2935129
 123.0061613  43.3426147  76.8099169 123.5364108  43.1049239  78.2078508
 115.4130238  32.3934372  80.9977130 115.4514337  31.8597963  81.7914248
 114.9070530  31.8669577  80.3788107 127.8156507  44.8923763  83.8917788
 128.3674815  45.0555384  84.6566873 128.1562700  45.4828200  83.2197813
 122.7921000  27.2398912  84.4939672 122.8562326  28.1013743  84.0817070
 122.7288120  26.6272914  83.7612031 122.2673272  29.3122045  88.1412707
 122.8945311  28.9299122  88.7550231 121.4101191  29.0936247  88.5068399
 132.6667381  39.7185020  89.7466442 133.2107285  40.3314978  89.2521397
 132.0854226  40.2764598  90.2633455 119.0438815  31.1198474  74.0731061
 119.3392256  30.2109152  74.0198115 118.1426851  31.0986213  73.7512064
 130.9524894  42.8405738  80.8781470 130.8276033  42.0395478  80.3692415
 131.6103985  43.3351931  80.3895440 122.5733062  29.1954471  80.0558610
 121.8519648  29.8090438  79.9166083 123.3626318  29.7312235  79.9775256
 133.0159802  40.6414758  82.5061020 132.0690138  40.5220109  82.4339347
 133.3642575  39.7537256  82.5887281 125.3759376  26.5308897  86.3299262
 125.8993778  26.7771194  87.0925571 125.1571709  27.3628932  85.9102399
 120.7726657  28.8012572  74.1970387 120.4439363  27.9209951  74.0145493
 121.1266027  28.7460240  75.0846776 130.0206236  40.4367474  78.7065372
 129.8731198  39.5084182  78.8872942 130.8459729  40.4587565  78.2222447
 123.8868480  29.0885541  74.5645864 124.2264552  29.6171463  73.8424473
 124.3340600  29.4265948  75.3404431 133.6240357  41.2596033  79.7930245
 134.5486905  41.0538894  79.6554696 133.4555661  41.0112434  80.7019586
 126.5811921  27.4722592  84.0148932 126.2408741  26.6730405  84.4169612
 125.8750927  27.7724303  83.4425766 127.2328393  24.5571905  82.4676255
 128.0554462  24.0832383  82.3455146 127.4766456  25.3362388  82.9674942
 125.8736627  27.5860163  72.7639157 126.5944990  27.9641416  72.2602874
 125.2501931  28.3049040  72.8674135 130.0167750  28.2905312  73.6997489
 130.2331364  29.1729950  73.3986318 129.5361817  27.8991525  72.9703131
 124.7566971  31.2491025  80.2768234 124.6111552  31.5631328  81.1692515
 124.2792175  31.8675926  79.7239133 126.6163354  28.2393573  80.3249124
 126.6024923  27.3434667  79.9881421 127.3335782  28.2464237  80.9587410
 128.4689485  28.6730913  82.3702251 128.2107263  29.5947984  82.3686581
 127.9374525  28.2761348  83.0602715 133.4135674  41.7781701  75.1492336
 133.5872551  41.2128123  74.3966189 133.9064565  42.5782595  74.9671826
 119.2312633  33.7896370  83.2155895 118.6866102  34.5656178  83.3476169
 120.1091983  34.1367174  83.0575017 126.0200250  27.1207954  75.5936694
 126.1416161  26.1924600  75.7927581 125.7302293  27.1346639  74.6815009
 128.8891441  24.8062864  78.7303414 128.9113137  24.8702197  77.7755393
 129.3059500  23.9667373  78.9243920 139.2675065  34.5418123  76.7682636
 139.7106211  33.7925449  76.3701759 138.3901575  34.5328260  76.3856368
 134.4010846  41.0948465  72.2489235 135.0961751  41.7155158  72.4676549
 134.7433996  40.2443816  72.5241613 120.0178655  32.9166266  86.1086052
 119.2760391  33.0648901  86.6950682 119.6971400  33.1774532  85.2452801
 136.3002269  38.5448170  73.7776565 136.8253593  38.8835443  73.0525885
 136.2124622  37.6095186  73.5939700 127.9622318  42.4582244  85.9066442
 128.2709444  42.2131391  86.7789142 128.7597800  42.6628883  85.4185312
 127.9842930  44.6120154  78.1371819 127.5447920  44.1196532  78.8304675
 128.7351047  44.0693121  77.8963894 120.4635269  40.8031695  78.1396447
 121.2893289  40.5035466  77.7595090 120.1129321  40.0339317  78.5886235
 125.4316802  40.1558163  80.2094120 124.8096811  39.4928868  79.9096348
 126.1021669  40.1819295  79.5267768 118.6643874  38.7218021  79.0985380
 117.8275782  38.2940195  78.9169382 118.6367520  38.9150464  80.0356171
 125.5041330  28.6339951  89.8026626 125.5529485  29.5102074  89.4204396
 126.0463844  28.0917344  89.2298270 135.9896175  39.1781074  89.0827763
 135.1991719  39.1605213  88.5432263 135.7529530  39.7169368  89.8376800
 136.1094050  36.0273540  86.3960492 136.1592055  35.8623548  87.3376015
 136.0007974  35.1600800  86.0058373 124.9930309  38.7062086  73.6852581
 125.1418429  39.3897551  73.0319254 125.7996753  38.6867176  74.2002037
 133.3997813  32.0104469  87.7119799 134.3007676  31.8710933  87.4203796
 133.4745787  32.1758923  88.6517976 127.7340618  29.3871323  86.5572985
 126.8643928  29.6804889  86.2855573 127.9700099  29.9711768  87.2780249
 137.6112247  38.4470482  86.6402513 137.3197056  38.8100463  87.4765974
 136.9984379  37.7337490  86.4615846 138.8107930  36.0123362  79.1605084
 139.6454821  36.4513166  79.3242644 138.9467058  35.5362015  78.3413329
 135.8599435  33.5703097  85.1082571 136.3353557  33.7630743  84.3001423
 134.9365001  33.6262282  84.8625955 122.7482942  34.7327264  74.6913650
 122.5028984  33.8289594  74.8893860 122.9178857  34.7344414  73.7493128
 130.4379652  25.6050940  84.0738405 130.9561596  26.3411967  83.7484894
 130.0834785  25.9114933  84.9085164 122.0178590  30.4655621  72.1899811
 121.3247835  30.5399976  71.5339847 121.7730342  29.7015965  72.7121328
 130.6892246  22.0251223  79.5939302 130.9694000  21.3574412  80.2199728
 131.4742853  22.2180318  79.0813966 128.4925715  41.2010217  71.1564328
 127.9199682  41.8200404  70.7034800 129.0658508  41.7509578  71.6904250
 134.5601104  30.4468857  83.3410877 135.5118527  30.5466954  83.3623101
 134.3904555  29.6547125  83.8508961 132.5815484  27.5324440  83.5270278
 131.9865416  27.8129453  82.8316767 132.2965181  28.0218341  84.2987019
 131.7122974  41.4847367  72.2872911 132.6453648  41.4192928  72.4905786
 131.6246187  42.3203634  71.8287443 134.3410991  40.8013237  69.2476858
 134.2624623  40.4673101  70.1412616 135.1620658  41.2935005  69.2468330
 137.0389182  33.6674976  82.4553177 137.0065502  32.7290977  82.6412861
 137.6489806  33.7459013  81.7219002 128.8772513  32.5371029  68.4980381
 129.8231618  32.4077237  68.5668799 128.4986758  31.7985691  68.9749809
 137.1883671  30.4586020  82.5011460 136.6722719  29.6744476  82.3141389
 138.0723619  30.1304736  82.6657979 134.8494398  24.2027035  78.4607273
 134.6519219  23.8942124  79.3450605 135.4594103  24.9288674  78.5905202
 142.8565732  34.7290983  81.5959213 143.5869121  34.4676271  82.1566917
 142.2472678  33.9919705  81.6361281 140.9381029  32.8698846  82.1933665
 140.2114193  32.7354811  81.5850156 140.5228316  33.1775674  82.9990383
 128.7611206  36.5888776  89.9581038 129.6814215  36.7667375  90.1521084
 128.7260789  35.6444821  89.8060737 127.0615430  30.4621006  68.4335266
 126.1546886  30.1654118  68.5097980 127.3391411  30.1650824  67.5669552
 117.9793371  31.7827369  78.8834312 117.6596155  30.9292677  78.5908686
 117.4326799  31.9975947  79.6392280 121.7573278  34.4989810  82.6003819
 121.9759288  35.4306918  82.6191853 122.1699052  34.1397785  83.3858623
 128.6777496  25.0057895  74.5879507 127.8678224  24.6604980  74.9634753
 129.3661913  24.6965439  75.1767119 130.6068044  24.0835942  76.2103804
 131.1599083  24.5031396  76.8693827 130.8438131  23.1571690  76.2526760
 126.6301144  30.0723016  91.9906568 126.5297870  31.0217373  91.9218659
 126.4122686  29.7441255  91.1182638 125.8314215  27.3207941  68.5747245
 126.6933379  27.6462839  68.8343062 126.0164559  26.5339437  68.0620311
 117.8481631  35.4030281  80.8527434 117.1545102  34.9884233  80.3397388
 118.5954622  35.4450817  80.2560853 133.9846851  26.1936467  75.7182468
 133.4045520  26.8521271  75.3360521 133.7182784  25.3713812  75.3069886
 132.4350418  25.5941525  77.9203788 132.9350196  25.7058060  77.1118107
 133.0786026  25.2902578  78.5604597 126.4932414  33.5020155  90.8071629
 126.0099495  34.3020515  91.0135518 126.5793353  33.5128100  89.8539073
 119.7618373  35.3348534  78.7293449 119.7389061  35.4336222  77.7775332
 120.0719010  36.1813685  79.0510615 122.4205751  37.3924689  82.8440063
 123.3749005  37.3608632  82.7769995 122.2218275  36.9315313  83.6590289
 123.0105133  35.9625806  85.4110861 123.8298022  36.4569884  85.4345698
 123.2841941  35.0457774  85.3828428 132.7671729  28.3536558  74.7738816
 131.8797584  28.6386208  74.5559011 133.1825718  28.1930321  73.9266093
 136.1186266  28.3783079  78.4893156 136.8946656  28.8679531  78.7617772
 135.3934400  28.8041133  78.9465025 138.5558824  29.0910698  79.5467096
 139.1503315  28.8506434  78.8360405 138.6285408  28.3717829  80.1740633
 120.7755980  42.9344309  79.8610261 120.6410448  42.1744710  79.2948259
 120.3588042  43.6585209  79.3939050 131.9114943  38.1181233  68.8686836
 132.6150793  38.3231235  69.4844492 131.1877592  38.6857994  69.1335920
 132.7412753  33.8691094  74.9889107 132.6847955  34.3259645  74.1496739
 133.2941096  33.1081778  74.8111949 136.5517559  29.6580826  75.8139226
 136.2954493  29.2577461  76.6447434 135.9270427  30.3724620  75.6889365
 140.8629897  32.3976899  78.3210517 140.3029455  32.4670088  79.0942080
 140.2573400  32.2217884  77.6010014 123.9325106  43.8313626  80.0728704
 123.8157490  44.7759058  79.9707394 123.1117552  43.5287188  80.4614503
 133.8201640  38.5563762  70.9185296 134.6547244  38.1244960  70.7362771
 133.6585983  38.3845775  71.8462191 133.4747532  35.0595875  72.2841636
 133.4196336  34.8940146  71.3430080 132.8493588  35.7671908  72.4403825
 118.2640047  30.2963939  86.1103058 118.9098911  29.7862893  86.5990283
 118.0557199  31.0332621  86.6846483 130.7893440  37.3644787  91.6095199
 131.6584599  37.5385439  91.2481833 130.3100191  38.1839204  91.4870928
 126.7843658  24.5603984  71.8626954 126.7722328  25.5045824  72.0195225
 127.6767080  24.3774129  71.5686415 124.9579620  44.4841888  83.2884632
 125.8606867  44.5165498  83.6051127 124.7316990  43.5542339  83.3030968
 126.7133222  43.2372874  79.9494711 125.7628853  43.2374736  79.8359083
 127.0165708  42.4905609  79.4330745 130.5995777  21.1546761  76.1172891
 129.8328173  20.6005247  76.2629573 131.0106482  21.2268629  76.9787043
 122.6037538  27.4431556  90.2078072 123.4669000  27.0868361  90.4181397
 122.0302949  27.1045451  90.8953476 142.4485915  49.0733413  81.0140473
 143.0864325  48.9540160  80.3103813 142.3306758  50.0214257  81.0728425
 139.2575622  49.0260841  80.9501998 138.9194133  48.9101906  80.0622533
 140.1265390  48.6252006  80.9303004 135.1162437  50.8796317  76.9398889
 134.5527302  50.7886254  76.1715177 135.0014832  50.0596222  77.4201381
 139.7395405  50.1795693  86.9088203 139.7284045  49.7848491  86.0368707
 139.9016044  49.4461765  87.5021975 132.6626869  52.3747509  79.7783109
 133.4548161  52.0338334  79.3629409 132.9023519  52.4842484  80.6985263
 140.6961996  54.5467285  72.2513354 140.0449976  55.1321365  71.8647368
 141.4906359  55.0773480  72.3108391 134.6217623  51.6356422  72.6500488
 135.3948499  51.0885409  72.5113364 134.9743022  52.5000672  72.8614949
 136.4602666  52.9632804  85.8567387 136.1692532  53.8678435  85.7414054
 137.0959650  53.0049332  86.5711457 137.3858873  50.3409653  82.4468747
 137.9822445  50.1165675  81.7325710 137.4433844  49.5994398  83.0494195
 136.9583901  47.7949088  70.2818938 137.2109422  47.2730610  69.5202401
 136.0208460  47.6315234  70.3845622 142.0027184  46.7984867  78.0893681
 142.7890273  46.3804290  77.7384098 142.2665888  47.7030959  78.2575330
 142.1737261  52.2357717  72.7882338 141.5383094  52.3092343  73.5003243
 141.8434668  52.8251316  72.1101417 147.4035611  46.7360100  78.9926660
 148.1360783  46.1659317  79.2264489 146.6474967  46.3481700  79.4333165
 136.6780190  49.6977194  72.4843313 136.5616448  49.0222098  73.1524397
 136.7882450  49.2109568  71.6675466 139.0211731  49.1587341  76.1890002
 138.6569938  48.6317962  76.9002924 139.8778847  48.7685810  76.0156488
 144.9261031  40.4481674  83.4521268 144.5944356  41.3177085  83.2282483
 144.3306645  40.1317958  84.1315299 138.6617218  44.1877241  71.1851351
 138.8291620  45.0557477  71.5521822 138.4714387  44.3504523  70.2612640
 141.4192551  52.6494220  82.8517181 141.1193274  53.5519259  82.7432988
 141.0743610  52.3826403  83.7038334 134.8705032  49.1008017  78.8853886
 133.9455529  48.9684231  79.0931577 135.1189446  49.8802236  79.3823828
 144.8189695  45.1676760  80.5314618 143.9106572  45.0992169  80.2373379
 144.7677290  45.6448705  81.3596444 138.6406439  46.6434899  72.1698018
 138.5206064  47.0891949  73.0083498 137.9459027  46.9920216  71.6111556
 132.2313843  48.7441290  79.7197675 132.3606225  48.9975769  80.6337086
 131.5511295  49.3368998  79.4002330 136.4013331  59.4138540  75.8188149
 136.3237360  60.3646365  75.8976629 135.7974974  59.0684413  76.4763075
 138.8930560  46.5866406  88.4749516 138.1163895  47.1460326  88.4652380
 139.5321124  47.0723189  88.9964386 146.6851341  43.3693199  82.3092492
 146.0425721  43.6625732  81.6632287 146.1806270  43.2546119  83.1145689
 144.3391505  47.1156372  72.9978352 145.2509361  47.3483758  72.8226049
 143.8301152  47.6993416  72.4353430 137.1476933  49.3951859  88.0367483
 137.8891617  49.9336903  87.7602306 136.4413918  50.0218148  88.1939034
 142.6232272  51.5381000  86.6339644 143.0315628  51.0963410  85.8894277
 141.9009534  50.9633627  86.8873837 138.9763342  46.4753606  84.0073201
 139.8224538  46.8993020  84.1507850 138.9161980  45.8187231  84.7011764
 142.9461087  52.0982190  80.3891933 142.3169949  52.2627904  79.6868001
 142.5586749  52.5123800  81.1602897 146.8250319  53.0336628  77.7436297
 146.1401357  53.4135529  77.1933330 146.9094168  53.6431955  78.4768245
 142.1262788  44.1357975  85.6654375 141.8823720  44.8900035  85.1288650
 142.4022718  44.5143322  86.5001622 144.0801251  50.6796587  84.3431640
 144.2918146  51.3228347  83.6666021 144.0330999  49.8458904  83.8753570
 141.6827479  43.2914408  81.2468212 140.8211959  43.5895661  81.5384950
 141.7089914  43.5084807  80.3149245 138.4989049  51.8356598  77.6542018
 138.9627394  52.1144301  76.8646641 138.2345847  50.9340043  77.4715109
 135.3913130  51.3828080  80.5921781 135.9614487  51.8115348  79.9539266
 135.9821242  51.1010665  81.2905967 137.4357935  47.9579751  74.4631583
 138.1381978  48.4100794  74.9305510 137.1038563  47.3163570  75.0911476
 135.8838296  46.5491507  88.8382793 135.2536957  47.2307788  89.0718189
 135.7774384  46.4374589  87.8935931 131.1783269  46.2163303  79.7648717
 130.3882323  46.4720832  79.2888827 131.6694516  47.0311641  79.8700757
 145.1947078  53.5568542  82.5153998 146.0164522  53.1548730  82.2336679
 145.1909481  53.4536777  83.4670113 133.1298014  46.5807883  76.7232194
 132.3329178  46.6926577  77.2415689 132.9023607  46.9194535  75.8573084
 138.9603682  53.1052586  84.6714708 139.0248114  53.5672993  85.5072880
 138.2514606  52.4749951  84.7997018 129.4620972  46.4693794  82.1963708
 129.7129010  47.3540804  82.4621284 129.9980520  46.2898395  81.4238799
 153.2853072  49.9007291  78.8638969 152.5316780  49.3314689  78.7082974
 153.4200613  49.8669955  79.8109604 138.6751700  54.7720693  74.5393688
 138.5397374  55.6172229  74.9678536 139.2161512  54.9739971  73.7759622
 135.1619039  40.8512273  91.2008044 134.7685985  40.2978472  91.8755688
 135.9785180  41.1622852  91.5914561 132.1281097  52.2896131  75.1121614
 132.6405618  53.0839382  75.2627178 132.7803810  51.5922422  75.0455215
 133.9375982  55.4061888  77.1944367 134.1142610  56.3279852  77.0065351
 134.7332815  55.0920307  77.6238747 138.0787000  42.2670152  88.7928300
 138.8196714  42.8677305  88.7132763 138.3104923  41.5247790  88.2346343
 133.2228338  47.4526519  87.0706530 133.1081853  46.5511777  87.3713629
 132.3672856  47.6990216  86.7191347 140.3020176  55.3944260  88.6694031
 139.8584030  54.6080638  88.3514935 140.9637390  55.5823410  88.0037921
 135.0607297  56.9240061  83.1954709 135.6114722  56.7957125  82.4231703
 134.2218773  57.2234950  82.8449602 142.4001414  55.6747060  86.6975432
 142.3819889  56.4955941  86.2055701 143.3221334  55.5501135  86.9225573
 138.8574468  53.1891189  87.5398940 139.3902805  52.4279477  87.3098248
 138.3288549  52.8964841  88.2823095 142.0244163  38.2951255  83.0692582
 141.6808433  39.1852897  82.9931693 142.3923126  38.1052913  82.2062167
 130.0930014  50.6184786  75.8881184 130.9305236  51.0281794  75.6714892
 130.2708281  49.6784228  75.8581378 141.9894446  48.2859866  71.5765017
 141.4741069  49.0564471  71.8153404 141.7171754  47.6125002  72.1998079
 139.5741557  43.1309567  76.6350255 138.7183153  42.7416417  76.4555894
 139.9868509  43.2101528  75.7750041 141.1040704  40.6655910  81.0341815
 140.6005499  40.6286045  80.2209620 141.3971310  41.5748653  81.0938472
 137.3483589  40.7494640  80.0407997 138.2136586  40.5537449  79.6813886
 137.4161098  40.5204992  80.9677354 146.9628720  51.0392221  73.5118191
 146.1858163  50.7003380  73.0673353 147.6420201  51.0444844  72.8373156
 141.7780749  46.1586958  73.4024798 141.4730885  46.4733108  74.2534941
 142.7311191  46.2368378  73.4452131 140.2227181  52.3177182  75.0517752
 139.6948542  51.5829941  74.7390990 139.7214684  53.0951858  74.8057721
 145.2020027  50.5126202  80.1684799 144.5443701  51.2025464  80.2564927
 146.0060426  50.9022634  80.5118785 134.9545909  42.9796848  77.4124364
 135.5289660  42.7572029  76.6797557 135.5416891  43.0485542  78.1652965
 144.0125486  48.8670575  78.2188740 144.5257367  49.5000567  78.7210450
 144.6626710  48.2671770  77.8532100 135.2815496  45.0101309  71.4320249
 134.4452808  45.3475996  71.7529524 135.1420265  44.8750289  70.4947386
 137.2568576  39.8538097  76.1399433 136.6032989  39.5387114  75.5156048
 137.2149050  39.2313837  76.8659256 138.3679781  50.1357392  68.0552725
 137.4606843  49.9046645  68.2543874 138.8650813  49.3395011  68.2426707
 141.2747860  58.8454899  70.9749411 140.6009559  59.1486596  71.5834369
 141.6613682  59.6483979  70.6254868 140.4906317  46.3420030  80.4647081
 139.5728878  46.5634977  80.3068769 140.9066460  46.4166341  79.6058788
 141.2741364  47.7411446  75.5949761 142.0213183  48.2532843  75.2856883
 141.5432954  47.4195499  76.4554155 139.5468015  50.2369987  72.5776715
 138.6379234  49.9529020  72.6749185 139.5763098  50.6569065  71.7180022
 144.7787282  53.8476576  76.3467883 144.3249609  53.0067486  76.4033073
 144.1481249  54.4837975  76.6842663 143.7220201  44.7768562  77.5768550
 142.9842958  44.2645949  77.9078793 143.9746975  44.3368944  76.7651827
 143.2220221  55.6853073  77.2817701 143.5143196  56.2458130  76.5630067
 143.7318842  55.9781634  78.0370860 143.8231829  37.5544814  78.1710320
 144.1290706  36.6942178  77.8836235 144.5484434  38.1462435  77.9709314
 130.1156185  47.9575501  76.5591918 129.9180585  47.3644862  75.8342984
 129.5602849  47.6527711  77.2767856 138.0952909  47.8498607  78.6786511
 138.1501518  46.8972444  78.6028987 137.2844111  48.0058047  79.1627809
 139.2444102  51.7778730  69.9164794 138.8063532  51.0614589  69.4570431
 139.9854543  52.0054845  69.3549885 136.0345268  46.4675667  76.4376890
 135.2213134  46.7669838  76.8442082 136.5304263  46.0731356  77.1551372
 138.1853846  56.4633424  78.3711154 138.1430025  56.6894270  77.4419686
 139.1016545  56.2296799  78.5196955 141.6319480  46.9317492  85.2691783
 141.9868868  47.1588965  86.1286249 142.2791611  47.2635868  84.6469039
 147.3617217  50.0535928  75.9741112 147.2235116  50.2437523  75.0462302
 147.0053436  50.8155310  76.4309164 135.5259343  44.0394023  82.0538125
 136.1658723  43.8982782  81.3561088 134.6936874  43.7528536  81.6776727
 147.3886597  52.1212455  80.9852384 147.8223103  52.0287744  81.8335438
 148.1018177  52.0969955  80.3472400 136.3019647  53.3396453  78.1673117
 137.0960246  52.8446773  77.9655692 135.5911340  52.8114316  77.8040823
 141.1214492  55.7214549  82.5185485 141.1751514  56.2905485  83.2863201
 140.2529273  55.8916434  82.1539522 132.6102411  47.4839535  74.2432870
 131.6799999  47.4223990  74.4602832 132.7059883  46.9615488  73.4469511
 132.5287960  44.0094348  76.8311111 132.7894777  44.9239681  76.7220272
 133.3505132  43.5418790  76.9807724 134.0012885  45.4232105  84.0009936
 134.6735938  45.2149467  83.3522585 133.1742672  45.2254191  83.5615168
 148.2502146  52.1636155  83.5185269 148.4438036  53.0681966  83.7644544
 148.1502764  51.7043574  84.3523854 139.9038457  42.0494046  86.0175597
 139.2566372  42.7483995  85.9240073 140.6739472  42.4830190  86.3851845
 143.3117255  52.3142898  89.0926150 143.1602761  52.0853450  88.1756234
 143.3021934  53.2713499  89.1057495 140.0802591  49.8874811  84.0772416
 141.0094651  50.0385970  83.9041384 139.6593621  49.9758831  83.2221063
 138.8790923  53.9125475  81.8470954 138.7402009  53.5444259  82.7196892
 138.0905519  54.4273115  81.6754912 139.4739075  59.0134572  73.1896491
 139.6490831  58.5422615  74.0042113 138.7871863  59.6400338  73.4177751
 140.4296138  53.2907078  79.2359792 140.0945971  53.2507848  80.1317442
 139.9300084  52.6251794  78.7630202 134.4040382  48.6974708  84.7612373
 134.2660180  47.9654947  85.3623912 135.3145306  48.6083608  84.4796561
 143.3655330  50.6363112  69.5096852 142.7484501  49.9109940  69.4129904
 142.8971818  51.3972472  69.1663926 137.0322683  48.4094667  84.2496053
 137.7422301  47.7687859  84.2082671 136.9891991  48.6607562  85.1722233
 145.0209462  55.3462020  87.1702632 144.9622008  54.6621241  86.5033215
 145.4228980  56.0881010  86.7183258 135.7451617  45.3959885  86.0691692
 135.2088974  44.9450623  86.7213288 135.1568325  45.5305794  85.3262157
 134.0400160  62.1623934  79.9636351 134.2796759  62.7942458  80.6415369
 133.1969357  61.8111974  80.2501710 135.1553876  44.8548536  68.6318156
 134.2783342  44.7337337  68.2680402 135.6311629  44.0634615  68.3797044
 145.0226869  53.3101604  85.4016612 144.1353648  52.9727526  85.5243010
 145.5925420  52.5784636  85.6385377 126.6756016  49.6425696  78.7259663
 127.3627056  49.3287426  78.1380678 126.5204145  50.5467061  78.4526914
 131.4790738  44.5315893  83.1544687 131.3948927  43.9241562  82.4195097
 130.6573445  45.0224911  83.1554183 138.5528022  57.9703057  82.3677855
 138.4798194  58.7758028  82.8797159 138.1105415  58.1695023  81.5425876
 138.3417802  57.2074827  75.8780676 137.5585324  57.7496507  75.9718901
 139.0410547  57.7248806  76.2774917 141.6514452  43.0169456  78.5214882
 142.1483152  42.2639419  78.2015952 140.8801433  43.0533773  77.9558091
 149.5044209  48.7209822  80.1633173 149.4934086  49.6034537  79.7927106
 148.6361589  48.3681373  79.9687710 141.0126706  57.8689891  84.5236013
 141.7254678  58.5037356  84.4511915 140.5216734  57.9653757  83.7076015
 142.7344233  51.7741143  76.0953305 141.8000511  51.8942606  75.9258009
 142.9120901  50.8713610  75.8313315 138.2349421  45.1586839  78.2486566
 137.8647208  44.6057880  78.9367472 138.7308513  44.5544973  77.6961566
 146.1216784  47.6158463  76.6303339 146.5877236  48.4486454  76.5563642
 146.5724285  47.1503444  77.3348598 136.0638619  55.6184334  85.3441584
 136.7648079  56.2520817  85.4970978 135.5933734  55.9599066  84.5837224
 144.1893015  53.9602284  73.6289491 144.4652859  53.8458879  74.5383365
 143.3197514  53.5619769  73.5901664 144.0933447  39.9839050  80.6694241
 143.1796527  40.2143277  80.8376448 144.5226548  40.0677494  81.5208273
 143.8639905  48.1728942  83.1694135 143.2111356  48.4204849  82.5146587
 144.2420285  47.3593080  82.8356612 140.8247079  58.2088635  77.2722305
 141.0069474  57.3910291  77.7350057 141.6480065  58.4256327  76.8347195
 141.1589245  57.1356820  74.5337353 141.6877011  56.6249275  73.9207515
 141.4217464  56.8199350  75.3982886 139.9127478  48.9148753  89.6560172
 139.2368115  48.8142882  90.3262547 140.7355112  48.7587967  90.1196169
 131.6606337  55.1520689  82.2772687 132.2459774  54.4064377  82.4100591
 131.4631176  55.4624646  83.1609351 134.5144993  58.1871937  77.2935129
 133.8455368  58.6718064  76.8099169 134.3757862  58.4341157  78.2078508
 126.2523992  47.7226290  80.9977130 126.2908092  47.1889880  81.7914248
 125.7464285  47.1961495  80.3788107 138.6550261  60.2215680  83.8917788
 139.2068569  60.3847302  84.6566873 138.9956455  60.8120118  83.2197813
 133.6314754  42.5690830  84.4939672 133.6956081  43.4305661  84.0817070
 133.5681875  41.9564832  83.7612031 133.1067027  44.6413963  88.1412707
 133.7339066  44.2591040  88.7550231 132.2494946  44.4228164  88.5068399
 143.5061136  55.0476938  89.7466442 144.0501039  55.6606896  89.2521397
 142.9247980  55.6056516  90.2633455 129.8832570  46.4490392  74.0731061
 130.1786011  45.5401070  74.0198115 128.9820605  46.4278131  73.7512064
 141.7918648  58.1697656  80.8781470 141.6669788  57.3687396  80.3692415
 142.4497740  58.6643849  80.3895440 133.4126817  44.5246388  80.0558610
 132.6913402  45.1382356  79.9166083 134.2020072  45.0604153  79.9775256
 143.8553557  55.9706676  82.5061020 142.9083892  55.8512027  82.4339347
 144.2036330  55.0829174  82.5887281 136.2153130  41.8600815  86.3299262
 136.7387532  42.1063111  87.0925571 135.9965463  42.6920850  85.9102399
 131.6120411  44.1304489  74.1970387 131.2833117  43.2501868  74.0145493
 131.9659782  44.0752158  75.0846776 140.8599990  55.7659392  78.7065372
 140.7124953  54.8376099  78.8872942 141.6853484  55.7879483  78.2222447
 134.7262234  44.4177459  74.5645864 135.0658307  44.9463380  73.8424473
 135.1734355  44.7557865  75.3404431 144.4634112  56.5887951  79.7930245
 145.3880659  56.3830812  79.6554696 144.2949415  56.3404352  80.7019586
 137.4205675  42.8014510  84.0148932 137.0802496  42.0022323  84.4169612
 136.7144682  43.1016221  83.4425766 138.0722147  39.8863822  82.4676255
 138.8948216  39.4124300  82.3455146 138.3160211  40.6654306  82.9674942
 136.7130382  42.9152081  72.7639157 137.4338744  43.2933334  72.2602874
 136.0895686  43.6340958  72.8674135 140.8561504  43.6197230  73.6997489
 141.0725119  44.5021868  73.3986318 140.3755572  43.2283443  72.9703131
 135.5960726  46.5782943  80.2768234 135.4505307  46.8923246  81.1692515
 135.1185929  47.1967843  79.7239133 137.4557109  43.5685491  80.3249124
 137.4418677  42.6726584  79.9881421 138.1729537  43.5756155  80.9587410
 139.3083239  44.0022831  82.3702251 139.0501017  44.9239902  82.3686581
 138.7768280  43.6053266  83.0602715 144.2529428  57.1073618  75.1492336
 144.4266306  56.5420041  74.3966189 144.7458319  57.9074513  74.9671826
 130.0706388  49.1188287  83.2155895 129.5259856  49.8948095  83.3476169
 130.9485738  49.4659092  83.0575017 136.8594005  42.4499871  75.5936694
 136.9809916  41.5216517  75.7927581 136.5696047  42.4638557  74.6815009
 139.7285195  40.1354782  78.7303414 139.7506892  40.1994115  77.7755393
 140.1453254  39.2959290  78.9243920 150.1068819  49.8710041  76.7682636
 150.5499965  49.1217366  76.3701759 149.2295330  49.8620178  76.3856368
 145.2404601  56.4240383  72.2489235 145.9355505  57.0447075  72.4676549
 145.5827751  55.5735734  72.5241613 130.8572410  48.2458184  86.1086052
 130.1154146  48.3940819  86.6950682 130.5365154  48.5066449  85.2452801
 147.1396024  53.8740088  73.7776565 147.6647348  54.2127361  73.0525885
 147.0518376  52.9387103  73.5939700 138.8016072  57.7874162  85.9066442
 139.1103199  57.5423309  86.7789142 139.5991555  57.9920800  85.4185312
 138.8236685  59.9412071  78.1371819 138.3841675  59.4488450  78.8304675
 139.5744802  59.3985039  77.8963894 131.3029024  56.1323612  78.1396447
 132.1287043  55.8327384  77.7595090 130.9523076  55.3631235  78.5886235
 136.2710557  55.4850081  80.2094120 135.6490566  54.8220786  79.9096348
 136.9415424  55.5111212  79.5267768 129.5037629  54.0509939  79.0985380
 128.6669537  53.6232113  78.9169382 129.4761274  54.2442382  80.0356171
 136.3435084  43.9631869  89.8026626 136.3923240  44.8393991  89.4204396
 136.8857598  43.4209262  89.2298270 146.8289930  54.5072992  89.0827763
 146.0385474  54.4897131  88.5432263 146.5923284  55.0461285  89.8376800
 146.9487805  51.3565458  86.3960492 146.9985810  51.1915466  87.3376015
 146.8401728  50.4892717  86.0058373 135.8324064  54.0354004  73.6852581
 135.9812184  54.7189468  73.0319254 136.6390507  54.0159094  74.2002037
 144.2391567  47.3396386  87.7119799 145.1401430  47.2002851  87.4203796
 144.3139542  47.5050841  88.6517976 138.5734373  44.7163241  86.5572985
 137.7037682  45.0096807  86.2855573 138.8093853  45.3003686  87.2780249
 148.4506002  53.7762400  86.6402513 148.1590810  54.1392380  87.4765974
 147.8378133  53.0629408  86.4615846 149.6501684  51.3415279  79.1605084
 150.4848575  51.7805084  79.3242644 149.7860813  50.8653933  78.3413329
 146.6993190  48.8995014  85.1082571 147.1747312  49.0922661  84.3001423
 145.7758755  48.9554200  84.8625955 133.5876697  50.0619181  74.6913650
 133.3422739  49.1581511  74.8893860 133.7572611  50.0636332  73.7493128
 141.2773406  40.9342858  84.0738405 141.7955350  41.6703885  83.7484894
 140.9228539  41.2406851  84.9085164 132.8572344  45.7947539  72.1899811
 132.1641589  45.8691894  71.5339847 132.6124096  45.0307883  72.7121328
 141.5286001  37.3543140  79.5939302 141.8087754  36.6866329  80.2199728
 142.3136608  37.5472236  79.0813966 139.3319469  56.5302134  71.1564328
 138.7593436  57.1492321  70.7034800 139.9052263  57.0801496  71.6904250
 145.3994859  45.7760774  83.3410877 146.3512282  45.8758872  83.3623101
 145.2298309  44.9839043  83.8508961 143.4209238  42.8616358  83.5270278
 142.8259171  43.1421370  82.8316767 143.1358935  43.3510259  84.2987019
 142.5516729  56.8139284  72.2872911 143.4847402  56.7484846  72.4905786
 142.4639942  57.6495551  71.8287443 145.1804746  56.1305155  69.2476858
 145.1018377  55.7965018  70.1412616 146.0014412  56.6226923  69.2468330
 147.8782937  48.9966894  82.4553177 147.8459257  48.0582895  82.6412861
 148.4883560  49.0750931  81.7219002 139.7166268  47.8662947  68.4980381
 140.6625372  47.7369155  68.5668799 139.3380513  47.1277609  68.9749809
 148.0277425  45.7877938  82.5011460 147.5116474  45.0036394  82.3141389
 148.9117374  45.4596654  82.6657979 145.6888152  39.5318953  78.4607273
 145.4912973  39.2234041  79.3450605 146.2987858  40.2580592  78.5905202
 153.6959487  50.0582901  81.5959213 154.4262875  49.7968189  82.1566917
 153.0866432  49.3211623  81.6361281 151.7774784  48.1990764  82.1933665
 151.0507947  48.0646728  81.5850156 151.3622071  48.5067592  82.9990383
 139.6004960  51.9180693  89.9581038 140.5207970  52.0959292  90.1521084
 139.5654543  50.9736739  89.8060737 137.9009185  45.7912923  68.4335266
 136.9940640  45.4946036  68.5097980 138.1785166  45.4942742  67.5669552
 128.8187125  47.1119287  78.8834312 128.4989910  46.2584595  78.5908686
 128.2720553  47.3267865  79.6392280 132.5967033  49.8281728  82.6003819
 132.8153042  50.7598836  82.6191853 133.0092807  49.4689702  83.3858623
 139.5171251  40.3349813  74.5879507 138.7071979  39.9896898  74.9634753
 140.2055667  40.0257357  75.1767119 141.4461799  39.4127860  76.2103804
 141.9992837  39.8323313  76.8693827 141.6831885  38.4863608  76.2526760
 137.4694898  45.4014934  91.9906568 137.3691625  46.3509291  91.9218659
 137.2516440  45.0733173  91.1182638 136.6707969  42.6499859  68.5747245
 137.5327133  42.9754757  68.8343062 136.8558314  41.8631355  68.0620311
 128.6875385  50.7322198  80.8527434 127.9938857  50.3176151  80.3397388
 129.4348376  50.7742735  80.2560853 144.8240606  41.5228385  75.7182468
 144.2439275  42.1813189  75.3360521 144.5576539  40.7005730  75.3069886
 143.2744172  40.9233443  77.9203788 143.7743951  41.0349977  77.1118107
 143.9179780  40.6194496  78.5604597 137.3326168  48.8312072  90.8071629
 136.8493250  49.6312433  91.0135518 137.4187107  48.8420017  89.8539073
 130.6012128  50.6640452  78.7293449 130.5782816  50.7628139  77.7775332
 130.9112764  51.5105603  79.0510615 133.2599506  52.7216607  82.8440063
 134.2142759  52.6900549  82.7769995 133.0612029  52.2607231  83.6590289
 133.8498888  51.2917723  85.4110861 134.6691777  51.7861802  85.4345698
 134.1235695  50.3749691  85.3828428 143.6065484  43.6828476  74.7738816
 142.7191339  43.9678126  74.5559011 144.0219473  43.5222239  73.9266093
 146.9580020  43.7074996  78.4893156 147.7340410  44.1971449  78.7617772
 146.2328154  44.1333051  78.9465025 149.3952579  44.4202616  79.5467096
 149.9897069  44.1798352  78.8360405 149.4679162  43.7009746  80.1740633
 131.6149734  58.2636227  79.8610261 131.4804202  57.5036628  79.2948259
 131.1981797  58.9877127  79.3939050 142.7508697  53.4473150  68.8686836
 143.4544547  53.6523153  69.4844492 142.0271346  54.0149912  69.1335920
 143.5806508  49.1983011  74.9889107 143.5241709  49.6551563  74.1496739
 144.1334850  48.4373696  74.8111949 147.3911314  44.9872743  75.8139226
 147.1348248  44.5869379  76.6447434 146.7664182  45.7016537  75.6889365
 151.7023651  47.7268817  78.3210517 151.1423209  47.7962006  79.0942080
 151.0967155  47.5509801  77.6010014 134.7718860  59.1605544  80.0728704
 134.6551244  60.1050976  79.9707394 133.9511307  58.8579105  80.4614503
 144.6595395  53.8855679  70.9185296 145.4940999  53.4536878  70.7362771
 144.4979738  53.7137693  71.8462191 144.3141287  50.3887793  72.2841636
 144.2590091  50.2232064  71.3430080 143.6887342  51.0963826  72.4403825
 129.1033802  45.6255857  86.1103058 129.7492666  45.1154811  86.5990283
 128.8950953  46.3624539  86.6846483 141.6287194  52.6936705  91.6095199
 142.4978354  52.8677357  91.2481833 141.1493946  53.5131121  91.4870928
 137.6237412  39.8895902  71.8626954 137.6116082  40.8337742  72.0195225
 138.5160834  39.7066047  71.5686415 135.7973374  59.8133806  83.2884632
 136.7000621  59.8457416  83.6051127 135.5710744  58.8834257  83.3030968
 137.5526976  58.5664792  79.9494711 136.6022607  58.5666654  79.8359083
 137.8559463  57.8197527  79.4330745 141.4389532  36.4838678  76.1172891
 140.6721928  35.9297165  76.2629573 141.8500237  36.5560547  76.9787043
 133.4431293  42.7723474  90.2078072 134.3062754  42.4160279  90.4181397
 132.8696704  42.4337369  90.8953476 153.2879670  64.4025331  81.0140473
 153.9258080  64.2832078  80.3103813 153.1700513  65.3506174  81.0728425
 150.0969376  64.3552759  80.9501998 149.7587888  64.2393823  80.0622533
 150.9659144  63.9543924  80.9303004 145.9556192  66.2088235  76.9398889
 145.3921057  66.1178172  76.1715177 145.8408587  65.3888139  77.4201381
 150.5789159  65.5087610  86.9088203 150.5677800  65.1140409  86.0368707
 150.7409799  64.7753683  87.5021975 143.5020624  67.7039427  79.7783109
 144.2941916  67.3630251  79.3629409 143.7417274  67.8134402  80.6985263
 151.5355751  69.8759203  72.2513354 150.8843730  70.4613283  71.8647368
 152.3300113  70.4065398  72.3108391 145.4611378  66.9648340  72.6500488
 146.2342254  66.4177327  72.5113364 145.8136777  67.8292589  72.8614949
 147.2996420  68.2924722  85.8567387 147.0086286  69.1970353  85.7414054
 147.9353405  68.3341250  86.5711457 148.2252627  65.6701571  82.4468747
 148.8216199  65.4457593  81.7325710 148.2827599  64.9286316  83.0494195
 147.7977656  63.1241006  70.2818938 148.0503176  62.6022527  69.5202401
 146.8602215  62.9607151  70.3845622 152.8420938  62.1276784  78.0893681
 153.6284028  61.7096208  77.7384098 153.1059643  63.0322877  78.2575330
 153.0131016  67.5649635  72.7882338 152.3776849  67.6384261  73.5003243
 152.6828422  68.1543233  72.1101417 158.2429365  62.0652018  78.9926660
 158.9754537  61.4951234  79.2264489 157.4868721  61.6773618  79.4333165
 147.5173944  65.0269112  72.4843313 147.4010202  64.3514015  73.1524397
 147.6276204  64.5401486  71.6675466 149.8605485  64.4879259  76.1890002
 149.4963692  63.9609880  76.9002924 150.7172601  64.0977728  76.0156488
 155.7654786  55.7773592  83.4521268 155.4338111  56.6469003  83.2282483
 155.1700399  55.4609876  84.1315299 149.5010972  59.5169159  71.1851351
 149.6685375  60.3849395  71.5521822 149.3108141  59.6796440  70.2612640
 152.2586305  67.9786138  82.8517181 151.9587028  68.8811176  82.7432988
 151.9137365  67.7118321  83.7038334 145.7098787  64.4299934  78.8853886
 144.7849283  64.2976149  79.0931577 145.9583200  65.2094154  79.3823828
 155.6583449  60.4968678  80.5314618 154.7500326  60.4284086  80.2373379
 155.6071045  60.9740623  81.3596444 149.4800193  61.9726816  72.1698018
 149.3599818  62.4183867  73.0083498 148.7852781  62.3212134  71.6111556
 143.0707598  64.0733208  79.7197675 143.1999979  64.3267687  80.6337086
 142.3905049  64.6660916  79.4002330 147.2407085  74.7430458  75.8188149
 147.1631115  75.6938283  75.8976629 146.6368729  74.3976330  76.4763075
 149.7324315  61.9158323  88.4749516 148.9557649  62.4752244  88.4652380
 150.3714878  62.4015106  88.9964386 157.5245096  58.6985116  82.3092492
 156.8819476  58.9917649  81.6632287 157.0200024  58.5838037  83.1145689
 155.1785259  62.4448289  72.9978352 156.0903115  62.6775676  72.8226049
 154.6694906  63.0285334  72.4353430 147.9870687  64.7243777  88.0367483
 148.7285372  65.2628821  87.7602306 147.2807673  65.3510066  88.1939034
 153.4626027  66.8672917  86.6339644 153.8709383  66.4255328  85.8894277
 152.7403288  66.2925545  86.8873837 149.8157097  61.8045524  84.0073201
 150.6618292  62.2284938  84.1507850 149.7555735  61.1479148  84.7011764
 153.7854842  67.4274108  80.3891933 153.1563704  67.5919822  79.6868001
 153.3980504  67.8415717  81.1602897 157.6644073  68.3628546  77.7436297
 156.9795112  68.7427447  77.1933330 157.7487923  68.9723872  78.4768245
 152.9656542  59.4649892  85.6654375 152.7217474  60.2191953  85.1288650
 153.2416473  59.8435240  86.5001622 154.9195005  66.0088505  84.3431640
 155.1311900  66.6520265  83.6666021 154.8724753  65.1750821  83.8753570
 152.5221234  58.6206325  81.2468212 151.6605713  58.9187579  81.5384950
 152.5483669  58.8376724  80.3149245 149.3382803  67.1648516  77.6542018
 149.8021149  67.4436219  76.8646641 149.0739602  66.2631961  77.4715109
 146.2306884  66.7119998  80.5921781 146.8008242  67.1407266  79.9539266
 146.8214996  66.4302582  81.2905967 148.2751689  63.2871668  74.4631583
 148.9775733  63.7392712  74.9305510 147.9432318  62.6455487  75.0911476
 146.7232051  61.8783425  88.8382793 146.0930712  62.5599706  89.0718189
 146.6168139  61.7666507  87.8935931 142.0177023  61.5455221  79.7648717
 141.2276077  61.8012750  79.2888827 142.5088271  62.3603559  79.8700757
 156.0340833  68.8860460  82.5153998 156.8558277  68.4840647  82.2336679
 156.0303236  68.7828694  83.4670113 143.9691769  61.9099800  76.7232194
 143.1722932  62.0218494  77.2415689 143.7417361  62.2486452  75.8573084
 149.7997436  68.4344503  84.6714708 149.8641869  68.8964911  85.5072880
 149.0908360  67.8041868  84.7997018 140.3014726  61.7985711  82.1963708
 140.5522765  62.6832721  82.4621284 140.8374275  61.6190313  81.4238799
 149.5145454  70.1012611  74.5393688 149.3791129  70.9464147  74.9678536
 150.0555267  70.3031889  73.7759622 146.0012794  56.1804191  91.2008044
 145.6079739  55.6270389  91.8755688 146.8178934  56.4914769  91.5914561
 142.9674851  67.6188049  75.1121614 143.4799372  68.4131299  75.2627178
 143.6197564  66.9214339  75.0455215 144.7769736  70.7353805  77.1944367
 144.9536365  71.6571770  77.0065351 145.5726570  70.4212224  77.6238747
 148.9180755  57.5962070  88.7928300 149.6590468  58.1969223  88.7132763
 149.1498678  56.8539708  88.2346343 144.0622093  62.7818437  87.0706530
 143.9475608  61.8803694  87.3713629 143.2066610  63.0282134  86.7191347
 151.1413930  70.7236177  88.6694031 150.6977785  69.9372556  88.3514935
 151.8031144  70.9115328  88.0037921 145.9001052  72.2531979  83.1954709
 146.4508477  72.1249042  82.4231703 145.0612528  72.5526868  82.8449602
 153.2395169  71.0038977  86.6975432 153.2213644  71.8247858  86.2055701
 154.1615089  70.8793053  86.9225573 149.6968223  68.5183107  87.5398940
 150.2296559  67.7571395  87.3098248 149.1682304  68.2256759  88.2823095
 152.8637918  53.6243173  83.0692582 152.5202187  54.5144815  82.9931693
 153.2316880  53.4344830  82.2062167 140.9323768  65.9476703  75.8881184
 141.7698990  66.3573712  75.6714892 141.1102036  65.0076145  75.8581378
 152.8288200  63.6151784  71.5765017 152.3134824  64.3856389  71.8153404
 152.5565509  62.9416920  72.1998079 150.4135311  58.4601485  76.6350255
 149.5576908  58.0708335  76.4555894 150.8262263  58.5393446  75.7750041
 151.9434458  55.9947828  81.0341815 151.4399254  55.9577963  80.2209620
 152.2365065  56.9040571  81.0938472 148.1877344  56.0786558  80.0407997
 149.0530341  55.8829366  79.6813886 148.2554853  55.8496909  80.9677354
 157.8022475  66.3684139  73.5118191 157.0251917  66.0295298  73.0673353
 158.4813955  66.3736762  72.8373156 152.6174504  61.4878876  73.4024798
 152.3124639  61.8025025  74.2534941 153.5704946  61.5660296  73.4452131
 151.0620935  67.6469099  75.0517752 150.5342297  66.9121859  74.7390990
 150.5608438  68.4243776  74.8057721 156.0413781  65.8418120  80.1684799
 155.3837456  66.5317381  80.2564927 156.8454181  66.2314552  80.5118785
 145.7939663  58.3088766  77.4124364 146.3683415  58.0863947  76.6797557
 146.3810645  58.3777460  78.1652965 154.8519240  64.1962493  78.2188740
 155.3651122  64.8292484  78.7210450 155.5020464  63.5963688  77.8532100
 146.1209250  60.3393227  71.4320249 145.2846562  60.6767913  71.7529524
 145.9814020  60.2042206  70.4947386 148.0962331  55.1830015  76.1399433
 147.4426743  54.8679032  75.5156048 148.0542805  54.5605755  76.8659256
 149.2073536  65.4649310  68.0552725 148.3000597  65.2338563  68.2543874
 149.7044568  64.6686929  68.2426707 152.1141614  74.1746817  70.9749411
 151.4403313  74.4778514  71.5834369 152.5007436  74.9775897  70.6254868
 151.3300071  61.6711948  80.4647081 150.4122632  61.8926895  80.3068769
 151.7460215  61.7458259  79.6058788 152.1135119  63.0703364  75.5949761
 152.8606938  63.5824761  75.2856883 152.3826708  62.7487416  76.4554155
 150.3861769  65.5661904  72.5776715 149.4772988  65.2820937  72.6749185
 150.4156853  65.9860983  71.7180022 155.6181036  69.1768494  76.3467883
 155.1643364  68.3359404  76.4033073 154.9875003  69.8129892  76.6842663
 154.5613956  60.1060480  77.5768550 153.8236713  59.5937866  77.9078793
 154.8140730  59.6660862  76.7651827 154.0613976  71.0144991  77.2817701
 154.3536950  71.5750048  76.5630067 154.5712596  71.3073552  78.0370860
 154.6625583  52.8836732  78.1710320 154.9684460  52.0234095  77.8836235
 155.3878188  53.4754352  77.9709314 140.9549939  63.2867419  76.5591918
 140.7574339  62.6936779  75.8342984 140.3996603  62.9819629  77.2767856
 148.9346663  63.1790525  78.6786511 148.9895273  62.2264361  78.6028987
 148.1237865  63.3349964  79.1627809 150.0837857  67.1070648  69.9164794
 149.6457287  66.3906507  69.4570431 150.8248298  67.3346763  69.3549885
 146.8739023  61.7967585  76.4376890 146.0606889  62.0961755  76.8442082
 147.3698017  61.4023274  77.1551372 149.0247601  71.7925342  78.3711154
 148.9823780  72.0186188  77.4419686 149.9410300  71.5588716  78.5196955
 152.4713235  62.2609409  85.2691783 152.8262622  62.4880882  86.1286249
 153.1185366  62.5927786  84.6469039 158.2010972  65.3827845  75.9741112
 158.0628870  65.5729441  75.0462302 157.8447190  66.1447228  76.4309164
 146.3653098  59.3685940  82.0538125 147.0052477  59.2274699  81.3561088
 145.5330628  59.0820454  81.6776727 158.2280351  67.4504372  80.9852384
 158.6616858  67.3579661  81.8335438 158.9411932  67.4261873  80.3472400
 147.1413402  68.6688371  78.1673117 147.9354000  68.1738691  77.9655692
 146.4305094  68.1406234  77.8040823 151.9608246  71.0506466  82.5185485
 152.0145268  71.6197403  83.2863201 151.0923027  71.2208351  82.1539522
 143.4496165  62.8131453  74.2432870 142.5193753  62.7515908  74.4602832
 143.5453637  62.2907405  73.4469511 143.3681714  59.3386265  76.8311111
 143.6288531  60.2531599  76.7220272 144.1898886  58.8710708  76.9807724
 144.8406639  60.7524023  84.0009936 145.5129693  60.5441385  83.3522585
 144.0136426  60.5546109  83.5615168 150.7432211  57.3785963  86.0175597
 150.0960127  58.0775913  85.9240073 151.5133227  57.8122107  86.3851845
 154.1511009  67.6434816  89.0926150 153.9996516  67.4145367  88.1756234
 154.1415689  68.6005417  89.1057495 150.9196346  65.2166728  84.0772416
 151.8488406  65.3677888  83.9041384 150.4987376  65.3050749  83.2221063
 149.7184678  69.2417393  81.8470954 149.5795763  68.8736177  82.7196892
 148.9299274  69.7565032  81.6754912 150.3132830  74.3426489  73.1896491
 150.4884585  73.8714532  74.0042113 149.6265618  74.9692255  73.4177751
 151.2689893  68.6198995  79.2359792 150.9339725  68.5799765  80.1317442
 150.7693838  67.9543711  78.7630202 145.2434137  64.0266625  84.7612373
 145.1053935  63.2946864  85.3623912 146.1539060  63.9375526  84.4796561
 154.2049084  65.9655030  69.5096852 153.5878255  65.2401858  69.4129904
 153.7365573  66.7264390  69.1663926 147.8716437  63.7386585  84.2496053
 148.5816056  63.0979777  84.2082671 147.8285746  63.9899480  85.1722233
 155.8603216  70.6753938  87.1702632 155.8015762  69.9913158  86.5033215
 156.2622734  71.4172928  86.7183258 146.5845371  60.7251803  86.0691692
 146.0482728  60.2742541  86.7213288 145.9962080  60.8597712  85.3262157
 144.8793915  77.4915852  79.9636351 145.1190513  78.1234376  80.6415369
 144.0363111  77.1403892  80.2501710 145.9947630  60.1840454  68.6318156
 145.1177097  60.0629255  68.2680402 146.4705383  59.3926532  68.3797044
 155.8620623  68.6393522  85.4016612 154.9747402  68.3019444  85.5243010
 156.4319174  67.9076553  85.6385377 137.5149770  64.9717614  78.7259663
 138.2020810  64.6579344  78.1380678 137.3597899  65.8758978  78.4526914
 142.3184493  59.8607810  83.1544687 142.2342681  59.2533480  82.4195097
 141.4967199  60.3516829  83.1554183 149.3921777  73.2994974  82.3677855
 149.3191948  74.1049946  82.8797159 148.9499170  73.4986940  81.5425876
 149.1811556  72.5366744  75.8780676 148.3979078  73.0788425  75.9718901
 149.8804302  73.0540724  76.2774917 152.4908206  58.3461374  78.5214882
 152.9876906  57.5931336  78.2015952 151.7195188  58.3825691  77.9558091
 151.8520460  73.1981808  84.5236013 152.5648432  73.8329273  84.4511915
 151.3610489  73.2945674  83.7076015 153.5737987  67.1033061  76.0953305
 152.6394266  67.2234524  75.9258009 153.7514656  66.2005528  75.8313315
 149.0743175  60.4878757  78.2486566 148.7040963  59.9349797  78.9367472
 149.5702268  59.8836890  77.6961566 156.9610539  62.9450380  76.6303339
 157.4270991  63.7778372  76.5563642 157.4118039  62.4795362  77.3348598
 146.9032374  70.9476252  85.3441584 147.6041833  71.5812735  85.4970978
 146.4327489  71.2890983  84.5837224 155.0286770  69.2894202  73.6289491
 155.3046614  69.1750796  74.5383365 154.1591268  68.8911687  73.5901664
 154.9327201  55.3130967  80.6694241 154.0190281  55.5435194  80.8376448
 155.3620303  55.3969411  81.5208273 154.7033660  63.5020859  83.1694135
 154.0505110  63.7496767  82.5146587 155.0814040  62.6884998  82.8356612
 151.6640834  73.5380553  77.2722305 151.8463228  72.7202208  77.7350057
 152.4873820  73.7548245  76.8347195 151.9982999  72.4648738  74.5337353
 152.5270766  71.9541192  73.9207515 152.2611219  72.1491268  75.3982886
 150.7521233  64.2440670  89.6560172 150.0761870  64.1434800  90.3262547
 151.5748867  64.0879884  90.1196169 142.5000092  70.4812607  82.2772687
 143.0853529  69.7356295  82.4100591 142.3024930  70.7916564  83.1609351
 145.3538747  73.5163854  77.2935129 144.6849122  74.0009982  76.8099169
 145.2151617  73.7633075  78.2078508 137.0917747  63.0518207  80.9977130
 137.1301846  62.5181798  81.7914248 136.5858039  62.5253413  80.3788107
 149.4944016  75.5507598  83.8917788 150.0462324  75.7139219  84.6566873
 149.8350209  76.1412036  83.2197813 144.4708509  57.8982748  84.4939672
 144.5349835  58.7597579  84.0817070 144.4075629  57.2856749  83.7612031
 143.9460781  59.9705880  88.1412707 144.5732820  59.5882958  88.7550231
 143.0888700  59.7520082  88.5068399 154.3454890  70.3768855  89.7466442
 154.8894794  70.9898814  89.2521397 153.7641735  70.9348434  90.2633455
 140.7226324  61.7782309  74.0731061 141.0179765  60.8692988  74.0198115
 139.8214360  61.7570049  73.7512064 152.6312403  73.4989573  80.8781470
 152.5063542  72.6979313  80.3692415 153.2891494  73.9935767  80.3895440
 144.2520571  59.8538306  80.0558610 143.5307157  60.4674274  79.9166083
 145.0413827  60.3896071  79.9775256 154.6947311  71.2998594  82.5061020
 153.7477647  71.1803945  82.4339347 155.0430084  70.4121092  82.5887281
 147.0546885  57.1892732  86.3299262 147.5781287  57.4355029  87.0925571
 146.8359218  58.0212767  85.9102399 142.4514166  59.4596407  74.1970387
 142.1226872  58.5793786  74.0145493 142.8053536  59.4044076  75.0846776
 151.6993745  71.0951310  78.7065372 151.5518707  70.1668017  78.8872942
 152.5247238  71.1171400  78.2222447 145.5655989  59.7469377  74.5645864
 145.9052061  60.2755298  73.8424473 146.0128109  60.0849783  75.3404431
 155.3027866  71.9179868  79.7930245 156.2274414  71.7122730  79.6554696
 155.1343170  71.6696270  80.7019586 148.2599430  58.1306428  84.0148932
 147.9196250  57.3314241  84.4169612 147.5538436  58.4308138  83.4425766
 148.9115902  55.2155740  82.4676255 149.7341971  54.7416218  82.3455146
 149.1553965  55.9946224  82.9674942 147.5524136  58.2443998  72.7639157
 148.2732499  58.6225251  72.2602874 146.9289440  58.9632875  72.8674135
 151.6955259  58.9489147  73.6997489 151.9118873  59.8313785  73.3986318
 151.2149326  58.5575361  72.9703131 146.4354480  61.9074861  80.2768234
 146.2899061  62.2215164  81.1692515 145.9579684  62.5259761  79.7239133
 148.2950863  58.8977409  80.3249124 148.2812432  58.0018502  79.9881421
 149.0123291  58.9048072  80.9587410 150.1476994  59.3314749  82.3702251
 149.8894772  60.2531819  82.3686581 149.6162034  58.9345183  83.0602715
 155.0923183  72.4365536  75.1492336 155.2660060  71.8711958  74.3966189
 155.5852074  73.2366431  74.9671826 140.9100142  64.4480205  83.2155895
 140.3653611  65.2240013  83.3476169 141.7879492  64.7951009  83.0575017
 147.6987759  57.7791789  75.5936694 147.8203670  56.8508435  75.7927581
 147.4089802  57.7930475  74.6815009 150.5678950  55.4646699  78.7303414
 150.5900646  55.5286032  77.7755393 150.9847009  54.6251208  78.9243920
 156.0798355  71.7532300  72.2489235 156.7749260  72.3738993  72.4676549
 156.4221505  70.9027652  72.5241613 141.6966164  63.5750101  86.1086052
 140.9547900  63.7232737  86.6950682 141.3758909  63.8358367  85.2452801
 157.9789778  69.2032006  73.7776565 158.5041102  69.5419279  73.0525885
 157.8912131  68.2679021  73.5939700 149.6409827  73.1166079  85.9066442
 149.9496953  72.8715226  86.7789142 150.4385309  73.3212718  85.4185312
 149.6630439  75.2703989  78.1371819 149.2235429  74.7780368  78.8304675
 150.4138556  74.7276957  77.8963894 142.1422778  71.4615530  78.1396447
 142.9680798  71.1619302  77.7595090 141.7916830  70.6923152  78.5886235
 147.1104311  70.8141998  80.2094120 146.4884320  70.1512703  79.9096348
 147.7809178  70.8403130  79.5267768 140.3431383  69.3801856  79.0985380
 139.5063291  68.9524031  78.9169382 140.3155028  69.5734300  80.0356171
 147.1828839  59.2923786  89.8026626 147.2316994  60.1685909  89.4204396
 147.7251353  58.7501179  89.2298270 157.6683684  69.8364909  89.0827763
 156.8779228  69.8189048  88.5432263 157.4317039  70.3753203  89.8376800
 157.7881559  66.6857376  86.3960492 157.8379564  66.5207383  87.3376015
 157.6795483  65.8184635  86.0058373 146.6717818  69.3645922  73.6852581
 146.8205938  70.0481386  73.0319254 147.4784262  69.3451012  74.2002037
 155.0785322  62.6688304  87.7119799 155.9795185  62.5294769  87.4203796
 155.1533296  62.8342759  88.6517976 149.4128127  60.0455159  86.5572985
 148.5431437  60.3388725  86.2855573 149.6487607  60.6295604  87.2780249
 157.5386944  64.2286932  85.1082571 158.0141066  64.4214578  84.3001423
 156.6152510  64.2846118  84.8625955 144.4270451  65.3911099  74.6913650
 144.1816493  64.4873429  74.8893860 144.5966366  65.3928250  73.7493128
 152.1167161  56.2634776  84.0738405 152.6349105  56.9995802  83.7484894
 151.7622294  56.5698769  84.9085164 143.6966099  61.1239457  72.1899811
 143.0035344  61.1983812  71.5339847 143.4517851  60.3599800  72.7121328
 152.3679755  52.6835058  79.5939302 152.6481509  52.0158247  80.2199728
 153.1530362  52.8764154  79.0813966 150.1713224  71.8594052  71.1564328
 149.5987191  72.4784239  70.7034800 150.7446017  72.4093414  71.6904250
 156.2388613  61.1052692  83.3410877 157.1906036  61.2050790  83.3623101
 156.0692064  60.3130961  83.8508961 154.2602993  58.1908275  83.5270278
 153.6652925  58.4713288  82.8316767 153.9752690  58.6802176  84.2987019
 153.3910483  72.1431202  72.2872911 154.3241157  72.0776764  72.4905786
 153.3033696  72.9787469  71.8287443 156.0198500  71.4597072  69.2476858
 155.9412132  71.1256936  70.1412616 156.8408167  71.9518840  69.2468330
 150.5560022  63.1954865  68.4980381 151.5019127  63.0661073  68.5668799
 150.1774267  62.4569527  68.9749809 156.5281907  54.8610871  78.4607273
 156.3306728  54.5525959  79.3450605 157.1381612  55.5872510  78.5905202
 150.4398715  67.2472611  89.9581038 151.3601724  67.4251210  90.1521084
 150.4048298  66.3028656  89.8060737 148.7402939  61.1204841  68.4335266
 147.8334395  60.8237954  68.5097980 149.0178920  60.8234659  67.5669552
 139.6580880  62.4411205  78.8834312 139.3383664  61.5876513  78.5908686
 139.1114308  62.6559783  79.6392280 143.4360787  65.1573646  82.6003819
 143.6546797  66.0890753  82.6191853 143.8486561  64.7981620  83.3858623
 150.3565005  55.6641731  74.5879507 149.5465733  55.3188816  74.9634753
 151.0449422  55.3549275  75.1767119 152.2855553  54.7419778  76.2103804
 152.8386592  55.1615231  76.8693827 152.5225640  53.8155526  76.2526760
 148.3088653  60.7306851  91.9906568 148.2085379  61.6801208  91.9218659
 148.0910195  60.4025090  91.1182638 147.5101724  57.9791776  68.5747245
 148.3720888  58.3046675  68.8343062 147.6952068  57.1923272  68.0620311
 139.5269140  66.0614116  80.8527434 138.8332611  65.6468069  80.3397388
 140.2742131  66.1034653  80.2560853 155.6634360  56.8520303  75.7182468
 155.0833029  57.5105107  75.3360521 155.3970293  56.0297647  75.3069886
 154.1137927  56.2525361  77.9203788 154.6137705  56.3641895  77.1118107
 154.7573535  55.9486413  78.5604597 148.1719923  64.1603990  90.8071629
 147.6887004  64.9604350  91.0135518 148.2580862  64.1711935  89.8539073
 141.4405882  65.9932370  78.7293449 141.4176570  66.0920057  77.7775332
 141.7506519  66.8397521  79.0510615 144.0993260  68.0508525  82.8440063
 145.0536514  68.0192467  82.7769995 143.9005784  67.5899149  83.6590289
 144.6892642  66.6209641  85.4110861 145.5085531  67.1153720  85.4345698
 144.9629450  65.7041609  85.3828428 154.4459238  59.0120393  74.7738816
 153.5585093  59.2970044  74.5559011 154.8613227  58.8514157  73.9266093
 157.7973775  59.0366914  78.4893156 158.5734165  59.5263367  78.7617772
 157.0721909  59.4624968  78.9465025 142.4543489  73.5928144  79.8610261
 142.3197957  72.8328545  79.2948259 142.0375551  74.3169044  79.3939050
 153.5902452  68.7765068  68.8686836 154.2938302  68.9815070  69.4844492
 152.8665101  69.3441830  69.1335920 154.4200262  64.5274929  74.9889107
 154.3635464  64.9843481  74.1496739 154.9728605  63.7665614  74.8111949
 158.2305068  60.3164661  75.8139226 157.9742002  59.9161297  76.6447434
 157.6057936  61.0308455  75.6889365 145.6112615  74.4897461  80.0728704
 145.4944999  75.4342894  79.9707394 144.7905061  74.1871023  80.4614503
 155.4989149  69.2147597  70.9185296 156.3334753  68.7828796  70.7362771
 155.3373492  69.0429611  71.8462191 155.1535041  65.7179710  72.2841636
 155.0983845  65.5523982  71.3430080 154.5281097  66.4255743  72.4403825
 139.9427556  60.9547775  86.1103058 140.5886420  60.4446729  86.5990283
 139.7344708  61.6916456  86.6846483 152.4680949  68.0228622  91.6095199
 153.3372108  68.1969275  91.2481833 151.9887700  68.8423039  91.4870928
 148.4631167  55.2187819  71.8626954 148.4509837  56.1629659  72.0195225
 149.3554589  55.0357965  71.5686415 146.6367129  75.1425723  83.2884632
 147.5394376  75.1749334  83.6051127 146.4104499  74.2126174  83.3030968
 148.3920731  73.8956710  79.9494711 147.4416362  73.8958571  79.8359083
 148.6953217  73.1489444  79.4330745 152.2783286  51.8130596  76.1172891
 151.5115682  51.2589083  76.2629573 152.6893991  51.8852465  76.9787043
 144.2825047  58.1015392  90.2078072 145.1456509  57.7452197  90.4181397
 143.7090458  57.7629287  90.8953476 156.7949946  81.5380153  76.9398889
 156.2314811  81.4470090  76.1715177 156.6802341  80.7180057  77.4201381
 154.3414378  83.0331344  79.7783109 155.1335670  82.6922169  79.3629409
 154.5811028  83.1426319  80.6985263 156.3005132  82.2940258  72.6500488
 157.0736008  81.7469245  72.5113364 156.6530531  83.1584507  72.8614949
 158.1390175  83.6216640  85.8567387 157.8480041  84.5262271  85.7414054
 158.7747159  83.6633167  86.5711457 158.6371410  78.4532924  70.2818938
 158.8896931  77.9314445  69.5202401 157.6995969  78.2899069  70.3845622
 158.3567699  80.3561030  72.4843313 158.2403957  79.6805933  73.1524397
 158.4669959  79.8693404  71.6675466 156.5492541  79.7591852  78.8853886
 155.6243038  79.6268066  79.0931577 156.7976955  80.5386071  79.3823828
 153.9101352  79.4025126  79.7197675 154.0393734  79.6559605  80.6337086
 153.2298804  79.9952834  79.4002330 158.0800840  90.0722376  75.8188149
 158.0024869  91.0230201  75.8976629 157.4762483  89.7268248  76.4763075
 157.0700639  82.0411915  80.5921781 157.6401996  82.4699184  79.9539266
 157.6608751  81.7594500  81.2905967 157.5625805  77.2075343  88.8382793
 156.9324466  77.8891623  89.0718189 157.4561893  77.0958424  87.8935931
 152.8570778  76.8747139  79.7648717 152.0669832  77.1304667  79.2888827
 153.3482025  77.6895477  79.8700757 154.8085523  77.2391718  76.7232194
 154.0116687  77.3510412  77.2415689 154.5811115  77.5778370  75.8573084
 151.1408481  77.1277629  82.1963708 151.3916519  78.0124639  82.4621284
 151.6768029  76.9482231  81.4238799 156.8406548  71.5096108  91.2008044
 156.4473494  70.9562307  91.8755688 157.6572689  71.8206687  91.5914561
 153.8068606  82.9479967  75.1121614 154.3193127  83.7423217  75.2627178
 154.4591319  82.2506257  75.0455215 155.6163491  86.0645723  77.1944367
 155.7930119  86.9863688  77.0065351 156.4120324  85.7504142  77.6238747
 154.9015847  78.1110355  87.0706530 154.7869362  77.2095612  87.3713629
 154.0460365  78.3574052  86.7191347 156.7394806  87.5823897  83.1954709
 157.2902231  87.4540960  82.4231703 155.9006282  87.8818786  82.8449602
 151.7717523  81.2768621  75.8881184 152.6092745  81.6865629  75.6714892
 151.9495790  80.3368063  75.8581378 156.6333417  73.6380683  77.4124364
 157.2077169  73.4155865  76.6797557 157.2204400  73.7069378  78.1652965
 156.9603005  75.6685144  71.4320249 156.1240317  76.0059831  71.7529524
 156.8207774  75.5334124  70.4947386 158.9356085  70.5121932  76.1399433
 158.2820498  70.1970949  75.5156048 158.8936559  69.8897673  76.8659256
 151.7943694  78.6159336  76.5591918 151.5968094  78.0228697  75.8342984
 151.2390358  78.3111546  77.2767856 157.7132777  77.1259503  76.4376890
 156.9000643  77.4253673  76.8442082 158.2091772  76.7315191  77.1551372
 157.2046852  74.6977858  82.0538125 157.8446232  74.5566617  81.3561088
 156.3724383  74.4112371  81.6776727 157.9807156  83.9980288  78.1673117
 158.7747755  83.5030609  77.9655692 157.2698849  83.4698152  77.8040823
 154.2889920  78.1423370  74.2432870 153.3587508  78.0807826  74.4602832
 154.3847392  77.6199323  73.4469511 154.2075469  74.6678183  76.8311111
 154.4682286  75.5823516  76.7220272 155.0292641  74.2002626  76.9807724
 155.6800394  76.0815940  84.0009936 156.3523447  75.8733302  83.3522585
 154.8530180  75.8838026  83.5615168 156.0827891  79.3558543  84.7612373
 155.9447689  78.6238782  85.3623912 156.9932815  79.2667443  84.4796561
 157.4239126  76.0543720  86.0691692 156.8876483  75.6034459  86.7213288
 156.8355834  76.1889629  85.3262157 155.7187669  92.8207770  79.9636351
 155.9584268  93.4526294  80.6415369 154.8756866  92.4695810  80.2501710
 156.8341385  75.5132372  68.6318156 155.9570851  75.3921173  68.2680402
 157.3099138  74.7218450  68.3797044 148.3543525  80.3009532  78.7259663
 149.0414565  79.9871262  78.1380678 148.1991654  81.2050896  78.4526914
 153.1578247  75.1899728  83.1544687 153.0736436  74.5825398  82.4195097
 152.3360954  75.6808746  83.1554183 157.7426128  86.2768170  85.3441584
 158.4435588  86.9104653  85.4970978 157.2721243  86.6182901  84.5837224
 153.3393846  85.8104525  82.2772687 153.9247283  85.0648213  82.4100591
 153.1418685  86.1208481  83.1609351 156.1932502  88.8455772  77.2935129
 155.5242877  89.3301900  76.8099169 156.0545371  89.0924992  78.2078508
 147.9311501  78.3810125  80.9977130 147.9695601  77.8473716  81.7914248
 147.4251794  77.8545330  80.3788107 155.3102263  73.2274665  84.4939672
 155.3743590  74.0889496  84.0817070 155.2469384  72.6148667  83.7612031
 154.7854536  75.2997798  88.1412707 155.4126575  74.9174875  88.7550231
 153.9282455  75.0812000  88.5068399 151.5620079  77.1074227  74.0731061
 151.8573520  76.1984905  74.0198115 150.6608114  77.0861966  73.7512064
 155.0914326  75.1830224  80.0558610 154.3700911  75.7966191  79.9166083
 155.8807581  75.7187988  79.9775256 157.8940639  72.5184650  86.3299262
 158.4175041  72.7646947  87.0925571 157.6752972  73.3504685  85.9102399
 153.2907920  74.7888325  74.1970387 152.9620626  73.9085704  74.0145493
 153.6447291  74.7335993  75.0846776 156.4049743  75.0761294  74.5645864
 156.7445816  75.6047216  73.8424473 156.8521864  75.4141701  75.3404431
 159.0993184  73.4598345  84.0148932 158.7590005  72.6606158  84.4169612
 158.3932191  73.7600056  83.4425766 158.3917891  73.5735916  72.7639157
 159.1126253  73.9517169  72.2602874 157.7683195  74.2924793  72.8674135
 157.2748235  77.2366778  80.2768234 157.1292816  77.5507081  81.1692515
 156.7973438  77.8551679  79.7239133 151.7493897  79.7772123  83.2155895
 151.2047365  80.5531931  83.3476169 152.6273247  80.1242927  83.0575017
 158.5381514  73.1083707  75.5936694 158.6597425  72.1800353  75.7927581
 158.2483556  73.1222392  74.6815009 152.5359919  78.9042019  86.1086052
 151.7941655  79.0524654  86.6950682 152.2152663  79.1650285  85.2452801
 152.9816533  86.7907448  78.1396447 153.8074552  86.4911220  77.7595090
 152.6310585  86.0215070  78.5886235 157.9498066  86.1433916  80.2094120
 157.3278075  85.4804621  79.9096348 158.6202933  86.1695048  79.5267768
 151.1825138  84.7093774  79.0985380 150.3457046  84.2815948  78.9169382
 151.1548783  84.9026217  80.0356171 158.0222593  74.6215704  89.8026626
 158.0710749  75.4977827  89.4204396 158.5645107  74.0793097  89.2298270
 157.5111573  84.6937839  73.6852581 157.6599693  85.3773304  73.0319254
 158.3178016  84.6742929  74.2002037 155.2664206  80.7203017  74.6913650
 155.0210248  79.8165347  74.8893860 155.4360120  80.7220167  73.7493128
 154.5359853  76.4531374  72.1899811 153.8429098  76.5275729  71.5339847
 154.2911605  75.6891718  72.7121328 150.4974634  77.7703122  78.8834312
 150.1777418  76.9168430  78.5908686 149.9508062  77.9851700  79.6392280
 154.2754542  80.4865563  82.6003819 154.4940551  81.4182671  82.6191853
 154.6880316  80.1273538  83.3858623 159.1482407  76.0598769  91.9906568
 159.0479134  77.0093126  91.9218659 158.9303949  75.7317008  91.1182638
 158.3495478  73.3083694  68.5747245 159.2114642  73.6338592  68.8343062
 158.5345823  72.5215190  68.0620311 150.3662894  81.3906034  80.8527434
 149.6726366  80.9759986  80.3397388 151.1135885  81.4326570  80.2560853
 159.0113677  79.4895908  90.8071629 158.5280759  80.2896268  91.0135518
 159.0974616  79.5003853  89.8539073 152.2799637  81.3224287  78.7293449
 152.2570325  81.4211975  77.7775332 152.5900273  82.1689438  79.0510615
 154.9387015  83.3800443  82.8440063 155.8930268  83.3484385  82.7769995
 154.7399538  82.9191066  83.6590289 155.5286397  81.9501559  85.4110861
 156.3479286  82.4445637  85.4345698 155.8023204  81.0333527  85.3828428
 153.2937243  88.9220062  79.8610261 153.1591711  88.1620463  79.2948259
 152.8769306  89.6460962  79.3939050 156.4506369  89.8189379  80.0728704
 156.3338753  90.7634812  79.9707394 155.6298815  89.5162941  80.4614503
 150.7821311  76.2839692  86.1103058 151.4280175  75.7738646  86.5990283
 150.5738462  77.0208374  86.6846483 157.4760883  90.4717641  83.2884632
 158.3788130  90.5041251  83.6051127 157.2498253  89.5418092  83.3030968
 155.1218802  73.4307309  90.2078072 155.9850263  73.0744114  90.4181397
 154.5484213  73.0921204  90.8953476 158.7705256  93.7102043  80.9977130
 158.8089355  93.1765633  81.7914248 158.2645548  93.1837248  80.3788107
 112.3612653   8.5102222  66.6881657 112.6009251   9.1420746  67.3660676
 111.5181849   8.1590262  66.9747017 124.2768684  12.5566522  63.6644195
 123.7133549  12.4656459  62.8960483 124.1621079  11.7366427  64.1446688
 121.8233116  14.0517714  66.5028416 122.6154408  13.7108539  66.0874715
 122.0629766  14.1612689  67.4230569 129.8568243  16.2237490  58.9758660
 129.2056223  16.8091570  58.5892674 130.6512606  16.7543685  59.0353698
 123.7823870  13.3126627  59.3745795 124.5554746  12.7655614  59.2358671
 124.1349269  14.1770876  59.5860256 125.6208913  14.6403009  72.5812694
 125.3298779  15.5448640  72.4659360 126.2565897  14.6819537  73.2956764
 131.3343508  13.9127922  59.5127645 130.6989341  13.9862548  60.2248549
 131.0040914  14.5021521  58.8346724 130.5798798  14.3264425  69.5762488
 130.2799521  15.2289464  69.4678295 130.2349857  14.0596608  70.4283641
 121.3920090  10.4211495  66.4442981 121.5212471  10.6745974  67.3582393
 120.7117541  11.0139203  66.1247636 125.5619577  21.0908745  62.5433455
 125.4843607  22.0416570  62.6221936 124.9581221  20.7454618  63.2008382
 127.6595296  13.5126803  64.3787325 128.1233641  13.7914506  63.5891947
 127.3952094  12.6110248  64.1960415 124.5519377  13.0598285  67.3167088
 125.1220734  13.4885553  66.6784573 125.1427489  12.7780869  68.0151274
 128.1209929  14.7822791  71.3960015 128.1854361  15.2443198  72.2318187
 127.4120853  14.1520156  71.5242325 127.8357946  16.4490898  61.2638995
 127.7003621  17.2942434  61.6923843 128.3767759  16.6510176  60.5004929
 121.2887344  13.9666336  61.8366920 121.8011864  14.7609586  61.9872485
 121.9410057  13.2692627  61.7700522 123.0982228  17.0832093  63.9189673
 123.2748857  18.0050057  63.7310657 123.8939062  16.7690512  64.3484053
 129.4626423  17.0714465  75.3939337 129.0190277  16.2850843  75.0760242
 130.1243636  17.2593615  74.7283228 124.2213544  18.6010266  69.9200016
 124.7720969  18.4727330  69.1477010 123.3825020  18.9005155  69.5694909
 131.5607661  17.3517265  73.4220739 131.5426136  18.1726146  72.9301008
 132.4827581  17.2271340  73.6470880 128.0180715  14.8661394  74.2644247
 128.5509052  14.1049682  74.0343555 127.4894796  14.5735046  75.0068401
 119.2536261  12.2954991  62.6126491 120.0911483  12.7051999  62.3960198
 119.4314528  11.3554433  62.5826685 129.3833428  13.9947387  61.7763059
 128.8554789  13.2600146  61.4636296 128.8820930  14.7722063  61.5303027
 130.4354107  20.5225104  57.6994718 129.7615805  20.8256801  58.3079676
 130.8219929  21.3254184  57.3500175 133.9393529  15.5246781  63.0713190
 133.4855856  14.6837691  63.1278380 133.3087495  16.1608180  63.4087970
 132.3826468  17.3623278  64.0063008 132.6749442  17.9228335  63.2875373
 132.8925089  17.6551839  64.7616167 128.4050349  13.4548935  56.6410101
 127.9669779  12.7384794  56.1815738 129.1460790  13.6825050  56.0795192
 127.3460093  18.1403629  65.0956461 127.3036272  18.3664475  64.1664993
 128.2622792  17.9067004  65.2442262 125.4625894  15.0166658  64.8918424
 126.2566492  14.5216978  64.6900999 124.7517586  14.4884521  64.5286129
 130.2820738  17.3984754  69.2430791 130.3357761  17.9675690  70.0108507
 129.4135520  17.5686639  68.8784828 128.0397170  15.5895680  68.5716261
 127.9008256  15.2214464  69.4442199 127.2511766  16.1043319  68.4000219
 128.6345322  20.6904776  59.9141797 128.8097078  20.2192820  60.7287420
 127.9478110  21.3170543  60.1423058 129.5902385  14.9677283  65.9605099
 129.2552218  14.9278053  66.8562748 129.0906331  14.3021999  65.4875509
 134.1815708  17.0232225  73.8947939 134.1228255  16.3391446  73.2278522
 134.5835227  17.7651215  73.4428565 123.2006407  23.8394139  66.6881657
 123.4403005  24.4712663  67.3660676 122.3575604  23.4882179  66.9747017
 115.8362263  11.3195901  65.4504970 116.5233303  11.0057631  64.8625985
 115.6810391  12.2237266  65.1772221 127.7134269  19.6473262  69.0923161
 127.6404441  20.4528233  69.6042466 127.2711662  19.8465228  68.2671183
 127.5024049  18.8845032  62.6025983 126.7191571  19.4266712  62.6964207
 128.2016794  19.4019011  63.0020224 130.1732953  19.5460096  71.2481320
 130.8860925  20.1807561  71.1757222 129.6822981  19.6423962  70.4321322
 125.2244866  17.2954539  72.0686891 125.9254326  17.9291022  72.2216285
 124.7539981  17.6369271  71.3082530 133.3499262  15.6372489  60.3534798
 133.6259106  15.5229084  61.2628672 132.4803761  15.2389974  60.3146971
 129.9853326  19.8858840  63.9967612 130.1675720  19.0680496  64.4595364
 130.8086312  20.1026532  63.5592502 130.3195491  18.8127025  61.2582660
 130.8483258  18.3019480  60.6452822 130.5823711  18.4969555  62.1228193
 120.8212584  16.8290894  69.0017994 121.4066021  16.0834582  69.1345898
 120.6237423  17.1394851  69.8854657 123.6751239  19.8642142  64.0180436
 123.0061615  20.3488269  63.5344476 123.5364109  20.1111362  64.9323814
 115.4130239   9.3996494  67.7222437 115.4514338   8.8660085  68.5159555
 114.9070532   8.8731700  67.1033414 127.8156508  21.8985885  70.6163094
 128.3674816  22.0617507  71.3812180 128.1562701  22.4890323  69.9443119
 132.6667382  16.7247143  76.4711749 133.2107286  17.3377101  75.9766704
 132.0854227  17.2826721  76.9878762 130.9524895  19.8467861  67.6026776
 130.8276035  19.0457601  67.0937722 131.6103986  20.3414054  67.1140746
 133.0159804  17.6476881  69.2306327 132.0690139  17.5282232  69.1584653
 133.3642577  16.7599379  69.3132588 130.0206237  17.4429597  65.4310679
 129.8731199  16.5146304  65.6118249 130.8459730  17.4649688  64.9467754
 133.6240359  18.2658156  66.5175552 134.5486906  18.0601017  66.3800003
 133.4555662  18.0174557  67.4264893 133.4135675  18.7843823  61.8737643
 133.5872552  18.2190246  61.1211495 133.9064566  19.5844718  61.6917133
 119.2312635  10.7958492  69.9401202 118.6866103  11.5718300  70.0721476
 120.1091985  11.1429297  69.7820323 134.4010847  18.1010588  58.9734541
 135.0961752  18.7217280  59.1921856 134.7433998  17.2505939  59.2486919
 120.0178657   9.9228388  72.8331359 119.2760393  10.0711024  73.4195989
 119.6971401  10.1836654  71.9698108 127.9622319  19.4644367  72.6311749
 128.2709446  19.2193513  73.5034448 128.7597801  19.6691005  72.1430619
 127.9842931  21.6182276  64.8617125 127.5447922  21.1258655  65.5549982
 128.7351048  21.0755244  64.6209200 120.4635270  17.8093817  64.8641753
 121.2893290  17.5097589  64.4840397 120.1129322  17.0401440  65.3131542
 125.4316803  17.1620285  66.9339427 124.8096813  16.4990990  66.6341655
 126.1021670  17.1881417  66.2513075 118.6643875  15.7280144  65.8230687
 117.8275784  15.3002318  65.6414688 118.6367521  15.9212587  66.7601478
 135.9896177  16.1843197  75.8073070 135.1991720  16.1667336  75.2677569
 135.7529531  16.7231490  76.5622107 124.9930310  15.7124209  60.4097887
 125.1418431  16.3959673  59.7564560 125.7996754  15.6929299  60.9247343
 122.7482943  11.7389386  61.4158956 122.5028985  10.8351716  61.6139167
 122.9178858  11.7406537  60.4738434 128.4925716  18.2072339  57.8809635
 127.9199683  18.8262526  57.4280107 129.0658510  18.7571701  58.4149557
 131.7122976  18.4909489  59.0118217 132.6453649  18.4255051  59.2151093
 131.6246189  19.3265756  58.5532750 134.3410992  17.8075360  55.9722165
 134.2624624  17.4735223  56.8657923 135.1620659  18.2997128  55.9713637
 121.7573279  11.5051933  69.3249126 121.9759289  12.4369041  69.3437159
 122.1699053  11.1459907  70.1103929 117.8481632  12.4092403  67.5772741
 117.1545103  11.9946356  67.0642695 118.5954623  12.4512940  66.9806159
 119.7618374  12.3410657  65.4538755 119.7389063  12.4398344  64.5020639
 120.0719011  13.1875808  65.7755922 122.4205752  14.3986812  69.5685370
 123.3749006  14.3670754  69.5015301 122.2218276  13.9377436  70.3835596
 123.0105134  12.9687928  72.1356168 123.8298023  13.4632007  72.1591005
 123.2841942  12.0519896  72.1073735 120.7755981  19.9406432  66.5855568
 120.6410449  19.1806832  66.0193566 120.3588043  20.6647331  66.1184357
 131.9114944  15.1243355  55.5932143 132.6150794  15.3293358  56.2089799
 131.1877593  15.6920117  55.8581227 123.9325107  20.8375749  66.7974010
 123.8157491  21.7821181  66.6952701 123.1117553  20.5349310  67.1859810
 133.8201642  15.5625884  57.6430603 134.6547245  15.1307083  57.4608078
 133.6585984  15.3907898  58.5707498 130.7893441  14.3706909  78.3340505
 131.6584601  14.5447562  77.9727140 130.3100192  15.1901326  78.2116235
 124.9579621  21.4904010  70.0129939 125.8606868  21.5227621  70.3296434
 124.7316991  20.5604461  70.0276275 126.7133223  20.2434997  66.6740017
 125.7628854  20.2436859  66.5604390 127.0165709  19.4967732  66.1576052
 142.4485917  26.0795535  67.7385780 143.0864327  25.9602283  67.0349120
 142.3306760  27.0276379  67.7973732 139.2575623  26.0322964  67.6747305
 138.9194134  25.9164028  66.7867839 140.1265391  25.6314129  67.6548311
 135.1162439  27.8858440  63.6644195 134.5527304  27.7948377  62.8960483
 135.0014834  27.0658344  64.1446688 139.7395406  27.1857815  73.6333510
 139.7284047  26.7910614  72.7614014 139.9016045  26.4523888  74.2267282
 132.6626871  29.3809632  66.5028416 133.4548162  29.0400456  66.0874715
 132.9023521  29.4904607  67.4230569 140.6961997  31.5529408  58.9758660
 140.0449977  32.1383488  58.5892674 141.4906360  32.0835603  59.0353698
 134.6217624  28.6418545  59.3745795 135.3948500  28.0947532  59.2358671
 134.9743023  29.5062794  59.5860256 136.4602667  29.9694927  72.5812694
 136.1692533  30.8740558  72.4659360 137.0959651  30.0111455  73.2956764
 137.3858874  27.3471776  69.1714054 137.9822446  27.1227798  68.4571017
 137.4433845  26.6056521  69.7739502 136.9583902  24.8011211  57.0064245
 137.2109423  24.2792732  56.2447708 136.0208461  24.6377356  57.1090928
 142.0027185  23.8046989  64.8138988 142.7890274  23.3866412  64.4629405
 142.2665889  24.7093081  64.9820636 142.1737262  29.2419840  59.5127645
 141.5383095  29.3154466  60.2248549 141.8434669  29.8313438  58.8346724
 147.4035612  23.7422222  65.7171966 148.1360784  23.1721439  65.9509796
 146.6474968  23.3543823  66.1578472 136.6780191  26.7039317  59.2088620
 136.5616449  26.0284220  59.8769704 136.7882451  26.2171691  58.3920773
 139.0211732  26.1649464  62.9135309 138.6569939  25.6380085  63.6248230
 139.8778848  25.7747933  62.7401794 138.6617219  21.1939364  57.9096657
 138.8291621  22.0619600  58.2767128 138.4714388  21.3566645  56.9857947
 141.4192552  29.6556343  69.5762488 141.1193275  30.5581381  69.4678295
 141.0743612  29.3888526  70.4283641 134.8705034  26.1070139  65.6099192
 133.9455530  25.9746354  65.8176884 135.1189447  26.8864359  66.1069135
 144.8189696  22.1738883  67.2559925 143.9106573  22.1054291  66.9618686
 144.7677292  22.6510828  68.0841751 138.6406440  23.6497021  58.8943324
 138.5206065  24.0954072  59.7328804 137.9459028  23.9982339  58.3356862
 132.2313845  25.7503413  66.4442981 132.3606226  26.0037892  67.3582393
 131.5511296  26.3431121  66.1247636 136.4013332  36.4200663  62.5433455
 136.3237362  37.3708488  62.6221936 135.7974976  36.0746535  63.2008382
 138.8930562  23.5928528  75.1994822 138.1163896  24.1522448  75.1897687
 139.5321125  24.0785311  75.7209692 146.6851342  20.3755321  69.0337799
 146.0425723  20.6687854  68.3877594 146.1806271  20.2608241  69.8390996
 144.3391506  24.1218494  59.7223658 145.2509362  24.3545881  59.5471356
 143.8301153  24.7055539  59.1598737 137.1476934  26.4013982  74.7612789
 137.8891618  26.9399026  74.4847613 136.4413919  27.0280270  74.9184341
 142.6232274  28.5443122  73.3584951 143.0315630  28.1025533  72.6139583
 141.9009535  27.9695750  73.6119144 138.9763344  23.4815729  70.7318508
 139.8224539  23.9055142  70.8753157 138.9161981  22.8249353  71.4257071
 142.9461088  29.1044313  67.1137240 142.3169951  29.2690027  66.4113308
 142.5586750  29.5185922  67.8848204 146.8250320  30.0398751  64.4681603
 146.1401358  30.4197652  63.9178637 146.9094170  30.6494077  65.2013551
 142.1262789  21.1420097  72.3899681 141.8823721  21.8962158  71.8533957
 142.4022720  21.5205445  73.2246928 144.0801252  27.6858710  71.0676947
 144.2918147  28.3290470  70.3911328 144.0331000  26.8521026  70.5998877
 141.6827481  20.2976530  67.9713519 140.8211960  20.5957784  68.2630257
 141.7089915  20.5146929  67.0394552 138.4989050  28.8418721  64.3787325
 138.9627396  29.1206424  63.5891947 138.2345848  27.9402165  64.1960415
 135.3913131  28.3890202  67.3167088 135.9614488  28.8177471  66.6784573
 135.9821243  28.1072787  68.0151274 137.4357936  24.9641873  61.1876890
 138.1381980  25.4162917  61.6550816 137.1038565  24.3225692  61.8156783
 135.8838298  23.5553630  75.5628099 135.2536958  24.2369911  75.7963496
 135.7774386  23.4436711  74.6181238 131.1783270  23.2225426  66.4894023
 130.3882324  23.4782954  66.0134134 131.6694518  24.0373764  66.5946064
 145.1947080  30.5630665  69.2399304 146.0164523  30.1610852  68.9581986
 145.1909483  30.4598899  70.1915420 133.1298016  23.5870005  63.4477500
 132.3329179  23.6988699  63.9660996 132.9023608  23.9256657  62.5818391
 138.9603683  30.1114708  71.3960015 139.0248116  30.5735116  72.2318187
 138.2514607  29.4812073  71.5242325 129.4620973  23.4755916  68.9209014
 129.7129012  24.3602926  69.1866590 129.9980522  23.2960518  68.1484106
 153.2853073  26.9069414  65.5884276 152.5316781  26.3376812  65.4328280
 153.4200614  26.8732078  66.5354910 138.6751701  31.7782816  61.2638995
 138.5397376  32.6234352  61.6923843 139.2161513  31.9802094  60.5004929
 135.1619040  17.8574396  77.9253350 134.7685986  17.3040594  78.6000995
 135.9785181  18.1684974  78.3159868 132.1281098  29.2958254  61.8366920
 132.6405619  30.0901504  61.9872485 132.7803811  28.5984544  61.7700522
 133.9375983  32.4124010  63.9189673 134.1142611  33.3341975  63.7310657
 134.7332816  32.0982429  64.3484053 138.0787001  19.2732275  75.5173607
 138.8196715  19.8739428  75.4378069 138.3104924  18.5309913  74.9591649
 133.2228339  24.4588642  73.7951837 133.1081855  23.5573899  74.0958936
 132.3672857  24.7052339  73.4436653 140.3020177  32.4006382  75.3939337
 139.8584031  31.6142761  75.0760242 140.9637391  32.5885533  74.7283228
 135.0607298  33.9302184  69.9200016 135.6114724  33.8019247  69.1477010
 134.2218774  34.2297073  69.5694909 142.4001415  32.6809182  73.4220739
 142.3819891  33.5018063  72.9301008 143.3221335  32.5563258  73.6470880
 138.8574469  30.1953312  74.2644247 139.3902806  29.4341600  74.0343555
 138.3288551  29.9026964  75.0068401 130.0930015  27.6246908  62.6126491
 130.9305237  28.0343917  62.3960198 130.2708283  26.6846350  62.5826685
 141.9894447  25.2921989  58.3010324 141.4741071  26.0626593  58.5398711
 141.7171756  24.6187125  58.9243385 139.5741558  20.1371690  63.3595562
 138.7183155  19.7478540  63.1801201 139.9868510  20.2163650  62.4995348
 141.1040705  17.6718033  67.7587122 140.6005500  17.6348168  66.9454927
 141.3971312  18.5810776  67.8183779 137.3483591  17.7556763  66.7653304
 138.2136587  17.5599571  66.4059193 137.4161100  17.5267114  67.6922660
 146.9628721  28.0454344  60.2363497 146.1858164  27.7065503  59.7918659
 147.6420202  28.0506967  59.5618462 141.7780750  23.1649081  60.1270105
 141.4730886  23.4795230  60.9780248 142.7311192  23.2430501  60.1697438
 140.2227182  29.3239304  61.7763059 139.6948544  28.5892064  61.4636296
 139.7214685  30.1013981  61.5303027 145.2020028  27.5188325  66.8930105
 144.5443703  28.2087586  66.9810234 146.0060427  27.9084757  67.2364092
 134.9545910  19.9858971  64.1369670 135.5289662  19.7634152  63.4042863
 135.5416892  20.0547665  64.8898272 144.0125487  25.8732697  64.9434047
 144.5257369  26.5062689  65.4455757 144.6626711  25.2733893  64.5777407
 135.2815497  22.0163432  58.1565556 134.4452809  22.3538118  58.4774830
 135.1420267  21.8812411  57.2192693 137.2568577  16.8600219  62.8644740
 136.6032990  16.5449237  62.2401355 137.2149052  16.2375960  63.5904563
 138.3679782  27.1419515  54.7798032 137.4606844  26.9108768  54.9789181
 138.8650814  26.3457134  54.9672013 141.2747861  35.8517022  57.6994718
 140.6009560  36.1548718  58.3079676 141.6613683  36.6546102  57.3500175
 140.4906318  23.3482153  67.1892387 139.5728879  23.5697100  67.0314076
 140.9066461  23.4228463  66.3304095 141.2741366  24.7473569  62.3195068
 142.0213185  25.2594966  62.0102190 141.5432955  24.4257621  63.1799461
 139.5468016  27.2432109  59.3022022 138.6379235  26.9591142  59.3994492
 139.5763100  27.6631188  58.4425329 144.7787283  30.8538699  63.0713190
 144.3249610  30.0129609  63.1278380 144.1481250  31.4900097  63.4087970
 143.7220203  21.7830685  64.3013857 142.9842960  21.2708071  64.6324100
 143.9746976  21.3431067  63.4897134 143.2220222  32.6915196  64.0063008
 143.5143197  33.2520253  63.2875373 143.7318843  32.9843757  64.7616167
 130.1156186  24.9637624  63.2837224 129.9180586  24.3706984  62.5588291
 129.5602850  24.6589834  64.0013163 138.0952910  24.8560730  65.4031817
 138.1501520  23.9034566  65.3274294 137.2844112  25.0120169  65.8873116
 139.2444104  28.7840853  56.6410101 138.8063534  28.0676712  56.1815738
 139.9854544  29.0116968  56.0795192 136.0345270  23.4737790  63.1622196
 135.2213135  23.7731960  63.5687388 136.5304264  23.0793479  63.8796678
 138.1853848  33.4695547  65.0956461 138.1430026  33.6956393  64.1664993
 139.1016546  33.2358921  65.2442262 141.6319481  23.9379614  71.9937090
 141.9868869  24.1651087  72.8531556 142.2791613  24.2697991  71.3714345
 147.3617218  27.0598050  62.6986419 147.2235117  27.2499646  61.7707608
 147.0053437  27.8217433  63.1554470 135.5259344  21.0456145  68.7783431
 136.1658724  20.9044904  68.0806394 134.6936875  20.7590659  68.4022033
 147.3886598  29.1274577  67.7097691 147.8223105  29.0349866  68.5580745
 148.1018179  29.1032078  67.0717707 136.3019648  30.3458576  64.8918424
 137.0960247  29.8508896  64.6900999 135.5911341  29.8176439  64.5286129
 141.1214493  32.7276671  69.2430791 141.1751515  33.2967608  70.0108507
 140.2529274  32.8978556  68.8784828 132.6102412  24.4901657  60.9678176
 131.6800000  24.4286113  61.1848138 132.7059884  23.9677610  60.1714818
 132.5287961  21.0156470  63.5556418 132.7894778  21.9301804  63.4465578
 133.3505133  20.5480913  63.7053031 134.0012886  22.4294227  70.7255243
 134.6735940  22.2211590  70.0767891 133.1742673  22.2316313  70.2860475
 148.2502148  29.1698278  70.2430576 148.4438038  30.0744088  70.4889851
 148.1502766  28.7105697  71.0769161 139.9038458  19.0556168  72.7420903
 139.2566373  19.7546118  72.6485380 140.6739474  19.4892312  73.1097152
 143.3117256  29.3205021  75.8171457 143.1602763  29.0915572  74.9001540
 143.3021936  30.2775622  75.8302802 140.0802593  26.8936933  70.8017723
 141.0094653  27.0448093  70.6286690 139.6593623  26.9820954  69.9466370
 138.8790924  30.9187598  68.5716261 138.7402010  30.5506382  69.4442199
 138.0905521  31.4335237  68.4000219 139.4739076  36.0196694  59.9141797
 139.6490832  35.5484737  60.7287420 138.7871864  36.6462460  60.1423058
 140.4296140  30.2969200  65.9605099 140.0945972  30.2569970  66.8562748
 139.9300085  29.6313916  65.4875509 134.4040384  25.7036830  71.4857680
 134.2660181  24.9717069  72.0869219 135.3145307  25.6145731  71.2041867
 143.3655331  27.6425235  56.2342158 142.7484502  26.9172063  56.1375211
 142.8971820  28.4034595  55.8909232 137.0322684  25.4156790  70.9741359
 137.7422303  24.7749982  70.9327978 136.9891992  25.6669685  71.8967540
 145.0209463  32.3524143  73.8947939 144.9622009  31.6683363  73.2278522
 145.4228981  33.0943133  73.4428565 135.7451618  22.4022008  72.7936999
 135.2088975  21.9512746  73.4458595 135.1568327  22.5367916  72.0507463
 134.0400162  39.1686057  66.6881657 134.2796760  39.8004581  67.3660676
 133.1969358  38.8174097  66.9747017 135.1553877  21.8610659  55.3563462
 134.2783343  21.7399460  54.9925709 135.6311630  21.0696737  55.1042351
 145.0226870  30.3163727  72.1261918 144.1353649  29.9789649  72.2488317
 145.5925421  29.5846758  72.3630684 126.6756017  26.6487819  65.4504970
 127.3627057  26.3349549  64.8625985 126.5204146  27.5529183  65.1772221
 131.4790739  21.5378015  69.8789993 131.3948928  20.9303685  69.1440403
 130.6573446  22.0287034  69.8799490 138.5528024  34.9765179  69.0923161
 138.4798195  35.7820151  69.6042466 138.1105417  35.1757145  68.2671183
 138.3417803  34.2136949  62.6025983 137.5585325  34.7558630  62.6964207
 139.0410548  34.7310929  63.0020224 141.6514453  20.0231579  65.2460188
 142.1483153  19.2701541  64.9261259 140.8801435  20.0595896  64.6803398
 149.5044211  25.7271944  66.8878480 149.4934087  26.6096660  66.5172413
 148.6361590  25.3743495  66.6933017 141.0126707  34.8752013  71.2481320
 141.7254679  35.5099478  71.1757222 140.5216736  34.9715879  70.4321322
 142.7344234  28.7803266  62.8198612 141.8000513  28.9004729  62.6503316
 142.9120902  27.8775733  62.5558622 138.2349422  22.1648962  64.9731873
 137.8647210  21.6120002  65.6612779 138.7308514  21.5607095  64.4206873
 146.1216785  24.6220585  63.3548646 146.5877237  25.4548577  63.2808949
 146.5724286  24.1565567  64.0593904 136.0638621  32.6246457  72.0686891
 136.7648080  33.2582940  72.2216285 135.5933736  32.9661188  71.3082530
 144.1893016  30.9664407  60.3534798 144.4652860  30.8521001  61.2628672
 143.3197515  30.5681891  60.3146971 143.8639907  25.1791064  69.8939441
 143.2111357  25.4266972  69.2391894 144.2420286  24.3655202  69.5601919
 140.8247080  35.2150757  63.9967612 141.0069475  34.3972413  64.4595364
 141.6480066  35.4318450  63.5592502 141.1589246  34.1418943  61.2582660
 141.6877012  33.6311397  60.6452822 141.4217465  33.8261473  62.1228193
 139.9127480  25.9210875  76.3805478 139.2368117  25.8205005  77.0507854
 140.7355113  25.7650089  76.8441476 131.6606339  32.1582812  69.0017994
 132.2459775  31.4126500  69.1345898 131.4631177  32.4686769  69.8854657
 134.5144994  35.1934059  64.0180436 133.8455369  35.6780187  63.5344476
 134.3757864  35.4403280  64.9323814 126.2523993  24.7288412  67.7222437
 126.2908093  24.1952003  68.5159555 125.7464286  24.2023618  67.1033414
 138.6550262  37.2277803  70.6163094 139.2068570  37.3909424  71.3812180
 138.9956456  37.8182241  69.9443119 133.6314756  19.5752953  71.2184979
 133.6956082  20.4367784  70.8062377 133.5681876  18.9626954  70.4857338
 133.1067028  21.6476085  74.8658013 133.7339067  21.2653162  75.4795538
 132.2494947  21.4290287  75.2313706 143.5061137  32.0539060  76.4711749
 144.0501041  32.6669019  75.9766704 142.9247982  32.6118639  76.9878762
 129.8832571  23.4552514  60.7976368 130.1786012  22.5463193  60.7443422
 128.9820607  23.4340254  60.4757370 141.7918650  35.1759778  67.6026776
 141.6669789  34.3749518  67.0937722 142.4497741  35.6705972  67.1140746
 133.4126818  21.5308511  66.7803917 132.6913404  22.1444479  66.6411390
 134.2020074  22.0666276  66.7020563 143.8553558  32.9768798  69.2306327
 142.9083894  32.8574150  69.1584653 144.2036331  32.0891296  69.3132588
 136.2153131  18.8662937  73.0544568 136.7387533  19.1125234  73.8170878
 135.9965465  19.6982972  72.6347706 131.6120413  21.1366612  60.9215693
 131.2833119  20.2563991  60.7390799 131.9659783  21.0814281  61.8092083
 140.8599991  32.7721515  65.4310679 140.7124954  31.8438222  65.6118249
 141.6853485  32.7941605  64.9467754 134.7262236  21.4239582  61.2891171
 135.0658308  21.9525503  60.5669779 135.1734356  21.7619988  62.0649737
 144.4634113  33.5950073  66.5175552 145.3880661  33.3892935  66.3800003
 144.2949417  33.3466475  67.4264893 137.4205677  19.8076632  70.7394239
 137.0802497  19.0084446  71.1414919 136.7144683  20.1078343  70.1671072
 136.7130383  19.9214203  59.4884464 137.4338745  20.2995456  58.9848181
 136.0895687  20.6403080  59.5919442 140.8561506  20.6259352  60.4242796
 141.0725120  21.5083990  60.1231624 140.3755573  20.2345566  59.6948438
 135.5960727  23.5845066  67.0013541 135.4505308  23.8985369  67.8937822
 135.1185931  24.2029966  66.4484439 137.4557110  20.5747613  67.0494430
 137.4418679  19.6788707  66.7126728 138.1729538  20.5818277  67.6832716
 139.3083241  21.0084954  69.0947558 139.0501019  21.9302024  69.0931888
 138.7768281  20.6115388  69.7848022 144.2529429  34.1135741  61.8737643
 144.4266307  33.5482163  61.1211495 144.7458321  34.9136636  61.6917133
 130.0706389  26.1250410  69.9401202 129.5259857  26.9010218  70.0721476
 130.9485739  26.4721214  69.7820323 136.8594006  19.4561994  62.3182000
 136.9809917  18.5278640  62.5172888 136.5696048  19.4700680  61.4060316
 150.1068821  26.8772164  63.4927943 150.5499967  26.1279489  63.0947066
 149.2295331  26.8682300  63.1101675 145.2404602  33.4302505  58.9734541
 145.9355507  34.0509198  59.1921856 145.5827752  32.5797856  59.2486919
 130.8572411  25.2520306  72.8331359 130.1154147  25.4002942  73.4195989
 130.5365155  25.5128572  71.9698108 147.1396025  30.8802211  60.5021872
 147.6647349  31.2189484  59.7771192 147.0518378  29.9449226  60.3185007
 138.8016074  34.7936284  72.6311749 139.1103200  34.5485431  73.5034448
 139.5991556  34.9982923  72.1430619 138.8236686  36.9474194  64.8617125
 138.3841676  36.4550573  65.5549982 139.5744803  36.4047162  64.6209200
 131.3029025  33.1385735  64.8641753 132.1287045  32.8389507  64.4840397
 130.9523077  32.3693357  65.3131542 136.2710558  32.4912203  66.9339427
 135.6490567  31.8282908  66.6341655 136.9415425  32.5173335  66.2513075
 129.5037630  31.0572061  65.8230687 128.6669538  30.6294236  65.6414688
 129.4761275  31.2504505  66.7601478 136.3435085  20.9693991  76.5271933
 136.3923241  21.8456114  76.1449703 136.8857600  20.4271384  75.9543576
 146.8289931  31.5135114  75.8073070 146.0385475  31.4959253  75.2677569
 146.5923286  32.0523408  76.5622107 146.9487806  28.3627581  73.1205799
 146.9985811  28.1977588  74.0621321 146.8401730  27.4954840  72.7303679
 135.8324065  31.0416126  60.4097887 135.9812185  31.7251591  59.7564560
 136.6390508  31.0221217  60.9247343 144.2391569  24.3458509  74.4365105
 145.1401431  24.2064974  74.1449103 144.3139543  24.5112964  75.3763283
 138.5734374  21.7225364  73.2818292 137.7037683  22.0158930  73.0100880
 138.8093854  22.3065809  74.0025555 148.4506003  30.7824522  73.3647820
 148.1590811  31.1454503  74.2011281 147.8378134  30.0691531  73.1861152
 149.6501685  28.3477402  65.8850390 150.4848577  28.7867206  66.0487951
 149.7860814  27.8716055  65.0658636 146.6993191  25.9057137  71.8327878
 147.1747313  26.0984783  71.0246729 145.7758757  25.9616323  71.5871262
 133.5876698  27.0681304  61.4158956 133.3422740  26.1643634  61.6139167
 133.7572612  27.0698455  60.4738434 141.2773408  17.9404980  70.7983712
 141.7955352  18.6766007  70.4730201 140.9228541  18.2468974  71.6330471
 132.8572345  22.8009662  58.9145118 132.1641590  22.8754017  58.2585154
 132.6124097  22.0370005  59.4366635 139.3319470  33.5364257  57.8809635
 138.7593437  34.1554444  57.4280107 139.9052264  34.0863619  58.4149557
 145.3994860  22.7822897  70.0656184 146.3512283  22.8820995  70.0868408
 145.2298311  21.9901166  70.5754268 143.4209240  19.8678480  70.2515585
 142.8259172  20.1483493  69.5562073 143.1358936  20.3572381  71.0232326
 142.5516730  33.8201407  59.0118217 143.4847403  33.7546969  59.2151093
 142.4639943  34.6557674  58.5532750 145.1804747  33.1367277  55.9722165
 145.1018378  32.8027141  56.8657923 146.0014414  33.6289045  55.9713637
 147.8782938  26.0029017  69.1798483 147.8459258  25.0645017  69.3658167
 148.4883562  26.0813053  68.4464308 139.7166269  24.8725070  55.2225687
 140.6625374  24.7431278  55.2914105 139.3380514  24.1339732  55.6995116
 148.0277427  22.7940060  69.2256767 147.5116475  22.0098517  69.0386695
 148.9117375  22.4658777  69.3903286 153.6959488  27.0645024  68.3204520
 154.4262876  26.8030312  68.8812223 153.0866433  26.3273745  68.3606588
 151.7774785  25.2052886  68.9178971 151.0507949  25.0708851  68.3095463
 151.3622072  25.5129715  69.7235689 139.6004961  28.9242816  76.6826344
 140.5207971  29.1021415  76.8766391 139.5654544  27.9798861  76.5306044
 137.9009186  22.7975046  55.1580573 136.9940641  22.5008159  55.2343286
 138.1785167  22.5004864  54.2914859 128.8187126  24.1181409  65.6079619
 128.4989911  23.2646718  65.3153993 128.2720555  24.3329988  66.3637586
 132.5967034  26.8343850  69.3249126 132.8153044  27.7660958  69.3437159
 133.0092808  26.4751825  70.1103929 139.5171252  17.3411936  61.3124814
 138.7071980  16.9959021  61.6880060 140.2055669  17.0319479  61.9012425
 137.4694899  22.4077056  78.7151874 137.3691626  23.3571413  78.6463966
 137.2516441  22.0795295  77.8427945 136.6707971  19.6561981  55.2992552
 137.5327135  19.9816880  55.5588369 136.8558315  18.8693477  54.7865618
 128.6875386  27.7384321  67.5772741 127.9938858  27.3238274  67.0642695
 129.4348377  27.7804857  66.9806159 137.3326169  25.8374195  77.5316936
 136.8493251  26.6374555  77.7380825 137.4187108  25.8482140  76.5784380
 130.6012129  27.6702575  65.4538755 130.5782817  27.7690262  64.5020639
 130.9112765  28.5167726  65.7755922 133.2599507  29.7278730  69.5685370
 134.2142760  29.6962672  69.5015301 133.0612030  29.2669353  70.3835596
 133.8498889  28.2979846  72.1356168 134.6691778  28.7923924  72.1591005
 134.1235697  27.3811814  72.1073735 143.6065485  20.6890598  61.4984123
 142.7191340  20.9740249  61.2804318 144.0219474  20.5284361  60.6511400
 146.9580021  20.7137119  65.2138462 147.7340411  21.2033572  65.4863079
 146.2328155  21.1395173  65.6710332 149.3952580  21.4264738  66.2712403
 149.9897071  21.1860474  65.5605711 149.4679164  20.7071869  66.8985939
 131.6149736  35.2698349  66.5855568 131.4804204  34.5098750  66.0193566
 131.1981798  35.9939249  66.1184357 142.7508699  30.4535273  55.5932143
 143.4544549  30.6585275  56.2089799 142.0271347  31.0212035  55.8581227
 143.5806509  26.2045134  61.7134413 143.5241710  26.6613685  60.8742046
 144.1334851  25.4435819  61.5357256 147.3911315  21.9934866  62.5384533
 147.1348249  21.5931502  63.3692740 146.7664183  22.7078660  62.4134672
 151.7023653  24.7330939  65.0455824 151.1423211  24.8024128  65.8187386
 151.0967156  24.5571924  64.3255320 134.7718861  36.1667666  66.7974010
 134.6551246  37.1113099  66.6952701 133.9511308  35.8641228  67.1859810
 144.6595396  30.8917802  57.6430603 145.4941000  30.4599000  57.4608078
 144.4979739  30.7199816  58.5707498 144.3141288  27.3949915  59.0086942
 144.2590092  27.2294187  58.0675387 143.6887343  28.1025948  59.1649132
 129.1033803  22.6317980  72.8348365 129.7492667  22.1216934  73.3235590
 128.8950954  23.3686661  73.4091790 141.6287195  29.6998827  78.3340505
 142.4978355  29.8739479  77.9727140 141.1493947  30.5193244  78.2116235
 137.6237414  16.8958024  58.5872261 137.6116084  17.8399864  58.7440532
 138.5160836  16.7128170  58.2931722 135.7973376  36.8195928  70.0129939
 136.7000622  36.8519538  70.3296434 135.5710746  35.8896379  70.0276275
 137.5526978  35.5726915  66.6740017 136.6022609  35.5728776  66.5604390
 137.8559464  34.8259649  66.1576052 133.4431294  19.7785597  76.9323379
 134.3062756  19.4222402  77.1426703 132.8696705  19.4399492  77.6198783
 153.2879671  41.4087453  67.7385780 153.9258081  41.2894200  67.0349120
 153.1700514  42.3568297  67.7973732 150.0969377  41.3614881  67.6747305
 149.7587889  41.2455946  66.7867839 150.9659146  40.9606046  67.6548311
 145.9556193  43.2150358  63.6644195 145.3921058  43.1240295  62.8960483
 145.8408588  42.3950262  64.1446688 150.5789160  42.5149733  73.6333510
 150.5677801  42.1202531  72.7614014 150.7409800  41.7815806  74.2267282
 143.5020625  44.7101549  66.5028416 144.2941917  44.3692374  66.0874715
 143.7417275  44.8196524  67.4230569 151.5355752  46.8821325  58.9758660
 150.8843732  47.4675406  58.5892674 152.3300115  47.4127520  59.0353698
 145.4611379  43.9710462  59.3745795 146.2342255  43.4239450  59.2358671
 145.8136778  44.8354712  59.5860256 147.2996422  45.2986845  72.5812694
 147.0086288  46.2032476  72.4659360 147.9353406  45.3403372  73.2956764
 148.2252628  42.6763693  69.1714054 148.8216201  42.4519716  68.4571017
 148.2827600  41.9348439  69.7739502 147.7977657  40.1303129  57.0064245
 148.0503177  39.6084650  56.2447708 146.8602216  39.9669274  57.1090928
 152.8420940  39.1338907  64.8138988 153.6284029  38.7158330  64.4629405
 153.1059644  40.0384999  64.9820636 153.0131017  44.5711757  59.5127645
 152.3776850  44.6446384  60.2248549 152.6828423  45.1605356  58.8346724
 158.2429367  39.0714140  65.7171966 158.9754539  38.5013357  65.9509796
 157.4868722  38.6835741  66.1578472 147.5173946  42.0331235  59.2088620
 147.4010204  41.3576138  59.8769704 147.6276205  41.5463608  58.3920773
 149.8605486  41.4941382  62.9135309 149.4963694  40.9672003  63.6248230
 150.7172602  41.1039851  62.7401794 155.7654787  32.7835714  70.1766575
 155.4338112  33.6531125  69.9527790 155.1700400  32.4671998  70.8560605
 149.5010973  36.5231281  57.9096657 149.6685376  37.3911518  58.2767128
 149.3108143  36.6858563  56.9857947 152.2586307  44.9848260  69.5762488
 151.9587030  45.8873299  69.4678295 151.9137366  44.7180443  70.4283641
 145.7098788  41.4362057  65.6099192 144.7849285  41.3038271  65.8176884
 145.9583201  42.2156276  66.1069135 155.6583450  37.5030800  67.2559925
 154.7500328  37.4346209  66.9618686 155.6071046  37.9802745  68.0841751
 149.4800194  38.9788939  58.8943324 149.3599820  39.4245990  59.7328804
 148.7852783  39.3274257  58.3356862 143.0707599  41.0795331  66.4442981
 143.1999980  41.3329810  67.3582393 142.3905050  41.6723039  66.1247636
 147.2407086  51.7492581  62.5433455 147.1631116  52.7000406  62.6221936
 146.6368730  51.4038453  63.2008382 149.7324316  38.9220446  75.1994822
 148.9557650  39.4814366  75.1897687 150.3714879  39.4077229  75.7209692
 157.5245097  35.7047239  69.0337799 156.8819477  35.9979772  68.3877594
 157.0200025  35.5900159  69.8390996 155.1785260  39.4510412  59.7223658
 156.0903117  39.6837799  59.5471356 154.6694908  40.0347456  59.1598737
 147.9870689  41.7305899  74.7612789 148.7285373  42.2690943  74.4847613
 147.2807674  42.3572188  74.9184341 153.4626028  43.8735040  73.3584951
 153.8709384  43.4317450  72.6139583 152.7403290  43.2987667  73.6119144
 149.8157098  38.8107647  70.7318508 150.6618293  39.2347060  70.8753157
 149.7555736  38.1541271  71.4257071 153.7854843  44.4336230  67.1137240
 153.1563705  44.5981945  66.4113308 153.3980505  44.8477840  67.8848204
 157.6644075  45.3690668  64.4681603 156.9795113  45.7489570  63.9178637
 157.7487924  45.9785995  65.2013551 152.9656544  36.4712015  72.3899681
 152.7217475  37.2254076  71.8533957 153.2416474  36.8497363  73.2246928
 154.9195006  43.0150627  71.0676947 155.1311902  43.6582387  70.3911328
 154.8724755  42.1812944  70.5998877 152.5221235  35.6268448  67.9713519
 151.6605714  35.9249702  68.2630257 152.5483670  35.8438847  67.0394552
 149.3382805  44.1710639  64.3787325 149.8021150  44.4498342  63.5891947
 149.0739603  43.2694083  64.1960415 146.2306886  43.7182120  67.3167088
 146.8008243  44.1469388  66.6784573 146.8214998  43.4364705  68.0151274
 148.2751691  40.2933791  61.1876890 148.9775734  40.7454835  61.6550816
 147.9432319  39.6517610  61.8156783 146.7232052  38.8845548  75.5628099
 146.0930713  39.5661828  75.7963496 146.6168140  38.7728629  74.6181238
 142.0177025  38.5517344  66.4894023 141.2276079  38.8074872  66.0134134
 142.5088272  39.3665681  66.5946064 156.0340834  45.8922583  69.2399304
 156.8558278  45.4902770  68.9581986 156.0303237  45.7890817  70.1915420
 143.9691770  38.9161923  63.4477500 143.1722933  39.0280617  63.9660996
 143.7417362  39.2548575  62.5818391 149.7997438  45.4406626  71.3960015
 149.8641870  45.9027033  72.2318187 149.0908362  44.8103991  71.5242325
 140.3014728  38.8047834  68.9209014 140.5522766  39.6894844  69.1866590
 140.8374276  38.6252436  68.1484106 149.5145455  47.1074734  61.2638995
 149.3791130  47.9526269  61.6923843 150.0555268  47.3094011  60.5004929
 146.0012795  33.1866313  77.9253350 145.6079741  32.6332512  78.6000995
 146.8178935  33.4976892  78.3159868 142.9674853  44.6250172  61.8366920
 143.4799373  45.4193422  61.9872485 143.6197566  43.9276462  61.7700522
 144.7769737  47.7415928  63.9189673 144.9536366  48.6633893  63.7310657
 145.5726571  47.4274347  64.3484053 148.9180756  34.6024192  75.5173607
 149.6590469  35.2031346  75.4378069 149.1498679  33.8601830  74.9591649
 144.0622094  39.7880560  73.7951837 143.9475609  38.8865817  74.0958936
 143.2066612  40.0344257  73.4436653 151.1413932  47.7298300  75.3939337
 150.6977786  46.9434679  75.0760242 151.8031145  47.9177451  74.7283228
 145.9001053  49.2594102  69.9200016 146.4508478  49.1311165  69.1477010
 145.0612529  49.5588991  69.5694909 153.2395170  48.0101100  73.4220739
 153.2213645  48.8309981  72.9301008 154.1615090  47.8855175  73.6470880
 149.6968224  45.5245229  74.2644247 150.2296561  44.7633518  74.0343555
 149.1682305  45.2318881  75.0068401 152.8637919  30.6305295  69.7937889
 152.5202188  31.5206937  69.7176999 153.2316882  30.4406953  68.9307474
 140.9323770  42.9538826  62.6126491 141.7698992  43.3635834  62.3960198
 141.1102037  42.0138268  62.5826685 152.8288202  40.6213907  58.3010324
 152.3134825  41.3918511  58.5398711 152.5565510  39.9479043  58.9243385
 150.4135313  35.4663607  63.3595562 149.5576909  35.0770458  63.1801201
 150.8262264  35.5455568  62.4995348 151.9434459  33.0009951  67.7587122
 151.4399255  32.9640086  66.9454927 152.2365066  33.9102693  67.8183779
 148.1877345  33.0848680  66.7653304 149.0530342  32.8891489  66.4059193
 148.2554854  32.8559032  67.6922660 157.8022476  43.3746261  60.2363497
 157.0251919  43.0357421  59.7918659 158.4813957  43.3798884  59.5618462
 152.6174505  38.4940999  60.1270105 152.3124640  38.8087148  60.9780248
 153.5704947  38.5722419  60.1697438 151.0620937  44.6531222  61.7763059
 150.5342298  43.9183982  61.4636296 150.5608439  45.4305898  61.5303027
 156.0413783  42.8480242  66.8930105 155.3837457  43.5379504  66.9810234
 156.8454182  43.2376674  67.2364092 145.7939664  35.3150888  64.1369670
 146.3683416  35.0926070  63.4042863 146.3810647  35.3839583  64.8898272
 154.8519241  41.2024615  64.9434047 155.3651123  41.8354607  65.4455757
 155.5020465  40.6025811  64.5777407 146.1209251  37.3455349  58.1565556
 145.2846564  37.6830036  58.4774830 145.9814021  37.2104329  57.2192693
 148.0962332  32.1892137  62.8644740 147.4426744  31.8741154  62.2401355
 148.0542806  31.5667878  63.5904563 149.2073537  42.4711432  54.7798032
 148.3000599  42.2400686  54.9789181 149.7044569  41.6749051  54.9672013
 152.1141616  51.1808939  57.6994718 151.4403314  51.4840636  58.3079676
 152.5007438  51.9838020  57.3500175 151.3300072  38.6774071  67.1892387
 150.4122634  38.8989018  67.0314076 151.7460216  38.7520381  66.3304095
 152.1135120  40.0765486  62.3195068 152.8606939  40.5886884  62.0102190
 152.3826710  39.7549539  63.1799461 150.3861770  42.5724027  59.3022022
 149.4772990  42.2883060  59.3994492 150.4156854  42.9923106  58.4425329
 155.6181038  46.1830617  63.0713190 155.1643365  45.3421526  63.1278380
 154.9875004  46.8192015  63.4087970 154.5613957  37.1122603  64.3013857
 153.8236714  36.5999989  64.6324100 154.8140731  36.6722984  63.4897134
 154.0613977  48.0207113  64.0063008 154.3536951  48.5812170  63.2875373
 154.5712597  48.3135674  64.7616167 154.6625585  29.8898855  64.8955626
 154.9684461  29.0296218  64.6081541 155.3878189  30.4816475  64.6954620
 140.9549941  40.2929541  63.2837224 140.7574340  39.6998902  62.5588291
 140.3996605  39.9881751  64.0013163 148.9346664  40.1852648  65.4031817
 148.9895274  39.2326484  65.3274294 148.1237866  40.3412087  65.8873116
 150.0837858  44.1132771  56.6410101 149.6457288  43.3968630  56.1815738
 150.8248299  44.3408886  56.0795192 146.8739024  38.8029707  63.1622196
 146.0606890  39.1023878  63.5687388 147.3698018  38.4085396  63.8796678
 149.0247602  48.7987464  65.0956461 148.9823781  49.0248311  64.1664993
 149.9410301  48.5650839  65.2442262 152.4713236  39.2671532  71.9937090
 152.8262624  39.4943005  72.8531556 153.1185367  39.5989909  71.3714345
 158.2010973  42.3889968  62.6986419 158.0628871  42.5791564  61.7707608
 157.8447192  43.1509351  63.1554470 146.3653099  36.3748063  68.7783431
 147.0052478  36.2336822  68.0806394 145.5330630  36.0882576  68.4022033
 158.2280352  44.4566495  67.7097691 158.6616859  44.3641784  68.5580745
 158.9411933  44.4323995  67.0717707 147.1413403  45.6750493  64.8918424
 147.9354001  45.1800814  64.6900999 146.4305095  45.1468357  64.5286129
 151.9608247  48.0568589  69.2430791 152.0145270  48.6259525  70.0108507
 151.0923029  48.2270474  68.8784828 143.4496166  39.8193575  60.9678176
 142.5193754  39.7578031  61.1848138 143.5453638  39.2969528  60.1714818
 143.3681715  36.3448388  63.5556418 143.6288533  37.2593721  63.4465578
 144.1898888  35.8772831  63.7053031 144.8406641  37.7586145  70.7255243
 145.5129694  37.5503507  70.0767891 144.0136427  37.5608231  70.2860475
 150.7432213  34.3848086  72.7420903 150.0960128  35.0838036  72.6485380
 151.5133228  34.8184230  73.1097152 154.1511011  44.6496938  75.8171457
 153.9996517  44.4207490  74.9001540 154.1415690  45.6067540  75.8302802
 150.9196347  42.2228851  70.8017723 151.8488407  42.3740011  70.6286690
 150.4987377  42.3112872  69.9466370 149.7184679  46.2479515  68.5716261
 149.5795765  45.8798300  69.4442199 148.9299275  46.7627155  68.4000219
 150.3132831  51.3488612  59.9141797 150.4884587  50.8776655  60.7287420
 149.6265619  51.9754378  60.1423058 151.2689894  45.6261118  65.9605099
 150.9339727  45.5861888  66.8562748 150.7693840  44.9605834  65.4875509
 145.2434138  41.0328748  71.4857680 145.1053936  40.3008987  72.0869219
 146.1539061  40.9437648  71.2041867 154.2049086  42.9717152  56.2342158
 153.5878256  42.2463981  56.1375211 153.7365574  43.7326513  55.8909232
 147.8716439  40.7448707  70.9741359 148.5816057  40.1041900  70.9327978
 147.8285747  40.9961602  71.8967540 155.8603217  47.6816061  73.8947939
 155.8015763  46.9975281  73.2278522 156.2622736  48.4235051  73.4428565
 146.5845373  37.7313925  72.7936999 146.0482730  37.2804664  73.4458595
 145.9962081  37.8659834  72.0507463 144.8793916  54.4977975  66.6881657
 145.1190514  55.1296499  67.3660676 144.0363113  54.1466015  66.9747017
 145.9947632  37.1902577  55.3563462 145.1177098  37.0691377  54.9925709
 146.4705385  36.3988655  55.1042351 155.8620625  45.6455645  72.1261918
 154.9747403  45.3081566  72.2488317 156.4319176  44.9138676  72.3630684
 137.5149772  41.9779736  65.4504970 138.2020812  41.6641466  64.8625985
 137.3597900  42.8821101  65.1772221 142.3184494  36.8669933  69.8789993
 142.2342683  36.2595603  69.1440403 141.4967200  37.3578951  69.8799490
 149.3921778  50.3057097  69.0923161 149.3191949  51.1112069  69.6042466
 148.9499171  50.5049063  68.2671183 149.1811558  49.5428867  62.6025983
 148.3979080  50.0850547  62.6964207 149.8804303  50.0602847  63.0020224
 152.4908208  35.3523497  65.2460188 152.9876907  34.5993459  64.9261259
 151.7195189  35.3887813  64.6803398 151.8520462  50.2043931  71.2481320
 152.5648434  50.8391396  71.1757222 151.3610490  50.3007797  70.4321322
 153.5737988  44.1095184  62.8198612 152.6394267  44.2296646  62.6503316
 153.7514657  43.2067651  62.5558622 149.0743176  37.4940880  64.9731873
 148.7040964  36.9411920  65.6612779 149.5702269  36.8899013  64.4206873
 156.9610540  39.9512503  63.3548646 157.4270992  40.7840495  63.2808949
 157.4118040  39.4857485  64.0593904 146.9032375  47.9538375  72.0686891
 147.6041835  48.5874857  72.2216285 146.4327490  48.2953106  71.3082530
 155.0286771  46.2956324  60.3534798 155.3046615  46.1812919  61.2628672
 154.1591270  45.8973809  60.3146971 154.9327203  32.3193090  67.3939547
 154.0190282  32.5497317  67.5621754 155.3620304  32.4031534  68.2453580
 154.7033661  40.5082982  69.8939441 154.0505111  40.7558889  69.2391894
 155.0814041  39.6947120  69.5601919 151.6640835  50.5442675  63.9967612
 151.8463229  49.7264331  64.4595364 152.4873821  50.7610367  63.5592502
 151.9983000  49.4710860  61.2582660 152.5270767  48.9603315  60.6452822
 152.2611220  49.1553390  62.1228193 150.7521234  41.2502793  76.3805478
 150.0761871  41.1496922  77.0507854 151.5748868  41.0942007  76.8441476
 142.5000093  47.4874730  69.0017994 143.0853530  46.7418417  69.1345898
 142.3024932  47.7978686  69.8854657 145.3538748  50.5225977  64.0180436
 144.6849124  51.0072105  63.5344476 145.2151618  50.7695197  64.9323814
 137.0917748  40.0580330  67.7222437 137.1301847  39.5243920  68.5159555
 136.5858041  39.5315535  67.1033414 149.4944017  52.5569720  70.6163094
 150.0462325  52.7201342  71.3812180 149.8350210  53.1474158  69.9443119
 144.4708510  34.9044870  71.2184979 144.5349837  35.7659701  70.8062377
 144.4075630  34.2918872  70.4857338 143.9460783  36.9768003  74.8658013
 144.5732821  36.5945080  75.4795538 143.0888702  36.7582205  75.2313706
 154.3454891  47.3830978  76.4711749 154.8894795  47.9960936  75.9766704
 153.7641736  47.9410556  76.9878762 140.7226325  38.7844432  60.7976368
 141.0179767  37.8755110  60.7443422 139.8214361  38.7632171  60.4757370
 152.6312404  50.5051696  67.6026776 152.5063544  49.7041436  67.0937722
 153.2891495  50.9997889  67.1140746 144.2520572  36.8600429  66.7803917
 143.5307158  37.4736396  66.6411390 145.0413828  37.3958193  66.7020563
 154.6947313  48.3060716  69.2306327 153.7477648  48.1866067  69.1584653
 155.0430086  47.4183214  69.3132588 147.0546886  34.1954855  73.0544568
 147.5781288  34.4417152  73.8170878 146.8359219  35.0274890  72.6347706
 142.4514167  36.4658530  60.9215693 142.1226873  35.5855909  60.7390799
 142.8053538  36.4106198  61.8092083 151.6993746  48.1013432  65.4310679
 151.5518708  47.1730140  65.6118249 152.5247239  48.1233523  64.9467754
 145.5655990  36.7531499  61.2891171 145.9052063  37.2817421  60.5669779
 146.0128111  37.0911906  62.0649737 155.3027868  48.9241991  66.5175552
 156.2274415  48.7184852  66.3800003 155.1343171  48.6758392  67.4264893
 148.2599431  35.1368550  70.7394239 147.9196251  34.3376363  71.1414919
 147.5538437  35.4370261  70.1671072 148.9115903  32.2217863  69.1921562
 149.7341972  31.7478341  69.0700452 149.1553966  33.0008346  69.6920248
 147.5524137  35.2506121  59.4884464 148.2732500  35.6287374  58.9848181
 146.9289441  35.9694998  59.5919442 151.6955260  35.9551270  60.4242796
 151.9118875  36.8375908  60.1231624 151.2149327  35.5637483  59.6948438
 146.4354482  38.9136983  67.0013541 146.2899062  39.2277286  67.8937822
 145.9579685  39.5321884  66.4484439 148.2950864  35.9039531  67.0494430
 148.2812433  35.0080624  66.7126728 149.0123293  35.9110195  67.6832716
 150.1476995  36.3376871  69.0947558 149.8894773  37.2593942  69.0931888
 149.6162036  35.9407306  69.7848022 155.0923184  49.4427658  61.8737643
 155.2660061  48.8774081  61.1211495 155.5852075  50.2428553  61.6917133
 140.9100144  41.4542328  69.9401202 140.3653612  42.2302136  70.0721476
 141.7879494  41.8013132  69.7820323 147.6987760  34.7853911  62.3182000
 147.8203672  33.8570558  62.5172888 147.4089803  34.7992597  61.4060316
 150.5678951  32.4708822  65.4548720 150.5900648  32.5348155  64.5000700
 150.9847010  31.6313331  65.6489226 156.0798356  48.7594423  58.9734541
 156.7749261  49.3801116  59.1921856 156.4221507  47.9089774  59.2486919
 141.6966166  40.5812224  72.8331359 140.9547902  40.7294859  73.4195989
 141.3758910  40.8420489  71.9698108 157.9789780  46.2094128  60.5021872
 158.5041104  46.5481401  59.7771192 157.8912132  45.2741144  60.3185007
 149.6409828  50.1228202  72.6311749 149.9496955  49.8777349  73.5034448
 150.4385310  50.3274841  72.1430619 149.6630440  52.2766112  64.8617125
 149.2235431  51.7842490  65.5549982 150.4138557  51.7339079  64.6209200
 142.1422779  48.4677653  64.8641753 142.9680799  48.1681424  64.4840397
 141.7916831  47.6985275  65.3131542 147.1104312  47.8204121  66.9339427
 146.4884322  47.1574826  66.6341655 147.7809179  47.8465253  66.2513075
 140.3431384  46.3863979  65.8230687 139.5063293  45.9586153  65.6414688
 140.3155030  46.5796422  66.7601478 147.1828840  36.2985909  76.5271933
 147.2316995  37.1748032  76.1449703 147.7251354  35.7563302  75.9543576
 157.6683686  46.8427032  75.8073070 156.8779229  46.8251171  75.2677569
 157.4317040  47.3815326  76.5622107 157.7881561  43.6919498  73.1205799
 157.8379566  43.5269506  74.0621321 157.6795484  42.8246757  72.7303679
 146.6717819  46.3708044  60.4097887 146.8205940  47.0543509  59.7564560
 147.4784263  46.3513134  60.9247343 155.0785323  39.6750426  74.4365105
 155.9795186  39.5356891  74.1449103 155.1533298  39.8404881  75.3763283
 149.4128128  37.0517281  73.2818292 148.5431438  37.3450847  73.0100880
 149.6487609  37.6357726  74.0025555 157.5386946  41.2349055  71.8327878
 158.0141067  41.4276701  71.0246729 156.6152511  41.2908240  71.5871262
 144.4270452  42.3973222  61.4158956 144.1816494  41.4935552  61.6139167
 144.5966367  42.3990372  60.4738434 152.1167162  33.2696898  70.7983712
 152.6349106  34.0057925  70.4730201 151.7622295  33.5760891  71.6330471
 143.6966100  38.1301579  58.9145118 143.0035345  38.2045934  58.2585154
 143.4517852  37.3661923  59.4366635 152.3679756  29.6897181  66.3184609
 152.6481510  29.0220370  66.9445035 153.1530363  29.8826276  65.8059272
 150.1713225  48.8656175  57.8809635 149.5987192  49.4846362  57.4280107
 150.7446019  49.4155536  58.4149557 156.2388615  38.1114815  70.0656184
 157.1906038  38.2112912  70.0868408 156.0692065  37.3193083  70.5754268
 154.2602994  35.1970398  70.2515585 153.6652926  35.4775411  69.5562073
 153.9752691  35.6864299  71.0232326 153.3910485  49.1493325  59.0118217
 154.3241158  49.0838886  59.2151093 153.3033697  49.9849592  58.5532750
 156.0198501  48.4659195  55.9722165 155.9412133  48.1319059  56.8657923
 156.8408168  48.9580963  55.9713637 150.5560023  40.2016987  55.2225687
 151.5019128  40.0723195  55.2914105 150.1774268  39.4631649  55.6995116
 156.5281908  31.8672993  65.1852579 156.3306729  31.5588082  66.0695911
 157.1381614  32.5934632  65.3150509 150.4398716  44.2534733  76.6826344
 151.3601725  44.4313332  76.8766391 150.4048299  43.3090779  76.5306044
 148.7402941  38.1266964  55.1580573 147.8334396  37.8300076  55.2343286
 149.0178922  37.8296782  54.2914859 139.6580881  39.4473327  65.6079619
 139.3383665  38.5938635  65.3153993 139.1114309  39.6621905  66.3637586
 143.4360788  42.1635768  69.3249126 143.6546798  43.0952876  69.3437159
 143.8486562  41.8043743  70.1103929 150.3565006  32.6703853  61.3124814
 149.5465735  32.3250938  61.6880060 151.0449423  32.3611397  61.9012425
 152.2855555  31.7481900  62.9349111 152.8386593  32.1677354  63.5939134
 152.5225641  30.8217648  62.9772067 148.3088654  37.7368974  78.7151874
 148.2085381  38.6863331  78.6463966 148.0910196  37.4087213  77.8427945
 147.5101725  34.9853899  55.2992552 148.3720889  35.3108797  55.5588369
 147.6952069  34.1985395  54.7865618 139.5269141  43.0676239  67.5772741
 138.8332612  42.6530191  67.0642695 140.2742132  43.1096775  66.9806159
 155.6634362  33.8582425  62.4427775 155.0833031  34.5167229  62.0605827
 155.3970294  33.0359770  62.0315192 154.1137928  33.2587483  64.6449095
 154.6137706  33.3704018  63.8363414 154.7573536  32.9548536  65.2849904
 148.1719924  41.1666113  77.5316936 147.6887006  41.9666473  77.7380825
 148.2580863  41.1774058  76.5784380 141.4405883  42.9994492  65.4538755
 141.4176572  43.0982180  64.5020639 141.7506520  43.8459643  65.7755922
 144.0993261  45.0570647  69.5685370 145.0536515  45.0254590  69.5015301
 143.9005785  44.5961271  70.3835596 144.6892643  43.6271763  72.1356168
 145.5085532  44.1215842  72.1591005 144.9629451  42.7103732  72.1073735
 154.4459240  36.0182516  61.4984123 153.5585095  36.3032166  61.2804318
 154.8613229  35.8576279  60.6511400 157.7973776  36.0429037  65.2138462
 158.5734166  36.5325489  65.4863079 157.0721910  36.4687091  65.6710332
 142.4543490  50.5990267  66.5855568 142.3197958  49.8390668  66.0193566
 142.0375552  51.3231167  66.1184357 153.5902453  45.7827190  55.5932143
 154.2938303  45.9877193  56.2089799 152.8665102  46.3503952  55.8581227
 154.4200263  41.5337052  61.7134413 154.3635465  41.9905603  60.8742046
 154.9728606  40.7727736  61.5357256 158.2305069  37.3226784  62.5384533
 157.9742004  36.9223419  63.3692740 157.6057937  38.0370578  62.4134672
 145.6112616  51.4959584  66.7974010 145.4945000  52.4405016  66.6952701
 144.7905062  51.1933145  67.1859810 155.4989151  46.2209720  57.6430603
 156.3334754  45.7890918  57.4608078 155.3373493  46.0491733  58.5707498
 155.1535043  42.7241833  59.0086942 155.0983846  42.5586104  58.0675387
 154.5281098  43.4317866  59.1649132 139.9427558  37.9609897  72.8348365
 140.5886421  37.4508851  73.3235590 139.7344709  38.6978579  73.4091790
 152.4680950  45.0290745  78.3340505 153.3372110  45.2031397  77.9727140
 151.9887701  45.8485162  78.2116235 148.4631168  32.2249942  58.5872261
 148.4509838  33.1691782  58.7440532 149.3554590  32.0420087  58.2931722
 146.6367130  52.1487846  70.0129939 147.5394377  52.1811456  70.3296434
 146.4104500  51.2188297  70.0276275 148.3920732  50.9018832  66.6740017
 147.4416363  50.9020694  66.5604390 148.6953218  50.1551567  66.1576052
 152.2783288  28.8192719  62.8418198 151.5115683  28.2651205  62.9874880
 152.6893993  28.8914587  63.7032349 144.2825049  35.1077514  76.9323379
 145.1456510  34.7514319  77.1426703 143.7090459  34.7691409  77.6198783
 156.7949948  58.5442275  63.6644195 156.2314813  58.4532212  62.8960483
 156.6802343  57.7242180  64.1446688 154.3414380  60.0393467  66.5028416
 155.1335671  59.6984292  66.0874715 154.5811030  60.1488442  67.4230569
 156.3005133  59.3002380  59.3745795 157.0736009  58.7531367  59.2358671
 156.6530532  60.1646629  59.5860256 158.1390176  60.6278762  72.5812694
 157.8480042  61.5324393  72.4659360 158.7747160  60.6695290  73.2956764
 158.6371411  55.4595046  57.0064245 158.8896932  54.9376568  56.2447708
 157.6995970  55.2961192  57.1090928 158.3567700  57.3623152  59.2088620
 158.2403958  56.6868056  59.8769704 158.4669960  56.8755526  58.3920773
 156.5492543  56.7653975  65.6099192 155.6243039  56.6330189  65.8176884
 156.7976956  57.5448194  66.1069135 153.9101354  56.4087248  66.4442981
 154.0393735  56.6621727  67.3582393 153.2298805  57.0014956  66.1247636
 158.0800841  67.0784498  62.5433455 158.0024871  68.0292323  62.6221936
 157.4762485  66.7330371  63.2008382 157.0700640  59.0474038  67.3167088
 157.6401997  59.4761306  66.6784573 157.6608752  58.7656622  68.0151274
 157.5625807  54.2137465  75.5628099 156.9324467  54.8953746  75.7963496
 157.4561895  54.1020547  74.6181238 152.8570779  53.8809261  66.4894023
 152.0669833  54.1366790  66.0134134 153.3482027  54.6957599  66.5946064
 154.8085525  54.2453841  63.4477500 154.0116688  54.3572535  63.9660996
 154.5811117  54.5840493  62.5818391 151.1408482  54.1339752  68.9209014
 151.3916521  55.0186762  69.1866590 151.6768031  53.9544353  68.1484106
 156.8406549  48.5158231  77.9253350 156.4473495  47.9624430  78.6000995
 157.6572690  48.8268810  78.3159868 153.8068607  59.9542089  61.8366920
 154.3193128  60.7485340  61.9872485 154.4591320  59.2568380  61.7700522
 155.6163492  63.0707846  63.9189673 155.7930120  63.9925810  63.7310657
 156.4120325  62.7566265  64.3484053 154.9015848  55.1172477  73.7951837
 154.7869364  54.2157735  74.0958936 154.0460366  55.3636174  73.4436653
 156.7394807  64.5886019  69.9200016 157.2902233  64.4603083  69.1477010
 155.9006283  64.8880908  69.5694909 151.7717524  58.2830744  62.6126491
 152.6092746  58.6927752  62.3960198 151.9495792  57.3430186  62.5826685
 156.6333419  50.6442806  64.1369670 157.2077171  50.4217987  63.4042863
 157.2204401  50.7131500  64.8898272 156.9603006  52.6747267  58.1565556
 156.1240318  53.0121953  58.4774830 156.8207776  52.5396247  57.2192693
 158.9356086  47.5184055  62.8644740 158.2820499  47.2033072  62.2401355
 158.8936561  46.8959795  63.5904563 151.7943695  55.6221459  63.2837224
 151.5968095  55.0290820  62.5588291 151.2390359  55.3173669  64.0013163
 157.7132779  54.1321625  63.1622196 156.9000644  54.4315796  63.5687388
 158.2091773  53.7377314  63.8796678 157.2046853  51.7039981  68.7783431
 157.8446233  51.5628740  68.0806394 156.3724384  51.4174494  68.4022033
 157.9807157  61.0042411  64.8918424 158.7747756  60.5092731  64.6900999
 157.2698850  60.4760274  64.5286129 154.2889921  55.1485493  60.9678176
 153.3587509  55.0869948  61.1848138 154.3847393  54.6261446  60.1714818
 154.2075470  51.6740306  63.5556418 154.4682287  52.5885639  63.4465578
 155.0292642  51.2064748  63.7053031 155.6800395  53.0878063  70.7255243
 156.3523449  52.8795425  70.0767891 154.8530182  52.8900149  70.2860475
 156.0827892  56.3620666  71.4857680 155.9447690  55.6300905  72.0869219
 156.9932816  56.2729566  71.2041867 157.4239127  53.0605843  72.7936999
 156.8876484  52.6096581  73.4458595 156.8355836  53.1951752  72.0507463
 155.7187671  69.8269892  66.6881657 155.9584269  70.4588416  67.3660676
 154.8756867  69.4757932  66.9747017 156.8341386  52.5194494  55.3563462
 155.9570852  52.3983295  54.9925709 157.3099139  51.7280573  55.1042351
 148.3543526  57.3071654  65.4504970 149.0414566  56.9933384  64.8625985
 148.1991655  58.2113019  65.1772221 153.1578248  52.1961851  69.8789993
 153.0736437  51.5887520  69.1440403 152.3360955  52.6870869  69.8799490
 157.7426130  63.2830292  72.0686891 158.4435589  63.9166775  72.2216285
 157.2721245  63.6245024  71.3082530 153.3393848  62.8166647  69.0017994
 153.9247284  62.0710335  69.1345898 153.1418686  63.1270604  69.8854657
 156.1932503  65.8517895  64.0180436 155.5242878  66.3364022  63.5344476
 156.0545373  66.0987115  64.9323814 147.9311502  55.3872247  67.7222437
 147.9695602  54.8535838  68.5159555 147.4251795  54.8607453  67.1033414
 155.3102265  50.2336788  71.2184979 155.3743591  51.0951619  70.8062377
 155.2469385  49.6210790  70.4857338 154.7854537  52.3059921  74.8658013
 155.4126576  51.9236998  75.4795538 153.9282456  52.0874122  75.2313706
 151.5620080  54.1136350  60.7976368 151.8573521  53.2047028  60.7443422
 150.6608116  54.0924089  60.4757370 155.0914327  52.1892346  66.7803917
 154.3700913  52.8028314  66.6411390 155.8807583  52.7250111  66.7020563
 157.8940640  49.5246773  73.0544568 158.4175042  49.7709069  73.8170878
 157.6752974  50.3566808  72.6347706 153.2907922  51.7950447  60.9215693
 152.9620628  50.9147826  60.7390799 153.6447292  51.7398116  61.8092083
 156.4049745  52.0823417  61.2891171 156.7445817  52.6109338  60.5669779
 156.8521865  52.4203823  62.0649737 159.0993185  50.4660468  70.7394239
 158.7590006  49.6668281  71.1414919 158.3932192  50.7662179  70.1671072
 158.3917892  50.5798039  59.4884464 159.1126254  50.9579291  58.9848181
 157.7683196  51.2986915  59.5919442 157.2748236  54.2428901  67.0013541
 157.1292817  54.5569204  67.8937822 156.7973440  54.8613801  66.4484439
 151.7493898  56.7834245  69.9401202 151.2047366  57.5594053  70.0721476
 152.6273248  57.1305050  69.7820323 158.5381515  50.1145829  62.3182000
 158.6597426  49.1862475  62.5172888 158.2483557  50.1284515  61.4060316
 152.5359920  55.9104142  72.8331359 151.7941656  56.0586777  73.4195989
 152.2152664  56.1712407  71.9698108 152.9816534  63.7969570  64.8641753
 153.8074554  63.4973342  64.4840397 152.6310586  63.0277193  65.3131542
 157.9498067  63.1496038  66.9339427 157.3278076  62.4866743  66.6341655
 158.6202934  63.1757170  66.2513075 151.1825139  61.7155897  65.8230687
 150.3457047  61.2878071  65.6414688 151.1548784  61.9088340  66.7601478
 158.0222594  51.6277826  76.5271933 158.0710750  52.5039949  76.1449703
 158.5645109  51.0855220  75.9543576 157.5111574  61.6999962  60.4097887
 157.6599694  62.3835426  59.7564560 158.3178017  61.6805052  60.9247343
 155.2664207  57.7265139  61.4158956 155.0210249  56.8227469  61.6139167
 155.4360121  57.7282290  60.4738434 154.5359854  53.4593497  58.9145118
 153.8429099  53.5337852  58.2585154 154.2911606  52.6953841  59.4366635
 150.4974635  54.7765245  65.6079619 150.1777420  53.9230553  65.3153993
 149.9508064  54.9913823  66.3637586 154.2754543  57.4927686  69.3249126
 154.4940553  58.4244794  69.3437159 154.6880317  57.1335660  70.1103929
 159.1482408  53.0660892  78.7151874 159.0479135  54.0155249  78.6463966
 158.9303950  52.7379130  77.8427945 158.3495480  50.3145817  55.2992552
 159.2114644  50.6400715  55.5588369 158.5345824  49.5277313  54.7865618
 150.3662895  58.3968156  67.5772741 149.6726367  57.9822109  67.0642695
 151.1135886  58.4388693  66.9806159 159.0113678  56.4958030  77.5316936
 158.5280760  57.2958391  77.7380825 159.0974617  56.5065975  76.5784380
 152.2799638  58.3286410  65.4538755 152.2570326  58.4274097  64.5020639
 152.5900274  59.1751561  65.7755922 154.9387016  60.3862565  69.5685370
 155.8930269  60.3546507  69.5015301 154.7399539  59.9253189  70.3835596
 155.5286398  58.9563681  72.1356168 156.3479287  59.4507760  72.1591005
 155.8023206  58.0395649  72.1073735 153.2937245  65.9282185  66.5855568
 153.1591713  65.1682585  66.0193566 152.8769307  66.6523084  66.1184357
 156.4506370  66.8251502  66.7974010 156.3338755  67.7696934  66.6952701
 155.6298817  66.5225063  67.1859810 150.7821312  53.2901815  72.8348365
 151.4280176  52.7800769  73.3235590 150.5738463  54.0270497  73.4091790
 157.4760885  67.4779764  70.0129939 158.3788131  67.5103374  70.3296434
 157.2498255  66.5480214  70.0276275 155.1218803  50.4369432  76.9323379
 155.9850265  50.0806237  77.1426703 154.5484214  50.0983327  77.6198783
 158.7705257  70.7164165  67.7222437 158.8089356  70.1827756  68.5159555
 158.2645550  70.1899371  67.1033414 134.0400163  16.1748180  53.4126964
 134.2796761  16.8066704  54.0905983 133.1969359  15.8236220  53.6992323
 145.9556194  20.2212480  50.3889502 145.3921059  20.1302417  49.6205790
 145.8408589  19.4012385  50.8691995 143.5020626  21.7163672  53.2273723
 144.2941918  21.3754496  52.8120022 143.7417276  21.8258647  54.1475876
 151.5355753  23.8883448  45.7003967 150.8843733  24.4737528  45.3137981
 152.3300116  24.4189643  45.7599004 145.4611380  20.9772585  46.0991101
 146.2342256  20.4301572  45.9603977 145.8136779  21.8416834  46.3105563
 147.2996423  22.3048967  59.3058001 147.0086289  23.2094598  59.1904667
 147.9353407  22.3465495  60.0202070 153.0131018  21.5773880  46.2372951
 152.3776851  21.6508506  46.9493856 152.6828425  22.1667479  45.5592031
 152.2586308  21.9910383  56.3007794 151.9587031  22.8935422  56.1923602
 151.9137367  21.7242566  57.1528947 143.0707600  18.0857453  53.1688288
 143.1999982  18.3391932  54.0827700 142.3905052  18.6785161  52.8492943
 147.2407088  28.7554703  49.2678762 147.1631117  29.7062528  49.3467243
 146.6368731  28.4100576  49.9253688 149.3382806  21.1772761  51.1032631
 149.8021151  21.4560464  50.3137254 149.0739604  20.2756206  50.9205722
 146.2306887  20.7244243  54.0412395 146.8008244  21.1531511  53.4029879
 146.8214999  20.4426827  54.7396580 149.7997439  22.4468749  58.1205321
 149.8641871  22.9089156  58.9563493 149.0908363  21.8166114  58.2487631
 149.5145457  24.1136856  47.9884302 149.3791131  24.9588392  48.4169150
 150.0555269  24.3156134  47.2250236 142.9674854  21.6312294  48.5612227
 143.4799375  22.4255544  48.7117792 143.6197567  20.9338585  48.4945828
 144.7769739  24.7478050  50.6434980 144.9536367  25.6696015  50.4555964
 145.5726572  24.4336470  51.0729360 151.1413933  24.7360423  62.1184644
 150.6977787  23.9496801  61.8005548 151.8031147  24.9239573  61.4528535
 145.9001054  26.2656224  56.6445322 146.4508479  26.1373288  55.8722316
 145.0612530  26.5651113  56.2940215 153.2395171  25.0163223  60.1466045
 153.2213646  25.8372104  59.6546314 154.1615091  24.8917298  60.3716186
 149.6968225  22.5307352  60.9889554 150.2296562  21.7695640  60.7588861
 149.1682306  22.2381004  61.7313708 140.9323771  19.9600948  49.3371797
 141.7698993  20.3697957  49.1205505 141.1102038  19.0200391  49.3071991
 151.0620938  21.6593345  48.5008366 150.5342299  20.9246104  48.1881603
 150.5608441  22.4368021  48.2548334 152.1141617  28.1871062  44.4240025
 151.4403316  28.4902759  45.0324983 152.5007439  28.9900142  44.0745482
 155.6181039  23.1892739  49.7958496 155.1643366  22.3483649  49.8523687
 154.9875006  23.8254138  50.1333276 154.0613978  25.0269236  50.7308314
 154.3536953  25.5874293  50.0120680 154.5712599  25.3197797  51.4861473
 150.0837859  21.1194893  43.3655407 149.6457289  20.4030752  42.9061045
 150.8248300  21.3471008  42.8040499 149.0247603  25.8049587  51.8201768
 148.9823782  26.0310433  50.8910300 149.9410302  25.5712962  51.9687569
 147.1413404  22.6812616  51.6163730 147.9354003  22.1862936  51.4146305
 146.4305097  22.1530479  51.2531436 151.9608249  25.0630712  55.9676098
 152.0145271  25.6321648  56.7353814 151.0923030  25.2332597  55.6030135
 149.7184680  23.2541638  55.2961567 149.5795766  22.8860422  56.1687505
 148.9299276  23.7689277  55.1245525 150.3132832  28.3550734  46.6387104
 150.4884588  27.8838778  47.4532727 149.6265620  28.9816501  46.8668365
 151.2689895  22.6323241  52.6850405 150.9339728  22.5924011  53.5808055
 150.7693841  21.9667957  52.2120815 155.8603219  24.6878183  60.6193245
 155.8015765  24.0037403  59.9523828 156.2622737  25.4297173  60.1673871
 144.8793917  31.5040097  53.4126964 145.1190516  32.1358621  54.0905983
 144.0363114  31.1528137  53.6992323 137.5149773  18.9841859  52.1750276
 138.2020813  18.6703589  51.5871292 137.3597902  19.8883224  51.9017528
 149.3921779  27.3119220  55.8168468 149.3191951  28.1174191  56.3287773
 148.9499172  27.5111185  54.9916489 149.1811559  26.5490990  49.3271290
 148.3979081  27.0912670  49.4209514 149.8804304  27.0664969  49.7265531
 151.8520463  27.2106054  57.9726627 152.5648435  27.8453518  57.9002528
 151.3610491  27.3069920  57.1566629 146.9032376  24.9600497  58.7932198
 147.6041836  25.5936980  58.9461592 146.4327491  25.3015229  58.0327837
 155.0286772  23.3018447  47.0780105 155.3046616  23.1875041  47.9873979
 154.1591271  22.9035932  47.0392278 151.6640836  27.5504798  50.7212918
 151.8463231  26.7326454  51.1840671 152.4873822  27.7672490  50.2837808
 151.9983002  26.4772983  47.9827967 152.5270768  25.9665437  47.3698129
 152.2611221  26.1615513  48.8473500 142.5000094  24.4936852  55.7263300
 143.0853531  23.7480540  55.8591204 142.3024933  24.8040809  56.6099964
 145.3538750  27.5288100  50.7425743 144.6849125  28.0134227  50.2589783
 145.2151619  27.7757320  51.6569121 137.0917749  17.0642452  54.4467743
 137.1301849  16.5306043  55.2404861 136.5858042  16.5377658  53.8278721
 149.4944018  29.5631843  57.3408401 150.0462326  29.7263465  58.1057486
 149.8350212  30.1536281  56.6688426 154.3454893  24.3893101  63.1957055
 154.8894796  25.0023059  62.7012010 153.7641737  24.9472679  63.7124068
 152.6312405  27.5113819  54.3272083 152.5063545  26.7103558  53.8183029
 153.2891497  28.0060012  53.8386053 154.6947314  25.3122839  55.9551633
 153.7477649  25.1928190  55.8829960 155.0430087  24.4245337  56.0377895
 151.6993747  25.1075555  52.1555985 151.5518710  24.1792262  52.3363555
 152.5247241  25.1295646  51.6713061 155.3027869  25.9304114  53.2420858
 156.2274416  25.7246975  53.1045309 155.1343172  25.6820515  54.1510200
 155.0923185  26.4489781  48.5982950 155.2660063  25.8836204  47.8456802
 155.5852076  27.2490676  48.4162440 140.9100145  18.4604450  56.6646508
 140.3653613  19.2364258  56.7966783 141.7879495  18.8075255  56.5065630
 156.0798358  25.7656545  45.6979848 156.7749262  26.3863238  45.9167163
 156.4221508  24.9151897  45.9732226 141.6966167  17.5874346  59.5576665
 140.9547903  17.7356982  60.1441296 141.3758911  17.8482612  58.6943415
 149.6409830  27.1290325  59.3557055 149.9496956  26.8839471  60.2279755
 150.4385312  27.3336963  58.8675926 149.6630442  29.2828234  51.5862432
 149.2235432  28.7904613  52.2795289 150.4138559  28.7401202  51.3454507
 142.1422781  25.4739775  51.5887060 142.9680800  25.1743547  51.2085703
 141.7916833  24.7047398  52.0376849 147.1104314  24.8266243  53.6584734
 146.4884323  24.1636948  53.3586961 147.7809181  24.8527375  52.9758381
 140.3431386  23.3926102  52.5475994 139.5063294  22.9648276  52.3659995
 140.3155031  23.5858545  53.4846785 157.6683687  23.8489155  62.5318377
 156.8779231  23.8313294  61.9922876 157.4317041  24.3877448  63.2867413
 146.6717821  23.3770167  47.1343194 146.8205941  24.0605631  46.4809867
 147.4784264  23.3575257  47.6492650 144.4270454  19.4035344  48.1404263
 144.1816496  18.4997674  48.3384473 144.5966368  19.4052495  47.1983741
 150.1713226  25.8718297  44.6054942 149.5987193  26.4908484  44.1525413
 150.7446020  26.4217659  45.1394863 153.3910486  26.1555447  45.7363524
 154.3241159  26.0901009  45.9396399 153.3033699  26.9911714  45.2778056
 143.4360790  19.1697891  56.0494432 143.6546799  20.1014999  56.0682466
 143.8486564  18.8105865  56.8349236 139.5269142  20.0738361  54.3018047
 138.8332614  19.6592314  53.7888002 140.2742133  20.1158898  53.7051466
 141.4405885  20.0056615  52.1784062 141.4176573  20.1044302  51.2265945
 141.7506521  20.8521766  52.5001228 144.0993263  22.0632770  56.2930677
 145.0536516  22.0316712  56.2260608 143.9005786  21.6023394  57.1080902
 144.6892645  20.6333886  58.8601474 145.5085534  21.1277965  58.8836311
 144.9629452  19.7165854  58.8319042 142.4543491  27.6052390  53.3100874
 142.3197959  26.8452790  52.7438872 142.0375554  28.3293289  52.8429663
 145.6112617  28.5021707  53.5219317 145.4945001  29.4467139  53.4198007
 144.7905064  28.1995268  53.9105116 152.4680951  22.0352867  65.0585812
 153.3372111  22.2093520  64.6972447 151.9887703  22.8547284  64.9361541
 146.6367131  29.1549968  56.7375245 147.5394378  29.1873579  57.0541740
 146.4104501  28.2250419  56.7521581 148.3920733  27.9080955  53.3985324
 147.4416364  27.9082817  53.2849696 148.6953220  27.1613690  52.8821359
 156.7949949  35.5504398  50.3889502 156.2314814  35.4594335  49.6205790
 156.6802344  34.7304302  50.8691995 154.3414381  37.0455589  53.2273723
 155.1335673  36.7046414  52.8120022 154.5811031  37.1550565  54.1475876
 156.3005135  36.3064503  46.0991101 157.0736011  35.7593490  45.9603977
 156.6530534  37.1708752  46.3105563 158.1390177  37.6340885  59.3058001
 157.8480043  38.5386516  59.1904667 158.7747162  37.6757413  60.0202070
 158.6371413  32.4657169  43.7309551 158.8896933  31.9438690  42.9693014
 157.6995972  32.3023314  43.8336235 158.3567701  34.3685275  45.9333926
 158.2403959  33.6930178  46.6015011 158.4669961  33.8817649  45.1166079
 156.5492544  33.7716097  52.3344499 155.6243040  33.6392311  52.5422191
 156.7976957  34.5510317  52.8314441 153.9101355  33.4149371  53.1688288
 154.0393736  33.6683850  54.0827700 153.2298806  34.0077079  52.8492943
 158.0800842  44.0846621  49.2678762 158.0024872  45.0354446  49.3467243
 157.4762486  43.7392493  49.9253688 157.0700641  36.0536160  54.0412395
 157.6401999  36.4823429  53.4029879 157.6608753  35.7718745  54.7396580
 157.5625808  31.2199588  62.2873406 156.9324469  31.9015869  62.5208803
 157.4561896  31.1082669  61.3426544 152.8570780  30.8871384  53.2139330
 152.0669834  31.1428912  52.7379441 153.3482028  31.7019722  53.3191371
 154.8085526  31.2515963  50.1722807 154.0116689  31.3634657  50.6906303
 154.5811118  31.5902615  49.3063697 151.1408483  31.1401874  55.6454321
 151.3916522  32.0248884  55.9111897 151.6768032  30.9606476  54.8729413
 156.8406551  25.5220354  64.6498657 156.4473496  24.9686552  65.3246301
 157.6572691  25.8330932  65.0405175 153.8068608  36.9604212  48.5612227
 154.3193129  37.7547462  48.7117792 154.4591321  36.2630502  48.4945828
 155.6163493  40.0769968  50.6434980 155.7930122  40.9987933  50.4555964
 156.4120327  39.7628387  51.0729360 154.9015850  32.1234600  60.5197143
 154.7869365  31.2219857  60.8204242 154.0460367  32.3698297  60.1681960
 156.7394809  41.5948142  56.6445322 157.2902234  41.4665205  55.8722316
 155.9006285  41.8943031  56.2940215 151.7717525  35.2892866  49.3371797
 152.6092747  35.6989875  49.1205505 151.9495793  34.3492308  49.3071991
 156.6333420  27.6504929  50.8614977 157.2077172  27.4280110  50.1288170
 157.2204402  27.7193623  51.6143578 156.9603007  29.6809390  44.8810862
 156.1240319  30.0184076  45.2020137 156.8207777  29.5458369  43.9437999
 158.9356088  24.5246177  49.5890046 158.2820500  24.2095195  48.9646661
 158.8936562  23.9021918  50.3149869 151.7943696  32.6283581  50.0082531
 151.5968096  32.0352942  49.2833597 151.2390360  32.3235792  50.7258470
 157.7132780  31.1383748  49.8867503 156.9000646  31.4377918  50.2932695
 158.2091774  30.7439436  50.6041985 157.2046855  28.7102103  55.5028738
 157.8446234  28.5690862  54.8051701 156.3724385  28.4236617  55.1267340
 157.9807159  38.0104534  51.6163730 158.7747757  37.5154854  51.4146305
 157.2698851  37.4822397  51.2531436 154.2889922  32.1547615  47.6923483
 153.3587510  32.0932071  47.9093445 154.3847394  31.6323568  46.8960124
 154.2075471  28.6802428  50.2801725 154.4682288  29.5947761  50.1710885
 155.0292643  28.2126871  50.4298337 155.6800396  30.0940185  57.4500549
 156.3523450  29.8857548  56.8013198 154.8530183  29.8962271  57.0105781
 156.0827894  33.3682788  58.2102986 155.9447692  32.6363027  58.8114525
 156.9932817  33.2791688  57.9287174 157.4239128  30.0667966  59.5182305
 156.8876485  29.6158704  60.1703902 156.8355837  30.2013874  58.7752770
 155.7187672  46.8332015  53.4126964 155.9584270  47.4650539  54.0905983
 154.8756868  46.4820055  53.6992323 148.3543527  34.3133777  52.1750276
 149.0414567  33.9995507  51.5871292 148.1991656  35.2175141  51.9017528
 153.1578250  29.2023973  56.6035300 153.0736438  28.5949643  55.8685710
 152.3360956  29.6932992  56.6044796 157.7426131  40.2892415  58.7932198
 158.4435590  40.9228898  58.9461592 157.2721246  40.6307146  58.0327837
 153.3393849  39.8228770  55.7263300 153.9247286  39.0772458  55.8591204
 153.1418687  40.1332727  56.6099964 156.1932504  42.8580017  50.7425743
 155.5242879  43.3426145  50.2589783 156.0545374  43.1049238  51.6569121
 147.9311504  32.3934370  54.4467743 147.9695603  31.8597961  55.2404861
 147.4251796  31.8669576  53.8278721 155.3102266  27.2398911  57.9430286
 155.3743592  28.1013741  57.5307683 155.2469386  26.6272912  57.2102644
 154.7854538  29.3122043  61.5903320 155.4126577  28.9299120  62.2040844
 153.9282457  29.0936245  61.9559012 151.5620081  31.1198472  47.5221675
 151.8573522  30.2109151  47.4688728 150.6608117  31.0986212  47.2002677
 155.0914328  29.1954469  53.5049223 154.3700914  29.8090436  53.3656697
 155.8807584  29.7312234  53.4265869 157.8940642  26.5308895  59.7789875
 158.4175044  26.7771192  60.5416184 157.6752975  27.3628930  59.3593012
 153.2907923  28.8012570  47.6461000 152.9620629  27.9209949  47.4636106
 153.6447293  28.7460239  48.5337389 156.4049746  29.0885540  48.0136478
 156.7445818  29.6171461  47.2915086 156.8521866  29.4265946  48.7895044
 159.0993187  27.4722590  57.4639546 158.7590007  26.6730403  57.8660226
 158.3932193  27.7724301  56.8916379 158.3917893  27.5860161  46.2129770
 159.1126256  27.9641414  45.7093487 157.7683197  28.3049038  46.3164748
 157.2748237  31.2491023  53.7258847 157.1292818  31.5631327  54.6183129
 156.7973441  31.8675924  53.1729746 151.7493899  33.7896368  56.6646508
 151.2047368  34.5656176  56.7966783 152.6273249  34.1367172  56.5065630
 158.5381516  27.1207952  49.0427307 158.6597427  26.1924598  49.2418194
 158.2483559  27.1346638  48.1305622 152.5359921  32.9166264  59.5576665
 151.7941657  33.0648899  60.1441296 152.2152666  33.1774530  58.6943415
 152.9816535  40.8031693  51.5887060 153.8074555  40.5035465  51.2085703
 152.6310587  40.0339315  52.0376849 157.9498068  40.1558161  53.6584734
 157.3278077  39.4928866  53.3586961 158.6202935  40.1819293  52.9758381
 151.1825140  38.7218019  52.5475994 150.3457048  38.2940194  52.3659995
 151.1548786  38.9150463  53.4846785 158.0222596  28.6339949  63.2517240
 158.0710751  29.5102072  62.8695009 158.5645110  28.0917342  62.6788883
 157.5111575  38.7062084  47.1343194 157.6599695  39.3897549  46.4809867
 158.3178019  38.6867174  47.6492650 155.2664208  34.7327262  48.1404263
 155.0210250  33.8289592  48.3384473 155.4360123  34.7344412  47.1983741
 154.5359856  30.4655620  45.6390424 153.8429101  30.5399975  44.9830460
 154.2911608  29.7015963  46.1611941 150.4974637  31.7827367  52.3324926
 150.1777421  30.9292676  52.0399300 149.9508065  31.9975946  53.0882893
 154.2754544  34.4989808  56.0494432 154.4940554  35.4306916  56.0682466
 154.6880318  34.1397783  56.8349236 159.1482410  30.0723014  65.4397181
 159.0479136  31.0217371  65.3709272 158.9303952  29.7441253  64.5673251
 150.3662897  35.4030279  54.3018047 149.6726368  34.9884232  53.7888002
 151.1135888  35.4450815  53.7051466 159.0113680  33.5020153  64.2562243
 158.5280761  34.3020513  64.4626132 159.0974619  33.5128098  63.3029687
 152.2799639  35.3348533  52.1784062 152.2570327  35.4336220  51.2265945
 152.5900276  36.1813683  52.5001228 154.9387017  37.3924688  56.2930677
 155.8930271  37.3608630  56.2260608 154.7399541  36.9315311  57.1080902
 155.5286399  35.9625804  58.8601474 156.3479288  36.4569882  58.8836311
 155.8023207  35.0457772  58.8319042 153.2937246  42.9344307  53.3100874
 153.1591714  42.1744708  52.7438872 152.8769308  43.6585207  52.8429663
 156.4506372  43.8313624  53.5219317 156.3338756  44.7759057  53.4198007
 155.6298818  43.5287186  53.9105116 150.7821313  30.2963938  59.5593671
 151.4280177  29.7862892  60.0480896 150.5738465  31.0332619  60.1337096
 157.4760886  44.4841886  56.7375245 158.3788133  44.5165496  57.0541740
 157.2498256  43.5542337  56.7521581 155.1218804  27.4431555  63.6568685
 155.9850266  27.0868360  63.8672010 154.5484215  27.1045450  64.3444090
 158.7705258  47.7226288  54.4467743 158.8089358  47.1889878  55.2404861
 158.2645551  47.1961493  53.8278721  32.3024444  85.2051126 151.9041511
  31.6512423  85.7905206 151.5175525  33.0968806  85.7357321 151.9636548
  26.2280071  82.2940263 152.3028645  27.0010947  81.7469250 152.1641521
  26.5805470  83.1584512 152.5143107  28.5646349  78.4532929 149.9347095
  28.8171869  77.9314450 149.1730558  27.6270908  78.2899074 150.0373779
  33.7799709  82.8941558 152.4410495  33.1445542  82.9676184 153.1531400
  33.4497115  83.4835157 151.7629574  28.2842637  80.3561035 152.1371470
  28.1678895  79.6805938 152.8052554  28.3944897  79.8693409 151.3203623
  30.2679665  74.8461082 150.8379508  30.4354068  75.7141318 151.2049979
  30.0776834  75.0088363 149.9140797  30.2468886  77.3018739 151.8226175
  30.1268511  77.7475790 152.6611655  29.5521475  77.6504057 151.2639713
  28.0075778  90.0722381 155.4716306  27.9299808  91.0230206 155.5504786
  27.4037422  89.7268254 156.1291232  35.9453952  77.7740212 152.6506509
  36.8571808  78.0067599 152.4754206  35.4363599  78.3577257 152.0881587
  38.4312766  83.6920469 157.3964454  37.7463805  84.0719370 156.8461487
  38.5156616  84.3015795 158.1296402  30.1051496  82.4940439 157.3070175
  30.5689842  82.7728142 156.5174798  29.8408295  81.5923884 157.1243266
  29.0420383  78.6163591 154.1159740  29.7444426  79.0684635 154.5833667
  28.7101011  77.9747410 154.7439633  44.8915519  80.5591132 158.5167126
  44.1379227  79.9898530 158.3611131  45.0263060  80.5253796 159.4637761
  30.2814147  85.4304534 154.1921846  30.1459822  86.2756070 154.6206693
  30.8223960  85.6323812 153.4287779  23.7343545  82.9479972 154.7649771
  24.2468065  83.7423222 154.9155335  24.3866257  82.2506262 154.6983372
  25.5438429  86.0645728 156.8472524  25.7205058  86.9863693 156.6593508
  26.3395263  85.7504147 157.2766904  33.5956893  78.9443707 151.2293174
  33.0803517  79.7148312 151.4681562  33.3234202  78.2708843 151.8526236
  38.5691168  81.6976062 153.1646348  37.7920610  81.3587221 152.7201510
  39.2482649  81.7028685 152.4901313  33.3843197  76.8170799 153.0552955
  33.0793332  77.1316948 153.9063099  34.3373639  76.8952219 153.0980288
  31.8289628  82.9761022 154.7045909  31.3010990  82.2413782 154.3919147
  31.3277131  83.7535699 154.4585878  36.8082474  81.1710043 159.8212956
  36.1506149  81.8609304 159.9093084  37.6122874  81.5606475 160.1646942
  35.6187933  79.5254416 157.8716897  36.1319815  80.1584407 158.3738607
  36.2689157  78.9255611 157.5060257  26.8877943  75.6685150 151.0848406
  26.0515255  76.0059836 151.4057681  26.7482713  75.5334129 150.1475543
  29.9742229  80.7941233 147.7080882  29.0669290  80.5630486 147.9072031
  30.4713261  79.9978852 147.8954864  32.8810308  89.5038740 150.6277569
  32.2072006  89.8070437 151.2362526  33.2676129  90.3067820 150.2783026
  32.8803812  78.3995287 155.2477918  33.6275631  78.9116684 154.9385040
  33.1495401  78.0779339 156.1082312  31.1530462  80.8953827 152.2304872
  30.2441681  80.6112860 152.3277342  31.1825546  81.3152906 151.3708179
  36.3849729  84.5060417 155.9996040  35.9312057  83.6651327 156.0561230
  35.7543696  85.1421815 156.3370820  34.8282669  86.3436914 156.9345858
  35.1205643  86.9041971 156.2158224  35.3381289  86.6365475 157.6899017
  30.8506550  82.4362571 149.5692951  30.4125980  81.7198430 149.1098588
  31.5916991  82.6638686 149.0078042  29.7916294  87.1217265 158.0239311
  29.7492473  87.3478111 157.0947843  30.7078993  86.8880639 158.1725113
  38.9679665  80.7119768 155.6269270  38.8297563  80.9021364 154.6990459
  38.6115883  81.4739151 156.0837321  38.9949044  82.7796295 160.6380541
  39.4285551  82.6871584 161.4863595  39.7080625  82.7553796 160.0000557
  31.0801523  89.6718412 152.8424648  31.2553278  89.2006455 153.6570270
  30.3934311  90.2984178 153.0705908  34.9717777  81.2946953 149.1625009
  34.3546948  80.5693781 149.0658061  34.5034266  82.0556313 148.8192083
  26.7616323  75.5132377 148.2846313  25.8845790  75.3921178 147.9208560
  27.2374076  74.7218455 148.0325202  29.9480249  87.8658667 155.5308833
  29.1647771  88.4080348 155.6247058  30.6472995  88.3832647 155.9303075
  41.1106657  79.3793662 159.8161330  41.0996533  80.2618378 159.4455263
  40.2424036  79.0265213 159.6215867  34.3406680  82.4324984 155.7481462
  33.4062959  82.5526447 155.5786167  34.5183349  81.5297451 155.4841472
  37.7279232  78.2742303 156.2831496  38.1939684  79.1070295 156.2091799
  38.1786732  77.8087285 156.9876755  35.7955463  84.6186125 153.2817648
  36.0715307  84.5042719 154.1911522  34.9259961  84.2203610 153.2429821
  32.4309527  88.8672476 156.9250462  32.6131921  88.0494131 157.3878214
  33.2542513  89.0840168 156.4875352  32.7651692  87.7940661 154.1865510
  33.2939459  87.2833115 153.5735673  33.0279912  87.4783191 155.0511043
  26.1207440  88.8455777 156.9463286  25.4517815  89.3301905 156.4627326
  25.9820310  89.0924998 157.8606665  33.3981096  88.8281496 160.5309627
  33.2732235  88.0271236 160.0220572  34.0560187  89.3227690 160.0423597
  35.4616004  86.6290517 162.1589177  34.5146340  86.5095868 162.0867504
  35.8098778  85.7413015 162.2415438  32.4662438  86.4243233 158.3593529
  32.3187400  85.4959940 158.5401099  33.2915931  86.4463323 157.8750604
  36.0696560  87.2471791 159.4458402  36.9943107  87.0414653 159.3082853
  35.9011863  86.9988193 160.3547743  32.4623952  74.2781070 153.3525646
  32.6787566  75.1605708 153.0514475  31.9818019  73.8867284 152.6231288
  35.8591876  87.7657459 154.8020493  36.0328753  87.2003881 154.0494346
  36.3520767  88.5658354 154.6199983  41.7131267  80.5293882 156.4210793
  42.1562413  79.7801207 156.0229916  40.8357777  80.5204018 156.0384525
  36.8467048  87.0824223 151.9017392  37.5417953  87.7030916 152.1204706
  37.1890198  86.2319575 152.1769770  38.7458471  84.5323929 153.4304722
  39.2709795  84.8711202 152.7054043  38.6580824  83.5970944 153.2467857
  30.4299132  90.5995912 157.7899976  29.9904122  90.1072291 158.4832832
  31.1807249  90.0568880 157.5492051  27.4386511  84.6937845 153.3380738
  27.5874632  85.3773309 152.6847411  28.2452955  84.6742935 153.8530194
  41.2564132  81.9999120 158.8133241  42.0911023  82.4388924 158.9770801
  41.3923260  81.5237773 157.9941487  30.9381917  87.1885975 150.8092485
  30.3655884  87.8076162 150.3562957  31.5114710  87.7385337 151.3432407
  34.1579176  87.4723125 151.9401068  35.0909850  87.4068687 152.1433943
  34.0702389  88.3079392 151.4815600  36.7867193  86.7888995 148.9005015
  36.7080825  86.4548859 149.7940773  37.6076860  87.2810763 148.8996488
  31.3228715  78.5246788 148.1508538  32.2687820  78.3952996 148.2196956
  30.9442960  77.7861450 148.6277966  45.3021934  80.7166742 161.2487371
  46.0325323  80.4552030 161.8095074  44.6928880  79.9795464 161.2889439
  29.5071632  76.4496764 148.0863423  28.6003088  76.1529877 148.1626137
  29.7847613  76.1526582 147.2197709  28.2770417  73.3083699 148.2275402
  29.1389581  73.6338598 148.4871220  28.4620761  72.5215195 147.7148468
  35.2127931  74.3412316 154.4266974  34.3253786  74.6261967 154.2087168
  35.6281921  74.1806080 153.5794250  34.3571145  84.1056991 148.5214993
  35.0606995  84.3106993 149.1372649  33.6333794  84.6733753 148.7864077
  35.1868955  79.8566852 154.6417264  35.1304157  80.3135404 153.8024896
  35.7397298  79.0957537 154.4640106  38.9973761  75.6456584 155.4667383
  38.7410695  75.2453220 156.2975591  38.3726629  76.3600378 155.3417522
  43.3086099  78.3852657 157.9738675  42.7485657  78.4545847 158.7470237
  42.7029602  78.2093642 157.2538171  36.2657842  84.5439520 150.5713454
  37.1003446  84.1120719 150.3890928  36.1042185  84.3721534 151.4990348
  35.9203735  81.0471633 151.9369793  35.8652538  80.8815905 150.9958237
  35.2949790  81.7547666 152.0931983  29.1589424  89.2248633 159.6022868
  28.2085055  89.2250494 159.4887240  29.4621910  88.4781367 159.0858903
  44.8942117  95.0609171 160.6668630  45.5320527  94.9415919 159.9631970
  44.7762960  96.0090015 160.7256582  41.7031824  95.0136599 160.6030155
  41.3650335  94.8977664 159.7150690  42.5721592  94.6127764 160.5831161
  37.5618639  96.8672076 156.5927046  36.9983505  96.7762013 155.8243334
  37.4471034  96.0471980 157.0729538  42.1851607  96.1671451 166.5616361
  42.1740247  95.7724249 165.6896864  42.3472246  95.4337524 167.1550132
  35.1083071  98.3623267 159.4311266  35.9004363  98.0214092 159.0157566
  35.3479721  98.4718242 160.3513420  43.1418198 100.5343043 151.9041511
  42.4906178 101.1197124 151.5175525  43.9362561 101.0649238 151.9636548
  37.0673825  97.6232181 152.3028645  37.8404701  97.0761168 152.1641521
  37.4199224  98.4876430 152.5143107  39.8315075  96.3285411 162.0996904
  40.4278647  96.1041434 161.3853867  39.8890046  95.5870157 162.7022352
  39.4040103  93.7824847 149.9347095  39.6565624  93.2606368 149.1730558
  38.4664662  93.6190992 150.0373779  44.4483386  92.7860625 157.7421838
  45.2346475  92.3680048 157.3912255  44.7122090  93.6906717 157.9103487
  44.6193463  98.2233475 152.4410495  43.9839296  98.2968102 153.1531400
  44.2890870  98.8127074 151.7629574  49.8491813  92.7235858 158.6454817
  50.5816985  92.1535075 158.8792646  49.0931169  92.3357459 159.0861322
  39.1236392  95.6852953 152.1371470  39.0072650  95.0097856 152.8052554
  39.2338652  95.1985327 151.3203623  41.4667933  95.1463100 155.8418159
  41.1026140  94.6193721 156.5531081  42.3235049  94.7561569 155.6684645
  47.3717233  86.4357432 163.1049425  47.0400558  87.3052843 162.8810640
  46.7762847  86.1193716 163.7843456  41.1073420  90.1752999 150.8379508
  41.2747822  91.0433236 151.2049979  40.9170589  90.3380281 149.9140797
  43.8648753  98.6369978 162.5045338  43.5649476  99.5395017 162.3961145
  43.5199812  98.3702162 163.3566491  37.3161234  95.0883775 158.5382043
  36.3911731  94.9559989 158.7459734  37.5645648  95.8677994 159.0351985
  47.2645897  91.1552519 160.1842775  46.3562774  91.0867927 159.8901536
  47.2133492  91.6324463 161.0124601  41.0862641  92.6310657 151.8226175
  40.9662266  93.0767708 152.6611655  40.3915229  92.9795975 151.2639713
  34.6770045  94.7317049 159.3725832  34.8062427  94.9851528 160.2865243
  33.9967497  95.3244757 159.0530487  38.8469533 105.4014299 155.4716306
  38.7693562 106.3522124 155.5504786  38.2431176 105.0560171 156.1291232
  41.3386762  92.5742164 168.1277673  40.5620097  93.1336084 168.1180537
  41.9777326  93.0598947 168.6492543  49.1307543  89.3568957 161.9620649
  48.4881923  89.6501490 161.3160444  48.6262472  89.2421877 162.7673846
  46.7847707  93.1032130 152.6506509  47.6965563  93.3359517 152.4754206
  46.2757354  93.6869174 152.0881587  45.0688474  97.5256758 166.2867801
  45.4771830  97.0839168 165.5422434  44.3465736  96.9509385 166.5401994
  41.4219544  92.4629365 163.6601358  42.2680740  92.8868778 163.8036007
  41.3618182  91.8062989 164.3539921  45.3917289  98.0857949 160.0420090
  44.7626152  98.2503663 159.3396158  45.0042951  98.4999558 160.8131054
  49.2706521  99.0212386 157.3964454  48.5857559  99.4011288 156.8461487
  49.3550370  99.6307713 158.1296402  44.5718990  90.1233733 165.3182532
  44.3279922  90.8775794 164.7816808  44.8478920  90.5019081 166.1529779
  46.5257453  96.6672345 163.9959797  46.7374348  97.3104105 163.3194179
  46.4787201  95.8334662 163.5281728  44.1283682  89.2790166 160.8996370
  43.2668161  89.5771420 161.1913107  44.1546116  89.4960565 159.9677402
  40.9445251  97.8232357 157.3070175  41.4083596  98.1020060 156.5174798
  40.6802049  96.9215801 157.1243266  37.8369332  97.3703838 160.2449938
  38.4070689  97.7991107 159.6067423  38.4277444  97.0886423 160.9434124
  39.8814137  93.9455509 154.1159740  40.5838180  94.3976553 154.5833667
  39.5494766  93.3039328 154.7439633  33.6239471  92.2039062 159.4176874
  32.8338525  92.4596590 158.9416985  34.1150718  93.0187400 159.5228914
  47.6403281  99.5444301 162.1682155  48.4620724  99.1424488 161.8864836
  47.6365683  99.4412535 163.1198271  35.5754216  92.5683641 156.3760351
  34.7785380  92.6802335 156.8943846  35.3479809  92.9070293 155.5101241
  41.4059884  99.0928344 164.3242865  41.4704316  99.5548751 165.1601037
  40.6970808  98.4625709 164.4525175  31.9077174  92.4569552 161.8491865
  32.1585212  93.3416562 162.1149441  32.4436722  92.2774154 161.0766957
  55.7309274  95.8883049 158.5167126  54.9772982  95.3190447 158.3611131
  55.8656815  95.8545714 159.4637761  41.1207902 100.7596452 154.1921846
  40.9853576 101.6047987 154.6206693  41.6617714 100.9615729 153.4287779
  34.5737299  98.2771890 154.7649771  35.0861820  99.0715140 154.9155335
  35.2260012  97.5798180 154.6983372  36.3832184 101.3937646 156.8472524
  36.5598812 102.3155611 156.6593508  37.1789017 101.0796065 157.2766904
  44.8457616 101.6622818 166.3503589  44.8276091 102.4831699 165.8583858
  45.7677536 101.5376893 166.5753730  44.4700365  84.2827014 162.7220739
  44.1264635  85.1728655 162.6459850  44.8379328  84.0928671 161.8590324
  32.5386216  96.6060544 155.5409341  33.3761438  97.0157552 155.3243049
  32.7164484  95.6659986 155.5109535  44.4350648  94.2735625 151.2293174
  43.9197271  95.0440229 151.4681562  44.1627956  93.6000761 151.8526236
  42.0197759  89.1185325 156.2878413  41.1639355  88.7292176 156.1084051
  42.4324711  89.1977286 155.4278198  43.5496906  86.6531669 160.6869972
  43.0461701  86.6161804 159.8737778  43.8427512  87.5624411 160.7466629
  39.7939791  86.7370398 159.6936154  40.6592788  86.5413207 159.3342044
  39.8617300  86.5080750 160.6205511  49.4084922  97.0267979 153.1646348
  48.6314365  96.6879139 152.7201510  50.0876403  97.0320602 152.4901313
  44.2236951  92.1462717 153.0552955  43.9187087  92.4608866 153.9063099
  45.1767393  92.2244137 153.0980288  42.6683383  98.3052940 154.7045909
  42.1404745  97.5705700 154.3919147  42.1670886  99.0827616 154.4585878
  47.6476229  96.5001961 159.8212956  46.9899903  97.1901222 159.9093084
  48.4516628  96.8898392 160.1646942  37.4002111  88.9672606 157.0652521
  37.9745862  88.7447788 156.3325714  37.9873093  89.0361301 157.8181122
  46.4581688  94.8546333 157.8716897  46.9713570  95.4876325 158.3738607
  47.1082912  94.2547529 157.5060257  37.7271698  90.9977067 151.0848406
  36.8909010  91.3351754 151.4057681  37.5876467  90.8626047 150.1475543
  39.7024778  85.8413855 155.7927590  39.0489191  85.5262872 155.1684205
  39.6605252  85.2189596 156.5187413  40.8135983  96.1233150 147.7080882
  39.9063045  95.8922404 147.9072031  41.3107015  95.3270770 147.8954864
  43.7204062 104.8330657 150.6277569  43.0465761 105.1362354 151.2362526
  44.1069884 105.6359738 150.2783026  42.9362519  92.3295789 160.1175238
  42.0185080  92.5510736 159.9596926  43.3522662  92.4042099 159.2586945
  43.7197566  93.7287204 155.2477918  44.4669385  94.2408602 154.9385040
  43.9889156  93.4071257 156.1082312  41.9924217  96.2245745 152.2304872
  41.0835436  95.9404778 152.3277342  42.0219300  96.6444824 151.3708179
  47.2243484  99.8352335 155.9996040  46.7705811  98.9943245 156.0561230
  46.5937451 100.4713733 156.3370820  46.1676404  90.7644321 157.2296707
  45.4299160  90.2521707 157.5606950  46.4203177  90.3244702 156.4179984
  45.6676423 101.6728831 156.9345858  45.9599398 102.2333888 156.2158224
  46.1775044 101.9657392 157.6899017  46.2688031  83.5420573 157.8238477
  46.5746908  82.6817936 157.5364392  46.9940636  84.1338193 157.6237471
  32.5612387  93.9451259 156.2120075  32.3636787  93.3520620 155.4871141
  32.0059051  93.6403469 156.9296013  40.5409111  93.8374366 158.3314668
  40.5957720  92.8848202 158.2557144  39.7300313  93.9933805 158.8155966
  41.6900304  97.7654489 149.5692951  41.2519734  97.0490348 149.1098588
  42.4310745  97.9930604 149.0078042  38.4801471  92.4551426 156.0905047
  37.6669336  92.7545596 156.4970239  38.9760465  92.0607114 156.8079529
  40.6310048 102.4509182 158.0239311  40.5886227 102.6770029 157.0947843
  41.5472747 102.2172557 158.1725113  44.0775682  92.9193250 164.9219941
  44.4325070  93.1464723 165.7814406  44.7247813  93.2511627 164.2997196
  49.8073419  96.0411686 155.6269270  49.6691318  96.2313282 154.6990459
  49.4509638  96.8031069 156.0837321  37.9715545  90.0269781 161.7066282
  38.6114925  89.8858540 161.0089245  37.1393076  89.7404294 161.3304884
  49.8342799  98.1088213 160.6380541  50.2679305  98.0163502 161.4863595
  50.5474379  98.0845713 160.0000557  38.7475849  99.3272211 157.8201274
  39.5416448  98.8322532 157.6183849  38.0367542  98.7990075 157.4568980
  43.5670694 101.7090307 162.1713642  43.6207716 102.2781243 162.9391358
  42.6985475 101.8792192 161.8067679  35.0558613  93.4715293 153.8961027
  34.1256201  93.4099749 154.1130989  35.1516085  92.9491246 153.0997668
  34.9744162  89.9970106 156.4839268  35.2350979  90.9115439 156.3748429
  35.7961334  89.5294549 156.6335881  36.4469087  91.4107863 163.6538093
  37.1192140  91.2025225 163.0050742  35.6198874  91.2129949 163.2143325
  50.6958348  98.1511914 163.1713427  50.8894238  99.0557724 163.4172701
  50.5958966  97.6919333 164.0052012  42.3494659  88.0369804 165.6703754
  41.7022574  88.7359754 165.5768230  43.1195674  88.4705948 166.0380002
  45.7573457  98.3018656 168.7454307  45.6058963  98.0729208 167.8284391
  45.7478136  99.2589258 168.7585652  42.5258793  95.8750569 163.7300574
  43.4550853  96.0261729 163.5569541  42.1049823  95.9634590 162.8749220
  41.3247125  99.9001233 161.4999111  41.1858211  99.5320018 162.3725049
  40.5361721 100.4148873 161.3283069  41.9195277 105.0010330 152.8424648
  42.0947033 104.5298373 153.6570270  41.2328065 105.6276096 153.0705908
  42.8752340  99.2782836 158.8887949  42.5402173  99.2383606 159.7845599
  42.3756286  98.6127552 158.4158359  36.8496584  94.6850466 164.4140530
  36.7116382  93.9530705 165.0152069  37.7601508  94.5959366 164.1324718
  45.8111532  96.6238870 149.1625009  45.1940703  95.8985699 149.0658061
  45.3428020  97.3848231 148.8192083  39.4778885  94.3970426 163.9024210
  40.1878503  93.7563618 163.8610828  39.4348193  94.6483320 164.8250391
  47.4665664 101.3337779 166.8230789  47.4078210 100.6496999 166.1561372
  47.8685182 102.0756769 166.3711415  37.6010078  90.8424295 148.2846313
  36.7239544  90.7213096 147.9208560  38.0767831  90.0510373 148.0325202
  47.4683071  99.2977363 165.0544769  46.5809850  98.9603285 165.1771168
  48.0381622  98.5660394 165.2913534  33.9246940  90.5191651 162.8072844
  33.8405129  89.9117321 162.0723254  33.1029647  91.0100669 162.8082340
  40.9984224 103.9578815 162.0206012  40.9254396 104.7633787 162.5325316
  40.5561617 104.1570781 161.1954033  40.7874004 103.1950585 155.5308833
  40.0041526 103.7372265 155.6247058  41.4866749 103.7124565 155.9303075
  44.0970654  89.0045215 158.1743039  44.5939354  88.2515177 157.8544109
  43.3257636  89.0409531 157.6086248  51.9500411  94.7085580 159.8161330
  51.9390288  95.5910296 159.4455263  51.0817791  94.3557131 159.6215867
  43.4582908 103.8565649 164.1764171  44.1710880 104.4913114 164.1040072
  42.9672936 103.9529515 163.3604172  45.1800435  97.7616902 155.7481462
  44.2456713  97.8818364 155.5786167  45.3577103  96.8589369 155.4841472
  40.6805623  91.1462598 157.9014723  40.3103410  90.5933638 158.5895629
  41.1764715  90.5420731 157.3489723  48.5672986  93.6034221 156.2831496
  49.0333438  94.4362213 156.2091799  49.0180487  93.1379203 156.9876755
  46.6349217  99.9478042 153.2817648  46.9109061  99.8334637 154.1911522
  45.7653716  99.5495527 153.2429821  46.5389649  85.9714808 160.3222398
  45.6252729  86.2019035 160.4904605  46.9682750  86.0553252 161.1736430
  46.3096107  94.1604700 162.8222292  45.6567558  94.4080608 162.1674744
  46.6876487  93.3468838 162.4884769  43.2703281 104.1964393 156.9250462
  43.4525676 103.3786049 157.3878214  44.0936267 104.4132085 156.4875352
  43.6045447 103.1232578 154.1865510  44.1333213 102.6125033 153.5735673
  43.8673666 102.8075109 155.0511043  36.9601195 104.1747695 156.9463286
  36.2911570 104.6593823 156.4627326  36.8214064 104.4216916 157.8606665
  32.3288772  92.4366150 153.7259219  32.6242213  91.5276828 153.6726272
  31.4276807  92.4153889 153.4040221  44.2374850 104.1573414 160.5309627
  44.1125990 103.3563154 160.0220572  44.8953942 104.6519607 160.0423597
  35.8583019  90.5122147 159.7086767  35.1369604  91.1258114 159.5694240
  36.6476274  91.0479911 159.6303413  46.3009759 101.9582434 162.1589177
  45.3540094 101.8387785 162.0867504  46.6492532 101.0704932 162.2415438
  34.0576613  90.1180248 153.8498544  33.7289319  89.2377627 153.6673650
  34.4115984  90.0627916 154.7374933  43.3056192 101.7535150 158.3593529
  43.1581155 100.8251858 158.5401099  44.1309686 101.7755241 157.8750604
  37.1718436  90.4053217 154.2174021  37.5114509  90.9339139 153.4952630
  37.6190557  90.7433624 154.9932588  46.9090314 102.5763709 159.4458402
  47.8336861 102.3706570 159.3082853  46.7405617 102.3280110 160.3547743
  39.8661877  88.7890268 163.6677089  39.5258698  87.9898081 164.0697769
  39.1600884  89.0891979 163.0953923  40.5178349  85.8739581 162.1204412
  41.3404418  85.4000059 161.9983303  40.7616413  86.6530064 162.6203099
  39.1586584  88.9027839 152.4167314  39.8794946  89.2809092 151.9131031
  38.5351888  89.6216716 152.5202292  43.3017706  89.6072988 153.3525646
  43.5181321  90.4897626 153.0514475  42.8211774  89.2159201 152.6231288
  38.0416928  92.5658701 159.9296391  37.8961509  92.8799004 160.8220673
  37.5642132  93.1843602 159.3767290  39.9013311  89.5561249 159.9777281
  39.8874880  88.6602343 159.6409579  40.6185739  89.5631913 160.6115567
  41.7539441  89.9898589 162.0230408  41.4957219  90.9115660 162.0214738
  41.2224482  89.5929024 162.7130872  46.6985630 103.0949377 154.8020493
  46.8722508 102.5295799 154.0494346  47.1914521 103.8950271 154.6199983
  39.3050207  88.4375630 155.2464851  39.4266118  87.5092276 155.4455738
  39.0152249  88.4514316 154.3343166  42.1741397  86.1230540 158.3831571
  42.1963094  86.1869873 157.4283550  42.5909456  85.2835049 158.5772077
  52.5525021  95.8585800 156.4210793  52.9956167  95.1093125 156.0229916
  51.6751532  95.8495936 156.0384525  47.6860803 102.4116141 151.9017392
  48.3811707 103.0322834 152.1204706  48.0283953 101.5611492 152.1769770
  49.5852226  99.8615847 153.4304722  50.1103550 100.2003119 152.7054043
  49.4974578  98.9262862 153.2467857  41.2692887 105.9287830 157.7899976
  40.8297877 105.4364208 158.4832832  42.0201004 105.3860797 157.5492051
  33.7485226 102.1199371 157.7924604  34.5743245 101.8203143 157.4123247
  33.3979278 101.3506993 158.2414392  38.7166759 101.4725839 159.8622277
  38.0946768 100.8096544 159.5624505  39.3871626 101.4986971 159.1795925
  49.2746132 100.4948750 168.7355920  48.4841676 100.4772889 168.1960420
  49.0379486 101.0337044 169.4904957  49.3944007  97.3441217 166.0488649
  49.4442012  97.1791224 166.9904172  49.2857930  96.4768476 165.6586530
  38.2780266 100.0229762 153.3380738  38.4268386 100.7065227 152.6847411
  39.0846709 100.0034852 153.8530194  46.6847769  93.3272145 167.3647956
  47.5857632  93.1878609 167.0731954  46.7595744  93.4926599 168.3046133
  41.0190575  90.7038999 166.2101142  40.1493884  90.9972565 165.9383731
  41.2550055  91.2879444 166.9308406  50.8962204  99.7638158 166.2930671
  50.6047012 100.1268139 167.1294132  50.2834335  99.0505166 166.1144003
  52.0957886  97.3291038 158.8133241  52.9304777  97.7680842 158.9770801
  52.2317015  96.8529691 157.9941487  49.1449392  94.8870773 164.7610729
  49.6203514  95.0798419 163.9529580  48.2214957  94.9429959 164.5154112
  36.0332899  96.0494940 154.3441807  35.7878941  95.1457270 154.5422017
  36.2028813  96.0512090 153.4021285  43.7229609  86.9218616 163.7266562
  44.2411552  87.6579643 163.4013051  43.3684741  87.2282610 164.5613322
  35.3028546  91.7823297 151.8427968  34.6097791  91.8567652 151.1868004
  35.0580298  91.0183641 152.3649485  43.9742203  83.3418899 159.2467459
  44.2543956  82.6742088 159.8727886  44.7592810  83.5347994 158.7342123
  41.7775671 102.5177893 150.8092485  41.2049638 103.1368080 150.3562957
  42.3508465 103.0677254 151.3432407  47.8451061  91.7636533 162.9939034
  48.7968484  91.8634630 163.0151258  47.6754511  90.9714801 163.5037118
  45.8665440  88.8492116 163.1798435  45.2715373  89.1297129 162.4844924
  45.5815137  89.3386017 163.9515176  44.9972931 102.8015043 151.9401068
  45.9303604 102.7360604 152.1433943  44.9096144 103.6371310 151.4815600
  47.6260948 102.1180913 148.9005015  47.5474579 101.7840777 149.7940773
  48.4470614 102.6102681 148.8996488  50.3239139  94.9842652 162.1081334
  50.2915459  94.0458653 162.2941018  50.9339762  95.0626689 161.3747159
  42.1622470  93.8538705 148.1508538  43.1081574  93.7244914 148.2196956
  41.7836715  93.1153367 148.6277966  50.4733627  91.7753696 162.1539617
  49.9572676  90.9912153 161.9669546  51.3573576  91.4472413 162.3186136
  48.1344354  85.5194711 158.1135430  47.9369175  85.2109800 158.9978762
  48.7444060  86.2456350 158.2433359  56.1415689  96.0458659 161.2487371
  56.8719077  95.7843947 161.8095074  55.5322634  95.3087381 161.2889439
  54.2230986  94.1866522 161.8461822  53.4964149  94.0522487 161.2378313
  53.8078273  94.4943350 162.6518540  40.3465387  91.7788682 148.0863423
  39.4396842  91.4821795 148.1626137  40.6241368  91.4818500 147.2197709
  31.2643327  93.0995045 158.5362469  30.9446112  92.2460353 158.2436843
  30.7176755  93.3143623 159.2920437  35.0423235  95.8157486 162.2531976
  35.2609245  96.7474594 162.2720010  35.4549009  95.4565461 163.0386780
  41.9627453  86.3225572 154.2407664  41.1528181  85.9772657 154.6162910
  42.6511869  86.0133115 154.8295276  43.8918001  85.4003618 155.8631961
  44.4449039  85.8199072 156.5221984  44.1288087  84.4739366 155.9054917
  39.1164171  88.6375617 148.2275402  39.9783335  88.9630515 148.4871220
  39.3014516  87.8507113 147.7148468  47.2696808  87.5104143 155.3710625
  46.6895477  88.1688948 154.9888678  47.0032741  86.6881488 154.9598043
  45.7200374  86.9109201 157.5731946  46.2200153  87.0225736 156.7646264
  46.3635982  86.6070254 158.2132754  33.0468330  96.6516210 158.3821606
  33.0239018  96.7503898 157.4303489  33.3568966  97.4981361 158.7038772
  46.0521686  89.6704234 154.4266974  45.1647541  89.9553885 154.2087168
  46.4675675  89.5097997 153.5794250  49.4036222  89.6950755 158.1421313
  50.1796612  90.1847207 158.4145930  48.6784356  90.1208809 158.5993182
  51.8408781  90.4078374 159.1995253  52.4353272  90.1674110 158.4888562
  51.9135364  89.6885505 159.8268790  45.1964899  99.4348909 148.5214993
  45.9000750  99.6398911 149.1372649  44.4727548 100.0025670 148.7864077
  46.0262710  95.1858770 154.6417264  45.9697911  95.6427321 153.8024896
  46.5791052  94.4249454 154.4640106  49.8367516  90.9748502 155.4667383
  49.5804450  90.5745137 156.2975591  49.2120384  91.6892296 155.3417522
  54.1479853  93.7144575 157.9738675  53.5879411  93.7837764 158.7470237
  53.5423357  93.5385560 157.2538171  47.1051597  99.8731438 150.5713454
  47.9397201  99.4412636 150.3890928  46.9435940  99.7013451 151.4990348
  46.7597489  96.3763551 151.9369793  46.7046293  96.2107822 150.9958237
  46.1343544  97.0839584 152.0931983  40.0693614  85.8771660 151.5155111
  40.0572284  86.8213500 151.6723382  40.9617036  85.6941805 151.2214572
  39.9983178 104.5540550 159.6022868  39.0478809 104.5542412 159.4887240
  40.3015665 103.8073285 159.0858903  43.8845734  82.4714437 155.7701048
  43.1178130  81.9172923 155.9157730  44.2956439  82.5436305 156.6315200
  55.7335872 110.3901089 160.6668630  56.3714282 110.2707836 159.9631970
  55.6156715 111.3381933 160.7256582  52.5425578 110.3428517 160.6030155
  52.2044090 110.2269582 159.7150690  53.4115346 109.9419682 160.5831161
  48.4012394 112.1963993 156.5927046  47.8377259 112.1053930 155.8243334
  48.2864789 111.3763898 157.0729538  53.0245361 111.4963369 166.5616361
  53.0134002 111.1016167 165.6896864  53.1866001 110.7629441 167.1550132
  45.9476826 113.6915185 159.4311266  46.7398118 113.3506010 159.0157566
  46.1873476 113.8010160 160.3513420  53.9811953 115.8634961 151.9041511
  53.3299932 116.4489041 151.5175525  54.7756315 116.3941156 151.9636548
  47.9067580 112.9524098 152.3028645  48.6798456 112.4053085 152.1641521
  48.2592979 113.8168348 152.5143107  50.6708829 111.6577329 162.0996904
  51.2672401 111.4333351 161.3853867  50.7283801 110.9162074 162.7022352
  50.2433858 109.1116764 149.9347095  50.4959378 108.5898286 149.1730558
  49.3058417 108.9482910 150.0373779  55.2877140 108.1152543 157.7421838
  56.0740230 107.6971966 157.3912255  55.5515845 109.0198635 157.9103487
  55.4587218 113.5525393 152.4410495  54.8233051 113.6260020 153.1531400
  55.1284624 114.1418992 151.7629574  60.6885568 108.0527776 158.6454817
  61.4210739 107.4826993 158.8792646  59.9324923 107.6649376 159.0861322
  49.9630146 111.0144870 152.1371470  49.8466404 110.3389774 152.8052554
  50.0732406 110.5277244 151.3203623  52.3061687 110.4755017 155.8418159
  51.9419894 109.9485638 156.5531081  53.1628803 110.0853486 155.6684645
  58.2110988 101.7649350 163.1049425  57.8794313 102.6344761 162.8810640
  57.6156601 101.4485634 163.7843456  51.9467174 105.5044917 150.8379508
  52.1141577 106.3725154 151.2049979  51.7564343 105.6672199 149.9140797
  54.7042507 113.9661896 162.5045338  54.4043230 114.8686935 162.3961145
  54.3593567 113.6994079 163.3566491  48.1554989 110.4175693 158.5382043
  47.2305485 110.2851907 158.7459734  48.4039402 111.1969912 159.0351985
  58.1039651 106.4844436 160.1842775  57.1956529 106.4159845 159.8901536
  58.0527247 106.9616381 161.0124601  51.9256395 107.9602575 151.8226175
  51.8056020 108.4059625 152.6611655  51.2308983 108.3087892 151.2639713
  45.5163800 110.0608966 159.3725832  45.6456181 110.3143445 160.2865243
  44.8361251 110.6536674 159.0530487  49.6863287 120.7306216 155.4716306
  49.6087317 121.6814041 155.5504786  49.0824931 120.3852089 156.1291232
  52.1780517 107.9034082 168.1277673  51.4013851 108.4628002 168.1180537
  52.8171080 108.3890865 168.6492543  59.9701298 104.6860875 161.9620649
  59.3275678 104.9793408 161.3160444  59.4656226 104.5713795 162.7673846
  57.6241461 108.4324048 152.6506509  58.5359317 108.6651435 152.4754206
  57.1151108 109.0161092 152.0881587  55.9082229 112.8548676 166.2867801
  56.3165585 112.4131086 165.5422434  55.1859490 112.2801303 166.5401994
  52.2613299 107.7921282 163.6601358  53.1074494 108.2160696 163.8036007
  52.2011937 107.1354907 164.3539921  56.2311044 113.4149866 160.0420090
  55.6019906 113.5795580 159.3396158  55.8436706 113.8291476 160.8131054
  60.1100275 114.3504304 157.3964454  59.4251314 114.7303205 156.8461487
  60.1944125 114.9599631 158.1296402  55.4112744 105.4525651 165.3182532
  55.1673676 106.2067711 164.7816808  55.6872675 105.8310998 166.1529779
  57.3651207 111.9964263 163.9959797  57.5768102 112.6396023 163.3194179
  57.3180955 111.1626580 163.5281728  54.9677436 104.6082084 160.8996370
  54.1061915 104.9063337 161.1913107  54.9939871 104.8252483 159.9677402
  51.7839005 113.1524274 157.3070175  52.2477351 113.4311977 156.5174798
  51.5195804 112.2507719 157.1243266  48.6763087 112.6995756 160.2449938
  49.2464444 113.1283024 159.6067423  49.2671198 112.4178341 160.9434124
  50.7207892 109.2747427 154.1159740  51.4231935 109.7268470 154.5833667
  50.3888520 108.6331246 154.7439633  44.4633225 107.5330979 159.4176874
  43.6732279 107.7888508 158.9416985  44.9544473 108.3479317 159.5228914
  58.4797035 114.8736219 162.1682155  59.3014479 114.4716406 161.8864836
  58.4759438 114.7704453 163.1198271  46.4147971 107.8975559 156.3760351
  45.6179134 108.0094253 156.8943846  46.1873563 108.2362211 155.5101241
  52.2453638 114.4220262 164.3242865  52.3098071 114.8840669 165.1601037
  51.5364562 113.7917627 164.4525175  42.7470928 107.7861470 161.8491865
  42.9978967 108.6708480 162.1149441  43.2830477 107.6066071 161.0766957
  66.5703028 111.2174967 158.5167126  65.8166736 110.6482365 158.3611131
  66.7050569 111.1837632 159.4637761  51.9601656 116.0888369 154.1921846
  51.8247331 116.9339905 154.6206693  52.5011469 116.2907647 153.4287779
  45.4131054 113.6063807 154.7649771  45.9255574 114.4007058 154.9155335
  46.0653766 112.9090098 154.6983372  47.2225938 116.7229564 156.8472524
  47.3992567 117.6447528 156.6593508  48.0182772 116.4087983 157.2766904
  51.3636957 103.5837828 168.4456457  52.1046670 104.1844981 168.3660920
  51.5954880 102.8415466 167.8874500  55.3094120  99.6118931 162.7220739
  54.9658389 100.5020573 162.6459850  55.6773082  99.4220589 161.8590324
  43.3779970 111.9352462 155.5409341  44.2155192 112.3449470 155.3243049
  43.5558238 110.9951904 155.5109535  55.2744402 109.6027542 151.2293174
  54.7591026 110.3732147 151.4681562  55.0021711 108.9292678 151.8526236
  52.8591513 104.4477243 156.2878413  52.0033110 104.0584093 156.1084051
  53.2718465 104.5269204 155.4278198  54.3890660 101.9823586 160.6869972
  53.8855456 101.9453722 159.8737778  54.6821267 102.8916329 160.7466629
  50.6333546 102.0662316 159.6936154  51.4986543 101.8705125 159.3342044
  50.7011055 101.8372668 160.6205511  60.2478677 112.3559897 153.1646348
  59.4708119 112.0171056 152.7201510  60.9270158 112.3612520 152.4901313
  55.0630706 107.4754634 153.0552955  54.7580841 107.7900784 153.9063099
  56.0161148 107.5536054 153.0980288  53.5077137 113.6344858 154.7045909
  52.9798499 112.8997617 154.3919147  53.0064640 114.4119534 154.4585878
  58.4869983 111.8293878 159.8212956  57.8293658 112.5193140 159.9093084
  59.2910383 112.2190310 160.1646942  48.2395865 104.2964524 157.0652521
  48.8139617 104.0739705 156.3325714  48.8266847 104.3653219 157.8181122
  57.2975442 110.1838251 157.8716897  57.8107324 110.8168243 158.3738607
  57.9476666 109.5839446 157.5060257  48.5665452 106.3268985 151.0848406
  47.7302764 106.6643672 151.4057681  48.4270222 106.1917965 150.1475543
  50.5418533 101.1705773 155.7927590  49.8882945 100.8554790 155.1684205
  50.4999007 100.5481513 156.5187413  51.6529738 111.4525068 147.7080882
  50.7456799 111.2214321 147.9072031  52.1500770 110.6562687 147.8954864
  54.5597816 120.1622575 150.6277569  53.8859515 120.4654272 151.2362526
  54.9463638 120.9651656 150.2783026  53.7756273 107.6587706 160.1175238
  52.8578834 107.8802653 159.9596926  54.1916417 107.7334017 159.2586945
  54.5591321 109.0579122 155.2477918  55.3063140 109.5700519 154.9385040
  54.8282910 108.7363175 156.1082312  52.8317971 111.5537663 152.2304872
  51.9229190 111.2696696 152.3277342  52.8613055 111.9736741 151.3708179
  58.0637238 115.1644252 155.9996040  57.6099566 114.3235162 156.0561230
  57.4331205 115.8005651 156.3370820  57.0070158 106.0936238 157.2296707
  56.2692915 105.5813625 157.5606950  57.2596932 105.6536620 156.4179984
  56.5070178 117.0020749 156.9345858  56.7993152 117.5625806 156.2158224
  57.0168798 117.2949310 157.6899017  57.1081785  98.8712490 157.8238477
  57.4140662  98.0109854 157.5364392  57.8334390  99.4630111 157.6237471
  43.4006141 109.2743177 156.2120075  43.2030541 108.6812538 155.4871141
  42.8452805 108.9695387 156.9296013  51.3802865 109.1666283 158.3314668
  51.4351475 108.2140120 158.2557144  50.5694067 109.3225723 158.8155966
  52.5294059 113.0946407 149.5692951  52.0913489 112.3782265 149.1098588
  53.2704500 113.3222521 149.0078042  49.3195225 107.7843343 156.0905047
  48.5063091 108.0837514 156.4970239  49.8154219 107.3899032 156.8079529
  51.4703803 117.7801100 158.0239311  51.4279982 118.0061946 157.0947843
  52.3866502 117.5464475 158.1725113  54.9169437 108.2485168 164.9219941
  55.2718824 108.4756641 165.7814406  55.5641568 108.5803544 164.2997196
  60.6467174 111.3703604 155.6269270  60.5085072 111.5605200 154.6990459
  60.2903392 112.1322986 156.0837321  48.8109300 105.3561699 161.7066282
  49.4508679 105.2150458 161.0089245  47.9786830 105.0696212 161.3304884
  60.6736553 113.4380131 160.6380541  61.1073060 113.3455420 161.4863595
  61.3868134 113.4137631 160.0000557  49.5869604 114.6564129 157.8201274
  50.3810202 114.1614449 157.6183849  48.8761296 114.1281992 157.4568980
  54.4064448 117.0382225 162.1713642  54.4601470 117.6073161 162.9391358
  53.5379230 117.2084110 161.8067679  45.8952367 108.8007211 153.8961027
  44.9649955 108.7391666 154.1130989  45.9909839 108.2783164 153.0997668
  45.8137916 105.3262024 156.4839268  46.0744733 106.2407357 156.3748429
  46.6355089 104.8586466 156.6335881  47.2862842 106.7399781 163.6538093
  47.9585895 106.5317143 163.0050742  46.4592628 106.5421867 163.2143325
  61.5352103 113.4803831 163.1713427  61.7287993 114.3849642 163.4172701
  61.4352721 113.0211250 164.0052012  53.1888414 103.3661722 165.6703754
  52.5416329 104.0651671 165.5768230  53.9589429 103.7997866 166.0380002
  53.3652548 111.2042487 163.7300574  54.2944608 111.3553646 163.5569541
  52.9443578 111.2926507 162.8749220  52.1640880 115.2293151 161.4999111
  52.0251965 114.8611936 162.3725049  51.3755476 115.7440791 161.3283069
  52.7589032 120.3302248 152.8424648  52.9340787 119.8590291 153.6570270
  52.0721820 120.9568014 153.0705908  53.7146095 114.6074754 158.8887949
  53.3795927 114.5675524 159.7845599  53.2150040 113.9419470 158.4158359
  47.6890339 110.0142384 164.4140530  47.5510137 109.2822623 165.0152069
  48.5995262 109.9251284 164.1324718  56.6505286 111.9530788 149.1625009
  56.0334457 111.2277616 149.0658061  56.1821775 112.7140148 148.8192083
  50.3172639 109.7262343 163.9024210  51.0272258 109.0855535 163.8610828
  50.2741948 109.9775238 164.8250391  49.0301573 106.7127561 165.7219849
  48.4938930 106.2618300 166.3741446  48.4418282 106.8473470 164.9790314
  48.4403832 106.1716212 148.2846313  47.5633299 106.0505013 147.9208560
  48.9161585 105.3802291 148.0325202  58.3076825 114.6269280 165.0544769
  57.4203604 114.2895202 165.1771168  58.8775376 113.8952312 165.2913534
  44.7640695 105.8483569 162.8072844  44.6798883 105.2409238 162.0723254
  43.9423401 106.3392587 162.8082340  51.8377979 119.2870733 162.0206012
  51.7648150 120.0925704 162.5325316  51.3955372 119.4862699 161.1954033
  51.6267758 118.5242503 155.5308833  50.8435280 119.0664183 155.6247058
  52.3260504 119.0416482 155.9303075  54.9364409 104.3337132 158.1743039
  55.4333108 103.5807095 157.8544109  54.1651390 104.3701449 157.6086248
  62.7894166 110.0377498 159.8161330  62.7784042 110.9202213 159.4455263
  61.9211545 109.6849049 159.6215867  56.0194189 113.0908820 155.7481462
  55.0850468 113.2110282 155.5786167  56.1970858 112.1881286 155.4841472
  51.5199377 106.4754515 157.9014723  51.1497165 105.9225556 158.5895629
  52.0158470 105.8712649 157.3489723  59.4066741 108.9326139 156.2831496
  59.8727193 109.7654130 156.2091799  59.8574241 108.4671120 156.9876755
  57.4742972 115.2769960 153.2817648  57.7502816 115.1626555 154.1911522
  56.6047470 114.8787445 153.2429821  57.3783403 101.3006726 160.3222398
  56.4646483 101.5310953 160.4904605  57.8076505 101.3845170 161.1736430
  57.1489862 109.4896618 162.8222292  56.4961312 109.7372525 162.1674744
  57.5270242 108.6760756 162.4884769  54.1097036 119.5256311 156.9250462
  54.2919430 118.7077967 157.3878214  54.9330022 119.7424003 156.4875352
  54.4439201 118.4524496 154.1865510  54.9726968 117.9416951 153.5735673
  54.7067421 118.1367026 155.0511043  47.7994949 119.5039613 156.9463286
  47.1305324 119.9885740 156.4627326  47.6607819 119.7508833 157.8606665
  46.9164711 103.8858506 164.1467829  46.9806037 104.7473337 163.7345227
  46.8531831 103.2732508 163.4140188  43.1682526 107.7658068 153.7259219
  43.4635967 106.8568746 153.6726272  42.2670562 107.7445807 153.4040221
  55.0768605 119.4865332 160.5309627  54.9519744 118.6855072 160.0220572
  55.7347696 119.9811525 160.0423597  46.6976773 105.8414064 159.7086767
  45.9763359 106.4550032 159.5694240  47.4870029 106.3771829 159.6303413
  57.1403513 117.2874352 162.1589177  56.1933849 117.1679703 162.0867504
  57.4886286 116.3996850 162.2415438  49.5003087 103.1768491 165.9827419
  50.0237489 103.4230787 166.7453728  49.2815420 104.0088526 165.5630556
  44.8970368 105.4472165 153.8498544  44.5683074 104.5669544 153.6673650
  45.2509738 105.3919834 154.7374933  54.1449947 117.0827068 158.3593529
  53.9974909 116.1543775 158.5401099  54.9703440 117.1047159 157.8750604
  48.0112191 105.7345135 154.2174021  48.3508263 106.2631056 153.4952630
  48.4584311 106.0725541 154.9932588  57.7484069 117.9055627 159.4458402
  58.6730616 117.6998488 159.3082853  57.5799372 117.6572028 160.3547743
  50.7055632 104.1182186 163.6677089  50.3652452 103.3189999 164.0697769
  49.9994638 104.4183897 163.0953923  51.3572104 101.2031498 162.1204412
  52.1798173 100.7291977 161.9983303  51.6010167 101.9821982 162.6203099
  49.9980338 104.2319757 152.4167314  50.7188701 104.6101010 151.9131031
  49.3745642 104.9508634 152.5202292  54.1411461 104.9364906 153.3525646
  54.3575075 105.8189544 153.0514475  53.6605528 104.5451119 152.6231288
  48.8810682 107.8950619 159.9296391  48.7355263 108.2090922 160.8220673
  48.4035886 108.5135519 159.3767290  50.7407065 104.8853167 159.9777281
  50.7268634 103.9894260 159.6409579  51.4579493 104.8923831 160.6115567
  52.5933196 105.3190507 162.0230408  52.3350974 106.2407578 162.0214738
  52.0618236 104.9220942 162.7130872  57.5379385 118.4241294 154.8020493
  57.7116262 117.8587717 154.0494346  58.0308276 119.2242189 154.6199983
  50.1443961 103.7667547 155.2464851  50.2659872 102.8384193 155.4455738
  49.8546004 103.7806233 154.3343166  53.0135152 101.4522458 158.3831571
  53.0356848 101.5161791 157.4283550  53.4303211 100.6126966 158.5772077
  63.3918776 111.1877717 156.4210793  63.8349922 110.4385042 156.0229916
  62.5145286 111.1787854 156.0384525  58.5254557 117.7408059 151.9017392
  59.2205462 118.3614751 152.1204706  58.8677707 116.8903410 152.1769770
  60.4245980 115.1907764 153.4304722  60.9497304 115.5295037 152.7054043
  60.3368333 114.2554780 153.2467857  52.1086641 121.2579747 157.7899976
  51.6691631 120.7656126 158.4832832  52.8594758 120.7152715 157.5492051
  44.5878980 117.4491288 157.7924604  45.4137000 117.1495060 157.4123247
  44.2373032 116.6798911 158.2414392  49.5560513 116.8017757 159.8622277
  48.9340523 116.1388462 159.5624505  50.2265380 116.8278888 159.1795925
  49.6285041 105.2799545 169.4554783  49.6773196 106.1561667 169.0732553
  50.1707555 104.7376938 168.8826427  49.1174020 115.3521680 153.3380738
  49.2662141 116.0357144 152.6847411  49.9240464 115.3326770 153.8530194
  57.5241524 108.6564062 167.3647956  58.4251387 108.5170527 167.0731954
  57.5989498 108.8218517 168.3046133  51.8584329 106.0330917 166.2101142
  50.9887639 106.3264483 165.9383731  52.0943810 106.6171362 166.9308406
  62.9351641 112.6582956 158.8133241  63.7698532 113.0972760 158.9770801
  63.0710769 112.1821609 157.9941487  59.9843147 110.2162690 164.7610729
  60.4597268 110.4090337 163.9529580  59.0608712 110.2721876 164.5154112
  46.8726653 111.3786858 154.3441807  46.6272695 110.4749188 154.5422017
  47.0422568 111.3804008 153.4021285  54.5623363 102.2510534 163.7266562
  55.0805307 102.9871561 163.4013051  54.2078496 102.5574527 164.5613322
  46.1422301 107.1115215 151.8427968  45.4491546 107.1859570 151.1868004
  45.8974053 106.3475559 152.3649485  54.8135957  98.6710816 159.2467459
  55.0937711  98.0034006 159.8727886  55.5986564  98.8639912 158.7342123
  52.6169426 117.8469810 150.8092485  52.0443393 118.4659997 150.3562957
  53.1902219 118.3969172 151.3432407  58.6844816 107.0928450 162.9939034
  59.6362238 107.1926548 163.0151258  58.5148266 106.3006719 163.5037118
  56.7059195 104.1784034 163.1798435  56.1109127 104.4589046 162.4844924
  56.4208892 104.6677935 163.9515176  55.8366685 118.1306960 151.9401068
  56.7697359 118.0652522 152.1433943  55.7489898 118.9663227 151.4815600
  58.4654702 117.4472831 148.9005015  58.3868334 117.1132694 149.7940773
  59.2864369 117.9394599 148.8996488  61.1632893 110.3134570 162.1081334
  61.1309213 109.3750571 162.2941018  61.7733517 110.3918607 161.3747159
  53.0016224 109.1830623 148.1508538  53.9475329 109.0536831 148.2196956
  52.6230469 108.4445285 148.6277966  61.3127382 107.1045614 162.1539617
  60.7966430 106.3204070 161.9669546  62.1967330 106.7764330 162.3186136
  58.9738109 100.8486629 158.1135430  58.7762930 100.5401717 158.9978762
  59.5837814 101.5748268 158.2433359  66.9809443 111.3750577 161.2487371
  67.7112832 111.1135865 161.8095074  66.3716389 110.6379299 161.2889439
  65.0624740 109.5158440 161.8461822  64.3357904 109.3814404 161.2378313
  64.6472027 109.8235268 162.6518540  51.1859141 107.1080599 148.0863423
  50.2790597 106.8113712 148.1626137  51.4635122 106.8110418 147.2197709
  42.1037082 108.4286963 158.5362469  41.7839866 107.5752271 158.2436843
  41.5570510 108.6435541 159.2920437  45.8816989 111.1449404 162.2531976
  46.1002999 112.0766512 162.2720010  46.2942763 110.7857378 163.0386780
  52.8021207 101.6517489 154.2407664  51.9921935 101.3064574 154.6162910
  53.4905624 101.3425033 154.8295276  54.7311755 100.7295536 155.8631961
  55.2842794 101.1490989 156.5221984  54.9681842  99.8031284 155.9054917
  49.9557926 103.9667535 148.2275402  50.8177090 104.2922433 148.4871220
  50.1408270 103.1799031 147.7148468  58.1090562 102.8396061 155.3710625
  57.5289231 103.4980865 154.9888678  57.8426495 102.0173406 154.9598043
  56.5594129 102.2401119 157.5731946  57.0593907 102.3517653 156.7646264
  57.2029737 101.9362172 158.2132754  43.8862084 111.9808128 158.3821606
  43.8632772 112.0795815 157.4303489  44.1962721 112.8273279 158.7038772
  56.8915440 104.9996152 154.4266974  56.0041295 105.2845802 154.2087168
  57.3069430 104.8389915 153.5794250  60.2429977 105.0242673 158.1421313
  61.0190367 105.5139125 158.4145930  59.5178111 105.4500727 158.5993182
  62.6802535 105.7370292 159.1995253  63.2747026 105.4966028 158.4888562
  62.7529119 105.0177422 159.8268790  56.0358654 114.7640826 148.5214993
  56.7394504 114.9690829 149.1372649  55.3121303 115.3317588 148.7864077
  56.8656464 110.5150687 154.6417264  56.8091666 110.9719239 153.8024896
  57.4184807 109.7541372 154.4640106  60.6761270 106.3040419 155.4667383
  60.4198204 105.9037055 156.2975591  60.0514138 107.0184213 155.3417522
  64.9873608 109.0436493 157.9738675  64.4273166 109.1129682 158.7470237
  64.3817111 108.8677477 157.2538171  57.9445351 115.2023355 150.5713454
  58.7790955 114.7704554 150.3890928  57.7829694 115.0305369 151.4990348
  57.5991243 111.7055469 151.9369793  57.5440047 111.5399740 150.9958237
  56.9737299 112.4131502 152.0931983  50.9087369 101.2063578 151.5155111
  50.8966039 102.1505418 151.6723382  51.8010791 101.0233723 151.2214572
  50.8376933 119.8832468 159.6022868  49.8872564 119.8834330 159.4887240
  51.1409419 119.1365203 159.0858903  54.7239488  97.8006354 155.7701048
  53.9571884  97.2464841 155.9157730  55.1350193  97.8728223 156.6315200
  59.2406148 127.5255911 156.5927046  58.6771014 127.4345848 155.8243334
  59.1258543 126.7055816 157.0729538  64.8205707 131.1926879 151.9041511
  64.1693687 131.7780959 151.5175525  65.6150070 131.7233074 151.9636548
  58.7461334 128.2816016 152.3028645  59.5192210 127.7345003 152.1641521
  59.0986733 129.1460265 152.5143107  61.0827612 124.4408682 149.9347095
  61.3353133 123.9190203 149.1730558  60.1452171 124.2774827 150.0373779
  66.2980972 128.8817311 152.4410495  65.6626805 128.9551937 153.1531400
  65.9678379 129.4710910 151.7629574  60.8023901 126.3436788 152.1371470
  60.6860159 125.6681691 152.8052554  60.9126161 125.8569162 151.3203623
  63.1455442 125.8046935 155.8418159  62.7813649 125.2777556 156.5531081
  64.0022558 125.4145404 155.6684645  62.7860929 120.8336835 150.8379508
  62.9535331 121.7017071 151.2049979  62.5958098 120.9964116 149.9140797
  62.7650150 123.2894492 151.8226175  62.6449775 123.7351543 152.6611655
  62.0702738 123.6379810 151.2639713  68.4635216 123.7615965 152.6506509
  69.3753072 123.9943352 152.4754206  67.9544863 124.3453010 152.0881587
  61.5601646 124.6039344 154.1159740  62.2625689 125.0560388 154.5833667
  61.2282274 123.9623163 154.7439633  55.3026980 122.8622897 159.4176874
  54.5126034 123.1180426 158.9416985  55.7938227 123.6771235 159.5228914
  57.2541725 123.2267476 156.3760351  56.4572889 123.3386171 156.8943846
  57.0267318 123.5654128 155.5101241  56.2524808 128.9355725 154.7649771
  56.7649329 129.7298975 154.9155335  56.9047521 128.2382015 154.6983372
  54.2173725 127.2644379 155.5409341  55.0548947 127.6741388 155.3243049
  54.3951992 126.3243821 155.5109535  66.1138157 124.9319460 151.2293174
  65.5984780 125.7024065 151.4681562  65.8415465 124.2584596 151.8526236
  63.6985268 119.7769161 156.2878413  62.8426864 119.3876011 156.1084051
  64.1112220 119.8561122 155.4278198  61.4727300 117.3954234 159.6936154
  62.3380297 117.1997042 159.3342044  61.5404809 117.1664586 160.6205511
  65.9024460 122.8046552 153.0552955  65.5974596 123.1192701 153.9063099
  66.8554902 122.8827972 153.0980288  64.3470892 128.9636775 154.7045909
  63.8192253 128.2289535 154.3919147  63.8458395 129.7411452 154.4585878
  59.0789620 119.6256442 157.0652521  59.6533371 119.4031623 156.3325714
  59.6660602 119.6945136 157.8181122  59.4059207 121.6560903 151.0848406
  58.5696519 121.9935589 151.4057681  59.2663976 121.5209882 150.1475543
  61.3812287 116.4997691 155.7927590  60.7276700 116.1846708 155.1684205
  61.3392761 115.8773431 156.5187413  62.4923492 126.7816986 147.7080882
  61.5850554 126.5506239 147.9072031  62.9894524 125.9854605 147.8954864
  65.3985075 124.3871040 155.2477918  66.1456894 124.8992437 154.9385040
  65.6676665 124.0655093 156.1082312  63.6711726 126.8829581 152.2304872
  62.7622945 126.5988613 152.3277342  63.7006809 127.3028659 151.3708179
  67.8463913 121.4228156 157.2296707  67.1086669 120.9105542 157.5606950
  68.0990686 120.9828538 156.4179984  67.9475540 114.2004408 157.8238477
  68.2534417 113.3401771 157.5364392  68.6728145 114.7922028 157.6237471
  54.2399896 124.6035095 156.2120075  54.0424296 124.0104455 155.4871141
  53.6846560 124.2987305 156.9296013  63.3687813 128.4238324 149.5692951
  62.9307243 127.7074183 149.1098588  64.1098254 128.6514439 149.0078042
  60.1588980 123.1135261 156.0905047  59.3456845 123.4129431 156.4970239
  60.6547974 122.7190950 156.8079529  56.7346122 124.1299129 153.8961027
  55.8043710 124.0683584 154.1130989  56.8303594 123.6075081 153.0997668
  56.6531671 120.6553941 156.4839268  56.9138488 121.5699275 156.3748429
  57.4748843 120.1878384 156.6335881  67.4899041 127.2822706 149.1625009
  66.8728212 126.5569534 149.0658061  67.0215529 128.0432066 148.8192083
  59.2797587 121.5008130 148.2846313  58.4027053 121.3796931 147.9208560
  59.7555340 120.7094208 148.0325202  55.6034449 121.1775486 162.8072844
  55.5192638 120.5701156 162.0723254  54.7817156 121.6684505 162.8082340
  65.7758163 119.6629050 158.1743039  66.2726863 118.9099012 157.8544109
  65.0045145 119.6993367 157.6086248  62.3593132 121.8046433 157.9014723
  61.9890919 121.2517473 158.5895629  62.8552224 121.2004566 157.3489723
  54.0076281 123.0949985 153.7259219  54.3029722 122.1860664 153.6726272
  53.1064316 123.0737725 153.4040221  57.5370528 121.1705982 159.7086767
  56.8157113 121.7841950 159.5694240  58.3263783 121.7063747 159.6303413
  55.7364122 120.7764083 153.8498544  55.4076828 119.8961462 153.6673650
  56.0903493 120.7211752 154.7374933  58.8505945 121.0637053 154.2174021
  59.1902018 121.5922974 153.4952630  59.2978066 121.4017459 154.9932588
  60.8374093 119.5611674 152.4167314  61.5582455 119.9392927 151.9131031
  60.2139397 120.2800551 152.5202292  64.9805215 120.2656823 153.3525646
  65.1968830 121.1481461 153.0514475  64.4999283 119.8743037 152.6231288
  61.5800820 120.2145085 159.9777281  61.5662388 119.3186178 159.6409579
  62.2973248 120.2215748 160.6115567  60.9837716 119.0959465 155.2464851
  61.1053627 118.1676111 155.4455738  60.6939758 119.1098151 154.3343166
  63.8528906 116.7814375 158.3831571  63.8750603 116.8453708 157.4283550
  64.2696965 115.9418884 158.5772077  59.9567775 130.6813598 153.3380738
  60.1055895 131.3649062 152.6847411  60.7634218 130.6618688 153.8530194
  57.7120408 126.7078775 154.3441807  57.4666450 125.8041105 154.5422017
  57.8816322 126.7095926 153.4021285  56.9816055 122.4407133 151.8427968
  56.2885300 122.5151488 151.1868004  56.7367807 121.6767476 152.3649485
  65.6529712 114.0002734 159.2467459  65.9331465 113.3325923 159.8727886
  66.4380319 114.1931830 158.7342123  63.4563180 133.1761728 150.8092485
  62.8837147 133.7951915 150.3562957  64.0295974 133.7261090 151.3432407
  69.3048457 132.7764749 148.9005015  69.2262088 132.4424612 149.7940773
  70.1258123 133.2686516 148.8996488  63.8409979 124.5122541 148.1508538
  64.7869083 124.3828749 148.2196956  63.4624224 123.7737203 148.6277966
  69.8131863 116.1778547 158.1135430  69.6156684 115.8693635 158.9978762
  70.4231569 116.9040186 158.2433359  62.0252896 122.4372517 148.0863423
  61.1184351 122.1405630 148.1626137  62.3028877 122.1402335 147.2197709
  52.9430836 123.7578881 158.5362469  52.6233621 122.9044189 158.2436843
  52.3964264 123.9727459 159.2920437  63.6414962 116.9809407 154.2407664
  62.8315690 116.6356492 154.6162910  64.3299378 116.6716951 154.8295276
  65.5705510 116.0587454 155.8631961  66.1236548 116.4782907 156.5221984
  65.8075596 115.1323202 155.9054917  60.7951680 119.2959452 148.2275402
  61.6570844 119.6214351 148.4871220  60.9802025 118.5090948 147.7148468
  68.9484317 118.1687979 155.3710625  68.3682986 118.8272783 154.9888678
  68.6820250 117.3465323 154.9598043  67.3987883 117.5693037 157.5731946
  67.8987662 117.6809571 156.7646264  68.0423491 117.2654089 158.2132754
  54.7255839 127.3100046 158.3821606  54.7026527 127.4087733 157.4303489
  55.0356475 128.1565197 158.7038772  67.7309195 120.3288069 154.4266974
  66.8435050 120.6137720 154.2087168  68.1463184 120.1681833 153.5794250
  66.8752408 130.0932744 148.5214993  67.5788259 130.2982746 149.1372649
  66.1515057 130.6609506 148.7864077  67.7050219 125.8442605 154.6417264
  67.6485420 126.3011157 153.8024896  68.2578561 125.0833290 154.4640106
  71.5155025 121.6332337 155.4667383  71.2591959 121.2328973 156.2975591
  70.8907893 122.3476131 155.3417522  68.7839106 130.5315273 150.5713454
  69.6184710 130.0996472 150.3890928  68.6223449 130.3597287 151.4990348
  68.4384998 127.0347386 151.9369793  68.3833802 126.8691658 150.9958237
  67.8131053 127.7423419 152.0931983  61.7481123 116.5355495 151.5155111
  61.7359793 117.4797335 151.6723382  62.6404545 116.3525641 151.2214572
  65.5633243 113.1298272 155.7701048  64.7965639 112.5756759 155.9157730
  65.9743948 113.2020141 156.6315200  32.3024445  62.2113248 138.6286817
  31.6512425  62.7967329 138.2420831  33.0968808  62.7419443 138.6881855
  26.2280072  59.3002385 139.0273952  27.0010948  58.7531373 138.8886828
  26.5805471  60.1646635 139.2388413  28.5646350  55.4595052 136.6592402
  28.8171871  54.9376573 135.8975865  27.6270909  55.2961197 136.7619085
  33.7799710  59.9003680 139.1655802  33.1445543  59.9738307 139.8776706
  33.4497116  60.4897279 138.4874881  28.2842639  57.3623158 138.8616777
  28.1678897  56.6868061 139.5297861  28.3944898  56.8755531 138.0448930
  30.2679667  51.8523204 137.5624814  30.4354069  52.7203441 137.9295286
  30.0776836  52.0150486 136.6386104  30.2468887  54.3080862 138.5471481
  30.1268513  54.7537913 139.3856962  29.5521476  54.6566180 137.9885019
  28.0075779  67.0784504 142.1961613  27.9299809  68.0292329 142.2750093
  27.4037423  66.7330376 142.8536539  35.9453954  54.7802335 139.3751815
  36.8571810  55.0129722 139.1999513  35.4363601  55.3639379 138.8126894
  38.4312768  60.6982591 144.1209761  37.7463806  61.0781493 143.5706794
  38.5156617  61.3077918 144.8541708  30.1051498  59.5002562 144.0315482
  30.5689843  59.7790265 143.2420104  29.8408296  58.5986006 143.8488573
  29.0420384  55.6225714 140.8405047  29.7444427  56.0746758 141.3078973
  28.7101012  54.9809533 141.4684940  44.8915520  57.5653254 145.2412433
  44.1379229  56.9960652 145.0856437  45.0263062  57.5315919 146.1883068
  30.2814148  62.4366657 140.9167152  30.1459823  63.2818192 141.3452000
  30.8223961  62.6385934 140.1533086  23.7343546  59.9542095 141.4895077
  24.2468066  60.7485345 141.6400642  24.3866259  59.2568385 141.4228679
  25.5438430  63.0707851 143.5717831  25.7205059  63.9925816 143.3838814
  26.3395264  62.7566270 144.0012210  33.5956895  55.9505830 137.9538481
  33.0803518  56.7210434 138.1926868  33.3234203  55.2770966 138.5771542
  38.5691169  58.7038184 139.8891654  37.7920612  58.3649344 139.4446816
  39.2482650  58.7090807 139.2146619  33.3843198  53.8232922 139.7798262
  33.0793333  54.1379071 140.6308405  34.3373640  53.9014342 139.8225595
  31.8289630  59.9823145 141.4291216  31.3010991  59.2475905 141.1164453
  31.3277132  60.7597821 141.1831184  36.8082476  58.1772165 146.5458262
  36.1506150  58.8671427 146.6338391  37.6122875  58.5668597 146.8892249
  35.6187935  56.5316538 144.5962204  36.1319816  57.1646530 145.0983914
  36.2689158  55.9317734 144.2305564  26.8877944  52.6747272 137.8093713
  26.0515257  53.0121959 138.1302987  26.7482714  52.5396252 136.8720850
  29.9742230  57.8003355 134.4326189  29.0669292  57.5692609 134.6317338
  30.4713262  57.0040974 134.6200171  32.8810309  66.5100862 137.3522875
  32.2072008  66.8132559 137.9607833  33.2676131  67.3129943 137.0028332
  32.8803813  55.4057409 141.9723225  33.6275632  55.9178807 141.6630347
  33.1495403  55.0841462 142.8327618  31.1530463  57.9015950 138.9550179
  30.2441683  57.6174983 139.0522649  31.1825547  58.3215029 138.0953486
  36.3849731  61.5122540 142.7241347  35.9312058  60.6713449 142.7806537
  35.7543697  62.1483938 143.0616127  34.8282670  63.3499036 143.6591165
  35.1205644  63.9104093 142.9403530  35.3381291  63.6427597 144.4144324
  30.8506551  59.4424694 136.2938258  30.4125981  58.7260553 135.8343895
  31.5916992  59.6700809 135.7323349  29.7916295  64.1279387 144.7484618
  29.7492474  64.3540234 143.8193150  30.7078994  63.8942762 144.8970419
  38.9679666  57.7181891 142.3514576  38.8297565  57.9083487 141.4235765
  38.6115885  58.4801274 142.8082627  38.9949046  59.7858418 147.3625848
  39.4285552  59.6933707 148.2108902  39.7080626  59.7615918 146.7245864
  31.0801524  66.6780535 139.5669954  31.2553280  66.2068578 140.3815577
  30.3934312  67.3046301 139.7951215  34.9717779  58.3009075 135.8870315
  34.3546949  57.5755904 135.7903368  34.5034267  59.0618436 135.5437390
  25.6462609  69.8269898 146.3409815  25.8859207  70.4588422 147.0188833
  24.8031806  69.4757938 146.6275174  26.7616325  52.5194500 135.0091620
  25.8845791  52.3983300 134.6453866  27.2374078  51.7280578 134.7570508
  29.9480251  64.8720790 142.2554140  29.1647773  65.4142470 142.3492365
  30.6472996  65.3894770 142.6548381  41.1106658  56.3855785 146.5406637
  41.0996534  57.2680500 146.1700570  40.2424038  56.0327336 146.3461174
  34.3406681  59.4387107 142.4726769  33.4062960  59.5588569 142.3031473
  34.5183350  58.5359574 142.2086779  37.7279233  55.2804426 143.0076803
  38.1939685  56.1132418 142.9337106  38.1786733  54.8149408 143.7122061
  35.7955464  61.6248247 140.0062955  36.0715308  61.5104842 140.9156829
  34.9259963  61.2265732 139.9675128  32.4309528  65.8734598 143.6495769
  32.6131922  65.0556254 144.1123521  33.2542514  66.0902290 143.2120659
  32.7651693  64.8002783 140.9110817  33.2939460  64.2895238 140.2980979
  33.0279913  64.4845314 141.7756350  26.1207441  65.8517900 143.6708593
  25.4517817  66.3364028 143.1872633  25.9820311  66.0987120 144.5851972
  33.3981097  65.8343619 147.2554934  33.2732237  65.0333359 146.7465879
  34.0560188  66.3289812 146.7668904  35.4616006  63.6352639 148.8834484
  34.5146341  63.5157990 148.8112810  35.8098779  62.7475137 148.9660745
  32.4662439  63.4305355 145.0838836  32.3187401  62.5022063 145.2646406
  33.2915932  63.4525446 144.5995911  36.0696561  64.2533914 146.1703709
  36.9943108  64.0476775 146.0328160  35.9011864  64.0050315 147.0793050
  32.4623953  51.2843193 140.0770953  32.6787568  52.1667831 139.7759781
  31.9818020  50.8929406 139.3476595  35.8591877  64.7719582 141.5265800
  36.0328755  64.2066004 140.7739653  36.3520768  65.5720476 141.3445290
  41.7131268  57.5356004 143.1456100  42.1562414  56.7863330 142.7475223
  40.8357778  57.5266141 142.7629832  36.8467049  64.0886346 138.6262698
  37.5417954  64.7093039 138.8450013  37.1890200  63.2381697 138.9015076
  38.7458473  61.5386051 140.1550029  39.2709797  61.8773324 139.4299349
  38.6580825  60.6033067 139.9713164  30.4299133  67.6058035 144.5145282
  29.9904124  67.1134413 145.2078139  31.1807250  67.0631002 144.2737358
  27.4386512  61.6999967 140.0626045  27.5874633  62.3835432 139.4092717
  28.2452956  61.6805057 140.5775500  41.2564133  59.0061243 145.5378547
  42.0911024  59.4451047 145.7016108  41.3923262  58.5299896 144.7186793
  30.9381918  64.1948098 137.5337792  30.3655885  64.8138285 137.0808264
  31.5114712  64.7447459 138.0677714  34.1579178  64.4785248 138.6646374
  35.0909851  64.4130809 138.8679250  34.0702391  65.3141515 138.2060907
  36.7867194  63.7951118 135.6250322  36.7080826  63.4610982 136.5186080
  37.6076861  64.2872886 135.6241794  31.3228716  55.5308910 134.8753844
  32.2687821  55.4015118 134.9442262  30.9442961  54.7923572 135.3523273
  45.3021935  57.7228864 147.9732677  46.0325324  57.4614152 148.5340381
  44.6928881  56.9857586 148.0134745  29.5071634  53.4558887 134.8108730
  28.6003089  53.1591999 134.8871443  29.7847615  53.1588705 133.9443016
  28.2770418  50.3145822 134.9520709  29.1389582  50.6400720 135.2116526
  28.4620762  49.5277318 134.4393775  35.2127933  51.3474439 141.1512280
  34.3253788  51.6324089 140.9332475  35.6281922  51.1868202 140.3039557
  34.3571146  61.1119113 135.2460300  35.0606996  61.3169116 135.8617956
  33.6333795  61.6795875 135.5109384  35.1868956  56.8628975 141.3662570
  35.1304158  57.3197526 140.5270203  35.7397299  56.1019659 141.1885413
  38.9973762  52.6518707 142.1912690  38.7410697  52.2515342 143.0220897
  38.3726630  53.3662501 142.0662829  43.3086100  55.3914780 144.6983981
  42.7485658  55.4607969 145.4715543  42.7029604  55.2155764 143.9783477
  26.3781309  66.8251507 146.4502167  26.2613693  67.7696939 146.3480858
  25.5573755  66.5225069 146.8387967  36.2657844  61.5501643 137.2958760
  37.1003448  61.1182841 137.1136235  36.1042187  61.3783656 138.2235655
  35.9203736  58.0533756 138.6615099  35.8652540  57.8878027 137.7203544
  35.2949791  58.7609789 138.8177289  29.1589425  66.2310755 146.3268175
  28.2085056  66.2312617 146.2132547  29.4621911  65.4843490 145.8104209
  44.8942119  72.0671294 147.3913937  45.5320529  71.9478041 146.6877277
  44.7762962  73.0152138 147.4501889  41.7031825  72.0198722 147.3275462
  41.3650336  71.9039787 146.4395996  42.5721593  71.6189887 147.3076468
  37.5618641  73.8734198 143.3172353  36.9983506  73.7824135 142.5488640
  37.4471036  73.0534103 143.7974845  42.1851608  73.1733574 153.2861667
  42.1740249  72.7786372 152.4142171  42.3472247  72.4399646 153.8795439
  35.1083073  75.3685390 146.1556573  35.9004365  75.0276215 145.7402872
  35.3479723  75.4780365 147.0758726  43.1418199  77.5405166 138.6286817
  42.4906179  78.1259246 138.2420831  43.9362562  78.0711361 138.6881855
  37.0673827  74.6294303 139.0273952  37.8404703  74.0823290 138.8886828
  37.4199225  75.4938552 139.2388413  38.9058869  75.9570685 152.2340851
  38.6148735  76.8616316 152.1187517  39.5415853  75.9987213 152.9484921
  39.8315076  73.3347534 148.8242211  40.4278648  73.1103556 148.1099174
  39.8890047  72.5932279 149.4267659  39.4040104  70.7886969 136.6592402
  39.6565625  70.2668491 135.8975865  38.4664663  70.6253115 136.7619085
  44.4483387  69.7922748 144.4667145  45.2346476  69.3742171 144.1157562
  44.7122091  70.6968840 144.6348793  44.6193465  75.2295598 139.1655802
  43.9839297  75.3030224 139.8776706  44.2890871  75.8189197 138.4874881
  49.8491814  69.7297981 145.3700123  50.5816986  69.1597198 145.6037953
  49.0931170  69.3419581 145.8106629  39.1236393  72.6915075 138.8616777
  39.0072651  72.0159979 139.5297861  39.2338653  72.2047449 138.0448930
  41.4667934  72.1525222 142.5663466  41.1026141  71.6255843 143.2776387
  42.3235050  71.7623691 142.3929951  47.3717235  63.4419555 149.8294732
  47.0400559  64.3114966 149.6055947  46.7762848  63.1255839 150.5088762
  41.1073421  67.1815122 137.5624814  41.2747823  68.0495358 137.9295286
  40.9170590  67.3442404 136.6386104  43.8648754  75.6432101 149.2290645
  43.5649477  76.5457140 149.1206452  43.5199814  75.3764284 150.0811798
  37.3161236  72.0945898 145.2627349  36.3911732  71.9622112 145.4705041
  37.5645649  72.8740117 145.7597292  47.2645898  68.1614641 146.9088082
  46.3562775  68.0930050 146.6146843  47.2133494  68.6386586 147.7369908
  41.0862642  69.6372780 138.5471481  40.9662267  70.0829830 139.3856962
  40.3915230  69.9858097 137.9885019  34.6770047  71.7379171 146.0971138
  34.8062428  71.9913650 147.0110550  33.9967498  72.3306879 145.7775793
  38.8469534  82.4076421 142.1961613  38.7693564  83.3584246 142.2750093
  38.2431178  82.0622294 142.8536539  41.3386764  69.5804287 154.8522979
  40.5620098  70.1398207 154.8425844  41.9777327  70.0661070 155.3737850
  49.1307544  66.3631080 148.6865956  48.4881925  66.6563613 148.0405751
  48.6262473  66.2484000 149.4919153  46.7847708  70.1094253 139.3751815
  47.6965564  70.3421639 139.1999513  46.2757355  70.6931297 138.8126894
  39.5933136  72.3889740 154.4140946  40.3347820  72.9274784 154.1375770
  38.8870122  73.0156029 154.5712498  45.0688476  74.5318881 153.0113108
  45.4771832  74.0901291 152.2667740  44.3465737  73.9571508 153.2647301
  41.4219546  69.4691487 150.3846665  42.2680741  69.8930901 150.5281314
  41.3618183  68.8125112 151.0785228  45.3917290  75.0920071 146.7665397
  44.7626153  75.2565785 146.0641465  45.0042952  75.5061681 147.5376361
  49.2706522  76.0274509 144.1209761  48.5857560  76.4073410 143.5706794
  49.3550372  76.6369836 144.8541708  44.5718991  67.1295856 152.0427838
  44.3279923  67.8837916 151.5062114  44.8478922  67.5081203 152.8775086
  46.5257454  73.6734468 150.7205104  46.7374349  74.3166228 150.0439485
  46.4787202  72.8396785 150.2527034  44.1283683  66.2852289 147.6241676
  43.2668162  66.5833542 147.9158414  44.1546117  66.5022688 146.6922709
  40.9445252  74.8294479 144.0315482  41.4083598  75.1082182 143.2420104
  40.6802050  73.9277924 143.8488573  37.8369333  74.3765961 146.9695245
  38.4070690  74.8053229 146.3312730  38.4277445  74.0948545 147.6679431
  39.8814138  70.9517632 140.8405047  40.5838182  71.4038675 141.3078973
  39.5494767  70.3101450 141.4684940  33.6239472  69.2101184 146.1422181
  32.8338526  69.4658713 145.6662291  34.1150720  70.0249522 146.2474221
  47.6403282  76.5506423 148.8927461  48.4620726  76.1486611 148.6110143
  47.6365685  76.4474658 149.8443577  35.5754218  69.5745764 143.1005657
  34.7785381  69.6864458 143.6189153  35.3479810  69.9132416 142.2346548
  41.4059885  76.0990467 151.0488172  41.4704318  76.5610874 151.8846344
  40.6970809  75.4687832 151.1770482  31.9077175  69.4631675 148.5737171
  32.1585214  70.3478685 148.8394747  32.4436724  69.2836276 147.8012263
  55.7309275  72.8945172 145.2412433  54.9772983  72.3252570 145.0856437
  55.8656816  72.8607836 146.1883068  41.1207903  77.7658574 140.9167152
  40.9853578  78.6110110 141.3452000  41.6617715  77.9677852 140.1533086
  34.5737300  75.2834012 141.4895077  35.0861821  76.0777263 141.6400642
  35.2260013  74.5860303 141.4228679  36.3832185  78.3999769 143.5717831
  36.5598813  79.3217733 143.3838814  37.1789019  78.0858188 144.0012210
  42.7476379  78.3882141 155.0467494  42.3040233  77.6018519 154.7288399
  43.4093593  78.5761291 154.3811385  37.5063500  79.9177942 149.5728173
  38.0570926  79.7895006 148.8005167  36.6674976  80.2172831 149.2223066
  44.8457617  78.6684941 153.0748896  44.8276093  79.4893822 152.5829165
  45.7677537  78.5439016 153.2999037  41.3030672  76.1829070 153.9172404
  41.8359008  75.4217358 153.6871712  40.7744753  75.8902722 154.6596558
  44.4700366  61.2889136 149.4466046  44.1264636  62.1790778 149.3705156
  44.8379329  61.0990794 148.5835631  32.5386217  73.6122667 142.2654648
  33.3761439  74.0219675 142.0488356  32.7164485  72.6722109 142.2354842
  44.4350649  71.2797747 137.9538481  43.9197273  72.0502352 138.1926868
  44.1627958  70.6062883 138.5771542  42.0197760  66.1247448 143.0123719
  41.1639357  65.7354298 142.8329358  42.4324712  66.2039409 142.1523505
  43.5496907  63.6593791 147.4115279  43.0461702  63.6223926 146.5983084
  43.8427514  64.5686534 147.4711936  39.7939793  63.7432521 146.4181461
  40.6592790  63.5475330 146.0587350  39.8617302  63.5142873 147.3450817
  49.4084923  74.0330102 139.8891654  48.6314366  73.6941261 139.4446816
  50.0876404  74.0382725 139.2146619  44.2236952  69.1524839 139.7798262
  43.9187088  69.4670988 140.6308405  45.1767394  69.2306259 139.8225595
  42.6683384  75.3115063 141.4291216  42.1404746  74.5767822 141.1164453
  42.1670887  76.0889739 141.1831184  47.6476230  73.5064083 146.5458262
  46.9899905  74.1963345 146.6338391  48.4516629  73.8960515 146.8892249
  37.4002112  65.9734729 143.7897827  37.9745864  65.7509910 143.0571020
  37.9873094  66.0423423 144.5426429  46.4581689  71.8608456 144.5962204
  46.9713571  72.4938448 145.0983914  47.1082913  71.2609651 144.2305564
  37.7271699  68.0039190 137.8093713  36.8909011  68.3413876 138.1302987
  37.5876469  67.8688170 136.8720850  39.7024780  62.8475978 142.5172897
  39.0489192  62.5324995 141.8929512  39.6605254  62.2251718 143.2432720
  40.8135984  73.1295273 134.4326189  39.9063046  72.8984526 134.6317338
  41.3107016  72.3332892 134.6200171  43.7204063  81.8392780 137.3522875
  43.0465762  82.1424477 137.9607833  44.1069885  82.6421860 137.0028332
  42.9362520  69.3357911 146.8420545  42.0185081  69.5572858 146.6842233
  43.3522664  69.4104222 145.9832252  43.7197568  70.7349327 141.9723225
  44.4669387  71.2470724 141.6630347  43.9889157  70.4133380 142.8327618
  41.9924218  73.2307868 138.9550179  41.0835437  72.9466901 139.0522649
  42.0219302  73.6506946 138.0953486  47.2243485  76.8414457 142.7241347
  46.7705812  76.0005367 142.7806537  46.5937452  77.4775856 143.0616127
  46.1676405  67.7706443 143.9542014  45.4299162  67.2583830 144.2852257
  46.4203178  67.3306825 143.1425291  45.6676424  78.6790954 143.6591165
  45.9599399  79.2396011 142.9403530  46.1775045  78.9719515 144.4144324
  46.2688032  60.5482695 144.5483783  46.5746909  59.6880059 144.2609698
  46.9940637  61.1400315 144.3482777  32.5612388  70.9513382 142.9365381
  32.3636788  70.3582743 142.2116448  32.0059052  70.6465592 143.6541320
  40.5409112  70.8436488 145.0559974  40.5957722  69.8910325 144.9802451
  39.7300314  70.9995927 145.5401273  41.6900306  74.7716611 136.2938258
  41.2519736  74.0552470 135.8343895  42.4310746  74.9992726 135.7323349
  38.4801472  69.4613548 142.8150353  37.6669337  69.7607719 143.2215545
  38.9760466  69.0669237 143.5324836  40.6310050  79.4571305 144.7484618
  40.5886228  79.6832151 143.8193150  41.5472749  79.2234680 144.8970419
  44.0775683  69.9255373 151.6465247  44.4325071  70.1526846 152.5059713
  44.7247815  70.2573749 151.0242503  49.8073420  73.0473808 142.3514576
  49.6691319  73.2375404 141.4235765  49.4509639  73.8093191 142.8082627
  37.9715547  67.0331904 148.4311588  38.6114926  66.8920663 147.7334552
  37.1393077  66.7466417 148.0550190  49.8342800  75.1150335 147.3625848
  50.2679307  75.0225625 148.2108902  50.5474381  75.0907836 146.7245864
  38.7475850  76.3334334 144.5446581  39.5416449  75.8384654 144.3429156
  38.0367543  75.8052197 144.1814286  43.5670695  78.7152430 148.8958948
  43.6207717  79.2843366 149.6636664  42.6985476  78.8854315 148.5312985
  35.0558614  70.4777416 140.6206333  34.1256202  70.4161871 140.8376296
  35.1516086  69.9553369 139.8242975  34.9744163  67.0032229 143.2084575
  35.2350980  67.9177562 143.0993736  35.7961335  66.5356671 143.3581188
  36.4469088  68.4169986 150.3783400  37.1192142  68.2087348 149.7296049
  35.6198875  68.2192072 149.9388632  50.6958350  75.1574036 149.8958733
  50.8894240  76.0619847 150.1418008  50.5958968  74.6981455 150.7297318
  42.3494660  65.0431927 152.3949060  41.7022575  65.7421876 152.3013537
  43.1195676  65.4768071 152.7625309  45.7573458  75.3080779 155.4699614
  45.6058965  75.0791331 154.5529697  45.7478138  76.2651380 155.4830959
  42.5258795  72.8812692 150.4545880  43.4550855  73.0323851 150.2814848
  42.1049825  72.9696712 149.5994527  41.3247126  76.9063356 148.2244418
  41.1858212  76.5382140 149.0970356  40.5361723  77.4210995 148.0528376
  41.9195278  82.0072453 139.5669954  42.0947034  81.5360496 140.3815577
  41.2328066  82.6338219 139.7951215  42.8752342  76.2844959 145.6133256
  42.5402174  76.2445729 146.5090905  42.3756287  75.6189675 145.1403666
  36.8496586  71.6912589 151.1385837  36.7116383  70.9592828 151.7397376
  37.7601509  71.6021489 150.8570025  45.8111533  73.6300993 135.8870315
  45.1940704  72.9047821 135.7903368  45.3428022  74.3910353 135.5437390
  39.4778886  71.4032548 150.6269516  40.1878505  70.7625740 150.5856135
  39.4348194  71.6545443 151.5495697  47.4665665  78.3399901 153.5476096
  47.4078211  77.6559122 152.8806679  47.8685183  79.0818891 153.0956722
  36.4856364  85.1561815 146.3409815  36.7252962  85.7880339 147.0188833
  35.6425560  84.8049855 146.6275174  37.6010079  67.8486417 135.0091620
  36.7239545  67.7275218 134.6453866  38.0767832  67.0572496 134.7570508
  47.4683072  76.3039485 151.7790075  46.5809851  75.9665407 151.9016474
  48.0381623  75.5722517 152.0158841  29.1212219  72.6363577 145.1033127
  29.8083259  72.3225307 144.5154142  28.9660348  73.5404942 144.8300378
  33.9246941  67.5253774 149.5318150  33.8405130  66.9179443 148.7968560
  33.1029648  68.0162792 149.5327647  40.9984226  80.9640938 148.7451319
  40.9254397  81.7695909 149.2570623  40.5561619  81.1632904 147.9199340
  40.7874005  80.2012708 142.2554140  40.0041527  80.7434388 142.3492365
  41.4866750  80.7186687 142.6548381  44.0970655  66.0107337 144.8988345
  44.5939355  65.2577300 144.5789416  43.3257637  66.0471654 144.3331555
  51.9500413  71.7147703 146.5406637  51.9390289  72.5972418 146.1700570
  51.0817792  71.3619254 146.3461174  43.4582909  80.8627772 150.9009477
  44.1710881  81.4975237 150.8285379  42.9672938  80.9591638 150.0849479
  45.1800436  74.7679024 142.4726769  44.2456715  74.8880487 142.3031473
  45.3577104  73.8651491 142.2086779  40.6805624  68.1524720 144.6260030
  40.3103412  67.5995761 145.3140936  41.1764716  67.5482854 144.0735030
  48.5672987  70.6096344 143.0076803  49.0333440  71.4424335 142.9337106
  49.0180488  70.1441325 143.7122061  38.5094823  78.6122215 151.7215048
  39.2104282  79.2458698 151.8744442  38.0389938  78.9536947 150.9610687
  46.6349218  76.9540165 140.0062955  46.9109062  76.8396760 140.9156829
  45.7653717  76.5557650 139.9675128  46.5389650  62.9776931 147.0467704
  45.6252730  63.2081158 147.2149911  46.9682752  63.0615375 147.8981737
  46.3096109  71.1666823 149.5467598  45.6567559  71.4142730 148.8920051
  46.6876488  70.3530961 149.2130076  43.2703282  81.2026516 143.6495769
  43.4525677  80.3848172 144.1123521  44.0936268  81.4194208 143.2120659
  43.6045448  80.1294701 140.9110817  44.1333214  79.6187156 140.2980979
  43.8673668  79.8137231 141.7756350  34.1062541  78.1458570 148.6546151
  34.6915977  77.4002258 148.7874055  33.9087379  78.4562527 149.5382815
  36.9601196  81.1809818 143.6708593  36.2911571  81.6655945 143.1872633
  36.8214066  81.4279038 144.5851972  28.6980195  70.7164170 147.3750594
  28.7364295  70.1827761 148.1687712  28.1920488  70.1899376 146.7561571
  41.1006464  83.2153561 150.2691251  41.6524773  83.3785183 151.0340337
  41.4412658  83.8057999 149.5971276  45.9517339  78.0414819 156.1239906
  46.4957243  78.6544777 155.6294861  45.3704184  78.5994397 156.6406919
  32.3288773  69.4428273 140.4504525  32.6242214  68.5338951 140.3971579
  31.4276809  69.4216012 140.1285528  44.2374852  81.1635537 147.2554934
  44.1125991  80.3625277 146.7465879  44.8953943  81.6581730 146.7668904
  35.8583020  67.5184269 146.4332074  35.1369606  68.1320237 146.2939547
  36.6476276  68.0542034 146.3548720  46.3009760  78.9644557 148.8834484
  45.3540096  78.8449908 148.8112810  46.6492533  78.0767055 148.9660745
  34.0576615  67.1242370 140.5743850  33.7289321  66.2439749 140.3918956
  34.4115985  67.0690039 141.4620240  43.3056193  78.7597273 145.0838836
  43.1581156  77.8313980 145.2646406  44.1309687  78.7817364 144.5995911
  37.1718438  67.4115340 140.9419328  37.5114510  67.9401261 140.2197936
  37.6190558  67.7495746 141.7177895  46.9090315  79.5825832 146.1703709
  47.8336863  79.3768693 146.0328160  46.7405619  79.3342233 147.0793050
  39.8661879  65.7952391 150.3922396  39.5258699  64.9960204 150.7943076
  39.1600885  66.0954102 149.8199229  40.5178350  62.8801703 148.8449719
  41.3404420  62.4062181 148.7228609  40.7616414  63.6592187 149.3448405
  39.1586585  65.9089962 139.1412621  39.8794947  66.2871214 138.6376338
  38.5351889  66.6278838 139.2447599  43.3017708  66.6135111 140.0770953
  43.5181322  67.4959749 139.7759781  42.8211775  66.2221324 139.3476595
  38.0416929  69.5720824 146.6541698  37.8961510  69.8861127 147.5465979
  37.5642133  70.1905724 146.1012596  39.9013312  66.5623372 146.7022587
  39.8874881  65.6664465 146.3654885  40.6185740  66.5694036 147.3360873
  41.7539443  66.9960712 148.7475715  41.4957221  67.9177783 148.7460045
  41.2224483  66.5991147 149.4376179  46.6985631  80.1011499 141.5265800
  46.8722509  79.5357922 140.7739653  47.1914523  80.9012394 141.3445290
  32.5162591  72.1126168 149.5929359  31.9716059  72.8885976 149.7249633
  33.3941941  72.4596973 149.4348480  39.3050208  65.4437752 141.9710157
  39.4266119  64.5154398 142.1701045  39.0152250  65.4576438 141.0588473
  42.1741398  63.1292663 145.1076877  42.1963095  63.1931996 144.1528857
  42.5909457  62.2897171 145.3017383  52.5525023  72.8647922 143.1456100
  52.9956169  72.1155247 142.7475223  51.6751533  72.8558058 142.7629832
  47.6860804  79.4178264 138.6262698  48.3811709  80.0384956 138.8450013
  48.0283954  78.5673615 138.9015076  49.5852227  76.8677969 140.1550029
  50.1103551  77.2065242 139.4299349  49.4974580  75.9324984 139.9713164
  41.2472276  80.7812043 152.2839906  41.5559402  80.5361190 153.1562605
  42.0447758  80.9858681 151.7958776  41.2692888  82.9349952 144.5145282
  40.8297878  82.4426331 145.2078139  42.0201005  82.3922920 144.2737358
  33.7485227  79.1261493 144.5169910  34.5743247  78.8265265 144.1368554
  33.3979279  78.3569116 144.9659699  38.7166760  78.4787961 146.5867584
  38.0946769  77.8158667 146.2869812  39.3871627  78.5049093 145.9041232
  31.9493832  77.0447820 145.4758844  31.1125740  76.6169994 145.2942845
  31.9217477  77.2380263 146.4129635  49.2746133  77.5010873 155.4601227
  48.4841677  77.4835012 154.9205727  49.0379488  78.0399166 156.2150264
  49.3944008  74.3503339 152.7733956  49.4442013  74.1853347 153.7149478
  49.2857932  73.4830598 152.3831836  38.2780267  77.0291885 140.0626045
  38.4268387  77.7127349 139.4092717  39.0846710  77.0096975 140.5775500
  46.6847771  70.3334267 154.0893262  47.5857633  70.1940732 153.7977260
  46.7595745  70.4988722 155.0291440  41.0190576  67.7101122 152.9346449
  40.1493885  68.0034688 152.6629037  41.2550056  68.2941567 153.6553712
  50.8962205  76.7700281 153.0175977  50.6047013  77.1330261 153.8539438
  50.2834336  76.0567289 152.8389309  52.0957887  74.3353160 145.5378547
  52.9304779  74.7742964 145.7016108  52.2317016  73.8591814 144.7186793
  49.1449393  71.8932895 151.4856035  49.6203515  72.0860542 150.6774887
  48.2214959  71.9492081 151.2399419  36.0332900  73.0557062 141.0687113
  35.7878942  72.1519392 141.2667324  36.2028814  73.0574213 140.1266591
  43.7229610  63.9280739 150.4511869  44.2411554  64.6641766 150.1258358
  43.3684743  64.2344732 151.2858628  35.3028547  68.7885420 138.5673275
  34.6097792  68.8629775 137.9113311  35.0580299  68.0245764 139.0894792
  43.9742204  60.3481021 145.9712766  44.2543958  59.6804210 146.5973192
  44.7592811  60.5410117 145.4587429  41.7775672  79.5240015 137.5337792
  41.2049640  80.1430202 137.0808264  42.3508466  80.0739377 138.0677714
  47.8451062  68.7698655 149.7184341  48.7968485  68.8696753 149.7396565
  47.6754513  67.9776924 150.2282425  45.8665442  65.8554239 149.9043742
  45.2715374  66.1359251 149.2090230  45.5815138  66.3448140 150.6760483
  44.9972932  79.8077165 138.6646374  45.9303605  79.7422727 138.8679250
  44.9096145  80.6433432 138.2060907  47.6260949  79.1243036 135.6250322
  47.5474580  78.7902899 136.5186080  48.4470616  79.6164804 135.6241794
  50.3239140  71.9904775 148.8326640  50.2915460  71.0520776 149.0186324
  50.9339764  72.0688812 148.0992465  42.1622471  70.8600828 134.8753844
  43.1081576  70.7307036 134.9442262  41.7836716  70.1215490 135.3523273
  50.4733629  68.7815818 148.8784924  49.9572677  67.9974275 148.6914852
  51.3573577  68.4534535 149.0431443  48.1344355  62.5256834 144.8380736
  47.9369177  62.2171922 145.7224068  48.7444061  63.2518473 144.9678666
  56.1415690  73.0520782 147.9732677  56.8719078  72.7906070 148.5340381
  55.5322635  72.3149504 148.0134745  54.2230987  71.1928644 148.5707128
  53.4964151  71.0584609 147.9623620  53.8078274  71.5005473 149.3763846
  42.0461163  74.9118574 156.3354501  42.9664173  75.0897173 156.5294548
  42.0110747  73.9674620 156.1834201  40.3465388  68.7850804 134.8108730
  39.4396843  68.4883917 134.8871443  40.6241369  68.4880622 133.9443016
  31.2643328  70.1057168 145.2607776  30.9446113  69.2522476 144.9682150
  30.7176757  70.3205746 146.0165743  35.0423236  72.8219609 148.9777283
  35.2609246  73.7536717 148.9965316  35.4549010  72.4627583 149.7632086
  41.9627454  63.3287694 140.9652971  41.1528182  62.9834779 141.3408217
  42.6511871  63.0195238 141.5540583  43.8918002  62.4065741 142.5877268
  44.4449041  62.8261194 143.2467291  44.1288088  61.4801489 142.6300224
  39.1164173  65.6437740 134.9520709  39.9783337  65.9692638 135.2116526
  39.3014517  64.8569236 134.4393775  31.1331588  73.7260079 147.2300898
  30.4395060  73.3114032 146.7170852  31.8804579  73.7680616 146.6334317
  47.2696809  64.5166266 142.0955932  46.6895478  65.1751070 141.7133984
  47.0032742  63.6943611 141.6843349  45.7200376  63.9171324 144.2977252
  46.2200154  64.0287858 143.4891571  46.3635983  63.6132377 144.9378061
  33.0468331  73.6578333 145.1066913  33.0239019  73.7566020 144.1548796
  33.3568967  74.5043484 145.4284079  35.7055709  75.7154488 149.2213527
  36.6598962  75.6838430 149.1543459  35.5068232  75.2545112 150.0363753
  36.2955091  74.2855604 151.7884325  37.1147980  74.7799683 151.8119162
  36.5691899  73.3687572 151.7601892  46.0521687  66.6766356 141.1512280
  45.1647542  66.9616007 140.9332475  46.4675676  66.5160120 140.3039557
  49.4036223  66.7012877 144.8666619  50.1796613  67.1909330 145.1391236
  48.6784358  67.1270932 145.3238489  51.8408782  67.4140497 145.9240560
  52.4353273  67.1736233 145.2133868  51.9135366  66.6947627 146.5514096
  34.0605938  81.2574108 146.2383725  33.9260406  80.4974508 145.6721723
  33.6438000  81.9815007 145.7712514  45.1964901  76.4411031 135.2460300
  45.9000751  76.6461034 135.8617956  44.4727549  77.0087793 135.5109384
  46.0262711  72.1920892 141.3662570  45.9697912  72.6489444 140.5270203
  46.5791053  71.4311577 141.1885413  49.8367517  67.9810624 142.1912690
  49.5804451  67.5807260 143.0220897  49.2120385  68.6954418 142.0662829
  54.1479855  70.7206698 144.6983981  53.5879413  70.7899887 145.4715543
  53.5423358  70.5447682 143.9783477  37.2175064  82.1543425 146.4502167
  37.1007448  83.0988857 146.3480858  36.3967510  81.8516986 146.8387967
  47.1051598  76.8793560 137.2958760  47.9397202  76.4474759 137.1136235
  46.9435941  76.7075574 138.2235655  46.7597490  73.3825674 138.6615099
  46.7046294  73.2169945 137.7203544  46.1343546  74.0901707 138.8177289
  44.0743397  75.6874586 157.9868662  44.9434557  75.8615238 157.6255297
  43.5950149  76.5069002 157.8644392  40.0693616  62.8833783 138.2400418
  40.0572286  63.8275623 138.3968689  40.9617038  62.7003928 137.9459879
  38.2429578  82.8071687 149.6658096  39.1456824  82.8395297 149.9824591
  38.0166948  81.8772137 149.6804432  39.9983180  81.5602673 146.3268175
  39.0478811  81.5604535 146.2132547  40.3015666  80.8135408 145.8104209
  43.8845735  59.4776559 142.4946355  43.1178131  58.9235046 142.6403037
  44.2956440  59.5498428 143.3560506  55.7335873  87.3963211 147.3913937
  56.3714283  87.2769959 146.6877277  55.6156716  88.3444055 147.4501889
  52.5425579  87.3490640 147.3275462  52.2044091  87.2331704 146.4395996
  53.4115348  86.9481805 147.3076468  48.4012395  89.2026116 143.3172353
  47.8377260  89.1116053 142.5488640  48.2864790  88.3826020 143.7974845
  53.0245362  88.5025491 153.2861667  53.0134003  88.1078290 152.4142171
  53.1866002  87.7691564 153.8795439  45.9476827  90.6977308 146.1556573
  46.7398119  90.3568132 145.7402872  46.1873477  90.8072283 147.0758726
  53.9811954  92.8697084 138.6286817  53.3299934  93.4551164 138.2420831
  54.7756317  93.4003279 138.6881855  47.9067581  89.9586221 139.0273952
  48.6798457  89.4115208 138.8886828  48.2592980  90.8230470 139.2388413
  49.7452624  91.2862603 152.2340851  49.4542490  92.1908234 152.1187517
  50.3809608  91.3279131 152.9484921  50.6708830  88.6639452 148.8242211
  51.2672403  88.4395474 148.1099174  50.7283802  87.9224197 149.4267659
  50.2433859  86.1178887 136.6592402  50.4959380  85.5960408 135.8975865
  49.3058418  85.9545032 136.7619085  55.2877142  85.1214665 144.4667145
  56.0740231  84.7034088 144.1157562  55.5515846  86.0260757 144.6348793
  55.4587219  90.5587516 139.1655802  54.8233052  90.6322142 139.8776706
  55.1284625  91.1481114 138.4874881  60.6885569  85.0589899 145.3700123
  61.4210741  84.4889115 145.6037953  59.9324924  84.6711499 145.8106629
  49.9630148  88.0206993 138.8616777  49.8466406  87.3451896 139.5297861
  50.0732407  87.5339367 138.0448930  52.3061689  87.4817140 142.5663466
  51.9419896  86.9547761 143.2776387  53.1628804  87.0915609 142.3929951
  58.2110989  78.7711473 149.8294732  57.8794314  79.6406884 149.6055947
  57.6156603  78.4547757 150.5088762  51.9467175  82.5107040 137.5624814
  52.1141578  83.3787276 137.9295286  51.7564345  82.6734321 136.6386104
  54.7042509  90.9724019 149.2290645  54.4043232  91.8749057 149.1206452
  54.3593568  90.7056202 150.0811798  48.1554990  87.4237815 145.2627349
  47.2305487  87.2914030 145.4705041  48.4039403  88.2032035 145.7597292
  58.1039652  83.4906559 146.9088082  57.1956530  83.4221967 146.6146843
  58.0527248  83.9678504 147.7369908  51.9256396  84.9664697 138.5471481
  51.8056022  85.4121748 139.3856962  51.2308985  85.3150015 137.9885019
  45.5163801  87.0671089 146.0971138  45.6456182  87.3205568 147.0110550
  44.8361252  87.6598797 145.7775793  49.6863288  97.7368339 142.1961613
  49.6087318  98.6876164 142.2750093  49.0824932  97.3914211 142.8536539
  52.1780518  84.9096204 154.8522979  51.4013852  85.4690125 154.8425844
  52.8171081  85.3952987 155.3737850  59.9701299  81.6922997 148.6865956
  59.3275679  81.9855530 148.0405751  59.4656227  81.5775918 149.4919153
  57.6241463  85.4386170 139.3751815  58.5359319  85.6713557 139.1999513
  57.1151110  86.0223215 138.8126894  50.4326891  87.7181658 154.4140946
  51.1741575  88.2566702 154.1375770  49.7263876  88.3447946 154.5712498
  55.9082230  89.8610798 153.0113108  56.3165586  89.4193209 152.2667740
  55.1859492  89.2863426 153.2647301  52.2613300  84.7983405 150.3846665
  53.1074495  85.2222819 150.5281314  52.2011938  84.1417029 151.0785228
  56.2311045  90.4211989 146.7665397  55.6019907  90.5857703 146.0641465
  55.8436707  90.8353598 147.5376361  60.1100277  91.3566427 144.1209761
  59.4251315  91.7365328 143.5706794  60.1944126  91.9661753 144.8541708
  55.4112746  82.4587773 152.0427838  55.1673677  83.2129834 151.5062114
  55.6872676  82.8373121 152.8775086  57.3651208  89.0026386 150.7205104
  57.5768104  89.6458146 150.0439485  57.3180957  88.1688702 150.2527034
  54.9677437  81.6144206 147.6241676  54.1061916  81.9125460 147.9158414
  54.9939872  81.8314605 146.6922709  51.7839007  90.1586397 144.0315482
  52.2477352  90.4374100 143.2420104  51.5195805  89.2569841 143.8488573
  48.6763088  89.7057878 146.9695245  49.2464445  90.1345147 146.3312730
  49.2671200  89.4240463 147.6679431  50.7207893  86.2809549 140.8405047
  51.4231936  86.7330593 141.3078973  50.3888521  85.6393368 141.4684940
  49.1688254  84.8721306 155.2156256  48.5386915  85.5537587 155.4491653
  49.0624342  84.7604388 154.2709395  44.4633227  84.5393102 146.1422181
  43.6732281  84.7950630 145.6662291  44.9544474  85.3541440 146.2474221
  58.4797036  91.8798341 148.8927461  59.3014480  91.4778528 148.6110143
  58.4759439  91.7766575 149.8443577  46.4147972  84.9037681 143.1005657
  45.6179135  85.0156375 143.6189153  46.1873564  85.2424333 142.2346548
  52.2453640  91.4282384 151.0488172  52.3098072  91.8902792 151.8846344
  51.5364564  90.7979749 151.1770482  42.7470930  84.7923592 148.5737171
  42.9978968  85.6770602 148.8394747  43.2830478  84.6128194 147.8012263
  66.5703029  88.2237090 145.2412433  65.8166738  87.6544488 145.0856437
  66.7050571  88.1899754 146.1883068  51.9601657  93.0950492 140.9167152
  51.8247332  93.9402028 141.3452000  52.5011470  93.2969770 140.1533086
  48.4468997  79.1742072 157.5781507  48.0535943  78.6208270 158.2529152
  49.2635137  79.4852650 157.9688025  45.4131055  90.6125930 141.4895077
  45.9255575  91.4069180 141.6400642  46.0653768  89.9152220 141.4228679
  47.2225939  93.7291686 143.5717831  47.3992568  94.6509651 143.3838814
  48.0182773  93.4150105 144.0012210  51.3636958  80.5899951 155.1701764
  52.1046671  81.1907104 155.0906226  51.5954881  79.8477589 154.6119807
  46.5078296  85.7756318 153.4479994  46.3931811  84.8741575 153.7487093
  45.6522814  86.0220015 153.0964810  53.5870134  93.7174058 155.0467494
  53.1433988  92.9310437 154.7288399  54.2487347  93.9053209 154.3811385
  48.3457255  95.2469860 149.5728173  48.8964680  95.1186923 148.8005167
  47.5068731  95.5464749 149.2223066  55.6851372  93.9976858 153.0748896
  55.6669847  94.8185739 152.5829165  56.6071292  93.8730934 153.2999037
  52.1424426  91.5120988 153.9172404  52.6752763  90.7509276 153.6871712
  51.6138507  91.2194640 154.6596558  55.3094121  76.6181054 149.4466046
  54.9658390  77.5082695 149.3705156  55.6773084  76.4282711 148.5835631
  43.3779972  88.9414584 142.2654648  44.2155194  89.3511593 142.0488356
  43.5558239  88.0014026 142.2354842  55.2744404  86.6089665 137.9538481
  54.7591027  87.3794270 138.1926868  55.0021712  85.9354801 138.5771542
  52.8591515  81.4539366 143.0123719  52.0033111  81.0646216 142.8329358
  53.2718466  81.5331326 142.1523505  54.3890661  78.9885709 147.4115279
  53.8855457  78.9515844 146.5983084  54.6821268  79.8978452 147.4711936
  50.6333547  79.0724439 146.4181461  51.4986544  78.8767247 146.0587350
  50.7011056  78.8434790 147.3450817  60.2478678  89.3622020 139.8891654
  59.4708121  89.0233179 139.4446816  60.9270159  89.3674643 139.2146619
  55.0630707  84.4816757 139.7798262  54.7580842  84.7962906 140.6308405
  56.0161149  84.5598177 139.8225595  53.5077139  90.6406980 141.4291216
  52.9798500  89.9059740 141.1164453  53.0064641  91.4181657 141.1831184
  58.4869985  88.8356001 146.5458262  57.8293659  89.5255262 146.6338391
  59.2910384  89.2252433 146.8892249  48.2395866  81.3026647 143.7897827
  48.8139618  81.0801828 143.0571020  48.8266849  81.3715341 144.5426429
  57.2975444  87.1900373 144.5962204  57.8107325  87.8230365 145.0983914
  57.9476667  86.5901569 144.2305564  48.5665453  83.3331108 137.8093713
  47.7302766  83.6705794 138.1302987  48.4270223  83.1980087 136.8720850
  50.5418534  78.1767895 142.5172897  49.8882946  77.8616913 141.8929512
  50.4999008  77.5543636 143.2432720  51.6529739  88.4587191 134.4326189
  50.7456801  88.2276444 134.6317338  52.1500771  87.6624810 134.6200171
  54.5597818  97.1684698 137.3522875  53.8859517  97.4716395 137.9607833
  54.9463640  97.9713778 137.0028332  53.7756274  84.6649829 146.8420545
  52.8578836  84.8864776 146.6842233  54.1916418  84.7396140 145.9832252
  54.5591322  86.0641245 141.9723225  55.3063141  86.5762642 141.6630347
  54.8282912  85.7425297 142.8327618  52.8317972  88.5599785 138.9550179
  51.9229192  88.2758818 139.0522649  52.8613056  88.9798864 138.0953486
  58.0637240  92.1706375 142.7241347  57.6099567  91.3297285 142.7806537
  57.4331206  92.8067773 143.0616127  57.0070159  83.0998361 143.9542014
  56.2692916  82.5875747 144.2852257  57.2596933  82.6598743 143.1425291
  56.5070179  94.0082872 143.6591165  56.7993153  94.5687929 142.9403530
  57.0168800  94.3011433 144.4144324  57.1081787  75.8774613 144.5483783
  57.4140663  75.0171976 144.2609698  57.8334391  76.4692233 144.3482777
  43.4006143  86.2805300 142.9365381  43.2030543  85.6874660 142.2116448
  42.8452807  85.9757510 143.6541320  51.3802866  86.1728406 145.0559974
  51.4351476  85.2202242 144.9802451  50.5694068  86.3287845 145.5401273
  52.5294060  90.1008529 136.2938258  52.0913490  89.3844388 135.8343895
  53.2704501  90.3284644 135.7323349  49.3195226  84.7905466 142.8150353
  48.5063092  85.0899636 143.2215545  49.8154220  84.3961155 143.5324836
  51.4703804  94.7863223 144.7484618  51.4279983  95.0124069 143.8193150
  52.3866503  94.5526597 144.8970419  54.9169438  85.2547290 151.6465247
  55.2718826  85.4818763 152.5059713  55.5641569  85.5865667 151.0242503
  60.6467175  88.3765726 142.3514576  60.5085073  88.5667322 141.4235765
  60.2903394  89.1385109 142.8082627  48.8109301  82.3623821 148.4311588
  49.4508680  82.2212580 147.7334552  47.9786832  82.0758335 148.0550190
  60.6736554  90.4442253 147.3625848  61.1073061  90.3517542 148.2108902
  61.3868135  90.4199754 146.7245864  49.5869605  91.6626252 144.5446581
  50.3810203  91.1676572 144.3429156  48.8761297  91.1344115 144.1814286
  54.4064449  94.0444347 148.8958948  54.4601472  94.6135284 149.6636664
  53.5379231  94.2146232 148.5312985  45.8952368  85.8069333 140.6206333
  44.9649956  85.7453789 140.8376296  45.9909840  85.2845286 139.8242975
  45.8137917  82.3324146 143.2084575  46.0744735  83.2469480 143.0993736
  46.6355090  81.8648589 143.3581188  47.2862843  83.7461903 150.3783400
  47.9585896  83.5379266 149.7296049  46.4592629  83.5483989 149.9388632
  61.5352104  90.4865954 149.8958733  61.7287994  91.3911764 150.1418008
  61.4352722  90.0273373 150.7297318  53.1888415  80.3723844 152.3949060
  52.5416330  81.0713794 152.3013537  53.9589430  80.8059988 152.7625309
  56.5967213  90.6372697 155.4699614  56.4452719  90.4083248 154.5529697
  56.5871892  91.5943298 155.4830959  53.3652549  88.2104609 150.4545880
  54.2944609  88.3615769 150.2814848  52.9443579  88.2988630 149.5994527
  52.1640881  92.2355274 148.2244418  52.0251967  91.8674058 149.0970356
  51.3755477  92.7502913 148.0528376  52.7589033  97.3364370 139.5669954
  52.9340789  96.8652413 140.3815577  52.0721821  97.9630136 139.7951215
  53.7146096  91.6136876 145.6133256  53.3795929  91.5737646 146.5090905
  53.2150042  90.9481592 145.1403666  47.6890340  87.0204506 151.1385837
  47.5510138  86.2884745 151.7397376  48.5995264  86.9313407 150.8570025
  56.6505288  88.9592911 135.8870315  56.0334458  88.2339739 135.7903368
  56.1821776  89.7202271 135.5437390  50.3172641  86.7324466 150.6269516
  51.0272259  86.0917658 150.5856135  50.2741949  86.9837361 151.5495697
  58.3059419  93.6691819 153.5476096  58.2471966  92.9851039 152.8806679
  58.7078938  94.4110809 153.0956722  49.0301575  83.7189684 152.4465156
  48.4938932  83.2680422 153.0986752  48.4418283  83.8535592 151.7035620
  47.3250118 100.4853733 146.3409815  47.5646716 101.1172257 147.0188833
  46.4819315 100.1341773 146.6275174  48.4403834  83.1778335 135.0091620
  47.5633300  83.0567136 134.6453866  48.9161587  82.3864413 134.7570508
  58.3076827  91.6331403 151.7790075  57.4203605  91.2957325 151.9016474
  58.8775378  90.9014434 152.0158841  39.9605974  87.9655495 145.1033127
  40.6477014  87.6517225 144.5154142  39.8054102  88.8696859 144.8300378
  44.7640696  82.8545691 149.5318150  44.6798885  82.2471361 148.7968560
  43.9423402  83.3454710 149.5327647  51.8377980  96.2932855 148.7451319
  51.7648152  97.0987827 149.2570623  51.3955373  96.4924821 147.9199340
  51.6267760  95.5304625 142.2554140  50.8435282  96.0726306 142.3492365
  52.3260505  96.0478605 142.6548381  54.9364410  81.3399255 144.8988345
  55.4333109  80.5869217 144.5789416  54.1651391  81.3763572 144.3331555
  62.7894167  87.0439620 146.5406637  62.7784043  87.9264336 146.1700570
  61.9211547  86.6911171 146.3461174  54.2976664  96.1919689 150.9009477
  55.0104636  96.8267154 150.8285379  53.8066692  96.2883555 150.0849479
  56.0194190  90.0970942 142.4726769  55.0850469  90.2172405 142.3031473
  56.1970859  89.1943409 142.2086779  51.5199379  83.4816638 144.6260030
  51.1497166  82.9287678 145.3140936  52.0158471  82.8774771 144.0735030
  59.4066742  85.9388261 143.0076803  59.8727194  86.7716253 142.9337106
  59.8574242  85.4733243 143.7122061  49.3488577  93.9414133 151.7215048
  50.0498037  94.5750616 151.8744442  48.8783692  94.2828864 150.9610687
  57.4742973  92.2832083 140.0062955  57.7502817  92.1688677 140.9156829
  56.6047472  91.8849568 139.9675128  57.3783405  78.3068848 147.0467704
  56.4646484  78.5373075 147.2149911  57.8076506  78.3907292 147.8981737
  57.1489863  86.4958740 149.5467598  56.4961313  86.7434648 148.8920051
  57.5270243  85.6822879 149.2130076  54.1097037  96.5318434 143.6495769
  54.2919431  95.7140089 144.1123521  54.9330023  96.7486126 143.2120659
  54.4439202  95.4586619 140.9110817  54.9726969  94.9479073 140.2980979
  54.7067422  95.1429149 141.7756350  53.1977436  87.2378551 156.0333635
  52.5218073  87.1372681 156.7036011  54.0205070  87.0817765 156.4969633
  44.9456295  93.4750488 148.6546151  45.5309732  92.7294176 148.7874055
  44.7481134  93.7854445 149.5382815  47.7994950  96.5101735 143.6708593
  47.1305326  96.9947863 143.1872633  47.6607820  96.7570956 144.5851972
  39.5373950  86.0456088 147.3750594  39.5758049  85.5119679 148.1687712
  39.0314243  85.5191294 146.7561571  51.9400219  98.5445479 150.2691251
  52.4918527  98.7077100 151.0340337  52.2806412  99.1349917 149.5971276
  46.9164712  80.8920629 150.8713136  46.9806039  81.7535460 150.4590534
  46.8531832  80.2794630 150.1385495  46.3916985  82.9643761 154.5186170
  47.0189024  82.5820839 155.1323695  45.5344904  82.7457963 154.8841863
  56.7911093  93.3706736 156.1239906  57.3350997  93.9836695 155.6294861
  56.2097938  93.9286315 156.6406919  43.1682527  84.7720190 140.4504525
  43.4635969  83.8630869 140.3971579  42.2670563  84.7507930 140.1285528
  55.0768606  96.4927454 147.2554934  54.9519746  95.6917194 146.7465879
  55.7347697  96.9873648 146.7668904  46.6976774  82.8476187 146.4332074
  45.9763360  83.4612155 146.2939547  47.4870030  83.3833952 146.3548720
  57.1403515  94.2936474 148.8834484  56.1933850  94.1741826 148.8112810
  57.4886288  93.4058973 148.9660745  49.5003088  80.1830613 152.7072726
  50.0237490  80.4292910 153.4699035  49.2815421  81.0150648 152.2875863
  44.8970369  82.4534288 140.5743850  44.5683075  81.5731667 140.3918956
  45.2509740  82.3981957 141.4620240  54.1449948  94.0889191 145.0838836
  53.9974910  93.1605898 145.2646406  54.9703441  94.1109281 144.5995911
  48.0112192  82.7407258 140.9419328  48.3508265  83.2693179 140.2197936
  48.4584313  83.0787664 141.7177895  57.7484070  94.9117749 146.1703709
  58.6730617  94.7060611 146.0328160  57.5799373  94.6634151 147.0793050
  50.7055633  81.1244308 150.3922396  50.3652453  80.3252122 150.7943076
  49.9994639  81.4246019 149.8199229  51.3572105  78.2093621 148.8449719
  52.1798174  77.7354099 148.7228609  51.6010168  78.9884105 149.3448405
  49.9980339  81.2381879 139.1412621  50.7188702  81.6163132 138.6376338
  49.3745643  81.9570756 139.2447599  54.1411462  81.9427028 140.0770953
  54.3575077  82.8251666 139.7759781  53.6605529  81.5513242 139.3476595
  48.8810684  84.9012742 146.6541698  48.7355264  85.2153045 147.5465979
  48.4035887  85.5197642 146.1012596  50.7407067  81.8915290 146.7022587
  50.7268635  80.9956383 146.3654885  51.4579495  81.8985953 147.3360873
  52.5933197  82.3252630 148.7475715  52.3350975  83.2469700 148.7460045
  52.0618238  81.9283064 149.4376179  57.5379386  95.4303417 141.5265800
  57.7116264  94.8649839 140.7739653  58.0308277  96.2304312 141.3445290
  43.3556346  87.4418086 149.5929359  42.8109814  88.2177894 149.7249633
  44.2335696  87.7888890 149.4348480  50.1443962  80.7729670 141.9710157
  50.2659874  79.8446316 142.1701045  49.8546005  80.7868356 141.0588473
  53.0135153  78.4584580 145.1076877  53.0356850  78.5223913 144.1528857
  53.4303212  77.6189089 145.3017383  63.3918777  88.1939840 143.1456100
  63.8349923  87.4447165 142.7475223  62.5145287  88.1849976 142.7629832
  58.5254558  94.7470181 138.6262698  59.2205463  95.3676874 138.8450013
  58.8677709  93.8965532 138.9015076  44.1422368  86.5687982 152.4859516
  43.4004104  86.7170618 153.0724146  43.8215112  86.8296248 151.6226265
  60.4245982  92.1969887 140.1550029  60.9497306  92.5357160 139.4299349
  60.3368334  91.2616902 139.9713164  52.0866030  96.1103960 152.2839906
  52.3953157  95.8653107 153.1562605  52.8841512  96.3150599 151.7958776
  52.1086642  98.2641870 144.5145282  51.6691633  97.7718249 145.2078139
  52.8594759  97.7214838 144.2737358  44.5878981  94.4553411 144.5169910
  45.4137001  94.1557183 144.1368554  44.2373033  93.6861033 144.9659699
  49.5560514  93.8079879 146.5867584  48.9340524  93.1450584 146.2869812
  50.2265381  93.8341011 145.9041232  42.7887586  92.3739737 145.4758844
  41.9519495  91.9461912 145.2942845  42.7611232  92.5672181 146.4129635
  49.6285042  82.2861667 156.1800090  49.6773197  83.1623790 155.7977860
  50.1707556  81.7439060 155.6071733  60.1139888  92.8302790 155.4601227
  59.3235431  92.8126929 154.9205727  59.8773242  93.3691084 156.2150264
  60.2337763  89.6795257 152.7733956  60.2835768  89.5145264 153.7149478
  60.1251686  88.8122516 152.3831836  49.1174021  92.3583803 140.0626045
  49.2662142  93.0419267 139.4092717  49.9240465  92.3388893 140.5775500
  57.5241525  85.6626185 154.0893262  58.4251388  85.5232650 153.7977260
  57.5989500  85.8280640 155.0291440  51.8584330  83.0393040 152.9346449
  50.9887640  83.3326606 152.6629037  52.0943811  83.6233485 153.6553712
  61.7355960  92.0992198 153.0175977  61.4440768  92.4622179 153.8539438
  61.1228091  91.3859207 152.8389309  62.9351642  89.6645078 145.5378547
  63.7698533  90.1034882 145.7016108  63.0710771  89.1883731 144.7186793
  59.9843148  87.2224813 151.4856035  60.4597269  87.4152459 150.6774887
  59.0608713  87.2783999 151.2399419  46.8726654  88.3848980 141.0687113
  46.6272696  87.4811310 141.2667324  47.0422569  88.3866131 140.1266591
  54.5623364  79.2572657 150.4511869  55.0805308  79.9933683 150.1258358
  54.2078497  79.5636650 151.2858628  46.1422302  84.1177338 138.5673275
  45.4491547  84.1921693 137.9113311  45.8974054  83.3537681 139.0894792
  54.8135958  75.6772939 145.9712766  55.0937712  75.0096128 146.5973192
  55.5986565  75.8702035 145.4587429  52.6169427  94.8531933 137.5337792
  52.0443394  95.4722120 137.0808264  53.1902221  95.4031295 138.0677714
  58.6844817  84.0990573 149.7184341  59.6362240  84.1988671 149.7396565
  58.5148267  83.3068842 150.2282425  56.7059196  81.1846156 149.9043742
  56.1109128  81.4651169 149.2090230  56.4208893  81.6740057 150.6760483
  55.8366687  95.1369083 138.6646374  56.7697360  95.0714645 138.8679250
  55.7489900  95.9725350 138.2060907  58.4654703  94.4534953 135.6250322
  58.3868335  94.1194817 136.5186080  59.2864370  94.9456721 135.6241794
  61.1632895  87.3196693 148.8326640  61.1309215  86.3812693 149.0186324
  61.7733518  87.3980729 148.0992465  53.0016225  86.1892746 134.8753844
  53.9475330  86.0598954 134.9442262  52.6230470  85.4507408 135.3523273
  61.3127383  84.1107736 148.8784924  60.7966432  83.3266193 148.6914852
  62.1967332  83.7826453 149.0431443  58.9738110  77.8548752 144.8380736
  58.7762931  77.5463840 145.7224068  59.5837816  78.5810391 144.9678666
  66.9809444  88.3812700 147.9732677  67.7112833  88.1197988 148.5340381
  66.3716390  87.6441422 148.0134745  65.0624742  86.5220562 148.5707128
  64.3357905  86.3876527 147.9623620  64.6472028  86.8297391 149.3763846
  52.8854918  90.2410492 156.3354501  53.8057927  90.4189091 156.5294548
  52.8504501  89.2966537 156.1834201  51.1859143  84.1142722 134.8108730
  50.2790598  83.8175835 134.8871443  51.4635124  83.8172540 133.9443016
  42.1037083  85.4349086 145.2607776  41.7839867  84.5814394 144.9682150
  41.5570511  85.6497664 146.0165743  45.8816991  88.1511527 148.9777283
  46.1003000  89.0828634 148.9965316  46.2942764  87.7919501 149.7632086
  52.8021208  78.6579612 140.9652971  51.9921937  78.3126697 141.3408217
  53.4905625  78.3487156 141.5540583  54.7311757  77.7357659 142.5877268
  55.2842795  78.1553112 143.2467291  54.9681843  76.8093407 142.6300224
  50.7544856  83.7244732 158.3680032  50.6541583  84.6739089 158.2992123
  50.5366398  83.3962971 157.4956102  49.9557927  80.9729657 134.9520709
  50.8177091  81.2984556 135.2116526  50.1408271  80.1861153 134.4393775
  41.9725343  89.0551997 147.2300898  41.2788814  88.6405950 146.7170852
  42.7198334  89.0972534 146.6334317  58.1090564  79.8458184 142.0955932
  57.5289233  80.5042988 141.7133984  57.8426496  79.0235528 141.6843349
  56.5594130  79.2463241 144.2977252  57.0593908  79.3579776 143.4891571
  57.2029738  78.9424294 144.9378061  50.6176126  87.1541871 157.1845093
  50.1343208  87.9542231 157.3908982  50.7037065  87.1649816 156.2312537
  43.8862085  88.9870251 145.1066913  43.8632774  89.0857938 144.1548796
  44.1962722  89.8335402 145.4284079  46.5449463  91.0446406 149.2213527
  47.4992717  91.0130348 149.1543459  46.3461987  90.5837030 150.0363753
  47.1348845  89.6147522 151.7884325  47.9541734  90.1091601 151.8119162
  47.4085653  88.6979490 151.7601892  56.8915442  82.0058274 141.1512280
  56.0041297  82.2907925 140.9332475  57.3069431  81.8452038 140.3039557
  60.2429978  82.0304795 144.8666619  61.0190368  82.5201248 145.1391236
  59.5178112  82.4562849 145.3238489  62.6802536  82.7432414 145.9240560
  63.2747027  82.5028150 145.2133868  62.7529120  82.0239545 146.5514096
  44.8999692  96.5866025 146.2383725  44.7654160  95.8266426 145.6721723
  44.4831754  97.3106925 145.7712514  56.0358655  91.7702949 135.2460300
  56.7394505  91.9752951 135.8617956  55.3121304  92.3379711 135.5109384
  56.8656465  87.5212810 141.3662570  56.8091667  87.9781362 140.5270203
  57.4184808  86.7603495 141.1885413  60.6761271  83.3102542 142.1912690
  60.4198206  82.9099178 143.0220897  60.0514139  84.0246336 142.0662829
  64.9873609  86.0498615 144.6983981  64.4273167  86.1191805 145.4715543
  64.3817113  85.8739600 143.9783477  48.0568818  97.4835342 146.4502167
  47.9401202  98.4280775 146.3480858  47.2361264  97.1808904 146.8387967
  57.9445353  92.2085478 137.2958760  58.7790956  91.7766677 137.1136235
  57.7829695  92.0367492 138.2235655  57.5991245  88.7117591 138.6615099
  57.5440049  88.5461863 137.7203544  56.9737300  89.4193624 138.8177289
  42.3883760  83.9485656 152.4876522  43.0342623  83.4384610 152.9763747
  42.1800911  84.6854337 153.0619947  54.9137152  91.0166503 157.9868662
  55.7828312  91.1907155 157.6255297  54.4343903  91.8360920 157.8644392
  50.9087370  78.2125700 138.2400418  50.8966040  79.1567540 138.3968689
  51.8010792  78.0295846 137.9459879  49.0823332  98.1363604 149.6658096
  49.9850579  98.1687214 149.9824591  48.8560702  97.2064055 149.6804432
  50.8376934  96.8894591 146.3268175  49.8872565  96.8896452 146.2132547
  51.1409420  96.1427325 145.8104209  54.7239490  74.8068477 142.4946355
  53.9571885  74.2526964 142.6403037  55.1350195  74.8790346 143.3560506
  46.7281251  81.0953273 156.5851536  47.5912712  80.7390078 156.7954861
  46.1546661  80.7567168 157.2726940  66.5729628 102.7255129 147.3913937
  67.2108038 102.6061876 146.6877277  66.4550471 103.6735973 147.4501889
  63.3819334 102.6782557 147.3275462  63.0437845 102.5623622 146.4395996
  64.2509102 102.2773722 147.3076468  59.2406150 104.5318034 143.3172353
  58.6771015 104.4407971 142.5488640  59.1258545 103.7117938 143.7974845
  63.8639117 103.8317409 153.2861667  63.8527758 103.4370207 152.4142171
  64.0259756 103.0983482 153.8795439  56.7870582 106.0269225 146.1556573
  57.5791873 105.6860050 145.7402872  57.0267232 106.1364200 147.0758726
  64.8205708 108.1989001 138.6286817  64.1693688 108.7843082 138.2420831
  65.6150071 108.7295196 138.6881855  58.7461336 105.2878139 139.0273952
  59.5192212 104.7407126 138.8886828  59.0986734 106.1522388 139.2388413
  60.5846378 106.6154521 152.2340851  60.2936244 107.5200152 152.1187517
  61.2203362 106.6571048 152.9484921  61.5102585 103.9931369 148.8242211
  62.1066157 103.7687392 148.1099174  61.5677556 103.2516115 149.4267659
  61.0827613 101.4470805 136.6592402  61.3353134 100.9252326 135.8975865
  60.1452172 101.2836950 136.7619085  66.1270896 100.4506583 144.4667145
  66.9133985 100.0326006 144.1157562  66.3909600 101.3552675 144.6348793
  66.2980973 105.8879433 139.1655802  65.6626806 105.9614060 139.8776706
  65.9678380 106.4773032 138.4874881  71.5279323 100.3881816 145.3700123
  72.2604495  99.8181033 145.6037953  70.7718679 100.0003417 145.8106629
  60.8023902 103.3498911 138.8616777  60.6860160 102.6743814 139.5297861
  60.9126162 102.8631285 138.0448930  63.1455443 102.8109058 142.5663466
  62.7813650 102.2839679 143.2776387  64.0022559 102.4207527 142.3929951
  69.0504744  94.1003390 149.8294732  68.7188068  94.9698801 149.6055947
  68.4550357  93.7839674 150.5088762  62.7860930  97.8398957 137.5624814
  62.9535332  98.7079194 137.9295286  62.5958099  98.0026239 136.6386104
  65.5436263 106.3015936 149.2290645  65.2436986 107.2040975 149.1206452
  65.1987323 106.0348119 150.0811798  58.9948745 102.7529733 145.2627349
  58.0699241 102.6205947 145.4705041  59.2433158 103.5323952 145.7597292
  68.9433407  98.8198476 146.9088082  68.0350284  98.7513885 146.6146843
  68.8921003  99.2970421 147.7369908  62.7650151 100.2956615 138.5471481
  62.6449776 100.7413666 139.3856962  62.0702739 100.6441933 137.9885019
  56.3557556 102.3963007 146.0971138  56.4849937 102.6497486 147.0110550
  55.6755007 102.9890715 145.7775793  60.5257043 113.0660257 142.1961613
  60.4481073 114.0168082 142.2750093  59.9218687 112.7206129 142.8536539
  63.0174273 100.2388122 154.8522979  62.2407607 100.7982042 154.8425844
  63.6564836 100.7244905 155.3737850  70.8095053  97.0214915 148.6865956
  70.1669434  97.3147448 148.0405751  70.3049982  96.9067835 149.4919153
  68.4635217 100.7678088 139.3751815  69.3753073 101.0005475 139.1999513
  67.9544864 101.3515132 138.8126894  61.2720645 103.0473575 154.4140946
  62.0135329 103.5858619 154.1375770  60.5657631 103.6739864 154.5712498
  66.7475985 105.1902716 153.0113108  67.1559341 104.7485126 152.2667740
  66.0253246 104.6155343 153.2647301  63.1007055 100.1275323 150.3846665
  63.9468250 100.5514736 150.5281314  63.0405692  99.4708947 151.0785228
  67.0704799 105.7503907 146.7665397  66.4413662 105.9149621 146.0641465
  66.6830461 106.1645516 147.5376361  70.9494031 106.6858344 144.1209761
  70.2645069 107.0657246 143.5706794  71.0337881 107.2953671 144.8541708
  66.2506500  97.7879691 152.0427838  66.0067432  98.5421752 151.5062114
  66.5266431  98.1665039 152.8775086  68.2044963 104.3318303 150.7205104
  68.4161858 104.9750063 150.0439485  68.1574711 103.4980620 150.2527034
  65.8071192  96.9436124 147.6241676  64.9455671  97.2417378 147.9158414
  65.8333626  97.1606523 146.6922709  62.6232761 105.4878315 144.0315482
  63.0871107 105.7666018 143.2420104  62.3589559 104.5861759 143.8488573
  59.5156842 105.0349796 146.9695245  60.0858199 105.4637065 146.3312730
  60.1064954 104.7532381 147.6679431  61.5601647 101.6101467 140.8405047
  62.2625691 102.0622511 141.3078973  61.2282276 100.9685286 141.4684940
  60.0082009 100.2013224 155.2156256  59.3780669 100.8829504 155.4491653
  59.9018097 100.0896305 154.2709395  55.3026981  99.8685020 146.1422181
  54.5126035 100.1242548 145.6662291  55.7938229 100.6833357 146.2474221
  69.3190791 107.2090259 148.8927461  70.1408234 106.8070446 148.6110143
  69.3153194 107.1058493 149.8443577  57.2541727 100.2329599 143.1005657
  56.4572890 100.3448293 143.6189153  57.0267319 100.5716251 142.2346548
  63.0847394 106.7574302 151.0488172  63.1491827 107.2194709 151.8846344
  62.3758318 106.1271667 151.1770482  53.5864684 100.1215510 148.5737171
  53.8372723 101.0062520 148.8394747  54.1224233  99.9420112 147.8012263
  77.4096784 103.5529007 145.2412433  76.6560492 102.9836405 145.0856437
  77.5444325 103.5191672 146.1883068  62.7995412 108.4242410 140.9167152
  62.6641087 109.2693945 141.3452000  63.3405224 108.6261687 140.1533086
  59.2862752  94.5033989 157.5781507  58.8929697  93.9500188 158.2529152
  60.1028892  94.8144568 157.9688025  56.2524809 105.9417848 141.4895077
  56.7649330 106.7361098 141.6400642  56.9047522 105.2444138 141.4228679
  58.0619694 109.0583604 143.5717831  58.2386322 109.9801569 143.3838814
  58.8576527 108.7442023 144.0012210  62.2030713  95.9191869 155.1701764
  62.9440426  96.5199022 155.0906226  62.4348635  95.1769506 154.6119807
  57.3472051 101.1048236 153.4479994  57.2325566 100.2033493 153.7487093
  56.4916568 101.3511933 153.0964810  64.4263888 109.0465976 155.0467494
  63.9827742 108.2602355 154.7288399  65.0881102 109.2345127 154.3811385
  59.1851009 110.5761778 149.5728173  59.7358435 110.4478841 148.8005167
  58.3462485 110.8756667 149.2223066  66.5245126 109.3268776 153.0748896
  66.5063602 110.1477657 152.5829165  67.4465046 109.2022851 153.2999037
  62.9818180 106.8412906 153.9172404  63.5146517 106.0801194 153.6871712
  62.4532262 106.5486557 154.6596558  66.1487875  91.9472971 149.4466046
  65.8052145  92.8374613 149.3705156  66.5166838  91.7574629 148.5835631
  54.2173726 104.2706502 142.2654648  55.0548948 104.6803510 142.0488356
  54.3951994 103.3305944 142.2354842  66.1138158 101.9381583 137.9538481
  65.5984782 102.7086187 138.1926868  65.8415467 101.2646719 138.5771542
  63.6985269  96.7831283 143.0123719  62.8426866  96.3938134 142.8329358
  64.1112221  96.8623244 142.1523505  65.2284416  94.3177627 147.4115279
  64.7249211  94.2807762 146.5983084  65.5215023  95.2270369 147.4711936
  61.4727302  94.4016356 146.4181461  62.3380298  94.2059165 146.0587350
  61.5404811  94.1726708 147.3450817  71.0872432 104.6913937 139.8891654
  70.3101875 104.3525097 139.4446816  71.7663913 104.6966560 139.2146619
  65.9024461  99.8108675 139.7798262  65.5974597 100.1254824 140.6308405
  66.8554903  99.8890095 139.8225595  64.3470893 105.9698898 141.4291216
  63.8192255 105.2351658 141.1164453  63.8458396 106.7473574 141.1831184
  69.3263739 104.1647918 146.5458262  68.6687414 104.8547180 146.6338391
  70.1304138 104.5544350 146.8892249  59.0789621  96.6318564 143.7897827
  59.6533373  96.4093746 143.0571020  59.6660603  96.7007259 144.5426429
  68.1369198 102.5192291 144.5962204  68.6501080 103.1522283 145.0983914
  68.7870422 101.9193487 144.2305564  59.4059208  98.6623025 137.8093713
  58.5696520  98.9997712 138.1302987  59.2663978  98.5272005 136.8720850
  61.3812289  93.5059813 142.5172897  60.7276701  93.1908830 141.8929512
  61.3392763  92.8835554 143.2432720  62.4923493 103.7879108 134.4326189
  61.5850555 103.5568362 134.6317338  62.9894525 102.9916728 134.6200171
  65.3991572 112.4976615 137.3522875  64.7253271 112.8008312 137.9607833
  65.7857394 113.3005696 137.0028332  64.6150029  99.9941747 146.8420545
  63.6972590 100.2156694 146.6842233  65.0310172 100.0688057 145.9832252
  65.3985077 101.3933162 141.9723225  66.1456896 101.9054560 141.6630347
  65.6676666 101.0717215 142.8327618  63.6711727 103.8891703 138.9550179
  62.7622946 103.6050736 139.0522649  63.7006811 104.3090782 138.0953486
  68.9030994 107.4998293 142.7241347  68.4493321 106.6589203 142.7806537
  68.2724961 108.1359691 143.0616127  67.8463914  98.4290279 143.9542014
  67.1086671  97.9167665 144.2852257  68.0990687  97.9890660 143.1425291
  67.3463933 109.3374789 143.6591165  67.6386908 109.8979846 142.9403530
  67.8562554 109.6303350 144.4144324  67.9475541  91.2066531 144.5483783
  68.2534418  90.3463894 144.2609698  68.6728146  91.7984151 144.3482777
  54.2399897 101.6097217 142.9365381  54.0424297 101.0166578 142.2116448
  53.6846561 101.3049427 143.6541320  62.2196621 101.5020324 145.0559974
  62.2745231 100.5494160 144.9802451  61.4087823 101.6579763 145.5401273
  63.3687815 105.4300447 136.2938258  62.9307245 104.7136306 135.8343895
  64.1098255 105.6576562 135.7323349  60.1588981 100.1197383 142.8150353
  59.3456846 100.4191554 143.2215545  60.6547975  99.7253072 143.5324836
  62.3097559 110.1155140 144.7484618  62.2673737 110.3415987 143.8193150
  63.2260258 109.8818515 144.8970419  65.7563192 100.5839208 151.6465247
  66.1112580 100.8110681 152.5059713  66.4035324 100.9157585 151.0242503
  71.4860929 103.7057644 142.3514576  71.3478828 103.8959240 141.4235765
  71.1297148 104.4677027 142.8082627  59.6503056  97.6915739 148.4311588
  60.2902435  97.5504498 147.7334552  58.8180586  97.4050252 148.0550190
  71.5130309 105.7734171 147.3625848  71.9466816 105.6809460 148.2108902
  72.2261890 105.7491671 146.7245864  60.4263359 106.9918169 144.5446581
  61.2203958 106.4968490 144.3429156  59.7155052 106.4636033 144.1814286
  65.2458204 109.3736265 148.8958948  65.2995226 109.9427201 149.6636664
  64.3772985 109.5438150 148.5312985  56.7346123 101.1361251 140.6206333
  55.8043711 101.0745707 140.8376296  56.8303595 100.6137204 139.8242975
  56.6531672  97.6616064 143.2084575  56.9138489  98.5761397 143.0993736
  57.4748844  97.1940507 143.3581188  58.1256597  99.0753821 150.3783400
  58.7979651  98.8671183 149.7296049  57.2986384  98.8775907 149.9388632
  72.3745859 105.8157871 149.8958733  72.5681749 106.7203682 150.1418008
  72.2746477 105.3565291 150.7297318  64.0282169  95.7015762 152.3949060
  63.3810084  96.4005712 152.3013537  64.7983185  96.1351906 152.7625309
  67.4360967 105.9664614 155.4699614  67.2846474 105.7375166 154.5529697
  67.4265647 106.9235216 155.4830959  64.2046304 103.5396527 150.4545880
  65.1338364 103.6907687 150.2814848  63.7837334 103.6280548 149.5994527
  63.0034635 107.5647191 148.2244418  62.8645721 107.1965976 149.0970356
  62.2149232 108.0794831 148.0528376  63.5982787 112.6656288 139.5669954
  63.7734543 112.1944331 140.3815577  62.9115575 113.2922054 139.7951215
  64.5539851 106.9428794 145.6133256  64.2189683 106.9029564 146.5090905
  64.0543796 106.2773510 145.1403666  58.5284095 102.3496424 151.1385837
  58.3903892 101.6176663 151.7397376  59.4389018 102.2605324 150.8570025
  67.4899042 104.2884828 135.8870315  66.8728213 103.5631657 135.7903368
  67.0215531 105.0494189 135.5437390  61.1566395 102.0616383 150.6269516
  61.8666014 101.4209576 150.5856135  61.1135703 102.3129278 151.5495697
  69.1453174 108.9983737 153.5476096  69.0865720 108.3142957 152.8806679
  69.5472692 109.7402727 153.0956722  59.8695329  99.0481601 152.4465156
  59.3332686  98.5972340 153.0986752  59.2812038  99.1827510 151.7035620
  58.1643873 115.8145651 146.3409815  58.4040471 116.4464175 147.0188833
  57.3213069 115.4633691 146.6275174  59.2797588  98.5070253 135.0091620
  58.4027054  98.3859054 134.6453866  59.7555341  97.7156331 134.7570508
  69.1470581 106.9623321 151.7790075  68.2597360 106.6249243 151.9016474
  69.7169132 106.2306352 152.0158841  50.7999728 103.2947412 145.1033127
  51.4870768 102.9809142 144.5154142  50.6447857 104.1988777 144.8300378
  55.6034450  98.1837609 149.5318150  55.5192639  97.5763279 148.7968560
  54.7817157  98.6746627 149.5327647  62.6771735 111.6224773 148.7451319
  62.6041906 112.4279745 149.2570623  62.2349128 111.8216739 147.9199340
  62.4661514 110.8596543 142.2554140  61.6829036 111.4018223 142.3492365
  63.1654259 111.3770523 142.6548381  65.7758164  96.6691173 144.8988345
  66.2726864  95.9161135 144.5789416  65.0045146  96.7055489 144.3331555
  73.6287922 102.3731538 146.5406637  73.6177798 103.2556254 146.1700570
  72.7605301 102.0203089 146.3461174  65.1370418 111.5211607 150.9009477
  65.8498390 112.1559072 150.8285379  64.6460447 111.6175473 150.0849479
  66.8587945 105.4262860 142.4726769  65.9244224 105.5464322 142.3031473
  67.0364613 104.5235327 142.2086779  62.3593133  98.8108556 144.6260030
  61.9890921  98.2579596 145.3140936  62.8552225  98.2066689 144.0735030
  70.2460496 101.2680179 143.0076803  70.7120949 102.1008171 142.9337106
  70.6967997 100.8025161 143.7122061  60.1882332 109.2706051 151.7215048
  60.8891791 109.9042534 151.8744442  59.7177447 109.6120782 150.9610687
  68.3136727 107.6124000 140.0062955  68.5896571 107.4980595 140.9156829
  67.4441226 107.2141485 139.9675128  68.2177159  93.6360766 147.0467704
  67.3040239  93.8664993 147.2149911  68.6470261  93.7199210 147.8981737
  67.9883618 101.8250658 149.5467598  67.3355068 102.0726565 148.8920051
  68.3663997 101.0114796 149.2130076  64.9490791 111.8610351 143.6495769
  65.1313186 111.0432007 144.1123521  65.7723777 112.0778043 143.2120659
  65.2832957 110.7878536 140.9110817  65.8120723 110.2770991 140.2980979
  65.5461177 110.4721067 141.7756350  64.0371191 102.5670469 156.0333635
  63.3611828 102.4664598 156.7036011  64.8598824 102.4109683 156.4969633
  55.7850050 108.8042406 148.6546151  56.3703486 108.0586094 148.7874055
  55.5874888 109.1146362 149.5382815  58.6388705 111.8393653 143.6708593
  57.9699080 112.3239781 143.1872633  58.5001575 112.0862873 144.5851972
  50.3767704 101.3748006 147.3750594  50.4151804 100.8411597 148.1687712
  49.8707997 100.8483211 146.7561571  62.7793973 113.8737397 150.2691251
  63.3312281 114.0369018 151.0340337  63.1200167 114.4641834 149.5971276
  57.7558467  96.2212546 150.8713136  57.8199793  97.0827377 150.4590534
  57.6925587  95.6086548 150.1385495  57.2310739  98.2935679 154.5186170
  57.8582778  97.9112756 155.1323695  56.3738658  98.0749881 154.8841863
  67.6304848 108.6998654 156.1239906  68.1744752 109.3128612 155.6294861
  67.0491693 109.2578232 156.6406919  54.0076282 100.1012108 140.4504525
  54.3029723  99.1922786 140.3971579  53.1064318 100.0799847 140.1285528
  65.9162361 111.8219372 147.2554934  65.7913500 111.0209112 146.7465879
  66.5741452 112.3165565 146.7668904  57.5370529  98.1768105 146.4332074
  56.8157115  98.7904072 146.2939547  58.3263785  98.7125869 146.3548720
  67.9797269 109.6228392 148.8834484  67.0327605 109.5033743 148.8112810
  68.3280042 108.7350890 148.9660745  60.3396842  95.5122531 152.7072726
  60.8631244  95.7584828 153.4699035  60.1209176  96.3442566 152.2875863
  55.7364124  97.7826206 140.5743850  55.4076830  96.9023585 140.3918956
  56.0903494  97.7273874 141.4620240  64.9843702 109.4181108 145.0838836
  64.8368665 108.4897816 145.2646406  65.8097196 109.4401199 144.5995911
  58.8505947  98.0699175 140.9419328  59.1902019  98.5985097 140.2197936
  59.2978067  98.4079582 141.7177895  68.5877824 110.2409667 146.1703709
  69.5124372 110.0352528 146.0328160  68.4193128 109.9926068 147.0793050
  61.5449388  96.4536226 150.3922396  61.2046208  95.6544039 150.7943076
  60.8388394  96.7537937 149.8199229  62.1965859  93.5385539 148.8449719
  63.0191929  93.0646017 148.7228609  62.4403923  94.3176022 149.3448405
  60.8374094  96.5673797 139.1412621  61.5582456  96.9455050 138.6376338
  60.2139398  97.2862674 139.2447599  64.9805217  97.2718946 140.0770953
  65.1968831  98.1543584 139.7759781  64.4999284  96.8805159 139.3476595
  59.7204438 100.2304659 146.6541698  59.5749019 100.5444962 147.5465979
  59.2429642 100.8489560 146.1012596  61.5800821  97.2207207 146.7022587
  61.5662390  96.3248301 146.3654885  62.2973249  97.2277871 147.3360873
  63.4326952  97.6544547 148.7475715  63.1744730  98.5761618 148.7460045
  62.9011992  97.2574982 149.4376179  68.3773140 110.7595335 141.5265800
  68.5510018 110.1941757 140.7739653  68.8702032 111.5596229 141.3445290
  54.1950100 102.7710004 149.5929359  53.6503568 103.5469812 149.7249633
  55.0729450 103.1180808 149.4348480  60.9837717  96.1021587 141.9710157
  61.1053628  95.1738234 142.1701045  60.6939759  96.1160273 141.0588473
  63.8528907  93.7876498 145.1076877  63.8750604  93.8515831 144.1528857
  64.2696966  92.9481007 145.3017383  74.2312532 103.5231757 143.1456100
  74.6743678 102.7739083 142.7475223  73.3539042 103.5141894 142.7629832
  69.3648313 110.0762099 138.6262698  70.0599218 110.6968792 138.8450013
  69.7071463 109.2257450 138.9015076  54.9816122 101.8979900 152.4859516
  54.2397858 102.0462535 153.0724146  54.6608866 102.1588166 151.6226265
  71.2639736 107.5261804 140.1550029  71.7891060 107.8649077 139.4299349
  71.1762089 106.5908820 139.9713164  62.9259785 111.4395878 152.2839906
  63.2346911 111.1945025 153.1562605  63.7235267 111.6442517 151.7958776
  62.9480397 113.5933788 144.5145282  62.5085387 113.1010166 145.2078139
  63.6988514 113.0506755 144.2737358  55.4272736 109.7845329 144.5169910
  56.2530756 109.4849100 144.1368554  55.0766788 109.0152951 144.9659699
  60.3954269 109.1371797 146.5867584  59.7734278 108.4742502 146.2869812
  61.0659136 109.1632929 145.9041232  53.6281341 107.7031655 145.4758844
  52.7913249 107.2753829 145.2942845  53.6004986 107.8964098 146.4129635
  60.4678796  97.6153585 156.1800090  60.5166952  98.4915708 155.7977860
  61.0101311  97.0730978 155.6071733  70.9533642 108.1594708 155.4601227
  70.1629186 108.1418847 154.9205727  70.7166997 108.6983002 156.2150264
  71.0731517 105.0087174 152.7733956  71.1229522 104.8437182 153.7149478
  70.9645441 104.1414434 152.3831836  59.9567776 107.6875720 140.0626045
  60.1055896 108.3711185 139.4092717  60.7634219 107.6680810 140.5775500
  68.3635280 100.9918103 154.0893262  69.2645142 100.8524567 153.7977260
  68.4383254 101.1572557 155.0291440  62.6978085  98.3684957 152.9346449
  61.8281394  98.6618523 152.6629037  62.9337565  98.9525402 153.6553712
  72.5749714 107.4284116 153.0175977  72.2834522 107.7914097 153.8539438
  71.9621845 106.7151124 152.8389309  73.7745396 104.9936996 145.5378547
  74.6092288 105.4326800 145.7016108  73.9104525 104.5175649 144.7186793
  70.8236902 102.5516731 151.4856035  71.2991024 102.7444377 150.6774887
  69.9002468 102.6075916 151.2399419  57.7120409 103.7140898 141.0687113
  57.4666451 102.8103228 141.2667324  57.8816323 103.7158048 140.1266591
  65.4017119  94.5864574 150.4511869  65.9199063  95.3225601 150.1258358
  65.0472252  94.8928567 151.2858628  56.9816056  99.4469255 138.5673275
  56.2885301  99.5213610 137.9113311  56.7367808  98.6829599 139.0894792
  65.6529713  91.0064857 145.9712766  65.9331467  90.3388046 146.5973192
  66.4380320  91.1993952 145.4587429  63.4563181 110.1823851 137.5337792
  62.8837149 110.8014038 137.0808264  64.0295975 110.7323212 138.0677714
  69.5238571  99.4282491 149.7184341  70.4755994  99.5280588 149.7396565
  69.3542022  98.6360759 150.2282425  67.5452951  96.5138074 149.9043742
  66.9502883  96.7943087 149.2090230  67.2602647  97.0031975 150.6760483
  66.6760441 110.4661001 138.6646374  67.6091114 110.4006562 138.8679250
  66.5883654 111.3017268 138.2060907  69.3048458 109.7826871 135.6250322
  69.2262089 109.4486735 136.5186080  70.1258125 110.2748639 135.6241794
  72.0026649 102.6488610 148.8326640  71.9702969 101.7104611 149.0186324
  72.6127273 102.7272647 148.0992465  63.8409980 101.5184663 134.8753844
  64.7869085 101.3890871 134.9442262  63.4624225 100.7799325 135.3523273
  72.1521138  99.4399654 148.8784924  71.6360186  98.6558110 148.6914852
  73.0361086  99.1118370 149.0431443  69.8131864  93.1840669 144.8380736
  69.6156686  92.8755758 145.7224068  70.4231570  93.9102308 144.9678666
  77.8203199 103.7104617 147.9732677  78.5506587 103.4489905 148.5340381
  77.2110144 102.9733339 148.0134745  75.9018496 101.8512480 148.5707128
  75.1751660 101.7168445 147.9623620  75.4865783 102.1589308 149.3763846
  63.7248672 105.5702410 156.3354501  64.6451682 105.7481009 156.5294548
  63.6898255 104.6258455 156.1834201  62.0252897  99.4434640 134.8108730
  61.1184352  99.1467752 134.8871443  62.3028878  99.1464458 133.9443016
  52.9430837 100.7641003 145.2607776  52.6233622  99.9106311 144.9682150
  52.3964266 100.9789581 146.0165743  56.7210745 103.4803444 148.9777283
  56.9396755 104.4120552 148.9965316  57.1336519 103.1211419 149.7632086
  63.6414963  93.9871529 140.9652971  62.8315691  93.6418614 141.3408217
  64.3299380  93.6779073 141.5540583  65.5705511  93.0649576 142.5877268
  66.1236550  93.4845030 143.2467291  65.8075597  92.1385324 142.6300224
  61.5938610  99.0536650 158.3680032  61.4935337 100.0031007 158.2992123
  61.3760152  98.7254889 157.4956102  60.7951682  96.3021575 134.9520709
  61.6570846  96.6276473 135.2116526  60.9802026  95.5153071 134.4393775
  52.8119097 104.3843915 147.2300898  52.1182569 103.9697867 146.7170852
  53.5592088 104.4264451 146.6334317  68.9484318  95.1750101 142.0955932
  68.3682987  95.8334905 141.7133984  68.6820251  94.3527446 141.6843349
  67.3987885  94.5755159 144.2977252  67.8987663  94.6871694 143.4891571
  68.0423492  94.2716212 144.9378061  61.4569880 102.4833789 157.1845093
  60.9736962 103.2834149 157.3908982  61.5430819 102.4941734 156.2312537
  54.7255840 104.3162168 145.1066913  54.7026528 104.4149856 144.1548796
  55.0356476 105.1627319 145.4284079  57.3843218 106.3738323 149.2213527
  58.3386471 106.3422266 149.1543459  57.1855741 105.9128947 150.0363753
  57.9742600 104.9439440 151.7884325  58.7935489 105.4383518 151.8119162
  58.2479408 104.0271408 151.7601892  67.7309196  97.3350192 141.1512280
  66.8435051  97.6199842 140.9332475  68.1463185  97.1743955 140.3039557
  71.0823732  97.3596713 144.8666619  71.8584122  97.8493165 145.1391236
  70.3571866  97.7854767 145.3238489  73.5196291  98.0724332 145.9240560
  74.1140782  97.8320068 145.2133868  73.5922875  97.3531463 146.5514096
  55.7393447 111.9157943 146.2383725  55.6047915 111.1558344 145.6721723
  55.3225509 112.6398843 145.7712514  66.8752410 107.0994866 135.2460300
  67.5788260 107.3044869 135.8617956  66.1515058 107.6671628 135.5109384
  67.7050220 102.8504728 141.3662570  67.6485421 103.3073279 140.5270203
  68.2578562 102.0895412 141.1885413  71.5155026  98.6394460 142.1912690
  71.2591960  98.2391095 143.0220897  70.8907894  99.3538254 142.0662829
  75.8267364 101.3790533 144.6983981  75.2666922 101.4483722 145.4715543
  75.2210867 101.2031517 143.9783477  58.8962573 112.8127260 146.4502167
  58.7794957 113.7572692 146.3480858  58.0755019 112.5100822 146.8387967
  68.7839107 107.5377396 137.2958760  69.6184711 107.1058594 137.1136235
  68.6223450 107.3659409 138.2235655  68.4384999 104.0409509 138.6615099
  68.3833803 103.8753780 137.7203544  67.8131055 104.7485542 138.8177289
  53.2277514  99.2777573 152.4876522  53.8736378  98.7676527 152.9763747
  53.0194665 100.0146255 153.0619947  65.7530906 106.3458421 157.9868662
  66.6222066 106.5199073 157.6255297  65.2737658 107.1652838 157.8644392
  61.7481125  93.5417618 138.2400418  61.7359795  94.4859458 138.3968689
  62.6404547  93.3587763 137.9459879  59.9217087 113.4655522 149.6658096
  60.8244333 113.4979132 149.9824591  59.6954457 112.5355973 149.6804432
  61.6770689 112.2186508 146.3268175  60.7266320 112.2188370 146.2132547
  61.9803175 111.4719243 145.8104209  65.5633244  90.1360395 142.4946355
  64.7965640  89.5818881 142.6403037  65.9743949  90.2082263 143.3560506
  57.5675005  96.4245190 156.5851536  58.4306467  96.0681995 156.7954861
  56.9940416  96.0859085 157.2726940  77.4123382 118.0547047 147.3913937
  78.0501792 117.9353794 146.6877277  77.2944225 119.0027891 147.4501889
  74.2213088 118.0074475 147.3275462  73.8831600 117.8915540 146.4395996
  75.0902857 117.6065640 147.3076468  70.0799904 119.8609951 143.3172353
  69.5164769 119.7699888 142.5488640  69.9652299 119.0409856 143.7974845
  74.7032871 119.1609327 153.2861667  74.6921512 118.7662125 152.4142171
  74.8653511 118.4275399 153.8795439  67.6264336 121.3561143 146.1556573
  68.4185628 121.0151968 145.7402872  67.8660986 121.4656118 147.0758726
  75.6599463 123.5280919 138.6286817  75.0087443 124.1134999 138.2420831
  76.4543826 124.0587114 138.6881855  69.5855090 120.6170056 139.0273952
  70.3585966 120.0699043 138.8886828  69.9380489 121.4814306 139.2388413
  71.4240133 121.9446438 152.2340851  71.1329999 122.8492069 152.1187517
  72.0597117 121.9862966 152.9484921  72.3496339 119.3223287 148.8242211
  72.9459912 119.0979309 148.1099174  72.4071311 118.5808032 149.4267659
  71.9221368 116.7762722 136.6592402  72.1746888 116.2544244 135.8975865
  70.9845927 116.6128868 136.7619085  76.9664651 115.7798501 144.4667145
  77.7527740 115.3617924 144.1157562  77.2303355 116.6844593 144.6348793
  77.1374728 121.2171351 139.1655802  76.5020561 121.2905977 139.8776706
  76.8072134 121.8064950 138.4874881  82.3673078 115.7173734 145.3700123
  83.0998250 115.1472951 145.6037953  81.6112433 115.3295334 145.8106629
  71.6417657 118.6790828 138.8616777  71.5253915 118.0035732 139.5297861
  71.7519916 118.1923202 138.0448930  73.9849197 118.1400975 142.5663466
  73.6207405 117.6131596 143.2776387  74.8416313 117.7499444 142.3929951
  79.8898498 109.4295308 149.8294732  79.5581823 110.2990719 149.6055947
  79.2944112 109.1131592 150.5088762  73.6254684 113.1690875 137.5624814
  73.7929087 114.0371111 137.9295286  73.4351854 113.3318157 136.6386104
  76.3830018 121.6307854 149.2290645  76.0830741 122.5332893 149.1206452
  76.0381077 121.3640037 150.0811798  69.8342499 118.0821651 145.2627349
  68.9092996 117.9497865 145.4705041  70.0826912 118.8615870 145.7597292
  79.7827161 114.1490394 146.9088082  78.8744039 114.0805803 146.6146843
  79.7314757 114.6262339 147.7369908  73.6043905 115.6248533 138.5471481
  73.4843531 116.0705583 139.3856962  72.9096494 115.9733850 137.9885019
  67.1951310 117.7254924 146.0971138  67.3243691 117.9789403 147.0110550
  66.5148761 118.3182632 145.7775793  71.3650797 128.3952174 142.1961613
  71.2874827 129.3459999 142.2750093  70.7612441 128.0498047 142.8536539
  73.8568027 115.5680040 154.8522979  73.0801361 116.1273960 154.8425844
  74.4958590 116.0536823 155.3737850  81.6488808 112.3506833 148.6865956
  81.0063188 112.6439366 148.0405751  81.1443736 112.2359753 149.4919153
  79.3028972 116.0970006 139.3751815  80.2146828 116.3297392 139.1999513
  78.7938619 116.6807050 138.8126894  72.1114400 118.3765493 154.4140946
  72.8529084 118.9150537 154.1375770  71.4051385 119.0031782 154.5712498
  77.5869739 120.5194634 153.0113108  77.9953095 120.0777044 152.2667740
  76.8647001 119.9447261 153.2647301  73.9400809 115.4567240 150.3846665
  74.7862004 115.8806654 150.5281314  73.8799447 114.8000865 151.0785228
  77.9098554 121.0795824 146.7665397  77.2807416 121.2441538 146.0641465
  77.5224216 121.4937434 147.5376361  81.7887786 122.0150262 144.1209761
  81.1038824 122.3949163 143.5706794  81.8731635 122.6245589 144.8541708
  77.0900255 113.1171609 152.0427838  76.8461186 113.8713669 151.5062114
  77.3660185 113.4956956 152.8775086  79.0438717 119.6610221 150.7205104
  79.2555613 120.3041981 150.0439485  78.9968466 118.8272538 150.2527034
  76.6464946 112.2728042 147.6241676  75.7849425 112.5709295 147.9158414
  76.6727381 112.4898441 146.6922709  73.4626516 120.8170232 144.0315482
  73.9264861 121.0957935 143.2420104  73.1983314 119.9153677 143.8488573
  70.3550597 120.3641714 146.9695245  70.9251954 120.7928982 146.3312730
  70.9458709 120.0824299 147.6679431  72.3995402 116.9393385 140.8405047
  73.1019445 117.3914428 141.3078973  72.0676030 116.2977204 141.4684940
  70.8475763 115.5305141 155.2156256  70.2174424 116.2121422 155.4491653
  70.7411851 115.4188223 154.2709395  66.1420736 115.1976937 146.1422181
  65.3519790 115.4534466 145.6662291  66.6331983 116.0125275 146.2474221
  80.1584545 122.5382176 148.8927461  80.9801989 122.1362364 148.6110143
  80.1546948 122.4350411 149.8443577  68.0935481 115.5621517 143.1005657
  67.2966644 115.6740211 143.6189153  67.8661073 115.9008169 142.2346548
  73.9241149 122.0866220 151.0488172  73.9885581 122.5486627 151.8846344
  73.2152073 121.4563585 151.1770482  64.4258439 115.4507428 148.5737171
  64.6766477 116.3354438 148.8394747  64.9617987 115.2712029 147.8012263
  88.2490538 118.8820925 145.2412433  87.4954247 118.3128323 145.0856437
  88.3838080 118.8483589 146.1883068  73.6389166 123.7534327 140.9167152
  73.5034841 124.5985863 141.3452000  74.1798979 123.9553605 140.1533086
  70.1256506 109.8325907 157.5781507  69.7323452 109.2792106 158.2529152
  70.9422646 110.1436486 157.9688025  67.0918564 121.2709765 141.4895077
  67.6043084 122.0653016 141.6400642  67.7441277 120.5736056 141.4228679
  68.9013448 124.3875522 143.5717831  69.0780077 125.3093486 143.3838814
  69.6970282 124.0733941 144.0012210  73.0424467 111.2483786 155.1701764
  73.7834180 111.8490939 155.0906226  73.2742390 110.5061424 154.6119807
  68.1865805 116.4340153 153.4479994  68.0719320 115.5325411 153.7487093
  67.3310323 116.6803850 153.0964810  70.0244764 125.9053695 149.5728173
  70.5752189 125.7770759 148.8005167  69.1856240 126.2048584 149.2223066
  73.8211935 122.1704823 153.9172404  74.3540272 121.4093111 153.6871712
  73.2926016 121.8778475 154.6596558  76.9881630 107.2764889 149.4466046
  76.6445899 108.1666531 149.3705156  77.3560593 107.0866547 148.5835631
  65.0567481 119.5998420 142.2654648  65.8942703 120.0095428 142.0488356
  65.2345748 118.6597862 142.2354842  76.9531913 117.2673500 137.9538481
  76.4378536 118.0378105 138.1926868  76.6809221 116.5938636 138.5771542
  74.5379024 112.1123201 143.0123719  73.6820620 111.7230051 142.8329358
  74.9505975 112.1915162 142.1523505  76.0678170 109.6469544 147.4115279
  75.5642966 109.6099679 146.5983084  76.3608777 110.5562287 147.4711936
  72.3121056 109.7308274 146.4181461  73.1774053 109.5351083 146.0587350
  72.3798565 109.5018626 147.3450817  81.9266187 120.0205855 139.8891654
  81.1495630 119.6817014 139.4446816  82.6057668 120.0258478 139.2146619
  76.7418216 115.1400592 139.7798262  76.4368351 115.4546742 140.6308405
  77.6948658 115.2182012 139.8225595  75.1864648 121.2990816 141.4291216
  74.6586009 120.5643575 141.1164453  74.6852150 122.0765492 141.1831184
  80.1657494 119.4939836 146.5458262  79.5081168 120.1839098 146.6338391
  80.9697893 119.8836268 146.8892249  69.9183375 111.9610482 143.7897827
  70.4927127 111.7385663 143.0571020  70.5054358 112.0299176 144.5426429
  78.9762952 117.8484209 144.5962204  79.4894834 118.4814201 145.0983914
  79.6264176 117.2485404 144.2305564  70.2452962 113.9914943 137.8093713
  69.4090275 114.3289630 138.1302987  70.1057732 113.8563923 136.8720850
  72.2206043 108.8351731 142.5172897  71.5670455 108.5200748 141.8929512
  72.1786517 108.2127471 143.2432720  73.3317248 119.1171026 134.4326189
  72.4244310 118.8860279 134.6317338  73.8288280 118.3208645 134.6200171
  76.2385327 127.8268533 137.3522875  75.5647025 128.1300230 137.9607833
  76.6251149 128.6297613 137.0028332  75.4543783 115.3233664 146.8420545
  74.5366345 115.5448611 146.6842233  75.8703927 115.3979975 145.9832252
  76.2378831 116.7225080 141.9723225  76.9850650 117.2346477 141.6630347
  76.5070421 116.4009133 142.8327618  74.5105481 119.2183621 138.9550179
  73.6016701 118.9342654 139.0522649  74.5400565 119.6382699 138.0953486
  79.7424749 122.8290210 142.7241347  79.2887076 121.9881120 142.7806537
  79.1118715 123.4651609 143.0616127  78.6857668 113.7582196 143.9542014
  77.9480425 113.2459583 144.2852257  78.9384442 113.3182578 143.1425291
  78.1857688 124.6666707 143.6591165  78.4780662 125.2271764 142.9403530
  78.6956309 124.9595268 144.4144324  78.7869296 106.5358448 144.5483783
  79.0928172 105.6755812 144.2609698  79.5121900 107.1276069 144.3482777
  65.0793652 116.9389135 142.9365381  64.8818051 116.3458496 142.2116448
  64.5240316 116.6341345 143.6541320  73.0590375 116.8312241 145.0559974
  73.1138985 115.8786078 144.9802451  72.2481577 116.9871680 145.5401273
  74.2081569 120.7592364 136.2938258  73.7700999 120.0428223 135.8343895
  74.9492010 120.9868479 135.7323349  70.9982735 115.4489301 142.8150353
  70.1850601 115.7483472 143.2215545  71.4941729 115.0544990 143.5324836
  73.1491313 125.4447058 144.7484618  73.1067492 125.6707904 143.8193150
  74.0654012 125.2110433 144.8970419  76.5956947 115.9131126 151.6465247
  76.9506335 116.1402599 152.5059713  77.2429078 116.2449502 151.0242503
  82.3254684 119.0349562 142.3514576  82.1872582 119.2251157 141.4235765
  81.9690903 119.7968944 142.8082627  70.4896810 113.0207657 148.4311588
  71.1296189 112.8796416 147.7334552  69.6574341 112.7342170 148.0550190
  82.3524063 121.1026089 147.3625848  82.7860570 121.0101378 148.2108902
  83.0655644 121.0783589 146.7245864  71.2657114 122.3210087 144.5446581
  72.0597712 121.8260407 144.3429156  70.5548806 121.7927950 144.1814286
  76.0851958 124.7028183 148.8958948  76.1388981 125.2719119 149.6636664
  75.2166740 124.8730068 148.5312985  67.5739877 116.4653169 140.6206333
  66.6437465 116.4037624 140.8376296  67.6697349 115.9429122 139.8242975
  67.4925426 112.9907982 143.2084575  67.7532244 113.9053315 143.0993736
  68.3142599 112.5232424 143.3581188  68.9650352 114.4045739 150.3783400
  69.6373405 114.1963101 149.7296049  68.1380138 114.2067825 149.9388632
  83.2139613 121.1449789 149.8958733  83.4075503 122.0495600 150.1418008
  83.1140231 120.6857208 150.7297318  74.8675924 111.0307680 152.3949060
  74.2203839 111.7297629 152.3013537  75.6376939 111.4643824 152.7625309
  75.0440058 118.8688445 150.4545880  75.9732118 119.0199604 150.2814848
  74.6231088 118.9572465 149.5994527  73.8428390 122.8939109 148.2244418
  73.7039476 122.5257893 149.0970356  73.0542986 123.4086749 148.0528376
  74.4376542 127.9948206 139.5669954  74.6128298 127.5236249 140.3815577
  73.7509330 128.6213972 139.7951215  75.3933605 122.2720712 145.6133256
  75.0583438 122.2321482 146.5090905  74.8937551 121.6065428 145.1403666
  69.3677849 117.6788342 151.1385837  69.2297647 116.9468581 151.7397376
  70.2782772 117.5897242 150.8570025  78.3292797 119.6176746 135.8870315
  77.7121967 118.8923574 135.7903368  77.8609285 120.3786106 135.5437390
  71.9960150 117.3908301 150.6269516  72.7059768 116.7501493 150.5856135
  71.9529458 117.6421196 151.5495697  70.7089084 114.3773519 152.4465156
  70.1726441 113.9264257 153.0986752  70.1205792 114.5119428 151.7035620
  69.0037627 131.1437568 146.3409815  69.2434225 131.7756092 147.0188833
  68.1606824 130.7925608 146.6275174  70.1191343 113.8362170 135.0091620
  69.2420809 113.7150971 134.6453866  70.5949096 113.0448249 134.7570508
  79.9864336 122.2915238 151.7790075  79.0991114 121.9541160 151.9016474
  80.5562887 121.5598270 152.0158841  61.6393483 118.6239330 145.1033127
  62.3264523 118.3101060 144.5154142  61.4841611 119.5280695 144.8300378
  66.4428205 113.5129527 149.5318150  66.3586394 112.9055196 148.7968560
  65.6210911 114.0038545 149.5327647  73.5165489 126.9516691 148.7451319
  73.4435661 127.7571662 149.2570623  73.0742882 127.1508657 147.9199340
  73.3055269 126.1888461 142.2554140  72.5222791 126.7310141 142.3492365
  74.0048014 126.7062440 142.6548381  76.6151919 111.9983090 144.8988345
  77.1120618 111.2453053 144.5789416  75.8438900 112.0347407 144.3331555
  84.4681676 117.7023456 146.5406637  84.4571552 118.5848171 146.1700570
  83.5999056 117.3495007 146.3461174  77.6981699 120.7554777 142.4726769
  76.7637978 120.8756240 142.3031473  77.8758368 119.8527244 142.2086779
  73.1986888 114.1400473 144.6260030  72.8284675 113.5871514 145.3140936
  73.6945980 113.5358607 144.0735030  81.0854251 116.5972097 143.0076803
  81.5514703 117.4300088 142.9337106  81.5361751 116.1317078 143.7122061
  71.0276086 124.5997968 151.7215048  71.7285546 125.2334451 151.8744442
  70.5571201 124.9412700 150.9610687  79.1530482 122.9415918 140.0062955
  79.4290326 122.8272513 140.9156829  78.2834981 122.5433403 139.9675128
  79.0570914 108.9652684 147.0467704  78.1433993 109.1956911 147.2149911
  79.4864015 109.0491128 147.8981737  78.8277372 117.1542576 149.5467598
  78.1748822 117.4018483 148.8920051  79.2057752 116.3406714 149.2130076
  75.7884546 127.1902269 143.6495769  75.9706940 126.3723925 144.1123521
  76.6117532 127.4069961 143.2120659  76.1226711 126.1170454 140.9110817
  76.6514478 125.6062909 140.2980979  76.3854931 125.8012984 141.7756350
  74.8764945 117.8962387 156.0333635  74.2005582 117.7956516 156.7036011
  75.6992579 117.7401600 156.4969633  66.6243804 124.1334323 148.6546151
  67.2097241 123.3878011 148.7874055  66.4268643 124.4438280 149.5382815
  69.4782459 127.1685571 143.6708593  68.8092835 127.6531698 143.1872633
  69.3395329 127.4154791 144.5851972  61.2161459 116.7039924 147.3750594
  61.2545558 116.1703514 148.1687712  60.7101752 116.1775129 146.7561571
  68.5952221 111.5504464 150.8713136  68.6593548 112.4119295 150.4590534
  68.5319341 110.9378466 150.1385495  68.0704494 113.6227597 154.5186170
  68.6976533 113.2404674 155.1323695  67.2132413 113.4041798 154.8841863
  64.8470036 115.4304026 140.4504525  65.1423478 114.5214704 140.3971579
  63.9458072 115.4091765 140.1285528  76.7556115 127.1511290 147.2554934
  76.6307255 126.3501030 146.7465879  77.4135206 127.6457483 146.7668904
  68.3764283 113.5060022 146.4332074  67.6550869 114.1195990 146.2939547
  69.1657539 114.0417787 146.3548720  78.8191024 124.9520310 148.8834484
  77.8721359 124.8325661 148.8112810  79.1673797 124.0642808 148.9660745
  71.1790597 110.8414449 152.7072726  71.7024999 111.0876745 153.4699035
  70.9602930 111.6734484 152.2875863  66.5757878 113.1118123 140.5743850
  66.2470584 112.2315502 140.3918956  66.9297249 113.0565792 141.4620240
  75.8237457 124.7473026 145.0838836  75.6762419 123.8189733 145.2646406
  76.6490950 124.7693117 144.5995911  69.6899701 113.3991093 140.9419328
  70.0295774 113.9277014 140.2197936  70.1371822 113.7371499 141.7177895
  79.4271579 125.5701585 146.1703709  80.3518126 125.3644446 146.0328160
  79.2586882 125.3217986 147.0793050  72.3843142 111.7828144 150.3922396
  72.0439962 110.9835957 150.7943076  71.6782148 112.0829855 149.8199229
  73.0359614 108.8677456 148.8449719  73.8585683 108.3937934 148.7228609
  73.2797677 109.6467940 149.3448405  71.6767848 111.8965715 139.1412621
  72.3976211 112.2746967 138.6376338  71.0533152 112.6154592 139.2447599
  75.8198971 112.6010864 140.0770953  76.0362586 113.4835502 139.7759781
  75.3393038 112.2097077 139.3476595  70.5598193 115.5596577 146.6541698
  70.4142773 115.8736880 147.5465979  70.0823396 116.1781477 146.1012596
  72.4194575 112.5499125 146.7022587  72.4056144 111.6540218 146.3654885
  73.1367004 112.5569789 147.3360873  74.2720706 112.9836465 148.7475715
  74.0138484 113.9053536 148.7460045  73.7405747 112.5866900 149.4376179
  79.2166895 126.0887252 141.5265800  79.3903772 125.5233675 140.7739653
  79.7095786 126.8888147 141.3445290  65.0343855 118.1001921 149.5929359
  64.4897323 118.8761729 149.7249633  65.9123205 118.4472726 149.4348480
  71.8231471 111.4313505 141.9710157  71.9447383 110.5030151 142.1701045
  71.5333514 111.4452191 141.0588473  74.6922662 109.1168416 145.1076877
  74.7144359 109.1807749 144.1528857  75.1090721 108.2772924 145.3017383
  85.0706286 118.8523675 143.1456100  85.5137432 118.1031000 142.7475223
  84.1932796 118.8433812 142.7629832  80.2042067 125.4054017 138.6262698
  80.8992972 126.0260709 138.8450013  80.5465218 124.5549368 138.9015076
  65.8209877 117.2271818 152.4859516  65.0791613 117.3754453 153.0724146
  65.5002621 117.4880083 151.6226265  82.1033491 122.8553722 140.1550029
  82.6284815 123.1940995 139.4299349  82.0155843 121.9200737 139.9713164
  73.7874151 128.9225705 144.5145282  73.3479142 128.4302084 145.2078139
  74.5382268 128.3798673 144.2737358  66.2666490 125.1137246 144.5169910
  67.0924510 124.8141018 144.1368554  65.9160542 124.3444869 144.9659699
  71.2348023 124.4663715 146.5867584  70.6128033 123.8034420 146.2869812
  71.9052890 124.4924846 145.9041232  64.4675095 123.0323573 145.4758844
  63.6307004 122.6045747 145.2942845  64.4398741 123.2256016 146.4129635
  71.3072551 112.9445503 156.1800090  71.3560706 113.8207625 155.7977860
  71.8495065 112.4022896 155.6071733  70.7961530 123.0167638 140.0626045
  70.9449651 123.7003102 139.4092717  71.6027974 122.9972728 140.5775500
  79.2029034 116.3210020 154.0893262  80.1038897 116.1816485 153.7977260
  79.2777009 116.4864475 155.0291440  73.5371839 113.6976875 152.9346449
  72.6675149 113.9910441 152.6629037  73.7731320 114.2817320 153.6553712
  84.6139151 120.3228913 145.5378547  85.4486042 120.7618718 145.7016108
  84.7498280 119.8467567 144.7186793  81.6630657 117.8808648 151.4856035
  82.1384778 118.0736295 150.6774887  80.7396222 117.9367834 151.2399419
  68.5514163 119.0432815 141.0687113  68.3060205 118.1395145 141.2667324
  68.7210078 119.0449966 140.1266591  76.2410873 109.9156492 150.4511869
  76.7592817 110.6517519 150.1258358  75.8866006 110.2220485 151.2858628
  67.8209811 114.7761173 138.5673275  67.1279056 114.8505528 137.9113311
  67.5761563 114.0121517 139.0894792  76.4923467 106.3356774 145.9712766
  76.7725221 105.6679963 146.5973192  77.2774074 106.5285870 145.4587429
  74.2956936 125.5115768 137.5337792  73.7230903 126.1305955 137.0808264
  74.8689730 126.0615130 138.0677714  80.3632326 114.7574408 149.7184341
  81.3149749 114.8572506 149.7396565  80.1935776 113.9652677 150.2282425
  78.3846705 111.8429992 149.9043742  77.7896637 112.1235004 149.2090230
  78.0996402 112.3323893 150.6760483  77.5154196 125.7952918 138.6646374
  78.4484869 125.7298480 138.8679250  77.4277409 126.6309185 138.2060907
  80.1442212 125.1118789 135.6250322  80.0655844 124.7778652 136.5186080
  80.9651879 125.6040557 135.6241794  82.8420404 117.9780528 148.8326640
  82.8096724 117.0396529 149.0186324  83.4521027 118.0564565 148.0992465
  74.6803734 116.8476581 134.8753844  75.6262839 116.7182789 134.9442262
  74.3017979 116.1091243 135.3523273  82.9914892 114.7691572 148.8784924
  82.4753941 113.9850028 148.6914852  83.8754841 114.4410288 149.0431443
  80.6525619 108.5132587 144.8380736  80.4550440 108.2047675 145.7224068
  81.2625325 109.2394226 144.9678666  88.6596953 119.0396535 147.9732677
  89.3900342 118.7781823 148.5340381  88.0503899 118.3025257 148.0134745
  86.7412251 117.1804398 148.5707128  86.0145414 117.0460362 147.9623620
  86.3259537 117.4881226 149.3763846  72.8646652 114.7726557 134.8108730
  71.9578107 114.4759670 134.8871443  73.1422633 114.4756376 133.9443016
  63.7824592 116.0932921 145.2607776  63.4627376 115.2398229 144.9682150
  63.2358020 116.3081499 146.0165743  67.5604499 118.8095362 148.9777283
  67.7790509 119.7412470 148.9965316  67.9730273 118.4503336 149.7632086
  74.4808717 109.3163447 140.9652971  73.6709446 108.9710532 141.3408217
  75.1693134 109.0070991 141.5540583  76.4099266 108.3941494 142.5877268
  76.9630304 108.8136947 143.2467291  76.6469352 107.4677242 142.6300224
  72.4332365 114.3828568 158.3680032  72.3329092 115.3322925 158.2992123
  72.2153907 114.0546807 157.4956102  71.6345436 111.6313493 134.9520709
  72.4964600 111.9568391 135.2116526  71.8195780 110.8444989 134.4393775
  63.6512852 119.7135832 147.2300898  62.9576323 119.2989785 146.7170852
  64.3985843 119.7556369 146.6334317  79.7878073 110.5042019 142.0955932
  79.2076742 111.1626823 141.7133984  79.5214005 109.6819364 141.6843349
  78.2381639 109.9047077 144.2977252  78.7381417 110.0163611 143.4891571
  78.8817247 109.6008130 144.9378061  72.2963635 117.8125706 157.1845093
  71.8130717 118.6126067 157.3908982  72.3824574 117.8233651 156.2312537
  65.5649594 119.6454086 145.1066913  65.5420283 119.7441773 144.1548796
  65.8750231 120.4919237 145.4284079  68.2236972 121.7030241 149.2213527
  69.1780226 121.6714183 149.1543459  68.0249496 121.2420865 150.0363753
  68.8136354 120.2731357 151.7884325  69.6329243 120.7675436 151.8119162
  69.0873162 119.3563325 151.7601892  78.5702951 112.6642110 141.1512280
  77.6828806 112.9491760 140.9332475  78.9856940 112.5035873 140.3039557
  81.9217487 112.6888630 144.8666619  82.6977877 113.1785083 145.1391236
  81.1965621 113.1146685 145.3238489  84.3590045 113.4016250 145.9240560
  84.9534536 113.1611986 145.2133868  84.4316629 112.6823380 146.5514096
  66.5787201 127.2449861 146.2383725  66.4441669 126.4850262 145.6721723
  66.1619263 127.9690761 145.7712514  77.7146164 122.4286784 135.2460300
  78.4182014 122.6336787 135.8617956  76.9908813 122.9963546 135.5109384
  78.5443974 118.1796645 141.3662570  78.4879176 118.6365197 140.5270203
  79.0972317 117.4187330 141.1885413  82.3548780 113.9686377 142.1912690
  82.0985715 113.5683013 143.0220897  81.7301648 114.6830171 142.0662829
  86.6661118 116.7082451 144.6983981  86.1060676 116.7775640 145.4715543
  86.0604622 116.5323435 143.9783477  69.7356327 128.1419178 146.4502167
  69.6188711 129.0864610 146.3480858  68.9148773 127.8392739 146.8387967
  79.6232862 122.8669313 137.2958760  80.4578465 122.4350512 137.1136235
  79.4617204 122.6951327 138.2235655  79.2778754 119.3701427 138.6615099
  79.2227558 119.2045698 137.7203544  78.6524809 120.0777460 138.8177289
  64.0671269 114.6069491 152.4876522  64.7130132 114.0968445 152.9763747
  63.8588420 115.3438173 153.0619947  72.5874879 108.8709536 138.2400418
  72.5753549 109.8151376 138.3968689  73.4798301 108.6879681 137.9459879
  70.7610841 128.7947440 149.6658096  71.6638088 128.8271050 149.9824591
  70.5348211 127.8647891 149.6804432  72.5164443 127.5478426 146.3268175
  71.5660074 127.5480288 146.2132547  72.8196929 126.8011161 145.8104209
  76.4026999 105.4652312 142.4946355  75.6359394 104.9110799 142.6403037
  76.8137704 105.5374181 143.3560506  68.4068760 111.7537108 156.5851536
  69.2700221 111.3973913 156.7954861  67.8334170 111.4151003 157.2726940
  80.9193659 135.1901869 143.3172353  80.3558524 135.0991806 142.5488640
  80.8046054 134.3701773 143.7974845  86.4993217 138.8572837 138.6286817
  85.8481197 139.4426917 138.2420831  87.2937580 139.3879032 138.6881855
  80.4248844 135.9461974 139.0273952  81.1979720 135.3990961 138.8886828
  80.7774243 136.8106223 139.2388413  82.7615122 132.1054640 136.6592402
  83.0140643 131.5836161 135.8975865  81.8239681 131.9420785 136.7619085
  87.9768482 136.5463269 139.1655802  87.3414315 136.6197895 139.8776706
  87.6465889 137.1356867 138.4874881  82.4811411 134.0082746 138.8616777
  82.3647669 133.3327649 139.5297861  82.5913671 133.5215120 138.0448930
  84.8242952 133.4692893 142.5663466  84.4601159 132.9423514 143.2776387
  85.6810068 133.0791362 142.3929951  84.4648439 128.4982793 137.5624814
  84.6322841 129.3663029 137.9295286  84.2745608 128.6610074 136.6386104
  84.4437660 130.9540450 138.5471481  84.3237285 131.3997501 139.3856962
  83.7490248 131.3025768 137.9885019  90.1422726 131.4261923 139.3751815
  91.0540582 131.6589310 139.1999513  89.6332373 132.0098968 138.8126894
  83.2389156 132.2685302 140.8405047  83.9413200 132.7206346 141.3078973
  82.9069785 131.6269121 141.4684940  76.9814490 130.5268855 146.1422181
  76.1913544 130.7826384 145.6662291  77.4725738 131.3417193 146.2474221
  78.9329236 130.8913434 143.1005657  78.1360399 131.0032128 143.6189153
  78.7054828 131.2300086 142.2346548  77.9312318 136.6001683 141.4895077
  78.4436839 137.3944933 141.6400642  78.5835031 135.9027973 141.4228679
  75.8961235 134.9290337 142.2654648  76.7336457 135.3387346 142.0488356
  76.0739503 133.9889779 142.2354842  87.7925667 132.5965418 137.9538481
  87.2772291 133.3670023 138.1926868  87.5202976 131.9230554 138.5771542
  85.3772778 127.4415119 143.0123719  84.5214375 127.0521969 142.8329358
  85.7899730 127.5207080 142.1523505  83.1514811 125.0600192 146.4181461
  84.0167807 124.8643000 146.0587350  83.2192320 124.8310543 147.3450817
  87.5811970 130.4692510 139.7798262  87.2762106 130.7838659 140.6308405
  88.5342412 130.5473930 139.8225595  86.0258402 136.6282733 141.4291216
  85.4979764 135.8935493 141.1164453  85.5245905 137.4057410 141.1831184
  80.7577130 127.2902400 143.7897827  81.3320882 127.0677581 143.0571020
  81.3448112 127.3591094 144.5426429  81.0846717 129.3206861 137.8093713
  80.2484029 129.6581547 138.1302987  80.9451487 129.1855840 136.8720850
  83.0599797 124.1643649 142.5172897  82.4064210 123.8492666 141.8929512
  83.0180272 123.5419389 143.2432720  84.1711002 134.4462944 134.4326189
  83.2638064 134.2152197 134.6317338  84.6682034 133.6500563 134.6200171
  87.0772586 132.0516998 141.9723225  87.8244405 132.5638395 141.6630347
  87.3464175 131.7301050 142.8327618  85.3499236 134.5475538 138.9550179
  84.4410455 134.2634571 139.0522649  85.3794320 134.9674617 138.0953486
  89.5251423 129.0874114 143.9542014  88.7874180 128.5751500 144.2852257
  89.7778196 128.6474496 143.1425291  89.6263050 121.8650366 144.5483783
  89.9321927 121.0047729 144.2609698  90.3515655 122.4567986 144.3482777
  75.9187406 132.2681053 142.9365381  75.7211806 131.6750413 142.2116448
  75.3634070 131.9633263 143.6541320  85.0475324 136.0884282 136.2938258
  84.6094754 135.3720141 135.8343895  85.7885764 136.3160397 135.7323349
  81.8376490 130.7781219 142.8150353  81.0244355 131.0775389 143.2215545
  82.3335484 130.3836908 143.5324836  78.4133632 131.7945087 140.6206333
  77.4831220 131.7329542 140.8376296  78.5091104 131.2721039 139.8242975
  78.3319181 128.3199899 143.2084575  78.5925998 129.2345233 143.0993736
  79.1536353 127.8524342 143.3581188  89.1686551 134.9468664 135.8870315
  88.5515722 134.2215492 135.7903368  88.7003040 135.7078024 135.5437390
  80.9585097 129.1654088 135.0091620  80.0814563 129.0442889 134.6453866
  81.4342850 128.3740166 134.7570508  72.4787237 133.9531248 145.1033127
  73.1658277 133.6392978 144.5154142  72.3235366 134.8572612 144.8300378
  77.2821959 128.8421444 149.5318150  77.1980148 128.2347114 148.7968560
  76.4604666 129.3330463 149.5327647  87.4545673 127.3275008 144.8988345
  87.9514373 126.5744970 144.5789416  86.6832655 127.3639325 144.3331555
  84.0380642 129.4692391 144.6260030  83.6678430 128.9163431 145.3140936
  84.5339734 128.8650524 144.0735030  72.0555213 132.0331841 147.3750594
  72.0939313 131.4995432 148.1687712  71.5495506 131.5067047 146.7561571
  75.6863791 130.7595943 140.4504525  75.9817232 129.8506622 140.3971579
  74.7851827 130.7383683 140.1285528  79.2158038 128.8351940 146.4332074
  78.4944624 129.4487908 146.2939547  80.0051294 129.3709705 146.3548720
  77.4151633 128.4410041 140.5743850  77.0864339 127.5607420 140.3918956
  77.7691003 128.3857710 141.4620240  80.5293456 128.7283011 140.9419328
  80.8689528 129.2568932 140.2197936  80.9765576 129.0663417 141.7177895
  82.5161603 127.2257632 139.1412621  83.2369965 127.6038885 138.6376338
  81.8926907 127.9446509 139.2447599  86.6592726 127.9302781 140.0770953
  86.8756340 128.8127419 139.7759781  86.1786793 127.5388995 139.3476595
  83.2588330 127.8791043 146.7022587  83.2449899 126.9832136 146.3654885
  83.9760758 127.8861706 147.3360873  82.6625226 126.7605423 141.9710157
  82.7841137 125.8322069 142.1701045  82.3727268 126.7744109 141.0588473
  85.5316416 124.4460333 145.1076877  85.5538113 124.5099666 144.1528857
  85.9484475 123.6064842 145.3017383  81.6355285 138.3459556 140.0626045
  81.7843405 139.0295020 139.4092717  82.4421728 138.3264646 140.5775500
  79.3907918 134.3724733 141.0687113  79.1453960 133.4687063 141.2667324
  79.5603832 134.3741884 140.1266591  78.6603565 130.1053091 138.5673275
  77.9672810 130.1797446 137.9113311  78.4155317 129.3413434 139.0894792
  87.3317222 121.6648692 145.9712766  87.6118976 120.9971881 146.5973192
  88.1167829 121.8577788 145.4587429  85.1350690 140.8407686 137.5337792
  84.5624657 141.4597873 137.0808264  85.7083484 141.3907048 138.0677714
  90.9835967 140.4410706 135.6250322  90.9049598 140.1070570 136.5186080
  91.8045634 140.9332474 135.6241794  85.5197489 132.1768499 134.8753844
  86.4656594 132.0474707 134.9442262  85.1411734 131.4383161 135.3523273
  91.4919373 123.8424505 144.8380736  91.2944195 123.5339593 145.7224068
  92.1019079 124.5686144 144.9678666  83.7040406 130.1018475 134.8108730
  82.7971861 129.8051588 134.8871443  83.9816387 129.8048293 133.9443016
  74.6218346 131.4224839 145.2607776  74.3021131 130.5690147 144.9682150
  74.0751775 131.6373417 146.0165743  85.3202472 124.6455365 140.9652971
  84.5103200 124.3002450 141.3408217  86.0086889 124.3362909 141.5540583
  87.2493020 123.7233412 142.5877268  87.8024059 124.1428865 143.2467291
  87.4863106 122.7969160 142.6300224  82.4739191 126.9605410 134.9520709
  83.3358355 127.2860309 135.2116526  82.6589535 126.1736906 134.4393775
  90.6271827 125.8333937 142.0955932  90.0470496 126.4918741 141.7133984
  90.3607760 125.0111281 141.6843349  89.0775394 125.2338995 144.2977252
  89.5775172 125.3455529 143.4891571  89.7211001 124.9300047 144.9378061
  76.4043349 134.9746004 145.1066913  76.3814037 135.0733691 144.1548796
  76.7143985 135.8211155 145.4284079  89.4096705 127.9934027 141.1512280
  88.5222560 128.2783678 140.9332475  89.8250694 127.8327791 140.3039557
  88.5539919 137.7578702 135.2460300  89.2575769 137.9628704 135.8617956
  87.8302567 138.3255464 135.5109384  89.3837729 133.5088563 141.3662570
  89.3272930 133.9657115 140.5270203  89.9366071 132.7479248 141.1885413
  93.1942535 129.2978295 142.1912690  92.9379469 128.8974931 143.0220897
  92.5695403 130.0122089 142.0662829  90.4626616 138.1961231 137.2958760
  91.2972220 137.7642430 137.1136235  90.3010959 138.0243245 138.2235655
  90.1172508 134.6993344 138.6615099  90.0621312 134.5337616 137.7203544
  89.4918563 135.4069377 138.8177289  83.4268634 124.2001453 138.2400418
  83.4147304 125.1443293 138.3968689  84.3192056 124.0171599 137.9459879
  87.2420753 120.7944230 142.4946355  86.4753149 120.2402717 142.6403037
  87.6531458 120.8666099 143.3560506  32.3024446  39.2175371 125.3532124
  31.6512426  39.8029451 124.9666138  33.0968809  39.7481566 125.4127162
  26.2280073  36.3064508 125.7519258  27.0010949  35.7593495 125.6132134
  26.5805472  37.1708757 125.9633720  28.5646351  32.4657174 123.3837708
  28.8171872  31.9438695 122.6221171  27.6270910  32.3023320 123.4864392
  33.7799711  36.9065803 125.8901108  33.1445544  36.9800429 126.6022013
  33.4497118  37.4959402 125.2120188  28.2842640  34.3685280 125.5862083
  28.1678898  33.6930184 126.2543168  28.3944900  33.8817654 124.7694236
  30.2679668  28.8585327 124.2870121  30.4354070  29.7265563 124.6540592
  30.0776837  29.0212609 123.3631410  30.2468889  31.3142984 125.2716788
  30.1268514  31.7600035 126.1102268  29.5521477  31.6628302 124.7130326
  28.0075781  44.0846626 128.9206919  27.9299810  45.0354451 128.9995400
  27.4037424  43.7392499 129.5781845  35.9453955  31.7864458 126.0997122
  36.8571811  32.0191844 125.9244820  35.4363602  32.3701502 125.5372201
  38.4312769  37.7044714 130.8455067  37.7463807  38.0843615 130.2952100
  38.5156618  38.3140041 131.5787015  30.1051499  36.5064684 130.7560789
  30.5689845  36.7852387 129.9665411  29.8408297  35.6048129 130.5733879
  29.0420385  32.6287837 127.5650354  29.7444428  33.0808880 128.0324280
  28.7101014  31.9871655 128.1930247  44.8915522  34.5715377 131.9657740
  44.1379230  34.0022775 131.8101744  45.0263063  34.5378041 132.9128374
  30.2814150  39.4428779 127.6412459  30.1459824  40.2880315 128.0697307
  30.8223962  39.6448057 126.8778393  23.7343547  36.9604217 128.2140384
  24.2468068  37.7547467 128.3645949  24.3866260  36.2630508 128.1473985
  25.5438432  40.0769973 130.2963137  25.7205060  40.9987938 130.1084121
  26.3395265  39.7628393 130.7257517  33.5956896  32.9567952 124.6783787
  33.0803519  33.7272557 124.9172175  33.3234204  32.2833088 125.3016849
  38.5691170  35.7100307 126.6136961  37.7920613  35.3711466 126.1692123
  39.2482651  35.7152930 125.9391926  33.3843199  30.8295044 126.5043569
  33.0793335  31.1441193 127.3553712  34.3373641  30.9076464 126.5470902
  31.8289631  36.9885268 128.1536523  31.3010993  36.2538027 127.8409760
  31.3277134  37.7659944 127.9076491  36.8082477  35.1834288 133.2703569
  36.1506151  35.8733549 133.3583698  37.6122876  35.5730720 133.6137555
  35.6187936  33.5378661 131.3207511  36.1319818  34.1708653 131.8229220
  36.2689160  32.9379856 130.9550871  26.8877946  29.6809395 124.5339019
  26.0515258  30.0184081 124.8548294  26.7482715  29.5458375 123.5966156
  29.9742231  34.8065478 121.1571496  29.0669293  34.5754731 121.3562645
  30.4713263  34.0103097 121.3445477  32.8810310  43.5162985 124.0768182
  32.2072009  43.8194682 124.6853140  33.2676132  44.3192065 123.7273639
  32.8803814  32.4119532 128.6968531  33.6275633  32.9240929 128.3875653
  33.1495404  32.0903585 129.5572925  31.1530465  34.9078073 125.6795486
  30.2441684  34.6237106 125.7767955  31.1825548  35.3277151 124.8198793
  36.3849732  38.5184662 129.4486653  35.9312059  37.6775572 129.5051844
  35.7543699  39.1546061 129.7861433  34.8282671  40.3561159 130.3836471
  35.1205646  40.9166216 129.6648837  35.3381292  40.6489720 131.1389631
  30.8506552  36.4486816 123.0183564  30.4125982  35.7322675 122.5589202
  31.5916993  36.6762931 122.4568656  29.7916296  41.1341510 131.4729925
  29.7492475  41.3602356 130.5438457  30.7078995  40.9004885 131.6215726
  38.9679667  34.7244013 129.0759883  38.8297566  34.9145609 128.1481072
  38.6115886  35.4863396 129.5327934  38.9949047  36.7920540 134.0871154
  39.4285553  36.6995830 134.9354208  39.7080627  36.7678041 133.4491170
  31.0801525  43.6842657 126.2915261  31.2553281  43.2130701 127.1060884
  30.3934313  44.3108424 126.5196522  34.9717780  35.3071198 122.6115622
  34.3546951  34.5818026 122.5148675  34.5034268  36.0680558 122.2682696
  25.6462610  46.8332020 133.0655121  25.8859209  47.4650544 133.7434140
  24.8031807  46.4820060 133.3520480  26.7616326  29.5256622 121.7336926
  25.8845792  29.4045423 121.3699173  27.2374079  28.7342701 121.4815815
  29.9480252  41.8782913 128.9799447  29.1647774  42.4204593 129.0737671
  30.6472997  42.3956892 129.3793688  41.1106659  33.3917908 133.2651944
  41.0996536  34.2742623 132.8945877  40.2424039  33.0389458 133.0706481
  34.3406683  36.4449229 129.1972075  33.4062961  36.5650692 129.0276780
  34.5183351  35.5421696 128.9332085  37.7279234  32.2866549 129.7322110
  38.1939686  33.1194540 129.6582412  38.1786735  31.8211530 130.4367368
  35.7955465  38.6310370 126.7308262  36.0715309  38.5166965 127.6402136
  34.9259964  38.2327855 126.6920435  32.4309529  42.8796721 130.3741075
  32.6131924  42.0618377 130.8368828  33.2542515  43.0964413 129.9365965
  32.7651695  41.8064906 127.6356124  33.2939461  41.2957360 127.0226286
  33.0279914  41.4907436 128.5001657  26.1207443  42.8580023 130.3953900
  25.4517818  43.3426150 129.9117940  25.9820312  43.1049243 131.3097278
  33.3981099  42.8405742 133.9800240  33.2732238  42.0395481 133.4711186
  34.0560190  43.3351935 133.4914210  35.4616007  40.6414762 135.6079790
  34.5146342  40.5220113 135.5358117  35.8098780  39.7537260 135.6906052
  32.4662440  40.4367478 131.8084143  32.3187403  39.5084185 131.9891713
  33.2915934  40.4587569 131.3241218  36.0696562  41.2596037 132.8949015
  36.9943110  41.0538898 132.7573466  35.9011865  41.0112438 133.8038357
  32.4623955  28.2905316 126.8016260  32.6787569  29.1729953 126.5005088
  31.9818022  27.8991529 126.0721902  35.8591878  41.7781704 128.2511107
  36.0328756  41.2128127 127.4984959  36.3520769  42.5782599 128.0690597
  41.7131269  34.5418127 129.8701406  42.1562415  33.7925452 129.4720530
  40.8357780  34.5328263 129.4875138  36.8467051  41.0948469 125.3508005
  37.5417955  41.7155161 125.5695320  37.1890201  40.2443820 125.6260383
  38.7458474  38.5448174 126.8795336  39.2709798  38.8835447 126.1544656
  38.6580826  37.6095189 126.6958470  30.4299135  44.6120157 131.2390589
  29.9904125  44.1196536 131.9323446  31.1807252  44.0693125 130.9982664
  27.4386514  38.7062090 126.7871351  27.5874634  39.3897554 126.1338024
  28.2452957  38.6867180 127.3020807  41.2564134  36.0123365 132.2623854
  42.0911026  36.4513169 132.4261414  41.3923263  35.5362019 131.4432100
  30.9381919  41.2010220 124.2583099  30.3655886  41.8200407 123.8053570
  31.5114713  41.7509582 124.7923021  34.1579179  41.4847370 125.3891681
  35.0909852  41.4192932 125.5924556  34.0702392  42.3203637 124.9306214
  36.7867196  40.8013241 122.3495628  36.7080827  40.4673104 123.2431386
  37.6076862  41.2935009 122.3487101  31.3228718  32.5371033 121.5999151
  32.2687822  32.4077241 121.6687569  30.9442963  31.7985695 122.0768579
  45.3021937  34.7290987 134.6977984  46.0325325  34.4676275 135.2585687
  44.6928882  33.9919709 134.7380052  29.5071635  30.4621009 121.5354036
  28.6003090  30.1654122 121.6116750  29.7847616  30.1650827 120.6688323
  28.2770419  27.3207945 121.6766016  29.1389583  27.6462843 121.9361833
  28.4620764  26.5339440 121.1639081  35.2127934  28.3536561 127.8757587
  34.3253789  28.6386212 127.6577782  35.6281923  28.1930325 127.0284864
  34.3571147  38.1181236 121.9705607  35.0606998  38.3231239 122.5863262
  33.6333796  38.6857998 122.2354690  35.1868958  33.8691097 128.0907877
  35.1304159  34.3259649 127.2515509  35.7397300  33.1081782 127.9130720
  38.9973764  29.6580829 128.9157996  38.7410698  29.2577465 129.7466204
  38.3726632  30.3724623 128.7908136  43.3086101  32.3976902 131.4229288
  42.7485659  32.4670092 132.1960850  42.7029605  32.2217887 130.7028784
  26.3781310  43.8313630 133.1747474  26.2613694  44.7759062 133.0726164
  25.5573757  43.5287191 133.5633273  36.2657845  38.5563765 124.0204067
  37.1003449  38.1244964 123.8381542  36.1042188  38.3845779 124.9480961
  35.9203737  35.0595879 125.3860406  35.8652541  34.8940150 124.4448850
  35.2949792  35.7671911 125.5422596  29.1589426  43.2372878 133.0513481
  28.2085057  43.2374740 132.9377853  29.4621913  42.4905613 132.5349516
  44.8942120  49.0733416 134.1159244  45.5320530  48.9540164 133.4122584
  44.7762963  50.0214260 134.1747196  41.7031826  49.0260844 134.0520768
  41.3650338  48.9101909 133.1641303  42.5721594  48.6252010 134.0321774
  37.5618642  50.8796321 130.0417659  36.9983507  50.7886258 129.2733947
  37.4471037  50.0596225 130.5220152  42.1851609  50.1795696 140.0106974
  42.1740250  49.7848494 139.1387477  42.3472249  49.4461769 140.6040745
  35.1083074  52.3747512 132.8801880  35.9004366  52.0338337 132.4648179
  35.3479724  52.4842488 133.8004033  43.1418201  54.5467289 125.3532124
  42.4906180  55.1321369 124.9666138  43.9362563  55.0773484 125.4127162
  37.0673828  51.6356426 125.7519258  37.8404704  51.0885413 125.6132134
  37.4199227  52.5000675 125.9633720  38.9058870  52.9632808 138.9586158
  38.6148736  53.8678439 138.8432824  39.5415855  53.0049336 139.6730227
  39.8315077  50.3409657 135.5487517  40.4278649  50.1165679 134.8344480
  39.8890049  49.5994402 136.1512965  39.4040106  47.7949092 123.3837708
  39.6565626  47.2730613 122.6221171  38.4664665  47.6315237 123.4864392
  44.4483388  46.7984870 131.1912452  45.2346478  46.3804293 130.8402869
  44.7122093  47.7030962 131.3594100  44.6193466  52.2357721 125.8901108
  43.9839299  52.3092347 126.6022013  44.2890872  52.8251319 125.2120188
  49.8491816  46.7360103 132.0945430  50.5816987  46.1659320 132.3283260
  49.0931171  46.3481704 132.5351936  39.1236394  49.6977198 125.5862083
  39.0072652  49.0222101 126.2543168  39.2338654  49.2109572 124.7694236
  41.4667935  49.1587345 129.2908773  41.1026143  48.6317966 130.0021694
  42.3235051  48.7685814 129.1175258  47.3717236  40.4481678 136.5540039
  47.0400561  41.3177089 136.3301254  46.7762849  40.1317962 137.2334069
  41.1073422  44.1877245 124.2870121  41.2747825  45.0557481 124.6540592
  40.9170591  44.3504526 123.3631410  43.8648755  52.6494224 135.9535951
  43.5649479  53.5519262 135.8451759  43.5199815  52.3826407 136.8057104
  37.3161237  49.1008020 131.9872656  36.3911733  48.9684234 132.1950348
  37.5645650  49.8802240 132.4842598  47.2645899  45.1676764 133.6333389
  46.3562777  45.0992172 133.3392150  47.2133495  45.6448709 134.4615214
  41.0862643  46.6434902 125.2716788  40.9662268  47.0891953 126.1102268
  40.3915232  46.9920220 124.7130326  34.6770048  48.7441294 132.8216445
  34.8062429  48.9975773 133.7355857  33.9967499  49.3369002 132.5021100
  38.8469535  59.4138544 128.9206919  38.7693565  60.3646369 128.9995400
  38.2431179  59.0684416 129.5781845  41.3386765  46.5866409 141.5768286
  40.5620099  47.1460329 141.5671151  41.9777328  47.0723192 142.0983156
  49.1307546  43.3693202 135.4111263  48.4881926  43.6625735 134.7651057
  48.6262474  43.2546122 136.2164459  46.7847709  47.1156375 126.0997122
  47.6965565  47.3483762 125.9244820  46.2757356  47.6993420 125.5372201
  39.5933137  49.3951863 141.1386253  40.3347822  49.9336907 140.8621077
  38.8870123  50.0218151 141.2957805  45.0688477  51.5381003 139.7358415
  45.4771833  51.0963414 138.9913047  44.3465738  50.9633631 139.9892607
  41.4219547  46.4753610 137.1091971  42.2680742  46.8993023 137.2526620
  41.3618185  45.8187234 137.8030535  45.3917292  52.0982194 133.4910703
  44.7626154  52.2627908 132.7886771  45.0042954  52.5123803 134.2621667
  49.2706523  53.0336632 130.8455067  48.5857562  53.4135533 130.2952100
  49.3550373  53.6431958 131.5787015  44.5718992  44.1357978 138.7673145
  44.3279924  44.8900039 138.2307421  44.8478923  44.5143326 139.6020392
  46.5257455  50.6796591 137.4450411  46.7374350  51.3228351 136.7684792
  46.4787203  49.8458907 136.9772341  44.1283684  43.2914411 134.3486983
  43.2668163  43.5895665 134.6403720  44.1546119  43.5084810 133.4168015
  40.9445253  51.8356602 130.7560789  41.4083599  52.1144305 129.9665411
  40.6802052  50.9340046 130.5733879  37.8369335  51.3828083 133.6940552
  38.4070692  51.8115352 133.0558036  38.4277446  51.1010668 134.3924737
  39.8814140  47.9579754 127.5650354  40.5838183  48.4100798 128.0324280
  39.5494768  47.3163573 128.1930247  33.6239473  46.2163307 132.8667487
  32.8338527  46.4720835 132.3907598  34.1150721  47.0311645 132.9719528
  47.6403283  53.5568546 135.6172768  48.4620727  53.1548733 135.3355450
  47.6365686  53.4536780 136.5688884  35.5754219  46.5807886 129.8250964
  34.7785382  46.6926580 130.3434460  35.3479811  46.9194538 128.9591854
  41.4059886  53.1052589 137.7733479  41.4704319  53.5672997 138.6091650
  40.6970810  52.4749954 137.9015788  31.9077176  46.4693797 135.2982478
  32.1585215  47.3540807 135.5640054  32.4436725  46.2898399 134.5257570
  55.7309276  49.9007295 131.9657740  54.9772984  49.3314693 131.8101744
  55.8656817  49.8669959 132.9128374  41.1207904  54.7720697 127.6412459
  40.9853579  55.6172233 128.0697307  41.6617717  54.9739974 126.8778393
  34.5737302  52.2896135 128.2140384  35.0861822  53.0839385 128.3645949
  35.2260014  51.5922425 128.1473985  36.3832186  55.4061891 130.2963137
  36.5598815  56.3279856 130.1084121  37.1789020  55.0920310 130.7257517
  42.7476381  55.3944263 141.7712801  42.3040235  54.6080642 141.4533705
  43.4093594  55.5823414 141.1056692  37.5063502  56.9240065 136.2973479
  38.0570927  56.7957128 135.5250473  36.6674978  57.2234954 135.9468372
  44.8457619  55.6747063 139.7994202  44.8276094  56.4955944 139.3074471
  45.7677539  55.5501138 140.0244343  41.3030673  53.1891193 140.6417711
  41.8359010  52.4279481 140.4117019  40.7744754  52.8964845 141.3841865
  44.4700368  38.2951259 136.1711352  44.1264637  39.1852900 136.0950463
  44.8379330  38.1052916 135.3080937  32.5386218  50.6184789 128.9899954
  33.3761440  51.0281798 128.7733662  32.7164486  49.6784231 128.9600148
  44.4350650  48.2859870 124.6783787  43.9197274  49.0564474 124.9172175
  44.1627959  47.6125006 125.3016849  42.0197761  43.1309571 129.7369026
  41.1639358  42.7416421 129.5574665  42.4324713  43.2101531 128.8768811
  43.5496908  40.6655914 134.1360586  43.0461704  40.6286049 133.3228391
  43.8427515  41.5748657 134.1957242  39.7939794  40.7494644 133.1426767
  40.6592791  40.5537452 132.7832657  39.8617303  40.5204995 134.0696124
  49.4084925  51.0392224 126.6136961  48.6314367  50.7003384 126.1692123
  50.0876406  51.0444848 125.9391926  44.2236954  46.1586962 126.5043569
  43.9187089  46.4733111 127.3553712  45.1767396  46.2368382 126.5470902
  42.6683385  52.3177185 128.1536523  42.1404747  51.5829945 127.8409760
  42.1670888  53.0951862 127.9076491  47.6476231  50.5126206 133.2703569
  46.9899906  51.2025467 133.3583698  48.4516631  50.9022638 133.6137555
  37.4002113  42.9796852 130.5143134  37.9745865  42.7572033 129.7816327
  37.9873096  43.0485546 131.2671735  46.4581690  48.8670578 131.3207511
  46.9713572  49.5000570 131.8229220  47.1082914  48.2671774 130.9550871
  37.7271700  45.0101313 124.5339019  36.8909012  45.3475999 124.8548294
  37.5876470  44.8750292 123.5966156  39.7024781  39.8538100 129.2418204
  39.0489193  39.5387118 128.6174818  39.6605255  39.2313841 129.9678026
  40.8135986  50.1357395 121.1571496  39.9063047  49.9046649 121.3562645
  41.3107018  49.3395015 121.3445477  43.7204065  58.8454903 124.0768182
  43.0465763  59.1486599 124.6853140  44.1069886  59.6483983 123.7273639
  42.9362521  46.3420034 133.5665851  42.0185083  46.5634981 133.4087539
  43.3522665  46.4166344 132.7077559  43.7197569  47.7411450 128.6968531
  44.4669388  48.2532847 128.3875653  43.9889158  47.4195502 129.5572925
  41.9924219  50.2369990 125.6795486  41.0835438  49.9529023 125.7767955
  42.0219303  50.6569069 124.8198793  47.2243486  53.8476580 129.4486653
  46.7705814  53.0067490 129.5051844  46.5937453  54.4837978 129.7861433
  46.1676406  44.7768566 130.6787321  45.4299163  44.2645952 131.0097563
  46.4203180  44.3368948 129.8670598  45.6676426  55.6853077 130.3836471
  45.9599400  56.2458134 129.6648837  46.1775046  55.9781638 131.1389631
  46.2688033  37.5544818 131.2729090  46.5746910  36.6942181 130.9855005
  46.9940638  38.1462438 131.0728084  32.5612389  47.9575504 129.6610688
  32.3636789  47.3644865 128.9361755  32.0059053  47.6527715 130.3786627
  40.5409113  47.8498611 131.7805281  40.5957723  46.8972447 131.7047758
  39.7300315  48.0058050 132.2646580  41.6900307  51.7778734 123.0183564
  41.2519737  51.0614593 122.5589202  42.4310748  52.0054849 122.4568656
  38.4801473  46.4675671 129.5395660  37.6669339  46.7669841 129.9460852
  38.9760467  46.0731359 130.2570142  40.6310051  56.4633428 131.4729925
  40.5886230  56.6894274 130.5438457  41.5472750  56.2296802 131.6215726
  44.0775685  46.9317495 138.3710554  44.4325072  47.1588968 139.2305020
  44.7247816  47.2635872 137.7487809  49.8073422  50.0535931 129.0759883
  49.6691320  50.2437527 128.1481072  49.4509640  50.8155314 129.5327934
  37.9715548  44.0394026 135.1556895  38.6114927  43.8982785 134.4579858
  37.1393078  43.7528540 134.7795497  49.8342801  52.1212458 134.0871154
  50.2679308  52.0287747 134.9354208  50.5474382  52.0969959 133.4491170
  38.7475852  53.3396457 131.2691887  39.5416450  52.8446777 131.0674462
  38.0367544  52.8114320 130.9059593  43.5670696  55.7214552 135.6204255
  43.6207718  56.2905489 136.3881971  42.6985478  55.8916437 135.2558292
  35.0558615  47.4839538 127.3451640  34.1256203  47.4223994 127.5621602
  35.1516087  46.9615491 126.5488281  34.9744164  44.0094351 129.9329882
  35.2350982  44.9239684 129.8239042  35.7961337  43.5418794 130.0826495
  36.4469090  45.4232108 137.1028706  37.1192143  45.2149471 136.4541355
  35.6198876  45.2254194 136.6633939  50.6958351  52.1636159 136.6204040
  50.8894241  53.0681969 136.8663315  50.5958969  51.7043578 137.4542625
  42.3494662  42.0494049 139.1194367  41.7022577  42.7483999 139.0258844
  43.1195677  42.4830193 139.4870615  45.7573460  52.3142901 142.1944920
  45.6058966  52.0853453 141.2775004  45.7478139  53.2713503 142.2076265
  42.5258796  49.8874814 137.1791187  43.4550856  50.0385974 137.0060154
  42.1049826  49.9758835 136.3239833  41.3247128  53.9125479 134.9489724
  41.1858213  53.5444263 135.8215663  40.5361724  54.4273118 134.7773682
  41.9195280  59.0134575 126.2915261  42.0947035  58.5422618 127.1060884
  41.2328068  59.6400341 126.5196522  42.8752343  53.2907081 132.3378562
  42.5402175  53.2507851 133.2336212  42.3756289  52.6251797 131.8648972
  36.8496587  48.6974711 137.8631143  36.7116385  47.9654950 138.4642682
  37.7601510  48.6083611 137.5815331  45.8111534  50.6363116 122.6115622
  45.1940705  49.9109944 122.5148675  45.3428023  51.3972476 122.2682696
  39.4778887  48.4094671 137.3514823  40.1878506  47.7687863 137.3101441
  39.4348196  48.6607566 138.2741004  47.4665666  55.3462024 140.2721402
  47.4078212  54.6621244 139.6051985  47.8685185  56.0881014 139.8202028
  36.4856365  62.1623938 133.0655121  36.7252963  62.7942462 133.7434140
  35.6425561  61.8111978 133.3520480  37.6010080  44.8548540 121.7336926
  36.7239547  44.7337341 121.3699173  38.0767833  44.0634618 121.4815815
  47.4683073  53.3101608 138.5035382  46.5809852  52.9727530 138.6261781
  48.0381624  52.5784639 138.7404147  29.1212221  49.6425700 131.8278433
  29.8083260  49.3287430 131.2399449  28.9660349  50.5467064 131.5545685
  33.9246943  44.5315896 136.2563457  33.8405131  43.9241566 135.5213867
  33.1029649  45.0224915 136.2572953  40.9984227  57.9703060 135.4696625
  40.9254398  58.7758032 135.9815930  40.5561620  58.1695026 134.6444647
  40.7874006  57.2074830 128.9799447  40.0041528  57.7496511 129.0737671
  41.4866752  57.7248810 129.3793688  44.0970657  43.0169460 131.6233652
  44.5939356  42.2639422 131.3034722  43.3257638  43.0533776 131.0576861
  51.9500414  48.7209825 133.2651944  51.9390290  49.6034541 132.8945877
  51.0817793  48.3681376 133.0706481  43.4582910  57.8689894 137.6254784
  44.1710883  58.5037359 137.5530685  42.9672939  57.9653760 136.8094786
  45.1800437  51.7741147 129.1972075  44.2456716  51.8942609 129.0276780
  45.3577106  50.8713614 128.9332085  40.6805625  45.1586843 131.3505337
  40.3103413  44.6057883 132.0386242  41.1764718  44.5544976 130.7980337
  48.5672989  47.6158466 129.7322110  49.0333441  48.4486458 129.6582412
  49.0180489  47.1503448 130.4367368  38.5094824  55.6184338 138.4460355
  39.2104283  56.2520821 138.5989749  38.0389939  55.9599069 137.6855994
  46.6349220  53.9602288 126.7308262  46.9109064  53.8458882 127.6402136
  45.7653718  53.5619772 126.6920435  46.5389651  39.9839053 133.7713011
  45.6252731  40.2143280 133.9395218  46.9682753  40.0677497 134.6227043
  46.3096110  48.1728945 136.2712905  45.6567560  48.4204853 135.6165358
  46.6876490  47.3593083 135.9375382  43.2703284  58.2088638 130.3741075
  43.4525678  57.3910294 130.8368828  44.0936270  58.4256331 129.9365965
  43.6045449  57.1356824 127.6356124  44.1333216  56.6249278 127.0226286
  43.8673669  56.8199354 128.5001657  34.1062542  55.1520693 135.3791457
  34.6915979  54.4064381 135.5119362  33.9087380  55.4624650 136.2628121
  36.9601197  58.1871940 130.3953900  36.2911572  58.6718068 129.9117940
  36.8214067  58.4341161 131.3097278  28.6980197  47.7226293 134.0995900
  28.7364296  47.1889884 134.8933019  28.1920489  47.1961499 133.4806878
  41.1006466  60.2215684 136.9936558  41.6524774  60.3847305 137.7585643
  41.4412659  60.8120122 136.3216583  45.9517340  55.0476941 142.8485212
  46.4957244  55.6606900 142.3540167  45.3704185  55.6056520 143.3652225
  32.3288774  46.4490395 127.1749832  32.6242215  45.5401074 127.1216886
  31.4276810  46.4278135 126.8530834  44.2374853  58.1697659 133.9800240
  44.1125992  57.3687399 133.4711186  44.8953944  58.6643853 133.4914210
  35.8583021  44.5246392 133.1577380  35.1369607  45.1382360 133.0184854
  36.6476277  45.0604157 133.0794026  46.3009761  55.9706679 135.6079790
  45.3540097  55.8512031 135.5358117  46.6492535  55.0829177 135.6906052
  34.0576616  44.1304493 127.2989157  33.7289322  43.2501872 127.1164263
  34.4115987  44.0752162 128.1865546  43.3056195  55.7659396 131.8084143
  43.1581157  54.8376103 131.9891713  44.1309688  55.7879486 131.3241218
  37.1718439  44.4177463 127.6664635  37.5114511  44.9463384 126.9443243
  37.6190559  44.7557869 128.4423201  46.9090317  56.5887954 132.8949015
  47.8336864  56.3830816 132.7573466  46.7405620  56.3404355 133.8038357
  39.8661880  42.8014513 137.1167703  39.5258700  42.0022326 137.5188383
  39.1600886  43.1016224 136.5444536  40.5178352  39.8863826 135.5695026
  41.3404421  39.4124304 135.4473916  40.7616415  40.6654310 136.0693712
  39.1586586  42.9152084 125.8657927  39.8794949  43.2933337 125.3621644
  38.5351890  43.6340961 125.9692905  43.3017709  43.6197233 126.8016260
  43.5181323  44.5021871 126.5005088  42.8211776  43.2283447 126.0721902
  38.0416930  46.5782946 133.3787004  37.8961511  46.8923250 134.2711286
  37.5642134  47.1967847 132.8257903  39.9013313  43.5685494 133.4267894
  39.8874882  42.6726588 133.0900192  40.6185741  43.5756158 134.0606180
  41.7539444  44.0022835 135.4721021  41.4957222  44.9239905 135.4705352
  41.2224484  43.6053269 136.1621485  46.6985633  57.1073622 128.2511107
  46.8722510  56.5420044 127.4984959  47.1914524  57.9074517 128.0690597
  32.5162593  49.1188291 136.3174666  31.9716061  49.8948099 136.4494940
  33.3941942  49.4659095 136.1593787  39.3050209  42.4499875 128.6955464
  39.4266120  41.5216521 128.8946352  39.0152252  42.4638561 127.7833779
  42.1741400  40.1354785 131.8322184  42.1963096  40.1994118 130.8774163
  42.5909459  39.2959294 132.0262690  52.5525024  49.8710045 129.8701406
  52.9956170  49.1217370 129.4720530  51.6751534  49.8620181 129.4875138
  47.6860805  56.4240386 125.3508005  48.3811710  57.0447079 125.5695320
  48.0283955  55.5735737 125.6260383  49.5852228  53.8740092 126.8795336
  50.1103552  54.2127364 126.1544656  49.4974581  52.9387107 126.6958470
  41.2472277  57.7874165 139.0085212  41.5559404  57.5423312 139.8807912
  42.0447759  57.9920804 138.5204083  41.2692889  59.9412075 131.2390589
  40.8297879  59.4488454 131.9323446  42.0201006  59.3985043 130.9982664
  33.7485228  56.1323616 131.2415217  34.5743248  55.8327388 130.8613861
  33.3979280  55.3631238 131.6905006  38.7166761  55.4850084 133.3112891
  38.0946771  54.8220789 133.0115118  39.3871628  55.5111216 132.6286538
  31.9493833  54.0509942 132.2004151  31.1125741  53.6232117 132.0188152
  31.9217479  54.2442386 133.1374942  49.2746134  54.5072995 142.1846534
  48.4841678  54.4897134 141.6451033  49.0379489  55.0461289 142.9395570
  49.3944009  51.3565462 139.4979262  49.4442014  51.1915469 140.4394785
  49.2857933  50.4892721 139.1077143  38.2780268  54.0354007 126.7871351
  38.4268389  54.7189472 126.1338024  39.0846712  54.0159097 127.3020807
  46.6847772  47.3396390 140.8138569  47.5857635  47.2002855 140.5222567
  46.7595746  47.5050845 141.7536746  41.0190577  44.7163245 139.6591755
  40.1493887  45.0096811 139.3874344  41.2550058  45.3003690 140.3799019
  50.8962206  53.7762403 139.7421284  50.6047015  54.1392384 140.5784745
  50.2834338  53.0629412 139.5634616  52.0957889  51.3415283 132.2623854
  52.9304780  51.7805087 132.4261414  52.2317017  50.8653936 131.4432100
  49.1449395  48.8995018 138.2101342  49.6203516  49.0922664 137.4020193
  48.2214960  48.9554204 137.9644725  36.0332901  50.0619185 127.7932420
  35.7878943  49.1581515 127.9912630  36.2028816  50.0636336 126.8511898
  43.7229611  40.9342861 137.1757176  44.2411555  41.6703888 136.8503664
  43.3684744  41.2406855 138.0103935  35.3028549  45.7947543 125.2918582
  34.6097794  45.8691898 124.6358618  35.0580301  45.0307886 125.8140098
  43.9742205  37.3543144 132.6958072  44.2543959  36.6866333 133.3218499
  44.7592812  37.5472240 132.1832736  41.7775674  56.5302138 124.2583099
  41.2049641  57.1492325 123.8053570  42.3508467  57.0801500 124.7923021
  47.8451064  45.7760778 136.4429647  48.7968486  45.8758876 136.4641871
  47.6754514  44.9839047 136.9527732  45.8665443  42.8616361 136.6289048
  45.2715375  43.1421374 135.9335537  45.5815140  43.3510262 137.4005789
  44.9972933  56.8139288 125.3891681  45.9303607  56.7484850 125.5924556
  44.9096146  57.6495555 124.9306214  47.6260950  56.1305158 122.3495628
  47.5474582  55.7965022 123.2431386  48.4470617  56.6226926 122.3487101
  50.3239141  48.9966898 135.5571947  50.2915461  48.0582898 135.7431631
  50.9339765  49.0750934 134.8237772  42.1622472  47.8662951 121.5999151
  43.1081577  47.7369159 121.6687569  41.7836717  47.1277613 122.0768579
  50.4733630  45.7877941 135.6030230  49.9572678  45.0036398 135.4160159
  51.3573578  45.4596658 135.7676750  48.1344357  39.5318957 131.5626043
  47.9369178  39.2234045 132.4469375  48.7444062  40.2580596 131.6923973
  56.1415691  50.0582904 134.6977984  56.8719080  49.7968193 135.2585687
  55.5322637  49.3211626 134.7380052  54.2230988  48.1990767 135.2952435
  53.4964152  48.0646732 134.6868927  53.8078275  48.5067596 136.1009153
  42.0461165  51.9180697 143.0599808  42.9664174  52.0959296 143.2539855
  42.0110748  50.9736742 142.9079507  40.3465389  45.7912927 121.5354036
  39.4396845  45.4946040 121.6116750  40.6241370  45.4942745 120.6688323
  31.2643330  47.1119290 131.9853083  30.9446114  46.2584599 131.6927457
  30.7176758  47.3267869 132.7411050  35.0423237  49.8281731 135.7022589
  35.2609247  50.7598839 135.7210623  35.4549011  49.4689706 136.4877393
  41.9627455  40.3349817 127.6898278  41.1528183  39.9896902 128.0653524
  42.6511872  40.0257360 128.2785889  43.8918003  39.4127864 129.3122574
  44.4449042  39.8323317 129.9712597  44.1288090  38.4863612 129.3545530
  39.1164174  42.6499862 121.6766016  39.9783338  42.9754761 121.9361833
  39.3014518  41.8631358 121.1639081  31.1331590  50.7322202 133.9546204
  30.4395061  50.3176155 133.4416159  31.8804581  50.7742738 133.3579623
  47.2696810  41.5228389 128.8201239  46.6895479  42.1813193 128.4379291
  47.0032743  40.7005733 128.4088656  45.7200377  40.9233446 131.0222559
  46.2200155  41.0349981 130.2136878  46.3635985  40.6194499 131.6623367
  33.0468332  50.6640456 131.8312219  33.0239020  50.7628143 130.8794102
  33.3568969  51.5105606 132.1529385  35.7055710  52.7216611 135.9458834
  36.6598964  52.6900553 135.8788765  35.5068234  52.2607234 136.7609060
  36.2955092  51.2917727 138.5129631  37.1147981  51.7861805 138.5364469
  36.5691900  50.3749695 138.4847199  46.0521688  43.6828479 127.8757587
  45.1647543  43.9678130 127.6577782  46.4675678  43.5222242 127.0284864
  49.4036225  43.7075000 131.5911926  50.1796615  44.1971452 131.8636543
  48.6784359  44.1333054 132.0483796  51.8408783  44.4202619 132.6485867
  52.4353274  44.1798355 131.9379175  51.9135367  43.7009750 133.2759403
  34.0605939  58.2636230 132.9629031  33.9260407  57.5036631 132.3967030
  33.6438001  58.9877130 132.4957820  45.1964902  53.4473154 121.9705607
  45.9000752  53.6523156 122.5863262  44.4727551  54.0149916 122.2354690
  46.0262712  49.1983015 128.0907877  45.9697914  49.6551566 127.2515509
  46.5791055  48.4373700 127.9130720  49.8367518  44.9872747 128.9157996
  49.5804452  44.5869383 129.7466204  49.2120386  45.7016541 128.7908136
  54.1479856  47.7268820 131.4229288  53.5879414  47.7962009 132.1960850
  53.5423359  47.5509805 130.7028784  37.2175065  59.1605547 133.1747474
  37.1007449  60.1050980 133.0726164  36.3967511  58.8579109 133.5633273
  47.1051599  53.8855683 124.0204067  47.9397203  53.4536881 123.8381542
  46.9435942  53.7137697 124.9480961  46.7597492  50.3887796 125.3860406
  46.7046295  50.2232068 124.4448850  46.1343547  51.0963829 125.5422596
  44.0743399  52.6936708 144.7113969  44.9434558  52.8677360 144.3500604
  43.5950150  53.5131125 144.5889698  40.0693617  39.8895905 124.9645725
  40.0572287  40.8337745 125.1213995  40.9617039  39.7066051 124.6705186
  38.2429579  59.8133809 136.3903403  39.1456826  59.8457419 136.7069898
  38.0166949  58.8834260 136.4049738  39.9983181  58.5664796 133.0513481
  39.0478812  58.5666657 132.9377853  40.3015667  57.8197530 132.5349516
  43.8845736  36.4838682 129.2191661  43.1178132  35.9297169 129.3648344
  44.2956441  36.5560551 130.0805813  55.7335874  64.4025334 134.1159244
  56.3714284  64.2832081 133.4122584  55.6156717  65.3506178 134.1747196
  52.5425581  64.3552762 134.0520768  52.2044092  64.2393827 133.1641303
  53.4115349  63.9543927 134.0321774  48.4012396  66.2088239 130.0417659
  47.8377262  66.1178176 129.2733947  48.2864791  65.3888143 130.5220152
  53.0245364  65.5087614 140.0106974  53.0134004  65.1140412 139.1387477
  53.1866003  64.7753687 140.6040745  45.9476828  67.7039430 132.8801880
  46.7398120  67.3630255 132.4648179  46.1873478  67.8134405 133.8004033
  53.9811955  69.8759206 125.3532124  53.3299935  70.4613287 124.9666138
  54.7756318  70.4065401 125.4127162  47.9067582  66.9648343 125.7519258
  48.6798458  66.4177331 125.6132134  48.2592981  67.8292593 125.9633720
  49.7452625  68.2924726 138.9586158  49.4542491  69.1970357 138.8432824
  50.3809609  68.3341253 139.6730227  50.6708832  65.6701574 135.5487517
  51.2672404  65.4457597 134.8344480  50.7283803  64.9286320 136.1512965
  50.2433860  63.1241010 123.3837708  50.4959381  62.6022531 122.6221171
  49.3058419  62.9607155 123.4864392  55.2877143  62.1276788 131.1912452
  56.0740232  61.7096211 130.8402869  55.5515847  63.0322880 131.3594100
  55.4587220  67.5649638 125.8901108  54.8233053  67.6384265 126.6022013
  55.1284627  68.1543237 125.2120188  60.6885570  62.0652021 132.0945430
  61.4210742  61.4951238 132.3283260  59.9324926  61.6773622 132.5351936
  49.9630149  65.0269116 125.5862083  49.8466407  64.3514019 126.2543168
  50.0732409  64.5401489 124.7694236  52.3061690  64.4879263 129.2908773
  51.9419897  63.9609884 130.0021694  53.1628806  64.0977732 129.1175258
  58.2110990  55.7773595 136.5540039  57.8794315  56.6469006 136.3301254
  57.6156604  55.4609879 137.2334069  51.9467177  59.5169162 124.2870121
  52.1141579  60.3849399 124.6540592  51.7564346  59.6796444 123.3631410
  54.7042510  67.9786141 135.9535951  54.4043233  68.8811180 135.8451759
  54.3593569  67.7118324 136.8057104  48.1554991  64.4299938 131.9872656
  47.2305488  64.2976152 132.1950348  48.4039405  65.2094157 132.4842598
  58.1039654  60.4968681 133.6333389  57.1956531  60.4284090 133.3392150
  58.0527250  60.9740626 134.4615214  51.9256398  61.9726820 125.2716788
  51.8056023  62.4183871 126.1102268  51.2308986  62.3212137 124.7130326
  45.5163802  64.0733212 132.8216445  45.6456184  64.3267691 133.7355857
  44.8361254  64.6660920 132.5021100  49.6863290  74.7430462 128.9206919
  49.6087319  75.6938287 128.9995400  49.0824933  74.3976334 129.5781845
  52.1780519  61.9158327 141.5768286  51.4013854  62.4752247 141.5671151
  52.8171083  62.4015110 142.0983156  59.9701300  58.6985120 135.4111263
  59.3275680  58.9917653 134.7651057  59.4656229  58.5838040 136.2164459
  57.6241464  62.4448293 126.0997122  58.5359320  62.6775680 125.9244820
  57.1151111  63.0285337 125.5372201  50.4326892  64.7243780 141.1386253
  51.1741576  65.2628824 140.8621077  49.7263877  65.3510069 141.2957805
  55.9082231  66.8672921 139.7358415  56.3165587  66.4255331 138.9913047
  55.1859493  66.2925548 139.9892607  52.2613301  61.8045528 137.1091971
  53.1074497  62.2284941 137.2526620  52.2011939  61.1479152 137.8030535
  56.2311046  67.4274111 133.4910703  55.6019909  67.5919826 132.7886771
  55.8436708  67.8415721 134.2621667  60.1100278  68.3628549 130.8455067
  59.4251316  68.7427451 130.2952100  60.1944127  68.9723876 131.5787015
  55.4112747  59.4649896 138.7673145  55.1673679  60.2191956 138.2307421
  55.6872677  59.8435244 139.6020392  57.3651210  66.0088508 137.4450411
  57.5768105  66.6520268 136.7684792  57.3180958  65.1750825 136.9772341
  54.9677439  58.6206329 134.3486983  54.1061918  58.9187583 134.6403720
  54.9939873  58.8376728 133.4168015  51.7839008  67.1648520 130.7560789
  52.2477353  67.4436223 129.9665411  51.5195806  66.2631964 130.5733879
  48.6763089  66.7120001 133.6940552  49.2464446  67.1407269 133.0558036
  49.2671201  66.4302586 134.3924737  50.7207894  63.2871672 127.5650354
  51.4231937  63.7392716 128.0324280  50.3888523  62.6455491 128.1930247
  49.1688256  61.8783429 141.9401563  48.5386916  62.5599709 142.1736960
  49.0624343  61.7666510 140.9954701  44.4633228  61.5455225 132.8667487
  43.6732282  61.8012753 132.3907598  44.9544475  62.3603562 132.9719528
  58.4797038  68.8860464 135.6172768  59.3014481  68.4840651 135.3355450
  58.4759440  68.7828698 136.5688884  46.4147973  61.9099804 129.8250964
  45.6179137  62.0218498 130.3434460  46.1873566  62.2486456 128.9591854
  52.2453641  68.4344507 137.7733479  52.3098073  68.8964914 138.6091650
  51.5364565  67.8041872 137.9015788  42.7470931  61.7985715 135.2982478
  42.9978969  62.6832725 135.5640054  43.2830479  61.6190317 134.5257570
  66.5703031  65.2299212 131.9657740  65.8166739  64.6606610 131.8101744
  66.7050572  65.1961877 132.9128374  51.9601659  70.1012615 127.6412459
  51.8247333  70.9464150 128.0697307  52.5011471  70.3031892 126.8778393
  48.4468998  56.1804194 144.3026814  48.0535944  55.6270393 144.9774458
  49.2635139  56.4914773 144.6933332  45.4131056  67.6188053 128.2140384
  45.9255577  68.4131303 128.3645949  46.0653769  66.9214343 128.1473985
  47.2225941  70.7353809 130.2963137  47.3992569  71.6571774 130.1084121
  48.0182774  70.4212228 130.7257517  51.3636959  57.5962073 141.8947071
  52.1046673  58.1969227 141.8151533  51.5954882  56.8539711 141.3365113
  46.5078297  62.7818441 140.1725300  46.3931812  61.8803698 140.4732399
  45.6522815  63.0282137 139.8210117  53.5870135  70.7236181 141.7712801
  53.1433989  69.9372560 141.4533705  54.2487349  70.9115332 141.1056692
  48.3457256  72.2531983 136.2973479  48.8964681  72.1249046 135.5250473
  47.5068732  72.5526872 135.9468372  55.6851373  71.0038981 139.7994202
  55.6669848  71.8247862 139.3074471  56.6071293  70.8793056 140.0244343
  52.1424427  68.5183110 140.6417711  52.6752764  67.7571399 140.4117019
  51.6138508  68.2256762 141.3841865  55.3094122  53.6243176 136.1711352
  54.9658392  54.5144818 136.0950463  55.6773085  53.4344834 135.3080937
  43.3779973  65.9476707 128.9899954  44.2155195  66.3573715 128.7733662
  43.5558241  65.0076149 128.9600148  55.2744405  63.6151787 124.6783787
  54.7591028  64.3856392 124.9172175  55.0021713  62.9416924 125.3016849
  52.8591516  58.4601488 129.7369026  52.0033112  58.0708339 129.5574665
  53.2718468  58.5393449 128.8768811  54.3890663  55.9947832 134.1360586
  53.8855458  55.9577967 133.3228391  54.6821269  56.9040574 134.1957242
  50.6333548  56.0786561 133.1426767  51.4986545  55.8829370 132.7832657
  50.7011057  55.8496913 134.0696124  60.2478679  66.3684142 126.6136961
  59.4708122  66.0295302 126.1692123  60.9270160  66.3736765 125.9391926
  55.0630708  61.4878880 126.5043569  54.7580844  61.8025029 127.3553712
  56.0161150  61.5660299 126.5470902  53.5077140  67.6469103 128.1536523
  52.9798502  66.9121862 127.8409760  53.0064643  68.4243779 127.9076491
  58.4869986  65.8418123 133.2703569  57.8293660  66.5317385 133.3583698
  59.2910385  66.2314555 133.6137555  48.2395868  58.3088769 130.5143134
  48.8139619  58.0863951 129.7816327  48.8266850  58.3777464 131.2671735
  57.2975445  64.1962496 131.3207511  57.8107327  64.8292488 131.8229220
  57.9476669  63.5963692 130.9550871  48.5665455  60.3393230 124.5339019
  47.7302767  60.6767917 124.8548294  48.4270224  60.2042210 123.5966156
  50.5418535  55.1830018 129.2418204  49.8882948  54.8679035 128.6174818
  50.4999009  54.5605759 129.9678026  51.6529740  65.4649313 121.1571496
  50.7456802  65.2338567 121.3562645  52.1500772  64.6686932 121.3445477
  54.5597819  74.1746820 124.0768182  53.8859518  74.4778517 124.6853140
  54.9463641  74.9775901 123.7273639  53.7756276  61.6711952 133.5665851
  52.8578837  61.8926899 133.4087539  54.1916419  61.7458262 132.7077559
  54.5591323  63.0703367 128.6968531  55.3063142  63.5824765 128.3875653
  54.8282913  62.7487420 129.5572925  52.8317974  65.5661908 125.6795486
  51.9229193  65.2820941 125.7767955  52.8613057  65.9860987 124.8198793
  58.0637241  69.1768498 129.4486653  57.6099568  68.3359407 129.5051844
  57.4331208  69.8129896 129.7861433  57.0070161  60.1060484 130.6787321
  56.2692917  59.5937870 131.0097563  57.2596934  59.6660865 129.8670598
  56.5070180  71.0144994 130.3836471  56.7993155  71.5750051 129.6648837
  57.0168801  71.3073555 131.1389631  57.1081788  52.8836736 131.2729090
  57.4140665  52.0234099 130.9855005  57.8334393  53.4754356 131.0728084
  43.4006144  63.2867422 129.6610688  43.2030544  62.6936783 128.9361755
  42.8452808  62.9819632 130.3786627  51.3802868  63.1790529 131.7805281
  51.4351477  62.2264365 131.7047758  50.5694070  63.3349968 132.2646580
  52.5294061  67.1070652 123.0183564  52.0913491  66.3906511 122.5589202
  53.2704502  67.3346767 122.4568656  49.3195228  61.7967588 129.5395660
  48.5063093  62.0961759 129.9460852  49.8154222  61.4023277 130.2570142
  51.4703805  71.7925345 131.4729925  51.4279984  72.0186192 130.5438457
  52.3866504  71.5588720 131.6215726  54.9169439  62.2609413 138.3710554
  55.2718827  62.4880886 139.2305020  55.5641570  62.5927790 137.7487809
  60.6467176  65.3827849 129.0759883  60.5085075  65.5729445 128.1481072
  60.2903395  66.1447232 129.5327934  48.8109302  59.3685944 135.1556895
  49.4508682  59.2274703 134.4579858  47.9786833  59.0820457 134.7795497
  60.6736556  67.4504376 134.0871154  61.1073062  67.3579665 134.9354208
  61.3868136  67.4261876 133.4491170  49.5869606  68.6688374 131.2691887
  50.3810205  68.1738694 131.0674462  48.8761299  68.1406237 130.9059593
  54.4064451  71.0506470 135.6204255  54.4601473  71.6197406 136.3881971
  53.5379232  71.2208355 135.2558292  45.8952370  62.8131456 127.3451640
  44.9649958  62.7515912 127.5621602  45.9909842  62.2907409 126.5488281
  45.8137919  59.3386269 129.9329882  46.0744736  60.2531602 129.8239042
  46.6355091  58.8710711 130.0826495  47.2862844  60.7524026 137.1028706
  47.9585897  60.5441388 136.4541355  46.4592631  60.5546112 136.6633939
  61.5352105  67.4928076 136.6204040  61.7287995  68.3973887 136.8663315
  61.4352723  67.0335495 137.4542625  53.1888416  57.3785967 139.1194367
  52.5416331  58.0775917 139.0258844  53.9589431  57.8122111 139.4870615
  56.5967214  67.6434819 142.1944920  56.4452720  67.4145371 141.2775004
  56.5871893  68.6005421 142.2076265  53.3652550  65.2166732 137.1791187
  54.2944610  65.3677892 137.0060154  52.9443580  65.3050753 136.3239833
  52.1640882  69.2417396 134.9489724  52.0251968  68.8736181 135.8215663
  51.3755478  69.7565036 134.7773682  52.7589034  74.3426493 126.2915261
  52.9340790  73.8714536 127.1060884  52.0721822  74.9692259 126.5196522
  53.7146097  68.6198999 132.3378562  53.3795930  68.5799769 133.2336212
  53.2150043  67.9543715 131.8648972  47.6890341  64.0266629 137.8631143
  47.5510139  63.2946868 138.4642682  48.5995265  63.9375529 137.5815331
  56.6505289  65.9655033 122.6115622  56.0334460  65.2401862 122.5148675
  56.1821777  66.7264394 122.2682696  50.3172642  63.7386588 137.3514823
  51.0272260  63.0979781 137.3101441  50.2741950  63.9899483 138.2741004
  58.3059421  70.6753942 140.2721402  58.2471967  69.9913162 139.6051985
  58.7078939  71.4172932 139.8202028  49.0301576  60.7251806 139.1710463
  48.4938933  60.2742545 139.8232059  48.4418284  60.8597715 138.4280927
  47.3250119  77.4915856 133.0655121  47.5646718  78.1234380 133.7434140
  46.4819316  77.1403896 133.3520480  48.4403835  60.1840458 121.7336926
  47.5633301  60.0629258 121.3699173  48.9161588  59.3926536 121.4815815
  58.3076828  68.6393526 138.5035382  57.4203607  68.3019447 138.6261781
  58.8775379  67.9076557 138.7404147  39.9605975  64.9717617 131.8278433
  40.6477015  64.6579347 131.2399449  39.8054104  65.8758982 131.5545685
  44.7640697  59.8607814 136.2563457  44.6798886  59.2533484 135.5213867
  43.9423404  60.3516832 136.2572953  51.8377981  73.2994978 135.4696625
  51.7648153  74.1049949 135.9815930  51.3955374  73.4986944 134.6444647
  51.6267761  72.5366748 128.9799447  50.8435283  73.0788428 129.0737671
  52.3260506  73.0540728 129.3793688  54.9364411  58.3461377 131.6233652
  55.4333111  57.5931340 131.3034722  54.1651393  58.3825694 131.0576861
  62.7894168  64.0501743 133.2651944  62.7784045  64.9326458 132.8945877
  61.9211548  63.6973294 133.0706481  54.2976665  73.1981812 137.6254784
  55.0104637  73.8329277 137.5530685  53.8066693  73.2945678 136.8094786
  56.0194192  67.1033065 129.1972075  55.0850470  67.2234527 129.0276780
  56.1970860  66.2005531 128.9332085  51.5199380  60.4878760 131.3505337
  51.1497167  59.9349801 132.0386242  52.0158472  59.8836894 130.7980337
  59.4066743  62.9450384 129.7322110  59.8727195  63.7778376 129.6582412
  59.8574244  62.4795366 130.4367368  49.3488578  70.9476255 138.4460355
  50.0498038  71.5812738 138.5989749  48.8783693  71.2890987 137.6855994
  57.4742974  69.2894205 126.7308262  57.7502818  69.1750800 127.6402136
  56.6047473  68.8911690 126.6920435  57.3783406  55.3130971 133.7713011
  56.4646486  55.5435198 133.9395218  57.8076507  55.3969415 134.6227043
  57.1489864  63.5020863 136.2712905  56.4961315  63.7496770 135.6165358
  57.5270244  62.6885001 135.9375382  54.1097038  73.5380556 130.3741075
  54.2919433  72.7202212 130.8368828  54.9330024  73.7548248 129.9365965
  54.4439204  72.4648741 127.6356124  54.9726970  71.9541196 127.0226286
  54.7067423  72.1491271 128.5001657  53.1977437  64.2440674 142.7578942
  52.5218074  64.1434803 143.4281317  54.0205071  64.0879888 143.2214939
  44.9456296  70.4812611 135.3791457  45.5309733  69.7356298 135.5119362
  44.7481135  70.7916567 136.2628121  47.7994952  73.5163858 130.3953900
  47.1305327  74.0009986 129.9117940  47.6607821  73.7633078 131.3097278
  39.5373951  63.0518211 134.0995900  39.5758051  62.5181801 134.8933019
  39.0314244  62.5253416 133.4806878  51.9400220  75.5507601 136.9936558
  52.4918528  75.7139223 137.7585643  52.2806414  76.1412039 136.3216583
  46.9164713  57.8982751 137.5958443  46.9806040  58.7597582 137.1835840
  46.8531834  57.2856753 136.8630801  46.3916986  59.9705884 141.2431477
  47.0189025  59.5882961 141.8569001  45.5344905  59.7520086 141.6087170
  56.7911095  70.3768859 142.8485212  57.3350999  70.9898817 142.3540167
  56.2097939  70.9348437 143.3652225  43.1682529  61.7782313 127.1749832
  43.4635970  60.8692991 127.1216886  42.2670564  61.7570052 126.8530834
  55.0768607  73.4989577 133.9800240  54.9519747  72.6979317 133.4711186
  55.7347699  73.9935770 133.4914210  46.6976776  59.8538309 133.1577380
  45.9763361  60.4674277 133.0184854  47.4870031  60.3896074 133.0794026
  57.1403516  71.2998597 135.6079790  56.1933851  71.1803948 135.5358117
  57.4886289  70.4121095 135.6906052  49.5003089  57.1892736 139.4318032
  50.0237491  57.4355033 140.1944342  49.2815423  58.0212771 139.0121170
  44.8970370  59.4596411 127.2989157  44.5683076  58.5793789 127.1164263
  45.2509741  59.4044079 128.1865546  54.1449949  71.0951313 131.8084143
  53.9974912  70.1668021 131.9891713  54.9703443  71.1171404 131.3241218
  48.0112193  59.7469380 127.6664635  48.3508266  60.2755302 126.9443243
  48.4584314  60.0849786 128.4423201  57.7484071  71.9179872 132.8949015
  58.6730619  71.7122733 132.7573466  57.5799374  71.6696273 133.8038357
  50.7055634  58.1306431 137.1167703  50.3652455  57.3314244 137.5188383
  49.9994641  58.4308142 136.5444536  51.3572106  55.2155743 135.5695026
  52.1798175  54.7416222 135.4473916  51.6010170  55.9946227 136.0693712
  49.9980341  58.2444002 125.8657927  50.7188703  58.6225255 125.3621644
  49.3745645  58.9632879 125.9692905  54.1411463  58.9489151 126.8016260
  54.3575078  59.8313789 126.5005088  53.6605531  58.5575364 126.0721902
  48.8810685  61.9074864 133.3787004  48.7355266  62.2215167 134.2711286
  48.4035889  62.5259764 132.8257903  50.7407068  58.8977412 133.4267894
  50.7268637  58.0018505 133.0900192  51.4579496  58.9048076 134.0606180
  52.5933198  59.3314752 135.4721021  52.3350976  60.2531823 135.4705352
  52.0618239  58.9345187 136.1621485  57.5379387  72.4365539 128.2511107
  57.7116265  71.8711962 127.4984959  58.0308278  73.2366434 128.0690597
  43.3556347  64.4480209 136.3174666  42.8109815  65.2240017 136.4494940
  44.2335697  64.7951013 136.1593787  50.1443964  57.7791792 128.6955464
  50.2659875  56.8508439 128.8946352  49.8546006  57.7930478 127.7833779
  53.0135154  55.4646703 131.8322184  53.0356851  55.5286036 130.8774163
  53.4303213  54.6251211 132.0262690  63.3918778  65.2001962 129.8701406
  63.8349924  64.4509288 129.4720530  62.5145289  65.1912099 129.4875138
  58.5254560  71.7532304 125.3508005  59.2205464  72.3738997 125.5695320
  58.8677710  70.9027655 125.6260383  44.1422369  63.5750105 139.2104822
  43.4004105  63.7232740 139.7969453  43.8215113  63.8358370 138.3471572
  60.4245983  69.2032009 126.8795336  60.9497307  69.5419282 126.1544656
  60.3368335  68.2679025 126.6958470  52.0866032  73.1166083 139.0085212
  52.3953158  72.8715230 139.8807912  52.8841514  73.3212722 138.5204083
  52.1086644  75.2703993 131.2390589  51.6691634  74.7780371 131.9323446
  52.8594761  74.7276960 130.9982664  44.5878983  71.4615534 131.2415217
  45.4137002  71.1619305 130.8613861  44.2373035  70.6923156 131.6905006
  49.5560516  70.8142002 133.3112891  48.9340525  70.1512707 133.0115118
  50.2265383  70.8403134 132.6286538  42.7887588  69.3801860 132.2004151
  41.9519496  68.9524034 132.0188152  42.7611233  69.5734303 133.1374942
  49.6285043  59.2923790 142.9045397  49.6773199  60.1685913 142.5223166
  50.1707557  58.7501183 142.3317040  60.1139889  69.8364913 142.1846534
  59.3235433  69.8189052 141.6451033  59.8773243  70.3753207 142.9395570
  60.2337764  66.6857379 139.4979262  60.2835769  66.5207387 140.4394785
  60.1251687  65.8184638 139.1077143  49.1174023  69.3645925 126.7871351
  49.2662143  70.0481389 126.1338024  49.9240466  69.3451015 127.3020807
  57.5241526  62.6688307 140.8138569  58.4251389  62.5294772 140.5222567
  57.5989501  62.8342762 141.7536746  51.8584332  60.0455162 139.6591755
  50.9887641  60.3388728 139.3874344  52.0943812  60.6295607 140.3799019
  61.7355961  69.1054321 139.7421284  61.4440769  69.4684301 140.5784745
  61.1228092  68.3921329 139.5634616  62.9351643  66.6707201 132.2623854
  63.7698534  67.1097005 132.4261414  63.0710772  66.1945854 131.4432100
  59.9843149  64.2286936 138.2101342  60.4597271  64.4214582 137.4020193
  59.0608714  64.2846121 137.9644725  46.8726656  65.3911103 127.7932420
  46.6272698  64.4873433 127.9912630  47.0422570  65.3928253 126.8511898
  54.5623366  56.2634779 137.1757176  55.0805309  56.9995806 136.8503664
  54.2078498  56.5698772 138.0103935  46.1422303  61.1239460 125.2918582
  45.4491548  61.1983815 124.6358618  45.8974055  60.3599804 125.8140098
  54.8135960  52.6835062 132.6958072  55.0937713  52.0158251 133.3218499
  55.5986567  52.8764157 132.1832736  52.6169428  71.8594056 124.2583099
  52.0443395  72.4784243 123.8053570  53.1902222  72.4093417 124.7923021
  58.6844818  61.1052696 136.4429647  59.6362241  61.2050793 136.4641871
  58.5148268  60.3130964 136.9527732  56.7059197  58.1908279 136.6289048
  56.1109130  58.4713292 135.9335537  56.4208894  58.6802180 137.4005789
  55.8366688  72.1431206 125.3891681  56.7697361  72.0776767 125.5924556
  55.7489901  72.9787473 124.9306214  58.4654705  71.4597076 122.3495628
  58.3868336  71.1256940 123.2431386  59.2864371  71.9518844 122.3487101
  61.1632896  64.3258815 135.5571947  61.1309216  63.3874816 135.7431631
  61.7733519  64.4042852 134.8237772  53.0016227  63.1954868 121.5999151
  53.9475331  63.0661076 121.6687569  52.6230472  62.4569530 122.0768579
  61.3127384  61.1169859 135.6030230  60.7966433  60.3328315 135.4160159
  62.1967333  60.7888575 135.7676750  58.9738111  54.8610874 131.5626043
  58.7762932  54.5525963 132.4469375  59.5837817  55.5872513 131.6923973
  66.9809446  65.3874822 134.6977984  67.7112834  65.1260110 135.2585687
  66.3716391  64.6503544 134.7380052  65.0624743  63.5282685 135.2952435
  64.3357906  63.3938650 134.6868927  64.6472030  63.8359513 136.1009153
  52.8854919  67.2472614 143.0599808  53.8057929  67.4251213 143.2539855
  52.8504502  66.3028660 142.9079507  51.1859144  61.1204845 121.5354036
  50.2790599  60.8237957 121.6116750  51.4635125  60.8234663 120.6688323
  42.1037084  62.4411208 131.9853083  41.7839869  61.5876516 131.6927457
  41.5570512  62.6559786 132.7411050  45.8816992  65.1573649 135.7022589
  46.1003002  66.0890757 135.7210623  46.2942766  64.7981623 136.4877393
  52.8021210  55.6641734 127.6898278  51.9921938  55.3188819 128.0653524
  53.4905626  55.3549278 128.2785889  54.7311758  54.7419781 129.3122574
  55.2842796  55.1615235 129.9712597  54.9681844  53.8155529 129.3545530
  50.7544857  60.7306855 145.0925338  50.6541584  61.6801212 145.0237429
  50.5366399  60.4025094 144.2201408  49.9557928  57.9791780 121.6766016
  50.8177092  58.3046678 121.9361833  50.1408273  57.1923276 121.1639081
  41.9725344  66.0614120 133.9546204  41.2788816  65.6468072 133.4416159
  42.7198335  66.1034656 133.3579623  58.1090565  56.8520306 128.8201239
  57.5289234  57.5105110 128.4379291  57.8426498  56.0297651 128.4088656
  56.5594131  56.2525364 131.0222559  57.0593910  56.3641899 130.2136878
  57.2029739  55.9486417 131.6623367  50.6176127  64.1603994 143.9090400
  50.1343209  64.9604354 144.1154289  50.7037066  64.1711939 142.9557844
  43.8862087  65.9932373 131.8312219  43.8632775  66.0920061 130.8794102
  44.1962723  66.8397524 132.1529385  46.5449465  68.0508528 135.9458834
  47.4992718  68.0192471 135.8788765  46.3461988  67.5899152 136.7609060
  47.1348847  66.6209644 138.5129631  47.9541736  67.1153723 138.5364469
  47.4085654  65.7041613 138.4847199  56.8915443  59.0120397 127.8757587
  56.0041298  59.2970047 127.6577782  57.3069432  58.8514160 127.0284864
  60.2429979  59.0366918 131.5911926  61.0190369  59.5263370 131.8636543
  59.5178113  59.4624972 132.0483796  62.6802538  59.7494537 132.6485867
  63.2747029  59.5090273 131.9379175  62.7529121  59.0301668 133.2759403
  44.8999693  73.5928148 132.9629031  44.7654161  72.8328549 132.3967030
  44.4831756  74.3169048 132.4957820  56.0358656  68.7765071 121.9705607
  56.7394507  68.9815074 122.5863262  55.3121305  69.3441833 122.2354690
  56.8656467  64.5274933 128.0907877  56.8091668  64.9843484 127.2515509
  57.4184809  63.7665617 127.9130720  60.6761273  60.3164665 128.9157996
  60.4198207  59.9161300 129.7466204  60.0514141  61.0308458 128.7908136
  64.9873610  63.0560738 131.4229288  64.4273168  63.1253927 132.1960850
  64.3817114  62.8801722 130.7028784  48.0568819  74.4897465 133.1747474
  47.9401203  75.4342897 133.0726164  47.2361266  74.1871026 133.5633273
  57.9445354  69.2147601 124.0204067  58.7790958  68.7828799 123.8381542
  57.7829697  69.0429614 124.9480961  57.5991246  65.7179714 125.3860406
  57.5440050  65.5523985 124.4448850  56.9737301  66.4255747 125.5422596
  42.3883761  60.9547778 139.2121828  43.0342625  60.4446732 139.7009054
  42.1800912  61.6916460 139.7865254  54.9137153  68.0228626 144.7113969
  55.7828313  68.1969278 144.3500604  54.4343905  68.8423043 144.5889698
  50.9087371  55.2187823 124.9645725  50.8966041  56.1629663 125.1213995
  51.8010793  55.0357968 124.6705186  49.0823333  75.1425727 136.3903403
  49.9850580  75.1749337 136.7069898  48.8560703  74.2126178 136.4049738
  50.8376935  73.8956713 133.0513481  49.8872566  73.8958575 132.9377853
  51.1409422  73.1489448 132.5349516  54.7239491  51.8130600 129.2191661
  53.9571887  51.2589086 129.3648344  55.1350196  51.8852468 130.0805813
  46.7281252  58.1015395 143.3096843  47.5912714  57.7452200 143.5200167
  46.1546663  57.7629290 143.9972247  66.5729629  79.7317252 134.1159244
  67.2108039  79.6123999 133.4122584  66.4550472  80.6798096 134.1747196
  63.3819335  79.6844680 134.0520768  63.0437847  79.5685745 133.1641303
  64.2509103  79.2835845 134.0321774  59.2406151  81.5380156 130.0417659
  58.6771016  81.4470093 129.2733947  59.1258546  80.7180061 130.5220152
  63.8639118  80.8379532 140.0106974  63.8527759  80.4432330 139.1387477
  64.0259758  80.1045604 140.6040745  56.7870583  83.0331348 132.8801880
  57.5791875  82.6922172 132.4648179  57.0267233  83.1426323 133.8004033
  64.8205710  85.2051124 125.3532124  64.1693689  85.7905204 124.9666138
  65.6150072  85.7357319 125.4127162  58.7461337  82.2940261 125.7519258
  59.5192213  81.7469248 125.6132134  59.0986736  83.1584510 125.9633720
  60.5846379  83.6216643 138.9586158  60.2936245  84.5262274 138.8432824
  61.2203364  83.6633171 139.6730227  61.5102586  80.9993492 135.5487517
  62.1066158  80.7749514 134.8344480  61.5677558  80.2578237 136.1512965
  61.0827615  78.4532927 123.3837708  61.3353135  77.9314448 122.6221171
  60.1452174  78.2899073 123.4864392  66.1270897  77.4568706 131.1912452
  66.9133987  77.0388129 130.8402869  66.3909602  78.3614798 131.3594100
  66.2980975  82.8941556 125.8901108  65.6626808  82.9676182 126.6022013
  65.9678381  83.4835155 125.2120188  71.5279325  77.3943939 132.0945430
  72.2604496  76.8243156 132.3283260  70.7718680  77.0065539 132.5351936
  60.8023903  80.3561033 125.5862083  60.6860161  79.6805937 126.2543168
  60.9126163  79.8693407 124.7694236  63.1455444  79.8171180 129.2908773
  62.7813651  79.2901801 130.0021694  64.0022560  79.4269649 129.1175258
  69.0504745  71.1065513 136.5540039  68.7188070  71.9760924 136.3301254
  68.4550358  70.7901797 137.2334069  62.7860931  74.8461080 124.2870121
  62.9535334  75.7141316 124.6540592  62.5958100  75.0088362 123.3631410
  65.5436264  83.3078059 135.9535951  65.2436988  84.2103098 135.8451759
  65.1987324  83.0410242 136.8057104  58.9948746  79.7591856 131.9872656
  58.0699242  79.6268070 132.1950348  59.2433159  80.5386075 132.4842598
  68.9433408  75.8260599 133.6333389  68.0350286  75.7576007 133.3392150
  68.8921004  76.3032544 134.4615214  62.7650152  77.3018737 125.2716788
  62.6449777  77.7475788 126.1102268  62.0702740  77.6504055 124.7130326
  56.3557557  79.4025129 132.8216445  56.4849938  79.6559608 133.7355857
  55.6755008  79.9952837 132.5021100  60.5257044  90.0722379 128.9206919
  60.4481074  91.0230204 128.9995400  59.9218688  89.7268252 129.5781845
  63.0174274  77.2450245 141.5768286  62.2407608  77.8044165 141.5671151
  63.6564837  77.7307028 142.0983156  70.8095055  74.0277037 135.4111263
  70.1669435  74.3209571 134.7651057  70.3049983  73.9129958 136.2164459
  68.4635218  77.7740211 126.0997122  69.3753074  78.0067597 125.9244820
  67.9544865  78.3577255 125.5372201  61.2720646  80.0535698 141.1386253
  62.0135331  80.5920742 140.8621077  60.5657632  80.6801987 141.2957805
  66.7475986  82.1964838 139.7358415  67.1559342  81.7547249 138.9913047
  66.0253247  81.6217466 139.9892607  63.1007056  77.1337445 137.1091971
  63.9468251  77.5576859 137.2526620  63.0405694  76.4771070 137.8030535
  67.0704801  82.7566029 133.4910703  66.4413663  82.9211743 132.7886771
  66.6830463  83.1707639 134.2621667  70.9494032  83.6920467 130.8455067
  70.2645071  84.0719368 130.2952100  71.0337882  84.3015794 131.5787015
  66.2506501  74.7941814 138.7673145  66.0067433  75.5483874 138.2307421
  66.5266432  75.1727161 139.6020392  68.2044964  81.3380426 137.4450411
  68.4161859  81.9812186 136.7684792  68.1574712  80.5042743 136.9772341
  65.8071193  73.9498247 134.3486983  64.9455672  74.2479500 134.6403720
  65.8333628  74.1668646 133.4168015  62.6232762  82.4940437 130.7560789
  63.0871108  82.7728140 129.9665411  62.3589561  81.5923882 130.5733879
  59.5156844  82.0411919 133.6940552  60.0858201  82.4699187 133.0558036
  60.1064955  81.7594503 134.3924737  61.5601649  78.6163590 127.5650354
  62.2625692  79.0684633 128.0324280  61.2282277  77.9747408 128.1930247
  60.0082010  77.2075346 141.9401563  59.3780671  77.8891627 142.1736960
  59.9018098  77.0958428 140.9954701  55.3026982  76.8747142 132.8667487
  54.5126036  77.1304671 132.3907598  55.7938230  77.6895480 132.9719528
  69.3190792  84.2152381 135.6172768  70.1408236  83.8132569 135.3355450
  69.3153195  84.1120616 136.5688884  57.2541728  77.2391721 129.8250964
  56.4572891  77.3510416 130.3434460  57.0267320  77.5778374 128.9591854
  63.0847395  83.7636425 137.7733479  63.1491828  84.2256832 138.6091650
  62.3758319  83.1333790 137.9015788  53.5864685  77.1277633 135.2982478
  53.8372724  78.0124643 135.5640054  54.1224234  76.9482234 134.5257570
  77.4096785  80.5591130 131.9657740  76.6560493  79.9898528 131.8101744
  77.5444326  80.5253794 132.9128374  62.7995413  85.4304532 127.6412459
  62.6641088  86.2756068 128.0697307  63.3405226  85.6323810 126.8778393
  59.2862753  71.5096112 144.3026814  58.8929698  70.9562311 144.9774458
  60.1028893  71.8206691 144.6933332  56.2524811  82.9479970 128.2140384
  56.7649331  83.7423220 128.3645949  56.9047523  82.2506261 128.1473985
  58.0619695  86.0645727 130.2963137  58.2386324  86.9863691 130.1084121
  58.8576529  85.7504146 130.7257517  62.2030714  72.9253991 141.8947071
  62.9440427  73.5261144 141.8151533  62.4348637  72.1831629 141.3365113
  57.3472052  78.1110358 140.1725300  57.2325567  77.2095616 140.4732399
  56.4916570  78.3574055 139.8210117  64.4263890  86.0528099 141.7712801
  63.9827744  85.2664477 141.4533705  65.0881103  86.2407249 141.1056692
  59.1851011  87.5823900 136.2973479  59.7358436  87.4540964 135.5250473
  58.3462487  87.8818789 135.9468372  66.5245128  86.3330899 139.7994202
  66.5063603  87.1539780 139.3074471  67.4465048  86.2084974 140.0244343
  62.9818182  83.8475028 140.6417711  63.5146519  83.0863316 140.4117019
  62.4532263  83.5548680 141.3841865  66.1487877  68.9535094 136.1711352
  65.8052146  69.8436736 136.0950463  66.5166839  68.7636752 135.3080937
  54.2173727  81.2768625 128.9899954  55.0548949  81.6865633 128.7733662
  54.3951995  80.3368067 128.9600148  66.1138159  78.9443705 124.6783787
  65.5984783  79.7148310 124.9172175  65.8415468  78.2708841 125.3016849
  63.6985270  73.7893406 129.7369026  62.8426867  73.4000256 129.5574665
  64.1112222  73.8685367 128.8768811  65.2284417  71.3239749 134.1360586
  64.7249213  71.2869884 133.3228391  65.5215024  72.2332492 134.1957242
  61.4727303  71.4078479 133.1426767  62.3380300  71.2121288 132.7832657
  61.5404812  71.1788831 134.0696124  71.0872434  81.6976060 126.6136961
  70.3101876  81.3587219 126.1692123  71.7663915  81.7028683 125.9391926
  65.9024463  76.8170797 126.5043569  65.5974598  77.1316946 127.3553712
  66.8554905  76.8952217 126.5470902  64.3470894  82.9761021 128.1536523
  63.8192256  82.2413780 127.8409760  63.8458397  83.7535697 127.9076491
  69.3263740  81.1710041 133.2703569  68.6687415  81.8609302 133.3583698
  70.1304140  81.5606473 133.6137555  59.0789622  73.6380687 130.5143134
  59.6533374  73.4155868 129.7816327  59.6660604  73.7069381 131.2671735
  68.1369199  79.5254414 131.3207511  68.6501081  80.1584406 131.8229220
  68.7870423  78.9255609 130.9550871  59.4059209  75.6685148 124.5339019
  58.5696521  76.0059834 124.8548294  59.2663979  75.5334128 123.5966156
  61.3812290  70.5121936 129.2418204  60.7276702  70.1970953 128.6174818
  61.3392764  69.8897676 129.9678026  62.4923495  80.7941231 121.1571496
  61.5850556  80.5630484 121.3562645  62.9894527  79.9978850 121.3445477
  65.3991573  89.5038738 124.0768182  64.7253272  89.8070435 124.6853140
  65.7857395  90.3067818 123.7273639  64.6150030  77.0003869 133.5665851
  63.6972591  77.2218816 133.4087539  65.0310174  77.0750180 132.7077559
  65.3985078  78.3995285 128.6968531  66.1456897  78.9116682 128.3875653
  65.6676667  78.0779338 129.5572925  63.6711728  80.8953826 125.6795486
  62.7622947  80.6112859 125.7767955  63.7006812  81.3152904 124.8198793
  68.9030995  84.5060415 129.4486653  68.4493323  83.6651325 129.5051844
  68.2724962  85.1421814 129.7861433  67.8463915  75.4352401 130.6787321
  67.1086672  74.9229787 131.0097563  68.0990689  74.9952783 129.8670598
  67.3463935  86.3436912 130.3836471  67.6386909  86.9041969 129.6648837
  67.8562555  86.6365473 131.1389631  67.9475542  68.2128653 131.2729090
  68.2534419  67.3526017 130.9855005  68.6728147  68.8046273 131.0728084
  54.2399898  78.6159340 129.6610688  54.0424298  78.0228701 128.9361755
  53.6846562  78.3111550 130.3786627  62.2196622  78.5082446 131.7805281
  62.2745232  77.5556283 131.7047758  61.4087824  78.6641885 132.2646580
  63.3687816  82.4362569 123.0183564  62.9307246  81.7198428 122.5589202
  64.1098257  82.6638684 122.4568656  60.1588982  77.1259506 129.5395660
  59.3456848  77.4253677 129.9460852  60.6547976  76.7315195 130.2570142
  62.3097560  87.1217263 131.4729925  62.2673739  87.3478109 130.5438457
  63.2260259  86.8880638 131.6215726  65.7563194  77.5901331 138.3710554
  66.1112581  77.8172804 139.2305020  66.4035325  77.9219707 137.7487809
  71.4860931  80.7119766 129.0759883  71.3478829  80.9021362 128.1481072
  71.1297149  81.4739149 129.5327934  59.6503057  74.6977862 135.1556895
  60.2902436  74.5566621 134.4579858  58.8180587  74.4112375 134.7795497
  71.5130310  82.7796293 134.0871154  71.9466817  82.6871583 134.9354208
  72.2261891  82.7553794 133.4491170  60.4263361  83.9980292 131.2691887
  61.2203959  83.5030612 131.0674462  59.7155053  83.4698155 130.9059593
  65.2458205  86.3798388 135.6204255  65.2995227  86.9489324 136.3881971
  64.3772987  86.5500273 135.2558292  56.7346124  78.1423374 127.3451640
  55.8043712  78.0807829 127.5621602  56.8303596  77.6199327 126.5488281
  56.6531673  74.6678187 129.9329882  56.9138490  75.5823520 129.8239042
  57.4748846  74.2002629 130.0826495  58.1256599  76.0815944 137.1028706
  58.7979652  75.8733306 136.4541355  57.2986385  75.8838030 136.6633939
  72.3745860  82.8219994 136.6204040  72.5681750  83.7265805 136.8663315
  72.2746478  82.3627413 137.4542625  64.0282171  72.7077885 139.1194367
  63.3810086  73.4067834 139.0258844  64.7983186  73.1414029 139.4870615
  67.4360968  82.9726737 142.1944920  67.2846475  82.7437289 141.2775004
  67.4265648  83.9297338 142.2076265  64.2046305  80.5458650 137.1791187
  65.1338365  80.6969809 137.0060154  63.7837335  80.6342670 136.3239833
  63.0034637  84.5709314 134.9489724  62.8645722  84.2028098 135.8215663
  62.2149233  85.0856953 134.7773682  63.5982789  89.6718410 126.2915261
  63.7734544  89.2006454 127.1060884  62.9115577  90.2984177 126.5196522
  64.5539852  83.9490917 132.3378562  64.2189684  83.9091687 133.2336212
  64.0543798  83.2835633 131.8648972  58.5284096  79.3558547 137.8631143
  58.3903894  78.6238786 138.4642682  59.4389019  79.2667447 137.5815331
  67.4899043  81.2946951 122.6115622  66.8728214  80.5693779 122.5148675
  67.0215532  82.0556311 122.2682696  61.1566396  79.0678506 137.3514823
  61.8666015  78.4271698 137.3101441  61.1135705  79.3191401 138.2741004
  69.1453175  86.0045859 140.2721402  69.0865721  85.3205080 139.6051985
  69.5472694  86.7464849 139.8202028  59.8695330  76.0543724 139.1710463
  59.3332687  75.6034462 139.8232059  59.2812039  76.1889633 138.4280927
  58.1643874  92.8207773 133.0655121  58.4040472  93.4526297 133.7434140
  57.3213070  92.4695813 133.3520480  59.2797589  75.5132375 121.7336926
  58.4027056  75.3921176 121.3699173  59.7555342  74.7218454 121.4815815
  69.1470582  83.9685443 138.5035382  68.2597361  83.6311365 138.6261781
  69.7169133  83.2368475 138.7404147  50.7999730  80.3009535 131.8278433
  51.4870769  79.9871265 131.2399449  50.6447858  81.2050900 131.5545685
  55.6034452  75.1899732 136.2563457  55.5192640  74.5825401 135.5213867
  54.7817158  75.6808750 136.2572953  62.6771736  88.6286896 135.4696625
  62.6041907  89.4341867 135.9815930  62.2349129  88.8278861 134.6444647
  62.4661515  87.8658666 128.9799447  61.6829037  88.4080346 129.0737671
  63.1654261  88.3832645 129.3793688  65.7758166  73.6753295 131.6233652
  66.2726865  72.9223257 131.3034722  65.0045147  73.7117612 131.0576861
  73.6287923  79.3793661 133.2651944  73.6177799  80.2618376 132.8945877
  72.7605302  79.0265212 133.0706481  65.1370419  88.5273730 137.6254784
  65.8498392  89.1621195 137.5530685  64.6460448  88.6237596 136.8094786
  66.8587946  82.4324982 129.1972075  65.9244225  82.5526445 129.0276780
  67.0364615  81.5297449 128.9332085  62.3593134  75.8170678 131.3505337
  61.9890922  75.2641719 132.0386242  62.8552227  75.2128812 130.7980337
  70.2460498  78.2742302 129.7322110  70.7120950  79.1070293 129.6582412
  70.6967998  77.8087283 130.4367368  60.1882333  86.2768173 138.4460355
  60.8891792  86.9104656 138.5989749  59.7177448  86.6182905 137.6855994
  68.3136729  84.6186123 126.7308262  68.5896573  84.5042718 127.6402136
  67.4441227  84.2203608 126.6920435  68.2177160  70.6422889 133.7713011
  67.3040240  70.8727115 133.9395218  68.6470262  70.7261333 134.6227043
  67.9883619  78.8312781 136.2712905  67.3355069  79.0788688 135.6165358
  68.3663999  78.0176919 135.9375382  64.9490793  88.8672474 130.3741075
  65.1313187  88.0494130 130.8368828  65.7723779  89.0840166 129.9365965
  65.2832958  87.7940659 127.6356124  65.8120725  87.2833114 127.0226286
  65.5461178  87.4783189 128.5001657  64.0371192  79.5732592 142.7578942
  63.3611829  79.4726721 143.4281317  64.8598826  79.4171805 143.2214939
  55.7850051  85.8104528 135.3791457  56.3703488  85.0648216 135.5119362
  55.5874889  86.1208485 136.2628121  58.6388706  88.8455776 130.3953900
  57.9699081  89.3301903 129.9117940  58.5001576  89.0924996 131.3097278
  50.3767706  78.3810128 134.0995900  50.4151805  77.8473719 134.8933019
  49.8707998  77.8545334 133.4806878  62.7793975  90.8799519 136.9936558
  63.3312283  91.0431141 137.7585643  63.1200168  91.4703957 136.3216583
  57.7558468  73.2274669 137.5958443  57.8199794  74.0889500 137.1835840
  57.6925588  72.6148671 136.8630801  57.2310740  75.2997801 141.2431477
  57.8582779  74.9174879 141.8569001  56.3738659  75.0812003 141.6087170
  67.6304849  85.7060777 142.8485212  68.1744753  86.3190735 142.3540167
  67.0491694  86.2640355 143.3652225  54.0076283  77.1074231 127.1749832
  54.3029724  76.1984909 127.1216886  53.1064319  77.0861970 126.8530834
  65.9162362  88.8281495 133.9800240  65.7913501  88.0271234 133.4711186
  66.5741453  89.3227688 133.4914210  57.5370530  75.1830227 133.1577380
  56.8157116  75.7966195 133.0184854  58.3263786  75.7187992 133.0794026
  67.9797270  86.6290515 135.6079790  67.0327606  86.5095866 135.5358117
  68.3280043  85.7413013 135.6906052  60.3396844  72.5184654 139.4318032
  60.8631246  72.7646950 140.1944342  60.1209177  73.3504688 139.0121170
  55.7364125  74.7888328 127.2989157  55.4076831  73.9085707 127.1164263
  56.0903495  74.7335997 128.1865546  64.9843704  86.4243231 131.8084143
  64.8368666  85.4959938 131.9891713  65.8097197  86.4463322 131.3241218
  58.8505948  75.0761298 127.6664635  59.1902020  75.6047219 126.9443243
  59.2978068  75.4141704 128.4423201  68.5877826  87.2471790 132.8949015
  69.5124373  87.0414651 132.7573466  68.4193129  86.9988191 133.8038357
  61.5449389  73.4598349 137.1167703  61.2046209  72.6606162 137.5188383
  60.8388395  73.7600060 136.5444536  62.1965861  70.5447661 135.5695026
  63.0191930  70.0708139 135.4473916  62.4403924  71.3238145 136.0693712
  60.8374095  73.5735920 125.8657927  61.5582458  73.9517172 125.3621644
  60.2139399  74.2924796 125.9692905  64.9805218  74.2781069 126.8016260
  65.1968832  75.1605706 126.5005088  64.4999285  73.8867282 126.0721902
  59.7204439  77.2366782 133.3787004  59.5749020  77.5507085 134.2711286
  59.2429643  77.8551682 132.8257903  61.5800822  74.2269330 133.4267894
  61.5662391  73.3310423 133.0900192  62.2973250  74.2339994 134.0606180
  63.4326953  74.6606670 135.4721021  63.1744731  75.5823741 135.4705352
  62.9011993  74.2637105 136.1621485  68.3773142  87.7657457 128.2511107
  68.5510019  87.2003880 127.4984959  68.8702033  88.5658352 128.0690597
  54.1950102  79.7772126 136.3174666  53.6503570  80.5531934 136.4494940
  55.0729451  80.1242931 136.1593787  60.9837718  73.1083710 128.6955464
  61.1053629  72.1800356 128.8946352  60.6939761  73.1222396 127.7833779
  63.8528909  70.7938621 131.8322184  63.8750605  70.8577954 130.8774163
  64.2696968  69.9543129 132.0262690  74.2312533  80.5293880 129.8701406
  74.6743679  79.7801205 129.4720530  73.3539043  80.5204016 129.4875138
  69.3648314  87.0824222 125.3508005  70.0599219  87.7030914 125.5695320
  69.7071464  86.2319573 125.6260383  54.9816123  78.9042022 139.2104822
  54.2397859  79.0524658 139.7969453  54.6608868  79.1650288 138.3471572
  71.2639737  84.5323927 126.8795336  71.7891061  84.8711200 126.1544656
  71.1762090  83.5970942 126.6958470  62.9259786  88.4458001 139.0085212
  63.2346912  88.2007147 139.8807912  63.7235268  88.6504639 138.5204083
  62.9480398  90.5995910 131.2390589  62.5085388  90.1072289 131.9323446
  63.6988515  90.0568878 130.9982664  55.4272737  86.7907451 131.2415217
  56.2530757  86.4911223 130.8613861  55.0766789  86.0215074 131.6905006
  60.3954270  86.1433919 133.3112891  59.7734280  85.4804624 133.0115118
  61.0659137  86.1695051 132.6286538  53.6281342  84.7093778 132.2004151
  52.7913250  84.2815952 132.0188152  53.6004988  84.9026221 133.1374942
  60.4678798  74.6215707 142.9045397  60.5166953  75.4977830 142.5223166
  61.0101312  74.0793101 142.3317040  70.9533643  85.1656831 142.1846534
  70.1629187  85.1480970 141.6451033  70.7166998  85.7045124 142.9395570
  71.0731518  82.0149297 139.4979262  71.1229523  81.8499305 140.4394785
  70.9645442  81.1476556 139.1077143  59.9567777  84.6937843 126.7871351
  60.1055898  85.3773307 126.1338024  60.7634221  84.6742933 127.3020807
  68.3635281  77.9980225 140.8138569  69.2645144  77.8586690 140.5222567
  68.4383255  78.1634680 141.7536746  62.6978086  75.3747080 139.6591755
  61.8281396  75.6680646 139.3874344  62.9337567  75.9587525 140.3799019
  72.5749715  84.4346239 139.7421284  72.2834524  84.7976219 140.5784745
  71.9621847  83.7213247 139.5634616  73.7745398  81.9999118 132.2623854
  74.6092289  82.4388922 132.4261414  73.9104526  81.5237772 131.4432100
  70.8236904  79.5578853 138.2101342  71.2991025  79.7506500 137.4020193
  69.9002469  79.6138039 137.9644725  57.7120410  80.7203020 127.7932420
  57.4666452  79.8165350 127.9912630  57.8816325  80.7220171 126.8511898
  65.4017120  71.5926697 137.1757176  65.9199064  72.3287724 136.8503664
  65.0472253  71.8990690 138.0103935  56.9816058  76.4531378 125.2918582
  56.2885303  76.5275733 124.6358618  56.7367810  75.6891722 125.8140098
  65.6529714  68.0126979 132.6958072  65.9331468  67.3450168 133.3218499
  66.4380321  68.2056075 132.1832736  63.4563183  87.1885973 124.2583099
  62.8837150  87.8076160 123.8053570  64.0295976  87.7385335 124.7923021
  69.5238573  76.4344613 136.4429647  70.4755995  76.5342711 136.4641871
  69.3542023  75.6422882 136.9527732  67.5452952  73.5200197 136.6289048
  66.9502884  73.8005209 135.9335537  67.2602649  74.0094097 137.4005789
  66.6760442  87.4723123 125.3891681  67.6091116  87.4068685 125.5924556
  66.5883655  88.3079390 124.9306214  69.3048459  86.7888994 122.3495628
  69.2262091  86.4548857 123.2431386  70.1258126  87.2810762 122.3487101
  72.0026650  79.6550733 135.5571947  71.9702970  78.7166734 135.7431631
  72.6127274  79.7334770 134.8237772  63.8409981  78.5246786 121.5999151
  64.7869086  78.3952994 121.6687569  63.4624226  77.7861448 122.0768579
  72.1521139  76.4461776 135.6030230  71.6360187  75.6620233 135.4160159
  73.0361087  76.1180493 135.7676750  69.8131866  70.1902792 131.5626043
  69.6156687  69.8817880 132.4469375  70.4231571  70.9164431 131.6923973
  77.8203200  80.7166740 134.6977984  78.5506589  80.4552028 135.2585687
  77.2110146  79.9795462 134.7380052  75.9018497  78.8574602 135.2952435
  75.1751661  78.7230567 134.6868927  75.4865784  79.1651431 136.1009153
  63.7248674  82.5764532 143.0599808  64.6451683  82.7543131 143.2539855
  63.6898257  81.6320577 142.9079507  62.0252898  76.4496762 121.5354036
  61.1184354  76.1529875 121.6116750  62.3028879  76.1526580 120.6688323
  52.9430839  77.7703126 131.9853083  52.6233623  76.9168434 131.6927457
  52.3964267  77.9851704 132.7411050  56.7210746  80.4865567 135.7022589
  56.9396756  81.4182675 135.7210623  57.1336520  80.1273541 136.4877393
  63.6414964  70.9933652 127.6898278  62.8315692  70.6480737 128.0653524
  64.3299381  70.6841196 128.2785889  65.5705512  70.0711699 129.3122574
  66.1236551  70.4907152 129.9712597  65.8075599  69.1447447 129.3545530
  61.5938612  76.0598773 145.0925338  61.4935338  77.0093129 145.0237429
  61.3760154  75.7317011 144.2201408  60.7951683  73.3083698 121.6766016
  61.6570847  73.6338596 121.9361833  60.9802027  72.5215193 121.1639081
  52.8119099  81.3906037 133.9546204  52.1182570  80.9759990 133.4416159
  53.5592090  81.4326574 133.3579623  68.9484319  72.1812224 128.8201239
  68.3682988  72.8397028 128.4379291  68.6820252  71.3589569 128.4088656
  67.3987886  71.5817282 131.0222559  67.8987664  71.6933816 130.2136878
  68.0423494  71.2778335 131.6623367  61.4569882  79.4895911 143.9090400
  60.9736963  80.2896271 144.1154289  61.5430821  79.5003856 142.9557844
  54.7255841  81.3224291 131.8312219  54.7026529  81.4211978 130.8794102
  55.0356478  82.1689442 132.1529385  57.3843219  83.3800446 135.9458834
  58.3386473  83.3484388 135.8788765  57.1855743  82.9191070 136.7609060
  57.9742601  81.9501562 138.5129631  58.7935490  82.4445641 138.5364469
  58.2479409  81.0333530 138.4847199  67.7309197  74.3412314 127.8757587
  66.8435052  74.6261965 127.6577782  68.1463187  74.1806078 127.0284864
  71.0823734  74.3658835 131.5911926  71.8584124  74.8555288 131.8636543
  70.3571868  74.7916890 132.0483796  73.5196292  75.0786455 132.6485867
  74.1140783  74.8382191 131.9379175  73.5922876  74.3593585 133.2759403
  55.7393448  88.9220066 132.9629031  55.6047916  88.1620466 132.3967030
  55.3225510  89.6460965 132.4957820  66.8752411  84.1056989 121.9705607
  67.5788261  84.3106992 122.5863262  66.1515060  84.6733751 122.2354690
  67.7050221  79.8566850 128.0907877  67.6485423  80.3135402 127.2515509
  68.2578564  79.0957535 127.9130720  71.5155027  75.6456582 128.9157996
  71.2591961  75.2453218 129.7466204  70.8907895  76.3600376 128.7908136
  75.8267365  78.3852655 131.4229288  75.2666923  78.4545845 132.1960850
  75.2210868  78.2093640 130.7028784  58.8962574  89.8189383 133.1747474
  58.7794958  90.7634815 133.0726164  58.0755020  89.5162944 133.5633273
  68.7839108  84.5439518 124.0204067  69.6184712  84.1120717 123.8381542
  68.6223451  84.3721532 124.9480961  68.4385001  81.0471632 125.3860406
  68.3833804  80.8815903 124.4448850  67.8131056  81.7547665 125.5422596
  53.2277515  76.2839696 139.2121828  53.8736379  75.7738650 139.7009054
  53.0194667  77.0208378 139.7865254  65.7530908  83.3520543 144.7113969
  66.6222067  83.5261196 144.3500604  65.2737659  84.1714960 144.5889698
  61.7481126  70.5479741 124.9645725  61.7359796  71.4921581 125.1213995
  62.6404548  70.3649886 124.6705186  59.9217088  90.4717644 136.3903403
  60.8244335  90.5041255 136.7069898  59.6954458  89.5418095 136.4049738
  61.6770690  89.2248631 133.0513481  60.7266321  89.2250493 132.9377853
  61.9803176  88.4781366 132.5349516  65.5633245  67.1422517 129.2191661
  64.7965641  66.5881004 129.3648344  65.9743950  67.2144386 130.0805813
  57.5675006  73.4307313 143.3096843  58.4306468  73.0744118 143.5200167
  56.9940417  73.0921208 143.9972247  77.4123383  95.0609169 134.1159244
  78.0501793  94.9415917 133.4122584  77.2944226  96.0090013 134.1747196
  74.2213090  95.0136598 134.0520768  73.8831601  94.8977662 133.1641303
  75.0902858  94.6127763 134.0321774  70.0799905  96.8672074 130.0417659
  69.5164771  96.7762011 129.2733947  69.9652300  96.0471978 130.5220152
  74.7032873  96.1671449 140.0106974  74.6921513  95.7724248 139.1387477
  74.8653512  95.4337522 140.6040745  67.6264337  98.3623266 132.8801880
  68.4185629  98.0214090 132.4648179  67.8660987  98.4718241 133.8004033
  75.6599464 100.5343042 125.3532124  75.0087444 101.1197122 124.9666138
  76.4543827 101.0649237 125.4127162  69.5855091  97.6232179 125.7519258
  70.3585967  97.0761166 125.6132134  69.9380490  98.4876428 125.9633720
  71.4240134  98.9508561 138.9586158  71.1330000  99.8554192 138.8432824
  72.0597118  98.9925089 139.6730227  72.3496341  96.3285410 135.5487517
  72.9459913  96.1041432 134.8344480  72.4071312  95.5870155 136.1512965
  71.9221369  93.7824845 123.3837708  72.1746890  93.2606366 122.6221171
  70.9845928  93.6190990 123.4864392  76.9664652  92.7860623 131.1912452
  77.7527741  92.3680046 130.8402869  77.2303356  93.6906715 131.3594100
  77.1374729  98.2233474 125.8901108  76.5020562  98.2968100 126.6022013
  76.8072136  98.8127072 125.2120188  82.3673079  92.7235856 132.0945430
  83.0998251  92.1535073 132.3283260  81.6112435  92.3357457 132.5351936
  71.6417658  95.6852951 125.5862083  71.5253916  95.0097854 126.2543168
  71.7519918  95.1985325 124.7694236  73.9849199  95.1463098 129.2908773
  73.6207406  94.6193719 130.0021694  74.8416315  94.7561567 129.1175258
  79.8898499  86.4357431 136.5540039  79.5581824  87.3052842 136.3301254
  79.2944113  86.1193715 137.2334069  73.6254686  90.1752998 124.2870121
  73.7929088  91.0433234 124.6540592  73.4351855  90.3380279 123.3631410
  76.3830019  98.6369977 135.9535951  76.0830742  99.5395015 135.8451759
  76.0381078  98.3702160 136.8057104  69.8342500  95.0883773 131.9872656
  68.9092997  94.9559988 132.1950348  70.0826914  95.8677993 132.4842598
  79.7827163  91.1552517 133.6333389  78.8744040  91.0867925 133.3392150
  79.7314758  91.6324462 134.4615214  73.6043907  92.6310655 125.2716788
  73.4843532  93.0767706 126.1102268  72.9096495  92.9795973 124.7130326
  67.1951311  94.7317047 132.8216445  67.3243693  94.9851526 133.7355857
  66.5148763  95.3244755 132.5021100  71.3650799 105.4014297 128.9206919
  71.2874828 106.3522122 128.9995400  70.7612442 105.0560169 129.5781845
  73.8568028  92.5742162 141.5768286  73.0801363  93.1336082 141.5671151
  74.4958592  93.0598945 142.0983156  81.6488809  89.3568955 135.4111263
  81.0063189  89.6501488 134.7651057  81.1443738  89.2421875 136.2164459
  79.3028973  93.1032128 126.0997122  80.2146829  93.3359515 125.9244820
  78.7938620  93.6869173 125.5372201  72.1114401  95.3827616 141.1386253
  72.8529085  95.9212660 140.8621077  71.4051386  96.0093904 141.2957805
  77.5869740  97.5256756 139.7358415  77.9953096  97.0839167 138.9913047
  76.8647002  96.9509384 139.9892607  73.9400810  92.4629363 137.1091971
  74.7862006  92.8868776 137.2526620  73.8799448  91.8062987 137.8030535
  77.9098555  98.0857947 133.4910703  77.2807418  98.2503661 132.7886771
  77.5224217  98.4999556 134.2621667  81.7887787  99.0212385 130.8455067
  81.1038825  99.4011286 130.2952100  81.8731636  99.6307711 131.5787015
  77.0900256  90.1233731 138.7673145  76.8461188  90.8775792 138.2307421
  77.3660186  90.5019079 139.6020392  79.0438719  96.6672344 137.4450411
  79.2555614  97.3104104 136.7684792  78.9968467  95.8334660 136.9772341
  76.6464948  89.2790164 134.3486983  75.7849427  89.5771418 134.6403720
  76.6727382  89.4960563 133.4168015  73.4626517  97.8232355 130.7560789
  73.9264862  98.1020058 129.9665411  73.1983315  96.9215799 130.5733879
  70.3550598  97.3703836 133.6940552  70.9251955  97.7991105 133.0558036
  70.9458710  97.0886421 134.3924737  72.3995403  93.9455507 127.5650354
  73.1019446  94.3976551 128.0324280  72.0676031  93.3039326 128.1930247
  70.8475765  92.5367264 141.9401563  70.2174425  93.2183545 142.1736960
  70.7411852  92.4250345 140.9954701  66.1420737  92.2039060 132.8667487
  65.3519791  92.4596588 132.3907598  66.6331984  93.0187398 132.9719528
  80.1584547  99.5444299 135.6172768  80.9801990  99.1424486 135.3355450
  80.1546949  99.4412533 136.5688884  68.0935482  92.5683639 129.8250964
  67.2966646  92.6802333 130.3434460  67.8661075  92.9070291 128.9591854
  73.9241150  99.0928342 137.7733479  73.9885582  99.5548750 138.6091650
  73.2152074  98.4625707 137.9015788  64.4258440  92.4569550 135.2982478
  64.6766478  93.3416560 135.5640054  64.9617988  92.2774152 134.5257570
  88.2490540  95.8883048 131.9657740  87.4954248  95.3190446 131.8101744
  88.3838081  95.8545712 132.9128374  73.6389168 100.7596450 127.6412459
  73.5034842 101.6047986 128.0697307  74.1798980 100.9615728 126.8778393
  70.1256507  86.8388030 144.3026814  69.7323453  86.2854228 144.9774458
  70.9422648  87.1498608 144.6933332  67.0918565  98.2771888 128.2140384
  67.6043086  99.0715138 128.3645949  67.7441278  97.5798178 128.1473985
  68.9013450 101.3937644 130.2963137  69.0780078 102.3155609 130.1084121
  69.6970283 101.0796063 130.7257517  73.0424468  88.2545909 141.8947071
  73.7834182  88.8553062 141.8151533  73.2742391  87.5123547 141.3365113
  68.1865806  93.4402276 140.1725300  68.0719321  92.5387533 140.4732399
  67.3310324  93.6865973 139.8210117  75.2657644 101.3820016 141.7712801
  74.8221498 100.5956395 141.4533705  75.9274858 101.5699167 141.1056692
  70.0244765 102.9115818 136.2973479  70.5752190 102.7832881 135.5250473
  69.1856241 103.2110707 135.9468372  77.3638882 101.6622816 139.7994202
  77.3457357 102.4831697 139.3074471  78.2858802 101.5376892 140.0244343
  73.8211936  99.1766946 140.6417711  74.3540273  98.4155234 140.4117019
  73.2926017  98.8840598 141.3841865  76.9881631  84.2827012 136.1711352
  76.6445901  85.1728653 136.0950463  77.3560594  84.0928669 135.3080937
  65.0567482  96.6060542 128.9899954  65.8942704  97.0157551 128.7733662
  65.2345749  95.6659984 128.9600148  76.9531914  94.2735623 124.6783787
  76.4378537  95.0440227 124.9172175  76.6809222  93.6000759 125.3016849
  74.5379025  89.1185324 129.7369026  73.6820621  88.7292174 129.5574665
  74.9505977  89.1977284 128.8768811  76.0678172  86.6531667 134.1360586
  75.5642967  86.6161802 133.3228391  76.3608778  87.5624410 134.1957242
  72.3121057  86.7370397 133.1426767  73.1774054  86.5413205 132.7832657
  72.3798566  86.5080748 134.0696124  81.9266188  97.0267978 126.6136961
  81.1495631  96.6879137 126.1692123  82.6057669  97.0320601 125.9391926
  76.7418217  92.1462715 126.5043569  76.4368353  92.4608864 127.3553712
  77.6948659  92.2244135 126.5470902  75.1864649  98.3052938 128.1536523
  74.6586010  97.5705698 127.8409760  74.6852152  99.0827615 127.9076491
  80.1657495  96.5001959 133.2703569  79.5081169  97.1901220 133.3583698
  80.9697894  96.8898391 133.6137555  69.9183377  88.9672605 130.5143134
  70.4927128  88.7447786 129.7816327  70.5054359  89.0361299 131.2671735
  78.9762954  94.8546331 131.3207511  79.4894835  95.4876323 131.8229220
  79.6264178  94.2547527 130.9550871  70.2452964  90.9977066 124.5339019
  69.4090276  91.3351752 124.8548294  70.1057733  90.8626045 123.5966156
  72.2206044  85.8413853 129.2418204  71.5670457  85.5262871 128.6174818
  72.1786518  85.2189594 129.9678026  73.3317249  96.1233149 121.1571496
  72.4244311  95.8922402 121.3562645  73.8288281  95.3270768 121.3445477
  76.2385328 104.8330656 124.0768182  75.5647027 105.1362352 124.6853140
  76.6251150 105.6359736 123.7273639  75.4543785  92.3295787 133.5665851
  74.5366346  92.5510734 133.4087539  75.8703928  92.4042097 132.7077559
  76.2378832  93.7287203 128.6968531  76.9850651  94.2408600 128.3875653
  76.5070422  93.4071255 129.5572925  74.5105483  96.2245743 125.6795486
  73.6016702  95.9404776 125.7767955  74.5400566  96.6444822 124.8198793
  79.7424750  99.8352333 129.4486653  79.2887077  98.9943243 129.5051844
  79.1118717 100.4713731 129.7861433  78.6857670  90.7644319 130.6787321
  77.9480426  90.2521705 131.0097563  78.9384443  90.3244701 129.8670598
  78.1857689 101.6728830 130.3836471  78.4780664 102.2333887 129.6648837
  78.6956310 101.9657391 131.1389631  78.7869297  83.5420571 131.2729090
  79.0928174  82.6817934 130.9855005  79.5121902  84.1338191 131.0728084
  65.0793653  93.9451258 129.6610688  64.8818053  93.3520618 128.9361755
  64.5240317  93.6403468 130.3786627  73.0590377  93.8374364 131.7805281
  73.1138986  92.8848200 131.7047758  72.2481579  93.9933803 132.2646580
  74.2081570  97.7654487 123.0183564  73.7701000  97.0490346 122.5589202
  74.9492011  97.9930602 122.4568656  70.9982737  92.4551424 129.5395660
  70.1850602  92.7545594 129.9460852  71.4941731  92.0607113 130.2570142
  73.1491314 102.4509181 131.4729925  73.1067493 102.6770027 130.5438457
  74.0654013 102.2172555 131.6215726  76.5956948  92.9193248 138.3710554
  76.9506336  93.1464721 139.2305020  77.2429079  93.2511625 137.7487809
  82.3254685  96.0411684 129.0759883  82.1872584  96.2313280 128.1481072
  81.9690904  96.8031067 129.5327934  70.4896811  90.0269779 135.1556895
  71.1296191  89.8858538 134.4579858  69.6574342  89.7404293 134.7795497
  82.3524065  98.1088211 134.0871154  82.7860571  98.0163500 134.9354208
  83.0655645  98.0845712 133.4491170  71.2657115  99.3272210 131.2691887
  72.0597714  98.8322530 131.0674462  70.5548808  98.7990073 130.9059593
  76.0851960 101.7090305 135.6204255  76.1388982 102.2781242 136.3881971
  75.2166741 101.8792190 135.2558292  67.5739879  93.4715291 127.3451640
  66.6437467  93.4099747 127.5621602  67.6697351  92.9491244 126.5488281
  67.4925428  89.9970104 129.9329882  67.7532245  90.9115438 129.8239042
  68.3142600  89.5294547 130.0826495  68.9650353  91.4107861 137.1028706
  69.6373406  91.2025224 136.4541355  68.1380140  91.2129947 136.6633939
  83.2139614  98.1511912 136.6204040  83.4075504  99.0557722 136.8663315
  83.1140232  97.6919331 137.4542625  74.8675925  88.0369802 139.1194367
  74.2203840  88.7359752 139.0258844  75.6376940  88.4705946 139.4870615
  78.2754723  98.3018655 142.1944920  78.1240229  98.0729206 141.2775004
  78.2659402  99.2589256 142.2076265  75.0440059  95.8750567 137.1791187
  75.9732119  96.0261727 137.0060154  74.6231089  95.9634588 136.3239833
  73.8428391  99.9001232 134.9489724  73.7039477  99.5320016 135.8215663
  73.0542987 100.4148871 134.7773682  74.4376543 105.0010328 126.2915261
  74.6128299 104.5298371 127.1060884  73.7509331 105.6276094 126.5196522
  75.3933606  99.2782834 132.3378562  75.0583439  99.2383604 133.2336212
  74.8937552  98.6127550 131.8648972  69.3677850  94.6850464 137.8631143
  69.2297648  93.9530703 138.4642682  70.2782774  94.5959365 137.5815331
  78.3292798  96.6238869 122.6115622  77.7121969  95.8985697 122.5148675
  77.8609286  97.3848229 122.2682696  71.9960151  94.3970424 137.3514823
  72.7059769  93.7563616 137.3101441  71.9529459  94.6483319 138.2741004
  79.9846930 101.3337777 140.2721402  79.9259476 100.6496997 139.6051985
  80.3866448 102.0756767 139.8202028  70.7089085  91.3835642 139.1710463
  70.1726442  90.9326380 139.8232059  70.1205793  91.5181550 138.4280927
  69.0037628 108.1499691 133.0655121  69.2434227 108.7818215 133.7434140
  68.1606825 107.7987731 133.3520480  70.1191344  90.8424293 121.7336926
  69.2420810  90.7213094 121.3699173  70.5949097  90.0510371 121.4815815
  79.9864337  99.2977361 138.5035382  79.0991116  98.9603283 138.6261781
  80.5562888  98.5660392 138.7404147  61.6393484  95.6301453 131.8278433
  62.3264524  95.3163183 131.2399449  61.4841613  96.5342817 131.5545685
  66.4428206  90.5191649 136.2563457  66.3586395  89.9117319 135.5213867
  65.6210913  91.0100668 136.2572953  73.5165490 103.9578813 135.4696625
  73.4435662 104.7633785 135.9815930  73.0742883 104.1570779 134.6444647
  73.3055270 103.1950583 128.9799447  72.5222792 103.7372264 129.0737671
  74.0048015 103.7124563 129.3793688  76.6151920  89.0045213 131.6233652
  77.1120620  88.2515175 131.3034722  75.8438902  89.0409529 131.0576861
  84.4681677  94.7085578 133.2651944  84.4571554  95.5910294 132.8945877
  83.5999057  94.3557129 133.0706481  75.9764174 103.8565647 137.6254784
  76.6892146 104.4913112 137.5530685  75.4854202 103.9529513 136.8094786
  77.6981701  97.7616900 129.1972075  76.7637979  97.8818363 129.0276780
  77.8758369  96.8589367 128.9332085  73.1986889  91.1462596 131.3505337
  72.8284676  90.5933636 132.0386242  73.6945981  90.5420729 130.7980337
  81.0854252  93.6034219 129.7322110  81.5514704  94.4362211 129.6582412
  81.5361753  93.1379201 130.4367368  71.0276087 101.6060091 138.4460355
  71.7285547 102.2396574 138.5989749  70.5571202 101.9474822 137.6855994
  79.1530483  99.9478041 126.7308262  79.4290327  99.8334635 127.6402136
  78.2834982  99.5495525 126.6920435  79.0570915  85.9714806 133.7713011
  78.1433995  86.2019033 133.9395218  79.4864016  86.0553250 134.6227043
  78.8277373  94.1604698 136.2712905  78.1748824  94.4080606 135.6165358
  79.2057753  93.3468836 135.9375382  75.7884547 104.1964391 130.3741075
  75.9706942 103.3786047 130.8368828  76.6117533 104.4132084 129.9365965
  76.1226713 103.1232577 127.6356124  76.6514479 102.6125031 127.0226286
  76.3854932 102.8075107 128.5001657  74.8764946  94.9024509 142.7578942
  74.2005583  94.8018639 143.4281317  75.6992580  94.7463723 143.2214939
  66.6243805 101.1396446 135.3791457  67.2097242 100.3940134 135.5119362
  66.4268644 101.4500403 136.2628121  69.4782461 104.1747693 130.3953900
  68.8092836 104.6593821 129.9117940  69.3395330 104.4216914 131.3097278
  61.2161460  93.7102046 134.0995900  61.2545560  93.1765637 134.8933019
  60.7101753  93.1837252 133.4806878  73.6187729 106.2091437 136.9936558
  74.1706037 106.3723058 137.7585643  73.9593923 106.7995875 136.3216583
  68.5952222  88.5566587 137.5958443  68.6593549  89.4181418 137.1835840
  68.5319343  87.9440588 136.8630801  68.0704495  90.6289719 141.2431477
  68.6976534  90.2466796 141.8569001  67.2132414  90.4103921 141.6087170
  78.4698604 101.0352694 142.8485212  79.0138508 101.6482653 142.3540167
  77.8885448 101.5932273 143.3652225  64.8470038  92.4366148 127.1749832
  65.1423479  91.5276827 127.1216886  63.9458073  92.4153888 126.8530834
  76.7556116 104.1573412 133.9800240  76.6307256 103.3563152 133.4711186
  77.4135208 104.6519606 133.4914210  68.3764285  90.5122145 133.1577380
  67.6550870  91.1258113 133.0184854  69.1657540  91.0479910 133.0794026
  78.8191025 101.9582432 135.6079790  77.8721360 101.8387784 135.5358117
  79.1673798 101.0704930 135.6906052  71.1790598  87.8476571 139.4318032
  71.7025000  88.0938868 140.1944342  70.9602932  88.6796606 139.0121170
  66.5757879  90.1180246 127.2989157  66.2470585  89.2377625 127.1164263
  66.9297250  90.0627915 128.1865546  75.8237458 101.7535149 131.8084143
  75.6762421 100.8251856 131.9891713  76.6490952 101.7755239 131.3241218
  69.6899702  90.4053216 127.6664635  70.0295775  90.9339137 126.9443243
  70.1371823  90.7433622 128.4423201  79.4271580 102.5763707 132.8949015
  80.3518127 102.3706569 132.7573466  79.2586883 102.3280109 133.8038357
  72.3843143  88.7890266 137.1167703  72.0439964  87.9898079 137.5188383
  71.6782150  89.0891977 136.5444536  73.0359615  85.8739579 135.5695026
  73.8585684  85.4000057 135.4473916  73.2797679  86.6530063 136.0693712
  71.6767850  88.9027837 125.8657927  72.3976212  89.2809090 125.3621644
  71.0533154  89.6216714 125.9692905  75.8198972  89.6072986 126.8016260
  76.0362587  90.4897624 126.5005088  75.3393040  89.2159200 126.0721902
  70.5598194  92.5658700 133.3787004  70.4142775  92.8799003 134.2711286
  70.0823397  93.1843600 132.8257903  72.4194577  89.5561247 133.4267894
  72.4056146  88.6602341 133.0900192  73.1367005  89.5631911 134.0606180
  74.2720707  89.9898588 135.4721021  74.0138485  90.9115658 135.4705352
  73.7405748  89.5929022 136.1621485  79.2166896 103.0949375 128.2511107
  79.3903774 102.5295797 127.4984959  79.7095787 103.8950270 128.0690597
  65.0343856  95.1064044 136.3174666  64.4897324  95.8823852 136.4494940
  65.9123206  95.4534848 136.1593787  71.8231473  88.4375628 128.6955464
  71.9447384  87.5092274 128.8946352  71.5333515  88.4514314 127.7833779
  74.6922663  86.1230538 131.8322184  74.7144360  86.1869871 130.8774163
  75.1090722  85.2835047 132.0262690  85.0706287  95.8585798 129.8701406
  85.5137433  95.1093123 129.4720530  84.1932798  95.8495934 129.4875138
  80.2042069 102.4116139 125.3508005  80.8992973 103.0322832 125.5695320
  80.5465219 101.5611490 125.6260383  65.8209878  94.2333940 139.2104822
  65.0791614  94.3816576 139.7969453  65.5002622  94.4942206 138.3471572
  82.1033492  99.8615845 126.8795336  82.6284816 100.2003118 126.1544656
  82.0155844  98.9262860 126.6958470  73.7653541 103.7749918 139.0085212
  74.0740667 103.5299065 139.8807912  74.5629023 103.9796557 138.5204083
  73.7874153 105.9287828 131.2390589  73.3479143 105.4364207 131.9323446
  74.5382270 105.3860796 130.9982664  66.2666492 102.1199369 131.2415217
  67.0924511 101.8203141 130.8613861  65.9160544 101.3506991 131.6905006
  71.2348025 101.4725837 133.3112891  70.6128034 100.8096542 133.0115118
  71.9052892 101.4986969 132.6286538  64.4675097 100.0385695 132.2004151
  63.6307005  99.6107870 132.0188152  64.4398742 100.2318139 133.1374942
  71.3072552  89.9507625 142.9045397  71.3560708  90.8269748 142.5223166
  71.8495066  89.4085018 142.3317040  81.7927398 100.4948748 142.1846534
  81.0022942 100.4772887 141.6451033  81.5560752 101.0337042 142.9395570
  81.9125273  97.3441215 139.4979262  81.9623278  97.1791222 140.4394785
  81.8039196  96.4768474 139.1077143  70.7961532 100.0229760 126.7871351
  70.9449652 100.7065225 126.1338024  71.6027975 100.0034851 127.3020807
  79.2029035  93.3272143 140.8138569  80.1038898  93.1878608 140.5222567
  79.2777010  93.4926598 141.7536746  73.5371841  90.7038998 139.6591755
  72.6675150  90.9972564 139.3874344  73.7731321  91.2879443 140.3799019
  83.4143470  99.7638156 139.7421284  83.1228278 100.1268137 140.5784745
  82.8015601  99.0505165 139.5634616  84.6139152  97.3291036 132.2623854
  85.4486043  97.7680840 132.4261414  84.7498281  96.8529689 131.4432100
  81.6630658  94.8870771 138.2101342  82.1384780  95.0798417 137.4020193
  80.7396223  94.9429957 137.9644725  68.5514165  96.0494938 127.7932420
  68.3060207  95.1457268 127.9912630  68.7210079  96.0512089 126.8511898
  76.2410874  86.9218614 137.1757176  76.7592818  87.6579641 136.8503664
  75.8866007  87.2282608 138.0103935  67.8209812  91.7823296 125.2918582
  67.1279057  91.8567651 124.6358618  67.5761564  91.0183639 125.8140098
  76.4923469  83.3418897 132.6958072  76.7725222  82.6742086 133.3218499
  77.2774076  83.5347993 132.1832736  74.2956937 102.5177891 124.2583099
  73.7230904 103.1368078 123.8053570  74.8689731 103.0677253 124.7923021
  80.3632327  91.7636531 136.4429647  81.3149750  91.8634629 136.4641871
  80.1935777  90.9714800 136.9527732  78.3846706  88.8492114 136.6289048
  77.7896639  89.1297127 135.9335537  78.0996403  89.3386015 137.4005789
  77.5154197 102.8015041 125.3891681  78.4484870 102.7360603 125.5924556
  77.4277410 103.6371308 124.9306214  80.1442214 102.1180911 122.3495628
  80.0655845 101.7840775 123.2431386  80.9651880 102.6102679 122.3487101
  82.8420405  94.9842651 135.5571947  82.8096725  94.0458651 135.7431631
  83.4521028  95.0626687 134.8237772  74.6803736  93.8538704 121.5999151
  75.6262840  93.7244912 121.6687569  74.3017981  93.1153366 122.0768579
  82.9914893  91.7753694 135.6030230  82.4753942  90.9912151 135.4160159
  83.8754842  91.4472411 135.7676750  80.6525620  85.5194710 131.5626043
  80.4550441  85.2109798 132.4469375  81.2625326  86.2456349 131.6923973
  88.6596955  96.0458658 134.6977984  89.3900343  95.7843946 135.2585687
  88.0503900  95.3087379 134.7380052  86.7412252  94.1866520 135.2952435
  86.0145415  94.0522485 134.6868927  86.3259539  94.4943349 136.1009153
  74.5642428  97.9056450 143.0599808  75.4845438  98.0835049 143.2539855
  74.5292011  96.9612495 142.9079507  72.8646653  91.7788680 121.5354036
  71.9578108  91.4821793 121.6116750  73.1422634  91.4818498 120.6688323
  63.7824593  93.0995043 131.9853083  63.4627378  92.2460352 131.6927457
  63.2358021  93.3143622 132.7411050  67.5604501  95.8157484 135.7022589
  67.7790511  96.7474592 135.7210623  67.9730275  95.4565459 136.4877393
  74.4808719  86.3225570 127.6898278  73.6709447  85.9772655 128.0653524
  75.1693135  86.0133113 128.2785889  76.4099267  85.4003617 129.3122574
  76.9630305  85.8199070 129.9712597  76.6469353  84.4739365 129.3545530
  72.4332366  91.3890690 145.0925338  72.3329093  92.3385047 145.0237429
  72.2153908  91.0608929 144.2201408  71.6345437  88.6375615 121.6766016
  72.4964601  88.9630514 121.9361833  71.8195782  87.8507111 121.1639081
  63.6512853  96.7197955 133.9546204  62.9576325  96.3051908 133.4416159
  64.3985844  96.7618491 133.3579623  79.7878074  87.5104142 128.8201239
  79.2076743  88.1688946 128.4379291  79.5214007  86.6881486 128.4088656
  78.2381640  86.9109199 131.0222559  78.7381419  87.0225734 130.2136878
  78.8817248  86.6070252 131.6623367  72.2963636  94.8187829 143.9090400
  71.8130718  95.6188189 144.1154289  72.3824575  94.8295774 142.9557844
  65.5649596  96.6516209 131.8312219  65.5420284  96.7503896 130.8794102
  65.8750232  97.4981360 132.1529385  68.2236974  98.7092364 135.9458834
  69.1780227  98.6776306 135.8788765  68.0249497  98.2482987 136.7609060
  68.8136356  97.2793480 138.5129631  69.6329245  97.7737558 138.5364469
  69.0873163  96.3625448 138.4847199  78.5702952  89.6704232 127.8757587
  77.6828807  89.9553883 127.6577782  78.9856941  89.5097995 127.0284864
  81.9217488  89.6950753 131.5911926  82.6977878  90.1847206 131.8636543
  81.1965622  90.1208807 132.0483796  84.3590047  90.4078372 132.6485867
  84.9534537  90.1674108 131.9379175  84.4316630  89.6885503 133.2759403
  66.5787202 104.2511983 132.9629031  66.4441670 103.4912384 132.3967030
  66.1619265 104.9752883 132.4957820  77.7146165  99.4348907 121.9705607
  78.4182016  99.6398909 122.5863262  76.9908814 100.0025669 122.2354690
  78.5443976  95.1858768 128.0907877  78.4879177  95.6427319 127.2515509
  79.0972318  94.4249453 127.9130720  82.3548782  90.9748500 128.9157996
  82.0985716  90.5745136 129.7466204  81.7301650  91.6892294 128.7908136
  86.6661119  93.7144573 131.4229288  86.1060677  93.7837762 132.1960850
  86.0604623  93.5385558 130.7028784  69.7356328 105.1481300 133.1747474
  69.6188712 106.0926733 133.0726164  68.9148775 104.8454862 133.5633273
  79.6232863  99.8731436 124.0204067  80.4578467  99.4412634 123.8381542
  79.4617206  99.7013450 124.9480961  79.2778755  96.3763549 125.3860406
  79.2227559  96.2107821 124.4448850  78.6524810  97.0839582 125.5422596
  64.0671270  91.6131614 139.2121828  64.7130134  91.1030568 139.7009054
  63.8588421  92.3500295 139.7865254  76.5924662  98.6812461 144.7113969
  77.4615822  98.8553113 144.3500604  76.1131414  99.5006878 144.5889698
  72.5874880  85.8771658 124.9645725  72.5753550  86.8213498 125.1213995
  73.4798302  85.6941804 124.6705186  70.7610842 105.8009562 136.3903403
  71.6638089 105.8333172 136.7069898  70.5348212 104.8710013 136.4049738
  72.5164444 104.5540549 133.0513481  71.5660075 104.5542410 132.9377853
  72.8196931 103.8073283 132.5349516  76.4027000  82.4714435 129.2191661
  75.6359396  81.9172922 129.3648344  76.8137705  82.5436304 130.0805813
  68.4068761  88.7599231 143.3096843  69.2700223  88.4036036 143.5200167
  67.8334172  88.4213126 143.9972247  88.2517138 110.3901087 134.1159244
  88.8895548 110.2707834 133.4122584  88.1337981 111.3381931 134.1747196
  85.0606844 110.3428515 134.0520768  84.7225356 110.2269580 133.1641303
  85.9296612 109.9419680 134.0321774  80.9193660 112.1963992 130.0417659
  80.3558525 112.1053929 129.2733947  80.8046055 111.3763896 130.5220152
  85.5426627 111.4963367 140.0106974  85.5315268 111.1016165 139.1387477
  85.7047267 110.7629440 140.6040745  78.4658092 113.6915183 132.8801880
  79.2579384 113.3506008 132.4648179  78.7054742 113.8010158 133.8004033
  86.4993219 115.8634959 125.3532124  85.8481198 116.4489040 124.9666138
  87.2937581 116.3941154 125.4127162  80.4248846 112.9524096 125.7519258
  81.1979722 112.4053084 125.6132134  80.7774245 113.8168346 125.9633720
  82.2633888 114.2800479 138.9586158  81.9723754 115.1846110 138.8432824
  82.8990873 114.3217006 139.6730227  83.1890095 111.6577327 135.5487517
  83.7853667 111.4333350 134.8344480  83.2465067 110.9162073 136.1512965
  82.7615124 109.1116763 123.3837708  83.0140644 108.5898284 122.6221171
  81.8239683 108.9482908 123.4864392  87.8058406 108.1152541 131.1912452
  88.5921496 107.6971964 130.8402869  88.0697111 109.0198633 131.3594100
  87.9768484 113.5525391 125.8901108  87.3414317 113.6260018 126.6022013
  87.6465890 114.1418990 125.2120188  93.2066834 108.0527774 132.0945430
  93.9392005 107.4826991 132.3283260  92.4506189 107.6649375 132.5351936
  82.4811412 111.0144869 125.5862083  82.3647670 110.3389772 126.2543168
  82.5913672 110.5277242 124.7694236  84.8242953 110.4755016 129.2908773
  84.4601160 109.9485637 130.0021694  85.6810069 110.0853485 129.1175258
  90.7292254 101.7649348 136.5540039  90.3975579 102.6344759 136.3301254
  90.1337867 101.4485632 137.2334069  84.4648440 105.5044915 124.2870121
  84.6322843 106.3725152 124.6540592  84.2745609 105.6672197 123.3631410
  87.2223773 113.9661894 135.9535951  86.9224496 114.8686933 135.8451759
  86.8774833 113.6994077 136.8057104  80.6736255 110.4175691 131.9872656
  79.7486751 110.2851905 132.1950348  80.9220668 111.1969910 132.4842598
  90.6220917 106.4844434 133.6333389  89.7137795 106.4159843 133.3392150
  90.5708513 106.9616379 134.4615214  84.4437661 107.9602573 125.2716788
  84.3237286 108.4059624 126.1102268  83.7490249 108.3087891 124.7130326
  78.0345066 110.0608965 132.8216445  78.1637447 110.3143444 133.7355857
  77.3542517 110.6536673 132.5021100  82.2044553 120.7306215 128.9206919
  82.1268583 121.6814040 128.9995400  81.6006197 120.3852087 129.5781845
  84.6961783 107.9034080 141.5768286  83.9195117 108.4628000 141.5671151
  85.3352346 108.3890863 142.0983156  92.4882564 104.6860873 135.4111263
  91.8456944 104.9793406 134.7651057  91.9837492 104.5713793 136.2164459
  90.1422727 108.4324046 126.0997122  91.0540583 108.6651433 125.9244820
  89.6332374 109.0161090 125.5372201  82.9508155 110.7119533 141.1386253
  83.6922840 111.2504577 140.8621077  82.2445141 111.3385822 141.2957805
  88.4263495 112.8548674 139.7358415  88.8346851 112.4131084 138.9913047
  87.7040756 112.2801301 139.9892607  84.7794565 107.7921281 137.1091971
  85.6255760 108.2160694 137.2526620  84.7193203 107.1354905 137.8030535
  88.7492310 113.4149864 133.4910703  88.1201172 113.5795579 132.7886771
  88.3617972 113.8291474 134.2621667  92.6281541 114.3504302 130.8455067
  91.9432580 114.7303204 130.2952100  92.7125391 114.9599629 131.5787015
  87.9294010 105.4525649 138.7673145  87.6854942 106.2067709 138.2307421
  88.2053941 105.8310997 139.6020392  89.8832473 111.9964261 137.4450411
  90.0949368 112.6396021 136.7684792  89.8362221 111.1626578 136.9772341
  87.4858702 104.6082082 134.3486983  86.6243181 104.9063336 134.6403720
  87.5121137 104.8252481 133.4168015  84.3020271 113.1524273 130.7560789
  84.7658617 113.4311976 129.9665411  84.0377070 112.2507717 130.5733879
  81.1944352 112.6995754 133.6940552  81.7645710 113.1283022 133.0558036
  81.7852464 112.4178339 134.3924737  83.2389157 109.2747425 127.5650354
  83.9413201 109.7268469 128.0324280  82.9069786 108.6331244 128.1930247
  81.6869519 107.8659182 141.9401563  81.0568180 108.5475462 142.1736960
  81.5805607 107.7542263 140.9954701  76.9814491 107.5330978 132.8667487
  76.1913545 107.7888506 132.3907598  77.4725739 108.3479315 132.9719528
  90.9978301 114.8736217 135.6172768  91.8195745 114.4716404 135.3355450
  90.9940704 114.7704451 136.5688884  78.9329237 107.8975557 129.8250964
  78.1360400 108.0094251 130.3434460  78.7054829 108.2362209 128.9591854
  84.7634904 114.4220260 137.7733479  84.8279337 114.8840667 138.6091650
  84.0545828 113.7917625 137.9015788  75.2652194 107.7861468 135.2982478
  75.5160233 108.6708478 135.5640054  75.8011743 107.6066070 134.5257570
  99.0884294 111.2174965 131.9657740  98.3348002 110.6482363 131.8101744
  99.2231835 111.1837630 132.9128374  84.4782922 116.0888368 127.6412459
  84.3428597 116.9339903 128.0697307  85.0192735 116.2907645 126.8778393
  80.9650262 102.1679947 144.3026814  80.5717207 101.6146146 144.9774458
  81.7816402 102.4790526 144.6933332  77.9312320 113.6063806 128.2140384
  78.4436840 114.4007056 128.3645949  78.5835032 112.9090096 128.1473985
  79.7407204 116.7229562 130.2963137  79.9173833 117.6447527 130.1084121
  80.5364038 116.4087981 130.7257517  83.8818223 103.5837826 141.8947071
  84.6227936 104.1844980 141.8151533  84.1136146 102.8415464 141.3365113
  79.0259561 108.7694194 140.1725300  78.9113076 107.8679451 140.4732399
  78.1704078 109.0157891 139.8210117  86.1051398 116.7111934 141.7712801
  85.6615253 115.9248313 141.4533705  86.7668612 116.8991085 141.1056692
  80.8638520 118.2407736 136.2973479  81.4145945 118.1124799 135.5250473
  80.0249996 118.5402625 135.9468372  88.2032637 116.9914734 139.7994202
  88.1851112 117.8123615 139.3074471  89.1252557 116.8668809 140.0244343
  84.6605691 114.5058863 140.6417711  85.1934028 113.7447152 140.4117019
  84.1319772 114.2132515 141.3841865  87.8275386  99.6118929 136.1711352
  87.4839655 100.5020571 136.0950463  88.1954348  99.4220587 135.3080937
  75.8961236 111.9352460 128.9899954  76.7336458 112.3449468 128.7733662
  76.0739504 110.9951902 128.9600148  87.7925668 109.6027541 124.6783787
  87.2772292 110.3732145 124.9172175  87.5202977 108.9292677 125.3016849
  85.3772779 104.4477241 129.7369026  84.5214376 104.0584092 129.5574665
  85.7899731 104.5269202 128.8768811  86.9071926 101.9823585 134.1360586
  86.4036722 101.9453720 133.3228391  87.2002533 102.8916327 134.1957242
  83.1514812 102.0662314 133.1426767  84.0167809 101.8705123 132.7832657
  83.2192321 101.8372666 134.0696124  92.7659943 112.3559895 126.6136961
  91.9889385 112.0171055 126.1692123  93.4451424 112.3612518 125.9391926
  87.5811972 107.4754633 126.5043569  87.2762107 107.7900782 127.3553712
  88.5342414 107.5536053 126.5470902  86.0258403 113.6344856 128.1536523
  85.4979765 112.8997616 127.8409760  85.5245906 114.4119532 127.9076491
  91.0051249 111.8293876 133.2703569  90.3474924 112.5193138 133.3583698
  91.8091649 112.2190308 133.6137555  80.7577131 104.2964522 130.5143134
  81.3320883 104.0739704 129.7816327  81.3448113 104.3653217 131.2671735
  89.8156708 110.1838249 131.3207511  90.3288590 110.8168241 131.8229220
  90.4657932 109.5839445 130.9550871  81.0846718 106.3268983 124.5339019
  80.2484030 106.6643670 124.8548294  80.9451488 106.1917963 123.5966156
  83.0599799 101.1705771 129.2418204  82.4064211 100.8554788 128.6174818
  83.0180273 100.5481512 129.9678026  87.0779082 120.1622573 124.0768182
  86.4040781 120.4654270 124.6853140  87.4644904 120.9651654 123.7273639
  86.2937539 107.6587705 133.5665851  85.3760100 107.8802652 133.4087539
  86.7097683 107.7334015 132.7077559  87.0772587 109.0579120 128.6968531
  87.8244406 109.5700518 128.3875653  87.3464176 108.7363173 129.5572925
  85.3499237 111.5537661 125.6795486  84.4410456 111.2696694 125.7767955
  85.3794321 111.9736740 124.8198793  90.5818504 115.1644251 129.4486653
  90.1280832 114.3235160 129.5051844  89.9512471 115.8005649 129.7861433
  89.5251424 106.0936237 130.6787321  88.7874181 105.5813623 131.0097563
  89.7778198 105.6536618 129.8670598  89.0251444 117.0020747 130.3836471
  89.3174418 117.5625804 129.6648837  89.5350064 117.2949308 131.1389631
  89.6263051  98.8712489 131.2729090  89.9321928  98.0109852 130.9855005
  90.3515656  99.4630109 131.0728084  75.9187407 109.2743175 129.6610688
  75.7211807 108.6812536 128.9361755  75.3634071 108.9695385 130.3786627
  83.8984131 109.1666282 131.7805281  83.9532741 108.2140118 131.7047758
  83.0875333 109.3225721 132.2646580  81.8376491 107.7843341 129.5395660
  81.0244357 108.0837512 129.9460852  82.3335485 107.3899030 130.2570142
  83.9885069 117.7801098 131.4729925  83.9461248 118.0061945 130.5438457
  84.9047768 117.5464473 131.6215726  87.4350703 108.2485166 138.3710554
  87.7900090 108.4756639 139.2305020  88.0822834 108.5803543 137.7487809
  93.1648440 111.3703602 129.0759883  93.0266338 111.5605198 128.1481072
  92.8084658 112.1322985 129.5327934  81.3290566 105.3561697 135.1556895
  81.9689945 105.2150456 134.4579858  80.4968096 105.0696210 134.7795497
  93.1917819 113.4380129 134.0871154  93.6254326 113.3455418 134.9354208
  93.9049400 113.4137629 133.4491170  82.1050870 114.6564127 131.2691887
  82.8991468 114.1614448 131.0674462  81.3942562 114.1281990 130.9059593
  86.9245714 117.0382223 135.6204255  86.9782736 117.6073159 136.3881971
  86.0560495 117.2084108 135.2558292  78.4133633 108.8007209 127.3451640
  77.4831221 108.7391665 127.5621602  78.5091105 108.2783162 126.5488281
  78.3319182 105.3262022 129.9329882  78.5925999 106.2407355 129.8239042
  79.1536355 104.8586464 130.0826495  79.8044108 106.7399779 137.1028706
  80.4767161 106.5317141 136.4541355  78.9773894 106.5421865 136.6633939
  94.0533369 113.4803829 136.6204040  94.2469259 114.3849640 136.8663315
  93.9533987 113.0211249 137.4542625  85.7069680 103.3661720 139.1194367
  85.0597595 104.0651670 139.0258844  86.4770695 103.7997864 139.4870615
  89.1148477 113.6310572 142.1944920  88.9633984 113.4021124 141.2775004
  89.1053157 114.5881174 142.2076265  85.8833814 111.2042485 137.1791187
  86.8125874 111.3553645 137.0060154  85.4624844 111.2926506 136.3239833
  84.6822146 115.2293149 134.9489724  84.5433231 114.8611934 135.8215663
  83.8936742 115.7440789 134.7773682  85.2770298 120.3302246 126.2915261
  85.4522053 119.8590289 127.1060884  84.5903086 120.9568012 126.5196522
  86.2327361 114.6074752 132.3378562  85.8977193 114.5675522 133.2336212
  85.7331306 113.9419468 131.8648972  80.2071605 110.0142382 137.8631143
  80.0691403 109.2822621 138.4642682  81.1176528 109.9251282 137.5815331
  89.1686552 111.9530786 122.6115622  88.5515723 111.2277615 122.5148675
  88.7003041 112.7140147 122.2682696  82.8353905 109.7262341 137.3514823
  83.5453524 109.0855534 137.3101441  82.7923214 109.9775236 138.2741004
  90.8240684 116.6629695 140.2721402  90.7653230 115.9788915 139.6051985
  91.2260202 117.4048685 139.8202028  81.5482839 106.7127559 139.1710463
  81.0120196 106.2618298 139.8232059  80.9599548 106.8473468 138.4280927
  79.8431383 123.4791609 133.0655121  80.0827981 124.1110133 133.7434140
  79.0000579 123.1279649 133.3520480  80.9585098 106.1716211 121.7336926
  80.0814565 106.0505011 121.3699173  81.4342851 105.3802289 121.4815815
  90.8258091 114.6269279 138.5035382  89.9384870 114.2895200 138.6261781
  91.3956642 113.8952310 138.7404147  72.4787238 110.9593370 131.8278433
  73.1658278 110.6455100 131.2399449  72.3235367 111.8634735 131.5545685
  77.2821961 105.8483567 136.2563457  77.1980149 105.2409237 135.5213867
  76.4604667 106.3392585 136.2572953  84.3559245 119.2870731 135.4696625
  84.2829416 120.0925703 135.9815930  83.9136638 119.4862697 134.6444647
  84.1449024 118.5242501 128.9799447  83.3616546 119.0664181 129.0737671
  84.8441770 119.0416481 129.3793688  87.4545675 104.3337131 131.6233652
  87.9514374 103.5807093 131.3034722  86.6832656 104.3701447 131.0576861
  95.3075432 110.0377496 133.2651944  95.2965308 110.9202211 132.8945877
  94.4392811 109.6849047 133.0706481  86.8157928 119.1857565 137.6254784
  87.5285900 119.8205030 137.5530685  86.3247957 119.2821431 136.8094786
  88.5375455 113.0908818 129.1972075  87.6031734 113.2110280 129.0276780
  88.7152124 112.1881285 128.9332085  84.0380643 106.4754514 131.3505337
  83.6678431 105.9225554 132.0386242  84.5339736 105.8712647 130.7980337
  91.9248007 108.9326137 129.7322110  92.3908459 109.7654129 129.6582412
  92.3755507 108.4671119 130.4367368  81.8669842 116.9352009 138.4460355
  82.5679301 117.5688491 138.5989749  81.3964957 117.2766740 137.6855994
  89.9924238 115.2769958 126.7308262  90.2684082 115.1626553 127.6402136
  89.1228736 114.8787443 126.6920435  89.8964669 101.3006724 133.7713011
  88.9827749 101.5310951 133.9395218  90.3257771 101.3845168 134.6227043
  89.6671128 109.4896616 136.2712905  89.0142578 109.7372523 135.6165358
  90.0451508 108.6760754 135.9375382  86.6278302 119.5256309 130.3741075
  86.8100696 118.7077965 130.8368828  87.4511288 119.7424001 129.9365965
  86.9620467 118.4524494 127.6356124  87.4908234 117.9416949 127.0226286
  87.2248687 118.1367024 128.5001657  85.7158701 110.2316427 142.7578942
  85.0399338 110.1310556 143.4281317  86.5386335 110.0755641 143.2214939
  77.4637560 116.4688364 135.3791457  78.0490997 115.7232051 135.5119362
  77.2662398 116.7792320 136.2628121  80.3176215 119.5039611 130.3953900
  79.6486590 119.9885739 129.9117940  80.1789085 119.7508831 131.3097278
  72.0555215 109.0393964 134.0995900  72.0939314 108.5057554 134.8933019
  71.5495507 108.5129169 133.4806878  84.4581484 121.5383354 136.9936558
  85.0099792 121.7014976 137.7585643  84.7987677 122.1287792 136.3216583
  79.4345977 103.8858504 137.5958443  79.4987303 104.7473335 137.1835840
  79.3713097 103.2732506 136.8630801  78.9098249 105.9581637 141.2431477
  79.5370288 105.5758714 141.8569001  78.0526168 105.7395839 141.6087170
  89.3092358 116.3644612 142.8485212  89.8532262 116.9774570 142.3540167
  88.7279203 116.9224190 143.3652225  75.6863792 107.7658066 127.1749832
  75.9817233 106.8568744 127.1216886  74.7851828 107.7445805 126.8530834
  87.5949871 119.4865330 133.9800240  87.4701010 118.6855070 133.4711186
  88.2528962 119.9811523 133.4914210  79.2158039 105.8414063 133.1577380
  78.4944625 106.4550030 133.0184854  80.0051295 106.3771827 133.0794026
  89.6584779 117.2874350 135.6079790  88.7115115 117.1679701 135.5358117
  90.0067552 116.3996848 135.6906052  82.0184353 103.1768489 139.4318032
  82.5418755 103.4230786 140.1944342  81.7996686 104.0088524 139.0121170
  77.4151634 105.4472164 127.2989157  77.0864340 104.5669543 127.1164263
  77.7691004 105.3919832 128.1865546  86.6631213 117.0827066 131.8084143
  86.5156175 116.1543774 131.9891713  87.4884706 117.1047157 131.3241218
  80.5293457 105.7345133 127.6664635  80.8689529 106.2631055 126.9443243
  80.9765577 106.0725540 128.4423201  90.2665334 117.9055625 132.8949015
  91.1911882 117.6998486 132.7573466  90.0980638 117.6572026 133.8038357
  83.2236898 104.1182184 137.1167703  82.8833718 103.3189997 137.5188383
  82.5175904 104.4183895 136.5444536  83.8753370 101.2031497 135.5695026
  84.6979439 100.7291975 135.4473916  84.1191433 101.9821980 136.0693712
  82.5161604 104.2319755 125.8657927  83.2369967 104.6101008 125.3621644
  81.8926908 104.9508632 125.9692905  86.6592727 104.9364904 126.8016260
  86.8756341 105.8189542 126.5005088  86.1786794 104.5451117 126.0721902
  81.3991948 107.8950617 133.3787004  81.2536529 108.2090920 134.2711286
  80.9217152 108.5135518 132.8257903  83.2588331 104.8853165 133.4267894
  83.2449900 103.9894258 133.0900192  83.9760759 104.8923829 134.0606180
  85.1114462 105.3190505 135.4721021  84.8532240 106.2407576 135.4705352
  84.5799502 104.9220940 136.1621485  90.0560651 118.4241292 128.2511107
  90.2297528 117.8587715 127.4984959  90.5489542 119.2242187 128.0690597
  75.8737611 110.4355962 136.3174666  75.3291079 111.2115770 136.4494940
  76.7516960 110.7826766 136.1593787  82.6625227 103.7667545 128.6955464
  82.7841138 102.8384192 128.8946352  82.3727270 103.7806231 127.7833779
  85.5316418 101.4522456 131.8322184  85.5538114 101.5161789 130.8774163
  85.9484477 100.6126965 132.0262690  95.9100042 111.1877715 129.8701406
  96.3531188 110.4385041 129.4720530  95.0326552 111.1787852 129.4875138
  91.0435823 117.7408057 125.3508005  91.7386728 118.3614750 125.5695320
  91.3858973 116.8903408 125.6260383  76.6603632 109.5625858 139.2104822
  75.9185368 109.7108493 139.7969453  76.3396377 109.8234123 138.3471572
  92.9427246 115.1907762 126.8795336  93.4678570 115.5295035 126.1544656
  92.8549599 114.2554778 126.6958470  84.6047295 119.1041836 139.0085212
  84.9134421 118.8590983 139.8807912  85.4022777 119.3088475 138.5204083
  84.6267907 121.2579746 131.2390589  84.1872897 120.7656124 131.9323446
  85.3776024 120.7152713 130.9982664  77.1060246 117.4491287 131.2415217
  77.9318266 117.1495058 130.8613861  76.7554298 116.6798909 131.6905006
  82.0741779 116.8017755 133.3112891  81.4521789 116.1388460 133.0115118
  82.7446646 116.8278887 132.6286538  75.3068851 115.3677613 132.2004151
  74.4700759 114.9399787 132.0188152  75.2792497 115.5610056 133.1374942
  82.1466307 105.2799543 142.9045397  82.1954462 106.1561666 142.5223166
  82.6888821 104.7376936 142.3317040  92.6321152 115.8240666 142.1846534
  91.8416696 115.8064805 141.6451033  92.3954507 116.3628960 142.9395570
  92.7519027 112.6733132 139.4979262  92.8017032 112.5083140 140.4394785
  92.6432951 111.8060391 139.1077143  81.6355286 115.3521678 126.7871351
  81.7843406 116.0357143 126.1338024  82.4421730 115.3326768 127.3020807
  90.0422790 108.6564060 140.8138569  90.9432653 108.5170525 140.5222567
  90.1170764 108.8218515 141.7536746  84.3765595 106.0330915 139.6591755
  83.5068905 106.3264481 139.3874344  84.6125076 106.6171360 140.3799019
  94.2537224 115.0930074 139.7421284  93.9622033 115.4560055 140.5784745
  93.6409356 114.3797082 139.5634616  95.4532907 112.6582954 132.2623854
  96.2879798 113.0972758 132.4261414  95.5892035 112.1821607 131.4432100
  92.5024413 110.2162689 138.2101342  92.9778534 110.4090335 137.4020193
  91.5789978 110.2721874 137.9644725  79.3907919 111.3786856 127.7932420
  79.1453961 110.4749186 127.9912630  79.5603834 111.3804006 126.8511898
  87.0804629 102.2510532 137.1757176  87.5986573 102.9871559 136.8503664
  86.7259762 102.5574525 138.0103935  78.6603567 107.1115213 125.2918582
  77.9672812 107.1859568 124.6358618  78.4155319 106.3475557 125.8140098
  87.3317223  98.6710815 132.6958072  87.6118977  98.0034004 133.3218499
  88.1167830  98.8639910 132.1832736  85.1350692 117.8469809 124.2583099
  84.5624659 118.4659996 123.8053570  85.7083485 118.3969170 124.7923021
  91.2026082 107.0928449 136.4429647  92.1543504 107.1926546 136.4641871
  91.0329532 106.3006717 136.9527732  89.2240461 104.1784032 136.6289048
  88.6290393 104.4589045 135.9335537  88.9390158 104.6677933 137.4005789
  88.3547951 118.1306959 125.3891681  89.2878625 118.0652520 125.5924556
  88.2671164 118.9663226 124.9306214  90.9835968 117.4472829 122.3495628
  90.9049600 117.1132693 123.2431386  91.8045635 117.9394597 122.3487101
  93.6814159 110.3134568 135.5571947  93.6490479 109.3750569 135.7431631
  94.2914783 110.3918605 134.8237772  93.8308648 107.1045612 135.6030230
  93.3147696 106.3204068 135.4160159  94.7148596 106.7764328 135.7676750
  91.4919375 100.8486627 131.5626043  91.2944196 100.5401716 132.4469375
  92.1019080 101.5748266 131.6923973  99.4990709 111.3750575 134.6977984
 100.2294098 111.1135863 135.2585687  98.8897655 110.6379297 134.7380052
  97.5806006 109.5158438 135.2952435  96.8539170 109.3814403 134.6868927
  97.1653293 109.8235266 136.1009153  85.4036183 113.2348367 143.0599808
  86.3239192 113.4126966 143.2539855  85.3685766 112.2904413 142.9079507
  83.7040407 107.1080598 121.5354036  82.7971863 106.8113710 121.6116750
  83.9816388 106.8110416 120.6688323  74.6218348 108.4286961 131.9853083
  74.3021132 107.5752269 131.6927457  74.0751776 108.6435539 132.7411050
  78.3998255 111.1449402 135.7022589  78.6184265 112.0766510 135.7210623
  78.8124029 110.7857377 136.4877393  85.3202473 101.6517487 127.6898278
  84.5103201 101.3064572 128.0653524  86.0086890 101.3425031 128.2785889
  87.2493021 100.7295534 129.3122574  87.8024060 101.1490988 129.9712597
  87.4863108  99.8031282 129.3545530  83.2726121 106.7182608 145.0925338
  83.1722847 107.6676965 145.0237429  83.0547663 106.3900847 144.2201408
  82.4739192 103.9667533 121.6766016  83.3358356 104.2922431 121.9361833
  82.6589536 103.1799029 121.1639081  74.4906608 112.0489873 133.9546204
  73.7970079 111.6343825 133.4416159  75.2379599 112.0910409 133.3579623
  90.6271828 102.8396059 128.8201239  90.0470497 103.4980863 128.4379291
  90.3607761 102.0173404 128.4088656  89.0775395 102.2401117 131.0222559
  89.5775173 102.3517652 130.2136878  89.7211003 101.9362170 131.6623367
  83.1357391 110.1479747 143.9090400  82.6524472 110.9480107 144.1154289
  83.2218330 110.1587692 142.9557844  76.4043350 111.9808126 131.8312219
  76.3814038 112.0795814 130.8794102  76.7143987 112.8273277 132.1529385
  79.0630728 114.0384281 135.9458834  80.0173982 114.0068224 135.8788765
  78.8643252 113.5774905 136.7609060  79.6530110 112.6085397 138.5129631
  80.4722999 113.1029476 138.5364469  79.9266918 111.6917366 138.4847199
  89.4096706 104.9996150 127.8757587  88.5222561 105.2845800 127.6577782
  89.8250695 104.8389913 127.0284864  92.7611243 105.0242671 131.5911926
  93.5371633 105.5139123 131.8636543  92.0359377 105.4500725 132.0483796
  95.1983801 105.7370290 132.6485867  95.7928292 105.4966026 131.9379175
  95.2710385 105.0177421 133.2759403  77.4180957 119.5803901 132.9629031
  77.2835425 118.8204302 132.3967030  77.0013019 120.3044801 132.4957820
  88.5539920 114.7640824 121.9705607  89.2575770 114.9690827 122.5863262
  87.8302569 115.3317586 122.2354690  89.3837730 110.5150686 128.0907877
  89.3272932 110.9719237 127.2515509  89.9366073 109.7541370 127.9130720
  93.1942536 106.3040418 128.9157996  92.9379470 105.9037053 129.7466204
  92.5695404 107.0184212 128.7908136  97.5054874 109.0436491 131.4229288
  96.9454432 109.1129680 132.1960850  96.8998377 108.8677475 130.7028784
  80.5750083 120.4773218 133.1747474  80.4582467 121.4218650 133.0726164
  79.7542529 120.1746779 133.5633273  90.4626617 115.2023354 124.0204067
  91.2972221 114.7704552 123.8381542  90.3010960 115.0305367 124.9480961
  90.1172509 111.7055467 125.3860406  90.0621313 111.5399738 124.4448850
  89.4918565 112.4131500 125.5422596  74.9065024 106.9423531 139.2121828
  75.5523888 106.4322485 139.7009054  74.6982176 107.6792213 139.7865254
  87.4318417 114.0104379 144.7113969  88.3009576 114.1845031 144.3500604
  86.9525168 114.8298796 144.5889698  83.4268635 101.2063576 124.9645725
  83.4147305 102.1505416 125.1213995  84.3192057 101.0233721 124.6705186
  81.6004597 121.1301480 136.3903403  82.5031844 121.1625090 136.7069898
  81.3741967 120.2001931 136.4049738  83.3558199 119.8832466 133.0513481
  82.4053830 119.8834328 132.9377853  83.6590685 119.1365201 132.5349516
  87.2420754  97.8006353 129.2191661  86.4753150  97.2464839 129.3648344
  87.6531459  97.8728221 130.0805813  79.2462515 104.0891148 143.3096843
  80.1093977 103.7327953 143.5200167  78.6727926 103.7505043 143.9972247
  99.0910892 125.7193005 134.1159244  99.7289302 125.5999752 133.4122584
  98.9731735 126.6673849 134.1747196  95.9000599 125.6720433 134.0520768
  95.5619110 125.5561498 133.1641303  96.7690367 125.2711598 134.0321774
  91.7587414 127.5255909 130.0417659  91.1952279 127.4345846 129.2733947
  91.6439809 126.7055814 130.5220152  96.3820382 126.8255285 140.0106974
  96.3709022 126.4308083 139.1387477  96.5441021 126.0921357 140.6040745
  89.3051846 129.0207101 132.8801880  90.0973138 128.6797926 132.4648179
  89.5448496 129.1302076 133.8004033  97.3386973 131.1926877 125.3532124
  96.6874953 131.7780957 124.9666138  98.1331336 131.7233072 125.4127162
  91.2642600 128.2816014 125.7519258  92.0373476 127.7345001 125.6132134
  91.6167999 129.1460263 125.9633720  93.1027643 129.6092396 138.9586158
  92.8117509 130.5138027 138.8432824  93.7384627 129.6508924 139.6730227
  94.0283850 126.9869245 135.5487517  94.6247422 126.7625267 134.8344480
  94.0858821 126.2453990 136.1512965  93.6008878 124.4408680 123.3837708
  93.8534399 123.9190202 122.6221171  92.6633437 124.2774826 123.4864392
  98.6452161 123.4444459 131.1912452  99.4315250 123.0263882 130.8402869
  98.9090865 124.3490551 131.3594100  98.8162238 128.8817309 125.8901108
  98.1808071 128.9551935 126.6022013  98.4859645 129.4710908 125.2120188
 104.0460588 123.3819692 132.0945430 104.7785760 122.8118909 132.3283260
 103.2899944 122.9941292 132.5351936  93.3205167 126.3436786 125.5862083
  93.2041425 125.6681690 126.2543168  93.4307427 125.8569160 124.7694236
  95.6636708 125.8046933 129.2908773  95.2994915 125.2777554 130.0021694
  96.5203824 125.4145402 129.1175258 101.5686008 117.0941266 136.5540039
 101.2369333 117.9636677 136.3301254 100.9731622 116.7777550 137.2334069
  95.3042195 120.8336833 124.2870121  95.4716597 121.7017069 124.6540592
  95.1139364 120.9964115 123.3631410  98.0617528 129.2953812 135.9535951
  97.7618251 130.1978851 135.8451759  97.7168587 129.0285995 136.8057104
  91.5130009 125.7467609 131.9872656  90.5880506 125.6143823 132.1950348
  91.7614423 126.5261828 132.4842598 101.4614672 121.8136352 133.6333389
 100.5531549 121.7451761 133.3392150 101.4102267 122.2908297 134.4615214
  95.2831416 123.2894491 125.2716788  95.1631041 123.7351541 126.1102268
  94.5884004 123.6379808 124.7130326  88.8738820 125.3900882 132.8216445
  89.0031202 125.6435361 133.7355857  88.1936272 125.9828590 132.5021100
  93.0438308 136.0598132 128.9206919  92.9662337 137.0105957 128.9995400
  92.4399951 135.7144005 129.5781845  95.5355537 123.2325998 141.5768286
  94.7588872 123.7919918 141.5671151  96.1746101 123.7182781 142.0983156
 103.3276318 120.0152790 135.4111263 102.6850698 120.3085324 134.7651057
 102.8231247 119.9005711 136.2164459 100.9816482 123.7615964 126.0997122
 101.8934338 123.9943350 125.9244820 100.4726129 124.3453008 125.5372201
  93.7901910 126.0411451 141.1386253  94.5316594 126.5796495 140.8621077
  93.0838895 126.6677740 141.2957805  99.2657249 128.1840592 139.7358415
  99.6740605 127.7423002 138.9913047  98.5434511 127.6093219 139.9892607
  95.6188319 123.1213198 137.1091971  96.4649515 123.5452612 137.2526620
  95.5586957 122.4646823 137.8030535  99.5886064 128.7441782 133.4910703
  98.9594926 128.9087496 132.7886771  99.2011726 129.1583392 134.2621667
 103.4675296 129.6796220 130.8455067 102.7826334 130.0595121 130.2952100
 103.5519145 130.2891547 131.5787015  98.7687765 120.7817567 138.7673145
  98.5248697 121.5359627 138.2307421  99.0447695 121.1602914 139.6020392
 100.7226228 127.3256179 137.4450411 100.9343123 127.9687939 136.7684792
 100.6755976 126.4918496 136.9772341  98.3252457 119.9374000 134.3486983
  97.4636936 120.2355253 134.6403720  98.3514891 120.1544399 133.4168015
  95.1414026 128.4816190 130.7560789  95.6052371 128.7603893 129.9665411
  94.8770824 127.5799635 130.5733879  92.0338107 128.0287672 133.6940552
  92.6039464 128.4574940 133.0558036  92.6246219 127.7470256 134.3924737
  94.0782912 124.6039343 127.5650354  94.7806955 125.0560386 128.0324280
  93.7463540 123.9623161 128.1930247  92.5263274 123.1951099 141.9401563
  91.8961934 123.8767380 142.1736960  92.4199361 123.0834181 140.9954701
  87.8208246 122.8622895 132.8667487  87.0307300 123.1180424 132.3907598
  88.3119493 123.6771233 132.9719528 101.8372055 130.2028134 135.6172768
 102.6589499 129.8008322 135.3355450 101.8334458 130.0996369 136.5688884
  89.7722991 123.2267475 129.8250964  88.9754155 123.3386169 130.3434460
  89.5448584 123.5654127 128.9591854  95.6028659 129.7512178 137.7733479
  95.6673091 130.2132585 138.6091650  94.8939583 129.1209543 137.9015788
  86.1045949 123.1153386 135.2982478  86.3553987 124.0000396 135.5640054
  86.6405497 122.9357987 134.5257570 109.9278049 126.5466883 131.9657740
 109.1741757 125.9774281 131.8101744 110.0625590 126.5129547 132.9128374
  95.3176677 131.4180285 127.6412459  95.1822351 132.2631821 128.0697307
  95.8586489 131.6199563 126.8778393  91.8044016 117.4971865 144.3026814
  91.4110962 116.9438064 144.9774458  92.6210157 117.8082444 144.6933332
  88.7706074 128.9355723 128.2140384  89.2830595 129.7298974 128.3645949
  89.4228787 128.2382014 128.1473985  90.5800959 132.0521480 130.2963137
  90.7567587 132.9739444 130.1084121  91.3757792 131.7379899 130.7257517
  94.7211977 118.9129744 141.8947071  95.4621691 119.5136897 141.8151533
  94.9529900 118.1707382 141.3365113  89.8653315 124.0986111 140.1725300
  89.7506830 123.1971369 140.4732399  89.0097833 124.3449808 139.8210117
  91.7032274 133.5699653 136.2973479  92.2539699 133.4416717 135.5250473
  90.8643750 133.8694542 135.9468372  95.4999445 129.8350781 140.6417711
  96.0327782 129.0739069 140.4117019  94.9713526 129.5424433 141.3841865
  98.6669140 114.9410847 136.1711352  98.3233410 115.8312489 136.0950463
  99.0348103 114.7512505 135.3080937  86.7354991 127.2644378 128.9899954
  87.5730213 127.6741386 128.7733662  86.9133258 126.3243820 128.9600148
  98.6319423 124.9319458 124.6783787  98.1166046 125.7024063 124.9172175
  98.3596731 124.2584594 125.3016849  96.2166534 119.7769159 129.7369026
  95.3608130 119.3876009 129.5574665  96.6293486 119.8561120 128.8768811
  97.7465681 117.3115502 134.1360586  97.2430476 117.2745637 133.3228391
  98.0396287 118.2208245 134.1957242  93.9908566 117.3954232 133.1426767
  94.8561563 117.1997041 132.7832657  94.0586075 117.1664584 134.0696124
 103.6053697 127.6851813 126.6136961 102.8283140 127.3462972 126.1692123
 104.2845178 127.6904436 125.9391926  98.4205726 122.8046550 126.5043569
  98.1155862 123.1192699 127.3553712  99.3736168 122.8827970 126.5470902
  96.8652158 128.9636774 128.1536523  96.3373519 128.2289533 127.8409760
  96.3639661 129.7411450 127.9076491 101.8445004 127.1585794 133.2703569
 101.1868678 127.8485055 133.3583698 102.6485403 127.5482226 133.6137555
  91.5970886 119.6256440 130.5143134  92.1714637 119.4031621 129.7816327
  92.1841868 119.6945134 131.2671735 100.6550463 125.5130167 131.3207511
 101.1682344 126.1460159 131.8229220 101.3051687 124.9131362 130.9550871
  91.9240473 121.6560901 124.5339019  91.0877785 121.9935587 124.8548294
  91.7845242 121.5209881 123.5966156  93.8993553 116.4997689 129.2418204
  93.2457966 116.1846706 128.6174818  93.8574027 115.8773429 129.9678026
  95.0104758 126.7816984 121.1571496  94.1031820 126.5506237 121.3562645
  95.5075790 125.9854603 121.3445477  97.9172837 135.4914491 124.0768182
  97.2434536 135.7946188 124.6853140  98.3038659 136.2943571 123.7273639
  97.1331294 122.9879622 133.5665851  96.2153855 123.2094569 133.4087539
  97.5491437 123.0625933 132.7077559  97.9166341 124.3871038 128.6968531
  98.6638160 124.8992435 128.3875653  98.1857931 124.0655091 129.5572925
  96.1892992 126.8829579 125.6795486  95.2804211 126.5988612 125.7767955
  96.2188075 127.3028657 124.8198793 101.4212259 130.4936168 129.4486653
 100.9674586 129.6527078 129.5051844 100.7906226 131.1297567 129.7861433
 100.3645179 121.4228154 130.6787321  99.6267935 120.9105540 131.0097563
 100.6171952 120.9828536 129.8670598  99.8645198 132.3312665 130.3836471
 100.1568173 132.8917722 129.6648837 100.3743819 132.6241226 131.1389631
 100.4656806 114.2004406 131.2729090 100.7715683 113.3401770 130.9855005
 101.1909411 114.7922026 131.0728084  86.7581162 124.6035093 129.6610688
  86.5605562 124.0104454 128.9361755  86.2027826 124.2987303 130.3786627
  94.7377886 124.4958199 131.7805281  94.7926495 123.5432036 131.7047758
  93.9269088 124.6517638 132.2646580  95.8869079 128.4238322 123.0183564
  95.4488509 127.7074181 122.5589202  96.6279520 128.6514437 122.4568656
  92.6770245 123.1135259 129.5395660  91.8638111 123.4129430 129.9460852
  93.1729240 122.7190948 130.2570142  94.8278823 133.1093016 131.4729925
  94.7855002 133.3353862 130.5438457  95.7441522 132.8756391 131.6215726
  98.2744457 123.5777084 138.3710554  98.6293845 123.8048557 139.2305020
  98.9216588 123.9095460 137.7487809 104.0042194 126.6995519 129.0759883
 103.8660093 126.8897115 128.1481072 103.6478413 127.4614902 129.5327934
  92.1684320 120.6853615 135.1556895  92.8083700 120.5442374 134.4579858
  91.3361851 120.3988128 134.7795497 104.0311574 128.7672046 134.0871154
 104.4648080 128.6747336 134.9354208 104.7443154 128.7429547 133.4491170
  92.9444624 129.9856045 131.2691887  93.7385223 129.4906365 131.0674462
  92.2336317 129.4573908 130.9059593  97.7639469 132.3674141 135.6204255
  97.8176491 132.9365077 136.3881971  96.8954250 132.5376026 135.2558292
  89.2527388 124.1299127 127.3451640  88.3224976 124.0683582 127.5621602
  89.3484860 123.6075080 126.5488281  89.1712937 120.6553940 129.9329882
  89.4319754 121.5699273 129.8239042  89.9930109 120.1878382 130.0826495
  90.6437862 122.0691697 137.1028706  91.3160915 121.8609059 136.4541355
  89.8167649 121.8713783 136.6633939 104.8927123 128.8095747 136.6204040
 105.0863013 129.7141558 136.8663315 104.7927741 128.3503166 137.4542625
  96.5463434 118.6953638 139.1194367  95.8991349 119.3943587 139.0258844
  97.3164449 119.1289782 139.4870615  96.7227568 126.5334403 137.1791187
  97.6519628 126.6845562 137.0060154  96.3018598 126.6218423 136.3239833
  95.5215900 130.5585067 134.9489724  95.3826986 130.1903851 135.8215663
  94.7330496 131.0732706 134.7773682  96.1164052 135.6594163 126.2915261
  96.2915808 135.1882207 127.1060884  95.4296840 136.2859930 126.5196522
  97.0721115 129.9366670 132.3378562  96.7370948 129.8967440 133.2336212
  96.5725061 129.2711386 131.8648972  91.0465359 125.3434300 137.8631143
  90.9085157 124.6114539 138.4642682  91.9570283 125.2543200 137.5815331
 100.0080307 127.2822704 122.6115622  99.3909478 126.5569532 122.5148675
  99.5396795 128.0432064 122.2682696  93.6747660 125.0554259 137.3514823
  94.3847278 124.4147451 137.3101441  93.6316968 125.3067154 138.2741004
  92.3876594 122.0419477 139.1710463  91.8513951 121.5910215 139.8232059
  91.7993302 122.1765386 138.4280927  90.6825137 138.8083526 133.0655121
  90.9221736 139.4402050 133.7434140  89.8394334 138.4571566 133.3520480
  91.7978853 121.5008128 121.7336926  90.9208319 121.3796929 121.3699173
  92.2736606 120.7094207 121.4815815 101.6651846 129.9561196 138.5035382
 100.7778625 129.6187118 138.6261781 102.2350397 129.2244228 138.7404147
  83.3180993 126.2885288 131.8278433  84.0052033 125.9747018 131.2399449
  83.1629122 127.1926653 131.5545685  88.1215715 121.1775485 136.2563457
  88.0373904 120.5701154 135.5213867  87.2998422 121.6684503 136.2572953
  95.1952999 134.6162649 135.4696625  95.1223171 135.4217620 135.9815930
  94.7530392 134.8154615 134.6444647  94.9842779 133.8534419 128.9799447
  94.2010301 134.3956099 129.0737671  95.6835524 134.3708398 129.3793688
  98.2939429 119.6629048 131.6233652  98.7908129 118.9099011 131.3034722
  97.5226411 119.6993365 131.0576861 106.1469186 125.3669414 133.2651944
 106.1359063 126.2494129 132.8945877 105.2786566 125.0140965 133.0706481
  99.3769210 128.4200735 129.1972075  98.4425488 128.5402198 129.0276780
  99.5545878 127.5173202 128.9332085  94.8774398 121.8046431 131.3505337
  94.5072185 121.2517472 132.0386242  95.3733490 121.2004565 130.7980337
 102.7641761 124.2618055 129.7322110 103.2302213 125.0946046 129.6582412
 103.2149262 123.7963036 130.4367368  92.7063596 132.2643926 138.4460355
  93.4073056 132.8980409 138.5989749  92.2358711 132.6058658 137.6855994
 100.8317992 130.6061876 126.7308262 101.1077836 130.4918471 127.6402136
  99.9622491 130.2079361 126.6920435 100.7358424 116.6298642 133.7713011
  99.8221504 116.8602869 133.9395218 101.1651525 116.7137086 134.6227043
 100.5064882 124.8188534 136.2712905  99.8536333 125.0664441 135.6165358
 100.8845262 124.0052672 135.9375382  97.4672056 134.8548227 130.3741075
  97.6494451 134.0369883 130.8368828  98.2905042 135.0715919 129.9365965
  97.8014222 133.7816412 127.6356124  98.3301988 133.2708867 127.0226286
  98.0642441 133.4658942 128.5001657  96.5552455 125.5608345 142.7578942
  95.8793092 125.4602474 143.4281317  97.3780089 125.4047558 143.2214939
  88.3031314 131.7980281 135.3791457  88.8884751 131.0523969 135.5119362
  88.1056153 132.1084238 136.2628121  91.1569970 134.8331529 130.3953900
  90.4880345 135.3177656 129.9117940  91.0182839 135.0800749 131.3097278
  82.8948969 124.3685881 134.0995900  82.9333069 123.8349472 134.8933019
  82.3889262 123.8421087 133.4806878  90.2739731 119.2150422 137.5958443
  90.3381058 120.0765253 137.1835840  90.2106852 118.6024424 136.8630801
  89.7492004 121.2873554 141.2431477  90.3764043 120.9050632 141.8569001
  88.8919923 121.0687756 141.6087170  86.5257547 123.0949984 127.1749832
  86.8210988 122.1860662 127.1216886  85.6245582 123.0737723 126.8530834
  98.4343625 134.8157248 133.9800240  98.3094765 134.0146988 133.4711186
  99.0922717 135.3103441 133.4914210  90.0551794 121.1705980 133.1577380
  89.3338379 121.7841948 133.0184854  90.8445049 121.7063745 133.0794026
 100.4978534 132.6166268 135.6079790  99.5508869 132.4971619 135.5358117
 100.8461307 131.7288766 135.6906052  92.8578107 118.5060407 139.4318032
  93.3812509 118.7522703 140.1944342  92.6390440 119.3380441 139.0121170
  88.2545388 120.7764081 127.2989157  87.9258094 119.8961460 127.1164263
  88.6084759 120.7211750 128.1865546  97.5024967 132.4118984 131.8084143
  97.3549930 131.4835691 131.9891713  98.3278461 132.4339075 131.3241218
  91.3687211 121.0637051 127.6664635  91.7083284 121.5922972 126.9443243
  91.8159332 121.4017457 128.4423201 101.1059089 133.2347543 132.8949015
 102.0305636 133.0290404 132.7573466 100.9374392 132.9863944 133.8038357
  94.0630652 119.4474102 137.1167703  93.7227473 118.6481915 137.5188383
  93.3569659 119.7475813 136.5444536  94.7147124 116.5323414 135.5695026
  95.5373193 116.0583892 135.4473916  94.9585188 117.3113898 136.0693712
  93.3555359 119.5611673 125.8657927  94.0763721 119.9392925 125.3621644
  92.7320663 120.2800549 125.9692905  97.4986481 120.2656822 126.8016260
  97.7150096 121.1481460 126.5005088  97.0180549 119.8743035 126.0721902
  92.2385703 123.2242535 133.3787004  92.0930284 123.5382838 134.2711286
  91.7610906 123.8427435 132.8257903  94.0982086 120.2145083 133.4267894
  94.0843654 119.3186176 133.0900192  94.8154514 120.2215747 134.0606180
  95.9508216 120.6482423 135.4721021  95.6925994 121.5699494 135.4705352
  95.4193257 120.2512858 136.1621485 100.8954405 133.7533210 128.2511107
 101.0691283 133.1879633 127.4984959 101.3883296 134.5534105 128.0690597
  86.7131365 125.7647879 136.3174666  86.1684833 126.5407687 136.4494940
  87.5910715 126.1118684 136.1593787  93.5018982 119.0959463 128.6955464
  93.6234893 118.1676109 128.8946352  93.2121024 119.1098149 127.7833779
  96.3710172 116.7814374 131.8322184  96.3931869 116.8453707 130.8774163
  96.7878231 115.9418882 132.0262690 106.7493796 126.5169633 129.8701406
 107.1924942 125.7676958 129.4720530 105.8720307 126.5079769 129.4875138
 101.8829578 133.0699975 125.3508005 102.5780482 133.6906667 125.5695320
 102.2252728 132.2195326 125.6260383  87.4997387 124.8917776 139.2104822
  86.7579123 125.0400411 139.7969453  87.1790131 125.1526041 138.3471572
 103.7821001 130.5199680 126.8795336 104.3072325 130.8586953 126.1544656
 103.6943353 129.5846695 126.6958470  95.4661662 136.5871663 131.2390589
  95.0266652 136.0948042 131.9323446  96.2169779 136.0444631 130.9982664
  87.9454001 132.7783204 131.2415217  88.7712020 132.4786976 130.8613861
  87.5948053 132.0090827 131.6905006  92.9135534 132.1309672 133.3112891
  92.2915543 131.4680377 133.0115118  93.5840401 132.1570804 132.6286538
  86.1462606 130.6969531 132.2004151  85.3094514 130.2691705 132.0188152
  86.1186251 130.8901974 133.1374942  92.9860061 120.6091460 142.9045397
  93.0348217 121.4853583 142.5223166  93.5282575 120.0668854 142.3317040
  92.4749041 130.6813596 126.7871351  92.6237161 131.3649060 126.1338024
  93.2815484 130.6618686 127.3020807 100.8816544 123.9855978 140.8138569
 101.7826407 123.8462443 140.5222567 100.9564519 124.1510433 141.7536746
  95.2159350 121.3622833 139.6591755  94.3462659 121.6556399 139.3874344
  95.4518830 121.9463278 140.3799019 106.2926661 127.9874871 132.2623854
 107.1273552 128.4264675 132.4261414 106.4285790 127.5113525 131.4432100
 103.3418167 125.5454606 138.2101342 103.8172289 125.7382253 137.4020193
 102.4183732 125.6013792 137.9644725  90.2301674 126.7078773 127.7932420
  89.9847716 125.8041103 127.9912630  90.3997588 126.7095924 126.8511898
  97.9198383 117.5802450 137.1757176  98.4380327 118.3163477 136.8503664
  97.5653516 117.8866443 138.0103935  89.4997321 122.4407131 125.2918582
  88.8066566 122.5151486 124.6358618  89.2549073 121.6767475 125.8140098
  98.1710978 114.0002732 132.6958072  98.4512731 113.3325921 133.3218499
  98.9561585 114.1931828 132.1832736  95.9744446 133.1761726 124.2583099
  95.4018413 133.7951913 123.8053570  96.5477240 133.7261088 124.7923021
 102.0419836 122.4220366 136.4429647 102.9937259 122.5218464 136.4641871
 101.8723286 121.6298635 136.9527732 100.0634215 119.5075950 136.6289048
  99.4684148 119.7880962 135.9335537  99.7783912 119.9969850 137.4005789
  99.1941706 133.4598876 125.3891681 100.1272379 133.3944438 125.5924556
  99.1064919 134.2955143 124.9306214 101.8229723 132.7764747 122.3495628
 101.7443354 132.4424610 123.2431386 102.6439389 133.2686515 122.3487101
 104.5207914 125.6426486 135.5571947 104.4884234 124.7042487 135.7431631
 105.1308537 125.7210523 134.8237772  96.3591245 124.5122539 121.5999151
  97.3050349 124.3828747 121.6687569  95.9805490 123.7737201 122.0768579
 104.6702402 122.4337529 135.6030230 104.1541451 121.6495986 135.4160159
 105.5542351 122.1056246 135.7676750 102.3313129 116.1778545 131.5626043
 102.1337950 115.8693633 132.4469375 102.9412835 116.9040184 131.6923973
 110.3384464 126.7042493 134.6977984 111.0687852 126.4427781 135.2585687
 109.7291409 125.9671215 134.7380052 108.4199761 124.8450355 135.2952435
 107.6932924 124.7106320 134.6868927 108.0047048 125.1527184 136.1009153
  94.5434162 122.4372515 121.5354036  93.6365617 122.1405628 121.6116750
  94.8210143 122.1402333 120.6688323  85.4612102 123.7578879 131.9853083
  85.1414887 122.9044187 131.6927457  84.9145530 123.9727457 132.7411050
  89.2392010 126.4741320 135.7022589  89.4578020 127.4058428 135.7210623
  89.6517784 126.1149294 136.4877393  96.1596228 116.9809405 127.6898278
  95.3496956 116.6356490 128.0653524  96.8480644 116.6716949 128.2785889
  98.0886776 116.0587452 129.3122574  98.6417814 116.4782905 129.9712597
  98.3256862 115.1323200 129.3545530  94.1119875 122.0474526 145.0925338
  94.0116602 122.9968883 145.0237429  93.8941417 121.7192764 144.2201408
  93.3132946 119.2959451 121.6766016  94.1752110 119.6214349 121.9361833
  93.4983291 118.5090947 121.1639081  85.3300362 127.3781790 133.9546204
  84.6363834 126.9635743 133.4416159  86.0773353 127.4202327 133.3579623
 101.4665583 118.1687977 128.8201239 100.8864252 118.8272781 128.4379291
 101.2001516 117.3465322 128.4088656  99.9169149 117.5693035 131.0222559
 100.4168928 117.6809569 130.2136878 100.5604757 117.2654088 131.6623367
  93.9751145 125.4771664 143.9090400  93.4918227 126.2772025 144.1154289
  94.0612084 125.4879609 142.9557844  87.2437105 127.3100044 131.8312219
  87.2207793 127.4087731 130.8794102  87.5537741 128.1565195 132.1529385
  89.9024483 129.3676199 135.9458834  90.8567736 129.3360141 135.8788765
  89.7037006 128.9066823 136.7609060  90.4923865 127.9377315 138.5129631
  91.3116754 128.4321394 138.5364469  90.7660672 127.0209283 138.4847199
 100.2490461 120.3288067 127.8757587  99.3616316 120.6137718 127.6577782
 100.6644450 120.1681831 127.0284864 103.6004997 120.3534588 131.5911926
 104.3765387 120.8431041 131.8636543 102.8753131 120.7792643 132.0483796
 106.0377556 121.0662208 132.6485867 106.6322046 120.8257944 131.9379175
 106.1104139 120.3469338 133.2759403  88.2574711 134.9095819 132.9629031
  88.1229179 134.1496219 132.3967030  87.8406774 135.6336718 132.4957820
  99.3933674 130.0932742 121.9705607 100.0969525 130.2982745 122.5863262
  98.6696323 130.6609504 122.2354690 100.2231485 125.8442603 128.0907877
 100.1666686 126.3011155 127.2515509 100.7759827 125.0833288 127.9130720
 104.0336291 121.6332335 128.9157996 103.7773225 121.2328971 129.7466204
 103.4089159 122.3476129 128.7908136 108.3448628 124.3728408 131.4229288
 107.7848186 124.4421598 132.1960850 107.7392132 124.1969393 130.7028784
  91.4143837 135.8065136 133.1747474  91.2976221 136.7510568 133.0726164
  90.5936284 135.5038697 133.5633273 101.3020372 130.5315271 124.0204067
 102.1365976 130.0996470 123.8381542 101.1404715 130.3597285 124.9480961
 100.9566264 127.0347385 125.3860406 100.9015068 126.8691656 124.4448850
 100.3312319 127.7423418 125.5422596  85.7458779 122.2715449 139.2121828
  86.3917643 121.7614403 139.7009054  85.5375930 123.0084131 139.7865254
  94.2662389 116.5355494 124.9645725  94.2541059 117.4797334 125.1213995
  95.1585811 116.3525639 124.6705186  92.4398351 136.4593397 136.3903403
  93.3425598 136.4917008 136.7069898  92.2135721 135.5293848 136.4049738
  94.1951953 135.2124384 133.0513481  93.2447584 135.2126246 132.9377853
  94.4984440 134.4657119 132.5349516  98.0814509 113.1298270 129.2191661
  97.3146905 112.5756757 129.3648344  98.4925214 113.2020139 130.0805813
  90.0856270 119.4183066 143.3096843  90.9487732 119.0619871 143.5200167
  89.5121681 119.0796961 143.9972247 102.5981169 142.8547827 130.0417659
 102.0346034 142.7637764 129.2733947 102.4833564 142.0347731 130.5220152
 108.1780728 146.5218795 125.3532124 107.5268707 147.1072875 124.9666138
 108.9725090 147.0524990 125.4127162 102.1036355 143.6107932 125.7519258
 102.8767231 143.0636919 125.6132134 102.4561754 144.4752181 125.9633720
 104.4402633 139.7700598 123.3837708 104.6928153 139.2482119 122.6221171
 103.5027192 139.6066743 123.4864392 109.6555993 144.2109227 125.8901108
 109.0201826 144.2843853 126.6022013 109.3253399 144.8002825 125.2120188
 104.1598921 141.6728704 125.5862083 104.0435179 140.9973607 126.2543168
 104.2701181 141.1861078 124.7694236 106.5030462 141.1338851 129.2908773
 106.1388669 140.6069472 130.0021694 107.3597578 140.7437320 129.1175258
 106.1435949 136.1628751 124.2870121 106.3110352 137.0308987 124.6540592
 105.9533118 136.3256032 123.3631410 106.1225170 138.6186408 125.2716788
 106.0024795 139.0643459 126.1102268 105.4277758 138.9671726 124.7130326
 111.8210236 139.0907881 126.0997122 112.7328092 139.3235268 125.9244820
 111.3119883 139.6744926 125.5372201 104.9176666 139.9331260 127.5650354
 105.6200710 140.3852304 128.0324280 104.5857295 139.2915079 128.1930247
  98.6602000 138.1914813 132.8667487  97.8701054 138.4472341 132.3907598
  99.1513248 139.0063151 132.9719528 100.6116746 138.5559392 129.8250964
  99.8147909 138.6678086 130.3434460 100.3842338 138.8946044 128.9591854
  99.6099828 144.2647641 128.2140384 100.1224349 145.0590891 128.3645949
 100.2622541 143.5673931 128.1473985  97.5748745 142.5936295 128.9899954
  98.4123967 143.0033304 128.7733662  97.7527013 141.6535737 128.9600148
 109.4713177 140.2611376 124.6783787 108.9559801 141.0315981 124.9172175
 109.1990486 139.5876512 125.3016849 107.0560288 135.1061077 129.7369026
 106.2001885 134.7167927 129.5574665 107.4687240 135.1853037 128.8768811
 104.8302321 132.7246150 133.1426767 105.6955318 132.5288958 132.7832657
 104.8979830 132.4956501 134.0696124 109.2599481 138.1338468 126.5043569
 108.9549616 138.4484617 127.3553712 110.2129923 138.2119888 126.5470902
 107.7045912 144.2928691 128.1536523 107.1767274 143.5581451 127.8409760
 107.2033415 145.0703368 127.9076491 102.4364640 134.9548358 130.5143134
 103.0108392 134.7323539 129.7816327 103.0235622 135.0237052 131.2671735
 102.7634227 136.9852819 124.5339019 101.9271539 137.3227505 124.8548294
 102.6238997 136.8501798 123.5966156 104.7387308 131.8289606 129.2418204
 104.0851720 131.5138624 128.6174818 104.6967782 131.2065347 129.9678026
 105.8498513 142.1108902 121.1571496 104.9425574 141.8798155 121.3562645
 106.3469545 141.3146521 121.3445477 108.7560096 139.7162956 128.6968531
 109.5031915 140.2284353 128.3875653 109.0251685 139.3947008 129.5572925
 107.0286746 142.2121496 125.6795486 106.1197965 141.9280529 125.7767955
 107.0581830 142.6320575 124.8198793 111.2038933 136.7520072 130.6787321
 110.4661690 136.2397458 131.0097563 111.4565707 136.3120454 129.8670598
 111.3050560 129.5296324 131.2729090 111.6109437 128.6693687 130.9855005
 112.0303165 130.1213944 131.0728084  97.5974916 139.9327011 129.6610688
  97.3999316 139.3396371 128.9361755  97.0421580 139.6279221 130.3786627
 106.7262834 143.7530240 123.0183564 106.2882264 143.0366099 122.5589202
 107.4673275 143.9806355 122.4568656 103.5164000 138.4427177 129.5395660
 102.7031866 138.7421347 129.9460852 104.0122994 138.0482866 130.2570142
 100.0921142 139.4591044 127.3451640  99.1618730 139.3975500 127.5621602
 100.1878614 138.9366997 126.5488281 100.0106691 135.9845857 129.9329882
 100.2713508 136.8991191 129.8239042 100.8323863 135.5170300 130.0826495
 110.8474061 142.6114622 122.6115622 110.2303232 141.8861450 122.5148675
 110.3790550 143.3723982 122.2682696 102.6372607 136.8300046 121.7336926
 101.7602074 136.7088847 121.3699173 103.1130360 136.0386124 121.4815815
  94.1574747 141.6177206 131.8278433  94.8445787 141.3038936 131.2399449
  94.0022876 142.5218570 131.5545685  98.9609470 136.5067402 136.2563457
  98.8767658 135.8993072 135.5213867  98.1392176 136.9976421 136.2572953
 109.1333183 134.9920966 131.6233652 109.6301883 134.2390928 131.3034722
 108.3620165 135.0285283 131.0576861 105.7168152 137.1338349 131.3505337
 105.3465940 136.5809389 132.0386242 106.2127245 136.5296482 130.7980337
  93.7342724 139.6977799 134.0995900  93.7726823 139.1641390 134.8933019
  93.2283016 139.1713005 133.4806878  97.3651301 138.4241901 127.1749832
  97.6604742 137.5152580 127.1216886  96.4639337 138.4029641 126.8530834
 100.8945548 136.4997898 133.1577380 100.1732134 137.1133866 133.0184854
 101.6838804 137.0355663 133.0794026  99.0939143 136.1055999 127.2989157
  98.7651849 135.2253378 127.1164263  99.4478513 136.0503668 128.1865546
 102.2080966 136.3928969 127.6664635 102.5477038 136.9214890 126.9443243
 102.6553086 136.7309375 128.4423201 104.1949113 134.8903590 125.8657927
 104.9157476 135.2684843 125.3621644 103.5714417 135.6092467 125.9692905
 108.3380236 135.5948739 126.8016260 108.5543850 136.4773377 126.5005088
 107.8574303 135.2034953 126.0721902 104.9375840 135.5437001 133.4267894
 104.9237409 134.6478094 133.0900192 105.6548268 135.5507664 134.0606180
 104.3412736 134.4251381 128.6955464 104.4628647 133.4968027 128.8946352
 104.0514779 134.4390067 127.7833779 107.2103927 132.1106291 131.8322184
 107.2325623 132.1745624 130.8774163 107.6271986 131.2710800 132.0262690
 103.3142795 146.0105513 126.7871351 103.4630915 146.6940978 126.1338024
 104.1209239 145.9910604 127.3020807 101.0695428 142.0370691 127.7932420
 100.8241470 141.1333021 127.9912630 101.2391343 142.0387842 126.8511898
 100.3391076 137.7699049 125.2918582  99.6460321 137.8443404 124.6358618
 100.0942828 137.0059392 125.8140098 109.0104732 129.3294650 132.6958072
 109.2906486 128.6617839 133.3218499 109.7955339 129.5223746 132.1832736
 106.8138201 148.5053644 124.2583099 106.2412168 149.1243831 123.8053570
 107.3870994 149.0553006 124.7923021 112.6623477 148.1056664 122.3495628
 112.5837109 147.7716528 123.2431386 113.4833144 148.5978432 122.3487101
 107.1984999 139.8414457 121.5999151 108.1444104 139.7120665 121.6687569
 106.8199244 139.1029119 122.0768579 113.1706884 131.5070463 131.5626043
 112.9731705 131.1985551 132.4469375 113.7806589 132.2332102 131.6923973
 105.3827916 137.7664433 121.5354036 104.4759372 137.4697546 121.6116750
 105.6603897 137.4694251 120.6688323  96.3005857 139.0870796 131.9853083
  95.9808641 138.2336105 131.6927457  95.7539285 139.3019375 132.7411050
 106.9989982 132.3101323 127.6898278 106.1890710 131.9648408 128.0653524
 107.6874399 132.0008867 128.2785889 108.9280530 131.3879370 129.3122574
 109.4811569 131.8074823 129.9712597 109.1650617 130.4615118 129.3545530
 104.1526701 134.6251368 121.6766016 105.0145865 134.9506267 121.9361833
 104.3377045 133.8382864 121.1639081 112.3059337 133.4979895 128.8201239
 111.7258006 134.1564699 128.4379291 112.0395270 132.6757239 128.4088656
 110.7562904 132.8984952 131.0222559 111.2562682 133.0101487 130.2136878
 111.3998512 132.5946005 131.6623367  98.0830859 142.6391962 131.8312219
  98.0601547 142.7379649 130.8794102  98.3931496 143.4857113 132.1529385
 111.0884215 135.6579985 127.8757587 110.2010070 135.9429636 127.6577782
 111.5038204 135.4973749 127.0284864 110.2327429 145.4224660 121.9705607
 110.9363279 145.6274662 122.5863262 109.5090078 145.9901422 122.2354690
 111.0625239 141.1734521 128.0907877 111.0060441 141.6303072 127.2515509
 111.6153582 140.4125206 127.9130720 114.8730045 136.9624253 128.9157996
 114.6166979 136.5620889 129.7466204 114.2482913 137.6768047 128.7908136
 112.1414126 145.8607189 124.0204067 112.9759730 145.4288387 123.8381542
 111.9798469 145.6889203 124.9480961 111.7960018 142.3639302 125.3860406
 111.7408822 142.1983574 124.4448850 111.1706074 143.0715335 125.5422596
 105.1056144 131.8647411 124.9645725 105.0934814 132.8089251 125.1213995
 105.9979566 131.6817557 124.6705186 108.9208263 128.4590188 129.2191661
 108.1540659 127.9048675 129.3648344 109.3318968 128.5312057 130.0805813
  32.3024447  16.2237494 112.0777431  31.6512427  16.8091574 111.6911445
  33.0968810  16.7543688 112.1372468  26.2280075  13.3126631 112.4764565
  27.0010951  12.7655618 112.3377441  26.5805473  14.1770880 112.6879026
  28.5646352   9.4719297 110.1083015  28.8171873   8.9500818 109.3466478
  27.6270911   9.3085442 110.2109699  33.7799713  13.9127925 112.6146415
  33.1445546  13.9862552 113.3267320  33.4497119  14.5021524 111.9365494
  28.2842641  11.3747403 112.3107390  28.1678899  10.6992306 112.9788474
  28.3944901  10.8879777 111.4939543  30.2679669   5.8647450 111.0115428
  30.4354071   6.7327686 111.3785899  30.0776838   6.0274731 110.0876717
  30.2468890   8.3205107 111.9962095  30.1268515   8.7662158 112.8347575
  29.5521478   8.6690425 111.4375633  28.0075782  21.0908749 115.6452226
  27.9299812  22.0416574 115.7240706  27.4037426  20.7454621 116.3027152
  35.9453956   8.7926580 112.8242429  36.8571812   9.0253967 112.6490126
  35.4363603   9.3763624 112.2617507  38.4312770  14.7106837 117.5700374
  37.7463808  15.0905738 117.0197407  38.5156620  15.3202163 118.3032322
  30.1051500  13.5126807 117.4806095  30.5689846  13.7914510 116.6910718
  29.8408298  12.6110251 117.2979186  29.0420386   9.6349959 114.2895660
  29.7444430  10.0871003 114.7569587  28.7101015   8.9933778 114.9175553
  44.8915523  11.5777499 118.6903046  44.1379231  11.0084898 118.5347051
  45.0263064  11.5440164 119.6373681  30.2814151  16.4490902 114.3657766
  30.1459826  17.2942437 114.7942613  30.8223963  16.6510179 113.6023699
  23.7343548  13.9666340 114.9385691  24.2468069  14.7609590 115.0891255
  24.3866261  13.2692630 114.8719292  25.5438433  17.0832096 117.0208444
  25.7205061  18.0050061 116.8329428  26.3395267  16.7690515 117.4502824
  33.5956897   9.9630075 111.4029094  33.0803521  10.7334679 111.6417481
  33.3234206   9.2895211 112.0262156  38.5691171  12.7162429 113.3382268
  37.7920614  12.3773589 112.8937430  39.2482652  12.7215053 112.6637233
  33.3843200   7.8357167 113.2288875  33.0793336   8.1503316 114.0799018
  34.3373643   7.9138587 113.2716208  31.8289632  13.9947390 114.8781829
  31.3010994  13.2600150 114.5655067  31.3277135  14.7722066 114.6321798
  36.8082478  12.1896411 119.9948876  36.1506153  12.8795672 120.0829004
  37.6122877  12.5792843 120.3382862  35.6187937  10.5440783 118.0452817
  36.1319819  11.1770775 118.5474527  36.2689161   9.9441979 117.6796177
  26.8877947   6.6871517 111.2584326  26.0515259   7.0246204 111.5793601
  26.7482717   6.5520497 110.3211463  29.9742232  11.8127600 107.8816802
  29.0669294  11.5816854 108.0807951  30.4713264  11.0165220 108.0690784
  32.8810311  20.5225108 110.8013488  32.2072010  20.8256804 111.4098446
  33.2676133  21.3254188 110.4518946  32.8803816   9.4181655 115.4213838
  33.6275635   9.9303052 115.1120960  33.1495405   9.0965707 116.2818232
  31.1530466  11.9140195 112.4040792  30.2441685  11.6299228 112.5013262
  31.1825550  12.3339274 111.5444099  36.3849733  15.5246785 116.1731960
  35.9312060  14.6837695 116.2297150  35.7543700  16.1608183 116.5106740
  34.8282673  17.3623281 117.1081778  35.1205647  17.9228339 116.3894144
  35.3381293  17.6551842 117.8634937  30.8506554  13.4548939 109.7428871
  30.4125984  12.7384798 109.2834508  31.5916995  13.6825054 109.1813962
  29.7916298  18.1403633 118.1975231  29.7492476  18.3664479 117.2683763
  30.7078997  17.9067007 118.3461032  38.9679668  11.7306136 115.8005190
  38.8297567  11.9207732 114.8726379  38.6115887  12.4925519 116.2573241
  38.9949048  13.7982663 120.8116461  39.4285555  13.7057952 121.6599515
  39.7080629  13.7740163 120.1736477  31.0801526  20.6904780 113.0160568
  31.2553282  20.2192823 113.8306190  30.3934314  21.3170546 113.2441828
  34.9717781  12.3133321 109.3360929  34.3546952  11.5880149 109.2393981
  34.5034270  13.0742681 108.9928003  25.6462612  23.8394143 119.7900428
  25.8859210  24.4712667 120.4679446  24.8031808  23.4882183 120.0765787
  26.7616327   6.5318745 108.4582233  25.8845793   6.4107546 108.0944479
  27.2374080   5.7404823 108.2061121  29.9480253  18.8845035 115.7044753
  29.1647775  19.4266715 115.7982978  30.6472998  19.4019015 116.1038994
  41.1106661  10.3980030 119.9897250  41.0996537  11.2804746 119.6191183
  40.2424040  10.0451581 119.7951787  34.3406684  13.4511352 115.9217382
  33.4062963  13.5712814 115.7522086  34.5183352  12.5483819 115.6577392
  37.7279235   9.2928671 116.4567416  38.1939688  10.1256663 116.3827719
  38.1786736   8.8273653 117.1612675  35.7955466  15.6372493 113.4553568
  36.0715310  15.5229087 114.3647442  34.9259965  15.2389977 113.4165741
  32.4309530  19.8858843 117.0986382  32.6131925  19.0680499 117.5614134
  33.2542516  20.1026536 116.6611272  32.7651696  18.8127028 114.3601430
  33.2939462  18.3019483 113.7471592  33.0279916  18.4969559 115.2246963
  26.1207444  19.8642145 117.1199206  25.4517819  20.3488273 116.6363246
  25.9820314  20.1111366 118.0342585  33.3981100  19.8467864 120.7045547
  33.2732239  19.0457604 120.1956492  34.0560191  20.3414058 120.2159517
  35.4616008  17.6476884 122.3325097  34.5146344  17.5282235 122.2603424
  35.8098781  16.7599382 122.4151358  32.4662441  17.4429601 118.5329449
  32.3187404  16.5146308 118.7137019  33.2915935  17.4649691 118.0486524
  36.0696563  18.2658159 119.6194322  36.9943111  18.0601021 119.4818773
  35.9011867  18.0174560 120.5283663  32.4623956   5.2967438 113.5261566
  32.6787570   6.1792076 113.2250395  31.9818023   4.9053652 112.7967208
  35.8591880  18.7843827 114.9756413  36.0328757  18.2190249 114.2230266
  36.3520771  19.5844722 114.7935903  41.7131271  11.5480250 116.5946713
  42.1562417  10.7987575 116.1965836  40.8357781  11.5390386 116.2120445
  36.8467052  18.1010591 112.0753312  37.5417957  18.7217284 112.2940626
  37.1890202  17.2505942 112.3505690  38.7458475  15.5510297 113.6040642
  39.2709799  15.8897569 112.8789962  38.6580828  14.6157312 113.4203777
  30.4299136  21.6182280 117.9635896  29.9904126  21.1258659 118.6568752
  31.1807253  21.0755248 117.7227971  27.4386515  15.7124212 113.5116658
  27.5874635  16.3959677 112.8583331  28.2452958  15.6929302 114.0266114
  41.2564135  13.0185488 118.9869161  42.0911027  13.4575292 119.1506721
  41.3923264  12.5424141 118.1677406  30.9381920  18.2072343 110.9828405
  30.3655888  18.8262530 110.5298877  31.5114714  18.7571704 111.5168327
  34.1579180  18.4909493 112.1136988  35.0909853  18.4255055 112.3169863
  34.0702393  19.3265760 111.6551520  36.7867197  17.8075363 109.0740935
  36.7080828  17.4735227 109.9676693  37.6076864  18.2997131 109.0732407
  31.3228719   9.5433156 108.3244458  32.2687824   9.4139364 108.3932876
  30.9442964   8.8047817 108.8013886  45.3021938  11.7353109 121.4223290
  46.0325326  11.4738398 121.9830994  44.6928883  10.9981831 121.4625358
  29.5071636   7.4683132 108.2599343  28.6003092   7.1716245 108.3362057
  29.7847617   7.1712950 107.3933629  35.2127935   5.3598684 114.6002893
  34.3253790   5.6448335 114.3823088  35.6281924   5.1992447 113.7530170
  34.3571149  15.1243359 108.6950913  35.0606999  15.3293361 109.3108569
  33.6333797  15.6920121 108.9599997  35.1868959  10.8753220 114.8153184
  35.1304160  11.3321771 113.9760816  35.7397301  10.1143905 114.6376026
  38.9973765   6.6642952 115.6403303  38.7410699   6.2639587 116.4711511
  38.3726633   7.3786746 115.5153442  43.3086103   9.4039025 118.1474594
  42.7485661   9.4732214 118.9206157  42.7029606   9.2280010 117.4274091
  26.3781312  20.8375752 119.8992781  26.2613696  21.7821185 119.7971471
  25.5573758  20.5349314 120.2878580  36.2657846  15.5625888 110.7449373
  37.1003450  15.1307086 110.5626848  36.1042189  15.3907902 111.6726268
  35.9203738  12.0658001 112.1105713  35.8652542  11.9002273 111.1694157
  35.2949794  12.7734034 112.2667902  29.1589428  20.2435001 119.7758788
  28.2085059  20.2436862 119.6623160  29.4621914  19.4967735 119.2594822
  44.8942121  26.0795539 120.8404550  45.5320531  25.9602286 120.1367890
  44.7762964  27.0276383 120.8992502  41.7031827  26.0322967 120.7766075
  41.3650339  25.9164032 119.8886610  42.5721596  25.6314132 120.7567081
  37.5618643  27.8858443 116.7662966  36.9983508  27.7948380 115.9979254
  37.4471038  27.0658348 117.2465458  42.1851610  27.1857819 126.7352280
  42.1740251  26.7910617 125.8632784  42.3472250  26.4523891 127.3286052
  35.1083075  29.3809635 119.6047186  35.9004367  29.0400460 119.1893486
  35.3479725  29.4904610 120.5249340  43.1418202  31.5529411 112.0777431
  42.4906182  32.1383492 111.6911445  43.9362565  32.0835606 112.1372468
  37.0673829  28.6418548 112.4764565  37.8404705  28.0947535 112.3377441
  37.4199228  29.5062798 112.6879026  38.9058872  29.9694931 125.6831464
  38.6148738  30.8740561 125.5678131  39.5415856  30.0111458 126.3975534
  39.8315078  27.3471779 122.2732824  40.4278651  27.1227802 121.5589787
  39.8890050  26.6056525 122.8758272  39.4040107  24.8011214 110.1083015
  39.6565628  24.2792736 109.3466478  38.4664666  24.6377360 110.2109699
  44.4483390  23.8046993 117.9157758  45.2346479  23.3866416 117.5648175
  44.7122094  24.7093085 118.0839407  44.6193467  29.2419843 112.6146415
  43.9839300  29.3154470 113.3267320  44.2890873  29.8313442 111.9365494
  49.8491817  23.7422226 118.8190737  50.5816989  23.1721443 119.0528566
  49.0931173  23.3543826 119.2597242  39.1236396  26.7039320 112.3107390
  39.0072654  26.0284224 112.9788474  39.2338655  26.2171694 111.4939543
  41.4667937  26.1649468 116.0154079  41.1026144  25.6380088 116.7267001
  42.3235052  25.7747937 115.8420565  47.3717237  17.4543800 123.2785345
  47.0400562  18.3239211 123.0546560  46.7762851  17.1380084 123.9579376
  41.1073424  21.1939367 111.0115428  41.2747826  22.0619604 111.3785899
  40.9170593  21.3566649 110.0876717  43.8648757  29.6556346 122.6781258
  43.5649480  30.5581385 122.5697065  43.5199816  29.3888529 123.5302411
  37.3161238  26.1070143 118.7117963  36.3911735  25.9746357 118.9195654
  37.5645651  26.8864362 119.2087905  47.2645900  22.1738886 120.3578695
  46.3562778  22.1054295 120.0637456  47.2133496  22.6510831 121.1860521
  41.0862644  23.6497025 111.9962095  40.9662270  24.0954075 112.8347575
  40.3915233  23.9982342 111.4375633  34.6770049  25.7503417 119.5461752
  34.8062430  26.0037895 120.4601163  33.9967501  26.3431125 119.2266407
  38.8469536  36.4200666 115.6452226  38.7693566  37.3708492 115.7240706
  38.2431180  36.0746539 116.3027152  41.3386766  23.5928532 128.3013593
  40.5620100  24.1522452 128.2916457  41.9777329  24.0785315 128.8228463
  49.1307547  20.3755325 122.1356569  48.4881927  20.6687858 121.4896364
  48.6262475  20.2608245 122.9409766  46.7847711  24.1218498 112.8242429
  47.6965567  24.3545885 112.6490126  46.2757358  24.7055542 112.2617507
  39.5933139  26.4013985 127.8631560  40.3347823  26.9399029 127.5866383
  38.8870124  27.0280274 128.0203111  45.0688478  28.5443126 126.4603721
  45.4771834  28.1025536 125.7158354  44.3465740  27.9695753 126.7137914
  41.4219548  23.4815732 123.8337278  42.2680743  23.9055146 123.9771927
  41.3618186  22.8249357 124.5275841  45.3917293  29.1044316 120.2156010
  44.7626155  29.2690030 119.5132078  45.0042955  29.5185926 120.9866974
  49.2706525  30.0398754 117.5700374  48.5857563  30.4197656 117.0197407
  49.3550374  30.6494081 118.3032322  44.5718994  21.1420101 125.4918452
  44.3279925  21.8962161 124.9552727  44.8478924  21.5205448 126.3265699
  46.5257456  27.6858713 124.1695717  46.7374352  28.3290473 123.4930098
  46.4787205  26.8521030 123.7017647  44.1283685  20.2976534 121.0732289
  43.2668164  20.5957787 121.3649027  44.1546120  20.5146933 120.1413322
  40.9445255  28.8418724 117.4806095  41.4083600  29.1206427 116.6910718
  40.6802053  27.9402169 117.2979186  37.8369336  28.3890206 120.4185858
  38.4070693  28.8177474 119.7803343  38.4277448  28.1072791 121.1170044
  39.8814141  24.9641877 114.2895660  40.5838184  25.4162920 114.7569587
  39.5494769  24.3225696 114.9175553  33.6239475  23.2225429 119.5912794
  32.8338529  23.4782958 119.1152904  34.1150722  24.0373767 119.6964834
  47.6403284  30.5630669 122.3418075  48.4620728  30.1610856 122.0600756
  47.6365687  30.4598903 123.2934190  35.5754220  23.5870009 116.5496271
  34.7785383  23.6988703 117.0679766  35.3479812  23.9256661 115.6837161
  41.4059888  30.1114712 124.4978785  41.4704320  30.5735119 125.3336957
  40.6970812  29.4812077 124.6261095  31.9077178  23.4755920 122.0227785
  32.1585216  24.3602930 122.2885361  32.4436726  23.2960521 121.2502876
  55.7309277  26.9069417 118.6903046  54.9772986  26.3376815 118.5347051
  55.8656819  26.8732082 119.6373681  41.1207905  31.7782819 114.3657766
  40.9853580  32.6234355 114.7942613  41.6617718  31.9802097 113.6023699
  34.5737303  29.2958257 114.9385691  35.0861823  30.0901508 115.0891255
  35.2260016  28.5984548 114.8719292  36.3832188  32.4124014 117.0208444
  36.5598816  33.3341978 116.8329428  37.1789021  32.0982433 117.4502824
  42.7476382  32.4006386 128.4958108  42.3040236  31.6142764 128.1779012
  43.4093595  32.5885536 127.8301998  37.5063503  33.9302188 123.0218786
  38.0570928  33.8019251 122.2495780  36.6674979  34.2297077 122.6713679
  44.8457620  32.6809186 126.5239509  44.8276095  33.5018067 126.0319778
  45.7677540  32.5563261 126.7489650  41.3030674  30.1953315 127.3663017
  41.8359011  29.4341604 127.1362325  40.7744755  29.9026967 128.1087172
  44.4700369  15.3013381 122.8956659  44.1264638  16.1915023 122.8195770
  44.8379332  15.1115039 122.0326244  32.5386220  27.6246912 115.7145261
  33.3761442  28.0343920 115.4978969  32.7164487  26.6846354 115.6845455
  44.4350652  25.2921992 111.4029094  43.9197275  26.0626597 111.6417481
  44.1627960  24.6187129 112.0262156  42.0197763  20.1371693 116.4614332
  41.1639359  19.7478544 116.2819971  42.4324714  20.2163654 115.6014118
  43.5496909  17.6718036 120.8605892  43.0461705  17.6348172 120.0473698
  43.8427516  18.5810779 120.9202549  39.7939795  17.7556766 119.8672074
  40.6592792  17.5599575 119.5077963  39.8617304  17.5267118 120.7941431
  49.4084926  28.0454347 113.3382268  48.6314369  27.7065507 112.8937430
  50.0876407  28.0506970 112.6637233  44.2236955  23.1649085 113.2288875
  43.9187090  23.4795234 114.0799018  45.1767397  23.2430504 113.2716208
  42.6683387  29.3239308 114.8781829  42.1404748  28.5892067 114.5655067
  42.1670889  30.1013984 114.6321798  47.6476233  27.5188328 119.9948876
  46.9899907  28.2087590 120.0829004  48.4516632  27.9084760 120.3382862
  37.4002114  19.9858974 117.2388441  37.9745866  19.7634156 116.5061634
  37.9873097  20.0547669 117.9917042  46.4581692  25.8732701 118.0452817
  46.9713573  26.5062693 118.5474527  47.1082915  25.2733897 117.6796177
  37.7271701  22.0163435 111.2584326  36.8909014  22.3538122 111.5793601
  37.5876471  21.8812415 110.3211463  39.7024782  16.8600223 115.9663510
  39.0489194  16.5449240 115.3420125  39.6605256  16.2375963 116.6923333
  40.8135987  27.1419518 107.8816802  39.9063049  26.9108772 108.0807951
  41.3107019  26.3457137 108.0690784  43.7204066  35.8517025 110.8013488
  43.0465765  36.1548722 111.4098446  44.1069888  36.6546106 110.4518946
  42.9362522  23.3482157 120.2911158  42.0185084  23.5697104 120.1332846
  43.3522666  23.4228467 119.4322865  43.7197570  24.7473572 115.4213838
  44.4669389  25.2594969 115.1120960  43.9889160  24.4257625 116.2818232
  41.9924220  27.2432113 112.4040792  41.0835440  26.9591146 112.5013262
  42.0219304  27.6631192 111.5444099  47.2243488  30.8538702 116.1731960
  46.7705815  30.0129612 116.2297150  46.5937454  31.4900101 116.5106740
  46.1676407  21.7830688 117.4032627  45.4299164  21.2708075 117.7342870
  46.4203181  21.3431070 116.5915904  45.6676427  32.6915199 117.1081778
  45.9599401  33.2520256 116.3894144  46.1775048  32.9843760 117.8634937
  46.2688035  14.5606940 117.9974397  46.5746911  13.7004304 117.7100312
  46.9940639  15.1524561 117.7973391  32.5612391  24.9637627 116.3855995
  32.3636791  24.3706988 115.6607061  32.0059055  24.6589837 117.1031933
  40.5409114  24.8560734 118.5050588  40.5957724  23.9034570 118.4293064
  39.7300316  25.0120173 118.9891886  41.6900308  28.7840857 109.7428871
  41.2519738  28.0676716 109.2834508  42.4310749  29.0116971 109.1813962
  38.4801474  23.4737793 116.2640967  37.6669340  23.7731964 116.6706159
  38.9760468  23.0793482 116.9815449  40.6310052  33.4695550 118.1975231
  40.5886231  33.6956397 117.2683763  41.5472751  33.2358925 118.3461032
  44.0775686  23.9379618 125.0955860  44.4325074  24.1651091 125.9550326
  44.7247817  24.2697995 124.4733116  49.8073423  27.0598054 115.8005190
  49.6691322  27.2499650 114.8726379  49.4509642  27.8217436 116.2573241
  37.9715549  21.0456149 121.8802202  38.6114928  20.9044908 121.1825165
  37.1393080  20.7590662 121.5040804  49.8342803  29.1274581 120.8116461
  50.2679309  29.0349870 121.6599515  50.5474383  29.1032081 120.1736477
  38.7475853  30.3458579 117.9937194  39.5416451  29.8508899 117.7919769
  38.0367545  29.8176442 117.6304900  43.5670697  32.7276675 122.3449562
  43.6207720  33.2967611 123.1127278  42.6985479  32.8978560 121.9803599
  35.0558616  24.4901661 114.0696947  34.1256205  24.4286116 114.2866909
  35.1516088  23.9677614 113.2733588  34.9744165  21.0156474 116.6575188
  35.2350983  21.9301807 116.5484349  35.7961338  20.5480916 116.8071801
  36.4469091  22.4294231 123.8274013  37.1192144  22.2211593 123.1786662
  35.6198877  22.2316317 123.3879245  50.6958352  29.1698281 123.3449346
  50.8894242  30.0744092 123.5908621  50.5958970  28.7105700 124.1787931
  42.3494663  19.0556172 125.8439674  41.7022578  19.7546122 125.7504150
  43.1195678  19.4892316 126.2115922  45.7573461  29.3205024 128.9190227
  45.6058967  29.0915576 128.0020311  45.7478140  30.2775625 128.9321572
  42.5258797  26.8936937 123.9036493  43.4550857  27.0448096 123.7305461
  42.1049827  26.9820958 123.0485140  41.3247129  30.9187601 121.6735031
  41.1858215  30.5506386 122.5460969  40.5361725  31.4335241 121.5018989
  41.9195281  36.0196698 113.0160568  42.0947037  35.5484741 113.8306190
  41.2328069  36.6462464 113.2441828  42.8752344  30.2969204 119.0623869
  42.5402177  30.2569974 119.9581519  42.3756290  29.6313920 118.5894279
  36.8496588  25.7036834 124.5876450  36.7116386  24.9717073 125.1887989
  37.7601512  25.6145734 124.3060638  45.8111536  27.6425238 109.3360929
  45.1940706  26.9172066 109.2393981  45.3428024  28.4034599 108.9928003
  39.4778889  25.4156793 124.0760130  40.1878507  24.7749985 124.0346748
  39.4348197  25.6669688 124.9986310  47.4665667  32.3524147 126.9966709
  47.4078214  31.6683367 126.3297292  47.8685186  33.0943137 126.5447335
  36.4856366  39.1686060 119.7900428  36.7252964  39.8004585 120.4679446
  35.6425563  38.8174100 120.0765787  37.6010082  21.8610663 108.4582233
  36.7239548  21.7399463 108.0944479  38.0767835  21.0696741 108.2061121
  47.4683075  30.3163731 125.2280689  46.5809853  29.9789652 125.3507087
  48.0381626  29.5846762 125.4649454  29.1212222  26.6487822 118.5523740
  29.8083262  26.3349552 117.9644755  28.9660350  27.5529187 118.2790991
  33.9246944  21.5378019 122.9808764  33.8405133  20.9303688 122.2459174
  33.1029650  22.0287037 122.9818260  40.9984228  34.9765183 122.1941932
  40.9254400  35.7820154 122.7061236  40.5561621  35.1757149 121.3689953
  40.7874008  34.2136953 115.7044753  40.0041530  34.7558633 115.7982978
  41.4866753  34.7310933 116.1038994  44.0970658  20.0231582 118.3478959
  44.5939357  19.2701545 118.0280029  43.3257639  20.0595899 117.7822168
  51.9500415  25.7271948 119.9897250  51.9390291  26.6096663 119.6191183
  51.0817795  25.3743499 119.7951787  43.4582912  34.8752017 124.3500090
  44.1710884  35.5099482 124.2775992  42.9672940  34.9715883 123.5340092
  45.1800438  28.7803270 115.9217382  44.2456717  28.9004732 115.7522086
  45.3577107  27.8775736 115.6577392  40.6805627  22.1648965 118.0750643
  40.3103414  21.6120006 118.7631549  41.1764719  21.5607099 117.5225643
  48.5672990  24.6220589 116.4567416  49.0333442  25.4548580 116.3827719
  49.0180490  24.1565570 117.1612675  38.5094825  32.6246460 125.1705661
  39.2104285  33.2582943 125.3235055  38.0389940  32.9661192 124.4101301
  46.6349221  30.9664410 113.4553568  46.9109065  30.8521005 114.3647442
  45.7653720  30.5681895 113.4165741  46.5389653  16.9901176 120.4958318
  45.6252732  17.2205403 120.6640525  46.9682754  17.0739620 121.3472350
  46.3096111  25.1791068 122.9958212  45.6567561  25.4266975 122.3410664
  46.6876491  24.3655206 122.6620689  43.2703285  35.2150761 117.0986382
  43.4525680  34.3972417 117.5614134  44.0936271  35.4318453 116.6611272
  43.6045450  34.1418946 114.3601430  44.1333217  33.6311401 113.7471592
  43.8673670  33.8261476 115.2246963  34.1062543  32.1582815 122.1036764
  34.6915980  31.4126503 122.2364668  33.9087382  32.4686772 122.9873428
  36.9601198  35.1934063 117.1199206  36.2911574  35.6780190 116.6363246
  36.8214068  35.4403283 118.0342585  28.6980198  24.7288416 120.8241207
  28.7364297  24.1952006 121.6178325  28.1920491  24.2023621 120.2052184
  41.1006467  37.2277806 123.7181865  41.6524775  37.3909428 124.4830950
  41.4412660  37.8182244 123.0461890  45.9517341  32.0539064 129.5730519
  46.4957245  32.6669022 129.0785474  45.3704186  32.6118642 130.0897532
  32.3288776  23.4552518 113.8995138  32.6242217  22.5463196 113.8462192
  31.4276811  23.4340257 113.5776141  44.2374854  35.1759782 120.7045547
  44.1125994  34.3749522 120.1956492  44.8953945  35.6705975 120.2159517
  35.8583023  21.5308514 119.8822687  35.1369608  22.1444482 119.7430160
  36.6476278  22.0666279 119.8039333  46.3009763  32.9768802 122.3325097
  45.3540098  32.8574153 122.2603424  46.6492536  32.0891300 122.4151358
  34.0576617  21.1366615 114.0234464  33.7289323  20.2563994 113.8409570
  34.4115988  21.0814284 114.9110853  43.3056196  32.7721518 118.5329449
  43.1581158  31.8438226 118.7137019  44.1309689  32.7941609 118.0486524
  37.1718440  21.4239585 114.3909941  37.5114513  21.9525507 113.6688550
  37.6190561  21.7619991 115.1668508  46.9090318  33.5950077 119.6194322
  47.8336865  33.3892938 119.4818773  46.7405621  33.3466478 120.5283663
  39.8661881  19.8076636 123.8413009  39.5258701  19.0084449 124.2433689
  39.1600887  20.1078347 123.2689843  40.5178353  16.8925948 122.2940332
  41.3404422  16.4186427 122.1719223  40.7616416  17.6716432 122.7939019
  39.1586587  19.9214207 112.5903234  39.8794950  20.2995460 112.0866951
  38.5351892  20.6403084 112.6938212  43.3017710  20.6259356 113.5261566
  43.5181325  21.5083994 113.2250395  42.8211777  20.2345569 112.7967208
  38.0416932  23.5845069 120.1032311  37.8961512  23.8985372 120.9956593
  37.5642135  24.2029969 119.5503210  39.9013315  20.5747617 120.1513201
  39.8874883  19.6788710 119.8145498  40.6185743  20.5818281 120.7851487
  41.7539445  21.0084957 122.1966328  41.4957223  21.9302028 122.1950658
  41.2224486  20.6115392 122.8866792  46.6985634  34.1135744 114.9756413
  46.8722512  33.5482167 114.2230266  47.1914525  34.9136639 114.7935903
  32.5162594  26.1250413 123.0419972  31.9716062  26.9010221 123.1740247
  33.3941944  26.4721218 122.8839094  39.3050210  19.4561997 115.4200771
  39.4266122  18.5278644 115.6191658  39.0152253  19.4700683 114.5079086
  42.1741401  17.1416908 118.5567491  42.1963098  17.2056241 117.6019470
  42.5909460  16.3021416 118.7507997  52.5525025  26.8772167 116.5946713
  52.9956171  26.1279493 116.1965836  51.6751535  26.8682304 116.2120445
  47.6860806  33.4302509 112.0753312  48.3811711  34.0509201 112.2940626
  48.0283957  32.5797860 112.3505690  49.5852230  30.8802214 113.6040642
  50.1103554  31.2189487 112.8789962  49.4974582  29.9449230 113.4203777
  41.2472278  34.7936288 125.7330519  41.5559405  34.5485435 126.6053219
  42.0447760  34.9982926 125.2449389  41.2692890  36.9474198 117.9635896
  40.8297881  36.4550576 118.6568752  42.0201007  36.4047165 117.7227971
  33.7485229  33.1385738 117.9660524  34.5743249  32.8389510 117.5859167
  33.3979281  32.3693361 118.4150312  38.7166763  32.4912207 120.0358197
  38.0946772  31.8282912 119.7360425  39.3871629  32.5173339 119.3531845
  31.9493834  31.0572065 118.9249457  31.1125743  30.6294239 118.7433459
  31.9217480  31.2504508 119.8620248  49.2746136  31.5135118 128.9091840
  48.4841679  31.4959257 128.3696340  49.0379490  32.0523412 129.6640877
  49.3944011  28.3627584 126.2224569  49.4442016  28.1977592 127.1640092
  49.2857934  27.4954843 125.8322450  38.2780269  31.0416130 113.5116658
  38.4268390  31.7251594 112.8583331  39.0846713  31.0221220 114.0266114
  46.6847773  24.3458512 127.5383876  47.5857636  24.2064977 127.2467873
  46.7595748  24.5112967 128.4782053  41.0190578  21.7225367 126.3837062
  40.1493888  22.0158933 126.1119650  41.2550059  22.3065812 127.1044326
  50.8962208  30.7824526 126.4666590  50.6047016  31.1454506 127.3030051
  50.2834339  30.0691534 126.2879923  52.0957890  28.3477406 118.9869161
  52.9304781  28.7867210 119.1506721  52.2317019  27.8716059 118.1677406
  49.1449396  25.9057140 124.9346648  49.6203517  26.0984787 124.1265500
  48.2214961  25.9616326 124.6890032  36.0332902  27.0681308 114.5177727
  35.7878944  26.1643638 114.7157937  36.2028817  27.0698458 113.5757205
  43.7229612  17.9404984 123.9002482  44.2411556  18.6766011 123.5748971
  43.3684745  18.2468977 124.7349241  35.3028550  22.8009665 112.0163888
  34.6097795  22.8754020 111.3603924  35.0580302  22.0370009 112.5385405
  43.9742206  14.3605267 119.4203379  44.2543960  13.6928456 120.0463805
  44.7592813  14.5534362 118.9078043  41.7775675  33.5364260 110.9828405
  41.2049642  34.1554448 110.5298877  42.3508469  34.0863622 111.5168327
  47.8451065  22.7822901 123.1674954  48.7968488  22.8820998 123.1887178
  47.6754515  21.9901169 123.6773038  45.8665444  19.8678484 123.3534355
  45.2715376  20.1483496 122.6580844  45.5815141  20.3572385 124.1251096
  44.9972935  33.8201411 112.1136988  45.9303608  33.7546972 112.3169863
  44.9096148  34.6557677 111.6551520  47.6260951  33.1367281 109.0740935
  47.5474583  32.8027145 109.9676693  48.4470618  33.6289049 109.0732407
  50.3239143  26.0029020 122.2817254  50.2915463  25.0645021 122.4676938
  50.9339766  26.0813057 121.5483079  42.1622473  24.8725073 108.3244458
  43.1081578  24.7431281 108.3932876  41.7836718  24.1339735 108.8013886
  50.4733631  22.7940064 122.3275537  49.9572680  22.0098520 122.1405466
  51.3573580  22.4658780 122.4922056  48.1344358  16.5381079 118.2871350
  47.9369179  16.2296167 119.1714682  48.7444064  17.2642718 118.4169279
  56.1415692  27.0645027 121.4223290  56.8719081  26.8030315 121.9830994
  55.5322638  26.3273749 121.4625358  54.2230990  25.2052890 122.0197742
  53.4964153  25.0708855 121.4114233  53.8078276  25.5129718 122.8254460
  42.0461166  28.9242819 129.7845115  42.9664175  29.1021418 129.9785161
  42.0110749  27.9798865 129.6324814  40.3465391  22.7975050 108.2599343
  39.4396846  22.5008162 108.3362057  40.6241372  22.5004868 107.3933629
  31.2643331  24.1181413 118.7098389  30.9446115  23.2646721 118.4172763
  30.7176759  24.3329991 119.4656357  35.0423239  26.8343854 122.4267896
  35.2609248  27.7660962 122.4455930  35.4549012  26.4751828 123.2122700
  41.9627456  17.3411939 114.4143584  41.1528185  16.9959024 114.7898830
  42.6511873  17.0319483 115.0031196  43.8918005  16.4189986 116.0367881
  44.4449043  16.8385440 116.6957904  44.1288091  15.4925734 116.0790837
  39.1164175  19.6561985 108.4011322  39.9783339  19.9816883 108.6607139
  39.3014519  18.8693481 107.8884388  31.1331591  27.7384324 120.6791511
  30.4395062  27.3238277 120.1661465  31.8804582  27.7804861 120.0824930
  47.2696812  18.5290511 115.5446545  46.6895481  19.1875315 115.1624598
  47.0032744  17.7067856 115.1333963  45.7200378  17.9295569 117.7467865
  46.2200156  18.0412104 116.9382184  46.3635986  17.6256622 118.3868674
  33.0468334  27.6702578 118.5557526  33.0239022  27.7690266 117.6039409
  33.3568970  28.5167729 118.8774692  35.7055711  29.7278733 122.6704140
  36.6598965  29.6962676 122.6034072  35.5068235  29.2669357 123.4854366
  36.2955094  28.2979849 125.2374938  37.1147983  28.7923928 125.2609775
  36.5691901  27.3811817 125.2092505  46.0521690  20.6890602 114.6002893
  45.1647545  20.9740252 114.3823088  46.4675679  20.5284365 113.7530170
  49.4036226  20.7137123 118.3157233  50.1796616  21.2033575 118.5881849
  48.6784360  21.1395177 118.7729102  51.8408784  21.4264742 119.3731173
  52.4353275  21.1860478 118.6624482  51.9135368  20.7071872 120.0004710
  34.0605940  35.2698353 119.6874338  33.9260408  34.5098754 119.1212336
  33.6438002  35.9939253 119.2203127  45.1964903  30.4535276 108.6950913
  45.9000753  30.6585279 109.3108569  44.4727552  31.0212038 108.9599997
  46.0262713  26.2045138 114.8153184  45.9697915  26.6613689 113.9760816
  46.5791056  25.4435822 114.6376026  49.8367519  21.9934869 115.6403303
  49.5804454  21.5931505 116.4711511  49.2120387  22.7078663 115.5153442
  54.1479857  24.7330943 118.1474594  53.5879415  24.8024132 118.9206157
  53.5423361  24.5571927 117.4274091  37.2175066  36.1667670 119.8992781
  37.1007450  37.1113102 119.7971471  36.3967512  35.8641231 120.2878580
  47.1051601  30.8917806 110.7449373  47.9397205  30.4599004 110.5626848
  46.9435944  30.7199819 111.6726268  46.7597493  27.3949919 112.1105713
  46.7046297  27.2294190 111.1694157  46.1343548  28.1025952 112.2667902
  44.0743400  29.6998831 131.4359276  44.9434560  29.8739483 131.0745910
  43.5950151  30.5193248 131.3135005  40.0693618  16.8958028 111.6891031
  40.0572288  17.8399868 111.8459302  40.9617040  16.7128173 111.3950492
  38.2429580  36.8195932 123.1148709  39.1456827  36.8519542 123.4315204
  38.0166950  35.8896383 123.1295045  39.9983182  35.5726918 119.7758788
  39.0478813  35.5728780 119.6623160  40.3015668  34.8259653 119.2594822
  43.8845738  13.4900804 115.9436968  43.1178133  12.9359291 116.0893650
  44.2956443  13.5622673 116.8051120  55.7335876  41.4087457 120.8404550
  56.3714286  41.2894204 120.1367890  55.6156719  42.3568301 120.8992502
  52.5425582  41.3614885 120.7766075  52.2044093  41.2455949 119.8886610
  53.4115350  40.9606050 120.7567081  48.4012398  43.2150361 116.7662966
  47.8377263  43.1240298 115.9979254  48.2864793  42.3950266 117.2465458
  53.0245365  42.5149736 126.7352280  53.0134006  42.1202535 125.8632784
  53.1866004  41.7815809 127.3286052  45.9476830  44.7101553 119.6047186
  46.7398122  44.3692377 119.1893486  46.1873480  44.8196528 120.5249340
  53.9811956  46.8821329 112.0777431  53.3299936  47.4675409 111.6911445
  54.7756319  47.4127524 112.1372468  47.9067584  43.9710466 112.4764565
  48.6798460  43.4239453 112.3377441  48.2592982  44.8354715 112.6879026
  49.7452626  45.2986848 125.6831464  49.4542492  46.2032479 125.5678131
  50.3809610  45.3403376 126.3975534  50.6708833  42.6763697 122.2732824
  51.2672405  42.4519719 121.5589787  50.7283804  41.9348442 122.8758272
  50.2433861  40.1303132 110.1083015  50.4959382  39.6084653 109.3466478
  49.3058420  39.9669278 110.2109699  55.2877144  39.1338910 117.9157758
  56.0740233  38.7158334 117.5648175  55.5515848  40.0385003 118.0839407
  55.4587222  44.5711761 112.6146415  54.8233055  44.6446387 113.3267320
  55.1284628  45.1605360 111.9365494  60.6885571  39.0714144 118.8190737
  61.4210743  38.5013361 119.0528566  59.9324927  38.6835744 119.2597242
  49.9630150  42.0331238 112.3107390  49.8466408  41.3576141 112.9788474
  50.0732410  41.5463612 111.4939543  52.3061691  41.4941385 116.0154079
  51.9419898  40.9672006 116.7267001  53.1628807  41.1039854 115.8420565
  58.2110992  32.7835718 123.2785345  57.8794316  33.6531129 123.0546560
  57.6156605  32.4672002 123.9579376  51.9467178  36.5231285 111.0115428
  52.1141580  37.3911521 111.3785899  51.7564347  36.6858567 110.0876717
  54.7042511  44.9848264 122.6781258  54.4043234  45.8873303 122.5697065
  54.3593571  44.7180447 123.5302411  48.1554993  41.4362061 118.7117963
  47.2305489  41.3038275 118.9195654  48.4039406  42.2156280 119.2087905
  58.1039655  37.5030804 120.3578695  57.1956532  37.4346212 120.0637456
  58.0527251  37.9802749 121.1860521  51.9256399  38.9788942 111.9962095
  51.8056024  39.4245993 112.8347575  51.2308987  39.3274260 111.4375633
  45.5163804  41.0795334 119.5461752  45.6456185  41.3329813 120.4601163
  44.8361255  41.6723042 119.2266407  49.6863291  51.7492584 115.6452226
  49.6087321  52.7000409 115.7240706  49.0824935  51.4038457 116.3027152
  52.1780521  38.9220450 128.3013593  51.4013855  39.4814370 128.2916457
  52.8171084  39.4077233 128.8228463  59.9701301  35.7047242 122.1356569
  59.3275682  35.9979776 121.4896364  59.4656230  35.5900163 122.9409766
  57.6241465  39.4510416 112.8242429  58.5359321  39.6837802 112.6490126
  57.1151112  40.0347460 112.2617507  50.4326893  41.7305903 127.8631560
  51.1741577  42.2690947 127.5866383  49.7263879  42.3572192 128.0203111
  55.9082233  43.8735043 126.4603721  56.3165589  43.4317454 125.7158354
  55.1859494  43.2987671 126.7137914  52.2613303  38.8107650 123.8337278
  53.1074498  39.2347064 123.9771927  52.2011940  38.1541274 124.5275841
  56.2311047  44.4336234 120.2156010  55.6019910  44.5981948 119.5132078
  55.8436709  44.8477844 120.9866974  60.1100279  45.3690672 117.5700374
  59.4251317  45.7489573 117.0197407  60.1944129  45.9785999 118.3032322
  55.4112748  36.4712019 125.4918452  55.1673680  37.2254079 124.9552727
  55.6872679  36.8497366 126.3265699  57.3651211  43.0150631 124.1695717
  57.5768106  43.6582391 123.4930098  57.3180959  42.1812947 123.7017647
  54.9677440  35.6268452 121.0732289  54.1061919  35.9249705 121.3649027
  54.9939874  35.8438850 120.1413322  51.7839009  44.1710642 117.4806095
  52.2477355  44.4498345 116.6910718  51.5195807  43.2694087 117.2979186
  48.6763090  43.7182124 120.4185858  49.2464447  44.1469392 119.7803343
  49.2671202  43.4364708 121.1170044  50.7207895  40.2933794 114.2895660
  51.4231939  40.7454838 114.7569587  50.3888524  39.6517613 114.9175553
  49.1688257  38.8845551 128.6646870  48.5386917  39.5661832 128.8982267
  49.0624345  38.7728633 127.7200008  44.4633229  38.5517347 119.5912794
  43.6732283  38.8074876 119.1152904  44.9544477  39.3665685 119.6964834
  58.4797039  45.8922586 122.3418075  59.3014483  45.4902774 122.0600756
  58.4759442  45.7890820 123.2934190  46.4147975  38.9161926 116.5496271
  45.6179138  39.0280621 117.0679766  46.1873567  39.2548579 115.6837161
  52.2453642  45.4406630 124.4978785  52.3098075  45.9027037 125.3336957
  51.5364566  44.8103995 124.6261095  42.7470932  38.8047838 122.0227785
  42.9978971  39.6894848 122.2885361  43.2830481  38.6252439 121.2502876
  66.5703032  42.2361335 118.6903046  65.8166740  41.6668733 118.5347051
  66.7050573  42.2023999 119.6373681  51.9601660  47.1074737 114.3657766
  51.8247335  47.9526273 114.7942613  52.5011472  47.3094015 113.6023699
  48.4469000  33.1866317 131.0272121  48.0535945  32.6332516 131.7019765
  49.2635140  33.4976895 131.4178638  45.4131057  44.6250175 114.9385691
  45.9255578  45.4193425 115.0891255  46.0653770  43.9276466 114.8719292
  47.2225942  47.7415931 117.0208444  47.3992570  48.6633896 116.8329428
  48.0182776  47.4274351 117.4502824  51.3636961  34.6024196 128.6192377
  52.1046674  35.2031349 128.5396840  51.5954883  33.8601834 128.0610420
  46.5078299  39.7880563 126.8970607  46.3931814  38.8865821 127.1977706
  45.6522816  40.0344260 126.5455424  53.5870136  47.7298304 128.4958108
  53.1433990  46.9434682 128.1779012  54.2487350  47.9177454 127.8301998
  48.3457257  49.2594105 123.0218786  48.8964683  49.1311169 122.2495780
  47.5068733  49.5588994 122.6713679  55.6851374  48.0101104 126.5239509
  55.6669850  48.8309985 126.0319778  56.6071294  47.8855179 126.7489650
  52.1424429  45.5245233 127.3663017  52.6752765  44.7633521 127.1362325
  51.6138510  45.2318885 128.1087172  55.3094123  30.6305299 122.8956659
  54.9658393  31.5206941 122.8195770  55.6773086  30.4406957 122.0326244
  43.3779974  42.9538829 115.7145261  44.2155196  43.3635838 115.4978969
  43.5558242  42.0138272 115.6845455  55.2744406  40.6213910 111.4029094
  54.7591030  41.3918515 111.6417481  55.0021715  39.9479046 112.0262156
  52.8591517  35.4663611 116.4614332  52.0033114  35.0770461 116.2819971
  53.2718469  35.5455572 115.6014118  54.3890664  33.0009954 120.8605892
  53.8855459  32.9640089 120.0473698  54.6821271  33.9102697 120.9202549
  50.6333550  33.0848684 119.8672074  51.4986547  32.8891493 119.5077963
  50.7011059  32.8559036 120.7941431  60.2478680  43.3746265 113.3382268
  59.4708123  43.0357424 112.8937430  60.9270161  43.3798888 112.6637233
  55.0630709  38.4941002 113.2288875  54.7580845  38.8087151 114.0799018
  56.0161151  38.5722422 113.2716208  53.5077141  44.6531226 114.8781829
  52.9798503  43.9183985 114.5655067  53.0064644  45.4305902 114.6321798
  58.4869987  42.8480246 119.9948876  57.8293662  43.5379507 120.0829004
  59.2910386  43.2376678 120.3382862  48.2395869  35.3150892 117.2388441
  48.8139621  35.0926073 116.5061634  48.8266851  35.3839586 117.9917042
  57.2975446  41.2024619 118.0452817  57.8107328  41.8354611 118.5474527
  57.9476670  40.6025814 117.6796177  48.5665456  37.3455353 111.2584326
  47.7302768  37.6830039 111.5793601  48.4270226  37.2104333 110.3211463
  50.5418537  32.1892141 115.9663510  49.8882949  31.8741158 115.3420125
  50.4999011  31.5667881 116.6923333  51.6529741  42.4711436 107.8816802
  50.7456803  42.2400689 108.0807951  52.1500773  41.6749055 108.0690784
  54.5597820  51.1808943 110.8013488  53.8859519  51.4840640 111.4098446
  54.9463642  51.9838023 110.4518946  53.7756277  38.6774074 120.2911158
  52.8578838  38.8989021 120.1332846  54.1916421  38.7520385 119.4322865
  54.5591325  40.0765490 115.4213838  55.3063144  40.5886887 115.1120960
  54.8282914  39.7549543 116.2818232  52.8317975  42.5724031 112.4040792
  51.9229194  42.2883063 112.5013262  52.8613059  42.9923109 111.5444099
  58.0637242  46.1830620 116.1731960  57.6099569  45.3421530 116.2297150
  57.4331209  46.8192019 116.5106740  57.0070162  37.1122606 117.4032627
  56.2692919  36.5999992 117.7342870  57.2596935  36.6722988 116.5915904
  56.5070181  48.0207117 117.1081778  56.7993156  48.5812174 116.3894144
  57.0168802  48.3135678 117.8634937  57.1081789  29.8898858 117.9974397
  57.4140666  29.0296222 117.7100312  57.8334394  30.4816478 117.7973391
  43.4006145  40.2929545 116.3855995  43.2030545  39.6998905 115.6607061
  42.8452809  39.9881755 117.1031933  51.3802869  40.1852651 118.5050588
  51.4351479  39.2326488 118.4293064  50.5694071  40.3412090 118.9891886
  52.5294063  44.1132774 109.7428871  52.0913493  43.3968633 109.2834508
  53.2704503  44.3408889 109.1813962  49.3195229  38.8029711 116.2640967
  48.5063094  39.1023882 116.6706159  49.8154223  38.4085400 116.9815449
  51.4703807  48.7987468 118.1975231  51.4279985  49.0248314 117.2683763
  52.3866506  48.5650843 118.3461032  54.9169440  39.2671535 125.0955860
  55.2718828  39.4943009 125.9550326  55.5641572  39.5989912 124.4733116
  60.6467177  42.3889971 115.8005190  60.5085076  42.5791567 114.8726379
  60.2903396  43.1509354 116.2573241  48.8109304  36.3748067 121.8802202
  49.4508683  36.2336826 121.1825165  47.9786834  36.0882580 121.5040804
  60.6736557  44.4566498 120.8116461  61.1073064  44.3641787 121.6599515
  61.3868138  44.4323999 120.1736477  49.5869607  45.6750497 117.9937194
  50.3810206  45.1800817 117.7919769  48.8761300  45.1468360 117.6304900
  54.4064452  48.0568592 122.3449562  54.4601474  48.6259529 123.1127278
  53.5379233  48.2270477 121.9803599  45.8952371  39.8193579 114.0696947
  44.9649959  39.7578034 114.2866909  45.9909843  39.2969531 113.2733588
  45.8137920  36.3448391 116.6575188  46.0744737  37.2593725 116.5484349
  46.6355092  35.8772834 116.8071801  47.2862845  37.7586149 123.8274013
  47.9585899  37.5503511 123.1786662  46.4592632  37.5608235 123.3879245
  61.5352107  44.4990199 123.3449346  61.7287997  45.4036010 123.5908621
  61.4352725  44.0397618 124.1787931  53.1888417  34.3848090 125.8439674
  52.5416332  35.0838039 125.7504150  53.9589433  34.8184234 126.2115922
  56.5967215  44.6496942 128.9190227  56.4452722  44.4207493 128.0020311
  56.5871895  45.6067543 128.9321572  53.3652552  42.2228854 123.9036493
  54.2944612  42.3740014 123.7305461  52.9443582  42.3112875 123.0485140
  52.1640883  46.2479519 121.6735031  52.0251969  45.8798303 122.5460969
  51.3755480  46.7627158 121.5018989  52.7589035  51.3488615 113.0160568
  52.9340791  50.8776659 113.8306190  52.0721823  51.9754382 113.2441828
  53.7146099  45.6261122 119.0623869  53.3795931  45.5861892 119.9581519
  53.2150044  44.9605838 118.5894279  47.6890343  41.0328752 124.5876450
  47.5510140  40.3008990 125.1887989  48.5995266  40.9437652 124.3060638
  56.6505290  42.9717156 109.3360929  56.0334461  42.2463984 109.2393981
  56.1821779  43.7326516 108.9928003  50.3172643  40.7448711 124.0760130
  51.0272262  40.1041903 124.0346748  50.2741951  40.9961606 124.9986310
  58.3059422  47.6816064 126.9966709  58.2471968  46.9975284 126.3297292
  58.7078940  48.4235054 126.5447335  49.0301577  37.7313929 125.8955769
  48.4938934  37.2804667 126.5477365  48.4418286  37.8659838 125.1526234
  47.3250121  54.4977978 119.7900428  47.5646719  55.1296502 120.4679446
  46.4819317  54.1466018 120.0765787  48.4403836  37.1902580 108.4582233
  47.5633302  37.0691381 108.0944479  48.9161589  36.3988659 108.2061121
  58.3076829  45.6455648 125.2280689  57.4203608  45.3081570 125.3507087
  58.8775380  44.9138679 125.4649454  39.9605976  41.9779740 118.5523740
  40.6477016  41.6641470 117.9644755  39.8054105  42.8821105 118.2790991
  44.7640698  36.8669937 122.9808764  44.6798887  36.2595606 122.2459174
  43.9423405  37.3578955 122.9818260  51.8377983  50.3057101 122.1941932
  51.7648154  51.1112072 122.7061236  51.3955376  50.5049066 121.3689953
  51.6267762  49.5428871 115.7044753  50.8435284  50.0850551 115.7982978
  52.3260507  50.0602850 116.1038994  54.9364412  35.3523500 118.3478959
  55.4333112  34.5993462 118.0280029  54.1651394  35.3887817 117.7822168
  62.7894170  41.0563866 119.9897250  62.7784046  41.9388581 119.6191183
  61.9211549  40.7035416 119.7951787  54.2976666  50.2043935 124.3500090
  55.0104638  50.8391399 124.2775992  53.8066695  50.3007801 123.5340092
  56.0194193  44.1095187 115.9217382  55.0850472  44.2296650 115.7522086
  56.1970861  43.2067654 115.6577392  51.5199381  37.4940883 118.0750643
  51.1497169  36.9411923 118.7631549  52.0158474  36.8899017 117.5225643
  59.4066744  39.9512507 116.4567416  59.8727197  40.7840498 116.3827719
  59.8574245  39.4857488 117.1612675  49.3488580  47.9538378 125.1705661
  50.0498039  48.5874861 125.3235055  48.8783695  48.2953110 124.4101301
  57.4742975  46.2956328 113.4553568  57.7502819  46.1812922 114.3647442
  56.6047474  45.8973813 113.4165741  57.3783407  32.3193094 120.4958318
  56.4646487  32.5497320 120.6640525  57.8076509  32.4031538 121.3472350
  57.1489866  40.5082986 122.9958212  56.4961316  40.7558893 122.3410664
  57.5270245  39.6947124 122.6620689  54.1097039  50.5442679 117.0986382
  54.2919434  49.7264335 117.5614134  54.9330025  50.7610371 116.6611272
  54.4439205  49.4710864 114.3601430  54.9726971  48.9603318 113.7471592
  54.7067425  49.1553394 115.2246963  53.1977439  41.2502797 129.4824249
  52.5218076  41.1496926 130.1526624  54.0205072  41.0942010 129.9460246
  44.9456298  47.4874733 122.1036764  45.5309734  46.7418421 122.2364668
  44.7481136  47.7978690 122.9873428  47.7994953  50.5225981 117.1199206
  47.1305328  51.0072108 116.6363246  47.6607823  50.7695201 118.0342585
  39.5373952  40.0580333 120.8241207  39.5758052  39.5243924 121.6178325
  39.0314245  39.5315539 120.2052184  51.9400221  52.5569724 123.7181865
  52.4918530  52.7201346 124.4830950  52.2806415  53.1474162 123.0461890
  46.9164715  34.9044874 124.3203749  46.9806041  35.7659705 123.9081147
  46.8531835  34.2918875 123.5876108  46.3916987  36.9768006 127.9676784
  47.0189026  36.5945084 128.5814308  45.5344906  36.7582208 128.3332476
  56.7911096  47.3830982 129.5730519  57.3351000  47.9960940 129.0785474
  56.2097941  47.9410560 130.0897532  43.1682530  38.7844436 113.8995138
  43.4635971  37.8755114 113.8462192  42.2670566  38.7632175 113.5776141
  55.0768609  50.5051700 120.7045547  54.9519748  49.7041439 120.1956492
  55.7347700  50.9997893 120.2159517  46.6976777  36.8600432 119.8822687
  45.9763363  37.4736400 119.7430160  47.4870033  37.3958197 119.8039333
  57.1403517  48.3060720 122.3325097  56.1933853  48.1866071 122.2603424
  57.4886290  47.4183218 122.4151358  49.5003091  34.1954859 126.1563339
  50.0237492  34.4417155 126.9189648  49.2815424  35.0274893 125.7366476
  44.8970372  36.4658533 114.0234464  44.5683078  35.5855912 113.8409570
  45.2509742  36.4106202 114.9110853  54.1449950  48.1013436 118.5329449
  53.9974913  47.1730143 118.7137019  54.9703444  48.1233527 118.0486524
  48.0112195  36.7531503 114.3909941  48.3508267  37.2817424 113.6688550
  48.4584315  37.0911909 115.1668508  57.7484072  48.9241995 119.6194322
  58.6730620  48.7184856 119.4818773  57.5799376  48.6758396 120.5283663
  50.7055636  35.1368554 123.8413009  50.3652456  34.3376367 124.2433689
  49.9994642  35.4370265 123.2689843  51.3572107  32.2217866 122.2940332
  52.1798177  31.7478344 122.1719223  51.6010171  33.0008350 122.7939019
  49.9980342  35.2506125 112.5903234  50.7188704  35.6287377 112.0866951
  49.3745646  35.9695001 112.6938212  54.1411465  35.9551274 113.5261566
  54.3575079  36.8375911 113.2250395  53.6605532  35.5637487 112.7967208
  48.8810686  38.9136987 120.1032311  48.7355267  39.2277290 120.9956593
  48.4035890  39.5321887 119.5503210  50.7407069  35.9039535 120.1513201
  50.7268638  35.0080628 119.8145498  51.4579497  35.9110198 120.7851487
  52.5933200  36.3376875 122.1966328  52.3350978  37.2593946 122.1950658
  52.0618240  35.9407309 122.8866792  57.5379389  49.4427662 114.9756413
  57.7116266  48.8774085 114.2230266  58.0308280  50.2428557 114.7935903
  43.3556348  41.4542331 123.0419972  42.8109816  42.2302139 123.1740247
  44.2335698  41.8013136 122.8839094  50.1443965  34.7853915 115.4200771
  50.2659876  33.8570561 115.6191658  49.8546007  34.7992601 114.5079086
  53.0135155  32.4708825 118.5567491  53.0356852  32.5348159 117.6019470
  53.4303214  31.6313334 118.7507997  63.3918780  42.2064085 116.5946713
  63.8349926  41.4571410 116.1965836  62.5145290  42.1974221 116.2120445
  58.5254561  48.7594426 112.0753312  59.2205466  49.3801119 112.2940626
  58.8677711  47.9089778 112.3505690  44.1422370  40.5812227 125.9350129
  43.4004106  40.7294863 126.5214759  43.8215114  40.8420493 125.0716878
  60.4245984  46.2094132 113.6040642  60.9497308  46.5481405 112.8789962
  60.3368337  45.2741147 113.4203777  52.0866033  50.1228206 125.7330519
  52.3953159  49.8777352 126.6053219  52.8841515  50.3274844 125.2449389
  52.1086645  52.2766115 117.9635896  51.6691635  51.7842494 118.6568752
  52.8594762  51.7339083 117.7227971  44.5878984  48.4677656 117.9660524
  45.4137004  48.1681428 117.5859167  44.2373036  47.6985279 118.4150312
  49.5560517  47.8204124 120.0358197  48.9340526  47.1574829 119.7360425
  50.2265384  47.8465256 119.3531845  42.7887589  46.3863983 118.9249457
  41.9519497  45.9586157 118.7433459  42.7611234  46.5796426 119.8620248
  49.6285045  36.2985912 129.6290703  49.6773200  37.1748035 129.2468473
  50.1707559  35.7563305 129.0562347  60.1139890  46.8427036 128.9091840
  59.3235434  46.8251174 128.3696340  59.8773245  47.3815329 129.6640877
  60.2337765  43.6919502 126.2224569  60.2835770  43.5269509 127.1640092
  60.1251689  42.8246761 125.8322450  49.1174024  46.3708048 113.5116658
  49.2662144  47.0543512 112.8583331  49.9240467  46.3513138 114.0266114
  57.5241528  39.6750430 127.5383876  58.4251390  39.5356895 127.2467873
  57.5989502  39.8404885 128.4782053  51.8584333  37.0517285 126.3837062
  50.9887642  37.3450851 126.1119650  52.0943813  37.6357730 127.1044326
  61.7355962  46.1116444 126.4666590  61.4440770  46.4746424 127.3030051
  61.1228093  45.3983452 126.2879923  62.9351644  43.6769323 118.9869161
  63.7698536  44.1159127 119.1506721  63.0710773  43.2007977 118.1677406
  59.9843150  41.2349058 124.9346648  60.4597272  41.4276704 124.1265500
  59.0608716  41.2908244 124.6890032  46.8726657  42.3973225 114.5177727
  46.6272699  41.4935555 114.7157937  47.0422571  42.3990376 113.5757205
  54.5623367  33.2696902 123.9002482  55.0805311  34.0057929 123.5748971
  54.2078500  33.5760895 124.7349241  46.1422304  38.1301583 112.0163888
  45.4491549  38.2045938 111.3603924  45.8974056  37.3661927 112.5385405
  54.8135961  29.6897184 119.4203379  55.0937715  29.0220373 120.0463805
  55.5986568  29.8826280 118.9078043  52.6169429  48.8656178 110.9828405
  52.0443397  49.4846365 110.5298877  53.1902223  49.4155540 111.5168327
  58.6844819  38.1114818 123.1674954  59.6362242  38.2112916 123.1887178
  58.5148270  37.3193087 123.6773038  56.7059199  35.1970401 123.3534355
  56.1109131  35.4775414 122.6580844  56.4208895  35.6864302 124.1251096
  55.8366689  49.1493328 112.1136988  56.7697362  49.0838890 112.3169863
  55.7489902  49.9849595 111.6551520  58.4654706  48.4659199 109.0740935
  58.3868337  48.1319062 109.9676693  59.2864373  48.9580967 109.0732407
  61.1632897  41.3320938 122.2817254  61.1309217  40.3936939 122.4676938
  61.7733521  41.4104975 121.5483079  53.0016228  40.2016991 108.3244458
  53.9475333  40.0723199 108.3932876  52.6230473  39.4631653 108.8013886
  61.3127386  38.1231981 122.3275537  60.7966434  37.3390438 122.1405466
  62.1967334  37.7950698 122.4922056  58.9738112  31.8672997 118.2871350
  58.7762934  31.5588085 119.1714682  59.5837818  32.5934636 118.4169279
  66.9809447  42.3936945 121.4223290  67.7112835  42.1322233 121.9830994
  66.3716392  41.6565667 121.4625358  65.0624744  40.5344807 122.0197742
  64.3357908  40.4000772 121.4114233  64.6472031  40.8421636 122.8254460
  52.8854920  44.2534737 129.7845115  53.8057930  44.4313336 129.9785161
  52.8504504  43.3090782 129.6324814  51.1859145  38.1266967 108.2599343
  50.2790600  37.8300080 108.3362057  51.4635126  37.8296785 107.3933629
  42.1037085  39.4473331 118.7098389  41.7839870  38.5938639 118.4172763
  41.5570514  39.6621909 119.4656357  45.8816993  42.1635772 122.4267896
  46.1003003  43.0952879 122.4455930  46.2942767  41.8043746 123.2122700
  52.8021211  32.6703857 114.4143584  51.9921939  32.3250942 114.7898830
  53.4905628  32.3611401 115.0031196  54.7311759  31.7481904 116.0367881
  55.2842798  32.1677357 116.6957904  54.9681845  30.8217652 116.0790837
  50.7544858  37.7368977 131.8170645  50.6541585  38.6863334 131.7482736
  50.5366400  37.4087216 130.9446715  49.9557930  34.9853903 108.4011322
  50.8177094  35.3108801 108.6607139  50.1408274  34.1985398 107.8884388
  41.9725345  43.0676242 120.6791511  41.2788817  42.6530195 120.1661465
  42.7198336  43.1096779 120.0824930  58.1090566  33.8582429 115.5446545
  57.5289235  34.5167233 115.1624598  57.8426499  33.0359774 115.1333963
  56.5594133  33.2587487 117.7467865  57.0593911  33.3704021 116.9382184
  57.2029740  32.9548540 118.3868674  50.6176128  41.1666116 130.6335706
  50.1343210  41.9666476 130.8399595  50.7037067  41.1774061 129.6803150
  43.8862088  42.9994496 118.5557526  43.8632776  43.0982183 117.6039409
  44.1962724  43.8459647 118.8774692  46.5449466  45.0570651 122.6704140
  47.4992719  45.0254593 122.6034072  46.3461989  44.5961275 123.4854366
  47.1348848  43.6271767 125.2374938  47.9541737  44.1215846 125.2609775
  47.4085656  42.7103735 125.2092505  56.8915444  36.0182519 114.6002893
  56.0041299  36.3032170 114.3823088  57.3069433  35.8576283 113.7530170
  60.2429980  36.0429040 118.3157233  61.0190370  36.5325493 118.5881849
  59.5178115  36.4687095 118.7729102  62.6802539  36.7556660 119.3731173
  63.2747030  36.5152396 118.6624482  62.7529123  36.0363790 120.0004710
  44.8999695  50.5990270 119.6874338  44.7654163  49.8390671 119.1212336
  44.4831757  51.3231170 119.2203127  56.0358658  45.7827194 108.6950913
  56.7394508  45.9877197 109.3108569  55.3121306  46.3503956 108.9599997
  56.8656468  41.5337055 114.8153184  56.8091669  41.9905607 113.9760816
  57.4184810  40.7727740 114.6376026  60.6761274  37.3226787 115.6403303
  60.4198208  36.9223423 116.4711511  60.0514142  38.0370581 115.5153442
  64.9873612  40.0622860 118.1474594  64.4273170  40.1316050 118.9206157
  64.3817115  39.8863845 117.4274091  48.0568821  51.4959588 119.8992781
  47.9401205  52.4405020 119.7971471  47.2361267  51.1933149 120.2878580
  57.9445355  46.2209723 110.7449373  58.7790959  45.7890922 110.5626848
  57.7829698  46.0491737 111.6726268  57.5991247  42.7241837 112.1105713
  57.5440051  42.5586108 111.1694157  56.9737303  43.4317869 112.2667902
  42.3883762  37.9609901 125.9367135  43.0342626  37.4508855 126.4254360
  42.1800913  38.6978583 126.5110560  54.9137154  45.0290748 131.4359276
  55.7828314  45.2031401 131.0745910  54.4343906  45.8485165 131.3135005
  50.9087373  32.2249946 111.6891031  50.8966043  33.1691785 111.8459302
  51.8010795  32.0420091 111.3950492  49.0823335  52.1487849 123.1148709
  49.9850581  52.1811460 123.4315204  48.8560705  51.2188300 123.1295045
  50.8376937  50.9018836 119.7758788  49.8872568  50.9020698 119.6623160
  51.1409423  50.1551571 119.2594822  54.7239492  28.8192722 115.9436968
  53.9571888  28.2651209 116.0893650  55.1350197  28.8914591 116.8051120
  46.7281253  35.1077518 130.0342149  47.5912715  34.7514323 130.2445474
  46.1546664  34.7691413 130.7217553  66.5729630  56.7379374 120.8404550
  67.2108040  56.6186122 120.1367890  66.4550473  57.6860218 120.8992502
  63.3819336  56.6906802 120.7766075  63.0437848  56.5747867 119.8886610
  64.2509105  56.2897968 120.7567081  59.2406152  58.5442279 116.7662966
  58.6771017  58.4532216 115.9979254  59.1258547  57.7242183 117.2465458
  63.8639119  57.8441654 126.7352280  63.8527760  57.4494452 125.8632784
  64.0259759  57.1107727 127.3286052  56.7870584  60.0393470 119.6047186
  57.5791876  59.6984295 119.1893486  57.0267234  60.1488445 120.5249340
  58.7461338  59.3002384 112.4764565  59.5192214  58.7531371 112.3377441
  59.0986737  60.1646633 112.6879026  60.5846381  60.6278766 125.6831464
  60.2936247  61.5324397 125.5678131  61.2203365  60.6695294 126.3975534
  61.5102587  58.0055614 122.2732824  62.1066160  57.7811637 121.5589787
  61.5677559  57.2640360 122.8758272  66.1270899  54.4630828 117.9157758
  66.9133988  54.0450251 117.5648175  66.3909603  55.3676920 118.0839407
  71.5279326  54.4006061 118.8190737  72.2604498  53.8305278 119.0528566
  70.7718681  54.0127662 119.2597242  60.8023905  57.3623156 112.3107390
  60.6860163  56.6868059 112.9788474  60.9126164  56.8755530 111.4939543
  63.1455446  56.8233303 116.0154079  62.7813653  56.2963924 116.7267001
  64.0022561  56.4331772 115.8420565  69.0504746  48.1127635 123.2785345
  68.7188071  48.9823046 123.0546560  68.4550360  47.7963919 123.9579376
  62.7860932  51.8523203 111.0115428  62.9535335  52.7203439 111.3785899
  62.5958102  52.0150484 110.0876717  65.5436266  60.3140181 122.6781258
  65.2436989  61.2165220 122.5697065  65.1987325  60.0472365 123.5302411
  58.9948747  56.7653978 118.7117963  58.0699244  56.6330192 118.9195654
  59.2433160  57.5448198 119.2087905  68.9433409  52.8322722 120.3578695
  68.0350287  52.7638130 120.0637456  68.8921005  53.3094667 121.1860521
  62.7650153  54.3080860 111.9962095  62.6449779  54.7537911 112.8347575
  62.0702742  54.6566178 111.4375633  56.3557558  56.4087252 119.5461752
  56.4849939  56.6621731 120.4601163  55.6755009  57.0014960 119.2266407
  63.0174275  54.2512367 128.3013593  62.2407609  54.8106287 128.2916457
  63.6564838  54.7369150 128.8228463  70.8095056  51.0339160 122.1356569
  70.1669436  51.3271693 121.4896364  70.3049984  50.9192080 122.9409766
  68.4635220  54.7802333 112.8242429  69.3753076  55.0129720 112.6490126
  67.9544867  55.3639377 112.2617507  61.2720648  57.0597821 127.8631560
  62.0135332  57.5982865 127.5866383  60.5657633  57.6864109 128.0203111
  66.7475987  59.2026961 126.4603721  67.1559343  58.7609372 125.7158354
  66.0253249  58.6279589 126.7137914  63.1007057  54.1399568 123.8337278
  63.9468252  54.5638981 123.9771927  63.0405695  53.4833192 124.5275841
  67.0704802  59.7628152 120.2156010  66.4413664  59.9273866 119.5132078
  66.6830464  60.1769761 120.9866974  70.9494034  60.6982590 117.5700374
  70.2645072  61.0781491 117.0197407  71.0337883  61.3077916 118.3032322
  66.2506503  51.8003936 125.4918452  66.0067434  52.5545997 124.9552727
  66.5266433  52.1789284 126.3265699  68.2044965  58.3442549 124.1695717
  68.4161861  58.9874308 123.4930098  68.1574714  57.5104865 123.7017647
  65.8071194  50.9560369 121.0732289  64.9455673  51.2541623 121.3649027
  65.8333629  51.1730768 120.1413322  62.6232764  59.5002560 117.4806095
  63.0871109  59.7790263 116.6910718  62.3589562  58.5986004 117.2979186
  59.5156845  59.0474041 120.4185858  60.0858202  59.4761310 119.7803343
  60.1064957  58.7656626 121.1170044  61.5601650  55.6225712 114.2895660
  62.2625693  56.0746756 114.7569587  61.2282278  54.9809531 114.9175553
  60.0082011  54.2137469 128.6646870  59.3780672  54.8953750 128.8982267
  59.9018099  54.1020550 127.7200008  55.3026984  53.8809265 119.5912794
  54.5126038  54.1366793 119.1152904  55.7938231  54.6957603 119.6964834
  69.3190793  61.2214504 122.3418075  70.1408237  60.8194691 122.0600756
  69.3153196  61.1182738 123.2934190  57.2541729  54.2453844 116.5496271
  56.4572892  54.3572538 117.0679766  57.0267321  54.5840496 115.6837161
  63.0847397  60.7698547 124.4978785  63.1491829  61.2318955 125.3336957
  62.3758321  60.1395912 124.6261095  53.5864687  54.1339755 122.0227785
  53.8372725  55.0186765 122.2885361  54.1224235  53.9544357 121.2502876
  77.4096786  57.5653252 118.6903046  76.6560495  56.9960651 118.5347051
  77.5444328  57.5315917 119.6373681  59.2862754  48.5158235 131.0272121
  58.8929700  47.9624433 131.7019765  60.1028894  48.8268813 131.4178638
  56.2524812  59.9542093 114.9385691  56.7649332  60.7485343 115.0891255
  56.9047525  59.2568383 114.8719292  62.2030715  49.9316114 128.6192377
  62.9440428  50.5323267 128.5396840  62.4348638  49.1893752 128.0610420
  57.3472053  55.1172481 126.8970607  57.2325568  54.2157738 127.1977706
  56.4916571  55.3636178 126.5455424  64.4263891  63.0590221 128.4958108
  63.9827745  62.2726600 128.1779012  65.0881104  63.2469372 127.8301998
  59.1851012  64.5886023 123.0218786  59.7358437  64.4603086 122.2495780
  58.3462488  64.8880912 122.6713679  66.5245129  63.3393021 126.5239509
  66.5063604  64.1601902 126.0319778  67.4465049  63.2147096 126.7489650
  62.9818183  60.8537151 127.3663017  63.5146520  60.0925439 127.1362325
  62.4532264  60.5610803 128.1087172  66.1487878  45.9597217 122.8956659
  65.8052147  46.8498858 122.8195770  66.5166841  45.7698874 122.0326244
  54.2173729  58.2830747 115.7145261  55.0548951  58.6927755 115.4978969
  54.3951996  57.3430189 115.6845455  66.1138161  55.9505828 111.4029094
  65.5984784  56.7210432 111.6417481  65.8415469  55.2770964 112.0262156
  63.6985272  50.7955529 116.4614332  62.8426868  50.4062379 116.2819971
  64.1112223  50.8747489 115.6014118  65.2284418  48.3301872 120.8605892
  64.7249214  48.2932007 120.0473698  65.5215025  49.2394615 120.9202549
  61.4727304  48.4140602 119.8672074  62.3380301  48.2183410 119.5077963
  61.5404813  48.1850953 120.7941431  71.0872435  58.7038182 113.3382268
  70.3101878  58.3649342 112.8937430  71.7663916  58.7090806 112.6637233
  65.9024464  53.8232920 113.2288875  65.5974599  54.1379069 114.0799018
  66.8554906  53.9014340 113.2716208  64.3470896  59.9823143 114.8781829
  63.8192257  59.2475903 114.5655067  63.8458398  60.7597820 114.6321798
  69.3263742  58.1772164 119.9948876  68.6687416  58.8671425 120.0829004
  70.1304141  58.5668596 120.3382862  59.0789623  50.6442809 117.2388441
  59.6533375  50.4217991 116.5061634  59.6660606  50.7131504 117.9917042
  68.1369201  56.5316536 118.0452817  68.6501082  57.1646528 118.5474527
  68.7870424  55.9317732 117.6796177  61.3812291  47.5184058 115.9663510
  60.7276703  47.2033076 115.3420125  61.3392765  46.8959799 116.6923333
  64.6150031  54.0065992 120.2911158  63.6972593  54.2280939 120.1332846
  65.0310175  54.0812302 119.4322865  65.3985079  55.4057408 115.4213838
  66.1456898  55.9178805 115.1120960  65.6676669  55.0841460 116.2818232
  68.9030997  61.5122538 116.1731960  68.4493324  60.6713448 116.2297150
  68.2724963  62.1483936 116.5106740  67.8463916  52.4414524 117.4032627
  67.1086673  51.9291910 117.7342870  68.0990690  52.0014905 116.5915904
  67.3463936  63.3499035 117.1081778  67.6386910  63.9104092 116.3894144
  67.8562557  63.6427596 117.8634937  67.9475544  45.2190776 117.9974397
  68.2534420  44.3588139 117.7100312  68.6728148  45.8108396 117.7973391
  54.2399900  55.6221462 116.3855995  54.0424300  55.0290823 115.6607061
  53.6846564  55.3173673 117.1031933  62.2196623  55.5144569 118.5050588
  62.2745233  54.5618405 118.4293064  61.4087825  55.6704008 118.9891886
  60.1588983  54.1321629 116.2640967  59.3456849  54.4315799 116.6706159
  60.6547977  53.7377317 116.9815449  62.3097561  64.1279386 118.1975231
  62.2673740  64.3540232 117.2683763  63.2260260  63.8942760 118.3461032
  65.7563195  54.5963453 125.0955860  66.1112583  54.8234926 125.9550326
  66.4035326  54.9281830 124.4733116  71.4860932  57.7181889 115.8005190
  71.3478830  57.9083485 114.8726379  71.1297151  58.4801272 116.2573241
  59.6503058  51.7039984 121.8802202  60.2902437  51.5628743 121.1825165
  58.8180589  51.4174498 121.5040804  71.5130312  59.7858416 120.8116461
  71.9466818  59.6933705 121.6599515  72.2261892  59.7615916 120.1736477
  60.4263362  61.0042415 117.9937194  61.2203960  60.5092735 117.7919769
  59.7155054  60.4760278 117.6304900  65.2458206  63.3860510 122.3449562
  65.2995229  63.9551446 123.1127278  64.3772988  63.5562395 121.9803599
  56.7346125  55.1485496 114.0696947  55.8043714  55.0869952 114.2866909
  56.8303597  54.6261449 113.2733588  56.6531674  51.6740309 116.6575188
  56.9138492  52.5885642 116.5484349  57.4748847  51.2064752 116.8071801
  58.1256600  53.0878066 123.8274013  58.7979653  52.8795428 123.1786662
  57.2986386  52.8900152 123.3879245  72.3745861  59.8282117 123.3449346
  72.5681751  60.7327927 123.5908621  72.2746479  59.3689536 124.1787931
  64.0282172  49.7140007 125.8439674  63.3810087  50.4129957 125.7504150
  64.7983187  50.1476151 126.2115922  67.4360970  59.9788859 128.9190227
  67.2846476  59.7499411 128.0020311  67.4265649  60.9359461 128.9321572
  64.2046306  57.5520772 123.9036493  65.1338366  57.7031932 123.7305461
  63.7837336  57.6404793 123.0485140  63.0034638  61.5771437 121.6735031
  62.8645724  61.2090221 122.5460969  62.2149234  62.0919076 121.5018989
  64.5539853  60.9553039 119.0623869  64.2189686  60.9153809 119.9581519
  64.0543799  60.2897755 118.5894279  58.5284097  56.3620669 124.5876450
  58.3903895  55.6300908 125.1887989  59.4389021  56.2729569 124.3060638
  61.1566398  56.0740629 124.0760130  61.8666016  55.4333821 124.0346748
  61.1135706  56.3253523 124.9986310  69.1453176  63.0107982 126.9966709
  69.0865723  62.3267202 126.3297292  69.5472695  63.7526972 126.5447335
  59.8695332  53.0605847 125.8955769  59.3332689  52.6096585 126.5477365
  59.2812040  53.1951755 125.1526234  58.1643875  69.8269896 119.7900428
  58.4040473  70.4588420 120.4679446  57.3213072  69.4757936 120.0765787
  69.1470584  60.9747566 125.2280689  68.2597362  60.6373488 125.3507087
  69.7169135  60.2430597 125.4649454  50.7999731  57.3071658 118.5523740
  51.4870771  56.9933388 117.9644755  50.6447859  58.2113022 118.2790991
  55.6034453  52.1961854 122.9808764  55.5192642  51.5887524 122.2459174
  54.7817159  52.6870873 122.9818260  62.6771737  65.6349018 122.1941932
  62.6041909  66.4403990 122.7061236  62.2349130  65.8340984 121.3689953
  62.4661517  64.8720788 115.7044753  61.6829039  65.4142468 115.7982978
  63.1654262  65.3894768 116.1038994  65.7758167  50.6815418 118.3478959
  66.2726866  49.9285380 118.0280029  65.0045148  50.7179734 117.7822168
  73.6287924  56.3855783 119.9897250  73.6177800  57.2680499 119.6191183
  72.7605304  56.0327334 119.7951787  65.1370421  65.5335852 124.3500090
  65.8498393  66.1683317 124.2775992  64.6460449  65.6299718 123.5340092
  66.8587947  59.4387105 115.9217382  65.9244226  59.5588567 115.7522086
  67.0364616  58.5359572 115.6577392  62.3593136  52.8232801 118.0750643
  61.9890923  52.2703841 118.7631549  62.8552228  52.2190934 117.5225643
  70.2460499  55.2804424 116.4567416  70.7120951  56.1132416 116.3827719
  70.6967999  54.8149406 117.1612675  60.1882334  63.2830296 125.1705661
  60.8891794  63.9166779 125.3235055  59.7177449  63.6245027 124.4101301
  68.3136730  61.6248246 113.4553568  68.5896574  61.5104840 114.3647442
  67.4441229  61.2265730 113.4165741  68.2177162  47.6485011 120.4958318
  67.3040241  47.8789238 120.6640525  68.6470263  47.7323455 121.3472350
  67.9883620  55.8374903 122.9958212  67.3355070  56.0850811 122.3410664
  68.3664000  55.0239041 122.6620689  64.9490794  65.8734596 117.0986382
  65.1313188  65.0556252 117.5614134  65.7723780  66.0902289 116.6611272
  65.2832959  64.8002782 114.3601430  65.8120726  64.2895236 113.7471592
  65.5461179  64.4845312 115.2246963  64.0371193  56.5794714 129.4824249
  63.3611830  56.4788844 130.1526624  64.8598827  56.4233928 129.9460246
  55.7850052  62.8166651 122.1036764  56.3703489  62.0710339 122.2364668
  55.5874891  63.1270608 122.9873428  50.3767707  55.3872251 120.8241207
  50.4151806  54.8535842 121.6178325  49.8708000  54.8607457 120.2052184
  62.7793976  67.8861642 123.7181865  63.3312284  68.0493263 124.4830950
  63.1200169  68.4766080 123.0461890  57.7558469  50.2336792 124.3203749
  57.8199796  51.0951622 123.9081147  57.6925589  49.6210793 123.5876108
  57.2310742  52.3059924 127.9676784  57.8582781  51.9237001 128.5814308
  56.3738661  52.0874126 128.3332476  67.6304850  62.7122899 129.5730519
  68.1744754  63.3252858 129.0785474  67.0491695  63.2702478 130.0897532
  54.0076284  54.1136353 113.8995138  54.3029726  53.2047032 113.8462192
  53.1064320  54.0924093 113.5776141  65.9162363  65.8343617 120.7045547
  65.7913503  65.0333357 120.1956492  66.5741454  66.3289811 120.2159517
  57.5370531  52.1892350 119.8822687  56.8157117  52.8028317 119.7430160
  58.3263787  52.7250115 119.8039333  67.9797272  63.6352637 122.3325097
  67.0327607  63.5157989 122.2603424  68.3280045  62.7475135 122.4151358
  60.3396845  49.5246776 126.1563339  60.8631247  49.7709073 126.9189648
  60.1209178  50.3566811 125.7366476  55.7364126  51.7950451 114.0234464
  55.4076832  50.9147830 113.8409570  56.0903497  51.7398120 114.9110853
  64.9843705  63.4305354 118.5329449  64.8368667  62.5022061 118.7137019
  65.8097198  63.4525444 118.0486524  58.8505949  52.0823421 114.3909941
  59.1902022  52.6109342 113.6688550  59.2978070  52.4203827 115.1668508
  68.5877827  64.2533912 119.6194322  69.5124374  64.0476774 119.4818773
  68.4193130  64.0050313 120.5283663  61.5449390  50.4660471 123.8413009
  61.2046210  49.6668284 124.2433689  60.8388396  50.7662182 123.2689843
  62.1965862  47.5509784 122.2940332  63.0191931  47.0770262 122.1719223
  62.4403925  48.3300268 122.7939019  60.8374096  50.5798042 112.5903234
  61.5582459  50.9579295 112.0866951  60.2139400  51.2986919 112.6938212
  64.9805219  51.2843191 113.5261566  65.1968834  52.1667829 113.2250395
  64.4999286  50.8929405 112.7967208  59.7204441  54.2428904 120.1032311
  59.5749021  54.5569207 120.9956593  59.2429644  54.8613805 119.5503210
  61.5800824  51.2331452 120.1513201  61.5662392  50.3372546 119.8145498
  62.2973252  51.2402116 120.7851487  63.4326954  51.6668793 122.1966328
  63.1744732  52.5885863 122.1950658  62.9011995  51.2699227 122.8866792
  68.3773143  64.7719580 114.9756413  68.5510021  64.2066002 114.2230266
  68.8702034  65.5720475 114.7935903  54.1950103  56.7834249 123.0419972
  53.6503571  57.5594057 123.1740247  55.0729453  57.1305053 122.8839094
  60.9837719  50.1145833 115.4200771  61.1053631  49.1862479 115.6191658
  60.6939762  50.1284519 114.5079086  63.8528910  47.8000743 118.5567491
  63.8750607  47.8640076 117.6019470  64.2696969  46.9605252 118.7507997
  74.2312534  57.5356003 116.5946713  74.6743680  56.7863328 116.1965836
  73.3539044  57.5266139 116.2120445  69.3648315  64.0886344 112.0753312
  70.0599220  64.7093037 112.2940626  69.7071466  63.2381695 112.3505690
  54.9816125  55.9104145 125.9350129  54.2397861  56.0586780 126.5214759
  54.6608869  56.1712411 125.0716878  71.2639739  61.5386050 113.6040642
  71.7891063  61.8773322 112.8789962  71.1762091  60.6033065 113.4203777
  62.9259787  65.4520123 125.7330519  63.2346914  65.2069270 126.6053219
  63.7235269  65.6566762 125.2449389  62.9480399  67.6058033 117.9635896
  62.5085390  67.1134412 118.6568752  63.6988516  67.0631001 117.7227971
  60.3954271  63.1496042 120.0358197  59.7734281  62.4866747 119.7360425
  61.0659138  63.1757174 119.3531845  53.6281343  61.7155900 118.9249457
  52.7913252  61.2878075 118.7433459  53.6004989  61.9088344 119.8620248
  60.4678799  51.6277830 129.6290703  60.5166954  52.5039953 129.2468473
  61.0101313  51.0855223 129.0562347  70.9533645  62.1718953 128.9091840
  70.1629188  62.1543092 128.3696340  70.7166999  62.7107247 129.6640877
  71.0731520  59.0211420 126.2224569  71.1229525  58.8561427 127.1640092
  70.9645443  58.1538679 125.8322450  68.3635282  55.0042348 127.5383876
  69.2645145  54.8648813 127.2467873  68.4383257  55.1696803 128.4782053
  62.6978087  52.3809202 126.3837062  61.8281397  52.6742769 126.1119650
  62.9337568  52.9649647 127.1044326  72.5749717  61.4408361 126.4666590
  72.2834525  61.8038342 127.3030051  71.9621848  60.7275369 126.2879923
  73.7745399  59.0061241 118.9869161  74.6092290  59.4451045 119.1506721
  73.9104528  58.5299894 118.1677406  70.8236905  56.5640976 124.9346648
  71.2991026  56.7568622 124.1265500  69.9002470  56.6200162 124.6890032
  57.7120411  57.7265143 114.5177727  57.4666453  56.8227473 114.7157937
  57.8816326  57.7282293 113.5757205  65.4017121  48.5988819 123.9002482
  65.9199065  49.3349846 123.5748971  65.0472254  48.9052813 124.7349241
  56.9816059  53.4593501 112.0163888  56.2885304  53.5337856 111.3603924
  56.7367811  52.6953844 112.5385405  65.6529715  45.0189102 119.4203379
  65.9331469  44.3512291 120.0463805  66.4380322  45.2118198 118.9078043
  69.5238574  53.4406736 123.1674954  70.4755997  53.5404834 123.1887178
  69.3542024  52.6485004 123.6773038  67.5452953  50.5262319 123.3534355
  66.9502885  50.8067332 122.6580844  67.2602650  51.0156220 124.1251096
  66.6760444  64.4785246 112.1136988  67.6091117  64.4130808 112.3169863
  66.5883657  65.3141513 111.6551520  69.3048460  63.7951116 109.0740935
  69.2262092  63.4610980 109.9676693  70.1258127  64.2872884 109.0732407
  72.0026652  56.6612856 122.2817254  71.9702972  55.7228856 122.4676938
  72.6127275  56.7396892 121.5483079  72.1521140  53.4523899 122.3275537
  71.6360189  52.6682356 122.1405466  73.0361089  53.1242616 122.4922056
  69.8131867  47.1964915 118.2871350  69.6156688  46.8880003 119.1714682
  70.4231573  47.9226554 118.4169279  77.8203201  57.7228862 121.4223290
  78.5506590  57.4614151 121.9830994  77.2110147  56.9857584 121.4625358
  75.9018499  55.8636725 122.0197742  75.1751662  55.7292690 121.4114233
  75.4865785  56.1713554 122.8254460  63.7248675  59.5826655 129.7845115
  64.6451684  59.7605254 129.9785161  63.6898258  58.6382700 129.6324814
  52.9430840  54.7765248 118.7098389  52.6233624  53.9230557 118.4172763
  52.3964268  54.9913827 119.4656357  56.7210748  57.4927689 122.4267896
  56.9396757  58.4244797 122.4455930  57.1336521  57.1335664 123.2122700
  63.6414965  47.9995775 114.4143584  62.8315694  47.6542860 114.7898830
  64.3299382  47.6903318 115.0031196  65.5705514  47.0773821 116.0367881
  66.1236552  47.4969275 116.6957904  65.8075600  46.1509570 116.0790837
  61.5938613  53.0660895 131.8170645  61.4935340  54.0155252 131.7482736
  61.3760155  52.7379134 130.9446715  52.8119100  58.3968160 120.6791511
  52.1182571  57.9822113 120.1661465  53.5592091  58.4388696 120.0824930
  68.9484321  49.1874347 115.5446545  68.3682990  49.8459151 115.1624598
  68.6820253  48.3651691 115.1333963  67.3987887  48.5879404 117.7467865
  67.8987665  48.6995939 116.9382184  68.0423495  48.2840457 118.3868674
  61.4569883  56.4958034 130.6335706  60.9736965  57.2958394 130.8399595
  61.5430822  56.5065979 129.6803150  54.7255842  58.3286414 118.5557526
  54.7026531  58.4274101 117.6039409  55.0356479  59.1751564 118.8774692
  57.3843220  60.3862569 122.6704140  58.3386474  60.3546511 122.6034072
  57.1855744  59.9253192 123.4854366  57.9742602  58.9563685 125.2374938
  58.7935491  59.4507763 125.2609775  58.2479410  58.0395653 125.2092505
  67.7309199  51.3474437 114.6002893  66.8435054  51.6324088 114.3823088
  68.1463188  51.1868200 113.7530170  71.0823735  51.3720958 118.3157233
  71.8584125  51.8617410 118.5881849  70.3571869  51.7979012 118.7729102
  73.5196293  52.0848577 119.3731173  74.1140784  51.8444313 118.6624482
  73.5922877  51.3655708 120.0004710  55.7393449  65.9282188 119.6874338
  55.6047917  65.1682589 119.1212336  55.3225511  66.6523088 119.2203127
  67.7050222  56.8628973 114.8153184  67.6485424  57.3197524 113.9760816
  68.2578565  56.1019658 114.6376026  71.5155028  52.6518705 115.6403303
  71.2591963  52.2515340 116.4711511  70.8907896  53.3662499 115.5153442
  75.8267366  55.3914778 118.1474594  75.2666924  55.4607967 118.9206157
  75.2210870  55.2155763 117.4274091  58.8962575  66.8251505 119.8992781
  58.7794959  67.7696938 119.7971471  58.0755021  66.5225067 120.2878580
  68.7839110  61.5501641 110.7449373  69.6184714  61.1182839 110.5626848
  68.6223452  61.3783655 111.6726268  68.4385002  58.0533754 112.1105713
  68.3833806  57.8878026 111.1694157  67.8131057  58.7609787 112.2667902
  53.2277517  53.2901819 125.9367135  53.8736380  52.7800773 126.4254360
  53.0194668  54.0270500 126.5110560  65.7530909  60.3582666 131.4359276
  66.6222069  60.5323318 131.0745910  65.2737660  61.1777083 131.3135005
  61.7481127  47.5541863 111.6891031  61.7359797  48.4983703 111.8459302
  62.6404549  47.3712009 111.3950492  59.9217089  67.4779767 123.1148709
  60.8244336  67.5103377 123.4315204  59.6954459  66.5480218 123.1295045
  61.6770691  66.2310754 119.7758788  60.7266322  66.2312615 119.6623160
  61.9803177  65.4843488 119.2594822  65.5633247  44.1484640 115.9436968
  64.7965642  43.5943127 116.0893650  65.9743952  44.2206509 116.8051120
  57.5675008  50.4369436 130.0342149  58.4306469  50.0806241 130.2445474
  56.9940418  50.0983330 130.7217553  77.4123385  72.0671292 120.8404550
  78.0501795  71.9478039 120.1367890  77.2944228  73.0152136 120.8992502
  74.2213091  72.0198720 120.7766075  73.8831602  71.9039785 119.8886610
  75.0902859  71.6189885 120.7567081  70.0799907  73.8734197 116.7662966
  69.5164772  73.7824133 115.9979254  69.9652302  73.0534101 117.2465458
  74.7032874  73.1733572 126.7352280  74.6921515  72.7786370 125.8632784
  74.8653513  72.4399644 127.3286052  67.6264339  75.3685388 119.6047186
  68.4185630  75.0276213 119.1893486  67.8660989  75.4780363 120.5249340
  75.6599465  77.5405164 112.0777431  75.0087445  78.1259245 111.6911445
  76.4543828  78.0711359 112.1372468  69.5855093  74.6294301 112.4764565
  70.3585969  74.0823288 112.3377441  69.9380491  75.4938551 112.6879026
  71.4240135  75.9570684 125.6831464  71.1330001  76.8616314 125.5678131
  72.0597119  75.9987211 126.3975534  72.3496342  73.3347532 122.2732824
  72.9459914  73.1103555 121.5589787  72.4071313  72.5932278 122.8758272
  76.9664653  69.7922746 117.9157758  77.7527742  69.3742169 117.5648175
  77.2303357  70.6968838 118.0839407  77.1374731  75.2295596 112.6146415
  76.5020563  75.3030223 113.3267320  76.8072137  75.8189195 111.9365494
  82.3673080  69.7297979 118.8190737  83.0998252  69.1597196 119.0528566
  81.6112436  69.3419580 119.2597242  71.6417659  72.6915073 112.3107390
  71.5253917  72.0159977 112.9788474  71.7519919  72.2047447 111.4939543
  73.9849200  72.1525221 116.0154079  73.6207407  71.6255842 116.7267001
  74.8416316  71.7623690 115.8420565  79.8898501  63.4419553 123.2785345
  79.5581825  64.3114964 123.0546560  79.2944114  63.1255837 123.9579376
  73.6254687  67.1815120 111.0115428  73.7929089  68.0495357 111.3785899
  73.4351856  67.3442402 110.0876717  76.3830020  75.6432099 122.6781258
  76.0830743  76.5457138 122.5697065  76.0381080  75.3764282 123.5302411
  69.8342502  72.0945896 118.7117963  68.9092998  71.9622110 118.9195654
  70.0826915  72.8740115 119.2087905  79.7827164  68.1614639 120.3578695
  78.8744041  68.0930048 120.0637456  79.7314760  68.6386584 121.1860521
  73.6043908  69.6372778 111.9962095  73.4843533  70.0829829 112.8347575
  72.9096496  69.9858095 111.4375633  67.1951313  71.7379170 119.5461752
  67.3243694  71.9913648 120.4601163  66.5148764  72.3306878 119.2266407
  71.3650800  82.4076420 115.6452226  71.2874830  83.3584245 115.7240706
  70.7612444  82.0622292 116.3027152  73.8568030  69.5804285 128.3013593
  73.0801364  70.1398205 128.2916457  74.4958593  70.0661068 128.8228463
  81.6488810  66.3631078 122.1356569  81.0063191  66.6563611 121.4896364
  81.1443739  66.2483998 122.9409766  79.3028974  70.1094251 112.8242429
  80.2146830  70.3421638 112.6490126  78.7938621  70.6931295 112.2617507
  72.1114402  72.3889738 127.8631560  72.8529086  72.9274782 127.5866383
  71.4051388  73.0156027 128.0203111  77.5869742  74.5318879 126.4603721
  77.9953098  74.0901289 125.7158354  76.8647003  73.9571506 126.7137914
  73.9400812  69.4691486 123.8337278  74.7862007  69.8930899 123.9771927
  73.8799449  68.8125110 124.5275841  77.9098556  75.0920069 120.2156010
  77.2807419  75.2565784 119.5132078  77.5224218  75.5061679 120.9866974
  81.7887788  76.0274507 117.5700374  81.1038826  76.4073409 117.0197407
  81.8731638  76.6369834 118.3032322  77.0900257  67.1295854 125.4918452
  76.8461189  67.8837914 124.9552727  77.3660188  67.5081201 126.3265699
  79.0438720  73.6734466 124.1695717  79.2555615  74.3166226 123.4930098
  78.9968468  72.8396783 123.7017647  76.6464949  66.2852287 121.0732289
  75.7849428  66.5833540 121.3649027  76.6727383  66.5022686 120.1413322
  73.4626518  74.8294477 117.4806095  73.9264864  75.1082180 116.6910718
  73.1983316  73.9277922 117.2979186  70.3550599  74.3765959 120.4185858
  70.9251956  74.8053227 119.7803343  70.9458711  74.0948544 121.1170044
  72.3995404  70.9517630 114.2895660  73.1019448  71.4038674 114.7569587
  72.0676033  70.3101449 114.9175553  70.8475766  69.5429386 128.6646870
  70.2174426  70.2245667 128.8982267  70.7411854  69.4312468 127.7200008
  66.1420738  69.2101182 119.5912794  65.3519792  69.4658711 119.1152904
  66.6331986  70.0249520 119.6964834  80.1584548  76.5506422 122.3418075
  80.9801992  76.1486609 122.0600756  80.1546951  76.4474656 123.2934190
  68.0935484  69.5745762 116.5496271  67.2966647  69.6864456 117.0679766
  67.8661076  69.9132414 115.6837161  73.9241151  76.0990465 124.4978785
  73.9885584  76.5610872 125.3336957  73.2152075  75.4687830 124.6261095
  64.4258441  69.4631673 122.0227785  64.6766480  70.3478683 122.2885361
  64.9617990  69.2836274 121.2502876  88.2490541  72.8945170 118.6903046
  87.4954249  72.3252568 118.5347051  88.3838082  72.8607835 119.6373681
  73.6389169  77.7658572 114.3657766  73.5034844  78.6110108 114.7942613
  74.1798981  77.9677850 113.6023699  70.1256509  63.8450152 131.0272121
  69.7323454  63.2916351 131.7019765  70.9422649  64.1560731 131.4178638
  67.0918566  75.2834010 114.9385691  67.6043087  76.0777261 115.0891255
  67.7441279  74.5860301 114.8719292  68.9013451  78.3999767 117.0208444
  69.0780079  79.3217731 116.8329428  69.6970284  78.0858186 117.4502824
  73.0424470  65.2608031 128.6192377  73.7834183  65.8615185 128.5396840
  73.2742392  64.5185669 128.0610420  68.1865808  70.4464399 126.8970607
  68.0719323  69.5449656 127.1977706  67.3310325  70.6928095 126.5455424
  75.2657645  78.3882139 128.4958108  74.8221499  77.6018518 128.1779012
  75.9274859  78.5761289 127.8301998  70.0244766  79.9177941 123.0218786
  70.5752192  79.7895004 122.2495780  69.1856242  80.2172830 122.6713679
  77.3638883  78.6684939 126.5239509  77.3457359  79.4893820 126.0319778
  78.2858803  78.5439014 126.7489650  73.8211937  76.1829068 127.3663017
  74.3540274  75.4217357 127.1362325  73.2926019  75.8902720 128.1087172
  76.9881632  61.2889134 122.8956659  76.6445902  62.1790776 122.8195770
  77.3560595  61.0990792 122.0326244  65.0567483  73.6122665 115.7145261
  65.8942705  74.0219673 115.4978969  65.2345751  72.6722107 115.6845455
  76.9531915  71.2797745 111.4029094  76.4378539  72.0502350 111.6417481
  76.6809224  70.6062882 112.0262156  74.5379026  66.1247446 116.4614332
  73.6820623  65.7354297 116.2819971  74.9505978  66.2039407 115.6014118
  76.0678173  63.6593789 120.8605892  75.5642968  63.6223925 120.0473698
  76.3608780  64.5686532 120.9202549  72.3121059  63.7432519 119.8672074
  73.1774055  63.5475328 119.5077963  72.3798568  63.5142871 120.7941431
  81.9266189  74.0330100 113.3382268  81.1495632  73.6941260 112.8937430
  82.6057670  74.0382723 112.6637233  76.7418218  69.1524838 113.2288875
  76.4368354  69.4670987 114.0799018  77.6948660  69.2306257 113.2716208
  75.1864650  75.3115061 114.8781829  74.6586012  74.5767820 114.5655067
  74.6852153  76.0889737 114.6321798  80.1657496  73.5064081 119.9948876
  79.5081171  74.1963343 120.0829004  80.9697895  73.8960513 120.3382862
  69.9183378  65.9734727 117.2388441  70.4927130  65.7509909 116.5061634
  70.5054360  66.0423422 117.9917042  78.9762955  71.8608454 118.0452817
  79.4894837  72.4938446 118.5474527  79.6264179  71.2609650 117.6796177
  70.2452965  68.0039188 111.2584326  69.4090277  68.3413875 111.5793601
  70.1057735  67.8688168 110.3211463  72.2206046  62.8475976 115.9663510
  71.5670458  62.5324993 115.3420125  72.1786520  62.2251717 116.6923333
  76.2385329  81.8392778 110.8013488  75.5647028  82.1424475 111.4098446
  76.6251151  82.6421859 110.4518946  75.4543786  69.3357910 120.2911158
  74.5366347  69.5572857 120.1332846  75.8703929  69.4104220 119.4322865
  76.2378834  70.7349325 115.4213838  76.9850653  71.2470722 115.1120960
  76.5070423  70.4133378 116.2818232  74.5105484  73.2307866 112.4040792
  73.6016703  72.9466899 112.5013262  74.5400568  73.6506945 111.5444099
  79.7424751  76.8414455 116.1731960  79.2887078  76.0005365 116.2297150
  79.1118718  77.4775854 116.5106740  78.6857671  67.7706442 117.4032627
  77.9480428  67.2583828 117.7342870  78.9384444  67.3306823 116.5915904
  78.1857690  78.6790952 117.1081778  78.4780665  79.2396009 116.3894144
  78.6956311  78.9719513 117.8634937  78.7869298  60.5482694 117.9974397
  79.0928175  59.6880057 117.7100312  79.5121903  61.1400314 117.7973391
  65.0793654  70.9513380 116.3855995  64.8818054  70.3582741 115.6607061
  64.5240318  70.6465590 117.1031933  73.0590378  70.8436487 118.5050588
  73.1138988  69.8910323 118.4293064  72.2481580  70.9995926 118.9891886
  70.9982738  69.4613546 116.2640967  70.1850603  69.7607717 116.6706159
  71.4941732  69.0669235 116.9815449  73.1491316  79.4571303 118.1975231
  73.1067494  79.6832150 117.2683763  74.0654015  79.2234678 118.3461032
  76.5956949  69.9255371 125.0955860  76.9506337  70.1526844 125.9550326
  77.2429081  70.2573748 124.4733116  82.3254686  73.0473807 115.8005190
  82.1872585  73.2375403 114.8726379  81.9690905  73.8093190 116.2573241
  70.4896813  67.0331902 121.8802202  71.1296192  66.8920661 121.1825165
  69.6574343  66.7466415 121.5040804  82.3524066  75.1150334 120.8116461
  82.7860573  75.0225623 121.6599515  83.0655647  75.0907834 120.1736477
  71.2657116  76.3334332 117.9937194  72.0597715  75.8384652 117.7919769
  70.5548809  75.8052195 117.6304900  76.0851961  78.7152428 122.3449562
  76.1388983  79.2843364 123.1127278  75.2166742  78.8854313 121.9803599
  67.5739880  70.4777414 114.0696947  66.6437468  70.4161870 114.2866909
  67.6697352  69.9553367 113.2733588  67.4925429  67.0032227 116.6575188
  67.7532246  67.9177560 116.5484349  68.3142601  66.5356669 116.8071801
  68.9650354  68.4169984 123.8274013  69.6373408  68.2087346 123.1786662
  68.1380141  68.2192070 123.3879245  83.2139616  75.1574034 123.3449346
  83.4075506  76.0619845 123.5908621  83.1140234  74.6981453 124.1787931
  74.8675926  65.0431925 125.8439674  74.2203841  65.7421875 125.7504150
  75.6376942  65.4768069 126.2115922  78.2754724  75.3080777 128.9190227
  78.1240231  75.0791329 128.0020311  78.2659404  76.2651379 128.9321572
  75.0440061  72.8812690 123.9036493  75.9732121  73.0323849 123.7305461
  74.6231091  72.9696711 123.0485140  73.8428392  76.9063354 121.6735031
  73.7039478  76.5382139 122.5460969  73.0542989  77.4210994 121.5018989
  74.4376544  82.0072451 113.0160568  74.6128300  81.5360494 113.8306190
  73.7509332  82.6338217 113.2441828  75.3933608  76.2844957 119.0623869
  75.0583440  76.2445727 119.9581519  74.8937553  75.6189673 118.5894279
  69.3677852  71.6912587 124.5876450  69.2297649  70.9592826 125.1887989
  70.2782775  71.6021487 124.3060638  71.9960152  71.4032546 124.0760130
  72.7059771  70.7625739 124.0346748  71.9529460  71.6545441 124.9986310
  79.9846931  78.3399900 126.9966709  79.9259477  77.6559120 126.3297292
  80.3866449  79.0818890 126.5447335  70.7089086  68.3897764 125.8955769
  70.1726443  67.9388503 126.5477365  70.1205795  68.5243673 125.1526234
  69.0037630  85.1561814 119.7900428  69.2434228  85.7880338 120.4679446
  68.1606826  84.8049854 120.0765787  70.1191345  67.8486416 108.4582233
  69.2420811  67.7275216 108.0944479  70.5949098  67.0572494 108.2061121
  79.9864338  76.3039484 125.2280689  79.0991117  75.9665405 125.3507087
  80.5562889  75.5722515 125.4649454  61.6393485  72.6363575 118.5523740
  62.3264525  72.3225305 117.9644755  61.4841614  73.5404940 118.2790991
  66.4428207  67.5253772 122.9808764  66.3586396  66.9179441 122.2459174
  65.6210914  68.0162790 122.9818260  73.5165492  80.9640936 122.1941932
  73.4435663  81.7695907 122.7061236  73.0742885  81.1632902 121.3689953
  73.3055271  80.2012706 115.7044753  72.5222793  80.7434386 115.7982978
  74.0048016  80.7186686 116.1038994  76.6151921  66.0107335 118.3478959
  77.1120621  65.2577298 118.0280029  75.8438903  66.0471652 117.7822168
  84.4681679  71.7147701 119.9897250  84.4571555  72.5972416 119.6191183
  83.5999058  71.3619252 119.7951787  75.9764175  80.8627770 124.3500090
  76.6892147  81.4975235 124.2775992  75.4854204  80.9591636 123.5340092
  77.6981702  74.7679023 115.9217382  76.7637981  74.8880485 115.7522086
  77.8758370  73.8651489 115.6577392  73.1986890  68.1524718 118.0750643
  72.8284678  67.5995759 118.7631549  73.6945982  67.5482852 117.5225643
  81.0854253  70.6096342 116.4567416  81.5514706  71.4424334 116.3827719
  81.5361754  70.1441324 117.1612675  71.0276089  78.6122213 125.1705661
  71.7285548  79.2458696 125.3235055  70.5571204  78.9536945 124.4101301
  79.1530484  76.9540163 113.4553568  79.4290328  76.8396758 114.3647442
  78.2834983  76.5557648 113.4165741  79.0570916  62.9776929 120.4958318
  78.1433996  63.2081156 120.6640525  79.4864018  63.0615373 121.3472350
  78.8277375  71.1666821 122.9958212  78.1748825  71.4142728 122.3410664
  79.2057754  70.3530959 122.6620689  75.7884548  81.2026514 117.0986382
  75.9706943  80.3848170 117.5614134  76.6117534  81.4194206 116.6611272
  76.1226714  80.1294699 114.3601430  76.6514480  79.6187154 113.7471592
  76.3854934  79.8137229 115.2246963  74.8764948  71.9086632 129.4824249
  74.2005585  71.8080761 130.1526624  75.6992581  71.7525846 129.9460246
  66.6243807  78.1458568 122.1036764  67.2097243  77.4002256 122.2364668
  66.4268645  78.4562525 122.9873428  69.4782462  81.1809816 117.1199206
  68.8092837  81.6655944 116.6363246  69.3395332  81.4279036 118.0342585
  61.2161461  70.7164169 120.8241207  61.2545561  70.1827759 121.6178325
  60.7101754  70.1899374 120.2052184  73.6187730  83.2153559 123.7181865
  74.1706038  83.3785181 124.4830950  73.9593924  83.8057997 123.0461890
  68.5952224  65.5628709 124.3203749  68.6593550  66.4243540 123.9081147
  68.5319344  64.9502711 123.5876108  68.0704496  67.6351842 127.9676784
  68.6976535  67.2528919 128.5814308  67.2132415  67.4166044 128.3332476
  78.4698605  78.0414817 129.5730519  79.0138509  78.6544775 129.0785474
  77.8885450  78.5994395 130.0897532  64.8470039  69.4428271 113.8995138
  65.1423480  68.5338949 113.8462192  63.9458075  69.4216010 113.5776141
  76.7556118  81.1635535 120.7045547  76.6307257  80.3625275 120.1956492
  77.4135209  81.6581728 120.2159517  68.3764286  67.5184267 119.8822687
  67.6550872  68.1320235 119.7430160  69.1657542  68.0542032 119.8039333
  78.8191026  78.9644555 122.3325097  77.8721362  78.8449906 122.2603424
  79.1673799  78.0767053 122.4151358  71.1790599  64.8538694 126.1563339
  71.7025001  65.1000990 126.9189648  70.9602933  65.6858729 125.7366476
  66.5757881  67.1242369 114.0234464  66.2470587  66.2439747 113.8409570
  66.9297251  67.0690037 114.9110853  75.8237459  78.7597271 118.5329449
  75.6762422  77.8313979 118.7137019  76.6490953  78.7817362 118.0486524
  69.6899704  67.4115338 114.3909941  70.0295776  67.9401260 113.6688550
  70.1371824  67.7495744 115.1668508  79.4271581  79.5825830 119.6194322
  80.3518129  79.3768691 119.4818773  79.2586885  79.3342231 120.5283663
  72.3843145  65.7952389 123.8413009  72.0439965  64.9960202 124.2433689
  71.6782151  66.0954100 123.2689843  73.0359616  62.8801701 122.2940332
  73.8585686  62.4062180 122.1719223  73.2797680  63.6592185 122.7939019
  71.6767851  65.9089960 112.5903234  72.3976213  66.2871213 112.0866951
  71.0533155  66.6278837 112.6938212  75.8198974  66.6135109 113.5261566
  76.0362588  67.4959747 113.2250395  75.3393041  66.2221322 112.7967208
  70.5598195  69.5720822 120.1032311  70.4142776  69.8861125 120.9956593
  70.0823399  70.1905722 119.5503210  72.4194578  66.5623370 120.1513201
  72.4056147  65.6664463 119.8145498  73.1367006  66.5694034 120.7851487
  74.2720709  66.9960710 122.1966328  74.0138487  67.9177781 122.1950658
  73.7405749  66.5991145 122.8866792  79.2166897  80.1011497 114.9756413
  79.3903775  79.5357920 114.2230266  79.7095789  80.9012392 114.7935903
  65.0343857  72.1126166 123.0419972  64.4897325  72.8885974 123.1740247
  65.9123207  72.4596971 122.8839094  71.8231474  65.4437750 115.4200771
  71.9447385  64.5154397 115.6191658  71.5333516  65.4576436 114.5079086
  74.6922664  63.1292661 118.5567491  74.7144361  63.1931994 117.6019470
  75.1090723  62.2897169 118.7507997  85.0706289  72.8647920 116.5946713
  85.5137435  72.1155246 116.1965836  84.1932799  72.8558057 116.2120445
  80.2042070  79.4178262 112.0753312  80.8992975  80.0384954 112.2940626
  80.5465220  78.5673613 112.3505690  65.8209879  71.2396063 125.9350129
  65.0791615  71.3878698 126.5214759  65.5002623  71.5004328 125.0716878
  82.1033493  76.8677967 113.6040642  82.6284817  77.2065240 112.8789962
  82.0155846  75.9324983 113.4203777  73.7653542  80.7812041 125.7330519
  74.0740668  80.5361188 126.6053219  74.5629024  80.9858679 125.2449389
  73.7874154  82.9349951 117.9635896  73.3479144  82.4426329 118.6568752
  74.5382271  82.3922918 117.7227971  66.2666493  79.1261491 117.9660524
  67.0924513  78.8265263 117.5859167  65.9160545  78.3569114 118.4150312
  71.2348026  78.4787960 120.0358197  70.6128035  77.8158665 119.7360425
  71.9052893  78.5049092 119.3531845  64.4675098  77.0447818 118.9249457
  63.6307006  76.6169992 118.7433459  64.4398743  77.2380261 119.8620248
  71.3072553  66.9569748 129.6290703  71.3560709  67.8331871 129.2468473
  71.8495068  66.4147141 129.0562347  81.7927399  77.5010871 128.9091840
  81.0022943  77.4835010 128.3696340  81.5560754  78.0399165 129.6640877
  81.9125274  74.3503337 126.2224569  81.9623279  74.1853345 127.1640092
  81.8039198  73.4830596 125.8322450  70.7961533  77.0291883 113.5116658
  70.9449653  77.7127347 112.8583331  71.6027976  77.0096973 114.0266114
  79.2029037  70.3334265 127.5383876  80.1038899  70.1940730 127.2467873
  79.2777011  70.4988720 128.4782053  73.5371842  67.7101120 126.3837062
  72.6675151  68.0034686 126.1119650  73.7731322  68.2941565 127.1044326
  83.4143471  76.7700279 126.4666590  83.1228279  77.1330259 127.3030051
  82.8015602  76.0567287 126.2879923  84.6139153  74.3353159 118.9869161
  85.4486045  74.7742963 119.1506721  84.7498282  73.8591812 118.1677406
  81.6630659  71.8932893 124.9346648  82.1384781  72.0860540 124.1265500
  80.7396225  71.9492079 124.6890032  68.5514166  73.0557061 114.5177727
  68.3060208  72.1519391 114.7157937  68.7210080  73.0574211 113.5757205
  76.2410876  63.9280737 123.9002482  76.7592820  64.6641764 123.5748971
  75.8866009  64.2344730 124.7349241  67.8209813  68.7885418 112.0163888
  67.1279058  68.8629773 111.3603924  67.5761565  68.0245762 112.5385405
  76.4923470  60.3481020 119.4203379  76.7725224  59.6804209 120.0463805
  77.2774077  60.5410115 118.9078043  74.2956938  79.5240013 110.9828405
  73.7230906  80.1430201 110.5298877  74.8689732  80.0739375 111.5168327
  80.3632328  68.7698654 123.1674954  81.3149751  68.8696751 123.1887178
  80.1935779  67.9776922 123.6773038  78.3846708  65.8554237 123.3534355
  77.7896640  66.1359250 122.6580844  78.0996404  66.3448138 124.1251096
  77.5154198  79.8077164 112.1136988  78.4484871  79.7422725 112.3169863
  77.4277411  80.6433430 111.6551520  80.1442215  79.1243034 109.0740935
  80.0655846  78.7902898 109.9676693  80.9651882  79.6164802 109.0732407
  82.8420406  71.9904773 122.2817254  82.8096726  71.0520774 122.4676938
  83.4521030  72.0688810 121.5483079  82.9914895  68.7815817 122.3275537
  82.4753943  67.9974273 122.1405466  83.8754843  68.4534533 122.4922056
  80.6525621  62.5256832 118.2871350  80.4550443  62.2171920 119.1714682
  81.2625327  63.2518471 118.4169279  88.6596956  73.0520780 121.4223290
  89.3900344  72.7906068 121.9830994  88.0503901  72.3149502 121.4625358
  86.7412253  71.1928643 122.0197742  86.0145417  71.0584608 121.4114233
  86.3259540  71.5005471 122.8254460  74.5642429  74.9118572 129.7845115
  75.4845439  75.0897171 129.9785161  74.5292012  73.9674618 129.6324814
  63.7824594  70.1057166 118.7098389  63.4627379  69.2522474 118.4172763
  63.2358023  70.3205744 119.4656357  67.5604502  72.8219607 122.4267896
  67.7790512  73.7536715 122.4455930  67.9730276  72.4627581 123.2122700
  74.4808720  63.3287692 114.4143584  73.6709448  62.9834777 114.7898830
  75.1693137  63.0195236 115.0031196  76.4099268  62.4065739 116.0367881
  76.9630307  62.8261193 116.6957904  76.6469354  61.4801487 116.0790837
  72.4332367  68.3952813 131.8170645  72.3329094  69.3447170 131.7482736
  72.2153909  68.0671052 130.9446715  71.6345439  65.6437738 108.4011322
  72.4964603  65.9692636 108.6607139  71.8195783  64.8569234 107.8884388
  63.6512854  73.7260078 120.6791511  62.9576326  73.3114030 120.1661465
  64.3985845  73.7680614 120.0824930  79.7878075  64.5166264 115.5446545
  79.2076744  65.1751068 115.1624598  79.5214008  63.6943609 115.1333963
  78.2381642  63.9171322 117.7467865  78.7381420  64.0287857 116.9382184
  78.8817249  63.6132375 118.3868674  72.2963637  71.8249952 130.6335706
  71.8130719  72.6250312 130.8399595  72.3824576  71.8357897 129.6803150
  65.5649597  73.6578331 118.5557526  65.5420285  73.7566019 117.6039409
  65.8750233  74.5043482 118.8774692  68.2236975  75.7154486 122.6704140
  69.1780228  75.6838429 122.6034072  68.0249498  75.2545110 123.4854366
  68.8136357  74.2855602 125.2374938  69.6329246  74.7799681 125.2609775
  69.0873165  73.3687571 125.2092505  78.5702953  66.6766355 114.6002893
  77.6828808  66.9616005 114.3823088  78.9856942  66.5160118 113.7530170
  81.9217489  66.7012876 118.3157233  82.6977879  67.1909328 118.5881849
  81.1965623  67.1270930 118.7729102  84.3590048  67.4140495 119.3731173
  84.9534539  67.1736231 118.6624482  84.4316632  66.6947625 120.0004710
  66.5787204  81.2574106 119.6874338  66.4441672  80.4974507 119.1212336
  66.1619266  81.9815006 119.2203127  77.7146167  76.4411029 108.6950913
  78.4182017  76.6461032 109.3108569  76.9908815  77.0087791 108.9599997
  78.5443977  72.1920891 114.8153184  78.4879178  72.6489442 113.9760816
  79.0972319  71.4311575 114.6376026  82.3548783  67.9810622 115.6403303
  82.0985717  67.5807258 116.4711511  81.7301651  68.6954416 115.5153442
  86.6661121  70.7206696 118.1474594  86.1060679  70.7899885 118.9206157
  86.0604624  70.5447680 117.4274091  69.7356330  82.1543423 119.8992781
  69.6188714  83.0988855 119.7971471  68.9148776  81.8516984 120.2878580
  79.6232864  76.8793559 110.7449373  80.4578468  76.4474757 110.5626848
  79.4617207  76.7075572 111.6726268  79.2778756  73.3825672 112.1105713
  79.2227560  73.2169943 111.1694157  78.6524812  74.0901705 112.2667902
  64.0671271  68.6193736 125.9367135  64.7130135  68.1092690 126.4254360
  63.8588422  69.3562418 126.5110560  76.5924663  75.6874584 131.4359276
  77.4615823  75.8615236 131.0745910  76.1131415  76.5069001 131.3135005
  72.5874882  62.8833781 111.6891031  72.5753552  63.8275621 111.8459302
  73.4798304  62.7003926 111.3950492  70.7610844  82.8071685 123.1148709
  71.6638090  82.8395295 123.4315204  70.5348214  81.8772136 123.1295045
  72.5164446  81.5602671 119.7758788  71.5660077  81.5604533 119.6623160
  72.8196932  80.8135406 119.2594822  76.4027001  59.4776558 115.9436968
  75.6359397  58.9235044 116.0893650  76.8137706  59.5498426 116.8051120
  68.4068762  65.7661353 130.0342149  69.2700224  65.4098158 130.2445474
  67.8334173  65.4275248 130.7217553  88.2517139  87.3963210 120.8404550
  88.8895549  87.2769957 120.1367890  88.1337982  88.3444054 120.8992502
  85.0606845  87.3490638 120.7766075  84.7225357  87.2331702 119.8886610
  85.9296614  86.9481803 120.7567081  80.9193661  89.2026114 116.7662966
  80.3558526  89.1116051 115.9979254  80.8046056  88.3826019 117.2465458
  85.5426628  88.5025490 126.7352280  85.5315269  88.1078288 125.8632784
  85.7047268  87.7691562 127.3286052  78.4658093  90.6977306 119.6047186
  79.2579385  90.3568130 119.1893486  78.7054743  90.8072281 120.5249340
  80.4248847  89.9586219 112.4764565  81.1979723  89.4115206 112.3377441
  80.7774246  90.8230468 112.6879026  82.2633890  91.2862601 125.6831464
  81.9723756  92.1908232 125.5678131  82.8990874  91.3279129 126.3975534
  83.1890096  88.6639450 122.2732824  83.7853669  88.4395472 121.5589787
  83.2465068  87.9224195 122.8758272  82.7615125  86.1178885 110.1083015
  83.0140646  85.5960406 109.3466478  81.8239684  85.9545031 110.2109699
  87.8058408  85.1214664 117.9157758  88.5921497  84.7034087 117.5648175
  88.0697112  86.0260756 118.0839407  87.9768485  90.5587514 112.6146415
  87.3414318  90.6322140 113.3267320  87.6465891  91.1481113 111.9365494
  93.2066835  85.0589897 118.8190737  93.9392007  84.4889114 119.0528566
  92.4506190  84.6711497 119.2597242  82.4811414  88.0206991 112.3107390
  82.3647672  87.3451895 112.9788474  82.5913673  87.5339365 111.4939543
  84.8242954  87.4817138 116.0154079  84.4601162  86.9547759 116.7267001
  85.6810070  87.0915607 115.8420565  90.7292255  78.7711471 123.2785345
  90.3975580  79.6406882 123.0546560  90.1337869  78.4547755 123.9579376
  84.4648441  82.5107038 111.0115428  84.6322844  83.3787274 111.3785899
  84.2745611  82.6734320 110.0876717  87.2223775  90.9724017 122.6781258
  86.9224498  91.8749056 122.5697065  86.8774834  90.7056200 123.5302411
  80.6736256  87.4237814 118.7117963  79.7486753  87.2914028 118.9195654
  80.9220669  88.2032033 119.2087905  90.6220918  83.4906557 120.3578695
  89.7137796  83.4221965 120.0637456  90.5708514  83.9678502 121.1860521
  84.4437662  84.9664695 111.9962095  84.3237288  85.4121746 112.8347575
  83.7490251  85.3150013 111.4375633  78.0345067  87.0671087 119.5461752
  78.1637448  87.3205566 120.4601163  77.3542518  87.6598795 119.2266407
  82.2044554  97.7368337 115.6452226  82.1268584  98.6876162 115.7240706
  81.6006198  97.3914210 116.3027152  84.6961784  84.9096203 128.3013593
  83.9195118  85.4690123 128.2916457  85.3352347  85.3952986 128.8228463
  92.4882565  81.6922995 122.1356569  91.8456945  81.9855529 121.4896364
  91.9837493  81.5775916 122.9409766  90.1422729  85.4386169 112.8242429
  91.0540585  85.6713555 112.6490126  89.6332376  86.0223213 112.2617507
  82.9508157  87.7181656 127.8631560  83.6922841  88.2566700 127.5866383
  82.2445142  88.3447945 128.0203111  88.4263496  89.8610796 126.4603721
  88.8346852  89.4193207 125.7158354  87.7040758  89.2863424 126.7137914
  84.7794566  84.7983403 123.8337278  85.6255761  85.2222817 123.9771927
  84.7193204  84.1417028 124.5275841  88.7492311  90.4211987 120.2156010
  88.1201173  90.5857701 119.5132078  88.3617973  90.8353597 120.9866974
  87.9294012  82.4587772 125.4918452  87.6854943  83.2129832 124.9552727
  88.2053942  82.8373119 126.3265699  89.8832474  89.0026384 124.1695717
  90.0949370  89.6458144 123.4930098  89.8362223  88.1688700 123.7017647
  87.4858703  81.6144205 121.0732289  86.6243182  81.9125458 121.3649027
  87.5121138  81.8314603 120.1413322  84.3020273  90.1586395 117.4806095
  84.7658618  90.4374098 116.6910718  84.0377071  89.2569840 117.2979186
  81.1944354  89.7057877 120.4185858  81.7645711  90.1345145 119.7803343
  81.7852466  89.4240461 121.1170044  83.2389159  86.2809548 114.2895660
  83.9413202  86.7330591 114.7569587  82.9069787  85.6393366 114.9175553
  81.6869520  84.8721304 128.6646870  81.0568181  85.5537585 128.8982267
  81.5805608  84.7604386 127.7200008  76.9814493  84.5393100 119.5912794
  76.1913547  84.7950629 119.1152904  77.4725740  85.3541438 119.6964834
  90.9978302  91.8798339 122.3418075  91.8195746  91.4778527 122.0600756
  90.9940705  91.7766574 123.2934190  78.9329238  84.9037679 116.5496271
  78.1360401  85.0156374 117.0679766  78.7054830  85.2424332 115.6837161
  84.7634906  91.4282383 124.4978785  84.8279338  91.8902790 125.3336957
  84.0545830  90.7979748 124.6261095  75.2652196  84.7923591 122.0227785
  75.5160234  85.6770601 122.2885361  75.8011744  84.6128192 121.2502876
  99.0884295  88.2237088 118.6903046  98.3348004  87.6544486 118.5347051
  99.2231837  88.1899752 119.6373681  84.4782923  93.0950490 114.3657766
  84.3428598  93.9402026 114.7942613  85.0192736  93.2969768 113.6023699
  80.9650263  79.1742070 131.0272121  80.5717209  78.6208269 131.7019765
  81.7816403  79.4852648 131.4178638  77.9312321  90.6125928 114.9385691
  78.4436841  91.4069178 115.0891255  78.5835034  89.9152219 114.8719292
  79.7407205  93.7291684 117.0208444  79.9173834  94.6509649 116.8329428
  80.5364039  93.4150104 117.4502824  83.8818224  80.5899949 128.6192377
  84.6227937  81.1907102 128.5396840  84.1136147  79.8477587 128.0610420
  79.0259562  85.7756316 126.8970607  78.9113077  84.8741574 127.1977706
  78.1704080  86.0220013 126.5455424  86.1051400  93.7174057 128.4958108
  85.6615254  92.9310435 128.1779012  86.7668613  93.9053207 127.8301998
  80.8638521  95.2469858 123.0218786  81.4145946  95.1186922 122.2495780
  80.0249997  95.5464747 122.6713679  88.2032638  93.9976857 126.5239509
  88.1851113  94.8185738 126.0319778  89.1252558  93.8730932 126.7489650
  84.6605692  91.5120986 127.3663017  85.1934029  90.7509274 127.1362325
  84.1319773  91.2194638 128.1087172  87.8275387  76.6181052 122.8956659
  87.4839656  77.5082694 122.8195770  88.1954350  76.4282710 122.0326244
  75.8961238  88.9414582 115.7145261  76.7336460  89.3511591 115.4978969
  76.0739505  88.0014025 115.6845455  87.7925670  86.6089663 111.4029094
  87.2772293  87.3794268 111.6417481  87.5202978  85.9354799 112.0262156
  85.3772781  81.4539364 116.4614332  84.5214377  81.0646214 116.2819971
  85.7899732  81.5331325 115.6014118  86.9071927  78.9885707 120.8605892
  86.4036723  78.9515842 120.0473698  87.2002534  79.8978450 120.9202549
  83.1514813  79.0724437 119.8672074  84.0167810  78.8767246 119.5077963
  83.2192322  78.8434789 120.7941431  87.5811973  84.4816755 113.2288875
  87.2762108  84.7962904 114.0799018  88.5342415  84.5598175 113.2716208
  86.0258405  90.6406979 114.8781829  85.4979766  89.9059738 114.5655067
  85.5245907  91.4181655 114.6321798  91.0051251  88.8355999 119.9948876
  90.3474925  89.5255260 120.0829004  91.8091650  89.2252431 120.3382862
  80.7577132  81.3026645 117.2388441  81.3320884  81.0801826 116.5061634
  81.3448115  81.3715339 117.9917042  89.8156709  87.1900372 118.0452817
  90.3288591  87.8230364 118.5474527  90.4657933  86.5901567 117.6796177
  81.0846719  83.3331106 111.2584326  80.2484032  83.6705792 111.5793601
  80.9451489  83.1980086 110.3211463  83.0599800  78.1767894 115.9663510
  82.4064212  77.8616911 115.3420125  83.0180274  77.5543634 116.6923333
  84.1711005  88.4587189 107.8816802  83.2638067  88.2276442 108.0807951
  84.6682037  87.6624808 108.0690784  86.2937540  84.6649827 120.2911158
  85.3760102  84.8864774 120.1332846  86.7097684  84.7396138 119.4322865
  87.0772588  86.0641243 115.4213838  87.8244407  86.5762640 115.1120960
  87.3464178  85.7425296 116.2818232  89.5251425  83.0998359 117.4032627
  88.7874182  82.5875745 117.7342870  89.7778199  82.6598741 116.5915904
  89.6263053  75.8774611 117.9974397  89.9321929  75.0171975 117.7100312
  90.3515657  76.4692231 117.7973391  75.9187409  86.2805298 116.3855995
  75.7211808  85.6874658 115.6607061  75.3634073  85.9757508 117.1031933
  83.8984132  86.1728404 118.5050588  83.9532742  85.2202241 118.4293064
  83.0875334  86.3287843 118.9891886  85.0475326  90.1008527 109.7428871
  84.6094756  89.3844386 109.2834508  85.7885767  90.3284642 109.1813962
  81.8376492  84.7905464 116.2640967  81.0244358  85.0899635 116.6706159
  82.3335486  84.3961153 116.9815449  83.9885070  94.7863221 118.1975231
  83.9461249  95.0124067 117.2683763  84.9047769  94.5526596 118.3461032
  87.4350704  85.2547288 125.0955860  87.7900092  85.4818762 125.9550326
  88.0822835  85.5865665 124.4733116  93.1648441  88.3765724 115.8005190
  93.0266339  88.5667320 114.8726379  92.8084660  89.1385107 116.2573241
  81.3290567  82.3623820 121.8802202  81.9689946  82.2212579 121.1825165
  80.4968098  82.0758333 121.5040804  93.1917820  90.4442251 120.8116461
  93.6254327  90.3517540 121.6599515  93.9049401  90.4199752 120.1736477
  82.1050871  91.6626250 117.9937194  82.8991469  91.1676570 117.7919769
  81.3942563  91.1344113 117.6304900  86.9245715  94.0444345 122.3449562
  86.9782738  94.6135282 123.1127278  86.0560497  94.2146231 121.9803599
  78.4133634  85.8069332 114.0696947  77.4831222  85.7453787 114.2866909
  78.5091106  85.2845284 113.2733588  78.3319183  82.3324145 116.6575188
  78.5926001  83.2469478 116.5484349  79.1536356  81.8648587 116.8071801
  79.8044109  83.7461902 123.8274013  80.4767162  83.5379264 123.1786662
  78.9773895  83.5483988 123.3879245  94.0533370  90.4865952 123.3449346
  94.2469260  91.3911763 123.5908621  93.9533988  90.0273371 124.1787931
  85.7069681  80.3723843 125.8439674  85.0597596  81.0713792 125.7504150
  86.4770696  80.8059987 126.2115922  89.1148479  90.6372695 128.9190227
  88.9633985  90.4083246 128.0020311  89.1053158  91.5943296 128.9321572
  85.8833815  88.2104608 123.9036493  86.8125875  88.3615767 123.7305461
  85.4624845  88.2988628 123.0485140  84.6822147  92.2355272 121.6735031
  84.5433233  91.8674056 122.5460969  83.8936743  92.7502911 121.5018989
  85.2770299  97.3364368 113.0160568  85.4522055  96.8652412 113.8306190
  84.5903087  97.9630135 113.2441828  86.2327362  91.6136875 119.0623869
  85.8977195  91.5737645 119.9581519  85.7331308  90.9481591 118.5894279
  80.2071606  87.0204505 124.5876450  80.0691404  86.2884743 125.1887989
  81.1176529  86.9313405 124.3060638  89.1686554  88.9592909 109.3360929
  88.5515724  88.2339737 109.2393981  88.7003042  89.7202269 108.9928003
  82.8353907  86.7324464 124.0760130  83.5453525  86.0917656 124.0346748
  82.7923215  86.9837359 124.9986310  90.8240685  93.6691817 126.9966709
  90.7653232  92.9851037 126.3297292  91.2260204  94.4110807 126.5447335
  81.5482841  83.7189682 125.8955769  81.0120198  83.2680420 126.5477365
  80.9599549  83.8535591 125.1526234  79.8431384 100.4853731 119.7900428
  80.0827982 101.1172255 120.4679446  79.0000581 100.1341771 120.0765787
  80.9585100  83.1778333 108.4582233  80.0814566  83.0567134 108.0944479
  81.4342853  82.3864412 108.2061121  90.8258093  91.6331401 125.2280689
  89.9384871  91.2957323 125.3507087  91.3956644  90.9014433 125.4649454
  72.4787240  87.9655493 118.5523740  73.1658280  87.6517223 117.9644755
  72.3235368  88.8696858 118.2790991  77.2821962  82.8545690 122.9808764
  77.1980151  82.2471359 122.2459174  76.4604668  83.3454708 122.9818260
  84.3559246  96.2932854 122.1941932  84.2829418  97.0987825 122.7061236
  83.9136639  96.4924819 121.3689953  84.1449026  95.5304624 115.7044753
  83.3616548  96.0726304 115.7982978  84.8441771  96.0478603 116.1038994
  87.4545676  81.3399253 118.3478959  87.9514375  80.5869215 118.0280029
  86.6832657  81.3763570 117.7822168  95.3075433  87.0439619 119.9897250
  95.2965309  87.9264334 119.6191183  94.4392813  86.6911169 119.7951787
  86.8157930  96.1919688 124.3500090  87.5285902  96.8267152 124.2775992
  86.3247958  96.2883554 123.5340092  88.5375456  90.0970940 115.9217382
  87.6031735  90.2172403 115.7522086  88.7152125  89.1943407 115.6577392
  84.0380645  83.4816636 118.0750643  83.6678432  82.9287676 118.7631549
  84.5339737  82.8774770 117.5225643  91.9248008  85.9388260 116.4567416
  92.3908460  86.7716251 116.3827719  92.3755508  85.4733241 117.1612675
  81.8669843  93.9414131 125.1705661  82.5679303  94.5750614 125.3235055
  81.3964958  94.2828863 124.4101301  89.8964671  78.3068847 120.4958318
  88.9827750  78.5373073 120.6640525  90.3257772  78.3907291 121.3472350
  89.6671129  86.4958739 122.9958212  89.0142579  86.7434646 122.3410664
  90.0451509  85.6822877 122.6620689  86.6278303  96.5318432 117.0986382
  86.8100697  95.7140088 117.5614134  87.4511289  96.7486124 116.6611272
  86.9620468  95.4586617 114.3601430  87.4908235  94.9479071 113.7471592
  87.2248688  95.1429147 115.2246963  85.7158702  87.2378550 129.4824249
  85.0399339  87.1372679 130.1526624  86.5386336  87.0817763 129.9460246
  77.4637561  93.4750486 122.1036764  78.0490998  92.7294174 122.2364668
  77.2662400  93.7854443 122.9873428  80.3176216  96.5101734 117.1199206
  79.6486592  96.9947861 116.6363246  80.1789086  96.7570954 118.0342585
  72.0555216  86.0456086 120.8241207  72.0939315  85.5119677 121.6178325
  71.5495509  85.5191292 120.2052184  84.4581485  98.5445477 123.7181865
  85.0099793  98.7077099 124.4830950  84.7987678  99.1349915 123.0461890
  79.4345978  80.8920627 124.3203749  79.4987305  81.7535458 123.9081147
  79.3713098  80.2794629 123.5876108  78.9098251  82.9643759 127.9676784
  79.5370290  82.5820837 128.5814308  78.0526170  82.7457961 128.3332476
  89.3092359  93.3706735 129.5730519  89.8532263  93.9836693 129.0785474
  88.7279204  93.9286313 130.0897532  75.6863793  84.7720189 113.8995138
  75.9817235  83.8630867 113.8462192  74.7851829  84.7507928 113.5776141
  87.5949872  96.4927453 120.7045547  87.4701012  95.6917192 120.1956492
  88.2528963  96.9873646 120.2159517  79.2158040  82.8476185 119.8822687
  78.4944626  83.4612153 119.7430160  80.0051296  83.3833950 119.8039333
  89.6584781  94.2936473 122.3325097  88.7115116  94.1741824 122.2603424
  90.0067554  93.4058971 122.4151358  82.0184354  80.1830612 126.1563339
  82.5418756  80.4292908 126.9189648  81.7996687  81.0150646 125.7366476
  77.4151635  82.4534286 114.0234464  77.0864341  81.5731665 113.8409570
  77.7691006  82.3981955 114.9110853  86.6631214  94.0889189 118.5329449
  86.5156176  93.1605896 118.7137019  87.4884707  94.1109280 118.0486524
  80.5293458  82.7407256 114.3909941  80.8689531  83.2693177 113.6688550
  80.9765579  83.0787662 115.1668508  90.2665336  94.9117748 119.6194322
  91.1911883  94.7060609 119.4818773  90.0980639  94.6634149 120.5283663
  83.2236899  81.1244307 123.8413009  82.8833719  80.3252120 124.2433689
  82.5175905  81.4246018 123.2689843  83.8753371  78.2093619 122.2940332
  84.6979440  77.7354097 122.1719223  84.1191434  78.9884103 122.7939019
  82.5161605  81.2381878 112.5903234  83.2369968  81.6163130 112.0866951
  81.8926909  81.9570754 112.6938212  86.6592728  81.9427027 113.5261566
  86.8756343  82.8251664 113.2250395  86.1786795  81.5513240 112.7967208
  81.3991950  84.9012740 120.1032311  81.2536530  85.2153043 120.9956593
  80.9217153  85.5197640 119.5503210  83.2588332  81.8915288 120.1513201
  83.2449901  80.9956381 119.8145498  83.9760761  81.8985952 120.7851487
  85.1114463  82.3252628 122.1966328  84.8532241  83.2469699 122.1950658
  84.5799504  81.9283062 122.8866792  75.8737612  87.4418084 123.0419972
  75.3291080  88.2177892 123.1740247  76.7516962  87.7888889 122.8839094
  82.6625228  80.7729668 115.4200771  82.7841140  79.8446314 115.6191658
  82.3727271  80.7868354 114.5079086  85.5316419  78.4584578 118.5567491
  85.5538116  78.5223912 117.6019470  85.9484478  77.6189087 118.7507997
  95.9100043  88.1939838 116.5946713  96.3531189  87.4447163 116.1965836
  95.0326553  88.1849974 116.2120445  76.6603634  86.5687980 125.9350129
  75.9185370  86.7170616 126.5214759  76.3396378  86.8296246 125.0716878
  84.6047296  96.1103959 125.7330519  84.9134423  95.8653105 126.6053219
  85.4022778  96.3150597 125.2449389  84.6267908  98.2641868 117.9635896
  84.1872899  97.7718247 118.6568752  85.3776025  97.7214836 117.7227971
  77.1060247  94.4553409 117.9660524  77.9318267  94.1557181 117.5859167
  76.7554299  93.6861032 118.4150312  82.0741780  93.8079877 120.0358197
  81.4521790  93.1450582 119.7360425  82.7446647  93.8341009 119.3531845
  75.3068852  92.3739736 118.9249457  74.4700761  91.9461910 118.7433459
  75.2792498  92.5672179 119.8620248  82.1466308  82.2861665 129.6290703
  82.1954463  83.1623788 129.2468473  82.6888822  81.7439058 129.0562347
  92.6321154  92.8302789 128.9091840  91.8416697  92.8126928 128.3696340
  92.3954508  93.3691082 129.6640877  92.7519029  89.6795255 126.2224569
  92.8017034  89.5145262 127.1640092  92.6432952  88.8122514 125.8322450
  81.6355287  92.3583801 113.5116658  81.7843408  93.0419265 112.8583331
  82.4421731  92.3388891 114.0266114  90.0422791  85.6626183 127.5383876
  90.9432654  85.5232648 127.2467873  90.1170766  85.8280638 128.4782053
  84.3765596  83.0393038 126.3837062  83.5068906  83.3326604 126.1119650
  84.6125077  83.6233483 127.1044326  94.2537226  92.0992197 126.4666590
  93.9622034  92.4622177 127.3030051  93.6409357  91.3859205 126.2879923
  95.4532908  89.6645076 118.9869161  96.2879799  90.1034880 119.1506721
  95.5892037  89.1883730 118.1677406  92.5024414  87.2224811 124.9346648
  92.9778535  87.4152457 124.1265500  91.5789979  87.2783997 124.6890032
  79.3907920  88.3848978 114.5177727  79.1453962  87.4811308 114.7157937
  79.5603835  88.3866129 113.5757205  87.0804630  79.2572655 123.9002482
  87.5986574  79.9933682 123.5748971  86.7259763  79.5636648 124.7349241
  78.6603568  84.1177336 112.0163888  77.9672813  84.1921691 111.3603924
  78.4155320  83.3537680 112.5385405  87.3317224  75.6772937 119.4203379
  87.6118978  75.0096126 120.0463805  88.1167831  75.8702033 118.9078043
  91.2026083  84.0990571 123.1674954  92.1543506  84.1988669 123.1887178
  91.0329533  83.3068840 123.6773038  89.2240462  81.1846154 123.3534355
  88.6290394  81.4651167 122.6580844  88.9390159  81.6740055 124.1251096
  93.6814161  87.3196691 122.2817254  93.6490481  86.3812692 122.4676938
  94.2914784  87.3980728 121.5483079  85.5197491  86.1892744 108.3244458
  86.4656596  86.0598952 108.3932876  85.1411736  85.4507406 108.8013886
  93.8308649  84.1107734 122.3275537  93.3147698  83.3266191 122.1405466
  94.7148598  83.7826451 122.4922056  91.4919376  77.8548750 118.2871350
  91.2944197  77.5463838 119.1714682  92.1019082  78.5810389 118.4169279
  99.4990710  88.3812698 121.4223290 100.2294099  88.1197986 121.9830994
  98.8897656  87.6441420 121.4625358  97.5806008  86.5220560 122.0197742
  96.8539171  86.3876525 121.4114233  97.1653294  86.8297389 122.8254460
  85.4036184  90.2410490 129.7845115  86.3239193  90.4189089 129.9785161
  85.3685767  89.2966535 129.6324814  83.7040409  84.1142720 108.2599343
  82.7971864  83.8175833 108.3362057  83.9816390  83.8172538 107.3933629
  74.6218349  85.4349084 118.7098389  74.3021133  84.5814392 118.4172763
  74.0751777  85.6497662 119.4656357  78.3998256  88.1511525 122.4267896
  78.6184266  89.0828633 122.4455930  78.8124030  87.7919499 123.2122700
  85.3202474  78.6579610 114.4143584  84.5103203  78.3126695 114.7898830
  86.0086891  78.3487154 115.0031196  87.2493023  77.7357657 116.0367881
  87.8024061  78.1553110 116.6957904  87.4863109  76.8093405 116.0790837
  83.2726122  83.7244730 131.8170645  83.1722849  84.6739087 131.7482736
  83.0547664  83.3962969 130.9446715  82.4739193  80.9729656 108.4011322
  83.3358357  81.2984554 108.6607139  82.6589537  80.1861151 107.8884388
  74.4906609  89.0551995 120.6791511  73.7970080  88.6405948 120.1661465
  75.2379600  89.0972532 120.0824930  90.6271830  79.8458182 115.5446545
  90.0470499  80.5042986 115.1624598  90.3607762  79.0235527 115.1333963
  89.0775396  79.2463240 117.7467865  89.5775174  79.3579774 116.9382184
  89.7211004  78.9424293 118.3868674  83.1357392  87.1541869 130.6335706
  82.6524474  87.9542229 130.8399595  83.2218331  87.1649814 129.6803150
  76.4043351  88.9870249 118.5557526  76.3814040  89.0857936 117.6039409
  76.7143988  89.8335400 118.8774692  79.0630729  91.0446404 122.6704140
  80.0173983  91.0130346 122.6034072  78.8643253  90.5837028 123.4854366
  79.6530111  89.6147520 125.2374938  80.4723000  90.1091599 125.2609775
  79.9266919  88.6979488 125.2092505  89.4096708  82.0058272 114.6002893
  88.5222563  82.2907923 114.3823088  89.8250697  81.8452036 113.7530170
  92.7611244  82.0304793 118.3157233  93.5371634  82.5201246 118.5881849
  92.0359378  82.4562848 118.7729102  95.1983802  82.7432413 119.3731173
  95.7928293  82.5028149 118.6624482  95.2710386  82.0239543 120.0004710
  77.4180958  96.5866024 119.6874338  77.2835426  95.8266424 119.1212336
  77.0013020  97.3106923 119.2203127  88.5539921  91.7702947 108.6950913
  89.2575771  91.9752950 109.3108569  87.8302570  92.3379709 108.9599997
  89.3837731  87.5212808 114.8153184  89.3272933  87.9781360 113.9760816
  89.9366074  86.7603493 114.6376026  93.1942537  83.3102540 115.6403303
  92.9379472  82.9099176 116.4711511  92.5695405  84.0246334 115.5153442
  97.5054875  86.0498613 118.1474594  96.9454433  86.1191803 118.9206157
  96.8998379  85.8739598 117.4274091  80.5750084  97.4835341 119.8992781
  80.4582468  98.4280773 119.7971471  79.7542530  97.1808902 120.2878580
  90.1172511  88.7117590 112.1105713  90.0621315  88.5461861 111.1694157
  89.4918566  89.4193622 112.2667902  74.9065026  83.9485654 125.9367135
  75.5523889  83.4384608 126.4254360  74.6982177  84.6854336 126.5110560
  87.4318418  91.0166501 131.4359276  88.3009578  91.1907154 131.0745910
  86.9525169  91.8360918 131.3135005  83.4268636  78.2125699 111.6891031
  83.4147306  79.1567538 111.8459302  84.3192058  78.0295844 111.3950492
  81.6004598  98.1363602 123.1148709  82.5031845  98.1687213 123.4315204
  81.3741968  97.2064053 123.1295045  83.3558200  96.8894589 119.7758788
  82.4053831  96.8896451 119.6623160  83.6590686  96.1427324 119.2594822
  87.2420756  74.8068475 115.9436968  86.4753151  74.2526962 116.0893650
  87.6531461  74.8790344 116.8051120  79.2462517  81.0953271 130.0342149
  80.1093978  80.7390076 130.2445474  78.6727927  80.7567166 130.7217553
  96.3820383 103.8317407 126.7352280  96.3709024 103.4370205 125.8632784
  96.5441022 103.0983480 127.3286052  89.3051848 106.0269223 119.6047186
  90.0973139 105.6860048 119.1893486  89.5448498 106.1364199 120.5249340
  93.1027644 106.6154519 125.6831464  92.8117510 107.5200150 125.5678131
  93.7384628 106.6571047 126.3975534  94.0283851 103.9931368 122.2732824
  94.6247423 103.7687390 121.5589787  94.0858822 103.2516113 122.8758272
 101.5686010  94.1003389 123.2785345 101.2369334  94.9698799 123.0546560
 100.9731623  93.7839673 123.9579376  98.0617529 106.3015935 122.6781258
  97.7618252 107.2040973 122.5697065  97.7168589 106.0348118 123.5302411
  91.5130011 102.7529731 118.7117963  90.5880507 102.6205945 118.9195654
  91.7614424 103.5323951 119.2087905  88.8738822 102.3963005 119.5461752
  89.0031203 102.6497484 120.4601163  88.1936273 102.9890713 119.2266407
  95.5355539 100.2388120 128.3013593  94.7588873 100.7982040 128.2916457
  96.1746102 100.7244903 128.8228463  93.7901911 103.0473574 127.8631560
  94.5316595 103.5858618 127.5866383  93.0838896 103.6739862 128.0203111
  99.2657251 105.1902714 126.4603721  99.6740607 104.7485125 125.7158354
  98.5434512 104.6155342 126.7137914  95.6188321 100.1275321 123.8337278
  96.4649516 100.5514734 123.9771927  95.5586958  99.4708945 124.5275841
  98.7687766  97.7879689 125.4918452  98.5248698  98.5421750 124.9552727
  99.0447697  98.1665037 126.3265699 100.7226229 104.3318302 124.1695717
 100.9343124 104.9750061 123.4930098 100.6755977 103.4980618 123.7017647
  92.5263275 100.2013222 128.6646870  91.8961935 100.8829503 128.8982267
  92.4199363 100.0896303 127.7200008  87.8208247  99.8685018 119.5912794
  87.0307301 100.1242546 119.1152904  88.3119495 100.6833356 119.6964834
 101.8372057 107.2090257 122.3418075 102.6589500 106.8070444 122.0600756
 101.8334460 107.1058491 123.2934190  89.7722993 100.2329597 116.5496271
  88.9754156 100.3448291 117.0679766  89.5448585 100.5716249 115.6837161
  95.6028660 106.7574300 124.4978785  95.6673093 107.2194708 125.3336957
  94.8939584 106.1271665 124.6261095  86.1045950 100.1215508 122.0227785
  86.3553989 101.0062518 122.2885361  86.6405499  99.9420110 121.2502876
 109.9278050 103.5529006 118.6903046 109.1741758 102.9836404 118.5347051
 110.0625591 103.5191670 119.6373681  91.8044017  94.5033988 131.0272121
  91.4110963  93.9500186 131.7019765  92.6210158  94.8144566 131.4178638
  94.7211978  95.9191867 128.6192377  95.4621692  96.5199020 128.5396840
  94.9529901  95.1769505 128.0610420  89.8653316 101.1048234 126.8970607
  89.7506832 100.2033491 127.1977706  89.0097834 101.3511931 126.5455424
  96.9445154 109.0465974 128.4958108  96.5009008 108.2602353 128.1779012
  97.6062368 109.2345125 127.8301998  99.0426392 109.3268774 126.5239509
  99.0244868 110.1477655 126.0319778  99.9646312 109.2022849 126.7489650
  95.4999446 106.8412904 127.3663017  96.0327783 106.0801192 127.1362325
  94.9713528 106.5486556 128.1087172  98.6669141  91.9472970 122.8956659
  98.3233411  92.8374611 122.8195770  99.0348104  91.7574627 122.0326244
  97.7465682  94.3177625 120.8605892  97.2430477  94.2807760 120.0473698
  98.0396289  95.2270368 120.9202549  93.9908568  94.4016355 119.8672074
  94.8561564  94.2059163 119.5077963  94.0586077  94.1726706 120.7941431
  97.1331295  99.9941745 120.2911158  96.2153856 100.2156692 120.1332846
  97.5491438 100.0688055 119.4322865 100.4656807  91.2066529 117.9974397
 100.7715684  90.3463892 117.7100312 101.1909412  91.7984149 117.7973391
  86.7581163 101.6097215 116.3855995  86.5605563 101.0166576 115.6607061
  86.2027827 101.3049426 117.1031933  94.7377887 101.5020322 118.5050588
  94.7926497 100.5494158 118.4293064  93.9269089 101.6579761 118.9891886
  92.6770247 100.1197382 116.2640967  91.8638112 100.4191552 116.6706159
  93.1729241  99.7253070 116.9815449  98.2744458 100.5839206 125.0955860
  98.6293846 100.8110679 125.9550326  98.9216590 100.9157583 124.4733116
  92.1684322  97.6915737 121.8802202  92.8083701  97.5504496 121.1825165
  91.3361852  97.4050251 121.5040804  89.1712938  97.6616062 116.6575188
  89.4319755  98.5761395 116.5484349  89.9930110  97.1940505 116.8071801
  90.6437863  99.0753819 123.8274013  91.3160917  98.8671182 123.1786662
  89.8167650  98.8775905 123.3879245 104.8927125 105.8157870 123.3449346
 105.0863015 106.7203680 123.5908621 104.7927743 105.3565289 124.1787931
  96.5463435  95.7015760 125.8439674  95.8991350  96.4005710 125.7504150
  97.3164451  96.1351904 126.2115922  99.9542233 105.9664612 128.9190227
  99.8027740 105.7375164 128.0020311  99.9446913 106.9235214 128.9321572
  96.7227570 103.5396525 123.9036493  97.6519630 103.6907685 123.7305461
  96.3018600 103.6280546 123.0485140  91.0465361 102.3496422 124.5876450
  90.9085158 101.6176661 125.1887989  91.9570284 102.2605322 124.3060638
  93.6747661 102.0616382 124.0760130  94.3847280 101.4209574 124.0346748
  93.6316969 102.3129277 124.9986310 101.6634440 108.9983735 126.9966709
 101.6046986 108.3142955 126.3297292 102.0653958 109.7402725 126.5447335
  92.3876595  99.0481600 125.8955769  91.8513952  98.5972338 126.5477365
  91.7993304  99.1827508 125.1526234  90.6825139 115.8145649 119.7900428
  90.9221737 116.4464173 120.4679446  89.8394335 115.4633689 120.0765787
 101.6651847 106.9623319 125.2280689 100.7778626 106.6249241 125.3507087
 102.2350398 106.2306350 125.4649454  83.3180994 103.2947411 118.5523740
  84.0052034 102.9809141 117.9644755  83.1629123 104.1988775 118.2790991
  88.1215716  98.1837607 122.9808764  88.0373905  97.5763277 122.2459174
  87.2998423  98.6746626 122.9818260 106.1469188 102.3731536 119.9897250
 106.1359064 103.2556252 119.6191183 105.2786567 102.0203087 119.7951787
  97.6551684 111.5211605 124.3500090  98.3679656 112.1559070 124.2775992
  97.1641713 111.6175471 123.5340092  94.8774399  98.8108554 118.0750643
  94.5072187  98.2579594 118.7631549  95.3733491  98.2066687 117.5225643
  92.7063598 109.2706049 125.1705661  93.4073057 109.9042532 125.3235055
  92.2358713 109.6120780 124.4101301 100.5064884 101.8250656 122.9958212
  99.8536334 102.0726564 122.3410664 100.8845263 101.0114794 122.6620689
  96.5552457 102.5670467 129.4824249  95.8793094 102.4664597 130.1526624
  97.3780090 102.4109681 129.9460246  88.3031316 108.8042404 122.1036764
  88.8884752 108.0586092 122.2364668  88.1056154 109.1146361 122.9873428
  82.8948970 101.3748004 120.8241207  82.9333070 100.8411595 121.6178325
  82.3889263 100.8483210 120.2052184  95.2975239 113.8737395 123.7181865
  95.8493547 114.0369016 124.4830950  95.6381433 114.4641833 123.0461890
  90.2739733  96.2212545 124.3203749  90.3381059  97.0827375 123.9081147
  90.2106853  95.6086546 123.5876108  89.7492005  98.2935677 127.9676784
  90.3764044  97.9112754 128.5814308  88.8919924  98.0749879 128.3332476
 100.1486114 108.6998652 129.5730519 100.6926018 109.3128611 129.0785474
  99.5672959 109.2578231 130.0897532  86.5257548 100.1012106 113.8995138
  86.8210989  99.1922785 113.8462192  85.6245584 100.0799846 113.5776141
  90.0551795  98.1768103 119.8822687  89.3338381  98.7904070 119.7430160
  90.8445051  98.7125868 119.8039333 100.4978535 109.6228390 122.3325097
  99.5508871 109.5033742 122.2603424 100.8461308 108.7350888 122.4151358
  92.8578108  95.5122529 126.1563339  93.3812510  95.7584826 126.9189648
  92.6390442  96.3442564 125.7366476  94.0630654  96.4536224 123.8413009
  93.7227474  95.6544037 124.2433689  93.3569660  96.7537935 123.2689843
  92.2385704 100.2304657 120.1032311  92.0930285 100.5444961 120.9956593
  91.7610908 100.8489558 119.5503210  94.0982087  97.2207205 120.1513201
  94.0843656  96.3248299 119.8145498  94.8154515  97.2277869 120.7851487
  95.9508218  97.6544546 122.1966328  95.6925996  98.5761616 122.1950658
  95.4193258  97.2574980 122.8866792  86.7131366 102.7710002 123.0419972
  86.1684834 103.5469810 123.1740247  87.5910716 103.1180806 122.8839094
  96.3710173  93.7876496 118.5567491  96.3931870  93.8515829 117.6019470
  96.7878232  92.9481005 118.7507997  87.4997388 101.8979898 125.9350129
  86.7579124 102.0462533 126.5214759  87.1790132 102.1588164 125.0716878
  95.4441051 111.4395876 125.7330519  95.7528177 111.1945023 126.6053219
  96.2416533 111.6442515 125.2449389  92.9860062  97.6153583 129.6290703
  93.0348218  98.4915706 129.2468473  93.5282577  97.0730976 129.0562347
 103.4714908 108.1594706 128.9091840 102.6810452 108.1418845 128.3696340
 103.2348263 108.6983000 129.6640877 103.5912783 105.0087173 126.2224569
 103.6410788 104.8437180 127.1640092 103.4826707 104.1414432 125.8322450
 100.8816546 100.9918101 127.5383876 101.7826408 100.8524566 127.2467873
 100.9564520 101.1572556 128.4782053  95.2159351  98.3684955 126.3837062
  94.3462660  98.6618522 126.1119650  95.4518831  98.9525400 127.1044326
 105.0930980 107.4284114 126.4666590 104.8015788 107.7914095 127.3030051
 104.4803111 106.7151123 126.2879923 106.2926662 104.9936994 118.9869161
 107.1273554 105.4326798 119.1506721 106.4285791 104.5175647 118.1677406
 103.3418168 102.5516729 124.9346648 103.8172290 102.7444375 124.1265500
 102.4183734 102.6075915 124.6890032  97.9198385  94.5864572 123.9002482
  98.4380329  95.3225599 123.5748971  97.5653518  94.8928566 124.7349241
  98.1710979  91.0064855 119.4203379  98.4512733  90.3388044 120.0463805
  98.9561586  91.1993951 118.9078043 102.0419837  99.4282489 123.1674954
 102.9937260  99.5280587 123.1887178 101.8723288  98.6360757 123.6773038
 100.0634217  96.5138072 123.3534355  99.4684149  96.7943085 122.6580844
  99.7783913  97.0031973 124.1251096 104.5207915 102.6488609 122.2817254
 104.4884235 101.7104609 122.4676938 105.1308539 102.7272645 121.5483079
 110.3384465 103.7104615 121.4223290 111.0687853 103.4489904 121.9830994
 109.7291410 102.9733337 121.4625358  96.2429938 105.5702408 129.7845115
  97.1632948 105.7481007 129.9785161  96.2079521 104.6258453 129.6324814
  85.4612103 100.7641001 118.7098389  85.1414888  99.9106310 118.4172763
  84.9145532 100.9789580 119.4656357  89.2392011 103.4803442 122.4267896
  89.4578021 104.4120550 122.4455930  89.6517785 103.1211417 123.2122700
  94.1119876  99.0536648 131.8170645  94.0116603 100.0031005 131.7482736
  93.8941418  98.7254887 130.9446715  85.3300363 104.3843913 120.6791511
  84.6363835 103.9697866 120.1661465  86.0773354 104.4264449 120.0824930
  93.9751146 102.4833787 130.6335706  93.4918228 103.2834147 130.8399595
  94.0612085 102.4941732 129.6803150  87.2437106 104.3162167 118.5557526
  87.2207794 104.4149854 117.6039409  87.5537742 105.1627317 118.8774692
  89.9024484 106.3738322 122.6704140  90.8567737 106.3422264 122.6034072
  89.7037007 105.9128945 123.4854366  90.4923866 104.9439438 125.2374938
  91.3116755 105.4383516 125.2609775  90.7660674 104.0271406 125.2092505
  91.4143839 112.8127258 119.8992781  91.2976223 113.7572691 119.7971471
  90.5936285 112.5100820 120.2878580  85.7458780  99.2777572 125.9367135
  86.3917644  98.7676526 126.4254360  85.5375931 100.0146253 126.5110560
  98.2712172 106.3458419 131.4359276  99.1403332 106.5199071 131.0745910
  97.7918924 107.1652836 131.3135005  92.4398353 113.4655520 123.1148709
  93.3425599 113.4979130 123.4315204  92.2135723 112.5355971 123.1295045
  98.0814510  90.1360393 115.9436968  97.3146906  89.5818880 116.0893650
  98.4925215  90.2082262 116.8051120  90.0856271  96.4245189 130.0342149
  90.9487733  96.0681994 130.2445474  89.5121682  96.0859084 130.7217553
 107.2214137 119.1609325 126.7352280 107.2102778 118.7662123 125.8632784
 107.3834777 118.4275397 127.3286052 100.1445602 121.3561141 119.6047186
 100.9366894 121.0151966 119.1893486 100.3842252 121.4656116 120.5249340
 108.1780729 123.5280917 112.0777431 107.5268709 124.1134998 111.6911445
 108.9725092 124.0587112 112.1372468 103.9421399 121.9446437 125.6831464
 103.6511265 122.8492068 125.5678131 104.5778383 121.9862964 126.3975534
 104.8677605 119.3223285 122.2732824 105.4641178 119.0979308 121.5589787
 104.9252577 118.5808031 122.8758272 109.6555994 121.2171349 112.6146415
 109.0201827 121.2905976 113.3267320 109.3253400 121.8064948 111.9365494
 114.8854344 115.7173732 118.8190737 115.6179516 115.1472949 119.0528566
 114.1293699 115.3295333 119.2597242 112.4079764 109.4295306 123.2785345
 112.0763089 110.2990717 123.0546560 111.8125377 109.1131590 123.9579376
 108.9011284 121.6307852 122.6781258 108.6012007 122.5332891 122.5697065
 108.5562343 121.3640035 123.5302411 102.3523765 118.0821649 118.7117963
 101.4274262 117.9497863 118.9195654 102.6008178 118.8615868 119.2087905
 112.3008427 114.1490392 120.3578695 111.3925305 114.0805801 120.0637456
 112.2496023 114.6262337 121.1860521  99.7132576 117.7254923 119.5461752
  99.8424957 117.9789402 120.4601163  99.0330027 118.3182631 119.2266407
 103.8832063 128.3952173 115.6452226 103.8056093 129.3459998 115.7240706
 103.2793707 128.0498045 116.3027152 106.3749293 115.5680038 128.3013593
 105.5982627 116.1273958 128.2916457 107.0139856 116.0536821 128.8228463
 114.1670074 112.3506831 122.1356569 113.5244454 112.6439364 121.4896364
 113.6625002 112.2359751 122.9409766 104.6295666 118.3765491 127.8631560
 105.3710350 118.9150535 127.5866383 103.9232651 119.0031780 128.0203111
 110.1051005 120.5194632 126.4603721 110.5134361 120.0777042 125.7158354
 109.3828267 119.9447259 126.7137914 106.4582075 115.4567239 123.8337278
 107.3043270 115.8806652 123.9771927 106.3980713 114.8000863 124.5275841
 110.4279820 121.0795822 120.2156010 109.7988682 121.2441537 119.5132078
 110.0405482 121.4937432 120.9866974 114.3069052 122.0150260 117.5700374
 113.6220090 122.3949162 117.0197407 114.3912901 122.6245587 118.3032322
 109.6081521 113.1171607 125.4918452 109.3642452 113.8713667 124.9552727
 109.8841451 113.4956955 126.3265699 111.5619983 119.6610219 124.1695717
 111.7736879 120.3041979 123.4930098 111.5149732 118.8272536 123.7017647
 105.9807782 120.8170230 117.4806095 106.4446127 121.0957933 116.6910718
 105.7164580 119.9153675 117.2979186 102.8731863 120.3641712 120.4185858
 103.4433220 120.7928980 119.7803343 103.4639975 120.0824297 121.1170044
 103.3657029 115.5305139 128.6646870 102.7355690 116.2121420 128.8982267
 103.2593117 115.4188221 127.7200008  98.6602002 115.1976936 119.5912794
  97.8701056 115.4534464 119.1152904  99.1513249 116.0125273 119.6964834
 112.6765811 122.5382175 122.3418075 113.4983255 122.1362362 122.0600756
 112.6728214 122.4350409 123.2934190 106.4422415 122.0866218 124.4978785
 106.5066847 122.5486625 125.3336957 105.7333339 121.4563583 124.6261095
  96.9439705 115.4507426 122.0227785  97.1947743 116.3354436 122.2885361
  97.4799253 115.2712028 121.2502876 120.7671804 118.8820923 118.6903046
 120.0135513 118.3128321 118.5347051 120.9019346 118.8483588 119.6373681
 106.1570432 123.7534325 114.3657766 106.0216107 124.5985861 114.7942613
 106.6980245 123.9553603 113.6023699 102.6437772 109.8325905 131.0272121
 102.2504718 109.2792104 131.7019765 103.4603912 110.1436484 131.4178638
 101.4194714 124.3875520 117.0208444 101.5961343 125.3093485 116.8329428
 102.2151548 124.0733939 117.4502824 105.5605733 111.2483784 128.6192377
 106.3015446 111.8490938 128.5396840 105.7923656 110.5061422 128.0610420
 100.7047071 116.4340152 126.8970607 100.5900586 115.5325409 127.1977706
  99.8491589 116.6803848 126.5455424 107.7838909 124.3757892 128.4958108
 107.3402763 123.5894271 128.1779012 108.4456122 124.5637043 127.8301998
 102.5426030 125.9053694 123.0218786 103.0933455 125.7770757 122.2495780
 101.7037506 126.2048583 122.6713679 109.8820147 124.6560692 126.5239509
 109.8638622 125.4769573 126.0319778 110.8040067 124.5314767 126.7489650
 106.3393201 122.1704821 127.3663017 106.8721538 121.4093110 127.1362325
 105.8107282 121.8778473 128.1087172 109.5062896 107.2764887 122.8956659
 109.1627165 108.1666529 122.8195770 109.8741859 107.0866545 122.0326244
  97.5748747 119.5998418 115.7145261  98.4123969 120.0095426 115.4978969
  97.7527014 118.6597860 115.6845455 108.5859436 109.6469543 120.8605892
 108.0824232 109.6099678 120.0473698 108.8790043 110.5562285 120.9202549
 107.7045914 121.2990814 114.8781829 107.1767275 120.5643573 114.5655067
 107.2033416 122.0765490 114.6321798 112.6838760 119.4939834 119.9948876
 112.0262434 120.1839096 120.0829004 113.4879159 119.8836266 120.3382862
 111.4944218 117.8484207 118.0452817 112.0076100 118.4814199 118.5474527
 112.1445442 117.2485403 117.6796177 108.7566593 127.8268531 110.8013488
 108.0828291 128.1300228 111.4098446 109.1432415 128.6297612 110.4518946
 112.2606015 122.8290209 116.1731960 111.8068342 121.9881118 116.2297150
 111.6299981 123.4651607 116.5106740 110.7038954 124.6666705 117.1081778
 110.9961928 125.2271762 116.3894144 111.2137575 124.9595266 117.8634937
 111.3050562 106.5358447 117.9974397 111.6109438 105.6755810 117.7100312
 112.0303166 107.1276067 117.7973391 105.6672579 125.4447056 118.1975231
 105.6248758 125.6707903 117.2683763 106.5835278 125.2110431 118.3461032
 109.1138213 115.9131124 125.0955860 109.4687601 116.1402597 125.9550326
 109.7610344 116.2449501 124.4733116 114.8435950 119.0349560 115.8005190
 114.7053848 119.2251156 114.8726379 114.4872169 119.7968943 116.2573241
 103.0078076 113.0207655 121.8802202 103.6477455 112.8796414 121.1825165
 102.1755607 112.7342168 121.5040804 114.8705329 121.1026087 120.8116461
 115.3041836 121.0101376 121.6599515 115.5836910 121.0783587 120.1736477
 103.7838380 122.3210085 117.9937194 104.5778978 121.8260405 117.7919769
 103.0730072 121.7927948 117.6304900 108.6033224 124.7028181 122.3449562
 108.6570247 125.2719117 123.1127278 107.7348006 124.8730066 121.9803599
 100.0106692 112.9907980 116.6575188 100.2713510 113.9053313 116.5484349
 100.8323865 112.5232422 116.8071801 101.4831618 114.4045737 123.8274013
 102.1554671 114.1963099 123.1786662 100.6561404 114.2067823 123.3879245
 115.7320879 121.1449787 123.3449346 115.9256769 122.0495598 123.5908621
 115.6321497 120.6857206 124.1787931 107.3857190 111.0307678 125.8439674
 106.7385105 111.7297628 125.7504150 108.1558205 111.4643822 126.2115922
 110.7935988 121.2956530 128.9190227 110.6421494 121.0667082 128.0020311
 110.7840667 122.2527132 128.9321572 107.5621324 118.8688443 123.9036493
 108.4913384 119.0199602 123.7305461 107.1412354 118.9572464 123.0485140
 106.3609656 122.8939107 121.6735031 106.2220742 122.5257892 122.5460969
 105.5724252 123.4086747 121.5018989 106.9557808 127.9948204 113.0160568
 107.1309564 127.5236247 113.8306190 106.2690596 128.6213970 113.2441828
 107.9114871 122.2720710 119.0623869 107.5764704 122.2321480 119.9581519
 107.4118817 121.6065426 118.5894279 101.8859115 117.6788340 124.5876450
 101.7478913 116.9468579 125.1887989 102.7964038 117.5897240 124.3060638
 104.5141416 117.3908299 124.0760130 105.2241034 116.7501492 124.0346748
 104.4710724 117.6421194 124.9986310 112.5028194 124.3275653 126.9966709
 112.4440741 123.6434873 126.3297292 112.9047713 125.0694643 126.5447335
 103.2270350 114.3773517 125.8955769 102.6907707 113.9264256 126.5477365
 102.6387058 114.5119426 125.1526234 101.5218893 131.1437567 119.7900428
 101.7615491 131.7756091 120.4679446 100.6788090 130.7925607 120.0765787
 112.5045602 122.2915237 125.2280689 111.6172380 121.9541158 125.3507087
 113.0744153 121.5598268 125.4649454  94.1574749 118.6239328 118.5523740
  94.8445789 118.3101058 117.9644755  94.0022877 119.5280693 118.2790991
  98.9609471 113.5129525 122.9808764  98.8767660 112.9055194 122.2459174
  98.1392177 114.0038543 122.9818260 106.0346755 126.9516689 122.1941932
 105.9616926 127.7571660 122.7061236 105.5924148 127.1508655 121.3689953
 105.8236535 126.1888459 115.7044753 105.0404057 126.7310139 115.7982978
 106.5229280 126.7062439 116.1038994 116.9862942 117.7023454 119.9897250
 116.9752818 118.5848169 119.6191183 116.1180322 117.3495005 119.7951787
 108.4945439 126.8503523 124.3500090 109.2073411 127.4850988 124.2775992
 108.0035467 126.9467389 123.5340092 110.2162965 120.7554776 115.9217382
 109.2819244 120.8756238 115.7522086 110.3939634 119.8527242 115.6577392
 113.6035517 116.5972095 116.4567416 114.0695969 117.4300087 116.3827719
 114.0543017 116.1317077 117.1612675 103.5457352 124.5997966 125.1705661
 104.2466812 125.2334449 125.3235055 103.0752467 124.9412698 124.4101301
 111.6711748 122.9415916 113.4553568 111.9471592 122.8272511 114.3647442
 110.8016247 122.5433401 113.4165741 111.5752180 108.9652682 120.4958318
 110.6615259 109.1956909 120.6640525 112.0045281 109.0491126 121.3472350
 111.3458638 117.1542574 122.9958212 110.6930088 117.4018481 122.3410664
 111.7239018 116.3406712 122.6620689 108.3065812 127.1902267 117.0986382
 108.4888206 126.3723923 117.5614134 109.1298798 127.4069959 116.6611272
 108.6407977 126.1170452 114.3601430 109.1695744 125.6062907 113.7471592
 108.9036197 125.8012982 115.2246963 107.3946211 117.8962385 129.4824249
 106.7186848 117.7956514 130.1526624 108.2173845 117.7401599 129.9460246
  99.1425070 124.1334322 122.1036764  99.7278507 123.3878009 122.2364668
  98.9449909 124.4438278 122.9873428 101.9963725 127.1685569 117.1199206
 101.3274101 127.6531697 116.6363246 101.8576595 127.4154789 118.0342585
  93.7342725 116.7039922 120.8241207  93.7726824 116.1703512 121.6178325
  93.2283018 116.1775127 120.2052184 106.1368994 129.2029312 123.7181865
 106.6887302 129.3660934 124.4830950 106.4775187 129.7933750 123.0461890
 101.1133487 111.5504462 124.3203749 101.1774814 112.4119293 123.9081147
 101.0500607 110.9378464 123.5876108 100.5885760 113.6227595 127.9676784
 101.2157799 113.2404672 128.5814308  99.7313679 113.4041797 128.3332476
 110.9879868 124.0290570 129.5730519 111.5319772 124.6420528 129.0785474
 110.4066713 124.5870148 130.0897532 109.2737381 127.1511288 120.7045547
 109.1488521 126.3501028 120.1956492 109.9316472 127.6457481 120.2159517
 100.8945549 113.5060020 119.8822687 100.1732135 114.1195988 119.7430160
 101.6838805 114.0417785 119.8039333 111.3372290 124.9520308 122.3325097
 110.3902625 124.8325659 122.2603424 111.6855063 124.0642806 122.4151358
 103.6971863 110.8414447 126.1563339 104.2206265 111.0876743 126.9189648
 103.4784196 111.6734482 125.7366476 108.3418723 124.7473024 118.5329449
 108.1943685 123.8189732 118.7137019 109.1672216 124.7693115 118.0486524
 111.9452845 125.5701583 119.6194322 112.8699392 125.3644444 119.4818773
 111.7768148 125.3217984 120.5283663 104.9024408 111.7828142 123.8413009
 104.5621228 110.9835955 124.2433689 104.1963414 112.0829853 123.2689843
 105.5540880 108.8677454 122.2940332 106.3766949 108.3937933 122.1719223
 105.7978943 109.6467938 122.7939019 111.7348161 126.0887250 114.9756413
 111.9085038 125.5233673 114.2230266 112.2277052 126.8888145 114.7935903
  97.5525121 118.1001920 123.0419972  97.0078589 118.8761727 123.1740247
  98.4304471 118.4472724 122.8839094 117.5887552 118.8523673 116.5946713
 118.0318698 118.1030999 116.1965836 116.7114062 118.8433810 116.2120445
 112.7223333 125.4054015 112.0753312 113.4174238 126.0260708 112.2940626
 113.0646484 124.5549366 112.3505690  98.3391143 117.2271816 125.9350129
  97.5972879 117.3754451 126.5214759  98.0183887 117.4880081 125.0716878
 114.6214757 122.8553720 113.6040642 115.1466081 123.1940993 112.8789962
 114.5337109 121.9200736 113.4203777 106.2834805 126.7687794 125.7330519
 106.5921932 126.5236941 126.6053219 107.0810287 126.9734432 125.2449389
 106.3055417 128.9225704 117.9635896 105.8660408 128.4302082 118.6568752
 107.0563534 128.3798671 117.7227971  98.7847756 125.1137245 117.9660524
  99.6105776 124.8141016 117.5859167  98.4341808 124.3444867 118.4150312
 103.7529289 124.4663713 120.0358197 103.1309299 123.8034418 119.7360425
 104.4234156 124.4924845 119.3531845  96.9856361 123.0323571 118.9249457
  96.1488270 122.6045745 118.7433459  96.9580007 123.2256014 119.8620248
 103.8253817 112.9445501 129.6290703 103.8741972 113.8207624 129.2468473
 104.3676331 112.4022894 129.0562347 114.3108663 123.4886624 128.9091840
 113.5204206 123.4710763 128.3696340 114.0742017 124.0274918 129.6640877
 114.4306538 120.3379090 126.2224569 114.4804543 120.1729098 127.1640092
 114.3220461 119.4706349 125.8322450 111.7210300 116.3210018 127.5383876
 112.6220163 116.1816483 127.2467873 111.7958275 116.4864473 128.4782053
 106.0553105 113.6976873 126.3837062 105.1856415 113.9910439 126.1119650
 106.2912586 114.2817318 127.1044326 115.9324735 122.7576032 126.4666590
 115.6409543 123.1206012 127.3030051 115.3196866 122.0443040 126.2879923
 117.1320417 120.3228912 118.9869161 117.9667308 120.7618716 119.1506721
 117.2679546 119.8467565 118.1677406 114.1811923 117.8808647 124.9346648
 114.6566044 118.0736293 124.1265500 113.2577488 117.9367832 124.6890032
 108.7592139 109.9156490 123.9002482 109.2774083 110.6517517 123.5748971
 108.4047272 110.2220483 124.7349241 109.0104733 106.3356773 119.4203379
 109.2906487 105.6679962 120.0463805 109.7955340 106.5285868 118.9078043
 106.8138202 125.5115767 110.9828405 106.2412169 126.1305954 110.5298877
 107.3870996 126.0615128 111.5168327 112.8813592 114.7574407 123.1674954
 113.8331015 114.8572504 123.1887178 112.7117042 113.9652675 123.6773038
 110.9027971 111.8429990 123.3534355 110.3077903 112.1235003 122.6580844
 110.6177668 112.3323891 124.1251096 110.0335462 125.7952917 112.1136988
 110.9666135 125.7298478 112.3169863 109.9458675 126.6309184 111.6551520
 112.6623478 125.1118787 109.0740935 112.5837110 124.7778651 109.9676693
 113.4833145 125.6040555 109.0732407 115.3601670 117.9780526 122.2817254
 115.3277990 117.0396527 122.4676938 115.9702293 118.0564563 121.5483079
 115.5096158 114.7691570 122.3275537 114.9935207 113.9850026 122.1405466
 116.3936107 114.4410286 122.4922056 113.1706885 108.5132585 118.2871350
 112.9731706 108.2047673 119.1714682 113.7806591 109.2394224 118.4169279
 121.1778219 119.0396533 121.4223290 121.9081608 118.7781821 121.9830994
 120.5685165 118.3025255 121.4625358 119.2593517 117.1804396 122.0197742
 118.5326680 117.0460361 121.4114233 118.8440803 117.4881224 122.8254460
 107.0823693 120.8994325 129.7845115 108.0026702 121.0772924 129.9785161
 107.0473276 119.9550371 129.6324814 100.0785765 118.8095360 122.4267896
 100.2971775 119.7412468 122.4455930 100.4911539 118.4503334 123.2122700
 108.9280532 108.3941492 116.0367881 109.4811570 108.8136946 116.6957904
 109.1650618 107.4677240 116.0790837 104.9513631 114.3828566 131.8170645
 104.8510358 115.3322923 131.7482736 104.7335173 114.0546805 130.9446715
  96.1694118 119.7135831 120.6791511  95.4757589 119.2989783 120.1661465
  96.9167109 119.7556367 120.0824930 112.3059339 110.5042017 115.5446545
 111.7258008 111.1626821 115.1624598 112.0395271 109.6819362 115.1333963
 110.7562905 109.9047075 117.7467865 111.2562683 110.0163610 116.9382184
 111.3998513 109.6008128 118.3868674 104.8144901 117.8125705 130.6335706
 104.3311983 118.6126065 130.8399595 104.9005840 117.8233650 129.6803150
  98.0830860 119.6454084 118.5557526  98.0601549 119.7441772 117.6039409
  98.3931497 120.4919235 118.8774692 100.7418238 121.7030239 122.6704140
 101.6961492 121.6714182 122.6034072 100.5430762 121.2420863 123.4854366
 101.3317620 120.2731355 125.2374938 102.1510509 120.7675434 125.2609775
 101.6054428 119.3563324 125.2092505 114.4398753 112.6888629 118.3157233
 115.2159143 113.1785081 118.5881849 113.7146887 113.1146683 118.7729102
 116.8771311 113.4016248 119.3731173 117.4715802 113.1611984 118.6624482
 116.9497895 112.6823378 120.0004710  99.0968467 127.2449859 119.6874338
  98.9622935 126.4850260 119.1212336  98.6800529 127.9690759 119.2203127
 110.2327430 122.4286782 108.6950913 110.9363280 122.6336785 109.3108569
 109.5090079 122.9963544 108.9599997 111.0625240 118.1796644 114.8153184
 111.0060442 118.6365195 113.9760816 111.6153583 117.4187328 114.6376026
 114.8730046 113.9686376 115.6403303 114.6166981 113.5683011 116.4711511
 114.2482914 114.6830169 115.5153442 119.1842384 116.7082449 118.1474594
 118.6241942 116.7775638 118.9206157 118.5785888 116.5323433 117.4274091
 102.2537593 128.1419176 119.8992781 102.1369977 129.0864608 119.7971471
 101.4330039 127.8392737 120.2878580 112.1414128 122.8669312 110.7449373
 112.9759731 122.4350510 110.5626848 111.9798470 122.6951325 111.6726268
  96.5852535 114.6069489 125.9367135  97.2311398 114.0968443 126.4254360
  96.3769686 115.3438171 126.5110560 109.1105927 121.6750337 131.4359276
 109.9797087 121.8490989 131.0745910 108.6312678 122.4944754 131.3135005
 103.2792107 128.7947438 123.1148709 104.1819354 128.8271048 123.4315204
 103.0529477 127.8647889 123.1295045 105.0345709 127.5478424 119.7758788
 104.0841340 127.5480286 119.6623160 105.3378195 126.8011159 119.2594822
 108.9208265 105.4652311 115.9436968 108.1540660 104.9110797 116.0893650
 109.3318970 105.5374179 116.8051120 100.9250026 111.7537106 130.0342149
 101.7881487 111.3973911 130.2445474 100.3515436 111.4151001 130.7217553
 120.7698403 133.3838963 120.8404550 121.4076813 133.2645710 120.1367890
 120.6519246 134.3319807 120.8992502 117.5788109 133.3366391 120.7766075
 117.2406620 133.2207456 119.8886610 118.4477877 132.9357556 120.7567081
 113.4374925 135.1901867 116.7662966 112.8739790 135.0991804 115.9979254
 113.3227320 134.3701772 117.2465458 118.0607892 134.4901243 126.7352280
 118.0496533 134.0954041 125.8632784 118.2228531 133.7567315 127.3286052
 110.9839357 136.6853059 119.6047186 111.7760648 136.3443883 119.1893486
 111.2236007 136.7948034 120.5249340 119.0174483 138.8572835 112.0777431
 118.3662463 139.4426915 111.6911445 119.8118846 139.3879030 112.1372468
 112.9430110 135.9461972 112.4764565 113.7160986 135.3990959 112.3377441
 113.2955509 136.8106221 112.6879026 114.7815153 137.2738354 125.6831464
 114.4905019 138.1783985 125.5678131 115.4172137 137.3154882 126.3975534
 115.7071360 134.6515203 122.2732824 116.3034932 134.4271225 121.5589787
 115.7646331 133.9099948 122.8758272 115.2796388 132.1054638 110.1083015
 115.5321909 131.5836159 109.3466478 114.3420947 131.9420784 110.2109699
 120.3239671 131.1090417 117.9157758 121.1102760 130.6909840 117.5648175
 120.5878375 132.0136509 118.0839407 120.4949748 136.5463267 112.6146415
 119.8595581 136.6197893 113.3267320 120.1647155 137.1356866 111.9365494
 125.7248098 131.0465650 118.8190737 126.4573270 130.4764867 119.0528566
 124.9687454 130.6587250 119.2597242 114.9992677 134.0082744 112.3107390
 114.8828935 133.3327648 112.9788474 115.1094937 133.5215118 111.4939543
 117.3424218 133.4692891 116.0154079 116.9782425 132.9423512 116.7267001
 118.1991334 133.0791360 115.8420565 123.2473519 124.7587224 123.2785345
 122.9156843 125.6282635 123.0546560 122.6519132 124.4423508 123.9579376
 116.9829705 128.4982791 111.0115428 117.1504107 129.3663027 111.3785899
 116.7926874 128.6610073 110.0876717 119.7405038 136.9599770 122.6781258
 119.4405761 137.8624809 122.5697065 119.3956098 136.6931953 123.5302411
 113.1917520 133.4113567 118.7117963 112.2668016 133.2789781 118.9195654
 113.4401933 134.1907786 119.2087905 123.1402182 129.4782310 120.3578695
 122.2319059 129.4097718 120.0637456 123.0889778 129.9554255 121.1860521
 116.9618926 130.9540448 111.9962095 116.8418551 131.3997499 112.8347575
 116.2671514 131.3025766 111.4375633 110.5526331 133.0546840 119.5461752
 110.6818712 133.3081319 120.4601163 109.8723782 133.6474548 119.2266407
 114.7225818 143.7244090 115.6452226 114.6449848 144.6751915 115.7240706
 114.1187462 143.3789963 116.3027152 117.2143048 130.8971956 128.3013593
 116.4376382 131.4565876 128.2916457 117.8533611 131.3828739 128.8228463
 125.0063828 127.6798748 122.1356569 124.3638209 127.9731282 121.4896364
 124.5018757 127.5651669 122.9409766 122.6603992 131.4261922 112.8242429
 123.5721848 131.6589308 112.6490126 122.1513639 132.0098966 112.2617507
 115.4689420 133.7057409 127.8631560 116.2104104 134.2442453 127.5866383
 114.7626405 134.3323698 128.0203111 120.9444760 135.8486549 126.4603721
 121.3528116 135.4068960 125.7158354 120.2222021 135.2739177 126.7137914
 117.2975830 130.7859156 123.8337278 118.1437025 131.2098570 123.9771927
 117.2374467 130.1292781 124.5275841 121.2673574 136.4087740 120.2156010
 120.6382437 136.5733454 119.5132078 120.8799236 136.8229350 120.9866974
 125.1462806 137.3442178 117.5700374 124.4613844 137.7241079 117.0197407
 125.2306655 137.9537505 118.3032322 120.4475275 128.4463525 125.4918452
 120.2036207 129.2005585 124.9552727 120.7235206 128.8248872 126.3265699
 122.4013738 134.9902137 124.1695717 122.6130633 135.6333897 123.4930098
 122.3543486 134.1564454 123.7017647 120.0039967 127.6019958 121.0732289
 119.1424446 127.9001211 121.3649027 120.0302401 127.8190357 120.1413322
 116.8201536 136.1462148 117.4806095 117.2839882 136.4249851 116.6910718
 116.5558334 135.2445593 117.2979186 113.7125617 135.6933630 120.4185858
 114.2826974 136.1220898 119.7803343 114.3033729 135.4116214 121.1170044
 115.7570422 132.2685301 114.2895660 116.4594466 132.7206344 114.7569587
 115.4251051 131.6269119 114.9175553 114.2050784 130.8597057 128.6646870
 113.5749444 131.5413338 128.8982267 114.0986872 130.7480139 127.7200008
 109.4995756 130.5268853 119.5912794 108.7094810 130.7826382 119.1152904
 109.9907004 131.3417191 119.6964834 123.5159566 137.8674092 122.3418075
 124.3377009 137.4654280 122.0600756 123.5121969 137.7642327 123.2934190
 111.4510502 130.8913432 116.5496271 110.6541665 131.0032127 117.0679766
 111.2236094 131.2300085 115.6837161 117.2816169 137.4158136 124.4978785
 117.3460602 137.8778543 125.3336957 116.5727093 136.7855501 124.6261095
 107.7833459 130.7799344 122.0227785 108.0341498 131.6646354 122.2885361
 108.3193008 130.6003945 121.2502876 131.6065559 134.2112841 118.6903046
 130.8529267 133.6420239 118.5347051 131.7413100 134.1775505 119.6373681
 116.9964187 139.0826243 114.3657766 116.8609862 139.9277779 114.7942613
 117.5373999 139.2845521 113.6023699 113.4831526 125.1617823 131.0272121
 113.0898472 124.6084022 131.7019765 114.2997667 125.4728401 131.4178638
 110.4493584 136.6001681 114.9385691 110.9618105 137.3944931 115.0891255
 111.1016297 135.9027972 114.8719292 112.2588469 139.7167437 117.0208444
 112.4355097 140.6385402 116.8329428 113.0545302 139.4025857 117.4502824
 116.3999487 126.5775702 128.6192377 117.1409201 127.1782855 128.5396840
 116.6317410 125.8353340 128.0610420 111.5440825 131.7632069 126.8970607
 111.4294341 130.8617327 127.1977706 110.6885343 132.0095766 126.5455424
 113.3819784 141.2345611 123.0218786 113.9327210 141.1062675 122.2495780
 112.5431260 141.5340500 122.6713679 117.1786955 137.4996739 127.3663017
 117.7115292 136.7385027 127.1362325 116.6501037 137.2070391 128.1087172
 120.3456650 122.6056805 122.8956659 120.0020920 123.4958447 122.8195770
 120.7135613 122.4158463 122.0326244 108.4142501 134.9290336 115.7145261
 109.2517723 135.3387344 115.4978969 108.5920769 133.9889778 115.6845455
 120.3106933 132.5965416 111.4029094 119.7953557 133.3670021 111.6417481
 120.0384242 131.9230552 112.0262156 117.8954044 127.4415117 116.4614332
 117.0395640 127.0521967 116.2819971 118.3080996 127.5207078 115.6014118
 119.4253191 124.9761460 120.8605892 118.9217986 124.9391595 120.0473698
 119.7183798 125.8854203 120.9202549 115.6696077 125.0600190 119.8672074
 116.5349073 124.8642999 119.5077963 115.7373586 124.8310542 120.7941431
 125.2841207 135.3497771 113.3382268 124.5070650 135.0108930 112.8937430
 125.9632688 135.3550394 112.6637233 120.0993236 130.4692508 113.2288875
 119.7943372 130.7838657 114.0799018 121.0523678 130.5473928 113.2716208
 118.5439668 136.6282732 114.8781829 118.0161030 135.8935491 114.5655067
 118.0427171 137.4057408 114.6321798 123.5232514 134.8231752 119.9948876
 122.8656189 135.5131013 120.0829004 124.3272913 135.2128184 120.3382862
 113.2758396 127.2902398 117.2388441 113.8502148 127.0677579 116.5061634
 113.8629378 127.3591092 117.9917042 122.3337973 133.1776125 118.0452817
 122.8469855 133.8106117 118.5474527 122.9839197 132.5777320 117.6796177
 113.6027983 129.3206859 111.2584326 112.7665295 129.6581545 111.5793601
 113.4632753 129.1855839 110.3211463 115.5781063 124.1643647 115.9663510
 114.9245476 123.8492664 115.3420125 115.5361538 123.5419387 116.6923333
 116.6892268 134.4462942 107.8816802 115.7819330 134.2152195 108.0807951
 117.1863300 133.6500561 108.0690784 119.5960347 143.1560449 110.8013488
 118.9222046 143.4592146 111.4098446 119.9826169 143.9589529 110.4518946
 118.8118804 130.6525580 120.2911158 117.8941365 130.8740527 120.1332846
 119.2278947 130.7271891 119.4322865 119.5953852 132.0516996 115.4213838
 120.3425671 132.5638393 115.1120960 119.8645441 131.7301049 116.2818232
 117.8680502 134.5475537 112.4040792 116.9591721 134.2634570 112.5013262
 117.8975586 134.9674615 111.5444099 123.0999769 138.1582126 116.1731960
 122.6462096 137.3173036 116.2297150 122.4693736 138.7943525 116.5106740
 122.0432689 129.0874112 117.4032627 121.3055446 128.5751498 117.7342870
 122.2959462 128.6474494 116.5915904 121.5432708 139.9958623 117.1081778
 121.8355683 140.5563680 116.3894144 122.0531329 140.2887184 117.8634937
 122.1444316 121.8650364 117.9974397 122.4503193 121.0047728 117.7100312
 122.8696921 122.4567984 117.7973391 108.4368672 132.2681051 116.3855995
 108.2393072 131.6750412 115.6607061 107.8815336 131.9633261 117.1031933
 116.4165396 132.1604157 118.5050588 116.4714006 131.2077994 118.4293064
 115.6056598 132.3163596 118.9891886 117.5656590 136.0884280 109.7428871
 117.1276019 135.3720139 109.2834508 118.3067030 136.3160395 109.1813962
 114.3557756 130.7781217 116.2640967 113.5425621 131.0775388 116.6706159
 114.8516750 130.3836906 116.9815449 116.5066334 140.7738974 118.1975231
 116.4642512 140.9999820 117.2683763 117.4229032 140.5402349 118.3461032
 119.9531967 131.2423042 125.0955860 120.3081355 131.4694515 125.9550326
 120.6004099 131.5741418 124.4733116 125.6829704 134.3641477 115.8005190
 125.5447603 134.5543073 114.8726379 125.3265923 135.1260860 116.2573241
 113.8471830 128.3499573 121.8802202 114.4871210 128.2088332 121.1825165
 113.0149361 128.0634086 121.5040804 125.7099084 136.4318004 120.8116461
 126.1435591 136.3393294 121.6599515 126.4230665 136.4075505 120.1736477
 114.6232134 137.6502003 117.9937194 115.4172733 137.1552323 117.7919769
 113.9123827 137.1219866 117.6304900 119.4426979 140.0320099 122.3449562
 119.4964001 140.6011035 123.1127278 118.5741760 140.2021984 121.9803599
 110.9314898 131.7945085 114.0696947 110.0012486 131.7329540 114.2866909
 111.0272370 131.2721037 113.2733588 110.8500447 128.3199898 116.6575188
 111.1107264 129.2345231 116.5484349 111.6717619 127.8524340 116.8071801
 112.3225372 129.7337655 123.8274013 112.9948426 129.5255017 123.1786662
 111.4955159 129.5359741 123.3879245 126.5714634 136.4741705 123.3449346
 126.7650524 137.3787516 123.5908621 126.4715252 136.0149124 124.1787931
 118.2250944 126.3599596 125.8439674 117.5778859 127.0589545 125.7504150
 118.9951960 126.7935740 126.2115922 118.4015079 134.1980361 123.9036493
 119.3307139 134.3491520 123.7305461 117.9806109 134.2864381 123.0485140
 117.2003410 138.2231025 121.6735031 117.0614496 137.8549809 122.5460969
 116.4118007 138.7378664 121.5018989 117.7951562 143.3240121 113.0160568
 117.9703318 142.8528165 113.8306190 117.1084350 143.9505888 113.2441828
 118.7508626 137.6012628 119.0623869 118.4158458 137.5613398 119.9581519
 118.2512571 136.9357344 118.5894279 112.7252869 133.0080258 124.5876450
 112.5872667 132.2760497 125.1887989 113.6357793 132.9189158 124.3060638
 121.6867817 134.9468662 109.3360929 121.0696988 134.2215490 109.2393981
 121.2184306 135.7078022 108.9928003 115.3535170 132.7200217 124.0760130
 116.0634789 132.0793409 124.0346748 115.3104478 132.9713112 124.9986310
 114.0664104 129.7065435 125.8955769 113.5301461 129.2556173 126.5477365
 113.4780813 129.8411344 125.1526234 112.3612648 146.4729484 119.7900428
 112.6009246 147.1048008 120.4679446 111.5181844 146.1217524 120.0765787
 113.4766363 129.1654086 108.4582233 112.5995829 129.0442887 108.0944479
 113.9524116 128.3740165 108.2061121 123.3439356 137.6207154 125.2280689
 122.4566135 137.2833076 125.3507087 123.9137907 136.8890186 125.4649454
 104.9968503 133.9531246 118.5523740 105.6839543 133.6392976 117.9644755
 104.8416632 134.8572611 118.2790991 109.8003225 128.8421443 122.9808764
 109.7161414 128.2347112 122.2459174 108.9785932 129.3330461 122.9818260
 116.8740510 142.2808607 122.1941932 116.8010681 143.0863578 122.7061236
 116.4317903 142.4800572 121.3689953 116.6630289 141.5180377 115.7044753
 115.8797811 142.0602057 115.7982978 117.3623034 142.0354356 116.1038994
 119.9726939 127.3275006 118.3478959 120.4695639 126.5744968 118.0280029
 119.2013921 127.3639323 117.7822168 127.8256697 133.0315372 119.9897250
 127.8146573 133.9140087 119.6191183 126.9574076 132.6786922 119.7951787
 121.0556720 136.0846693 115.9217382 120.1212999 136.2048156 115.7522086
 121.2333388 135.1819160 115.6577392 116.5561908 129.4692389 118.0750643
 116.1859696 128.9163430 118.7631549 117.0521000 128.8650523 117.5225643
 124.4429271 131.9264013 116.4567416 124.9089723 132.7592004 116.3827719
 124.8936772 131.4608994 117.1612675 114.3851107 139.9289884 125.1705661
 115.0860566 140.5626367 125.3235055 113.9146222 140.2704616 124.4101301
 122.5105502 138.2707834 113.4553568 122.7865346 138.1564429 114.3647442
 121.6410001 137.8725319 113.4165741 122.4145934 124.2944600 120.4958318
 121.5009014 124.5248826 120.6640525 122.8439035 124.3783044 121.3472350
 122.1852393 132.4834492 122.9958212 121.5323843 132.7310399 122.3410664
 122.5632772 131.6698630 122.6620689 119.1459566 142.5194185 117.0986382
 119.3281961 141.7015841 117.5614134 119.9692552 142.7361877 116.6611272
 119.4801732 141.4462370 114.3601430 120.0089498 140.9354824 113.7471592
 119.7429951 141.1304900 115.2246963 118.2339966 133.2254303 129.4824249
 117.5580603 133.1248432 130.1526624 119.0567599 133.0693516 129.9460246
 109.9818825 139.4626239 122.1036764 110.5672261 138.7169927 122.2364668
 109.7843663 139.7730196 122.9873428 112.8357480 142.4977487 117.1199206
 112.1667855 142.9823614 116.6363246 112.6970350 142.7446707 118.0342585
 104.5736479 132.0331839 120.8241207 104.6120579 131.4995430 121.6178325
 104.0676772 131.5067045 120.2052184 111.9527242 126.8796380 124.3203749
 112.0168568 127.7411211 123.9081147 111.8894362 126.2670382 123.5876108
 111.4279514 128.9519512 127.9676784 112.0551553 128.5696590 128.5814308
 110.5707433 128.7333714 128.3332476 108.2045057 130.7595942 113.8995138
 108.4998498 129.8506620 113.8462192 107.3033093 130.7383681 113.5776141
 120.1131136 142.4803206 120.7045547 119.9882275 141.6792945 120.1956492
 120.7710227 142.9749399 120.2159517 111.7339304 128.8351938 119.8822687
 111.0125890 129.4487906 119.7430160 112.5232560 129.3709703 119.8039333
 122.1766044 140.2812226 122.3325097 121.2296380 140.1617577 122.2603424
 122.5248817 139.3934724 122.4151358 114.5365617 126.1706365 126.1563339
 115.0600019 126.4168661 126.9189648 114.3177951 127.0026399 125.7366476
 109.9332899 128.4410039 114.0234464 109.6045605 127.5607418 113.8409570
 110.2872269 128.3857708 114.9110853 119.1812477 140.0764942 118.5329449
 119.0337440 139.1481649 118.7137019 120.0065971 140.0985033 118.0486524
 113.0474722 128.7283009 114.3909941 113.3870794 129.2568930 113.6688550
 113.4946842 129.0663415 115.1668508 122.7846599 140.8993501 119.6194322
 123.7093147 140.6936362 119.4818773 122.6161903 140.6509902 120.5283663
 115.7418163 127.1120060 123.8413009 115.4014983 126.3127873 124.2433689
 115.0357169 127.4121771 123.2689843 116.3934634 124.1969372 122.2940332
 117.2160704 123.7229850 122.1719223 116.6372698 124.9759856 122.7939019
 115.0342869 127.2257631 112.5903234 115.7551231 127.6038883 112.0866951
 114.4108173 127.9446507 112.6938212 119.1773992 127.9302780 113.5261566
 119.3937606 128.8127417 113.2250395 118.6968059 127.5388993 112.7967208
 113.9173213 130.8888493 120.1032311 113.7717794 131.2028796 120.9956593
 113.4398417 131.5073393 119.5503210 115.7769596 127.8791041 120.1513201
 115.7631165 126.9832134 119.8145498 116.4942024 127.8861705 120.7851487
 117.6295727 128.3128381 122.1966328 117.3713505 129.2345452 122.1950658
 117.0980767 127.9158816 122.8866792 122.5741915 141.4179168 114.9756413
 122.7478793 140.8525591 114.2230266 123.0670807 142.2180063 114.7935903
 108.3918875 133.4293837 123.0419972 107.8472343 134.2053645 123.1740247
 109.2698225 133.7764642 122.8839094 115.1806492 126.7605421 115.4200771
 115.3022403 125.8322067 115.6191658 114.8908534 126.7744107 114.5079086
 118.0497682 124.4460332 118.5567491 118.0719379 124.5099665 117.6019470
 118.4665741 123.6064840 118.7507997 128.4281307 134.1815591 116.5946713
 128.8712453 133.4322916 116.1965836 127.5507817 134.1725727 116.2120445
 123.5617088 140.7345933 112.0753312 124.2567993 141.3552625 112.2940626
 123.9040238 139.8841284 112.3505690 109.1784897 132.5563733 125.9350129
 108.4366633 132.7046369 126.5214759 108.8577641 132.8171999 125.0716878
 125.4608511 138.1845638 113.6040642 125.9859835 138.5232911 112.8789962
 125.3730864 137.2492653 113.4203777 117.1449172 144.2517621 117.9635896
 116.7054162 143.7594000 118.6568752 117.8957289 143.7090589 117.7227971
 109.6241511 140.4429162 117.9660524 110.4499531 140.1432934 117.5859167
 109.2735563 139.6736785 118.4150312 114.5923044 139.7955630 120.0358197
 113.9703053 139.1326335 119.7360425 115.2627911 139.8216762 119.3531845
 107.8250116 138.3615489 118.9249457 106.9882024 137.9337663 118.7433459
 107.7973761 138.5547932 119.8620248 114.6647571 128.2737418 129.6290703
 114.7135727 129.1499541 129.2468473 115.2070086 127.7314811 129.0562347
 114.1536551 138.3459554 113.5116658 114.3024671 139.0295018 112.8583331
 114.9602994 138.3264644 114.0266114 122.5604055 131.6501936 127.5383876
 123.4613917 131.5108401 127.2467873 122.6352029 131.8156391 128.4782053
 116.8946860 129.0268791 126.3837062 116.0250169 129.3202357 126.1119650
 117.1306340 129.6109236 127.1044326 127.9714171 135.6520829 118.9869161
 128.8061063 136.0910633 119.1506721 128.1073300 135.1759483 118.1677406
 125.0205677 133.2100564 124.9346648 125.4959799 133.4028211 124.1265500
 124.0971243 133.2659750 124.6890032 111.9089184 134.3724731 114.5177727
 111.6635226 133.4687061 114.7157937 112.0785098 134.3741882 113.5757205
 119.5985894 125.2448408 123.9002482 120.1167838 125.9809435 123.5748971
 119.2441026 125.5512401 124.7349241 111.1784831 130.1053089 112.0163888
 110.4854076 130.1797444 111.3603924 110.9336583 129.3413433 112.5385405
 119.8498488 121.6648690 119.4203379 120.1300242 120.9971879 120.0463805
 120.6349095 121.8577786 118.9078043 117.6531956 140.8407684 110.9828405
 117.0805923 141.4597871 110.5298877 118.2264750 141.3907046 111.5168327
 123.7207346 130.0866324 123.1674954 124.6724769 130.1864422 123.1887178
 123.5510797 129.2944593 123.6773038 121.7421726 127.1721908 123.3534355
 121.1471658 127.4526920 122.6580844 121.4571422 127.6615808 124.1251096
 120.8729216 141.1244834 112.1136988 121.8059889 141.0590396 112.3169863
 120.7852429 141.9601101 111.6551520 123.5017233 140.4410705 109.0740935
 123.4230864 140.1070568 109.9676693 124.3226900 140.9332473 109.0732407
 126.1995424 133.3072444 122.2817254 126.1671744 132.3688445 122.4676938
 126.8096048 133.3856481 121.5483079 118.0378755 132.1768497 108.3244458
 118.9837860 132.0474705 108.3932876 117.6593000 131.4383159 108.8013886
 126.3489913 130.0983487 122.3275537 125.8328961 129.3141944 122.1405466
 127.2329861 129.7702204 122.4922056 124.0100639 123.8424503 118.2871350
 123.8125461 123.5339591 119.1714682 124.6200345 124.5686142 118.4169279
 132.0171974 134.3688451 121.4223290 132.7475362 134.1073739 121.9830994
 131.4078919 133.6317173 121.4625358 130.0987271 132.5096313 122.0197742
 129.3720435 132.3752278 121.4114233 129.6834558 132.8173142 122.8254460
 116.2221672 130.1018473 108.2599343 115.3153127 129.8051586 108.3362057
 116.4997653 129.8048291 107.3933629 107.1399612 131.4224837 118.7098389
 106.8202397 130.5690145 118.4172763 106.5933041 131.6373415 119.4656357
 110.9179520 134.1387278 122.4267896 111.1365530 135.0704386 122.4455930
 111.3305294 133.7795252 123.2122700 117.8383738 124.6455363 114.4143584
 117.0284466 124.3002448 114.7898830 118.5268155 124.3362907 115.0031196
 119.7674286 123.7233410 116.0367881 120.3205325 124.1428863 116.6957904
 120.0044372 122.7969158 116.0790837 115.7907385 129.7120484 131.8170645
 115.6904112 130.6614840 131.7482736 115.5728927 129.3838722 130.9446715
 114.9920457 126.9605409 108.4011322 115.8539621 127.2860307 108.6607139
 115.1770801 126.1736904 107.8884388 107.0087872 135.0427748 120.6791511
 106.3151344 134.6281701 120.1661465 107.7560863 135.0848285 120.0824930
 123.1453093 125.8333935 115.5446545 122.5651762 126.4918739 115.1624598
 122.8789026 125.0111280 115.1333963 121.5956660 125.2338993 117.7467865
 122.0956438 125.3455527 116.9382184 122.2392267 124.9300046 118.3868674
 115.6538655 133.1417622 130.6335706 115.1705737 133.9417982 130.8399595
 115.7399594 133.1525567 129.6803150 108.9224615 134.9746002 118.5557526
 108.8995303 135.0733689 117.6039409 109.2325251 135.8211153 118.8774692
 111.5811993 137.0322157 122.6704140 112.5355246 137.0006099 122.6034072
 111.3824516 136.5712781 123.4854366 112.1711375 135.6023273 125.2374938
 112.9904264 136.0967352 125.2609775 112.4448183 134.6855241 125.2092505
 121.9277971 127.9934025 114.6002893 121.0403826 128.2783676 114.3823088
 122.3431960 127.8327789 113.7530170 125.2792507 128.0180546 118.3157233
 126.0552897 128.5076999 118.5881849 124.5540641 128.4438601 118.7729102
 127.7165066 128.7308166 119.3731173 128.3109557 128.4903902 118.6624482
 127.7891650 128.0115296 120.0004710 109.9362222 142.5741777 119.6874338
 109.8016690 141.8142177 119.1212336 109.5194284 143.2982676 119.2203127
 121.0721185 137.7578700 108.6950913 121.7757035 137.9628703 109.3108569
 120.3483833 138.3255462 108.9599997 121.9018995 133.5088561 114.8153184
 121.8454196 133.9657113 113.9760816 122.4547337 132.7479246 114.6376026
 125.7123801 129.2978293 115.6403303 125.4560735 128.8974929 116.4711511
 125.0876669 130.0122087 115.5153442 130.0236139 132.0374366 118.1474594
 129.4635697 132.1067556 118.9206157 129.4179642 131.8615351 117.4274091
 113.0931347 143.4711094 119.8992781 112.9763732 144.4156526 119.7971471
 112.2723794 143.1684655 120.2878580 122.9807882 138.1961229 110.7449373
 123.8153486 137.7642428 110.5626848 122.8192225 138.0243243 111.6726268
 122.6353774 134.6993343 112.1105713 122.5802578 134.5337614 111.1694157
 122.0099829 135.4069375 112.2667902 107.4246289 129.9361407 125.9367135
 108.0705153 129.4260361 126.4254360 107.2163440 130.6730089 126.5110560
 115.9449900 124.2001452 111.6891031 115.9328569 125.1443292 111.8459302
 116.8373322 124.0171597 111.3950492 114.1185862 144.1239355 123.1148709
 115.0213108 144.1562966 123.4315204 113.8923232 143.1939806 123.1295045
 115.8739464 142.8770342 119.7758788 114.9235095 142.8772204 119.6623160
 116.1771950 142.1303077 119.2594822 119.7602019 120.7944228 115.9436968
 118.9934415 120.2402715 116.0893650 120.1712724 120.8666097 116.8051120
 111.7643780 127.0829024 130.0342149 112.6275242 126.7265829 130.2445474
 111.1909191 126.7442919 130.7217553 124.2768679 150.5193785 116.7662966
 123.7133544 150.4283722 115.9979254 124.1621074 149.6993689 117.2465458
 129.8568238 154.1864753 112.0777431 129.2056218 154.7718833 111.6911445
 130.6512601 154.7170948 112.1372468 123.7823865 151.2753890 112.4764565
 124.5554741 150.7282877 112.3377441 124.1349264 152.1398139 112.6879026
 126.1190143 147.4346556 110.1083015 126.3715663 146.9128077 109.3466478
 125.1814702 147.2712701 110.2109699 131.3343503 151.8755185 112.6146415
 130.6989336 151.9489811 113.3267320 131.0040909 152.4648783 111.9365494
 125.8386432 149.3374662 112.3107390 125.7222690 148.6619565 112.9788474
 125.9488691 148.8507036 111.4939543 128.1817972 148.7984809 116.0154079
 127.8176180 148.2715430 116.7267001 129.0385088 148.4083278 115.8420565
 127.8223459 143.8274709 111.0115428 127.9897862 144.6954945 111.3785899
 127.6320629 143.9901990 110.0876717 127.8012680 146.2832366 111.9962095
 127.6812306 146.7289417 112.8347575 127.1065269 146.6317684 111.4375633
 133.4997746 146.7553839 112.8242429 134.4115603 146.9881226 112.6490126
 132.9907394 147.3390884 112.2617507 126.5964177 147.5977218 114.2895660
 127.2988220 148.0498262 114.7569587 126.2644805 146.9561037 114.9175553
 120.3389511 145.8560771 119.5912794 119.5488565 146.1118299 119.1152904
 120.8300758 146.6709109 119.6964834 122.2904256 146.2205350 116.5496271
 121.4935419 146.3324044 117.0679766 122.0629848 146.5592002 115.6837161
 121.2887339 151.9293599 114.9385691 121.8011859 152.7236849 115.0891255
 121.9410052 151.2319889 114.8719292 119.2536256 150.2582253 115.7145261
 120.0911478 150.6679262 115.4978969 119.4314523 149.3181695 115.6845455
 131.1500688 147.9257334 111.4029094 130.6347311 148.6961938 111.6417481
 130.8777996 147.2522470 112.0262156 128.7347799 142.7707035 116.4614332
 127.8789395 142.3813885 116.2819971 129.1474750 142.8498995 115.6014118
 126.5089831 140.3892108 119.8672074 127.3742828 140.1934916 119.5077963
 126.5767340 140.1602459 120.7941431 130.9386991 145.7984426 113.2288875
 130.6337126 146.1130575 114.0799018 131.8917433 145.8765846 113.2716208
 129.3833423 151.9574649 114.8781829 128.8554784 151.2227409 114.5655067
 128.8820925 152.7349326 114.6321798 124.1152150 142.6194316 117.2388441
 124.6895902 142.3969497 116.5061634 124.7023133 142.6883010 117.9917042
 124.4421737 144.6498777 111.2584326 123.6059050 144.9873463 111.5793601
 124.3026507 144.5147756 110.3211463 126.4174818 139.4935564 115.9663510
 125.7639230 139.1784582 115.3420125 126.3755292 138.8711305 116.6923333
 127.5286023 149.7754860 107.8816802 126.6213085 149.5444113 108.0807951
 128.0257055 148.9792479 108.0690784 130.4347606 147.3808914 115.4213838
 131.1819425 147.8930311 115.1120960 130.7039196 147.0592966 116.2818232
 128.7074256 149.8767454 112.4040792 127.7985476 149.5926487 112.5013262
 128.7369340 150.2966533 111.5444099 132.8826443 144.4166030 117.4032627
 132.1449200 143.9043416 117.7342870 133.1353217 143.9766412 116.5915904
 132.9838071 137.1942282 117.9974397 133.2896947 136.3339645 117.7100312
 133.7090675 137.7859902 117.7973391 119.2762427 147.5972968 116.3855995
 119.0786826 147.0042329 115.6607061 118.7209091 147.2925179 117.1031933
 128.4050344 151.4176198 109.7428871 127.9669774 150.7012057 109.2834508
 129.1460785 151.6452313 109.1813962 125.1951510 146.1073135 116.2640967
 124.3819376 146.4067305 116.6706159 125.6910504 145.7128823 116.9815449
 121.7708652 147.1237002 114.0696947 120.8406240 147.0621458 114.2866909
 121.8666124 146.6012955 113.2733588 121.6894201 143.6491815 116.6575188
 121.9501019 144.5637148 116.5484349 122.5111374 143.1816258 116.8071801
 132.5261572 150.2760580 109.3360929 131.9090742 149.5507408 109.2393981
 132.0578060 151.0369940 108.9928003 124.3160118 144.4946004 108.4582233
 123.4389584 144.3734805 108.0944479 124.7917871 143.7032082 108.2061121
 115.8362258 149.2823164 118.5523740 116.5233298 148.9684894 117.9644755
 115.6810386 150.1864528 118.2790991 120.6396980 144.1713360 122.9808764
 120.5555169 143.5639030 122.2459174 119.8179686 144.6622379 122.9818260
 130.8120694 142.6566924 118.3478959 131.3089393 141.9036886 118.0280029
 130.0407675 142.6931240 117.7822168 127.3955662 144.7984307 118.0750643
 127.0253450 144.2455347 118.7631549 127.8914755 144.1942440 117.5225643
 115.4130234 147.3623757 120.8241207 115.4514333 146.8287348 121.6178325
 114.9070527 146.8358963 120.2052184 119.0438811 146.0887859 113.8995138
 119.3392253 145.1798538 113.8462192 118.1426847 146.0675599 113.5776141
 122.5733058 144.1643856 119.8822687 121.8519644 144.7779824 119.7430160
 123.3626314 144.7001621 119.8039333 120.7726653 143.7701957 114.0234464
 120.4439359 142.8899336 113.8409570 121.1266024 143.7149626 114.9110853
 123.8868476 144.0574927 114.3909941 124.2264549 144.5860848 113.6688550
 124.3340597 144.3955333 115.1668508 125.8736623 142.5549548 112.5903234
 126.5944986 142.9330801 112.0866951 125.2501927 143.2738425 112.6938212
 130.0167746 143.2594697 113.5261566 130.2331361 144.1419335 113.2250395
 129.5361813 142.8680911 112.7967208 126.6163350 143.2082958 120.1513201
 126.6024919 142.3124052 119.8145498 127.3335779 143.2153622 120.7851487
 126.0200246 142.0897339 115.4200771 126.1416158 141.1613985 115.6191658
 125.7302289 142.1036025 114.5079086 128.8891437 139.7752249 118.5567491
 128.9113134 139.8391582 117.6019470 129.3059496 138.9356758 118.7507997
 124.9930305 153.6751471 113.5116658 125.1418426 154.3586936 112.8583331
 125.7996749 153.6556561 114.0266114 122.7482938 149.7016649 114.5177727
 122.5028980 148.7978979 114.7157937 122.9178853 149.7033800 113.5757205
 122.0178586 145.4345007 112.0163888 121.3247831 145.5089362 111.3603924
 121.7730338 144.6705350 112.5385405 130.6892242 136.9940608 119.4203379
 130.9693996 136.3263797 120.0463805 131.4742849 137.1869704 118.9078043
 128.4925711 156.1699602 110.9828405 127.9199678 156.7889789 110.5298877
 129.0658505 156.7198964 111.5168327 128.8772509 147.5060415 108.3244458
 129.8231614 147.3766623 108.3932876 128.4986754 146.7675077 108.8013886
 134.8494394 139.1716421 118.2871350 134.6519215 138.8631509 119.1714682
 135.4594099 139.8978060 118.4169279 127.0615427 145.4310391 108.2599343
 126.1546882 145.1343504 108.3362057 127.3391408 145.1340209 107.3933629
 117.9793367 146.7516754 118.7098389 117.6596151 145.8982063 118.4172763
 117.4326795 146.9665333 119.4656357 128.6777492 139.9747281 114.4143584
 127.8678221 139.6294366 114.7898830 129.3661909 139.6654824 115.0031196
 130.6068041 139.0525328 116.0367881 131.1599079 139.4720781 116.6957904
 130.8438127 138.1261076 116.0790837 125.8314211 142.2897326 108.4011322
 126.6933375 142.6152225 108.6607139 126.0164555 141.5028822 107.8884388
 133.9846848 141.1625853 115.5446545 133.4045517 141.8210657 115.1624598
 133.7182780 140.3403197 115.1333963 132.4350414 140.5630910 117.7467865
 132.9350192 140.6747445 116.9382184 133.0786022 140.2591963 118.3868674
 119.7618369 150.3037920 118.5557526 119.7389058 150.4025607 117.6039409
 120.0719006 151.1503070 118.8774692 132.7671726 143.3225943 114.6002893
 131.8797581 143.6075594 114.3823088 133.1825715 143.1619706 113.7530170
 131.9114939 153.0870618 108.6950913 132.6150789 153.2920620 109.3108569
 131.1877588 153.6547380 108.9599997 132.7412749 148.8380479 114.8153184
 132.6847951 149.2949030 113.9760816 133.2941092 148.0771164 114.6376026
 136.5517555 144.6270211 115.6403303 136.2954490 144.2266847 116.4711511
 135.9270423 145.3414005 115.5153442 133.8201637 153.5253147 110.7449373
 134.6547240 153.0934345 110.5626848 133.6585979 153.3535161 111.6726268
 133.4747529 150.0285260 112.1105713 133.4196332 149.8629532 111.1694157
 132.8493584 150.7361293 112.2667902 126.7843654 139.5293369 111.6891031
 126.7722324 140.4735209 111.8459302 127.6767076 139.3463515 111.3950492
 130.5995774 136.1236146 115.9436968 129.8328169 135.5694633 116.0893650
 131.0106479 136.1958015 116.8051120  44.8942122   3.0857662 107.5649857
  45.5320532   2.9664409 106.8613197  44.7762965   4.0338506 107.6237809
  41.7031829   3.0385090 107.5011382  41.3650340   2.9226154 106.6131916
  42.5721597   2.6376255 107.4812388  37.5618644   4.8920566 103.4908272
  36.9983510   4.8010503 102.7224560  37.4471039   4.0720471 103.9710765
  42.1851612   4.1919941 113.4597587  42.1740252   3.7972740 112.5878091
  42.3472251   3.4586014 114.0531359  35.1083076   6.3871758 106.3292493
  35.9004368   6.0462582 105.9138792  35.3479727   6.4966733 107.2494646
  43.1418203   8.5591534  98.8022737  42.4906183   9.1445614  98.4156751
  43.9362566   9.0897729  98.8617775  37.0673830   5.6480671  99.2009872
  37.8404706   5.1009658  99.0622748  37.4199229   6.5124920  99.4124333
  38.9058873   6.9757053 112.4076771  38.6148739   7.8802684 112.2923437
  39.5415857   7.0173581 113.1220841  39.8315080   4.3533902 108.9978131
  40.4278652   4.1289924 108.2835094  39.8890051   3.6118647 109.6003579
  39.4040108   1.8073337  96.8328322  39.6565629   1.2854858  96.0711785
  38.4664667   1.6439483  96.9355005  44.4483391   0.8109115 104.6403065
  45.2346480   0.3928539 104.2893482  44.7122095   1.7155208 104.8084713
  44.6193468   6.2481966  99.3391722  43.9839301   6.3216592 100.0512626
  44.2890875   6.8375565  98.6610801  49.8491818   0.7484349 105.5436043
  50.5816990   0.1783565 105.7773873  49.0931174   0.3605949 105.9842549
  39.1236397   3.7101443  99.0352697  39.0072655   3.0346346  99.7033781
  39.2338657   3.2233817  98.2184850  41.4667938   3.1711590 102.7399386
  41.1026145   2.6442211 103.4512307  42.3235054   2.7810059 102.5665871
  47.3717238  -5.5394077 110.0030652  47.0400563  -4.6698666 109.7791867
  46.7762852  -5.8557793 110.6824682  41.1073425  -1.7998510  97.7360734
  41.2747827  -0.9318274  98.1031205  40.9170594  -1.6371228  96.8122024
  43.8648758   6.6618469 109.4026565  43.5649481   7.5643508 109.2942372
  43.5199817   6.3950652 110.2547718  37.3161239   3.1132266 105.4363269
  36.3911736   2.9808480 105.6440961  37.5645653   3.8926485 105.9333212
  47.2645902  -0.8198991 107.0824002  46.3562779  -0.8883583 106.7882763
  47.2133498  -0.3427046 107.9105828  41.0862646   0.6559147  98.7207401
  40.9662271   1.1016198  99.5592881  40.3915234   1.0044465  98.1620939
  34.6770050   2.7565539 106.2707058  34.8062432   3.0100018 107.1846470
  33.9967502   3.3493247 105.9511713  38.8469538  13.4262789 102.3697532
  38.7693567  14.3770614 102.4486013  38.2431181  13.0808662 103.0272459
  41.3386768   0.5990654 115.0258899  40.5620102   1.1584575 115.0161764
  41.9777331   1.0847437 115.5473769  49.1307548  -2.6182553 108.8601876
  48.4881928  -2.3250020 108.2141671  48.6262477  -2.7329632 109.6655073
  46.7847712   1.1280620  99.5487735  47.6965568   1.3608007  99.3735433
  46.2757359   1.7117665  98.9862814  39.5933140   3.4076108 114.5876866
  40.3347824   3.9461152 114.3111690  38.8870125   4.0342397 114.7448418
  45.0688479   5.5505248 113.1849028  45.4771835   5.1087659 112.4403660
  44.3465741   4.9757876 113.4383221  41.4219550   0.4877855 110.5582585
  42.2680745   0.9117269 110.7017234  41.3618187  -0.1688521 111.2521148
  45.3917294   6.1106439 106.9401317  44.7626157   6.2752153 106.2377385
  45.0042956   6.5248049 107.7112281  49.2706526   7.0460877 104.2945680
  48.5857564   7.4259778 103.7442714  49.3550375   7.6556203 105.0277628
  44.5718995  -1.8517777 112.2163758  44.3279927  -1.0975716 111.6798034
  44.8478925  -1.4732429 113.0511005  46.5257458   4.6920836 110.8941024
  46.7374353   5.3352596 110.2175405  46.4787206   3.8583152 110.4262954
  44.1283687  -2.6961344 107.7977596  43.2668166  -2.3980090 108.0894334
  44.1546121  -2.4790945 106.8658629  40.9445256   5.8480847 104.2051402
  41.4083602   6.1268550 103.4156024  40.6802054   4.9464292 104.0224492
  37.8369337   5.3952329 107.1431165  38.4070694   5.8239597 106.5048650
  38.4277449   5.1134913 107.8415351  39.8814142   1.9703999 101.0140967
  40.5838185   2.4225043 101.4814893  39.5494771   1.3287818 101.6420860
  47.6403286   7.5692791 109.0663381  48.4620729   7.1672979 108.7846063
  47.6365688   7.4661025 110.0179497  35.5754221   0.5932131 103.2741577
  34.7785385   0.7050826 103.7925073  35.3479814   0.9318784 102.4082468
  41.4059889   7.1176835 111.2224092  41.4704322   7.5797242 112.0582264
  40.6970813   6.4874199 111.3506402  55.7309279   3.9131540 105.4148353
  54.9772987   3.3438938 105.2592357  55.8656820   3.8794204 106.3618987
  41.1207907   8.7844942 101.0903072  40.9853581   9.6296478 101.5187920
  41.6617719   8.9864220 100.3269006  34.5737304   6.3020380 101.6630997
  35.0861825   7.0963630 101.8136562  35.2260017   5.6046671 101.5964599
  36.3832189   9.4186136 103.7453750  36.5598817  10.3404101 103.5574734
  37.1789022   9.1044556 104.1748130  42.7476383   9.4068509 115.2203414
  42.3040237   8.6204887 114.9024319  43.4093597   9.5947659 114.5547305
  37.5063504  10.9364310 109.7464093  38.0570929  10.8081373 108.9741087
  36.6674980  11.2359199 109.3958986  44.8457621   9.6871308 113.2484816
  44.8276096  10.5080190 112.7565085  45.7677541   9.5625384 113.4734957
  41.3030675   7.2015438 114.0908324  41.8359012   6.4403726 113.8607632
  40.7744756   6.9089090 114.8332478  32.5386221   4.6309034 102.4390568
  33.3761443   5.0406043 102.2224275  32.7164489   3.6908477 102.4090762
  44.4350653   2.2984115  98.1274401  43.9197276   3.0688720  98.3662788
  44.1627961   1.6249251  98.7507462  42.0197764  -2.8566184 103.1859639
  41.1639360  -3.2459334 103.0065278  42.4324716  -2.7774223 102.3259425
  43.5496911  -5.3219841 107.5851199  43.0461706  -5.3589706 106.7719004
  43.8427517  -4.4127098 107.6447856  49.4084927   5.0516470 100.0627574
  48.6314370   4.7127629  99.6182736  50.0876408   5.0569093  99.3882539
  44.2236956   0.1711207  99.9534182  43.9187092   0.4857356 100.8044325
  45.1767398   0.2492627  99.9961515  42.6683388   6.3301430 101.6027136
  42.1404750   5.5954190 101.2900373  42.1670891   7.1076107 101.3567104
  47.6476234   4.5250451 106.7194182  46.9899908   5.2149712 106.8074311
  48.4516633   4.9146883 107.0628169  46.4581693   2.8794824 104.7698124
  46.9713575   3.5124815 105.2719834  47.1082917   2.2796019 104.4041484
  37.7271703  -0.9774442  97.9829633  36.8909015  -0.6399756  98.3038907
  37.5876472  -1.1125462  97.0456770  40.8135988   4.1481641  94.6062109
  39.9063050   3.9170894  94.8053258  41.3107020   3.3519260  94.7936090
  43.7204067  12.8579148  97.5258795  43.0465766  13.1610845  98.1343753
  44.1069889  13.6608228  97.1764252  42.9362524   0.3544279 107.0156464
  42.0185085   0.5759226 106.8578153  43.3522667   0.4290590 106.1568172
  43.7197571   1.7535695 102.1459145  44.4669390   2.2657092 101.8366267
  43.9889161   1.4319748 103.0063538  41.9924222   4.2494236  99.1286099
  41.0835441   3.9653268  99.2258569  42.0219305   4.6693314  98.2689406
  47.2243489   7.8600825 102.8977267  46.7705816   7.0191735 102.9542457
  46.5937456   8.4962223 103.2352047  46.1676409  -1.2107189 104.1277934
  45.4299165  -1.7229803 104.4588177  46.4203182  -1.6506807 103.3161211
  45.6676428   9.6977322 103.8327085  45.9599403  10.2582379 103.1139450
  46.1775049   9.9905883 104.5880244  32.5612392   1.9699750 103.1101301
  32.3636792   1.3769110 102.3852368  32.0059056   1.6651960 103.8277240
  40.5409116   1.8622856 105.2295894  40.5957725   0.9096693 105.1538371
  39.7300318   2.0182295 105.7137193  41.6900309   5.7902979  96.4674178
  41.2519739   5.0738838  96.0079815  42.4310750   6.0179094  95.9059269
  38.4801476   0.4799916 102.9886273  37.6669341   0.7794086 103.3951465
  38.9760470   0.0855605 103.7060755  40.6310053  10.4757673 104.9220538
  40.5886232  10.7018519 103.9929070  41.5472752  10.2421047 105.0706339
  44.0775687   0.9441740 111.8201167  44.4325075   1.1713214 112.6795633
  44.7247818   1.2760117 111.1978422  49.8073424   4.0660176 102.5250496
  49.6691323   4.2561772 101.5971685  49.4509643   4.8279559 102.9818547
  49.8342804   6.1336703 107.5361768  50.2679310   6.0411992 108.3844822
  50.5474384   6.1094204 106.8981784  38.7475854   7.3520702 104.7182501
  39.5416453   6.8571022 104.5165076  38.0367547   6.8238565 104.3550206
  43.5670699   9.7338797 109.0694868  43.6207721  10.3029734 109.8372584
  42.6985480   9.9040682 108.7048905  35.0558618   1.4963784 100.7942253
  34.1256206   1.4348239 101.0112215  35.1516090   0.9739736  99.9978895
  36.4469092  -0.5643646 110.5519320  37.1192145  -0.7726284 109.9031968
  35.6198879  -0.7621560 110.1124552  50.6958353   6.1760404 110.0694653
  50.8894243   7.0806214 110.3153928  50.5958972   5.7167823 110.9033238
  42.3494664  -3.9381705 112.5684980  41.7022579  -3.2391756 112.4749457
  43.1195679  -3.5045562 112.9361229  45.7573462   6.3267147 115.6435534
  45.6058968   6.0977698 114.7265617  45.7478141   7.2837748 115.6566879
  42.5258798   3.8999059 110.6281800  43.4550858   4.0510219 110.4550767
  42.1049828   3.9883080 109.7730447  41.3247130   7.9249724 108.3980338
  41.1858216   7.5568508 109.2706276  40.5361726   8.4397363 108.2264296
  41.9195282  13.0258820  99.7405874  42.0947038  12.5546863 100.5551497
  41.2328070  13.6524586  99.9687135  42.8752345   7.3031327 105.7869176
  42.5402178   7.2632096 106.6826825  42.3756291   6.6376042 105.3139586
  36.8496589   2.7098957 111.3121757  36.7116387   1.9779195 111.9133296
  37.7601513   2.6207857 111.0305944  45.8111537   4.6487361  96.0606235
  45.1940708   3.9234189  95.9639288  45.3428025   5.4096721  95.7173309
  39.4778890   2.4218916 110.8005436  40.1878509   1.7812108 110.7592055
  39.4348198   2.6731811 111.7231617  47.4665669   9.3586269 113.7212016
  47.4078215   8.6745489 113.0542599  47.8685187  10.1005259 113.2692642
  36.4856367  16.1748183 106.5145734  36.7252966  16.8066707 107.1924753
  35.6425564  15.8236223 106.8011094  37.6010083  -1.1327215  95.1827539
  36.7239549  -1.2538414  94.8189786  38.0767836  -1.9241137  94.9306428
  47.4683076   7.3225853 111.9525995  46.5809855   6.9851775 112.0752394
  48.0381627   6.5908884 112.1894761  29.1212223   3.6549945 105.2769047
  29.8083263   3.3411675 104.6890062  28.9660352   4.5591310 105.0036298
  40.9984229  11.9827306 108.9187238  40.9254401  12.7882277 109.4306543
  40.5561622  12.1819271 108.0935260  40.7874009  11.2199076 102.4290060
  40.0041531  11.7620756 102.5228284  41.4866754  11.7373055 102.8284301
  44.0970659  -2.9706295 105.0724265  44.5939359  -3.7236333 104.7525336
  43.3257641  -2.9341978 104.5067475  51.9500416   2.7334071 106.7142557
  51.9390293   3.6158786 106.3436490  51.0817796   2.3805621 106.5197094
  43.4582913  11.8814140 111.0745397  44.1710885  12.5161604 111.0021299
  42.9672941  11.9778006 110.2585399  45.1800440   5.7865392 102.6462689
  44.2456718   5.9066855 102.4767393  45.3577108   4.8837859 102.3822699
  40.6805628  -0.8288912 104.7995950  40.3103415  -1.3817872 105.4876856
  41.1764720  -1.4330779 104.2470950  48.5672991   1.6282711 103.1812723
  49.0333443   2.4610703 103.1073026  49.0180492   1.1627693 103.8857981
  38.5094826   9.6308583 111.8950968  39.2104286  10.2645066 112.0480362
  38.0389941   9.9723315 111.1346607  46.6349222   7.9726533 100.1798875
  46.9109066   7.8583127 101.0892749  45.7653721   7.5744018 100.1411048
  46.5389654  -6.0036702 107.2203624  45.6252734  -5.7732475 107.3885831
  46.9682755  -5.9198257 108.0717657  46.3096112   2.1853190 109.7203518
  45.6567563   2.4329098 109.0655971  46.6876492   1.3717329 109.3865996
  43.2703286  12.2212884 103.8231689  43.4525681  11.4034540 104.2859441
  44.0936272  12.4380576 103.3856579  43.6045452  11.1481069 101.0846737
  44.1333218  10.6373523 100.4716899  43.8673671  10.8323599 101.9492270
  34.1062544   9.1644938 108.8282071  34.6915981   8.4188626 108.9609975
  33.9087383   9.4748895 109.7118734  36.9601200  12.1996185 103.8444513
  36.2911575  12.6842313 103.3608553  36.8214069  12.4465406 104.7587892
  41.1006468  14.2339929 110.4427171  41.6524776  14.3971550 111.2076257
  41.4412662  14.8244367 109.7707196  45.9517343   9.0601186 116.2975826
  46.4957247   9.6731145 115.8030781  45.3704187   9.6180765 116.8142839
  44.2374856  12.1821904 107.4290854  44.1125995  11.3811644 106.9201799
  44.8953947  12.6768098 106.9404823  46.3009764   9.9830925 109.0570404
  45.3540099   9.8636276 108.9848730  46.6492537   9.0953423 109.1396665
  43.3056197   9.7783641 105.2574756  43.1581160   8.8500348 105.4382326
  44.1309691   9.8003731 104.7731831  37.1718442  -1.5698292 101.1155248
  37.5114514  -1.0412371 100.3933856  37.6190562  -1.2317886 101.8913814
  46.9090319  10.6012200 106.3439629  47.8336867  10.3955061 106.2064080
  46.7405622  10.3528601 107.2528970  39.1586589  -3.0723671  99.3148541
  39.8794951  -2.6942418  98.8112258  38.5351893  -2.3534794  99.4183519
  43.3017712  -2.3678522 100.2506873  43.5181326  -1.4853884  99.9495701
  42.8211779  -2.7592308  99.5212515  38.0416933   0.5907192 106.8277618
  37.8961514   0.9047495 107.7201899  37.5642137   1.2092092 106.2748516
  39.9013316  -2.4190260 106.8758507  39.8874885  -3.3149167 106.5390805
  40.6185744  -2.4119597 107.5096793  41.7539447  -1.9852920 108.9211635
  41.4957224  -1.0635850 108.9195965  41.2224487  -2.3822486 109.6112099
  46.6985635  11.1197867 101.7001720  46.8722513  10.5544289 100.9475572
  47.1914526  11.9198762 101.5181210  32.5162595   3.1312536 109.7665279
  31.9716063   3.9072344 109.8985553  33.3941945   3.4783341 109.6084400
  52.5525026   3.8834290 103.3192020  52.9956172   3.1341615 102.9211143
  51.6751537   3.8744426 102.9365752  47.6860808  10.4364631  98.7998618
  48.3811712  11.0571324  99.0185933  48.0283958   9.5859983  99.0750996
  49.5852231   7.8864337 100.3285949  50.1103555   8.2251610  99.6035269
  49.4974583   6.9511352 100.1449084  41.2472280  11.7998411 112.4575826
  41.5559406  11.5547557 113.3298525  42.0447762  12.0045049 111.9694696
  41.2692892  13.9536320 104.6881202  40.8297882  13.4612699 105.3814059
  42.0201009  13.4109288 104.4473277  33.7485231  10.1447861 104.6905830
  34.5743251   9.8451633 104.3104474  33.3979283   9.3755483 105.1395619
  38.7166764   9.4974329 106.7603504  38.0946773   8.8345034 106.4605732
  39.3871631   9.5235461 106.0777152  31.9493836   8.0634188 105.6494764
  31.1125744   7.6356362 105.4678765  31.9217481   8.2566631 106.5865555
  49.2746137   8.5197241 115.6337147  48.4841681   8.5021379 115.0941646
  49.0379492   9.0585534 116.3886184  49.3944012   5.3689707 112.9469876
  49.4442017   5.2039714 113.8885398  49.2857935   4.5016966 112.5567756
  38.2780271   8.0478253 100.2361964  38.4268391   8.7313717  99.5828637
  39.0846714   8.0283343 100.7511420  46.6847774   1.3520635 114.2629182
  47.5857637   1.2127100 113.9713180  46.7595749   1.5175090 115.2027360
  41.0190580  -1.2712510 113.1082369  40.1493889  -0.9778944 112.8364957
  41.2550060  -0.6872065 113.8289632  50.8962209   7.7886648 113.1911897
  50.6047017   8.1516629 114.0275358  50.2834340   7.0753657 113.0125229
  52.0957891   5.3539528 105.7114467  52.9304783   5.7929332 105.8752028
  52.2317020   4.8778181 104.8922713  49.1449397   2.9119263 111.6591955
  49.6203519   3.1046909 110.8510806  48.2214962   2.9678449 111.4135339
  36.0332904   4.0743430 101.2423033  35.7878946   3.1705760 101.4403244
  36.2028818   4.0760581 100.3002511  43.7229614  -5.0532893 110.6247789
  44.2411557  -4.3171866 110.2994278  43.3684746  -4.7468900 111.4594548
  41.7775676  10.5426383  97.7073712  41.2049643  11.1616570  97.2544184
  42.3508470  11.0925745  98.2413634  47.8451066  -0.2114977 109.8920261
  48.7968489  -0.1116879 109.9132485  47.6754516  -1.0036708 110.4018345
  45.8665446  -3.1259394 110.0779662  45.2715378  -2.8454381 109.3826150
  45.5815142  -2.6365493 110.8496403  44.9972936  10.8263533  98.8382294
  45.9303609  10.7609095  99.0415170  44.9096149  11.6619800  98.3796827
  47.6260953  10.1429404  95.7986242  47.5474584   9.8089267  96.6922000
  48.4470619  10.6351171  95.7977714  50.3239144   3.0091143 109.0062560
  50.2915464   2.0707144 109.1922244  50.9339767   3.0875180 108.2728385
  42.1622475   1.8787196  95.0489764  43.1081579   1.7493404  95.1178182
  41.7836720   1.1401858  95.5259193  50.4733632  -0.1997814 109.0520844
  49.9572681  -0.9839357 108.8650772  51.3573581  -0.5279097 109.2167363
  48.1344359  -6.4556798 105.0116656  47.9369180  -6.7641710 105.8959988
  48.7444065  -5.7295159 105.1414586  56.1415694   4.0707150 108.1468597
  56.8719082   3.8092438 108.7076300  55.5322639   3.3335872 108.1870665
  54.2230991   2.2115012 108.7443048  53.4964154   2.0770977 108.1359540
  53.8078278   2.5191841 109.5499766  42.0461167   5.9304942 116.5090421
  42.9664177   6.1083541 116.7030468  42.0110750   4.9860987 116.3570121
  40.3465392  -0.1962828  94.9844650  39.4396847  -0.4929715  95.0607363
  40.6241373  -0.4933010  94.1178936  35.0423240   3.8405977 109.1513203
  35.2609250   4.7723084 109.1701236  35.4549014   3.4813951 109.9368006
  31.1331592   4.7446447 107.4036818  30.4395064   4.3300400 106.8906772
  31.8804583   4.7866984 106.8070236  47.2696813  -4.4647366 102.2691852
  46.6895482  -3.8062562 101.8869904  47.0032746  -5.2870022 101.8579269
  45.7200379  -5.0642308 104.4713172  46.2200158  -4.9525774 103.6627491
  46.3635987  -5.3681256 105.1113981  33.0468335   4.6764701 105.2802832
  33.0239023   4.7752388 104.3284716  33.3568971   5.5229852 105.6019999
  35.7055713   6.7340856 109.3949447  36.6598966   6.7024798 109.3279378
  35.5068236   6.2731480 110.2099673  36.2955095   5.3041972 111.9620245
  37.1147984   5.7986051 111.9855082  36.5691902   4.3873940 111.9337812
  46.0521691  -2.3047276 101.3248200  45.1647546  -2.0197625 101.1068395
  46.4675680  -2.4653512 100.4775477  49.4036227  -2.2800755 105.0402539
  50.1796617  -1.7904302 105.3127156  48.6784361  -1.8542701 105.4974409
  51.8408786  -1.5673136 106.0976480  52.4353277  -1.8077400 105.3869788
  51.9135369  -2.2866005 106.7250016  34.0605941  12.2760475 106.4119645
  33.9260409  11.5160876 105.8457643  33.6438004  13.0001375 105.9448434
  45.1964904   7.4597399  95.4196220  45.9000755   7.6647401  96.0353876
  44.4727553   8.0274161  95.6845304  46.0262715   3.2107260 101.5398490
  45.9697916   3.6675812 100.7006123  46.5791057   2.4497945 101.3621333
  49.8367521  -1.0003008 102.3648610  49.5804455  -1.4006372 103.1956817
  49.2120389  -0.2859214 102.2398749  54.1479858   1.7393065 104.8719901
  53.5879416   1.8086255 105.6451463  53.5423362   1.5634050 104.1519397
  37.2175067  13.1729792 106.6238087  37.1007451  14.1175225 106.5216778
  36.3967514  12.8703354 107.0123887  47.1051602   7.8979928  97.4694680
  47.9397206   7.4661127  97.2872155  46.9435945   7.7261942  98.3971575
  46.7597494   4.4012041  98.8351019  46.7046298   4.2356313  97.8939464
  46.1343549   5.1088074  98.9913209  44.0743401   6.7060953 118.1604582
  44.9434561   6.8801606 117.7991217  43.5950153   7.5255370 118.0380312
  38.2429581  13.8258054 109.8394016  39.1456828  13.8581665 110.1560511
  38.0166951  12.8958505 109.8540352  39.9983183  12.5789041 106.5004094
  39.0478814  12.5790902 106.3868467  40.3015670  11.8321775 105.9840129
  55.7335877  18.4149579 107.5649857  56.3714287  18.2956327 106.8613197
  55.6156720  19.3630423 107.6237809  52.5425583  18.3677007 107.5011382
  52.2044095  18.2518072 106.6131916  53.4115351  17.9668172 107.4812388
  48.4012399  20.2212484 103.4908272  47.8377264  20.1302421 102.7224560
  48.2864794  19.4012388 103.9710765  53.0245366  19.5211859 113.4597587
  53.0134007  19.1264657 112.5878091  53.1866006  18.7877932 114.0531359
  45.9476831  21.7163675 106.3292493  46.7398123  21.3754500 105.9138792
  46.1873481  21.8258650 107.2494646  53.9811958  23.8883451  98.8022737
  53.3299937  24.4737532  98.4156751  54.7756320  24.4189646  98.8617775
  47.9067585  20.9772589  99.2009872  48.6798461  20.4301576  99.0622748
  48.2592984  21.8416838  99.4124333  49.7452627  22.3048971 112.4076771
  49.4542493  23.2094602 112.2923437  50.3809612  22.3465498 113.1220841
  50.6708834  19.6825819 108.9978131  51.2672406  19.4581842 108.2835094
  50.7283806  18.9410565 109.6003579  50.2433863  17.1365255  96.8328322
  50.4959383  16.6146776  96.0711785  49.3058422  16.9731400  96.9355005
  55.2877145  16.1401033 104.6403065  56.0740235  15.7220456 104.2893482
  55.5515850  17.0447125 104.8084713  55.4587223  21.5773883  99.3391722
  54.8233056  21.6508510 100.0512626  55.1284629  22.1667482  98.6610801
  60.6885573  16.0776266 105.5436043  61.4210744  15.5075483 105.7773873
  59.9324928  15.6897867 105.9842549  49.9630151  19.0393361  99.0352697
  49.8466409  18.3638264  99.7033781  50.0732411  18.5525735  98.2184850
  52.3061692  18.5003508 102.7399386  51.9419900  17.9734129 103.4512307
  53.1628808  18.1101977 102.5665871  58.2110993   9.7897840 110.0030652
  57.8794318  10.6593251 109.7791867  57.6156606   9.4734124 110.6824682
  51.9467179  13.5293407  97.7360734  52.1141582  14.3973644  98.1031205
  51.7564348  13.6920689  96.8122024  54.7042512  21.9910386 109.4026565
  54.4043236  22.8935425 109.2942372  54.3593572  21.7242570 110.2547718
  48.1554994  18.4424183 105.4363269  47.2305490  18.3100397 105.6440961
  48.4039407  19.2218402 105.9333212  58.1039656  14.5092927 107.0824002
  57.1956534  14.4408335 106.7882763  58.0527252  14.9864872 107.9105828
  51.9256400  15.9851065  98.7207401  51.8056025  16.4308116  99.5592881
  51.2308989  16.3336383  98.1620939  45.5163805  18.0857457 106.2707058
  45.6456186  18.3391936 107.1846470  44.8361256  18.6785165 105.9511713
  49.6863292  28.7554707 102.3697532  49.6087322  29.7062532 102.4486013
  49.0824936  28.4100579 103.0272459  52.1780522  15.9282572 115.0258899
  51.4013856  16.4876492 115.0161764  52.8171085  16.4139355 115.5473769
  59.9701303  12.7109365 108.8601876  59.3275683  13.0041898 108.2141671
  59.4656231  12.5962285 109.6655073  57.6241466  16.4572538  99.5487735
  58.5359322  16.6899925  99.3735433  57.1151113  17.0409582  98.9862814
  50.4326894  18.7368026 114.5876866  51.1741579  19.2753069 114.3111690
  49.7263880  19.3634314 114.7448418  55.9082234  20.8797166 113.1849028
  56.3165590  20.4379577 112.4403660  55.1859495  20.3049794 113.4383221
  52.2613304  15.8169773 110.5582585  53.1074499  16.2409186 110.7017234
  52.2011942  15.1603397 111.2521148  56.2311049  21.4398357 106.9401317
  55.6019911  21.6044071 106.2377385  55.8436711  21.8539966 107.7112281
  60.1100280  22.3752794 104.2945680  59.4251319  22.7551696 103.7442714
  60.1944130  22.9848121 105.0277628  55.4112749  13.4774141 112.2163758
  55.1673681  14.2316202 111.6798034  55.6872680  13.8559489 113.0511005
  57.3651212  20.0212753 110.8941024  57.5768107  20.6644513 110.2175405
  57.3180960  19.1875070 110.4262954  54.9677441  12.6330574 107.7977596
  54.1061920  12.9311828 108.0894334  54.9939876  12.8500973 106.8658629
  51.7839010  21.1772765 104.2051402  52.2477356  21.4560468 103.4156024
  51.5195809  20.2756209 104.0224492  48.6763092  20.7244246 107.1431165
  49.2464449  21.1531515 106.5048650  49.2671203  20.4426831 107.8415351
  50.7207897  17.2995917 101.0140967  51.4231940  17.7516961 101.4814893
  50.3888525  16.6579736 101.6420860  49.1688258  15.8907674 115.3892176
  48.5386919  16.5723955 115.6227573  49.0624346  15.7790755 114.4445315
  44.4633230  15.5579470 106.3158100  43.6732284  15.8136998 105.8398211
  44.9544478  16.3727808 106.4210141  58.4797040  22.8984709 109.0663381
  59.3014484  22.4964896 108.7846063  58.4759443  22.7952943 110.0179497
  46.4147976  15.9224049 103.2741577  45.6179139  16.0342743 103.7925073
  46.1873568  16.2610701 102.4082468  52.2453643  22.4468752 111.2224092
  52.3098076  22.9089159 112.0582264  51.5364567  21.8166117 111.3506402
  42.7470933  15.8109960 108.7473091  42.9978972  16.6956970 109.0130667
  43.2830482  15.6314562 107.9748183  66.5703033  19.2423457 105.4148353
  65.8166741  18.6730855 105.2592357  66.7050574  19.2086122 106.3618987
  51.9601661  24.1136860 101.0903072  51.8247336  24.9588395 101.5187920
  52.5011474  24.3156137 100.3269006  48.4469001  10.1928440 117.7517427
  48.0535946   9.6394638 118.4265072  49.2635141  10.5039018 118.1423945
  45.4131059  21.6312298 101.6630997  45.9255579  22.4255548 101.8136562
  46.0653771  20.9338588 101.5964599  47.2225943  24.7478054 103.7453750
  47.3992572  25.6696019 103.5574734  48.0182777  24.4336473 104.1748130
  51.3636962  11.6086319 115.3437684  52.1046675  12.2093472 115.2642146
  51.5954885  10.8663956 114.7855727  46.5078300  16.7942686 113.6215914
  46.3931815  15.8927943 113.9223013  45.6522818  17.0406383 113.2700730
  53.5870138  24.7360426 115.2203414  53.1433992  23.9496805 114.9024319
  54.2487351  24.9239577 114.5547305  48.3457259  26.2656228 109.7464093
  48.8964684  26.1373291 108.9741087  47.5068735  26.5651117 109.3958986
  55.6851376  25.0163226 113.2484816  55.6669851  25.8372107 112.7565085
  56.6071296  24.8917301 113.4734957  52.1424430  22.5307356 114.0908324
  52.6752767  21.7695644 113.8607632  51.6138511  22.2381007 114.8332478
  55.3094125   7.6367422 109.6201966  54.9658394   8.5269063 109.5441076
  55.6773087   7.4469079 108.7571551  43.3779975  19.9600952 102.4390568
  44.2155197  20.3697960 102.2224275  43.5558243  19.0200394 102.4090762
  55.2744407  17.6276033  98.1274401  54.7591031  18.3980637  98.3662788
  55.0021716  16.9541169  98.7507462  52.8591518  12.4725733 103.1859639
  52.0033115  12.0832584 103.0065278  53.2718470  12.5517694 102.3259425
  54.3890665  10.0072077 107.5851199  53.8855461   9.9702212 106.7719004
  54.6821272  10.9164819 107.6447856  50.6333551  10.0910806 106.5917381
  51.4986548   9.8953615 106.2323270  50.7011060   9.8621158 107.5186737
  60.2478682  20.3808387 100.0627574  59.4708124  20.0419547  99.6182736
  60.9270163  20.3861010  99.3882539  55.0630711  15.5003125  99.9534182
  54.7580846  15.8149274 100.8044325  56.0161153  15.5784545  99.9961515
  53.5077142  21.6593348 101.6027136  52.9798504  20.9246108 101.2900373
  53.0064645  22.4368024 101.3567104  58.4869988  19.8542369 106.7194182
  57.8293663  20.5441630 106.8074311  59.2910388  20.2438801 107.0628169
  48.2395870  12.3213014 103.9633747  48.8139622  12.0988196 103.2306940
  48.8266853  12.3901709 104.7162349  57.2975447  18.2086741 104.7698124
  57.8107329  18.8416733 105.2719834  57.9476671  17.6087937 104.4041484
  48.5665457  14.3517475  97.9829633  47.7302769  14.6892162  98.3038907
  48.4270227  14.2166455  97.0456770  50.5418538   9.1954263 102.6908817
  49.8882950   8.8803280 102.0665432  50.4999012   8.5730004 103.4168640
  51.6529743  19.4773558  94.6062109  50.7456804  19.2462812  94.8053258
  52.1500775  18.6811178  94.7936090  54.5597822  28.1871066  97.5258795
  53.8859520  28.4902762  98.1343753  54.9463643  28.9900146  97.1764252
  53.7756278  15.6836197 107.0156464  52.8578840  15.9051144 106.8578153
  54.1916422  15.7582507 106.1568172  54.5591326  17.0827613 102.1459145
  55.3063145  17.5949010 101.8366267  54.8282915  16.7611665 103.0063538
  52.8317976  19.5786153  99.1286099  51.9229195  19.2945186  99.2258569
  52.8613060  19.9985232  98.2689406  58.0637243  23.1892743 102.8977267
  57.6099571  22.3483653 102.9542457  57.4331210  23.8254141 103.2352047
  57.0070163  14.1184729 104.1277934  56.2692920  13.6062115 104.4588177
  57.2596937  13.6785110 103.3161211  56.5070183  25.0269239 103.8327085
  56.7993157  25.5874297 103.1139450  57.0168803  25.3197800 104.5880244
  57.1081790   6.8960981 104.7219703  57.4140667   6.0358344 104.4345618
  57.8334395   7.4878601 104.5218697  43.4006146  17.2991667 103.1101301
  43.2030546  16.7061028 102.3852368  42.8452810  16.9943878 103.8277240
  51.3802870  17.1914774 105.2295894  51.4351480  16.2388610 105.1538371
  50.5694072  17.3474213 105.7137193  52.5294064  21.1194897  96.4674178
  52.0913494  20.4030756  96.0079815  53.2704505  21.3471012  95.9059269
  49.3195230  15.8091834 102.9886273  48.5063096  16.1086004 103.3951465
  49.8154224  15.4147522 103.7060755  51.4703808  25.8049591 104.9220538
  51.4279987  26.0310437 103.9929070  52.3866507  25.5712965 105.0706339
  54.9169442  16.2733658 111.8201167  55.2718829  16.5005131 112.6795633
  55.5641573  16.6052035 111.1978422  60.6467179  19.3952094 102.5250496
  60.5085077  19.5853690 101.5971685  60.2903397  20.1571477 102.9818547
  48.8109305  13.3810189 108.6047508  49.4508684  13.2398948 107.9070472
  47.9786835  13.0944702 108.2286110  60.6736558  21.4628621 107.5361768
  61.1073065  21.3703910 108.3844822  61.3868139  21.4386121 106.8981784
  49.5869609  22.6812620 104.7182501  50.3810207  22.1862940 104.5165076
  48.8761301  22.1530483 104.3550206  54.4064453  25.0630715 109.0694868
  54.4601475  25.6321651 109.8372584  53.5379235  25.2332600 108.7048905
  45.8952372  16.8255701 100.7942253  44.9649960  16.7640157 101.0112215
  45.9909844  16.3031654  99.9978895  45.8137921  13.3510514 103.3820495
  46.0744739  14.2655847 103.2729655  46.6355094  12.8834957 103.5317108
  47.2862847  14.7648271 110.5519320  47.9585900  14.5565633 109.9031968
  46.4592633  14.5670357 110.1124552  61.5352108  21.5052322 110.0694653
  61.7287998  22.4098132 110.3153928  61.4352726  21.0459741 110.9033238
  53.1888419  11.3910212 112.5684980  52.5416334  12.0900162 112.4749457
  53.9589434  11.8246356 112.9361229  56.5967217  21.6559064 115.6435534
  56.4452723  21.4269616 114.7265617  56.5871896  22.6129666 115.6566879
  53.3652553  19.2290977 110.6281800  54.2944613  19.3802137 110.4550767
  52.9443583  19.3174998 109.7730447  52.1640885  23.2541642 108.3980338
  52.0251970  22.8860426 109.2706276  51.3755481  23.7689281 108.2264296
  52.7589037  28.3550738  99.7405874  52.9340792  27.8838781 100.5551497
  52.0721825  28.9816504  99.9687135  53.7146100  22.6323244 105.7869176
  53.3795932  22.5924014 106.6826825  53.2150046  21.9667960 105.3139586
  47.6890344  18.0390874 111.3121757  47.5510142  17.3071113 111.9133296
  48.5995267  17.9499774 111.0305944  56.6505291  19.9779279  96.0606235
  56.0334462  19.2526107  95.9639288  56.1821780  20.7388639  95.7173309
  50.3172644  17.7510834 110.8005436  51.0272263  17.1104026 110.7592055
  50.2741953  18.0023728 111.7231617  58.3059423  24.6878187 113.7212016
  58.2471969  24.0037407 113.0542599  58.7078942  25.4297177 113.2692642
  49.0301578  14.7376051 112.6201076  48.4938935  14.2866790 113.2722672
  48.4418287  14.8721960 111.8771540  47.3250122  31.5040101 106.5145734
  47.5646720  32.1358625 107.1924753  46.4819318  31.1528141 106.8011094
  48.4403837  14.1964703  95.1827539  47.5633304  14.0753504  94.8189786
  48.9161590  13.4050781  94.9306428  58.3076830  22.6517771 111.9525995
  57.4203609  22.3143693 112.0752394  58.8775381  21.9200802 112.1894761
  39.9605978  18.9841863 105.2769047  40.6477017  18.6703593 104.6890062
  39.8054106  19.8883227 105.0036298  44.7640700  13.8732059 109.7054070
  44.6798888  13.2657729 108.9704480  43.9423406  14.3641077 109.7063567
  51.8377984  27.3119223 108.9187238  51.7648155  28.1174195 109.4306543
  51.3955377  27.5111189 108.0935260  51.6267763  26.5490993 102.4290060
  50.8435285  27.0912673 102.5228284  52.3260509  27.0664973 102.8284301
  54.9364414  12.3585623 105.0724265  55.4333113  11.6055585 104.7525336
  54.1651395  12.3949939 104.5067475  62.7894171  18.0625988 106.7142557
  62.7784047  18.9450704 106.3436490  61.9211550  17.7097539 106.5197094
  54.2976667  27.2106057 111.0745397  55.0104640  27.8453522 111.0021299
  53.8066696  27.3069923 110.2585399  56.0194194  21.1157310 102.6462689
  55.0850473  21.2358772 102.4767393  56.1970863  20.2129777 102.3822699
  51.5199382  14.5003006 104.7995950  51.1497170  13.9474046 105.4876856
  52.0158475  13.8961139 104.2470950  59.4066746  16.9574629 103.1812723
  59.8727198  17.7902621 103.1073026  59.8574246  16.4919611 103.8857981
  49.3488581  24.9600501 111.8950968  50.0498040  25.5936984 112.0480362
  48.8783696  25.3015232 111.1346607  57.4742977  23.3018450 100.1798875
  57.7502821  23.1875045 101.0892749  56.6047475  22.9035935 100.1411048
  57.3783408   9.3255216 107.2203624  56.4646488   9.5559443 107.3885831
  57.8076510   9.4093660 108.0717657  57.1489867  17.5145108 109.7203518
  56.4961317  17.7621016 109.0655971  57.5270247  16.7009246 109.3865996
  54.1097041  27.5504801 103.8231689  54.2919435  26.7326457 104.2859441
  54.9330027  27.7672494 103.3856579  54.4439206  26.4772986 101.0846737
  54.9726973  25.9665441 100.4716899  54.7067426  26.1615517 101.9492270
  53.1977440  18.2564919 116.2069555  52.5218077  18.1559049 116.8771931
  54.0205074  18.1004133 116.6705553  44.9456299  24.4936856 108.8282071
  45.5309736  23.7480544 108.9609975  44.7481137  24.8040812 109.7118734
  47.7994954  27.5288103 103.8444513  47.1305329  28.0134231 103.3608553
  47.6607824  27.7757324 104.7587892  39.5373954  17.0642456 107.5486514
  39.5758053  16.5306047 108.3423632  39.0314246  16.5377661 106.9297491
  51.9400223  29.5631847 110.4427171  52.4918531  29.7263468 111.2076257
  52.2806416  30.1536284 109.7707196  46.9164716  11.9106996 111.0449056
  46.9806042  12.7721827 110.6326454  46.8531836  11.2980998 110.3121415
  46.3916988  13.9830129 114.6922090  47.0189027  13.6007206 115.3059615
  45.5344907  13.7644331 115.0577783  56.7911097  24.3893104 116.2975826
  57.3351001  25.0023062 115.8030781  56.2097942  24.9472683 116.8142839
  43.1682531  15.7906558 100.6240445  43.4635972  14.8817237 100.5707499
  42.2670567  15.7694298 100.3021447  55.0768610  27.5113822 107.4290854
  54.9519749  26.7103562 106.9201799  55.7347701  28.0060016 106.9404823
  46.6976778  13.8662555 106.6067994  45.9763364  14.4798522 106.4675467
  47.4870034  14.4020319 106.5284640  57.1403518  25.3122842 109.0570404
  56.1933854  25.1928193 108.9848730  57.4886292  24.4245340 109.1396665
  49.5003092  11.2016981 112.8808645  50.0237494  11.4479278 113.6434955
  49.2815425  12.0337016 112.4611783  44.8970373  13.4720656 100.7479770
  44.5683079  12.5918035 100.5654876  45.2509744  13.4168324 101.6356160
  54.1449952  25.1075558 105.2574756  53.9974914  24.1792266 105.4382326
  54.9703445  25.1295649 104.7731831  48.0112196  13.7593626 101.1155248
  48.3508268  14.2879547 100.3933856  48.4584316  14.0974032 101.8913814
  57.7484074  25.9304117 106.3439629  58.6730621  25.7246979 106.2064080
  57.5799377  25.6820518 107.2528970  50.7055637  12.1430676 110.5658316
  50.3652457  11.3438489 110.9678996  49.9994643  12.4432387 109.9935149
  51.3572109   9.2279989 109.0185639  52.1798178   8.7540467 108.8964529
  51.6010172  10.0070472 109.5184325  49.9980343  12.2568247  99.3148541
  50.7188706  12.6349500  98.8112258  49.3745647  12.9757124  99.4183519
  54.1411466  12.9613396 100.2506873  54.3575080  13.8438034  99.9495701
  53.6605533  12.5699610  99.5212515  48.8810687  15.9199109 106.8277618
  48.7355268  16.2339412 107.7201899  48.4035891  16.5384010 106.2748516
  50.7407070  12.9101657 106.8758507  50.7268639  12.0142751 106.5390805
  51.4579498  12.9172321 107.5096793  52.5933201  13.3438998 108.9211635
  52.3350979  14.2656068 108.9195965  52.0618241  12.9469432 109.6112099
  57.5379390  26.4489785 101.7001720  57.7116267  25.8836207 100.9475572
  58.0308281  27.2490680 101.5181210  43.3556350  18.4604454 109.7665279
  42.8109818  19.2364262 109.8985553  44.2335699  18.8075258 109.6084400
  50.1443966  11.7916038 102.1446077  50.2659877  10.8632684 102.3436965
  49.8546009  11.8054724 101.2324393  53.0135157   9.4770948 105.2812797
  53.0356853   9.5410281 104.3264777  53.4303216   8.6375457 105.4753303
  63.3918781  19.2126208 103.3192020  63.8349927  18.4633533 102.9211143
  62.5145291  19.2036344 102.9365752  58.5254562  25.7656549  98.7998618
  59.2205467  26.3863242  99.0185933  58.8677712  24.9151900  99.0750996
  44.1422371  17.5874350 112.6595436  43.4004107  17.7356985 113.2460066
  43.8215116  17.8482616 111.7962185  60.4245985  23.2156255 100.3285949
  60.9497309  23.5543527  99.6035269  60.3368338  22.2803270 100.1449084
  52.0866034  27.1290328 112.4575826  52.3953161  26.8839475 113.3298525
  52.8841516  27.3336967 111.9694696  52.1086646  29.2828238 104.6881202
  51.6691636  28.7904617 105.3814059  52.8594763  28.7401206 104.4473277
  44.5878985  25.4739779 104.6905830  45.4137005  25.1743551 104.3104474
  44.2373037  24.7047401 105.1395619  49.5560518  24.8266247 106.7603504
  48.9340528  24.1636952 106.4605732  50.2265385  24.8527379 106.0777152
  42.7887590  23.3926105 105.6494764  41.9519498  22.9648280 105.4678765
  42.7611236  23.5858549 106.5865555  49.6285046  13.3048035 116.3536010
  49.6773201  14.1810158 115.9713780  50.1707560  12.7625428 115.7807653
  60.1139891  23.8489158 115.6337147  59.3235435  23.8313297 115.0941646
  59.8773246  24.3877452 116.3886184  60.2337766  20.6981625 112.9469876
  60.2835771  20.5331632 113.8885398  60.1251690  19.8308884 112.5567756
  49.1174025  23.3770170 100.2361964  49.2662146  24.0605635  99.5828637
  49.9240469  23.3575260 100.7511420  57.5241529  16.6812553 114.2629182
  58.4251392  16.5419017 113.9713180  57.5989503  16.8467007 115.2027360
  51.8584334  14.0579407 113.1082369  50.9887644  14.3512973 112.8364957
  52.0943815  14.6419852 113.8289632  61.7355963  23.1178566 113.1911897
  61.4440772  23.4808547 114.0275358  61.1228095  22.4045574 113.0125229
  62.9351646  20.6831446 105.7114467  63.7698537  21.1221250 105.8752028
  63.0710774  20.2070099 104.8922713  59.9843152  18.2411181 111.6591955
  60.4597273  18.4338827 110.8510806  59.0608717  18.2970367 111.4135339
  46.8726658  19.4035348 101.2423033  46.6272700  18.4997678 101.4403244
  47.0422573  19.4052498 100.3002511  54.5623368  10.2759024 110.6247789
  55.0805312  11.0120051 110.2994278  54.2078501  10.5823018 111.4594548
  46.1422306  15.1363706  98.7409195  45.4491551  15.2108060  98.0849231
  45.8974058  14.3724049  99.2630712  54.8135962   6.6959307 106.1448686
  55.0937716   6.0282496 106.7709112  55.5986569   6.8888402 105.6323349
  52.6169431  25.8718301  97.7073712  52.0443398  26.4908488  97.2544184
  53.1902224  26.4217662  98.2413634  58.6844821  15.1176941 109.8920261
  59.6362243  15.2175038 109.9132485  58.5148271  14.3255209 110.4018345
  56.7059200  12.2032524 110.0779662  56.1109132  12.4837537 109.3826150
  56.4208897  12.6926425 110.8496403  55.8366690  26.1555451  98.8382294
  56.7697364  26.0901013  99.0415170  55.7489903  26.9911718  98.3796827
  58.4654707  25.4721321  95.7986242  58.3868339  25.1381185  96.6922000
  59.2864374  25.9643089  95.7977714  61.1632898  18.3383061 109.0062560
  61.1309218  17.3999061 109.1922244  61.7733522  18.4167097 108.2728385
  53.0016229  17.2079113  95.0489764  53.9475334  17.0785322  95.1178182
  52.6230474  16.4693775  95.5259193  61.3127387  15.1294104 109.0520844
  60.7966435  14.3452561 108.8650772  62.1967335  14.8012821 109.2167363
  58.9738114   8.8735120 105.0116656  58.7762935   8.5650208 105.8959988
  59.5837819   9.5996758 105.1414586  66.9809448  19.3999067 108.1468597
  67.7112837  19.1384355 108.7076300  66.3716394  18.6627789 108.1870665
  65.0624745  17.5406930 108.7443048  64.3357909  17.4062895 108.1359540
  64.6472032  17.8483759 109.5499766  52.8854922  21.2596860 116.5090421
  53.8057931  21.4375459 116.7030468  52.8504505  20.3152905 116.3570121
  51.1859146  15.1329090  94.9844650  50.2790602  14.8362203  95.0607363
  51.4635127  14.8358908  94.1178936  42.1037087  16.4535453 105.4343696
  41.7839871  15.6000761 105.1418070  41.5570515  16.6684031 106.1901663
  45.8816994  19.1697894 109.1513203  46.1003004  20.1015002 109.1701236
  46.2942768  18.8105869 109.9368006  52.8021212   9.6765980 101.1388891
  51.9921940   9.3313065 101.5144137  53.4905629   9.3673523 101.7276502
  54.7311760   8.7544026 102.7613188  55.2842799   9.1739480 103.4203211
  54.9681847   7.8279775 102.8036144  50.7544860  14.7431100 118.5415951
  50.6541586  15.6925457 118.4728043  50.5366402  14.4149339 117.6692022
  49.9557931  11.9916025  95.1256629  50.8177095  12.3170923  95.3852446
  50.1408275  11.2047521  94.6129695  41.9725347  20.0738365 107.4036818
  41.2788818  19.6592318 106.8906772  42.7198338  20.1158901 106.8070236
  58.1090567  10.8644552 102.2691852  57.5289236  11.5229356 101.8869904
  57.8426500  10.0421896 101.8579269  56.5594134  10.2649609 104.4713172
  57.0593912  10.3766144 103.6627491  57.2029742   9.9610662 105.1113981
  50.6176130  18.1728239 117.3581013  50.1343211  18.9728599 117.5644902
  50.7037069  18.1836184 116.4048457  43.8862089  20.0056619 105.2802832
  43.8632777  20.1044306 104.3284716  44.1962726  20.8521769 105.6019999
  46.5449467  22.0632774 109.3949447  47.4992721  22.0316716 109.3279378
  46.3461991  21.6023397 110.2099673  47.1348849  20.6333890 111.9620245
  47.9541738  21.1277968 111.9855082  47.4085657  19.7165858 111.9337812
  56.8915445  13.0244642 101.3248200  56.0041300  13.3094293 101.1068395
  57.3069435  12.8638405 100.4775477  60.2429982  13.0491163 105.0402539
  61.0190372  13.5387615 105.3127156  59.5178116  13.4749217 105.4974409
  62.6802540  13.7618782 106.0976480  63.2747031  13.5214518 105.3869788
  62.7529124  13.0425913 106.7250016  44.8999696  27.6052393 106.4119645
  44.7654164  26.8452794 105.8457643  44.4831758  28.3293293 105.9448434
  56.0358659  22.7889317  95.4196220  56.7394509  22.9939319  96.0353876
  55.3121308  23.3566079  95.6845304  56.8656469  18.5399178 101.5398490
  56.8091671  18.9967729 100.7006123  57.4184812  17.7789862 101.3621333
  60.6761275  14.3288910 102.3648610  60.4198209  13.9285545 103.1956817
  60.0514143  15.0432704 102.2398749  64.9873613  17.0684983 104.8719901
  64.4273171  17.1378172 105.6451463  64.3817116  16.8925968 104.1519397
  48.0568822  28.5021710 106.6238087  47.9401206  29.4467143 106.5216778
  47.2361268  28.1995272 107.0123887  57.9445356  23.2271846  97.4694680
  58.7790960  22.7953044  97.2872155  57.7829699  23.0553860  98.3971575
  57.5991249  19.7303959  98.8351019  57.5440052  19.5648231  97.8939464
  56.9737304  20.4379992  98.9913209  42.3883764  14.9672024 112.6612442
  43.0342627  14.4570977 113.1499667  42.1800915  15.7040705 113.2355867
  54.9137156  22.0352871 118.1604582  55.7828315  22.2093523 117.7991217
  54.4343907  22.8547288 118.0380312  50.9087374   9.2312068  98.4136338
  50.8966044  10.1753908  98.5704609  51.8010796   9.0482214  98.1195799
  49.0823336  29.1549972 109.8394016  49.9850583  29.1873582 110.1560511
  48.8560706  28.2250423 109.8540352  50.8376938  27.9080959 106.5004094
  49.8872569  27.9082820 106.3868467  51.1409424  27.1613693 105.9840129
  54.7239493   5.8254845 102.6682275  53.9571889   5.2713331 102.8138957
  55.1350198   5.8976714 103.5296426  46.7281255  12.1139641 116.7587456
  47.5912716  11.7576445 116.9690780  46.1546665  11.7753535 117.4462860
  66.5729631  33.7441497 107.5649857  67.2108041  33.6248244 106.8613197
  66.4550474  34.6922341 107.6237809  63.3819338  33.6968925 107.5011382
  63.0437849  33.5809990 106.6131916  64.2509106  33.2960090 107.4812388
  59.2406153  35.5504401 103.4908272  58.6771019  35.4594338 102.7224560
  59.1258548  34.7304306 103.9710765  63.8639121  34.8503777 113.4597587
  63.8527761  34.4556575 112.5878091  64.0259760  34.1169849 114.0531359
  56.7870585  37.0455593 106.3292493  57.5791877  36.7046418 105.9138792
  57.0267236  37.1550568 107.2494646  64.8205712  39.2175369  98.8022737
  64.1693692  39.8029450  98.4156751  65.6150075  39.7481564  98.8617775
  58.7461339  36.3064506  99.2009872  59.5192215  35.7593493  99.0622748
  59.0986738  37.1708756  99.4124333  60.5846382  37.6340889 112.4076771
  60.2936248  38.5386519 112.2923437  61.2203366  37.6757416 113.1220841
  61.5102589  35.0117737 108.9978131  62.1066161  34.7873759 108.2835094
  61.5677560  34.2702483 109.6003579  66.1270900  31.4692951 104.6403065
  66.9133989  31.0512374 104.2893482  66.3909604  32.3739043 104.8084713
  66.2980977  36.9065801  99.3391722  65.6626810  36.9800428 100.0512626
  65.9678384  37.4959400  98.6610801  71.5279327  31.4068184 105.5436043
  72.2604499  30.8367401 105.7773873  70.7718683  31.0189784 105.9842549
  60.8023906  34.3685278  99.0352697  60.6860164  33.6930182  99.7033781
  60.9126166  33.8817652  98.2184850  63.1455447  33.8295425 102.7399386
  62.7813654  33.3026046 103.4512307  64.0022563  33.4393895 102.5665871
  69.0504747  25.1189758 110.0030652  68.7188072  25.9885169 109.7791867
  68.4550361  24.8026042 110.6824682  62.7860934  28.8585325  97.7360734
  62.9535336  29.7265562  98.1031205  62.5958103  29.0212607  96.8122024
  65.5436267  37.3202304 109.4026565  65.2436990  38.2227343 109.2942372
  65.1987326  37.0534487 110.2547718  58.9948748  33.7716101 105.4363269
  58.0699245  33.6392315 105.6440961  59.2433162  34.5510320 105.9333212
  68.9433411  29.8384844 107.0824002  68.0350288  29.7700253 106.7882763
  68.8921007  30.3156789 107.9105828  62.7650155  31.3142983  98.7207401
  62.6449780  31.7600033  99.5592881  62.0702743  31.6628300  98.1620939
  56.3557559  33.4149374 106.2707058  56.4849941  33.6683853 107.1846470
  55.6755011  34.0077082 105.9511713  60.5257047  44.0846624 102.3697532
  60.4481076  45.0354450 102.4486013  59.9218690  43.7392497 103.0272459
  63.0174276  31.2574490 115.0258899  62.2407611  31.8168410 115.0161764
  63.6564840  31.7431273 115.5473769  70.8095057  28.0401283 108.8601876
  70.1669437  28.3333816 108.2141671  70.3049986  27.9254203 109.6655073
  68.4635221  31.7864456  99.5487735  69.3753077  32.0191843  99.3735433
  67.9544868  32.3701500  98.9862814  61.2720649  34.0659943 114.5876866
  62.0135333  34.6044987 114.3111690  60.5657634  34.6926232 114.7448418
  66.7475988  36.2089084 113.1849028  67.1559344  35.7671494 112.4403660
  66.0253250  35.6341711 113.4383221  63.1007058  31.1461690 110.5582585
  63.9468254  31.5701104 110.7017234  63.0405696  30.4895315 111.2521148
  67.0704803  36.7690274 106.9401317  66.4413666  36.9335988 106.2377385
  66.6830465  37.1831884 107.7112281  70.9494035  37.7044712 104.2945680
  70.2645073  38.0843614 103.7442714  71.0337884  38.3140039 105.0277628
  66.2506504  28.8066059 112.2163758  66.0067436  29.5608119 111.6798034
  66.5266434  29.1851406 113.0511005  68.2044967  35.3504671 110.8941024
  68.4161862  35.9936431 110.2175405  68.1574715  34.5166988 110.4262954
  65.8071196  27.9622492 107.7977596  64.9455675  28.2603745 108.0894334
  65.8333630  28.1792891 106.8658629  62.6232765  36.5064682 104.2051402
  63.0871110  36.7852385 103.4156024  62.3589563  35.6048127 104.0224492
  59.5156846  36.0536164 107.1431165  60.0858203  36.4823432 106.5048650
  60.1064958  35.7718749 107.8415351  61.5601651  32.6287835 101.0140967
  62.2625694  33.0808878 101.4814893  61.2282280  31.9871654 101.6420860
  60.0082013  31.2199591 115.3892176  59.3780673  31.9015872 115.6227573
  59.9018100  31.1082673 114.4445315  55.3026985  30.8871387 106.3158100
  54.5126039  31.1428916 105.8398211  55.7938232  31.7019725 106.4210141
  69.3190795  38.2276627 109.0663381  70.1408238  37.8256814 108.7846063
  69.3153197  38.1244861 110.0179497  57.2541730  31.2515967 103.2741577
  56.4572894  31.3634661 103.7925073  57.0267323  31.5902619 102.4082468
  63.0847398  37.7760670 111.2224092  63.1491831  38.2381077 112.0582264
  62.3758322  37.1458035 111.3506402  53.5864688  31.1401878 108.7473091
  53.8372726  32.0248888 109.0130667  54.1224236  30.9606479 107.9748183
  77.4096788  34.5715375 105.4148353  76.6560496  34.0022773 105.2592357
  77.5444329  34.5378040 106.3618987  62.7995416  39.4428777 101.0903072
  62.6641090  40.2880313 101.5187920  63.3405228  39.6448055 100.3269006
  59.2862755  25.5220357 117.7517427  58.8929701  24.9686556 118.4265072
  60.1028896  25.8330936 118.1423945  56.2524813  36.9604215 101.6630997
  56.7649334  37.7547466 101.8136562  56.9047526  36.2630506 101.5964599
  58.0619698  40.0769972 103.7453750  58.2386326  40.9987936 103.5574734
  58.8576531  39.7628391 104.1748130  62.2030716  26.9378236 115.3437684
  62.9440430  27.5385389 115.2642146  62.4348639  26.1955874 114.7855727
  57.3472054  32.1234604 113.6215914  57.2325569  31.2219861 113.9223013
  56.4916572  32.3698300 113.2700730  64.4263892  40.0652344 115.2203414
  63.9827746  39.2788722 114.9024319  65.0881106  40.2531494 114.5547305
  59.1851013  41.5948145 109.7464093  59.7358438  41.4665209 108.9741087
  58.3462489  41.8943034 109.3958986  66.5245130  40.3455144 113.2484816
  66.5063605  41.1664025 112.7565085  67.4465050  40.2209219 113.4734957
  62.9818184  37.8599273 114.0908324  63.5146521  37.0987561 113.8607632
  62.4532265  37.5672925 114.8332478  66.1487879  22.9659339 109.6201966
  65.8052149  23.8560981 109.5441076  66.5166842  22.7760997 108.7571551
  54.2173730  35.2892870 102.4390568  55.0548952  35.6989878 102.2224275
  54.3951998  34.3492312 102.4090762  66.1138162  32.9567950  98.1274401
  65.5984785  33.7272555  98.3662788  65.8415470  32.2833087  98.7507462
  63.6985273  27.8017651 103.1859639  62.8426869  27.4124502 103.0065278
  64.1112225  27.8809612 102.3259425  65.2284420  25.3363994 107.5851199
  64.7249215  25.2994130 106.7719004  65.5215026  26.2456737 107.6447856
  61.4727305  25.4202724 106.5917381  62.3380302  25.2245533 106.2323270
  61.5404814  25.1913076 107.5186737  71.0872436  35.7100305 100.0627574
  70.3101879  35.3711465  99.6182736  71.7663917  35.7152928  99.3882539
  65.9024465  30.8295042  99.9534182  65.5974601  31.1441192 100.8044325
  66.8554907  30.9076462  99.9961515  64.3470897  36.9885266 101.6027136
  63.8192259  36.2538025 101.2900373  63.8458400  37.7659942 101.3567104
  69.3263743  35.1834286 106.7194182  68.6687417  35.8733548 106.8074311
  70.1304142  35.5730718 107.0628169  59.0789625  27.6504932 103.9633747
  59.6533376  27.4280114 103.2306940  59.6660607  27.7193627 104.7162349
  68.1369202  33.5378659 104.7698124  68.6501084  34.1708651 105.2719834
  68.7870426  32.9379854 104.4041484  59.4059212  29.6809393  97.9829633
  58.5696524  30.0184080  98.3038907  59.2663981  29.5458373  97.0456770
  61.3812292  24.5246181 102.6908817  60.7276705  24.2095198 102.0665432
  61.3392766  23.9021921 103.4168640  64.6150033  31.0128115 107.0156464
  63.6972594  31.2343062 106.8578153  65.0310176  31.0874425 106.1568172
  65.3985080  32.4119530 102.1459145  66.1456899  32.9240927 101.8366267
  65.6676670  32.0903583 103.0063538  63.6711731  34.9078071  99.1286099
  62.7622950  34.6237104  99.2258569  63.7006814  35.3277149  98.2689406
  68.9030998  38.5184660 102.8977267  68.4493325  37.6775570 102.9542457
  68.2724965  39.1546059 103.2352047  67.8463918  29.4476646 104.1277934
  67.1086674  28.9354033 104.4588177  68.0990691  29.0077028 103.3161211
  67.3463937  40.3561157 103.8327085  67.6386912  40.9166214 103.1139450
  67.8562558  40.6489718 104.5880244  67.9475545  22.2252898 104.7219703
  68.2534422  21.3650262 104.4345618  68.6728150  22.8170519 104.5218697
  54.2399901  32.6283585 103.1101301  54.0424301  32.0352946 102.3852368
  53.6846565  32.3235795 103.8277240  62.2196625  32.5206692 105.2295894
  62.2745234  31.5680528 105.1538371  61.4087827  32.6766131 105.7137193
  60.1588985  31.1383751 102.9886273  59.3456850  31.4377922 103.3951465
  60.6547979  30.7439440 103.7060755  62.3097562  41.1341508 104.9220538
  62.2673741  41.3602354 103.9929070  63.2260261  40.9004883 105.0706339
  65.7563196  31.6025576 111.8201167  66.1112584  31.8297049 112.6795633
  66.4035327  31.9343953 111.1978422  71.4860933  34.7244012 102.5250496
  71.3478832  34.9145608 101.5971685  71.1297152  35.4863394 102.9818547
  59.6503059  28.7102107 108.6047508  60.2902439  28.5690866 107.9070472
  58.8180590  28.4236620 108.2286110  71.5130313  36.7920539 107.5361768
  71.9466819  36.6995828 108.3844822  72.2261893  36.7678039 106.8981784
  60.4263363  38.0104537 104.7182501  61.2203962  37.5154857 104.5165076
  59.7155056  37.4822400 104.3550206  65.2458208  40.3922633 109.0694868
  65.2995230  40.9613569 109.8372584  64.3772989  40.5624518 108.7048905
  56.7346127  32.1547619 100.7942253  55.8043715  32.0932074 101.0112215
  56.8303599  31.6323572  99.9978895  56.6531676  28.6802432 103.3820495
  56.9138493  29.5947765 103.2729655  57.4748848  28.2126874 103.5317108
  58.1256601  30.0940189 110.5519320  58.7979654  29.8857551 109.9031968
  57.2986388  29.8962275 110.1124552  72.3745862  36.8344239 110.0694653
  72.5681752  37.7390050 110.3153928  72.2746480  36.3751658 110.9033238
  64.0282173  26.7202130 112.5684980  63.3810088  27.4192080 112.4749457
  64.7983188  27.1538274 112.9361229  67.4360971  36.9850982 115.6435534
  67.2846477  36.7561534 114.7265617  67.4265650  37.9421583 115.6566879
  64.2046307  34.5582895 110.6281800  65.1338367  34.7094054 110.4550767
  63.7837337  34.6466916 109.7730447  63.0034639  38.5833559 108.3980338
  62.8645725  38.2152344 109.2706276  62.2149235  39.0981199 108.2264296
  63.5982791  43.6842656  99.7405874  63.7734547  43.2130699 100.5551497
  62.9115579  44.3108422  99.9687135  64.5539854  37.9615162 105.7869176
  64.2189687  37.9215932 106.6826825  64.0543800  37.2959878 105.3139586
  58.5284098  33.3682792 111.3121757  58.3903896  32.6363031 111.9133296
  59.4389022  33.2791692 111.0305944  61.1566399  33.0802751 110.8005436
  61.8666017  32.4395943 110.7592055  61.1135707  33.3315646 111.7231617
  69.1453178  40.0170105 113.7212016  69.0865724  39.3329325 113.0542599
  69.5472696  40.7589095 113.2692642  59.8695333  30.0667969 112.6201076
  59.3332690  29.6158708 113.2722672  59.2812041  30.2013878 111.8771540
  58.1643876  46.8332018 106.5145734  58.4040475  47.4650543 107.1924753
  57.3213073  46.4820058 106.8011094  69.1470585  37.9809689 111.9525995
  68.2597364  37.6435610 112.0752394  69.7169136  37.2492720 112.1894761
  50.7999732  34.3133780 105.2769047  51.4870772  33.9995510 104.6890062
  50.6447861  35.2175145 105.0036298  55.6034454  29.2023977 109.7054070
  55.5192643  28.5949646 108.9704480  54.7817161  29.6932995 109.7063567
  62.6771738  42.6411141 108.9187238  62.6041910  43.4466112 109.4306543
  62.2349131  42.8403107 108.0935260  62.4661518  41.8782911 102.4290060
  61.6829040  42.4204591 102.5228284  63.1654263  42.3956891 102.8284301
  65.7758168  27.6877540 105.0724265  66.2726868  26.9347503 104.7525336
  65.0045150  27.7241857 104.5067475  73.6287925  33.3917906 106.7142557
  73.6177802  34.2742621 106.3436490  72.7605305  33.0389457 106.5197094
  65.1370422  42.5397975 111.0745397  65.8498394  43.1745440 111.0021299
  64.6460450  42.6361841 110.2585399  66.8587949  36.4449228 102.6462689
  65.9244227  36.5650690 102.4767393  67.0364617  35.5421694 102.3822699
  62.3593137  29.8294923 104.7995950  61.9890924  29.2765964 105.4876856
  62.8552229  29.2253057 104.2470950  70.2460500  32.2866547 103.1812723
  70.7120952  33.1194538 103.1073026  70.6968001  31.8211528 103.8857981
  60.1882335  40.2892418 111.8950968  60.8891795  40.9228901 112.0480362
  59.7177450  40.6307150 111.1346607  68.2177163  24.6547134 107.2203624
  67.3040243  24.8851361 107.3885831  68.6470264  24.7385578 108.0717657
  67.9883621  32.8437026 109.7203518  67.3355072  33.0912933 109.0655971
  68.3664001  32.0301164 109.3865996  64.9490795  42.8796719 103.8231689
  65.1313190  42.0618375 104.2859441  65.7723781  43.0964411 103.3856579
  65.2832961  41.8064904 101.0846737  65.8120727  41.2957359 100.4716899
  65.5461180  41.4907434 101.9492270  64.0371194  33.5856837 116.2069555
  63.3611831  33.4850966 116.8771931  64.8598828  33.4296051 116.6705553
  55.7850053  39.8228773 108.8282071  56.3703490  39.0772461 108.9609975
  55.5874892  40.1332730 109.7118734  58.6388709  42.8580021 103.8444513
  57.9699084  43.3426148 103.3608553  58.5001578  43.1049241 104.7587892
  50.3767708  32.3934374 107.5486514  50.4151808  31.8597964 108.3423632
  49.8708001  31.8669579 106.9297491  62.7793977  44.8923764 110.4427171
  63.3312285  45.0555386 111.2076257  63.1200171  45.4828202 109.7707196
  57.7558470  27.2398914 111.0449056  57.8199797  28.1013745 110.6326454
  57.6925591  26.6272916 110.3121415  57.2310743  29.3122047 114.6922090
  57.8582782  28.9299124 115.3059615  56.3738662  29.0936249 115.0577783
  67.6304852  39.7185022 116.2975826  68.1744756  40.3314980 115.8030781
  67.0491696  40.2764600 116.8142839  54.0076286  31.1198476 100.6240445
  54.3029727  30.2109154 100.5707499  53.1064321  31.0986215 100.3021447
  65.9162365  42.8405740 107.4290854  65.7913504  42.0395480 106.9201799
  66.5741456  43.3351933 106.9404823  57.5370533  29.1954472 106.6067994
  56.8157118  29.8090440 106.4675467  58.3263789  29.7312237 106.5284640
  67.9797273  40.6414760 109.0570404  67.0327608  40.5220111 108.9848730
  68.3280046  39.7537258 109.1396665  60.3396846  26.5308899 112.8808645
  60.8631248  26.7771195 113.6434955  60.1209180  27.3628934 112.4611783
  55.7364127  28.8012573 100.7479770  55.4076833  27.9209952 100.5654876
  56.0903498  28.7460242 101.6356160  64.9843706  40.4367476 105.2574756
  64.8368669  39.5084184 105.4382326  65.8097200  40.4587567 104.7731831
  58.8505950  29.0885543 101.1155248  59.1902023  29.6171464 100.3933856
  59.2978071  29.4265949 101.8913814  68.5877828  41.2596035 106.3439629
  69.5124376  41.0538896 106.2064080  68.4193131  41.0112436 107.2528970
  61.5449391  27.4722594 110.5658316  61.2046212  26.6730407 110.9678996
  60.8388398  27.7724305 109.9935149  62.1965863  24.5571906 109.0185639
  63.0191932  24.0832385 108.8964529  62.4403927  25.3362390 109.5184325
  60.8374098  27.5860165  99.3148541  61.5582460  27.9641418  98.8112258
  60.2139402  28.3049042  99.4183519  64.9805221  28.2905314 100.2506873
  65.1968835  29.1729952  99.9495701  64.4999288  27.8991527  99.5212515
  59.7204442  31.2491027 106.8277618  59.5749023  31.5631330 107.7201899
  59.2429646  31.8675927 106.2748516  61.5800825  28.2393575 106.8758507
  61.5662394  27.3434668 106.5390805  62.2973253  28.2464239 107.5096793
  63.4326955  28.6730915 108.9211635  63.1744733  29.5947986 108.9195965
  62.9011996  28.2761350 109.6112099  68.3773144  41.7781702 101.7001720
  68.5510022  41.2128125 100.9475572  68.8702035  42.5782597 101.5181210
  54.1950104  33.7896371 109.7665279  53.6503572  34.5656179 109.8985553
  55.0729454  34.1367176 109.6084400  60.9837721  27.1207955 102.1446077
  61.1053632  26.1924601 102.3436965  60.6939763  27.1346641 101.2324393
  63.8528911  24.8062866 105.2812797  63.8750608  24.8702199 104.3264777
  64.2696970  23.9667374 105.4753303  74.2312535  34.5418125 103.3192020
  74.6743681  33.7925450 102.9211143  73.3539046  34.5328262 102.9365752
  54.9816126  32.9166268 112.6595436  54.2397862  33.0648903 113.2460066
  54.6608870  33.1774533 111.7962185  62.9259789  42.4582246 112.4575826
  63.2346915  42.2131393 113.3298525  63.7235271  42.6628884 111.9694696
  62.9480401  44.6120156 104.6881202  62.5085391  44.1196534 105.3814059
  63.6988518  44.0693123 104.4473277  55.4272740  40.8031696 104.6905830
  56.2530759  40.5035468 104.3104474  55.0766792  40.0339319 105.1395619
  60.3954273  40.1558165 106.7603504  59.7734282  39.4928870 106.4605732
  61.0659140  40.1819297 106.0777152  53.6281345  38.7218023 105.6494764
  52.7913253  38.2940197 105.4678765  53.6004990  38.9150466 106.5865555
  60.4678800  28.6339953 116.3536010  60.5166956  29.5102075 115.9713780
  61.0101314  28.0917346 115.7807653  70.9533646  39.1781076 115.6337147
  70.1629190  39.1605215 115.0941646  70.7167000  39.7169370 116.3886184
  71.0731521  36.0273542 112.9469876  71.1229526  35.8623550 113.8885398
  70.9645444  35.1600801 112.5567756  59.9567780  38.7062088 100.2361964
  60.1055900  39.3897552  99.5828637  60.7634223  38.6867178 100.7511420
  68.3635283  32.0104470 114.2629182  69.2645146  31.8710935 113.9713180
  68.4383258  32.1758925 115.2027360  62.6978089  29.3871325 113.1082369
  61.8281398  29.6804891 112.8364957  62.9337569  29.9711770 113.8289632
  72.5749718  38.4470484 113.1911897  72.2834526  38.8100464 114.0275358
  71.9621849  37.7337492 113.0125229  73.7745400  36.0123364 105.7114467
  74.6092291  36.4513168 105.8752028  73.9104529  35.5362017 104.8922713
  70.8236906  33.5703098 111.6591955  71.2991028  33.7630745 110.8510806
  69.9002471  33.6262284 111.4135339  57.7120413  34.7327266 101.2423033
  57.4666455  33.8289596 101.4403244  57.8816327  34.7344416 100.3002511
  65.4017123  25.6050942 110.6247789  65.9199066  26.3411969 110.2994278
  65.0472255  25.9114935 111.4594548  56.9816060  30.4655623  98.7409195
  56.2885305  30.5399978  98.0849231  56.7367812  29.7015967  99.2630712
  65.6529717  22.0251225 106.1448686  65.9331470  21.3574414 106.7709112
  66.4380324  22.2180320 105.6323349  69.5238575  30.4468859 109.8920261
  70.4755998  30.5466956 109.9132485  69.3542025  29.6547127 110.4018345
  67.5452955  27.5324442 110.0779662  66.9502887  27.8129454 109.3826150
  67.2602651  28.0218343 110.8496403  72.0026653  33.6674978 109.0062560
  71.9702973  32.7290979 109.1922244  72.6127276  33.7459015 108.2728385
  72.1521141  30.4586022 109.0520844  71.6360190  29.6744478 108.8650772
  73.0361090  30.1304738 109.2167363  69.8131868  24.2027037 105.0116656
  69.6156689  23.8942125 105.8959988  70.4231574  24.9288676 105.1414586
  77.8203203  34.7290985 108.1468597  78.5506591  34.4676273 108.7076300
  77.2110148  33.9919707 108.1870665  75.9018500  32.8698848 108.7443048
  75.1751663  32.7354813 108.1359540  75.4865787  33.1775676 109.5499766
  63.7248676  36.5888777 116.5090421  64.6451686  36.7667376 116.7030468
  63.6898259  35.6444823 116.3570121  52.9430841  31.7827371 105.4343696
  52.6233626  30.9292679 105.1418070  52.3964269  31.9975949 106.1901663
  56.7210749  34.4989812 109.1513203  56.9396759  35.4306920 109.1701236
  57.1336523  34.1397786 109.9368006  63.6414967  25.0057897 101.1388891
  62.8315695  24.6604982 101.5144137  64.3299383  24.6965441 101.7276502
  65.5705515  24.0835944 102.7613188  66.1236553  24.5031397 103.4203211
  65.8075601  23.1571692 102.8036144  61.5938614  30.0723018 118.5415951
  61.4935341  31.0217375 118.4728043  61.3760156  29.7441257 117.6692022
  52.8119101  35.4030282 107.4036818  52.1182573  34.9884235 106.8906772
  53.5592092  35.4450819 106.8070236  68.9484322  26.1936469 102.2691852
  68.3682991  26.8521273 101.8869904  68.6820255  25.3713814 101.8579269
  67.3987888  25.5941527 104.4713172  67.8987667  25.7058061 103.6627491
  68.0423496  25.2902580 105.1113981  61.4569884  33.5020157 117.3581013
  60.9736966  34.3020517 117.5644902  61.5430823  33.5128101 116.4048457
  54.7255844  35.3348536 105.2802832  54.7026532  35.4336224 104.3284716
  55.0356480  36.1813687 105.6019999  57.3843222  37.3924691 109.3949447
  58.3386475  37.3608634 109.3279378  57.1855745  36.9315315 110.2099673
  57.9742604  35.9625807 111.9620245  58.7935493  36.4569886 111.9855082
  58.2479411  35.0457775 111.9337812  67.7309200  28.3536560 101.3248200
  66.8435055  28.6386210 101.1068395  68.1463189  28.1930323 100.4775477
  71.0823736  28.3783081 105.0402539  71.8584126  28.8679533 105.3127156
  70.3571870  28.8041135 105.4974409  73.5196295  29.0910700 106.0976480
  74.1140786  28.8506436 105.3869788  73.5922878  28.3717830 106.7250016
  55.7393450  42.9344311 106.4119645  55.6047918  42.1744712 105.8457643
  55.3225513  43.6585211 105.9448434  67.7050224  33.8691096 101.5398490
  67.6485425  34.3259647 100.7006123  68.2578566  33.1081780 101.3621333
  71.5155030  29.6580827 102.3648610  71.2591964  29.2577463 103.1956817
  70.8907898  30.3724621 102.2398749  75.8267367  32.3976901 104.8719901
  75.2666925  32.4670090 105.6451463  75.2210871  32.2217885 104.1519397
  58.8962576  43.8313628 106.6238087  58.7794960  44.7759060 106.5216778
  58.0755023  43.5287189 107.0123887  68.4385003  35.0595877  98.8351019
  68.3833807  34.8940148  97.8939464  67.8131058  35.7671910  98.9913209
  53.2277518  30.2963941 112.6612442  53.8736382  29.7862895 113.1499667
  53.0194669  31.0332623 113.2355867  65.7530910  37.3644789 118.1604582
  66.6222070  37.5385441 117.7991217  65.2737662  38.1839205 118.0380312
  61.7481128  24.5603986  98.4136338  61.7359798  25.5045826  98.5704609
  62.6404550  24.3774131  98.1195799  59.9217090  44.4841890 109.8394016
  60.8244337  44.5165500 110.1560511  59.6954460  43.5542341 109.8540352
  61.6770692  43.2372876 106.5004094  60.7266323  43.2374738 106.3868467
  61.9803179  42.4905611 105.9840129  65.5633248  21.1546762 102.6682275
  64.7965644  20.6005249 102.8138957  65.9743953  21.2268631 103.5296426
  57.5675009  27.4431558 116.7587456  58.4306471  27.0868363 116.9690780
  56.9940420  27.1045453 117.4462860  77.4123386  49.0733415 107.5649857
  78.0501796  48.9540162 106.8613197  77.2944229  50.0214259 107.6237809
  74.2213092  49.0260843 107.5011382  73.8831604  48.9101907 106.6131916
  75.0902860  48.6252008 107.4812388  74.7032875  50.1795694 113.4597587
  74.6921516  49.7848493 112.5878091  74.8653515  49.4461767 114.0531359
  71.4240136  52.9632806 112.4076771  71.1330002  53.8678437 112.2923437
  72.0597121  53.0049334 113.1220841  72.3496343  50.3409655 108.9978131
  72.9459915  50.1165677 108.2835094  72.4071315  49.5994400 109.6003579
  76.9664654  46.7984868 104.6403065  77.7527744  46.3804292 104.2893482
  77.2303359  47.7030961 104.8084713  82.3673082  46.7360102 105.5436043
  83.0998253  46.1659318 105.7773873  81.6112437  46.3481702 105.9842549
  79.8898502  40.4481676 110.0030652  79.5581827  41.3177087 109.7791867
  79.2944115  40.1317960 110.6824682  76.3830021  52.6494222 109.4026565
  76.0830745  53.5519261 109.2942372  76.0381081  52.3826405 110.2547718
  69.8342503  49.1008019 105.4363269  68.9092999  48.9684233 105.6440961
  70.0826916  49.8802238 105.9333212  79.7827165  45.1676762 107.0824002
  78.8744043  45.0992170 106.7882763  79.7314761  45.6448707 107.9105828
  67.1951314  48.7441292 106.2707058  67.3243695  48.9975771 107.1846470
  66.5148765  49.3369000 105.9511713  73.8568031  46.5866408 115.0258899
  73.0801365  47.1460328 115.0161764  74.4958594  47.0723191 115.5473769
  81.6488812  43.3693200 108.8601876  81.0063192  43.6625733 108.2141671
  81.1443740  43.2546121 109.6655073  72.1114403  49.3951861 114.5876866
  72.8529088  49.9336905 114.3111690  71.4051389  50.0218150 114.7448418
  77.5869743  51.5381001 113.1849028  77.9953099  51.0963412 112.4403660
  76.8647004  50.9633629 113.4383221  73.9400813  46.4753608 110.5582585
  74.7862008  46.8993022 110.7017234  73.8799451  45.8187232 111.2521148
  77.9098558  52.0982192 106.9401317  77.2807420  52.2627906 106.2377385
  77.5224220  52.5123802 107.7112281  77.0900258  44.1357976 112.2163758
  76.8461190  44.8900037 111.6798034  77.3660189  44.5143324 113.0511005
  79.0438721  50.6796589 110.8941024  79.2555616  51.3228349 110.2175405
  78.9968469  49.8458905 110.4262954  76.6464950  43.2914409 107.7977596
  75.7849429  43.5895663 108.0894334  76.6727385  43.5084808 106.8658629
  70.8475767  46.5491509 115.3892176  70.2174428  47.2307790 115.6227573
  70.7411855  46.4374591 114.4445315  66.1420739  46.2163305 106.3158100
  65.3519793  46.4720834 105.8398211  66.6331987  47.0311643 106.4210141
  80.1584549  53.5568544 109.0663381  80.9801993  53.1548732 108.7846063
  80.1546952  53.4536778 110.0179497  68.0935485  46.5807884 103.2741577
  67.2966648  46.6926579 103.7925073  67.8661077  46.9194537 102.4082468
  73.9241152  53.1052588 111.2224092  73.9885585  53.5672995 112.0582264
  73.2152076  52.4749952 111.3506402  64.4258442  46.4693796 108.7473091
  64.6766481  47.3540805 109.0130667  64.9617991  46.2898397 107.9748183
  88.2490542  49.9007293 105.4148353  87.4954250  49.3314691 105.2592357
  88.3838083  49.8669957 106.3618987  70.1256510  40.8512275 117.7517427
  69.7323455  40.2978473 118.4265072  70.9422650  41.1622853 118.1423945
  73.0424471  42.2670154 115.3437684  73.7834184  42.8677307 115.2642146
  73.2742394  41.5247792 114.7855727  68.1865809  47.4526521 113.6215914
  68.0719324  46.5511778 113.9223013  67.3310327  47.6990218 113.2700730
  75.2657647  55.3944262 115.2203414  74.8221501  54.6080640 114.9024319
  75.9274860  55.5823412 114.5547305  70.0244768  56.9240063 109.7464093
  70.5752193  56.7957127 108.9741087  69.1856244  57.2234952 109.3958986
  77.3638885  55.6747061 113.2484816  77.3457360  56.4955943 112.7565085
  78.2858805  55.5501137 113.4734957  73.8211939  53.1891191 114.0908324
  74.3540276  52.4279479 113.8607632  73.2926020  52.8964843 114.8332478
  76.9881634  38.2951257 109.6201966  76.6445903  39.1852899 109.5441076
  77.3560596  38.1052915 108.7571551  76.0678174  40.6655912 107.5851199
  75.5642970  40.6286047 106.7719004  76.3608781  41.5748655 107.6447856
  72.3121060  40.7494642 106.5917381  73.1774057  40.5537450 106.2323270
  72.3798569  40.5204994 107.5186737  80.1657497  50.5126204 106.7194182
  79.5081172  51.2025465 106.8074311  80.9697897  50.9022636 107.0628169
  69.9183379  42.9796850 103.9633747  70.4927131  42.7572031 103.2306940
  70.5054361  43.0485544 104.7162349  78.9762956  48.8670577 104.7698124
  79.4894838  49.5000568 105.2719834  79.6264180  48.2671772 104.4041484
  75.4543787  46.3420032 107.0156464  74.5366348  46.5634979 106.8578153
  75.8703931  46.4166343 106.1568172  78.6857672  44.7768564 104.1277934
  77.9480429  44.2645950 104.4588177  78.9384446  44.3368946 103.3161211
  78.7869299  37.5544816 104.7219703  79.0928176  36.6942180 104.4345618
  79.5121904  38.1462436 104.5218697  65.0793655  47.9575503 103.1101301
  64.8818055  47.3644863 102.3852368  64.5240319  47.6527713 103.8277240
  73.0590379  47.8498609 105.2295894  73.1138989  46.8972446 105.1538371
  72.2481581  48.0058048 105.7137193  76.5956951  46.9317493 111.8201167
  76.9506338  47.1588967 112.6795633  77.2429082  47.2635870 111.1978422
  82.3254688  50.0535929 102.5250496  82.1872586  50.2437525 101.5971685
  81.9690906  50.8155312 102.9818547  70.4896814  44.0394024 108.6047508
  71.1296193  43.8982784 107.9070472  69.6574344  43.7528538 108.2286110
  82.3524067  52.1212456 107.5361768  82.7860574  52.0287745 108.3844822
  83.0655648  52.0969957 106.8981784  76.0851962  55.7214550 109.0694868
  76.1388984  56.2905487 109.8372584  75.2166744  55.8916435 108.7048905
  67.4925430  44.0094349 103.3820495  67.7532248  44.9239683 103.2729655
  68.3142603  43.5418792 103.5317108  68.9650356  45.4232107 110.5519320
  69.6373409  45.2149469 109.9031968  68.1380142  45.2254193 110.1124552
  83.2139617  52.1636157 110.0694653  83.4075507  53.0681967 110.3153928
  83.1140235  51.7043576 110.9033238  74.8675928  42.0494048 112.5684980
  74.2203843  42.7483997 112.4749457  75.6376943  42.4830191 112.9361229
  78.2754725  52.3142900 115.6435534  78.1240232  52.0853451 114.7265617
  78.2659405  53.2713501 115.6566879  75.0440062  49.8874812 110.6281800
  75.9732122  50.0385972 110.4550767  74.6231092  49.9758833 109.7730447
  73.8428394  53.9125477 108.3980338  73.7039479  53.5444261 109.2706276
  73.0542990  54.4273116 108.2264296  69.3677853  48.6974710 111.3121757
  69.2297651  47.9654948 111.9133296  70.2782776  48.6083610 111.0305944
  71.9960153  48.4094669 110.8005436  72.7059772  47.7687861 110.7592055
  71.9529462  48.6607564 111.7231617  79.9846932  55.3462022 113.7212016
  79.9259478  54.6621242 113.0542599  80.3866451  56.0881012 113.2692642
  70.7089087  45.3959887 112.6201076  70.1726444  44.9450625 113.2722672
  70.1205796  45.5305796 111.8771540  69.0037631  62.1623936 106.5145734
  69.2434229  62.7942460 107.1924753  68.1606827  61.8111976 106.8011094
  79.9864339  53.3101606 111.9525995  79.0991118  52.9727528 112.0752394
  80.5562890  52.5784637 112.1894761  66.4428209  44.5315894 109.7054070
  66.3586397  43.9241564 108.9704480  65.6210915  45.0224913 109.7063567
  73.5165493  57.9703059 108.9187238  73.4435664  58.7758030 109.4306543
  73.0742886  58.1695024 108.0935260  76.6151923  43.0169458 105.0724265
  77.1120622  42.2639420 104.7525336  75.8438904  43.0533775 104.5067475
  84.4681680  48.7209824 106.7142557  84.4571556  49.6034539 106.3436490
  83.5999059  48.3681374 106.5197094  75.9764176  57.8689893 111.0745397
  76.6892149  58.5037357 111.0021299  75.4854205  57.9653759 110.2585399
  73.1986891  45.1586841 104.7995950  72.8284679  44.6057881 105.4876856
  73.6945984  44.5544974 104.2470950  71.0276090  55.6184336 111.8950968
  71.7285549  56.2520819 112.0480362  70.5571205  55.9599068 111.1346607
  79.0570917  39.9839052 107.2203624  78.1433997  40.2143278 107.3885831
  79.4864019  40.0677496 108.0717657  78.8277376  48.1728943 109.7203518
  78.1748826  48.4204851 109.0655971  79.2057756  47.3593082 109.3865996
  74.8764949  48.9148755 116.2069555  74.2005586  48.8142884 116.8771931
  75.6992583  48.7587968 116.6705553  61.2161463  47.7226291 107.5486514
  61.2545562  47.1889882 108.3423632  60.7101755  47.1961497 106.9297491
  73.6187732  60.2215682 110.4427171  74.1706040  60.3847303 111.2076257
  73.9593925  60.8120120 109.7707196  68.5952225  42.5690832 111.0449056
  68.6593551  43.4305663 110.6326454  68.5319345  41.9564833 110.3121415
  68.0704497  44.6413964 114.6922090  68.6976536  44.2591042 115.3059615
  67.2132416  44.4228166 115.0577783  78.4698606  55.0476940 116.2975826
  79.0138510  55.6606898 115.8030781  77.8885451  55.6056518 116.8142839
  64.8470040  46.4490393 100.6240445  65.1423481  45.5401072 100.5707499
  63.9458076  46.4278133 100.3021447  68.3764287  44.5246390 106.6067994
  67.6550873  45.1382358 106.4675467  69.1657543  45.0604155 106.5284640
  78.8191027  55.9706678 109.0570404  77.8721363  55.8512029 108.9848730
  79.1673800  55.0829176 109.1396665  71.1790601  41.8600817 112.8808645
  71.7025003  42.1063113 113.6434955  70.9602934  42.6920851 112.4611783
  72.3843146  42.8014512 110.5658316  72.0439966  42.0022325 110.9678996
  71.6782152  43.1016222 109.9935149  73.0359618  39.8863824 109.0185639
  73.8585687  39.4124302 108.8964529  73.2797681  40.6654308 109.5184325
  70.5598196  46.5782945 106.8277618  70.4142777  46.8923248 107.7201899
  70.0823400  47.1967845 106.2748516  72.4194579  43.5685493 106.8758507
  72.4056148  42.6726586 106.5390805  73.1367007  43.5756156 107.5096793
  74.2720710  44.0022833 108.9211635  74.0138488  44.9239904 108.9195965
  73.7405750  43.6053267 109.6112099  65.0343859  49.1188289 109.7665279
  64.4897327  49.8948097 109.8985553  65.9123208  49.4659094 109.6084400
  74.6922666  40.1354783 105.2812797  74.7144362  40.1994116 104.3264777
  75.1090725  39.2959292 105.4753303  85.0706290  49.8710043 103.3192020
  85.5137436  49.1217368 102.9211143  84.1932800  49.8620179 102.9365752
  65.8209880  48.2458185 112.6595436  65.0791616  48.3940821 113.2460066
  65.5002625  48.5066451 111.7962185  73.7653543  57.7874164 112.4575826
  74.0740669  57.5423310 113.3298525  74.5629025  57.9920802 111.9694696
  71.3072555  43.9631870 116.3536010  71.3560710  44.8393993 115.9713780
  71.8495069  43.4209263 115.7807653  81.7927400  54.5072994 115.6337147
  81.0022944  54.4897132 115.0941646  81.5560755  55.0461287 116.3886184
  81.9125275  51.3565460 112.9469876  81.9623280  51.1915467 113.8885398
  81.8039199  50.4892719 112.5567756  79.2029038  47.3396388 114.2629182
  80.1038901  47.2002853 113.9713180  79.2777012  47.5050843 115.2027360
  73.5371843  44.7163243 113.1082369  72.6675153  45.0096809 112.8364957
  73.7731324  45.3003688 113.8289632  83.4143472  53.7762401 113.1911897
  83.1228281  54.1392382 114.0275358  82.8015604  53.0629410 113.0125229
  84.6139155  51.3415281 105.7114467  85.4486046  51.7805085 105.8752028
  84.7498283  50.8653934 104.8922713  81.6630661  48.8995016 111.6591955
  82.1384782  49.0922662 110.8510806  80.7396226  48.9554202 111.4135339
  76.2410877  40.9342860 110.6247789  76.7592821  41.6703887 110.2994278
  75.8866010  41.2406853 111.4594548  76.4923471  37.3543142 106.1448686
  76.7725225  36.6866331 106.7709112  77.2774078  37.5472238 105.6323349
  80.3632330  45.7760776 109.8920261  81.3149752  45.8758874 109.9132485
  80.1935780  44.9839045 110.4018345  78.3846709  42.8616359 110.0779662
  77.7896641  43.1421372 109.3826150  78.0996406  43.3510260 110.8496403
  82.8420407  48.9966896 109.0062560  82.8096727  48.0582897 109.1922244
  83.4521031  49.0750933 108.2728385  82.9914896  45.7877939 109.0520844
  82.4753944  45.0036396 108.8650772  83.8754844  45.4596656 109.2167363
  80.6525623  39.5318955 105.0116656  80.4550444  39.2234043 105.8959988
  81.2625328  40.2580594 105.1414586  88.6596957  50.0582903 108.1468597
  89.3900346  49.7968191 108.7076300  88.0503903  49.3211625 108.1870665
  86.7412254  48.1990765 108.7443048  86.0145418  48.0646730 108.1359540
  86.3259541  48.5067594 109.5499766  74.5642431  51.9180695 116.5090421
  75.4845440  52.0959294 116.7030468  74.5292014  50.9736740 116.3570121
  63.7824596  47.1119289 105.4343696  63.4627380  46.2584597 105.1418070
  63.2358024  47.3267867 106.1901663  67.5604503  49.8281730 109.1513203
  67.7790513  50.7598837 109.1701236  67.9730277  49.4689704 109.9368006
  72.4332369  45.4014935 118.5415951  72.3329095  46.3509292 118.4728043
  72.2153911  45.0733174 117.6692022  72.2963639  48.8312074 117.3581013
  71.8130720  49.6312434 117.5644902  72.3824578  48.8420019 116.4048457
  65.5649598  50.6640454 105.2802832  65.5420286  50.7628141 104.3284716
  65.8750235  51.5105605 105.6019999  68.2236976  52.7216609 109.3949447
  69.1780230  52.6900551 109.3279378  68.0249500  52.2607233 110.2099673
  68.8136358  51.2917725 111.9620245  69.6329247  51.7861804 111.9855082
  69.0873166  50.3749693 111.9337812  81.9217491  43.7074998 105.0402539
  82.6977881  44.1971451 105.3127156  81.1965625  44.1333052 105.4974409
  84.3590049  44.4202617 106.0976480  84.9534540  44.1798353 105.3869788
  84.4316633  43.7009748 106.7250016  86.6661122  47.7268818 104.8719901
  86.1060680  47.7962008 105.6451463  86.0604625  47.5509803 104.1519397
  64.0671272  45.6255859 112.6612442  64.7130136  45.1154813 113.1499667
  63.8588424  46.3624540 113.2355867  76.5924665  52.6936706 118.1604582
  77.4615824  52.8677359 117.7991217  76.1131416  53.5131123 118.0380312
  70.7610845  59.8133807 109.8394016  71.6638092  59.8457418 110.1560511
  70.5348215  58.8834258 109.8540352  68.4068763  42.7723476 116.7587456
  69.2700225  42.4160281 116.9690780  67.8334174  42.4337371 117.4462860
  88.2517140  64.4025332 107.5649857  88.8895550  64.2832080 106.8613197
  88.1337983  65.3506176 107.6237809  85.0606847  64.3552760 107.5011382
  84.7225358  64.2393825 106.6131916  85.9296615  63.9543925 107.4812388
  85.5426630  65.5087612 113.4597587  85.5315270  65.1140410 112.5878091
  85.7047269  64.7753685 114.0531359  86.4993221  69.8759204  98.8022737
  85.8481201  70.4613285  98.4156751  87.2937584  70.4065399  98.8617775
  82.2633891  68.2924724 112.4076771  81.9723757  69.1970355 112.2923437
  82.8990875  68.3341252 113.1220841  83.1890098  65.6701572 108.9978131
  83.7853670  65.4457595 108.2835094  83.2465069  64.9286318 109.6003579
  87.8058409  62.1276786 104.6403065  88.5921498  61.7096209 104.2893482
  88.0697113  63.0322878 104.8084713  93.2066836  62.0652019 105.5436043
  93.9392008  61.4951236 105.7773873  92.4506192  61.6773620 105.9842549
  84.8242956  64.4879261 102.7399386  84.4601163  63.9609882 103.4512307
  85.6810072  64.0977730 102.5665871  90.7292256  55.7773593 110.0030652
  90.3975581  56.6469004 109.7791867  90.1337870  55.4609877 110.6824682
  87.2223776  67.9786139 109.4026565  86.9224499  68.8811178 109.2942372
  86.8774835  67.7118323 110.2547718  90.6220920  60.4968680 107.0824002
  89.7137797  60.4284088 106.7882763  90.5708515  60.9740625 107.9105828
  84.6961785  61.9158325 115.0258899  83.9195120  62.4752245 115.0161764
  85.3352349  62.4015108 115.5473769  92.4882566  58.6985118 108.8601876
  91.8456946  58.9917651 108.2141671  91.9837495  58.5838038 109.6655073
  90.1422730  62.4448291  99.5487735  91.0540586  62.6775678  99.3735433
  89.6332377  63.0285335  98.9862814  82.9508158  64.7243779 114.5876866
  83.6922842  65.2628823 114.3111690  82.2445143  65.3510067 114.7448418
  88.4263497  66.8672919 113.1849028  88.8346853  66.4255330 112.4403660
  87.7040759  66.2925547 113.4383221  84.7794567  61.8045526 110.5582585
  85.6255763  62.2284939 110.7017234  84.7193205  61.1479150 111.2521148
  88.7492312  67.4274110 106.9401317  88.1201175  67.5919824 106.2377385
  88.3617974  67.8415719 107.7112281  92.6281544  68.3628548 104.2945680
  91.9432582  68.7427449 103.7442714  92.7125393  68.9723874 105.0277628
  87.9294013  59.4649894 112.2163758  87.6854945  60.2191955 111.6798034
  88.2053943  59.8435242 113.0511005  89.8832476  66.0088507 110.8941024
  90.0949371  66.6520266 110.2175405  89.8362224  65.1750823 110.4262954
  87.4858705  58.6206327 107.7977596  86.6243184  58.9187581 108.0894334
  87.5121139  58.8376726 106.8658629  84.3020274  67.1648518 104.2051402
  84.7658619  67.4436221 103.4156024  84.0377072  66.2631962 104.0224492
  81.6869522  61.8783427 115.3892176  81.0568182  62.5599708 115.6227573
  81.5805609  61.7666508 114.4445315  90.9978304  68.8860462 109.0663381
  91.8195747  68.4840649 108.7846063  90.9940706  68.7828696 110.0179497
  84.7634907  68.4344505 111.2224092  84.8279339  68.8964912 112.0582264
  84.0545831  67.8041870 111.3506402  75.2652197  61.7985713 108.7473091
  75.5160235  62.6832723 109.0130667  75.8011745  61.6190315 107.9748183
  99.0884297  65.2299210 105.4148353  98.3348005  64.6606608 105.2592357
  99.2231838  65.1961875 106.3618987  84.4782925  70.1012613 101.0903072
  84.3428599  70.9464148 101.5187920  85.0192737  70.3031890 100.3269006
  80.9650264  56.1804193 117.7517427  80.5717210  55.6270391 118.4265072
  81.7816405  56.4914771 118.1423945  83.8818225  57.5962072 115.3437684
  84.6227939  58.1969225 115.2642146  84.1136148  56.8539709 114.7855727
  79.0259563  62.7818439 113.6215914  78.9113078  61.8803696 113.9223013
  78.1704081  63.0282136 113.2700730  86.1051401  70.7236179 115.2203414
  85.6615255  69.9372558 114.9024319  86.7668615  70.9115330 114.5547305
  80.8638522  72.2531981 109.7464093  81.4145947  72.1249044 108.9741087
  80.0249998  72.5526870 109.3958986  88.2032639  71.0038979 113.2484816
  88.1851114  71.8247860 112.7565085  89.1252559  70.8793054 113.4734957
  84.6605693  68.5183109 114.0908324  85.1934030  67.7571397 113.8607632
  84.1319774  68.2256760 114.8332478  87.8275388  53.6243175 109.6201966
  87.4839658  54.5144816 109.5441076  88.1954351  53.4344832 108.7571551
  86.9071929  55.9947830 107.5851199  86.4036724  55.9577965 106.7719004
  87.2002535  56.9040572 107.6447856  92.7659945  66.3684140 100.0627574
  91.9889388  66.0295300  99.6182736  93.4451426  66.3736764  99.3882539
  86.0258406  67.6469101 101.6027136  85.4979768  66.9121861 101.2900373
  85.5245909  68.4243777 101.3567104  91.0051252  65.8418122 106.7194182
  90.3474926  66.5317383 106.8074311  91.8091651  66.2314554 107.0628169
  89.8156711  64.1962494 104.7698124  90.3288593  64.8292486 105.2719834
  90.4657935  63.5963690 104.4041484  87.0779085  74.1746819  97.5258795
  86.4040784  74.4778515  98.1343753  87.4644907  74.9775899  97.1764252
  86.2937542  61.6711950 107.0156464  85.3760103  61.8926897 106.8578153
  86.7097685  61.7458260 106.1568172  87.0772589  63.0703366 102.1459145
  87.8244408  63.5824763 101.8366267  87.3464179  62.7487418 103.0063538
  90.5818507  69.1768496 102.8977267  90.1280834  68.3359406 102.9542457
  89.9512474  69.8129894 103.2352047  89.5251427  60.1060482 104.1277934
  88.7874183  59.5937868 104.4588177  89.7778200  59.6660863 103.3161211
  89.0251446  71.0144992 103.8327085  89.3174421  71.5750050 103.1139450
  89.5350067  71.3073553 104.5880244  89.6263054  52.8836734 104.7219703
  89.9321931  52.0234097 104.4345618  90.3515659  53.4754354 104.5218697
  83.8984134  63.1790527 105.2295894  83.9532743  62.2264363 105.1538371
  83.0875336  63.3349966 105.7137193  83.9885071  71.7925344 104.9220538
  83.9461250  72.0186190 103.9929070  84.9047770  71.5588718 105.0706339
  87.4350705  62.2609411 111.8201167  87.7900093  62.4880884 112.6795633
  88.0822836  62.5927788 111.1978422  93.1648442  65.3827847 102.5250496
  93.0266341  65.5729443 101.5971685  92.8084661  66.1447230 102.9818547
  93.1917822  67.4504374 107.5361768  93.6254328  67.3579663 108.3844822
  93.9049402  67.4261874 106.8981784  86.9245717  71.0506468 109.0694868
  86.9782739  71.6197404 109.8372584  86.0560498  71.2208353 108.7048905
  79.8044110  60.7524024 110.5519320  80.4767163  60.5441386 109.9031968
  78.9773897  60.5546110 110.1124552  94.0533371  67.4928075 110.0694653
  94.2469261  68.3973885 110.3153928  93.9533989  67.0335494 110.9033238
  85.7069682  57.3785965 112.5684980  85.0597597  58.0775915 112.4749457
  86.4770697  57.8122109 112.9361229  89.1148480  67.6434817 115.6435534
  88.9633986  67.4145369 114.7265617  89.1053159  68.6005419 115.6566879
  85.8833816  65.2166730 110.6281800  86.8125876  65.3677890 110.4550767
  85.4624846  65.3050751 109.7730447  84.6822148  69.2417395 108.3980338
  84.5433234  68.8736179 109.2706276  83.8936744  69.7565034 108.2264296
  85.2770300  74.3426491  99.7405874  85.4522056  73.8714534 100.5551497
  84.5903088  74.9692257  99.9687135  86.2327363  68.6198997 105.7869176
  85.8977196  68.5799767 106.6826825  85.7331309  67.9543713 105.3139586
  80.2071607  64.0266627 111.3121757  80.0691405  63.2946866 111.9133296
  81.1176531  63.9375527 111.0305944  82.8353908  63.7386587 110.8005436
  83.5453526  63.0979779 110.7592055  82.7923216  63.9899481 111.7231617
  90.8240687  70.6753940 113.7212016  90.7653233  69.9913160 113.0542599
  91.2260205  71.4172930 113.2692642  81.5482842  60.7251804 112.6201076
  81.0120199  60.2742543 113.2722672  80.9599550  60.8597713 111.8771540
  79.8431385  77.4915854 106.5145734  80.0827984  78.1234378 107.1924753
  79.0000582  77.1403894 106.8011094  90.8258094  68.6393524 111.9525995
  89.9384873  68.3019446 112.0752394  91.3956645  67.9076555 112.1894761
  72.4787241  64.9717616 105.2769047  73.1658281  64.6579346 104.6890062
  72.3235370  65.8758980 105.0036298  77.2821963  59.8607812 109.7054070
  77.1980152  59.2533482 108.9704480  76.4604670  60.3516830 109.7063567
  84.3559247  73.2994976 108.9187238  84.2829419  74.1049948 109.4306543
  83.9136640  73.4986942 108.0935260  84.1449027  72.5366746 102.4290060
  83.3616549  73.0788426 102.5228284  84.8441772  73.0540726 102.8284301
  87.4545677  58.3461376 105.0724265  87.9514377  57.5931338 104.7525336
  86.6832659  58.3825692 104.5067475  95.3075434  64.0501741 106.7142557
  95.2965311  64.9326457 106.3436490  94.4392814  63.6973292 106.5197094
  86.8157931  73.1981810 111.0745397  87.5285903  73.8329275 111.0021299
  86.3247959  73.2945676 110.2585399  88.5375458  67.1033063 102.6462689
  87.6031736  67.2234525 102.4767393  88.7152126  66.2005530 102.3822699
  91.9248009  62.9450382 103.1812723  92.3908461  63.7778374 103.1073026
  92.3755510  62.4795364 103.8857981  81.8669844  70.9476254 111.8950968
  82.5679304  71.5812737 112.0480362  81.3964959  71.2890985 111.1346607
  89.9924240  69.2894203 100.1798875  90.2684084  69.1750798 101.0892749
  89.1228739  68.8911688 100.1411048  89.8964672  55.3130969 107.2203624
  88.9827752  55.5435196 107.3885831  90.3257773  55.3969413 108.0717657
  89.6671130  63.5020861 109.7203518  89.0142581  63.7496769 109.0655971
  90.0451510  62.6884999 109.3865996  86.6278304  73.5380554 103.8231689
  86.8100699  72.7202210 104.2859441  87.4511290  73.7548247 103.3856579
  86.9620470  72.4648739 101.0846737  87.4908236  71.9541194 100.4716899
  87.2248689  72.1491270 101.9492270  85.7158703  64.2440672 116.2069555
  85.0399340  64.1434802 116.8771931  86.5386337  64.0879886 116.6705553
  72.0555217  63.0518209 107.5486514  72.0939317  62.5181800 108.3423632
  71.5495510  62.5253414 106.9297491  84.4581486  75.5507600 110.4427171
  85.0099794  75.7139221 111.2076257  84.7987680  76.1412037 109.7707196
  79.4345979  57.8982749 111.0449056  79.4987306  58.7597580 110.6326454
  79.3713100  57.2856751 110.3121415  78.9098252  59.9705882 114.6922090
  79.5370291  59.5882959 115.3059615  78.0526171  59.7520084 115.0577783
  89.3092361  70.3768857 116.2975826  89.8532265  70.9898815 115.8030781
  88.7279205  70.9348436 116.8142839  87.5949873  73.4989575 107.4290854
  87.4701013  72.6979315 106.9201799  88.2528965  73.9935769 106.9404823
  89.6584782  71.2998595 109.0570404  88.7115117  71.1803946 108.9848730
  90.0067555  70.4121093 109.1396665  82.0184355  57.1892734 112.8808645
  82.5418757  57.4355031 113.6434955  81.7996689  58.0212769 112.4611783
  86.6631215  71.0951311 105.2574756  86.5156178  70.1668019 105.4382326
  87.4884709  71.1171402 104.7731831  90.2665337  71.9179870 106.3439629
  91.1911884  71.7122732 106.2064080  90.0980640  71.6696271 107.2528970
  83.2236900  58.1306429 110.5658316  82.8833721  57.3314242 110.9678996
  82.5175907  58.4308140 109.9935149  83.8753372  55.2155742 109.0185639
  84.6979441  54.7416220 108.8964529  84.1191436  55.9946225 109.5184325
  90.0560653  72.4365538 101.7001720  90.2297531  71.8711960 100.9475572
  90.5489544  73.2366433 101.5181210  75.8737613  64.4480207 109.7665279
  75.3291081  65.2240015 109.8985553  76.7516963  64.7951011 109.6084400
  95.9100044  65.2001961 103.3192020  96.3531190  64.4509286 102.9211143
  95.0326555  65.1912097 102.9365752  91.0435826  71.7532302  98.7998618
  91.7386730  72.3738995  99.0185933  91.3858976  70.9027653  99.0750996
  76.6603635  63.5750103 112.6595436  75.9185371  63.7232738 113.2460066
  76.3396379  63.8358369 111.7962185  92.9427249  69.2032008 100.3285949
  93.4678573  69.5419280  99.6035269  92.8549601  68.2679023 100.1449084
  84.6047298  73.1166081 112.4575826  84.9134424  72.8715228 113.3298525
  85.4022780  73.3212720 111.9694696  84.6267910  75.2703991 104.6881202
  84.1872900  74.7780370 105.3814059  85.3776027  74.7276959 104.4473277
  82.1466309  59.2923788 116.3536010  82.1954465  60.1685911 115.9713780
  82.6888823  58.7501181 115.7807653  92.6321155  69.8364911 115.6337147
  91.8416699  69.8189050 115.0941646  92.3954509  70.3753205 116.3886184
  92.7519030  66.6857378 112.9469876  92.8017035  66.5207385 113.8885398
  92.6432953  65.8184637 112.5567756  90.0422792  62.6688306 114.2629182
  90.9432655  62.5294771 113.9713180  90.1170767  62.8342760 115.2027360
  84.3765598  60.0455160 113.1082369  83.5068907  60.3388726 112.8364957
  84.6125078  60.6295605 113.8289632  94.2537227  69.1054319 113.1911897
  93.9622035  69.4684300 114.0275358  93.6409358  68.3921327 113.0125229
  95.4532909  66.6707199 105.7114467  96.2879800  67.1097003 105.8752028
  95.5892038  66.1945852 104.8922713  92.5024415  64.2286934 111.6591955
  92.9778537  64.4214580 110.8510806  91.5789980  64.2846120 111.4135339
  87.0804632  56.2634777 110.6247789  87.5986575  56.9995804 110.2994278
  86.7259764  56.5698771 111.4594548  87.3317226  52.6835060 106.1448686
  87.6118979  52.0158249 106.7709112  88.1167833  52.8764155 105.6323349
  85.1350694  71.8594054  97.7073712  84.5624661  72.4784241  97.2544184
  85.7083488  72.4093415  98.2413634  91.2026084  61.1052694 109.8920261
  92.1543507  61.2050792 109.9132485  91.0329534  60.3130962 110.4018345
  89.2240463  58.1908277 110.0779662  88.6290396  58.4713290 109.3826150
  88.9390160  58.6802178 110.8496403  88.3547954  72.1431204  98.8382294
  89.2878627  72.0776766  99.0415170  88.2671167  72.9787471  98.3796827
  93.6814162  64.3258814 109.0062560  93.6490482  63.3874814 109.1922244
  94.2914785  64.4042850 108.2728385  93.8308650  61.1169857 109.0520844
  93.3147699  60.3328314 108.8650772  94.7148599  60.7888574 109.2167363
  91.4919377  54.8610873 105.0116656  91.2944198  54.5525961 105.8959988
  92.1019083  55.5872511 105.1414586  99.4990712  65.3874820 108.1468597
 100.2294100  65.1260109 108.7076300  98.8897657  64.6503542 108.1870665
  97.5806009  63.5282683 108.7443048  96.8539172  63.3938648 108.1359540
  97.1653296  63.8359512 109.5499766  85.4036185  67.2472613 116.5090421
  86.3239195  67.4251212 116.7030468  85.3685768  66.3028658 116.3570121
  83.2726123  60.7306853 118.5415951  83.1722850  61.6801210 118.4728043
  83.0547665  60.4025092 117.6692022  90.6271831  56.8520305 102.2691852
  90.0470500  57.5105109 101.8869904  90.3607764  56.0297649 101.8579269
  89.0775397  56.2525362 104.4713172  89.5775176  56.3641897 103.6627491
  89.7211005  55.9486415 105.1113981  83.1357393  64.1603992 117.3581013
  82.6524475  64.9604352 117.5644902  83.2218332  64.1711937 116.4048457
  79.6530113  66.6209643 111.9620245  80.4723002  67.1153721 111.9855082
  79.9266920  65.7041611 111.9337812  89.4096709  59.0120395 101.3248200
  88.5222564  59.2970046 101.1068395  89.8250698  58.8514158 100.4775477
  92.7611245  59.0366916 105.0402539  93.5371635  59.5263368 105.3127156
  92.0359379  59.4624970 105.4974409  95.1983804  59.7494535 106.0976480
  95.7928295  59.5090271 105.3869788  95.2710387  59.0301666 106.7250016
  89.3837733  64.5274931 101.5398490  89.3272934  64.9843482 100.7006123
  89.9366075  63.7665616 101.3621333  93.1942539  60.3164663 102.3648610
  92.9379473  59.9161298 103.1956817  92.5695407  61.0308457 102.2398749
  97.5054876  63.0560736 104.8719901  96.9454434  63.1253925 105.6451463
  96.8998380  62.8801721 104.1519397  80.5750085  74.4897463 106.6238087
  80.4582469  75.4342896 106.5216778  79.7542532  74.1871025 107.0123887
  74.9065027  60.9547777 112.6612442  75.5523891  60.4446731 113.1499667
  74.6982178  61.6916458 113.2355867  87.4318419  68.0228624 118.1604582
  88.3009579  68.1969276 117.7991217  86.9525171  68.8423041 118.0380312
  81.6004599  75.1425725 109.8394016  82.5031846  75.1749335 110.1560511
  81.3741969  74.2126176 109.8540352  83.3558201  73.8956712 106.5004094
  82.4053832  73.8958573 106.3868467  83.6590688  73.1489446 105.9840129
  79.2462518  58.1015394 116.7587456  80.1093980  57.7452198 116.9690780
  78.6727929  57.7629288 117.4462860  99.0910895  79.7317250 107.5649857
  99.7289305  79.6123997 106.8613197  98.9731738  80.6798094 107.6237809
  95.9000601  79.6844678 107.5011382  95.5619113  79.5685743 106.6131916
  96.7690369  79.2835843 107.4812388  91.7587417  81.5380154 103.4908272
  91.1952282  81.4470091 102.7224560  91.6439812  80.7180059 103.9710765
  96.3820384  80.8379530 113.4597587  96.3709025  80.4432328 112.5878091
  96.5441024  80.1045602 114.0531359  89.3051849  83.0331346 106.3292493
  90.0973141  82.6922171 105.9138792  89.5448499  83.1426321 107.2494646
  91.2642603  82.2940259  99.2009872  92.0373479  81.7469246  99.0622748
  91.6168002  83.1584509  99.4124333  93.1027645  83.6216642 112.4076771
  92.8117511  84.5262272 112.2923437  93.7384630  83.6633169 113.1220841
  94.0283852  80.9993490 108.9978131  94.6247424  80.7749513 108.2835094
  94.0858824  80.2578236 109.6003579  98.6452163  77.4568704 104.6403065
  99.4315253  77.0388127 104.2893482  98.9090868  78.3614796 104.8084713
 104.0460591  77.3943937 105.5436043 104.7785762  76.8243154 105.7773873
 103.2899946  77.0065537 105.9842549  93.3205169  80.3561031  99.0352697
  93.2041427  79.6805935  99.7033781  93.4307429  79.8693405  98.2184850
  95.6636710  79.8171179 102.7399386  95.2994917  79.2901799 103.4512307
  96.5203826  79.4269648 102.5665871 101.5686011  71.1065511 110.0030652
 101.2369336  71.9760922 109.7791867 100.9731624  70.7901795 110.6824682
  95.3042197  74.8461078  97.7360734  95.4716600  75.7141315  98.1031205
  95.1139366  75.0088360  96.8122024  98.0617530  83.3078057 109.4026565
  97.7618253  84.2103096 109.2942372  97.7168590  83.0410240 110.2547718
  91.5130012  79.7591854 105.4363269  90.5880508  79.6268068 105.6440961
  91.7614425  80.5386073 105.9333212 101.4614674  75.8260597 107.0824002
 100.5531552  75.7576006 106.7882763 101.4102270  76.3032542 107.9105828
  95.2831418  77.3018736  98.7207401  95.1631043  77.7475786  99.5592881
  94.5884006  77.6504053  98.1620939  88.8738823  79.4025127 106.2707058
  89.0031204  79.6559606 107.1846470  88.1936274  79.9952835 105.9511713
  95.5355540  77.2450243 115.0258899  94.7588874  77.8044163 115.0161764
  96.1746103  77.7307026 115.5473769 103.3276321  74.0277036 108.8601876
 102.6850701  74.3209569 108.2141671 102.8231249  73.9129956 109.6655073
 100.9816484  77.7740209  99.5487735 101.8934340  78.0067596  99.3735433
 100.4726131  78.3577253  98.9862814  93.7901912  80.0535696 114.5876866
  94.5316597  80.5920740 114.3111690  93.0838898  80.6801985 114.7448418
  99.2657252  82.1964837 113.1849028  99.6740608  81.7547247 112.4403660
  98.5434513  81.6217464 113.4383221  95.6188322  77.1337443 110.5582585
  96.4649517  77.5576857 110.7017234  95.5586960  76.4771068 111.2521148
  99.5886067  82.7566027 106.9401317  98.9594929  82.9211741 106.2377385
  99.2011729  83.1707637 107.7112281  98.7687767  74.7941812 112.2163758
  98.5248699  75.5483872 111.6798034  99.0447698  75.1727159 113.0511005
 100.7226230  81.3380424 110.8941024 100.9343125  81.9812184 110.2175405
 100.6755978  80.5042741 110.4262954  98.3252459  73.9498245 107.7977596
  97.4636938  74.2479498 108.0894334  98.3514894  74.1668644 106.8658629
  95.1414028  82.4940435 104.2051402  95.6052374  82.7728138 103.4156024
  94.8770827  81.5923880 104.0224492  92.0338110  82.0411917 107.1431165
  92.6039467  82.4699185 106.5048650  92.6246221  81.7594502 107.8415351
  94.0782915  78.6163588 101.0140967  94.7806958  79.0684631 101.4814893
  93.7463543  77.9747407 101.6420860  92.5263276  77.2075344 115.3892176
  91.8961937  77.8891625 115.6227573  92.4199364  77.0958426 114.4445315
  87.8208248  76.8747140 106.3158100  87.0307302  77.1304669 105.8398211
  88.3119496  77.6895478 106.4210141 101.8372058  84.2152380 109.0663381
 102.6589502  83.8132567 108.7846063 101.8334461  84.1120614 110.0179497
  89.7722994  77.2391720 103.2741577  88.9754157  77.3510414 103.7925073
  89.5448586  77.5778372 102.4082468  95.6028661  83.7636423 111.2224092
  95.6673094  84.2256830 112.0582264  94.8939585  83.1333788 111.3506402
  86.1045951  77.1277631 108.7473091  86.3553990  78.0124641 109.0130667
  86.6405500  76.9482232 107.9748183 109.9278051  80.5591128 105.4148353
 109.1741759  79.9898526 105.2592357 110.0625592  80.5253793 106.3618987
  95.3176679  85.4304530 101.0903072  95.1822354  86.2756066 101.5187920
  95.8586492  85.6323808 100.3269006  91.8044019  71.5096110 117.7517427
  91.4110964  70.9562309 118.4265072  92.6210159  71.8206689 118.1423945
  88.7706077  82.9479968 101.6630997  89.2830597  83.7423219 101.8136562
  89.4228789  82.2506259 101.5964599  90.5800961  86.0645725 103.7453750
  90.7567590  86.9863689 103.5574734  91.3757795  85.7504144 104.1748130
  94.7211980  72.9253989 115.3437684  95.4621693  73.5261142 115.2642146
  94.9529903  72.1831627 114.7855727  89.8653318  78.1110357 113.6215914
  89.7506833  77.2095614 113.9223013  89.0097836  78.3574053 113.2700730
  96.9445155  86.0528097 115.2203414  96.5009010  85.2664475 114.9024319
  97.6062369  86.2407247 114.5547305  91.7032277  87.5823899 109.7464093
  92.2539702  87.4540962 108.9741087  90.8643753  87.8818788 109.3958986
  99.0426394  86.3330897 113.2484816  99.0244869  87.1539778 112.7565085
  99.9646314  86.2084972 113.4734957  95.4999448  83.8475026 114.0908324
  96.0327785  83.0863315 113.8607632  94.9713529  83.5548678 114.8332478
  98.6669143  68.9535092 109.6201966  98.3233412  69.8436734 109.5441076
  99.0348105  68.7636750 108.7571551  86.7354993  81.2768623 102.4390568
  87.5730215  81.6865631 102.2224275  86.9133261  80.3368065 102.4090762
  98.6319425  78.9443703  98.1274401  98.1166049  79.7148308  98.3662788
  98.3596734  78.2708840  98.7507462  96.2166536  73.7893404 103.1859639
  95.3608133  73.4000255 103.0065278  96.6293488  73.8685365 102.3259425
  97.7465683  71.3239747 107.5851199  97.2430479  71.2869883 106.7719004
  98.0396290  72.2332490 107.6447856  93.9908569  71.4078477 106.5917381
  94.8561566  71.2121286 106.2323270  94.0586078  71.1788829 107.5186737
  98.4205729  76.8170795  99.9534182  98.1155864  77.1316945 100.8044325
  99.3736171  76.8952215  99.9961515 101.8445006  81.1710039 106.7194182
 101.1868681  81.8609301 106.8074311 102.6485406  81.5606471 107.0628169
  91.5970888  73.6380685 103.9633747  92.1714640  73.4155867 103.2306940
  92.1841870  73.7069380 104.7162349 100.6550465  79.5254412 104.7698124
 101.1682347  80.1584404 105.2719834 101.3051689  78.9255607 104.4041484
  91.9240475  75.6685146  97.9829633  91.0877787  76.0059833  98.3038907
  91.7845245  75.5334126  97.0456770  93.8993556  70.5121934 102.6908817
  93.2457968  70.1970951 102.0665432  93.8574030  69.8897674 103.4168640
  97.1331296  77.0003868 107.0156464  96.2153857  77.2218815 106.8578153
  97.5491440  77.0750178 106.1568172  97.9166344  78.3995283 102.1459145
  98.6638163  78.9116680 101.8366267  98.1857933  78.0779336 103.0063538
  96.1892994  80.8953824  99.1286099  95.2804213  80.6112857  99.2258569
  96.2188078  81.3152903  98.2689406 100.3645181  75.4352399 104.1277934
  99.6267938  74.9229786 104.4588177 100.6171955  74.9952781 103.3161211
 100.4656808  68.2128651 104.7219703 100.7715685  67.3526015 104.4345618
 101.1909413  68.8046272 104.5218697  86.7581164  78.6159338 103.1101301
  86.5605564  78.0228699 102.3852368  86.2027828  78.3111548 103.8277240
  94.7377888  78.5082445 105.2295894  94.7926498  77.5556281 105.1538371
  93.9269090  78.6641884 105.7137193  92.6770248  77.1259504 102.9886273
  91.8638114  77.4253675 103.3951465  93.1729242  76.7315193 103.7060755
  94.8278826  87.1217261 104.9220538  94.7855005  87.3478108 103.9929070
  95.7441525  86.8880636 105.0706339  98.2744460  77.5901329 111.8201167
  98.6293847  77.8172802 112.6795633  98.9216591  77.9219706 111.1978422
 104.0042197  80.7119765 102.5250496 103.8660095  80.9021361 101.5971685
 103.6478415  81.4739147 102.9818547  92.1684323  74.6977860 108.6047508
  92.8083702  74.5566619 107.9070472  91.3361853  74.4112373 108.2286110
 104.0311576  82.7796292 107.5361768 104.4648083  82.6871581 108.3844822
 104.7443157  82.7553792 106.8981784  92.9444627  83.9980290 104.7182501
  93.7385225  83.5030610 104.5165076  92.2336319  83.4698153 104.3550206
  97.7639471  86.3798386 109.0694868  97.8176493  86.9489322 109.8372584
  96.8954253  86.5500271 108.7048905  89.2527390  78.1423372 100.7942253
  88.3224978  78.0807827 101.0112215  89.3484862  77.6199325  99.9978895
  89.1712939  74.6678185 103.3820495  89.4319756  75.5823518 103.2729655
  89.9930112  74.2002627 103.5317108  90.6437865  76.0815942 110.5519320
  91.3160918  75.8733304 109.9031968  89.8167651  75.8838028 110.1124552
 104.8927126  82.8219992 110.0694653 105.0863016  83.7265803 110.3153928
 104.7927744  82.3627411 110.9033238  96.5463437  72.7077883 112.5684980
  95.8991352  73.4067833 112.4749457  97.3164452  73.1414027 112.9361229
  99.9542234  82.9726735 115.6435534  99.8027741  82.7437287 114.7265617
  99.9446914  83.9297336 115.6566879  96.7227571  80.5458648 110.6281800
  97.6519631  80.6969807 110.4550767  96.3018601  80.6342669 109.7730447
  95.5215903  84.5709312 108.3980338  95.3826988  84.2028097 109.2706276
  94.7330499  85.0856952 108.2264296  97.0721118  83.9490915 105.7869176
  96.7370950  83.9091685 106.6826825  96.5725063  83.2835631 105.3139586
  91.0465362  79.3558545 111.3121757  90.9085160  78.6238784 111.9133296
  91.9570285  79.2667445 111.0305944  93.6747662  79.0678504 110.8005436
  94.3847281  78.4271696 110.7592055  93.6316971  79.3191399 111.7231617
 101.6634441  86.0045858 113.7212016 101.6046987  85.3205078 113.0542599
 102.0653959  86.7464848 113.2692642  92.3876596  76.0543722 112.6201076
  91.8513953  75.6034461 113.2722672  91.7993305  76.1889631 111.8771540
 101.6651848  83.9685442 111.9525995 100.7778627  83.6311363 112.0752394
 102.2350399  83.2368473 112.1894761  83.3180996  80.3009533 105.2769047
  84.0052035  79.9871263 104.6890062  83.1629124  81.2050898 105.0036298
  88.1215718  75.1899730 109.7054070  88.0373906  74.5825399 108.9704480
  87.2998424  75.6808748 109.7063567  95.1953002  88.6286894 108.9187238
  95.1223173  89.4341865 109.4306543  94.7530395  88.8278860 108.0935260
  94.9842781  87.8658664 102.4290060  94.2010303  88.4080344 102.5228284
  95.6835527  88.3832644 102.8284301  98.2939432  73.6753293 105.0724265
  98.7908131  72.9223256 104.7525336  97.5226413  73.7117610 104.5067475
 106.1469189  79.3793659 106.7142557 106.1359065  80.2618374 106.3436490
 105.2786568  79.0265210 106.5197094  97.6551685  88.5273728 111.0745397
  98.3679658  89.1621193 111.0021299  97.1641714  88.6237594 110.2585399
  99.3769212  82.4324981 102.6462689  98.4425491  82.5526443 102.4767393
  99.5545881  81.5297447 102.3822699  94.8774400  75.8170676 104.7995950
  94.5072188  75.2641717 105.4876856  95.3733493  75.2128810 104.2470950
 102.7641764  78.2742300 103.1812723 103.2302216  79.1070291 103.1073026
 103.2149264  77.8087281 103.8857981  92.7063599  86.2768171 111.8950968
  93.4073058  86.9104654 112.0480362  92.2358714  86.6182903 111.1346607
 100.7358426  70.6422887 107.2203624  99.8221506  70.8727114 107.3885831
 101.1651528  70.7261331 108.0717657 100.5064885  78.8312779 109.7203518
  99.8536335  79.0788686 109.0655971 100.8845265  78.0176917 109.3865996
  96.5552458  79.5732590 116.2069555  95.8793095  79.4726719 116.8771931
  97.3780092  79.4171804 116.6705553  88.3031317  85.8104526 108.8282071
  88.8884754  85.0648214 108.9609975  88.1056155  86.1208483 109.7118734
  91.1569972  88.8455774 103.8444513  90.4880347  89.3301901 103.3608553
  91.0182842  89.0924994 104.7587892  82.8948972  78.3810127 107.5486514
  82.9333071  77.8473717 108.3423632  82.3889264  77.8545332 106.9297491
  95.2975241  90.8799517 110.4427171  95.8493549  91.0431139 111.2076257
  95.6381434  91.4703955 109.7707196  90.2739734  73.2274667 111.0449056
  90.3381060  74.0889498 110.6326454  90.2106854  72.6148669 110.3121415
  89.7492006  75.2997800 114.6922090  90.3764045  74.9174877 115.3059615
  88.8919925  75.0812002 115.0577783 100.1486115  85.7060775 116.2975826
 100.6926019  86.3190733 115.8030781  99.5672960  86.2640353 116.8142839
  86.5257549  77.1074229 100.6240445  86.8210990  76.1984907 100.5707499
  85.6245585  77.0861968 100.3021447  98.4343628  88.8281493 107.4290854
  98.3094767  88.0271233 106.9201799  99.0922719  89.3227686 106.9404823
  90.0551796  75.1830225 106.6067994  89.3338382  75.7966193 106.4675467
  90.8445052  75.7187990 106.5284640 100.4978536  86.6290513 109.0570404
  99.5508872  86.5095864 108.9848730 100.8461309  85.7413011 109.1396665
  92.8578110  72.5184652 112.8808645  93.3812512  72.7646948 113.6434955
  92.6390443  73.3504687 112.4611783  88.2545391  74.7888326 100.7479770
  87.9258097  73.9085705 100.5654876  88.6084761  74.7335995 101.6356160
  97.5024970  86.4243229 105.2574756  97.3549932  85.4959937 105.4382326
  98.3278463  86.4463320 104.7731831  91.3687214  75.0761296 101.1155248
  91.7083286  75.6047218 100.3933856  91.8159334  75.4141702 101.8913814
 101.1059092  87.2471788 106.3439629 102.0305639  87.0414649 106.2064080
 100.9374395  86.9988189 107.2528970  94.0630655  73.4598347 110.5658316
  93.7227475  72.6606160 110.9678996  93.3569661  73.7600058 109.9935149
  94.7147127  70.5447659 109.0185639  95.5373196  70.0708138 108.8964529
  94.9585190  71.3238143 109.5184325  93.3555361  73.5735918  99.3148541
  94.0763724  73.9517171  98.8112258  92.7320665  74.2924795  99.4183519
  97.4986484  74.2781067 100.2506873  97.7150098  75.1605705  99.9495701
  97.0180551  73.8867280  99.5212515  92.2385705  77.2366780 106.8277618
  92.0930286  77.5507083 107.7201899  91.7610909  77.8551680 106.2748516
  94.0982088  74.2269328 106.8758507  94.0843657  73.3310421 106.5390805
  94.8154516  74.2339992 107.5096793  95.9508219  74.6606668 108.9211635
  95.6925997  75.5823739 108.9195965  95.4193259  74.2637103 109.6112099
  86.7131368  79.7772124 109.7665279  86.1684836  80.5531932 109.8985553
  87.5910717  80.1242929 109.6084400  93.5018984  73.1083708 102.1446077
  93.6234895  72.1800354 102.3436965  93.2121027  73.1222394 101.2324393
  96.3710175  70.7938619 105.2812797  96.3931871  70.8577952 104.3264777
  96.7878234  69.9543127 105.4753303 106.7493799  80.5293878 103.3192020
 107.1924945  79.7801203 102.9211143 105.8720309  80.5204015 102.9365752
  87.4997389  78.9042021 112.6595436  86.7579125  79.0524656 113.2460066
  87.1790134  79.1650286 111.7962185  95.4441052  88.4457999 112.4575826
  95.7528178  88.2007146 113.3298525  96.2416534  88.6504637 111.9694696
  87.9454003  86.7907449 104.6905830  88.7712023  86.4911221 104.3104474
  87.5948055  86.0215072 105.1395619  92.9135536  86.1433918 106.7603504
  92.2915546  85.4804623 106.4605732  93.5840403  86.1695050 106.0777152
  86.1462608  84.7093776 105.6494764  85.3094516  84.2815950 105.4678765
  86.1186254  84.9026219 106.5865555  92.9860064  74.6215706 116.3536010
  93.0348219  75.4977828 115.9713780  93.5282578  74.0793099 115.7807653
 103.4714909  85.1656829 115.6337147 102.6810453  85.1480968 115.0941646
 103.2348264  85.7045123 116.3886184 103.5912784  82.0149295 112.9469876
 103.6410789  81.8499303 113.8885398 103.4826708  81.1476554 112.5567756
  92.4749043  84.6937841 100.2361964  92.6237164  85.3773305  99.5828637
  93.2815487  84.6742931 100.7511420 100.8816547  77.9980223 114.2629182
 101.7826410  77.8586688 113.9713180 100.9564521  78.1634678 115.2027360
  95.2159352  75.3747078 113.1082369  94.3462662  75.6680644 112.8364957
  95.4518833  75.9587523 113.8289632 105.0930981  84.4346237 113.1911897
 104.8015790  84.7976217 114.0275358 104.4803113  83.7213245 113.0125229
 106.2926664  81.9999117 105.7114467 107.1273555  82.4388921 105.8752028
 106.4285792  81.5237770 104.8922713 103.3418170  79.5578851 111.6591955
 103.8172291  79.7506498 110.8510806 102.4183735  79.6138037 111.4135339
  90.2301676  80.7203019 101.2423033  89.9847718  79.8165349 101.4403244
  90.3997591  80.7220169 100.3002511  97.9198386  71.5926695 110.6247789
  98.4380330  72.3287722 110.2994278  97.5653519  71.8990688 111.4594548
  89.4997324  76.4531376  98.7409195  88.8066569  76.5275731  98.0849231
  89.2549076  75.6891720  99.2630712  98.1710980  68.0126978 106.1448686
  98.4512734  67.3450167 106.7709112  98.9561587  68.2056073 105.6323349
 102.0419839  76.4344612 109.8920261 102.9937261  76.5342709 109.9132485
 101.8723289  75.6422880 110.4018345 100.0634218  73.5200195 110.0779662
  99.4684150  73.8005207 109.3826150  99.7783915  74.0094096 110.8496403
 104.5207916  79.6550731 109.0062560 104.4884236  78.7166732 109.1922244
 105.1308540  79.7334768 108.2728385 104.6702405  76.4461775 109.0520844
 104.1541453  75.6620231 108.8650772 105.5542353  76.1180491 109.2167363
 102.3313132  70.1902790 105.0116656 102.1337953  69.8817878 105.8959988
 102.9412837  70.9164429 105.1414586 110.3384466  80.7166738 108.1468597
 111.0687855  80.4552026 108.7076300 109.7291412  79.9795460 108.1870665
 108.4199763  78.8574601 108.7443048 107.6932927  78.7230566 108.1359540
 108.0047050  79.1651429 109.5499766  96.2429940  82.5764530 116.5090421
  97.1632949  82.7543129 116.7030468  96.2079523  81.6320576 116.3570121
  85.4612105  77.7703124 105.4343696  85.1414889  76.9168432 105.1418070
  84.9145533  77.9851702 106.1901663  89.2392012  80.4865565 109.1513203
  89.4578022  81.4182673 109.1701236  89.6517786  80.1273539 109.9368006
  96.1596230  70.9933650 101.1388891  95.3496958  70.6480735 101.5144137
  96.8480647  70.6841194 101.7276502  98.0886778  70.0711697 102.7613188
  98.6417817  70.4907151 103.4203211  98.3256865  69.1447445 102.8036144
  94.1119878  76.0598771 118.5415951  94.0116604  77.0093128 118.4728043
  93.8941420  75.7317010 117.6692022  93.3132949  73.3083696  95.1256629
  94.1752113  73.6338594  95.3852446  93.4983293  72.5215192  94.6129695
  85.3300365  81.3906035 107.4036818  84.6363836  80.9759988 106.8906772
  86.0773356  81.4326572 106.8070236 101.4665585  72.1812222 102.2691852
 100.8864254  72.8397026 101.8869904 101.2001518  71.3589567 101.8579269
  99.9169152  71.5817280 104.4713172 100.4168930  71.6933815 103.6627491
 100.5604760  71.2778333 105.1113981  93.9751148  79.4895910 117.3581013
  93.4918229  80.2896270 117.5644902  94.0612087  79.5003854 116.4048457
  87.2437107  81.3224289 105.2802832  87.2207795  81.4211977 104.3284716
  87.5537744  82.1689440 105.6019999  89.9024485  83.3800444 109.3949447
  90.8567739  83.3484387 109.3279378  89.7037009  82.9191068 110.2099673
  90.4923867  81.9501560 111.9620245  91.3116756  82.4445639 111.9855082
  90.7660675  81.0333528 111.9337812 100.2490463  74.3412313 101.3248200
  99.3616318  74.6261963 101.1068395 100.6644453  74.1806076 100.4775477
 103.6005000  74.3658834 105.0402539 104.3765390  74.8555286 105.3127156
 102.8753134  74.7916888 105.4974409 106.0377558  75.0786453 106.0976480
 106.6322049  74.8382189 105.3869788 106.1104142  74.3593583 106.7250016
  88.2574714  88.9220064 106.4119645  88.1229182  88.1620465 105.8457643
  87.8406776  89.6460964 105.9448434 100.2231487  79.8566849 101.5398490
 100.1666689  80.3135400 100.7006123 100.7759830  79.0957533 101.3621333
 104.0336293  75.6456580 102.3648610 103.7773227  75.2453216 103.1956817
 103.4089161  76.3600374 102.2398749 108.3448631  78.3852654 104.8719901
 107.7848189  78.4545843 105.6451463 107.7392134  78.2093638 104.1519397
 100.9566266  81.0471630  98.8351019 100.9015070  80.8815901  97.8939464
 100.3312322  81.7547663  98.9913209  85.7458781  76.2839694 112.6612442
  86.3917645  75.7738648 113.1499667  85.5375933  77.0208376 113.2355867
  98.2712174  83.3520542 118.1604582  99.1403333  83.5261194 117.7991217
  97.7918925  84.1714959 118.0380312  94.2662392  70.5479739  98.4136338
  94.2541062  71.4921579  98.5704609  95.1585814  70.3649884  98.1195799
  98.0814511  67.1422515 102.6682275  97.3146907  66.5881002 102.8138957
  98.4925216  67.2144384 103.5296426  90.0856272  73.4307311 116.7587456
  90.9487734  73.0744116 116.9690780  89.5121683  73.0921206 117.4462860
 109.4845918  92.7860621 104.6403065 110.2709007  92.3680045 104.2893482
 109.7484622  93.6906714 104.8084713 112.4079765  86.4357429 110.0030652
 112.0763090  87.3052840 109.7791867 111.8125379  86.1193713 110.6824682
 112.3008429  91.1552515 107.0824002 111.3925306  91.0867923 106.7882763
 112.2496024  91.6324460 107.9105828 114.1670075  89.3568953 108.8601876
 113.5244455  89.6501487 108.2141671 113.6625004  89.2421874 109.6655073
 109.6081522  90.1233730 112.2163758 109.3642454  90.8775790 111.6798034
 109.8841452  90.5019077 113.0511005 109.1646214  89.2790163 107.7977596
 108.3030693  89.5771416 108.0894334 109.1908648  89.4960561 106.8658629
 102.6437773  86.8388028 117.7517427 102.2504719  86.2854226 118.4265072
 103.4603914  87.1498606 118.1423945 105.5605734  88.2545907 115.3437684
 106.3015448  88.8553060 115.2642146 105.7923657  87.5123545 114.7855727
 109.5062897  84.2827010 109.6201966 109.1627167  85.1728652 109.5441076
 109.8741860  84.0928668 108.7571551 108.5859438  86.6531665 107.5851199
 108.0824233  86.6161800 106.7719004 108.8790044  87.5624408 107.6447856
 104.8302323  86.7370395 106.5917381 105.6955320  86.5413204 106.2323270
 104.8979832  86.5080747 107.5186737 107.9725051  92.3295785 107.0156464
 107.0547612  92.5510732 106.8578153 108.3885194  92.4042096 106.1568172
 111.2038936  90.7644317 104.1277934 110.4661692  90.2521703 104.4588177
 111.4565709  90.3244699 103.3161211 111.3050563  83.5420569 104.7219703
 111.6109440  82.6817933 104.4345618 112.0303168  84.1338189 104.5218697
 103.0078077  90.0269777 108.6047508 103.6477457  89.8858537 107.9070472
 102.1755608  89.7404291 108.2286110 107.3857191  88.0369801 112.5684980
 106.7385106  88.7359750 112.4749457 108.1558206  88.4705944 112.9361229
 109.1333186  89.0045211 105.0724265 109.6301886  88.2515173 104.7525336
 108.3620168  89.0409528 104.5067475 111.5752181  85.9714805 107.2203624
 110.6615261  86.2019031 107.3885831 112.0045282  86.0553249 108.0717657
 101.1133488  88.5566585 111.0449056 101.1774815  89.4181416 110.6326454
 101.0500609  87.9440586 110.3121415 100.8945551  90.5122143 106.6067994
 100.1732136  91.1258111 106.4675467 101.6838806  91.0479908 106.5284640
 103.6971864  87.8476570 112.8808645 104.2206266  88.0938866 113.6434955
 103.4784197  88.6796604 112.4611783 104.9024409  88.7890265 110.5658316
 104.5621230  87.9898078 110.9678996 104.1963416  89.0891975 109.9935149
 105.5540881  85.8739577 109.0185639 106.3766950  85.4000055 108.8964529
 105.7978945  86.6530061 109.5184325 104.9375843  89.5561246 106.8758507
 104.9237411  88.6602339 106.5390805 105.6548271  89.5631909 107.5096793
 106.7901973  89.9898586 108.9211635 106.5319751  90.9115657 108.9195965
 106.2587014  89.5929020 109.6112099 107.2103929  86.1230536 105.2812797
 107.2325626  86.1869870 104.3264777 107.6271988  85.2835045 105.4753303
 103.8253818  89.9507623 116.3536010 103.8741974  90.8269746 115.9713780
 104.3676332  89.4085016 115.7807653 114.3108664 100.4948747 115.6337147
 113.5204208 100.4772885 115.0941646 114.0742018 101.0337040 116.3886184
 115.9324736  99.7638154 113.1911897 115.6409544 100.1268135 114.0275358
 115.3196867  99.0505163 113.0125229 108.7592140  86.9218613 110.6247789
 109.2774084  87.6579640 110.2994278 108.4047273  87.2282606 111.4594548
 109.0104735  83.3418895 106.1448686 109.2906488  82.6742084 106.7709112
 109.7955342  83.5347991 105.6323349 112.8813593  91.7636529 109.8920261
 113.8331016  91.8634627 109.9132485 112.7117043  90.9714798 110.4018345
 110.9027972  88.8492112 110.0779662 110.3077905  89.1297125 109.3826150
 110.6177669  89.3386013 110.8496403 115.5096159  91.7753692 109.0520844
 114.9935208  90.9912149 108.8650772 116.3936108  91.4472409 109.2167363
 113.1706886  85.5194708 105.0116656 112.9731707  85.2109796 105.8959988
 113.7806592  86.2456347 105.1414586 121.1778221  96.0458656 108.1468597
 121.9081609  95.7843944 108.7076300 120.5685166  95.3087378 108.1870665
 104.9513632  91.3890688 118.5415951 104.8510359  92.3385045 118.4728043
 104.7335174  91.0608927 117.6692022 110.7562906  86.9109198 104.4713172
 111.2562685  87.0225732 103.6627491 111.3998514  86.6070250 105.1113981
 111.0884218  89.6704230 101.3248200 110.2010073  89.9553881 101.1068395
 111.5038207  89.5097994 100.4775477 114.4398754  89.6950751 105.0402539
 115.2159144  90.1847204 105.3127156 113.7146888  90.1208805 105.4974409
 114.8730048  90.9748498 102.3648610 114.6166982  90.5745134 103.1956817
 114.2482916  91.6892292 102.2398749 100.9250027  88.7599229 116.7587456
 101.7881489  88.4036034 116.9690780 100.3515438  88.4213124 117.4462860
 118.0607893 111.4963365 113.4597587 118.0496534 111.1016163 112.5878091
 118.2228533 110.7629438 114.0531359 114.7815154 114.2800477 112.4076771
 114.4905020 115.1846108 112.2923437 115.4172139 114.3217005 113.1220841
 115.7071361 111.6577325 108.9978131 116.3034933 111.4333348 108.2835094
 115.7646333 110.9162071 109.6003579 125.7248100 108.0527772 105.5436043
 126.4573271 107.4826989 105.7773873 124.9687455 107.6649373 105.9842549
 119.7405039 113.9661892 109.4026565 119.4405762 114.8686931 109.2942372
 119.3956099 113.6994076 110.2547718 117.2143049 107.9034078 115.0258899
 116.4376383 108.4627998 115.0161764 117.8533612 108.3890861 115.5473769
 115.4689421 110.7119532 114.5876866 116.2104106 111.2504576 114.3111690
 114.7626407 111.3385820 114.7448418 120.9444761 112.8548672 113.1849028
 121.3528117 112.4131083 112.4403660 120.2222022 112.2801300 113.4383221
 120.4475276 105.4525647 112.2163758 120.2036208 106.2067708 111.6798034
 120.7235207 105.8310995 113.0511005 122.4013739 111.9964260 110.8941024
 122.6130634 112.6396019 110.2175405 122.3543487 111.1626576 110.4262954
 114.2050785 107.8659180 115.3892176 113.5749446 108.5475461 115.6227573
 114.0986873 107.7542261 114.4445315 123.5159567 114.8736215 109.0663381
 124.3377011 114.4716402 108.7846063 123.5121970 114.7704449 110.0179497
 117.2816170 114.4220258 111.2224092 117.3460603 114.8840666 112.0582264
 116.5727094 113.7917623 111.3506402 131.6065560 111.2174963 105.4148353
 130.8529268 110.6482362 105.2592357 131.7413101 111.1837628 106.3618987
 113.4831528 102.1679946 117.7517427 113.0898473 101.6146144 118.4265072
 114.2997668 102.4790524 118.1423945 116.3999489 103.5837825 115.3437684
 117.1409202 104.1844978 115.2642146 116.6317412 102.8415462 114.7855727
 118.6232664 116.7111932 115.2203414 118.1796519 115.9248311 114.9024319
 119.2849878 116.8991083 114.5547305 120.7213903 116.9914732 113.2484816
 120.7032378 117.8123613 112.7565085 121.6433823 116.8668807 113.4734957
 117.1786957 114.5058862 114.0908324 117.7115293 113.7447150 113.8607632
 116.6501038 114.2132513 114.8332478 119.9531969 108.2485164 111.8201167
 120.3081356 108.4756637 112.6795633 120.6004100 108.5803541 111.1978422
 125.7099085 113.4380127 107.5361768 126.1435592 113.3455416 108.3844822
 126.4230666 113.4137627 106.8981784 126.5714635 113.4803828 110.0694653
 126.7650525 114.3849638 110.3153928 126.4715253 113.0211247 110.9033238
 118.2250946 103.3661718 112.5684980 117.5778861 104.0651668 112.4749457
 118.9951961 103.7997862 112.9361229 121.6329743 113.6310570 115.6435534
 121.4815250 113.4021122 114.7265617 121.6234423 114.5881172 115.6566879
 118.4015080 111.2042483 110.6281800 119.3307140 111.3553643 110.4550767
 117.9806110 111.2926504 109.7730447 115.3535171 109.7262340 110.8005436
 116.0634790 109.0855532 110.7592055 115.3104480 109.9775234 111.7231617
 123.3421950 116.6629693 113.7212016 123.2834496 115.9788913 113.0542599
 123.7441468 117.4048683 113.2692642 114.0664105 106.7127558 112.6201076
 113.5301462 106.2618296 113.2722672 113.4780814 106.8473466 111.8771540
 112.3612649 123.4791607 106.5145734 112.6009247 124.1110131 107.1924753
 111.5181845 123.1279647 106.8011094 123.3439357 114.6269277 111.9525995
 122.4566136 114.2895199 112.0752394 123.9137908 113.8952308 112.1894761
 127.8256698 110.0377494 106.7142557 127.8146574 110.9202210 106.3436490
 126.9574077 109.6849045 106.5197094 122.1852394 109.4896614 109.7203518
 121.5323844 109.7372522 109.0655971 122.5632774 108.6760752 109.3865996
 118.2339967 110.2316425 116.2069555 117.5580604 110.1310555 116.8771931
 119.0567601 110.0755639 116.6705553 111.4279515 105.9581635 114.6922090
 112.0551554 105.5758712 115.3059615 110.5707434 105.7395837 115.0577783
 121.8273624 116.3644610 116.2975826 122.3713528 116.9774568 115.8030781
 121.2460469 116.9224189 116.8142839 122.1766045 117.2874348 109.0570404
 121.2296381 117.1679699 108.9848730 122.5248818 116.3996846 109.1396665
 114.5365619 103.1768487 112.8808645 115.0600021 103.4230784 113.6434955
 114.3177952 104.0088522 112.4611783 128.4281308 111.1877714 103.3192020
 128.8712454 110.4385039 102.9211143 127.5507818 111.1787850 102.9365752
 123.5617089 117.7408055  98.7998618 124.2567994 118.3614748  99.0185933
 123.9040239 116.8903406  99.0750996 125.4608512 115.1907761 100.3285949
 125.9859836 115.5295033  99.6035269 125.3730865 114.2554776 100.1449084
 114.6647573 105.2799541 116.3536010 114.7135728 106.1561664 115.9713780
 115.2070087 104.7376934 115.7807653 125.1502418 115.8240664 115.6337147
 124.3597962 115.8064803 115.0941646 124.9135773 116.3628958 116.3886184
 125.2700293 112.6733131 112.9469876 125.3198298 112.5083138 113.8885398
 125.1614217 111.8060390 112.5567756 122.5604056 108.6564059 114.2629182
 123.4613919 108.5170524 113.9713180 122.6352030 108.8218514 115.2027360
 116.8946861 106.0330913 113.1082369 116.0250171 106.3264479 112.8364957
 117.1306341 106.6171358 113.8289632 126.7718490 115.0930072 113.1911897
 126.4803299 115.4560053 114.0275358 126.1590622 114.3797080 113.0125229
 127.9714173 112.6582952 105.7114467 128.8061064 113.0972756 105.8752028
 128.1073301 112.1821605 104.8922713 125.0205678 110.2162687 111.6591955
 125.4959800 110.4090333 110.8510806 124.0971244 110.2721873 111.4135339
 123.7207347 107.0928447 109.8920261 124.6724770 107.1926545 109.9132485
 123.5510798 106.3006715 110.4018345 126.1995425 110.3134567 109.0062560
 126.1671745 109.3750567 109.1922244 126.8096049 110.3918603 108.2728385
 126.3489914 107.1045610 109.0520844 125.8328962 106.3204067 108.8650772
 127.2329862 106.7764327 109.2167363 132.0171975 111.3750573 108.1468597
 132.7475364 111.1135862 108.7076300 131.4078921 110.6379295 108.1870665
 130.0987272 109.5158436 108.7443048 129.3720436 109.3814401 108.1359540
 129.6834559 109.8235265 109.5499766 117.9217449 113.2348366 116.5090421
 118.8420458 113.4126965 116.7030468 117.8867032 112.2904411 116.3570121
 115.7907387 106.7182606 118.5415951 115.6904113 107.6676963 118.4728043
 115.5728929 106.3900845 117.6692022 115.6538657 110.1479745 117.3581013
 115.1705738 110.9480105 117.5644902 115.7399596 110.1587690 116.4048457
 127.7165067 105.7370288 106.0976480 128.3109558 105.4966024 105.3869788
 127.7891651 105.0177419 106.7250016 125.7123802 106.3040416 102.3648610
 125.4560736 105.9037051 103.1956817 125.0876670 107.0184210 102.2398749
 130.0236140 109.0436489 104.8719901 129.4635698 109.1129678 105.6451463
 129.4179643 108.8677474 104.1519397 119.9499683 114.0104377 118.1604582
 120.8190842 114.1845029 117.7991217 119.4706434 114.8298794 118.0380312
 111.7643781 104.0891147 116.7587456 112.6275243 103.7327951 116.9690780
 111.1909192 103.7505041 117.4462860 131.6092158 125.7193003 107.5649857
 132.2470568 125.5999750 106.8613197 131.4913001 126.6673847 107.6237809
 128.4181865 125.6720431 107.5011382 128.0800376 125.5561496 106.6131916
 129.2871633 125.2711596 107.4812388 124.2768680 127.5255908 103.4908272
 123.7133545 127.4345844 102.7224560 124.1621075 126.7055812 103.9710765
 128.9001648 126.8255283 113.4597587 128.8890288 126.4308081 112.5878091
 129.0622287 126.0921355 114.0531359 121.8233112 129.0207099 106.3292493
 122.6154404 128.6797924 105.9138792 122.0629762 129.1302074 107.2494646
 129.8568239 131.1926875  98.8022737 129.2056219 131.7780956  98.4156751
 130.6512602 131.7233070  98.8617775 123.7823866 128.2816012  99.2009872
 124.5554742 127.7344999  99.0622748 124.1349265 129.1460262  99.4124333
 125.6208909 129.6092395 112.4076771 125.3298775 130.5138025 112.2923437
 126.2565893 129.6508922 113.1220841 126.5465116 126.9869243 108.9978131
 127.1428688 126.7625266 108.2835094 126.6040087 126.2453989 109.6003579
 126.1190144 124.4408678  96.8328322 126.3715665 123.9190200  96.0711785
 125.1814703 124.2774824  96.9355005 131.1633427 123.4444457 104.6403065
 131.9496516 123.0263880 104.2893482 131.4272131 124.3490549 104.8084713
 131.3343504 128.8817307  99.3391722 130.6989337 128.9551934 100.0512626
 131.0040911 129.4710906  98.6610801 136.5641854 123.3819690 105.5436043
 137.2967026 122.8118907 105.7773873 135.8081210 122.9941290 105.9842549
 125.8386433 126.3436784  99.0352697 125.7222691 125.6681688  99.7033781
 125.9488693 125.8569158  98.2184850 128.1817974 125.8046932 102.7399386
 127.8176181 125.2777553 103.4512307 129.0385090 125.4145401 102.5665871
 134.0867274 117.0941264 110.0030652 133.7550599 117.9636675 109.7791867
 133.4912888 116.7777548 110.6824682 127.8223461 120.8336831  97.7360734
 127.9897863 121.7017068  98.1031205 127.6320630 120.9964113  96.8122024
 130.5798794 129.2953810 109.4026565 130.2799517 130.1978849 109.2942372
 130.2349853 129.0285993 110.2547718 124.0311275 125.7467607 105.4363269
 123.1061772 125.6143821 105.6440961 124.2795689 126.5261826 105.9333212
 133.9795938 121.8136350 107.0824002 133.0712815 121.7451759 106.7882763
 133.9283533 122.2908295 107.9105828 127.8012682 123.2894489  98.7207401
 127.6812307 123.7351539  99.5592881 127.1065270 123.6379806  98.1620939
 121.3920086 125.3900881 106.2707058 121.5212468 125.6435359 107.1846470
 120.7117538 125.9828589 105.9511713 125.5619574 136.0598130 102.3697532
 125.4843603 137.0105956 102.4486013 124.9581217 135.7144003 103.0272459
 128.0536803 123.2325996 115.0258899 127.2770138 123.7919916 115.0161764
 128.6927366 123.7182779 115.5473769 135.8457584 120.0152789 108.8601876
 135.2031964 120.3085322 108.2141671 135.3412513 119.9005709 109.6655073
 133.4997748 123.7615962  99.5487735 134.4115604 123.9943349  99.3735433
 132.9907395 124.3453006  98.9862814 126.3083176 126.0411449 114.5876866
 127.0497860 126.5796493 114.3111690 125.6020161 126.6677738 114.7448418
 131.7838515 128.1840590 113.1849028 132.1921871 127.7423000 112.4403660
 131.0615777 127.6093217 113.4383221 128.1369585 123.1213196 110.5582585
 128.9830781 123.5452610 110.7017234 128.0768223 122.4646821 111.2521148
 132.1067330 128.7441780 106.9401317 131.4776192 128.9087494 106.2377385
 131.7192992 129.1583390 107.7112281 135.9856562 129.6796218 104.2945680
 135.3007600 130.0595120 103.7442714 136.0700411 130.2891545 105.0277628
 131.2869031 120.7817565 112.2163758 131.0429963 121.5359625 111.6798034
 131.5628961 121.1602912 113.0511005 133.2407494 127.3256177 110.8941024
 133.4524389 127.9687937 110.2175405 133.1937242 126.4918494 110.4262954
 130.8433722 119.9373998 107.7977596 129.9818202 120.2355251 108.0894334
 130.8696157 120.1544397 106.8658629 127.6595292 128.4816188 104.2051402
 128.1233637 128.7603891 103.4156024 127.3952090 127.5799633 104.0224492
 124.5519373 128.0287670 107.1431165 125.1220730 128.4574938 106.5048650
 125.1427485 127.7470255 107.8415351 126.5964178 124.6039341 101.0140967
 127.2988221 125.0560384 101.4814893 126.2644806 123.9623160 101.6420860
 125.0444539 123.1951097 115.3892176 124.4143200 123.8767378 115.6227573
 124.9380627 123.0834179 114.4445315 120.3389512 122.8622893 106.3158100
 119.5488566 123.1180422 105.8398211 120.8300759 123.6771231 106.4210141
 134.3553321 130.2028133 109.0663381 135.1770765 129.8008320 108.7846063
 134.3515724 130.0996367 110.0179497 128.1209925 129.7512176 111.2224092
 128.1854357 130.2132583 112.0582264 127.4120849 129.1209541 111.3506402
 118.6227215 123.1153384 108.7473091 118.8735253 124.0000394 109.0130667
 119.1586763 122.9357985 107.9748183 142.4459315 126.5466881 105.4148353
 141.6923023 125.9774279 105.2592357 142.5806856 126.5129546 106.3618987
 127.8357943 131.4180283 101.0903072 127.7003617 132.2631819 101.5187920
 128.3767755 131.6199561 100.3269006 124.3225282 117.4971863 117.7517427
 123.9292228 116.9438062 118.4265072 125.1391423 117.8082442 118.1423945
 121.2887340 128.9355721 101.6630997 121.8011861 129.7298972 101.8136562
 121.9410053 128.2382012 101.5964599 123.0982225 132.0521478 103.7453750
 123.2748853 132.9739442 103.5574734 123.8939058 131.7379897 104.1748130
 127.2393243 118.9129742 115.3437684 127.9802957 119.5136896 115.2642146
 127.4711166 118.1707380 114.7855727 122.3834581 124.0986110 113.6215914
 122.2688096 123.1971367 113.9223013 121.5279099 124.3449806 113.2700730
 129.4626419 132.0403850 115.2203414 129.0190273 131.2540229 114.9024319
 130.1243633 132.2283000 114.5547305 124.2213540 133.5699652 109.7464093
 124.7720965 133.4416715 108.9741087 123.3825016 133.8694541 109.3958986
 131.5607657 132.3206650 113.2484816 131.5426132 133.1415531 112.7565085
 132.4827577 132.1960725 113.4734957 128.0180711 129.8350779 114.0908324
 128.5509048 129.0739068 113.8607632 127.4894792 129.5424431 114.8332478
 131.1850406 114.9410845 109.6201966 130.8414676 115.8312487 109.5441076
 131.5529369 114.7512503 108.7571551 119.2536257 127.2644376 102.4390568
 120.0911479 127.6741384 102.2224275 119.4314524 126.3243818 102.4090762
 131.1500689 124.9319456  98.1274401 130.6347312 125.7024061  98.3662788
 130.8777997 124.2584593  98.7507462 128.7347800 119.7769157 103.1859639
 127.8789396 119.3876008 103.0065278 129.1474752 119.8561118 102.3259425
 130.2646947 117.3115500 107.5851199 129.7611742 117.2745636 106.7719004
 130.5577553 118.2208243 107.6447856 126.5089832 117.3954230 106.5917381
 127.3742829 117.1997039 106.2323270 126.5767341 117.1664582 107.5186737
 136.1234963 127.6851811 100.0627574 135.3464406 127.3462971  99.6182736
 136.8026444 127.6904434  99.3882539 130.9386992 122.8046549  99.9534182
 130.6337128 123.1192698 100.8044325 131.8917434 122.8827968  99.9961515
 129.3833424 128.9636772 101.6027136 128.8554785 128.2289531 101.2900373
 128.8820927 129.7411448 101.3567104 134.3626270 127.1585792 106.7194182
 133.7049944 127.8485054 106.8074311 135.1666669 127.5482224 107.0628169
 133.1731729 125.5130165 104.7698124 133.6863610 126.1460157 105.2719834
 133.8232953 124.9131361 104.4041484 126.4174819 116.4997687 102.6908817
 125.7639232 116.1846704 102.0665432 126.3755293 115.8773427 103.4168640
 127.5286024 126.7816982  94.6062109 126.6213086 126.5506236  94.8053258
 128.0257056 125.9854601  94.7936090 130.4354103 135.4914489  97.5258795
 129.7615802 135.7946186  98.1343753 130.8219925 136.2943570  97.1764252
 129.6512560 122.9879621 107.0156464 128.7335121 123.2094568 106.8578153
 130.0672703 123.0625931 106.1568172 130.4347607 124.3871036 102.1459145
 131.1819426 124.8992433 101.8366267 130.7039197 124.0655089 103.0063538
 128.7074258 126.8829577  99.1286099 127.7985477 126.5988610  99.2258569
 128.7369341 127.3028656  98.2689406 133.9393525 130.4936166 102.8977267
 133.4855852 129.6527076 102.9542457 133.3087492 131.1297565 103.2352047
 132.8826444 121.4228153 104.1277934 132.1449201 120.9105539 104.4588177
 133.1353218 120.9828534 103.3161211 132.3826464 132.3312663 103.8327085
 132.6749439 132.8917720 103.1139450 132.8925085 132.6241224 104.5880244
 132.9838072 114.2004405 104.7219703 133.2896949 113.3401768 104.4345618
 133.7090677 114.7922025 104.5218697 119.2762428 124.6035091 103.1101301
 119.0786828 124.0104452 102.3852368 118.7209092 124.2987301 103.8277240
 127.2559152 124.4958198 105.2295894 127.3107761 123.5432034 105.1538371
 126.4450354 124.6517637 105.7137193 128.4050345 128.4238321  96.4674178
 127.9669775 127.7074180  96.0079815 129.1460786 128.6514435  95.9059269
 125.1951511 123.1135257 102.9886273 124.3819377 123.4129428 103.3951465
 125.6910506 122.7190946 103.7060755 127.3460089 133.1093014 104.9220538
 127.3036268 133.3353861 103.9929070 128.2622788 132.8756389 105.0706339
 130.7925723 123.5777082 111.8201167 131.1475111 123.8048555 112.6795633
 131.4397854 123.9095459 111.1978422 136.5223460 126.6995518 102.5250496
 136.3841359 126.8897114 101.5971685 136.1659679 127.4614900 102.9818547
 124.6865586 120.6853613 108.6047508 125.3264966 120.5442372 107.9070472
 123.8543117 120.3988126 108.2286110 136.5492840 128.7672045 107.5361768
 136.9829346 128.6747334 108.3844822 137.2624420 128.7429545 106.8981784
 125.4625890 129.9856043 104.7182501 126.2566489 129.4906363 104.5165076
 124.7517583 129.4573906 104.3550206 130.2820735 132.3674139 109.0694868
 130.3357757 132.9365075 109.8372584 129.4135516 132.5376024 108.7048905
 123.1619128 122.0691695 110.5519320 123.8342181 121.8609057 109.9031968
 122.3348915 121.8713781 110.1124552 137.4108389 128.8095745 110.0694653
 137.6044279 129.7141556 110.3153928 137.3109007 128.3503164 110.9033238
 129.0644700 118.6953636 112.5684980 128.4172615 119.3943586 112.4749457
 129.8345715 119.1289780 112.9361229 132.4723498 128.9602488 115.6435534
 132.3209004 128.7313040 114.7265617 132.4628177 129.9173090 115.6566879
 129.2408834 126.5334401 110.6281800 130.1700894 126.6845560 110.4550767
 128.8199864 126.6218422 109.7730447 128.0397166 130.5585065 108.3980338
 127.9008252 130.1903850 109.2706276 127.2511762 131.0732705 108.2264296
 128.6345318 135.6594162  99.7405874 128.8097074 135.1882205 100.5551497
 127.9478106 136.2859928  99.9687135 129.5902381 129.9366668 105.7869176
 129.2552214 129.8967438 106.6826825 129.0906327 129.2711384 105.3139586
 123.5646625 125.3434298 111.3121757 123.4266423 124.6114537 111.9133296
 124.4751549 125.2543198 111.0305944 132.5261573 127.2822702  96.0606235
 131.9090744 126.5569530  95.9639288 132.0578061 128.0432063  95.7173309
 126.1928926 125.0554257 110.8005436 126.9028544 124.4147449 110.7592055
 126.1498234 125.3067152 111.7231617 134.1815705 131.9921611 113.7212016
 134.1228251 131.3080831 113.0542599 134.5835223 132.7340601 113.2692642
 124.9057860 122.0419475 112.6201076 124.3695217 121.5910214 113.2722672
 124.3174568 122.1765384 111.8771540 123.2006403 138.8083524 106.5145734
 123.4403002 139.4402049 107.1924753 122.3575600 138.4571564 106.8011094
 124.3160119 121.5008127  95.1827539 123.4389585 121.3796927  94.8189786
 124.7917872 120.7094205  94.9306428 134.1833112 129.9561195 111.9525995
 133.2959891 129.6187116 112.0752394 134.7531663 129.2244226 112.1894761
 115.8362259 126.2885286 105.2769047 116.5233299 125.9747016 104.6890062
 115.6810388 127.1926651 105.0036298 120.6396981 121.1775483 109.7054070
 120.5555170 120.5701152 108.9704480 119.8179688 121.6684501 109.7063567
 127.7134265 134.6162647 108.9187238 127.6404437 135.4217618 109.4306543
 127.2711658 134.8154613 108.0935260 127.5024045 133.8534417 102.4290060
 126.7191567 134.3956097 102.5228284 128.2016790 134.3708397 102.8284301
 130.8120695 119.6629046 105.0724265 131.3089395 118.9099009 104.7525336
 130.0407676 119.6993363 104.5067475 138.6650452 125.3669412 106.7142557
 138.6540329 126.2494127 106.3436490 137.7967832 125.0140963 106.5197094
 130.1732949 134.5149481 111.0745397 130.8860921 135.1496946 111.0021299
 129.6822977 134.6113347 110.2585399 131.8950476 128.4200734 102.6462689
 130.9606754 128.5402196 102.4767393 132.0727144 127.5173200 102.3822699
 127.3955664 121.8046429 104.7995950 127.0253451 121.2517470 105.4876856
 127.8914756 121.2004563 104.2470950 135.2823027 124.2618053 103.1812723
 135.7483479 125.0946045 103.1073026 135.7330528 123.7963034 103.8857981
 125.2244862 132.2643924 111.8950968 125.9254322 132.8980407 112.0480362
 124.7539977 132.6058656 111.1346607 133.3499258 130.6061874 100.1798875
 133.6259102 130.4918469 101.0892749 132.4803757 130.2079359 100.1411048
 133.2539690 116.6298640 107.2203624 132.3402770 116.8602867 107.3885831
 133.6832791 116.7137084 108.0717657 133.0246148 124.8188532 109.7203518
 132.3717599 125.0664439 109.0655971 133.4026528 124.0052670 109.3865996
 129.9853322 134.8548225 103.8231689 130.1675717 134.0369881 104.2859441
 130.8086308 135.0715917 103.3856579 130.3195488 133.7816410 101.0846737
 130.8483254 133.2708865 100.4716899 130.5823707 133.4658940 101.9492270
 129.0733721 125.5608343 116.2069555 128.3974358 125.4602472 116.8771931
 129.8961355 125.4047557 116.6705553 120.8212580 131.7980279 108.8282071
 121.4066017 131.0523967 108.9609975 120.6237419 132.1084236 109.7118734
 123.6751236 134.8331527 103.8444513 123.0061611 135.3177654 103.3608553
 123.5364105 135.0800747 104.7587892 115.4130235 124.3685880 107.5486514
 115.4514335 123.8349470 108.3423632 114.9070528 123.8421085 106.9297491
 127.8156504 136.8675270 110.4427171 128.3674812 137.0306892 111.2076257
 128.1562698 137.4579708 109.7707196 122.7920997 119.2150420 111.0449056
 122.8562324 120.0765251 110.6326454 122.7288118 118.6024422 110.3121415
 122.2673270 121.2873553 114.6922090 122.8945309 120.9050630 115.3059615
 121.4101189 121.0687755 115.0577783 132.6667378 131.6936528 116.2975826
 133.2107282 132.3066486 115.8030781 132.0854223 132.2516106 116.8142839
 130.9524891 134.8157246 107.4290854 130.8276031 134.0146986 106.9201799
 131.6103983 135.3103439 106.9404823 133.0159800 132.6166266 109.0570404
 132.0690135 132.4971617 108.9848730 133.3642573 131.7288764 109.1396665
 125.3759373 118.5060405 112.8808645 125.8993775 118.7522701 113.6434955
 125.1571706 119.3380440 112.4611783 130.0206233 132.4118982 105.2574756
 129.8731196 131.4835690 105.4382326 130.8459727 132.4339073 104.7731831
 123.8868477 121.0637049 101.1155248 124.2264550 121.5922971 100.3933856
 124.3340598 121.4017455 101.8913814 133.6240355 133.2347541 106.3439629
 134.5486902 133.0290402 106.2064080 133.4555658 132.9863942 107.2528970
 126.5811918 119.4474100 110.5658316 126.2408739 118.6481913 110.9678996
 125.8750925 119.7475811 109.9935149 127.2328390 116.5323412 109.0185639
 128.0554459 116.0583891 108.8964529 127.4766454 117.3113896 109.5184325
 125.8736625 119.5611671  99.3148541 126.5944987 119.9392924  98.8112258
 125.2501929 120.2800548  99.4183519 130.0167747 120.2656820 100.2506873
 130.2331362 121.1481458  99.9495701 129.5361815 119.8743033  99.5212515
 124.7566969 123.2242533 106.8277618 124.6111550 123.5382836 107.7201899
 124.2792172 123.8427433 106.2748516 126.6163352 120.2145081 106.8758507
 126.6024920 119.3186174 106.5390805 127.3335780 120.2215745 107.5096793
 128.4689482 120.6482421 108.9211635 128.2107260 121.5699492 108.9195965
 127.9374523 120.2512856 109.6112099 133.4135671 133.7533208 101.7001720
 133.5872549 133.1879631 100.9475572 133.9064562 134.5534103 101.5181210
 119.2312631 125.7647877 109.7665279 118.6866099 126.5407685 109.8985553
 120.1091981 126.1118682 109.6084400 126.0200248 119.0959461 102.1446077
 126.1416159 118.1676108 102.3436965 125.7302290 119.1098147 101.2324393
 128.8891438 116.7814372 105.2812797 128.9113135 116.8453705 104.3264777
 129.3059497 115.9418880 105.4753303 139.2675062 126.5169631 103.3192020
 139.7106208 125.7676957 102.9211143 138.3901573 126.5079768 102.9365752
 134.4010844 133.0699973  98.7998618 135.0961748 133.6906665  99.0185933
 134.7433994 132.2195324  99.0750996 120.0178653 124.8917774 112.6595436
 119.2760389 125.0400409 113.2460066 119.6971397 125.1526039 111.7962185
 136.3002267 130.5199678 100.3285949 136.8253591 130.8586951  99.6035269
 136.2124619 129.5846694 100.1449084 127.9622315 134.4333752 112.4575826
 128.2709442 134.1882899 113.3298525 128.7597798 134.6380390 111.9694696
 127.9842928 136.5871662 104.6881202 127.5447918 136.0948040 105.3814059
 128.7351044 136.0444629 104.4473277 120.4635267 132.7783202 104.6905830
 121.2893286 132.4786974 104.3104474 120.1129319 132.0090825 105.1395619
 125.4316800 132.1309671 106.7603504 124.8096809 131.4680376 106.4605732
 126.1021667 132.1570803 106.0777152 118.6643872 130.6969529 105.6494764
 117.8275780 130.2691703 105.4678765 118.6367517 130.8901972 106.5865555
 125.5041327 120.6091459 116.3536010 125.5529483 121.4853582 115.9713780
 126.0463841 120.0668852 115.7807653 135.9896173 131.1532582 115.6337147
 135.1991717 131.1356721 115.0941646 135.7529527 131.6920876 116.3886184
 136.1094048 128.0025048 112.9469876 136.1592053 127.8375056 113.8885398
 136.0007971 127.1352307 112.5567756 124.9930307 130.6813594 100.2361964
 125.1418427 131.3649058  99.5828637 125.7996750 130.6618684 100.7511420
 133.3997810 123.9855976 114.2629182 134.3007673 123.8462441 113.9713180
 133.4745785 124.1510431 115.2027360 127.7340616 121.3622831 113.1082369
 126.8643925 121.6556397 112.8364957 127.9700096 121.9463276 113.8289632
 137.6112245 130.4221990 113.1911897 137.3197053 130.7851970 114.0275358
 136.9984376 129.7088998 113.0125229 138.8107927 127.9874870 105.7114467
 139.6454818 128.4264674 105.8752028 138.9467056 127.5113523 104.8922713
 135.8599433 125.5454604 111.6591955 136.3353555 125.7382251 110.8510806
 134.9364998 125.6013790 111.4135339 122.7482940 126.7078772 101.2423033
 122.5028982 125.8041102 101.4403244 122.9178854 126.7095922 100.3002511
 130.4379649 117.5802448 110.6247789 130.9561593 118.3163475 110.2994278
 130.0834782 117.8866441 111.4594548 130.6892244 114.0002731 106.1448686
 130.9693997 113.3325920 106.7709112 131.4742851 114.1931826 105.6323349
 128.4925712 133.1761724  97.7073712 127.9199679 133.7951912  97.2544184
 129.0658506 133.7261086  98.2413634 134.5601102 122.4220365 109.8920261
 135.5118525 122.5218462 109.9132485 134.3904552 121.6298633 110.4018345
 132.5815481 119.5075948 110.0779662 131.9865414 119.7880960 109.3826150
 132.2965178 119.9969849 110.8496403 131.7122972 133.4598875  98.8382294
 132.6453645 133.3944436  99.0415170 131.6246185 134.2955141  98.3796827
 134.3410989 132.7764745  95.7986242 134.2624620 132.4424609  96.6922000
 135.1620655 133.2686513  95.7977714 137.0389180 125.6426484 109.0062560
 137.0065500 124.7042485 109.1922244 137.6489803 125.7210521 108.2728385
 128.8772511 124.5122537  95.0489764 129.8231615 124.3828745  95.1178182
 128.4986756 123.7737199  95.5259193 137.1883668 122.4337528 109.0520844
 136.6722717 121.6495984 108.8650772 138.0723617 122.1056244 109.2167363
 134.8494395 116.1778543 105.0116656 134.6519216 115.8693631 105.8959988
 135.4594101 116.9040182 105.1414586 142.8565730 126.7042491 108.1468597
 143.5869118 126.4427779 108.7076300 142.2472675 125.9671213 108.1870665
 140.9381027 124.8450354 108.7443048 140.2114190 124.7106319 108.1359540
 140.5228314 125.1527182 109.5499766 128.7611203 128.5640283 116.5090421
 129.6814213 128.7418882 116.7030468 128.7260786 127.6196329 116.3570121
 127.0615428 122.4372514  94.9844650 126.1546883 122.1405626  95.0607363
 127.3391409 122.1402332  94.1178936 117.9793368 123.7578877 105.4343696
 117.6596153 122.9044185 105.1418070 117.4326796 123.9727455 106.1901663
 121.7573276 126.4741318 109.1513203 121.9759285 127.4058426 109.1701236
 122.1699050 126.1149292 109.9368006 128.6777494 116.9809403 101.1388891
 127.8678222 116.6356488 101.5144137 129.3661910 116.6716947 101.7276502
 130.6068042 116.0587450 102.7613188 131.1599080 116.4782904 103.4203211
 130.8438128 115.1323198 102.8036144 126.6301141 122.0474524 118.5415951
 126.5297868 122.9968881 118.4728043 126.4122683 121.7192763 117.6692022
 125.8314212 119.2959449  95.1256629 126.6933376 119.6214347  95.3852446
 126.0164557 118.5090945  94.6129695 117.8481628 127.3781789 107.4036818
 117.1545100 126.9635741 106.8906772 118.5954619 127.4202325 106.8070236
 133.9846849 118.1687975 102.2691852 133.4045518 118.8272779 101.8869904
 133.7182782 117.3465320 101.8579269 132.4350415 117.5693033 104.4713172
 132.9350194 117.6809568 103.6627491 133.0786023 117.2654086 105.1113981
 126.4932411 125.4771663 117.3581013 126.0099493 126.2772023 117.5644902
 126.5793350 125.4879607 116.4048457 119.7618371 127.3100042 105.2802832
 119.7389059 127.4087730 104.3284716 120.0719007 128.1565193 105.6019999
 122.4205749 129.3676197 109.3949447 123.3749002 129.3360140 109.3279378
 122.2218272 128.9066821 110.2099673 123.0105131 127.9377313 111.9620245
 123.8298020 128.4321392 111.9855082 123.2841938 127.0209282 111.9337812
 132.7671727 120.3288066 101.3248200 131.8797582 120.6137716 101.1068395
 133.1825716 120.1681829 100.4775477 136.1186263 120.3534587 105.0402539
 136.8946653 120.8431039 105.3127156 135.3934397 120.7792641 105.4974409
 138.5558822 121.0662206 106.0976480 139.1503312 120.8257942 105.3869788
 138.6285405 120.3469336 106.7250016 120.7755977 134.9095817 106.4119645
 120.6410445 134.1496218 105.8457643 120.3588040 135.6336717 105.9448434
 131.9114940 130.0932740  95.4196220 132.6150790 130.2982743  96.0353876
 131.1877589 130.6609502  95.6845304 132.7412751 125.8442602 101.5398490
 132.6847952 126.3011153 100.7006123 133.2941093 125.0833286 101.3621333
 136.5517557 121.6332333 102.3648610 136.2954491 121.2328969 103.1956817
 135.9270425 122.3476127 102.2398749 140.8629894 124.3728407 104.8719901
 140.3029452 124.4421596 105.6451463 140.2573398 124.1969391 104.1519397
 123.9325103 135.8065134 106.6238087 123.8157487 136.7510566 106.5216778
 123.1117549 135.5038695 107.0123887 133.8201638 130.5315270  97.4694680
 134.6547242 130.0996468  97.2872155 133.6585981 130.3597283  98.3971575
 133.4747530 127.0347383  98.8351019 133.4196334 126.8691654  97.8939464
 132.8493585 127.7423416  98.9913209 118.2640045 122.2715447 112.6612442
 118.9098909 121.7614401 113.1499667 118.0557196 123.0084129 113.2355867
 130.7893437 129.3396295 118.1604582 131.6584597 129.5136947 117.7991217
 130.3100189 130.1590712 118.0380312 126.7843655 116.5355492  98.4136338
 126.7722325 117.4797332  98.5704609 127.6767077 116.3525637  98.1195799
 124.9579617 136.4593396 109.8394016 125.8606864 136.4917006 110.1560511
 124.7316987 135.5293847 109.8540352 126.7133219 135.2124382 106.5004094
 125.7628850 135.2126244 106.3868467 127.0165706 134.4657117 105.9840129
 130.5995775 113.1298268 102.6682275 129.8328171 112.5756755 102.8138957
 131.0106480 113.2020137 103.5296426 122.6037536 119.4183064 116.7587456
 123.4668997 119.0619869 116.9690780 122.0302947 119.0796959 117.4462860
 142.4485913 141.0484921 107.5649857 143.0864323 140.9291668 106.8613197
 142.3306756 141.9965765 107.6237809 139.2575619 141.0012349 107.5011382
 138.9194131 140.8853413 106.6131916 140.1265387 140.6003514 107.4812388
 135.1162435 142.8547825 103.4908272 134.5527300 142.7637762 102.7224560
 135.0014830 142.0347730 103.9710765 139.7395402 142.1547200 113.4597587
 139.7284043 141.7599999 112.5878091 139.9016042 141.4213273 114.0531359
 132.6626867 144.3499017 106.3292493 133.4548159 144.0089841 105.9138792
 132.9023517 144.4593992 107.2494646 140.6961994 146.5218793  98.8022737
 140.0449973 147.1072873  98.4156751 141.4906356 147.0524988  98.8617775
 134.6217621 143.6107930  99.2009872 135.3948497 143.0636917  99.0622748
 134.9743020 144.4752179  99.4124333 136.4602663 144.9384312 112.4076771
 136.1692529 145.8429943 112.2923437 137.0959648 144.9800840 113.1220841
 137.3858870 142.3161161 108.9978131 137.9822442 142.0917183 108.2835094
 137.4433842 141.5745906 109.6003579 136.9583899 139.7700596  96.8328322
 137.2109419 139.2482117  96.0711785 136.0208458 139.6066742  96.9355005
 142.0027181 138.7736375 104.6403065 142.7890271 138.3555798 104.2893482
 142.2665886 139.6782467 104.8084713 142.1737259 144.2109225  99.3391722
 141.5383092 144.2843851 100.0512626 141.8434665 144.8002824  98.6610801
 147.4035608 138.7111608 105.5436043 148.1360780 138.1410825 105.7773873
 146.6474964 138.3233208 105.9842549 136.6780187 141.6728702  99.0352697
 136.5616445 140.9973605  99.7033781 136.7882447 141.1861076  98.2184850
 139.0211728 141.1338849 102.7399386 138.6569935 140.6069470 103.4512307
 139.8778844 140.7437318 102.5665871 144.9261029 132.4233182 110.0030652
 144.5944354 133.2928593 109.7791867 144.3306642 132.1069466 110.6824682
 138.6617215 136.1628749  97.7360734 138.8291618 137.0308985  98.1031205
 138.4714384 136.3256031  96.8122024 141.4192548 144.6245728 109.4026565
 141.1193271 145.5270767 109.2942372 141.0743608 144.3577911 110.2547718
 134.8705030 141.0759525 105.4363269 133.9455526 140.9435739 105.6440961
 135.1189443 141.8553744 105.9333212 144.8189692 137.1428268 107.0824002
 143.9106569 137.0743676 106.7882763 144.7677288 137.6200213 107.9105828
 138.6406436 138.6186406  98.7207401 138.5206061 139.0643457  99.5592881
 137.9459024 138.9671724  98.1620939 132.2313841 140.7192798 106.2707058
 132.3606222 140.9727277 107.1846470 131.5511292 141.3120506 105.9511713
 138.8930558 138.5617914 115.0258899 138.1163892 139.1211834 115.0161764
 139.5321121 139.0474697 115.5473769 146.6851339 135.3444706 108.8601876
 146.0425719 135.6377240 108.2141671 146.1806267 135.2297627 109.6655073
 144.3391502 139.0907880  99.5487735 145.2509358 139.3235266  99.3735433
 143.8301149 139.6744924  98.9862814 137.1476930 141.3703367 114.5876866
 137.8891615 141.9088411 114.3111690 136.4413916 141.9969656 114.7448418
 142.6232270 143.5132507 113.1849028 143.0315626 143.0714918 112.4403660
 141.9009531 142.9385135 113.4383221 138.9763340 138.4505114 110.5582585
 139.8224535 138.8744528 110.7017234 138.9161978 137.7938738 111.2521148
 142.9461085 144.0733698 106.9401317 142.3169947 144.2379412 106.2377385
 142.5586747 144.4875308 107.7112281 142.1262785 136.1109483 112.2163758
 141.8823717 136.8651543 111.6798034 142.4022716 136.4894830 113.0511005
 144.0801248 142.6548095 110.8941024 144.2918143 143.2979855 110.2175405
 144.0330996 141.8210411 110.4262954 141.6827477 135.2665916 107.7977596
 140.8211956 135.5647169 108.0894334 141.7089912 135.4836314 106.8658629
 138.4989046 143.8108106 104.2051402 138.9627392 144.0895809 103.4156024
 138.2345845 142.9091551 104.0224492 135.3913127 143.3579588 107.1431165
 135.9614485 143.7866856 106.5048650 135.9821239 143.0762172 107.8415351
 137.4357932 139.9331258 101.0140967 138.1381976 140.3852302 101.4814893
 137.1038561 139.2915077 101.6420860 135.8838294 138.5243015 115.3892176
 135.2536955 139.2059296 115.6227573 135.7774382 138.4126097 114.4445315
 131.1783266 138.1914811 106.3158100 130.3882320 138.4472340 105.8398211
 131.6694514 139.0063149 106.4210141 145.1947076 145.5320050 109.0663381
 146.0164520 145.1300238 108.7846063 145.1909479 145.4288284 110.0179497
 133.1298012 138.5559390 103.2741577 132.3329175 138.6678085 103.7925073
 132.9023604 138.8946043 102.4082468 138.9603679 145.0804094 111.2224092
 139.0248112 145.5424501 112.0582264 138.2514603 144.4501459 111.3506402
 129.4620969 138.4445302 108.7473091 129.7129008 139.3292312 109.0130667
 129.9980518 138.2649903 107.9748183 138.6751697 146.7472201 101.0903072
 138.5397372 147.5923737 101.5187920 139.2161510 146.9491479 100.3269006
 135.1619037 132.8263781 117.7517427 134.7685982 132.2729980 118.4265072
 135.9785177 133.1374359 118.1423945 132.1281094 144.2647639 101.6630997
 132.6405615 145.0590889 101.8136562 132.7803807 143.5673930 101.5964599
 133.9375979 147.3813395 103.7453750 134.1142608 148.3031360 103.5574734
 134.7332813 147.0671815 104.1748130 138.0786998 134.2421660 115.3437684
 138.8196711 134.8428813 115.2642146 138.3104921 133.4999298 114.7855727
 133.2228336 139.4278027 113.6215914 133.1081851 138.5263285 113.9223013
 132.3672853 139.6741724 113.2700730 135.0607295 148.8991569 109.7464093
 135.6114720 148.7708633 108.9741087 134.2218771 149.1986458 109.3958986
 138.8574466 145.1642697 114.0908324 139.3902802 144.4030985 113.8607632
 138.3288547 144.8716349 114.8332478 142.0244161 130.2702763 109.6201966
 141.6808430 131.1604405 109.5441076 142.3923123 130.0804421 108.7571551
 130.0930011 142.5936293 102.4390568 130.9305233 143.0033302 102.2224275
 130.2708279 141.6535736 102.4090762 141.9894443 140.2611374  98.1274401
 141.4741067 141.0315979  98.3662788 141.7171752 139.5876510  98.7507462
 139.5741554 135.1061075 103.1859639 138.7183151 134.7167925 103.0065278
 139.9868506 135.1853036 102.3259425 141.1040701 132.6407418 107.5851199
 140.6005497 132.6037553 106.7719004 141.3971308 133.5500161 107.6447856
 137.3483587 132.7246148 106.5917381 138.2136584 132.5288957 106.2323270
 137.4161096 132.4956500 107.5186737 146.9628717 143.0143729 100.0627574
 146.1858160 142.6754888  99.6182736 147.6420198 143.0196352  99.3882539
 141.7780747 138.1338466  99.9534182 141.4730882 138.4484615 100.8044325
 142.7311189 138.2119886  99.9961515 140.2227178 144.2928690 101.6027136
 139.6948540 143.5581449 101.2900373 139.7214681 145.0703366 101.3567104
 145.2020024 142.4877710 106.7194182 144.5443699 143.1776971 106.8074311
 146.0060424 142.8774142 107.0628169 134.9545906 134.9548356 103.9633747
 135.5289658 134.7323537 103.2306940 135.5416888 135.0237050 104.7162349
 144.0125483 140.8422083 104.7698124 144.5257365 141.4752075 105.2719834
 144.6626707 140.2423278 104.4041484 135.2815493 136.9852817  97.9829633
 134.4452805 137.3227503  98.3038907 135.1420263 136.8501797  97.0456770
 137.2568574 131.8289605 102.6908817 136.6032986 131.5138622 102.0665432
 137.2149048 131.2065345 103.4168640 138.3679779 142.1108900  94.6062109
 137.4606840 141.8798153  94.8053258 138.8650811 141.3146519  94.7936090
 140.4906314 138.3171538 107.0156464 139.5728875 138.5386485 106.8578153
 140.9066458 138.3917849 106.1568172 141.2741362 139.7162954 102.1459145
 142.0213181 140.2284351 101.8366267 141.5432951 139.3947007 103.0063538
 139.5468012 142.2121495  99.1286099 138.6379231 141.9280527  99.2258569
 139.5763096 142.6320573  98.2689406 144.7787279 145.8228084 102.8977267
 144.3249607 144.9818994 102.9542457 144.1481246 146.4589483 103.2352047
 143.7220199 136.7520070 104.1277934 142.9842956 136.2397456 104.4588177
 143.9746973 136.3120452 103.3161211 143.8231826 129.5296322 104.7219703
 144.1290703 128.6693686 104.4345618 144.5484431 130.1213942 104.5218697
 130.1156182 139.9327009 103.1101301 129.9180582 139.3396369 102.3852368
 129.5602846 139.6279219 103.8277240 138.0952906 139.8250115 105.2295894
 138.1501516 138.8723952 105.1538371 137.2844108 139.9809554 105.7137193
 139.2444100 143.7530238  96.4674178 138.8063530 143.0366097  96.0079815
 139.9854541 143.9806353  95.9059269 136.0345266 138.4427175 102.9886273
 135.2213131 138.7421346 103.3951465 136.5304260 138.0482864 103.7060755
 138.1853844 148.4384932 104.9220538 138.1430023 148.6645778 103.9929070
 139.1016543 148.2048307 105.0706339 141.6319478 138.9068999 111.8201167
 141.9868865 139.1340473 112.6795633 142.2791609 139.2387376 111.1978422
 147.3617215 142.0287435 102.5250496 147.2235113 142.2189031 101.5971685
 147.0053433 142.7906818 102.9818547 135.5259341 136.0145531 108.6047508
 136.1658720 135.8734290 107.9070472 134.6936871 135.7280044 108.2286110
 136.3019645 145.3147961 104.7182501 137.0960243 144.8198281 104.5165076
 135.5911337 144.7865824 104.3550206 141.1214489 147.6966056 109.0694868
 141.1751511 148.2656993 109.8372584 140.2529270 147.8667942 108.7048905
 132.6102408 139.4591043 100.7942253 131.6799996 139.3975498 101.0112215
 132.7059880 138.9366995  99.9978895 132.5287957 135.9845856 103.3820495
 132.7894774 136.8991189 103.2729655 133.3505129 135.5170298 103.5317108
 134.0012882 137.3983613 110.5519320 134.6735936 137.1900975 109.9031968
 133.1742669 137.2005699 110.1124552 139.9038454 134.0245554 112.5684980
 139.2566370 134.7235503 112.4749457 140.6739470 134.4581698 112.9361229
 140.0802589 141.8626319 110.6281800 141.0094649 142.0137478 110.4550767
 139.6593619 141.9510339 109.7730447 138.8790921 145.8876983 108.3980338
 138.7402006 145.5195767 109.2706276 138.0905517 146.4024622 108.2264296
 140.4296136 145.2658586 105.7869176 140.0945968 145.2259356 106.6826825
 139.9300081 144.6003302 105.3139586 134.4040380 140.6726216 111.3121757
 134.2660178 139.9406454 111.9133296 135.3145303 140.5835116 111.0305944
 143.3655327 142.6114620  96.0606235 142.7484498 141.8861448  95.9639288
 142.8971816 143.3723980  95.7173309 137.0322680 140.3846175 110.8005436
 137.7422299 139.7439367 110.7592055 136.9891989 140.6359070 111.7231617
 135.7451614 137.3711393 112.6201076 135.2088971 136.9202131 113.2722672
 135.1568323 137.5057302 111.8771540 135.1553873 136.8300044  95.1827539
 134.2783340 136.7088845  94.8189786 135.6311626 136.0386123  94.9306428
 145.0226866 145.2853112 111.9525995 144.1353645 144.9479034 112.0752394
 145.5925417 144.5536143 112.1894761 126.6756013 141.6177204 105.2769047
 127.3627053 141.3038934 104.6890062 126.5204142 142.5218569 105.0036298
 131.4790736 136.5067401 109.7054070 131.3948924 135.8993070 108.9704480
 130.6573442 136.9976419 109.7063567 138.3417799 149.1826335 102.4290060
 137.5585321 149.7248015 102.5228284 139.0410545 149.7000314 102.8284301
 141.6514449 134.9920964 105.0724265 142.1483149 134.2390926 104.7525336
 140.8801431 135.0285281 104.5067475 149.5044207 140.6961330 106.7142557
 149.4934083 141.5786045 106.3436490 148.6361586 140.3432880 106.5197094
 142.7344230 143.7492651 102.6462689 141.8000509 143.8694114 102.4767393
 142.9120899 142.8465118 102.3822699 138.2349418 137.1338347 104.7995950
 137.8647206 136.5809387 105.4876856 138.7308511 136.5296481 104.2470950
 146.1216782 139.5909971 103.1812723 146.5877234 140.4237962 103.1073026
 146.5724282 139.1254952 103.8857981 136.0638617 147.5935842 111.8950968
 136.7648076 148.2272325 112.0480362 135.5933732 147.9350574 111.1346607
 144.1893013 145.9353792 100.1798875 144.4652857 145.8210386 101.0892749
 143.3197511 145.5371277 100.1411048 144.0933444 131.9590558 107.2203624
 143.1796524 132.1894784 107.3885831 144.5226546 132.0429002 108.0717657
 143.8639903 140.1480450 109.7203518 143.2111353 140.3956357 109.0655971
 144.2420283 139.3344588 109.3865996 139.9127476 140.8900261 116.2069555
 139.2368113 140.7894390 116.8771931 140.7355110 140.7339474 116.6705553
 131.6606335 147.1272197 108.8282071 132.2459772 146.3815885 108.9609975
 131.4631173 147.4376154 109.7118734 134.5144990 150.1623445 103.8444513
 133.8455365 150.6469572 103.3608553 134.3757860 150.4092665 104.7587892
 126.2523990 139.6977797 107.5486514 126.2908089 139.1641388 108.3423632
 125.7464282 139.1713003 106.9297491 133.6314752 134.5442338 111.0449056
 133.6956078 135.4057169 110.6326454 133.5681872 133.9316340 110.3121415
 133.1067024 136.6165470 114.6922090 133.7339063 136.2342548 115.3059615
 132.2494943 136.3979672 115.0577783 129.8832567 138.4241900 100.6240445
 130.1786008 137.5152578 100.5707499 128.9820603 138.4029639 100.3021447
 133.4126814 136.4997896 106.6067994 132.6913400 137.1133864 106.4675467
 134.2020070 137.0355661 106.5284640 136.2153128 133.8352323 112.8808645
 136.7387530 134.0814619 113.6434955 135.9965461 134.6672357 112.4611783
 131.6120409 136.1055997 100.7479770 131.2833115 135.2253376 100.5654876
 131.9659779 136.0503666 101.6356160 140.8599988 147.7410900 105.2574756
 140.7124950 146.8127607 105.4382326 141.6853481 147.7630991 104.7731831
 134.7262232 136.3928967 101.1155248 135.0658304 136.9214888 100.3933856
 135.1734352 136.7309373 101.8913814 137.4205673 134.7766018 110.5658316
 137.0802493 133.9773831 110.9678996 136.7144679 135.0767729 109.9935149
 138.0722145 131.8615330 109.0185639 138.8948214 131.3875808 108.8964529
 138.3160208 132.6405814 109.5184325 136.7130379 134.8903589  99.3148541
 137.4338742 135.2684841  98.8112258 136.0895683 135.6092465  99.4183519
 140.8561502 135.5948738 100.2506873 141.0725116 136.4773375  99.9495701
 140.3755569 135.2034951  99.5212515 135.5960723 138.5534451 106.8277618
 135.4505304 138.8674754 107.7201899 135.1185927 139.1719351 106.2748516
 137.4557106 135.5436999 106.8758507 137.4418675 134.6478092 106.5390805
 138.1729534 135.5507662 107.5096793 139.3083237 135.9774339 108.9211635
 139.0501015 136.8991410 108.9195965 138.7768277 135.5804773 109.6112099
 130.0706385 141.0939795 109.7665279 129.5259854 141.8699603 109.8985553
 130.9485735 141.4410600 109.6084400 136.8594002 134.4251379 102.1446077
 136.9809913 133.4968025 102.3436965 136.5696045 134.4390065 101.2324393
 139.7285193 132.1106289 105.2812797 139.7506889 132.1745623 104.3264777
 140.1453252 131.2710798 105.4753303 150.1068817 141.8461549 103.3192020
 150.5499963 141.0968874 102.9211143 149.2295327 141.8371685 102.9365752
 130.8572407 140.2209691 112.6595436 130.1154143 140.3692327 113.2460066
 130.5365152 140.4817957 111.7962185 131.3029021 148.1075120 104.6905830
 132.1287041 147.8078892 104.3104474 130.9523073 147.3382743 105.1395619
 136.2710554 147.4601588 106.7603504 135.6490563 146.7972293 106.4605732
 136.9415421 147.4862720 106.0777152 129.5037626 146.0261447 105.6494764
 128.6669534 145.5983621 105.4678765 129.4761271 146.2193890 106.5865555
 136.3435082 135.9383376 116.3536010 136.3923237 136.8145499 115.9713780
 136.8857596 135.3960769 115.7807653 135.8324061 146.0105512 100.2361964
 135.9812181 146.6940976  99.5828637 136.6390505 145.9910602 100.7511420
 144.2391565 139.3147894 114.2629182 145.1401428 139.1754359 113.9713180
 144.3139539 139.4802349 115.2027360 138.5734370 136.6914749 113.1082369
 137.7037680 136.9848315 112.8364957 138.8093850 137.2755194 113.8289632
 146.6993187 140.8746522 111.6591955 147.1747309 141.0674168 110.8510806
 145.7758753 140.9305708 111.4135339 133.5876694 142.0370689 101.2423033
 133.3422736 141.1333019 101.4403244 133.7572609 142.0387840 100.3002511
 141.2773404 132.9094366 110.6247789 141.7955348 133.6455393 110.2994278
 140.9228537 133.2158359 111.4594548 132.8572342 137.7699047  98.7409195
 132.1641587 137.8443402  98.0849231 132.6124094 137.0059391  99.2630712
 141.5285998 129.3294648 106.1448686 141.8087752 128.6617837 106.7709112
 142.3136605 129.5223744 105.6323349 139.3319467 148.5053642  97.7073712
 138.7593434 149.1243829  97.2544184 139.9052260 149.0553004  98.2413634
 145.3994856 137.7512282 109.8920261 146.3512279 137.8510380 109.9132485
 145.2298307 136.9590551 110.4018345 143.4209236 134.8367865 110.0779662
 142.8259168 135.1172878 109.3826150 143.1358933 135.3261766 110.8496403
 147.8782934 140.9718402 109.0062560 147.8459254 140.0334403 109.1922244
 148.4883558 141.0502439 108.2728385 139.7166265 139.8414455  95.0489764
 140.6625370 139.7120663  95.1178182 139.3380510 139.1029117  95.5259193
 148.0277423 137.7629445 109.0520844 147.5116471 136.9787902 108.8650772
 148.9117371 137.4348162 109.2167363 145.6888150 131.5070461 105.0116656
 145.4912971 131.1985549 105.8959988 146.2987855 132.2332100 105.1414586
 151.7774781 140.1742271 108.7443048 151.0507945 140.0398236 108.1359540
 151.3622068 140.4819100 109.5499766 137.9009182 137.7664431  94.9844650
 136.9940638 137.4697544  95.0607363 138.1785163 137.4694249  94.1178936
 128.8187123 139.0870795 105.4343696 128.4989907 138.2336103 105.1418070
 128.2720551 139.3019373 106.1901663 132.5967030 141.8033236 109.1513203
 132.8153040 142.7350344 109.1701236 133.0092804 141.4441210 109.9368006
 139.5171248 132.3101321 101.1388891 138.7071976 131.9648406 101.5144137
 140.2055665 132.0008865 101.7276502 141.4461796 131.3879368 102.7613188
 141.9992835 131.8074821 103.4203211 141.6831883 130.4615116 102.8036144
 137.4694896 137.3766441 118.5415951 137.3691622 138.3260798 118.4728043
 137.2516438 137.0484680 117.6692022 136.6707967 134.6251367  95.1256629
 137.5327131 134.9506265  95.3852446 136.8558311 133.8382862  94.6129695
 128.6875383 142.7073706 107.4036818 127.9938854 142.2927659 106.8906772
 129.4348374 142.7494243 106.8070236 144.8240603 133.4979893 102.2691852
 144.2439272 134.1564697 101.8869904 144.5576536 132.6757238 101.8579269
 143.2744170 132.8984951 104.4713172 143.7743948 133.0101485 103.6627491
 143.9179778 132.5946004 105.1113981 137.3326166 140.8063580 117.3581013
 136.8493247 141.6063940 117.5644902 137.4187105 140.8171525 116.4048457
 130.6012125 142.6391960 105.2802832 130.5782813 142.7379647 104.3284716
 130.9112762 143.4857111 105.6019999 133.2599503 144.6968115 109.3949447
 134.2142757 144.6652057 109.3279378 133.0612027 144.2358739 110.2099673
 133.8498885 143.2669231 111.9620245 134.6691774 143.7613310 111.9855082
 134.1235693 142.3501199 111.9337812 143.6065481 135.6579983 101.3248200
 142.7191336 135.9429634 101.1068395 144.0219470 135.4973747 100.4775477
 146.9580018 135.6826504 105.0402539 147.7340408 136.1722957 105.3127156
 146.2328152 136.1084559 105.4974409 149.3952576 136.3954124 106.0976480
 149.9897067 136.1549860 105.3869788 149.4679160 135.6761254 106.7250016
 131.6149732 150.2387734 106.4119645 131.4804200 149.4788135 105.8457643
 131.1981794 150.9628634 105.9448434 142.7508695 145.4224658  95.4196220
 143.4544545 145.6274661  96.0353876 142.0271344 145.9901420  95.6845304
 143.5806505 141.1734519 101.5398490 143.5241707 141.6303071 100.7006123
 144.1334848 140.4125204 101.3621333 147.3911311 136.9624251 102.3648610
 147.1348245 136.5620887 103.1956817 146.7664179 137.6768045 102.2398749
 151.7023649 139.7020324 104.8719901 151.1423207 139.7713514 105.6451463
 151.0967152 139.5261309 104.1519397 134.7718858 151.1357052 106.6238087
 134.6551242 152.0802484 106.5216778 133.9511304 150.8330613 107.0123887
 144.6595392 145.8607187  97.4694680 145.4940996 145.4288386  97.2872155
 144.4979735 145.6889201  98.3971575 144.3141284 142.3639301  98.8351019
 144.2590088 142.1983572  97.8939464 143.6887340 143.0715333  98.9913209
 129.1033799 137.6007365 112.6612442 129.7492663 137.0906319 113.1499667
 128.8950951 138.3376047 113.2355867 137.6237410 131.8647410  98.4136338
 137.6116080 132.8089249  98.5704609 138.5160832 131.6817555  98.1195799
 135.7973372 151.7885313 109.8394016 136.7000619 151.8208924 110.1560511
 135.5710742 150.8585764 109.8540352 137.5526974 150.5416300 106.5004094
 136.6022605 150.5418162 106.3868467 137.8559460 149.7949035 105.9840129
 141.4389529 128.4590186 102.6682275 140.6721925 127.9048673 102.8138957
 141.8500234 128.5312055 103.5296426 133.4431290 134.7474982 116.7587456
 134.3062752 134.3911787 116.9690780 132.8696701 134.4088877 117.4462860
  55.7335878  -4.5788298  94.2895163  56.3714288  -4.6981551  93.5858504
  55.6156721  -3.6307454  94.3483116  52.5425584  -4.6260870  94.2256688
  52.2044096  -4.7419805  93.3377223  53.4115353  -5.0269705  94.2057694
  48.4012400  -2.7725394  90.2153579  47.8377265  -2.8635457  89.4469867
  48.2864795  -3.5925489  90.6956072  53.0245367  -3.4726018 100.1842894
  53.0134008  -3.8673220  99.3123397  53.1866007  -4.2059946 100.7776665
  45.9476832  -1.2774202  93.0537800  46.7398124  -1.6183377  92.6384099
  46.1873482  -1.1679227  93.9739953  53.9811959   0.8945574  85.5268044
  53.3299939   1.4799654  85.1402058  54.7756322   1.4251769  85.5863082
  47.9067586  -2.0165289  85.9255178  48.6798462  -2.5636302  85.7868054
  48.2592985  -1.1521039  86.1369640  49.7452629  -0.6888907  99.1322078
  49.4542495   0.2156724  99.0168744  50.3809613  -0.6472379  99.8466147
  50.6708835  -3.3112058  95.7223437  51.2672408  -3.5356036  95.0080400
  50.7283807  -4.0527313  96.3248885  50.2433864  -5.8572623  83.5573628
  50.4959385  -6.3791101  82.7957091  49.3058423  -6.0206477  83.6600312
  55.2877147  -6.8536844  91.3648372  56.0740236  -7.2717421  91.0138789
  55.5515851  -5.9490752  91.5330020  55.4587224  -1.4163994  86.0637028
  54.8233057  -1.3429367  86.7757933  55.1284630  -0.8270395  85.3856108
  60.6885574  -6.9161611  92.2681350  61.4210746  -7.4862394  92.5019180
  59.9324930  -7.3040011  92.7087856  49.9630153  -3.9544517  85.7598003
  49.8466411  -4.6299613  86.4279088  50.0732412  -4.4412143  84.9430156
  52.3061694  -4.4934370  89.4644692  51.9419901  -5.0203749  90.1757614
  53.1628809  -4.8835901  89.2911178  51.9467181  -9.4644470  84.4606041
  52.1141583  -8.5964234  84.8276512  51.7564350  -9.3017188  83.5367330
  54.7042514  -1.0027491  96.1271871  54.4043237  -0.1002452  96.0187679
  54.3593573  -1.2695308  96.9793024  48.1554995  -4.5513694  92.1608576
  47.2305492  -4.6837480  92.3686268  48.4039408  -3.7719475  92.6578518
  58.1039657  -8.4844951  93.8069309  57.1956535  -8.5529542  93.5128070
  58.0527253  -8.0073006  94.6351134  51.9256401  -7.0086812  85.4452708
  51.8056027  -6.5629762  86.2838188  51.2308990  -6.6601495  84.8866246
  45.5163806  -4.9080421  92.9952365  45.6456187  -4.6545942  93.9091777
  44.8361258  -4.3152713  92.6757020  49.6863294   5.7616829  89.0942839
  49.6087323   6.7124654  89.1731320  49.0824937   5.4162702  89.7517765
  52.1780523  -7.0655305 101.7504206  51.4013857  -6.5061385 101.7407071
  52.8171086  -6.5798522 102.2719076  59.9701304 -10.2828512  95.5847183
  59.3275684  -9.9895979  94.9386977  59.4656232 -10.3975592  96.3900379
  57.6241468  -6.5365339  86.2733042  58.5359324  -6.3037952  86.0980739
  57.1151115  -5.9528295  85.7108120  50.4326896  -4.2569852 101.3122173
  51.1741580  -3.7184808 101.0356997  49.7263881  -3.6303563 101.4693725
  55.9082235  -2.1140711  99.9094334  56.3165591  -2.5558301  99.1648967
  55.1859497  -2.6888084 100.1628527  52.2613305  -7.1768105  97.2827891
  53.1074500  -6.7528691  97.4262540  52.2011943  -7.8334480  97.9766455
  56.2311050  -1.5539521  93.6646623  55.6019912  -1.3893807  92.9622691
  55.8436712  -1.1397911  94.4357587  60.1100282  -0.6185083  91.0190987
  59.4251320  -0.2386182  90.4688020  60.1944131  -0.0089756  91.7522935
  55.4112751  -9.5163736  98.9409065  55.1673682  -8.7621676  98.4043341
  55.6872681  -9.1378389  99.7756312  57.3651213  -2.9725124  97.6186331
  57.5768109  -2.3293364  96.9420712  57.3180962  -3.8062807  97.1508261
  54.9677442 -10.3607303  94.5222903  54.1061921 -10.0626050  94.8139640
  54.9939877 -10.1436904  93.5903935  51.7839012  -1.8165113  90.9296708
  52.2477357  -1.5377410  90.1401331  51.5195810  -2.7181668  90.7469799
  48.6763093  -2.2693631  93.8676472  49.2464450  -1.8406363  93.2293956
  49.2671205  -2.5511046  94.5660657  50.7207898  -5.6941960  87.7386274
  51.4231941  -5.2420917  88.2060200  50.3888526  -6.3358141  88.3666167
  49.1688259  -7.1030204 102.1137483  48.5386920  -6.4213923 102.3472880
  49.0624347  -7.2147122 101.1690621  58.4797041  -0.0953168  95.7908688
  59.3014485  -0.4972981  95.5091370  58.4759444  -0.1984934  96.7424804
  46.4147977  -7.0713828  89.9986884  45.6179140  -6.9595134  90.5170380
  46.1873569  -6.7327176  89.1327774  52.2453645  -0.5469125  97.9469398
  52.3098077  -0.0848718  98.7827570  51.5364569  -1.1771760  98.0751708
  66.5703034  -3.7514420  92.1393659  65.8166743  -4.3207022  91.9837664
  66.7050576  -3.7851756  93.0864294  51.9601662   1.1198982  87.8148379
  51.8247337   1.9650518  88.2433227  52.5011475   1.3218260  87.0514313
  45.4131060  -1.3625580  88.3876304  45.9255580  -0.5682329  88.5381869
  46.0653773  -2.0599289  88.3209905  47.2225945   1.7540177  90.4699057
  47.3992573   2.6758141  90.2820041  48.0182778   1.4398596  90.8993437
  51.3636963 -11.3851559 102.0682991  52.1046676 -10.7844406 101.9887453
  51.5954886 -12.1273921 101.5101033  46.5078301  -6.1995191 100.3461220
  46.3931816  -7.1009934 100.6468319  45.6522819  -5.9531495  99.9946037
  53.5870139   1.7422549 101.9448721  53.1433993   0.9558927 101.6269625
  54.2487352   1.9301699 101.2792612  48.3457260   3.2718350  96.4709399
  48.8964685   3.1435414  95.6986393  47.5068736   3.5713239  96.1204292
  55.6851377   2.0225349  99.9730122  55.6669852   2.8434230  99.4810391
  56.6071297   1.8979424 100.1980263  52.1424431  -0.4630522 100.8153631
  52.6752768  -1.2242234 100.5852938  51.6138512  -0.7556870 101.5577785
  43.3779977  -3.0336925  89.1635874  44.2155199  -2.6239917  88.9469582
  43.5558244  -3.9737483  89.1336068  55.2744409  -5.3661845  84.8519707
  54.7591032  -4.5957240  85.0908095  55.0021717  -6.0396709  85.4752769
  52.8591520 -10.5212144  89.9104946  52.0033116 -10.9105294  89.7310584
  53.2718472 -10.4420183  89.0504731  54.3890666 -12.9865801  94.3096506
  53.8855462 -13.0235666  93.4964311  54.6821273 -12.0773058  94.3693162
  60.2478683  -2.6129490  86.7872881  59.4708126  -2.9518331  86.3428043
  60.9270164  -2.6076867  86.1127846  55.0630712  -7.4934753  86.6779489
  54.7580847  -7.1788603  87.5289632  56.0161154  -7.4153333  86.7206822
  53.5077144  -1.3344529  88.3272443  52.9798505  -2.0691770  88.0145680
  53.0064646  -0.5569853  88.0812411  58.4869990  -3.1395509  93.4439489
  57.8293664  -2.4496247  93.5319617  59.2910389  -2.7499077  93.7873475
  57.2975449  -4.7851136  91.4943431  57.8107330  -4.1521144  91.9965140
  57.9476672  -5.3849941  91.1286791  48.5665458  -8.6420402  84.7074939
  47.7302771  -8.3045715  85.0284214  48.4270228  -8.7771422  83.7702076
  51.6529744  -3.5164319  81.3307416  50.7456806  -3.7475066  81.5298565
  52.1500776  -4.3126700  81.5181397  54.5597823   5.1933188  84.2504102
  53.8859522   5.4964885  84.8589060  54.9463645   5.9962268  83.9009559
  53.7756279  -7.3101681  93.7401771  52.8578841  -7.0886734  93.5823459
  54.1916423  -7.2355370  92.8813478  54.5591327  -5.9110265  88.8704451
  55.3063146  -5.3988868  88.5611573  54.8282917  -6.2326212  89.7308845
  52.8317977  -3.4151724  85.8531406  51.9229197  -3.6992691  85.9503875
  52.8613061  -2.9952646  84.9934713  58.0637245   0.1954865  89.6222573
  57.6099572  -0.6454225  89.6787764  57.4331211   0.8316264  89.9597353
  57.0070164  -8.8753149  90.8523241  56.2692921  -9.3875762  91.1833483
  57.2596938  -9.3152767  90.0406518  56.5070184   2.0331362  90.5572391
  56.7993158   2.5936419  89.8384757  57.0168805   2.3259923  91.3125550
  43.4006148  -5.6946210  89.8346608  43.2030548  -6.2876849  89.1097674
  42.8452812  -5.9994000  90.5522547  51.3802871  -5.8023104  91.9541201
  51.4351481  -6.7549267  91.8783678  50.5694073  -5.6463664  92.4382499
  52.5294065  -1.8742981  83.1919484  52.0913495  -2.5907122  82.7325122
  53.2704506  -1.6466866  82.6304576  49.3195231  -7.1846044  89.7131580
  48.5063097  -6.8851873  90.1196772  49.8154225  -7.5790355  90.4306062
  51.4703809   2.8111713  91.6465845  51.4279988   3.0372559  90.7174377
  52.3866508   2.5775088  91.7951646  54.9169443  -6.7204219  98.5446474
  55.2718831  -6.4932746  99.4040940  55.5641574  -6.3885843  97.9223729
  60.6467180  -3.5985783  89.2495803  60.5085079  -3.4084187  88.3216992
  60.2903399  -2.8366401  89.7063854  60.6736560  -1.5309256  94.2607074
  61.1073066  -1.6233967  95.1090128  61.3868140  -1.5551756  93.6227090
  49.5869610  -0.3125258  91.4427807  50.3810208  -0.8074938  91.2410382
  48.8761302  -0.8407395  91.0795513  54.4064454   2.0692838  95.7940175
  54.4601477   2.6383774  96.5617891  53.5379236   2.2394723  95.4294212
  45.8952373  -6.1682176  87.5187560  44.9649962  -6.2297721  87.7357522
  45.9909845  -6.6906223  86.7224201  47.2862848  -8.2289606  97.2764626
  47.9585901  -8.4372244  96.6277275  46.4592634  -8.4267520  96.8369858
  61.5352109  -1.4885556  96.7939960  61.7287999  -0.5839745  97.0399235
  61.4352727  -1.9478137  97.6278545  53.1888420 -11.6027665  99.2930287
  52.5416335 -10.9037716  99.1994763  53.9589435 -11.1691521  99.6606535
  56.5967218  -1.3378813 102.3680840  56.4452724  -1.5668261 101.4510924
  56.5871897  -0.3808212 102.3812185  53.3652554  -3.7646900  97.3527107
  54.2944614  -3.6135741  97.1796074  52.9443584  -3.6762880  96.4975753
  52.1640886   0.2603764  95.1225644  52.0251972  -0.1077451  95.9951582
  51.3755482   0.7751404  94.9509602  52.7589038   5.3612861  86.4651181
  52.9340794   4.8900904  87.2796804  52.0721826   5.9878627  86.6932442
  53.7146101  -0.3614633  92.5114482  53.3795934  -0.4013863  93.4072132
  53.2150047  -1.0269917  92.0384892  47.6890345  -4.9547003  98.0367063
  47.5510143  -5.6866764  98.6378602  48.5995269  -5.0438103  97.7551251
  56.6505293  -3.0158599  82.7851542  56.0334463  -3.7411771  82.6884594
  56.1821781  -2.2549239  82.4418616  50.3172646  -5.2427044  97.5250743
  51.0272264  -5.8833852  97.4837361  50.2741954  -4.9914149  98.4476924
  58.3059424   1.6940309 100.4457322  58.2471971   1.0099530  99.7787905
  58.7078943   2.4359300  99.9937948  49.0301580  -8.2561826  99.3446382
  48.4938937  -8.7071088  99.9967979  48.4418288  -8.1215917  98.6016847
  47.3250123   8.5102223  93.2391041  47.5646721   9.1420747  93.9170060
  46.4819320   8.1590263  93.5256400  48.4403839  -8.7973175  81.9072846
  47.5633305  -8.9184374  81.5435093  48.9161592  -9.5887096  81.6551735
  58.3076832  -0.3420107  98.6771302  57.4203610  -0.6794185  98.7997701
  58.8775383  -1.0737075  98.9140067  39.9605979  -4.0096015  92.0014353
  40.6477019  -4.3234285  91.4135369  39.8054107  -3.1054650  91.7281605
  51.8377985   4.3181346  95.6432545  51.7648157   5.1236317  96.1551850
  51.3955378   4.5173312  94.8180566  51.6267765   3.5553116  89.1535367
  50.8435287   4.0974796  89.2473591  52.3260510   4.0727095  89.5529608
  54.9364415 -10.6352255  91.7969572  55.4333114 -11.3882292  91.4770642
  54.1651396 -10.5987938  91.2312781  62.7894172  -4.9311889  93.4387863
  62.7784048  -4.0487174  93.0681797  61.9211552  -5.2840338  93.2442401
  54.2976669   4.2168180  97.7990704  55.0104641   4.8515645  97.7266605
  53.8066697   4.3132046  96.9830706  56.0194196  -1.8780568  89.3707995
  55.0850474  -1.7579105  89.2012700  56.1970864  -2.7808101  89.1068005
  51.5199384  -8.4934872  91.5241257  51.1497171  -9.0463831  92.2122162
  52.0158476  -9.0976738  90.9716257  59.4066747  -6.0363248  89.9058030
  59.8727199  -5.2035257  89.8318332  59.8574247  -6.5018267  90.6103288
  49.3488582   1.9662623  98.6196275  50.0498042   2.5999106  98.7725669
  48.8783697   2.3077355  97.8591914  57.4742978   0.3080573  86.9044182
  57.7502822   0.1937168  87.8138056  56.6047477  -0.0901942  86.8656355
  57.1489868  -5.4792769  96.4448825  56.4961318  -5.2316862  95.7901278
  57.5270248  -6.2928631  96.1111302  54.1097042   4.5566924  90.5476995
  54.2919437   3.7388580  91.0104748  54.9330028   4.7734616  90.1101885
  54.4439207   3.4835109  87.8092044  54.9726974   2.9727564  87.1962206
  54.7067427   3.1677639  88.6737577  53.1977441  -4.7372958 102.9314862
  52.5218078  -4.8378829 103.6017237  54.0205075  -4.8933744 103.3950859
  44.9456300   1.4998978  95.5527377  45.5309737   0.7542666  95.6855281
  44.7481139   1.8102935  96.4364041  47.7994955   4.5350226  90.5689820
  47.1305331   5.0196353  90.0853860  47.6607825   4.7819446  91.4833198
  51.9400224   6.5693969  97.1672478  52.4918532   6.7325591  97.9321563
  52.2806417   7.1598407  96.4952503  56.7911098   1.3955227 103.0221132
  57.3351002   2.0085185 102.5276087  56.2097943   1.9534805 103.5388145
  55.0768611   4.5175945  94.1536160  54.9519751   3.7165685  93.6447106
  55.7347702   5.0122138  93.6650130  57.1403520   2.3184965  95.7815710
  56.1933855   2.1990316  95.7094037  57.4886293   1.4307463  95.8641972
  54.1449953   2.1137681  91.9820062  53.9974915   1.1854388  92.1627632
  54.9703446   2.1357772  91.4977138  48.0112197  -9.2344252  87.8400555
  48.3508270  -8.7058331  87.1179163  48.4584318  -8.8963846  88.6159121
  57.7484075   2.9366240  93.0684935  58.6730622   2.7309101  92.9309386
  57.5799378   2.6882641  93.9774277  49.9980344 -10.7369630  86.0393847
  50.7188707 -10.3588377  85.5357564  49.3745649 -10.0180753  86.1428825
  54.1411467 -10.0324481  86.9752180  54.3575082  -9.1499843  86.6741008
  53.6605534 -10.4238268  86.2457822  48.8810689  -7.0738768  93.5522924
  48.7355269  -6.7598465  94.4447206  48.4035892  -6.4553868  92.9993823
  50.7407072 -10.0836220  93.6003814  50.7268640 -10.9795127  93.2636112
  51.4579500 -10.0765556  94.2342100  52.5933202  -9.6498880  95.6456941
  52.3350980  -8.7281809  95.6441272  52.0618243 -10.0468445  96.3357405
  57.5379391   3.4551907  88.4247027  57.7116269   2.8898330  87.6720879
  58.0308282   4.2552802  88.2426517  43.3556351  -4.5333424  96.4910585
  42.8109819  -3.7573616  96.6230860  44.2335701  -4.1862619  96.3329707
  63.3918782  -3.7811670  90.0437326  63.8349928  -4.5304345  89.6456450
  62.5145292  -3.7901533  89.6611058  58.5254564   2.7718672  85.5243925
  59.2205468   3.3925364  85.7431240  58.8677714   1.9214023  85.7996303
  44.1422373  -5.4063527  99.3840742  43.4004109  -5.2580892  99.9705373
  43.8215117  -5.1455262  98.5207492  60.4245987   0.2218377  87.0531256
  60.9497311   0.5605650  86.3280576  60.3368339  -0.7134607  86.8694390
  52.0866035   4.1352451  99.1821132  52.3953162   3.8901598 100.0543832
  52.8841517   4.3399089  98.6940003  52.1086647   6.2890360  91.4126509
  51.6691638   5.7966739  92.1059366  52.8594764   5.7463328  91.1718584
  44.5878986   2.4801901  91.4151137  45.4137006   2.1805673  91.0349780
  44.2373038   1.7109524  91.8640926  49.5560520   1.8328370  93.4848811
  48.9340529   1.1699075  93.1851038  50.2265386   1.8589501  92.8022458
  42.7887591   0.3988228  92.3740071  41.9519500  -0.0289598  92.1924072
  42.7611237   0.5920671  93.3110862  49.6285047  -9.6889842 103.0781317
  49.6773202  -8.8127720 102.6959086  50.1707561 -10.2312449 102.5052960
  60.1139893   0.8551281 102.3582454  59.3235436   0.8375420 101.8186953
  59.8773247   1.3939575 103.1131490  60.2337768  -2.2956253  99.6715182
  60.2835773  -2.4606245 100.6130705  60.1251691  -3.1628994  99.2813063
  49.1174026   0.3832293  86.9607271  49.2662147   1.0667757  86.3073944
  49.9240470   0.3637383  87.4756727  57.5241530  -6.3125325 100.9874489
  58.4251393  -6.4518860 100.6958487  57.5989505  -6.1470870 101.9272666
  51.8584335  -8.9358470  99.8327675  50.9887645  -8.6424904  99.5610264
  52.0943816  -8.3518025 100.5534939  61.7355965   0.1240689  99.9157204
  61.4440773   0.4870669 100.7520665  61.1228096  -0.5892303  99.7370536
  62.9351647  -2.3106432  92.4359774  63.7698538  -1.8716627  92.5997334
  63.0710776  -2.7867778  91.6168020  59.9843153  -4.7526697  98.3837262
  60.4597274  -4.5599050  97.5756113  59.0608718  -4.6967511  98.1380645
  46.8726659  -3.5902529  87.9668340  46.6272701  -4.4940199  88.1648550
  47.0422574  -3.5885379  87.0247818  54.5623369 -12.7178853  97.3493096
  55.0805313 -11.9817826  97.0239584  54.2078502 -12.4114860  98.1839855
  52.6169432   2.8780423  84.4319019  52.0443399   3.4970610  83.9789490
  53.1902226   3.4279785  84.9658940  58.6844822  -7.8760937  96.6165567
  59.6362245  -7.7762839  96.6377791  58.5148272  -8.6682668  97.1263652
  56.7059201 -10.7905353  96.8024968  56.1109133 -10.5100341  96.1071457
  56.4208898 -10.3011452  97.5741709  55.8366692   3.1617573  85.5627601
  56.7697365   3.0963135  85.7660476  55.7489905   3.9973840  85.1042133
  58.4654708   2.4783444  82.5231548  58.3868340   2.1443307  83.4167306
  59.2864375   2.9705212  82.5223021  61.1632900  -4.6554817  95.7307867
  61.1309220  -5.5938816  95.9167551  61.7733523  -4.5770780  94.9973692
  53.0016230  -5.7858764  81.7735071  53.9475335  -5.9152556  81.8423489
  52.6230475  -6.5244102  82.2504499  61.3127388  -7.8643773  95.7766150
  60.7966437  -8.6485317  95.5896079  62.1967337  -8.1925057  95.9412670
  66.9809449  -3.5938810  94.8713904  67.7112838  -3.8553522  95.4321607
  66.3716395  -4.3310088  94.9115972  65.0624747  -5.4530947  95.4688355
  64.3357910  -5.5874983  94.8604847  64.6472033  -5.1454119  96.2745073
  52.8854923  -1.7341018 103.2335728  53.8057932  -1.5562419 103.4275775
  52.8504506  -2.6784972 103.0815427  51.1859148  -7.8608788  81.7089956
  50.2790603  -8.1575675  81.7852670  51.4635129  -8.1578969  80.8424242
  45.8816996  -3.8239983  95.8758509  46.1003005  -2.8922875  95.8946543
  46.2942769  -4.1832009  96.6613313  50.7544861  -8.2506777 105.2661258
  50.6541588  -7.3012420 105.1973349  50.5366403  -8.5788538 104.3937328
  41.9725348  -2.9199513  94.1282124  41.2788819  -3.3345560  93.6152079
  42.7198339  -2.8778976  93.5315543  50.6176131  -4.8209639 104.0826320
  50.1343213  -4.0209278 104.2890209  50.7037070  -4.8101694 103.1293764
  43.8862091  -2.9881259  92.0048139  43.8632779  -2.8893572  91.0530022
  44.1962727  -2.1416108  92.3265305  46.5449468  -0.9305104  96.1194754
  47.4992722  -0.9621161  96.0524685  46.3461992  -1.3914480  96.9344979
  47.1348851  -2.3603988  98.6865551  47.9541740  -1.8659909  98.7100388
  47.4085658  -3.2772020  98.6583119  56.8915447  -9.9693235  88.0493507
  56.0041302  -9.6843585  87.8313701  57.3069436 -10.1299472  87.2020784
  60.2429983  -9.9446714  91.7647846  61.0190373  -9.4550262  92.0372463
  59.5178117  -9.5188660  92.2219715  62.6802541  -9.2319095  92.8221787
  63.2747032  -9.4723359  92.1115095  62.7529125  -9.9511965  93.4495323
  44.8999697   4.6114516  93.1364951  44.7654165   3.8514917  92.5702949
  44.4831759   5.3355416  92.6693740  56.0358660  -0.2048561  82.1441527
  56.7394510   0.0001442  82.7599182  55.3121309   0.3628201  82.4090610
  56.8656470  -4.4538700  88.2643797  56.8091672  -3.9970148  87.4251429
  57.4184813  -5.2148015  88.0866640  60.6761276  -8.6648968  89.0893916
  60.4198211  -9.0652332  89.9202124  60.0514144  -7.9505174  88.9644056
  64.9873614  -5.9252894  91.5965208  64.4273172  -5.8559705  92.3696770
  64.3817118  -6.1011910  90.8764704  48.0568823   5.5083833  93.3483394
  47.9401207   6.4529265  93.2462084  47.2361269   5.2057394  93.7369193
  57.9445358   0.2333968  84.1939987  58.7790962  -0.1984833  84.0117462
  57.7829701   0.0615982  85.1216881  57.5991250  -3.2633918  85.5596326
  57.5440054  -3.4289647  84.6184770  56.9737305  -2.5557885  85.7158516
  54.9137157  -0.9585006 104.8849889  55.7828317  -0.7844354 104.5236524
  54.4343908  -0.1390590 104.7625618  49.0823337   6.1612095  96.5639322
  49.9850584   6.1935705  96.8805817  48.8560707   5.2312546  96.5785658
  50.8376939   4.9143081  93.2249401  49.8872570   4.9144943  93.1113773
  51.1409425   4.1675816  92.7085436  66.5729633  10.7503620  94.2895163
  67.2108043  10.6310367  93.5858504  66.4550476  11.6984463  94.3483116
  63.3819339  10.7031048  94.2256688  63.0437850  10.5872112  93.3377223
  64.2509107  10.3022213  94.2057694  59.2406155  12.5566524  90.2153579
  58.6771020  12.4656461  89.4469867  59.1258550  11.7366428  90.6956072
  63.8639122  11.8565899 100.1842894  63.8527763  11.4618698  99.3123397
  64.0259761  11.1231972 100.7776665  56.7870587  14.0517716  93.0537800
  57.5791879  13.7108540  92.6384099  57.0267237  14.1612691  93.9739953
  64.8205713  16.2237492  85.5268044  64.1693693  16.8091572  85.1402058
  65.6150076  16.7543687  85.5863082  58.7461341  13.3126629  85.9255178
  59.5192217  12.7655616  85.7868054  59.0986739  14.1770878  86.1369640
  60.5846383  14.6403011  99.1322078  60.2936249  15.5448642  99.0168744
  61.2203367  14.6819539  99.8466147  61.5102590  12.0179860  95.7223437
  62.1066162  11.7935882  95.0080400  61.5677561  11.2764605  96.3248885
  61.0827618   9.4719295  83.5573628  61.3353139   8.9500816  82.7957091
  60.1452177   9.3085440  83.6600312  66.1270901   8.4755073  91.3648372
  66.9133990   8.0574497  91.0138789  66.3909606   9.3801166  91.5330020
  66.2980979  13.9127924  86.0637028  65.6626812  13.9862550  86.7757933
  65.9678385  14.5021523  85.3856108  71.5279328   8.4130307  92.2681350
  72.2604500   7.8429523  92.5019180  70.7718684   8.0251907  92.7087856
  60.8023907  11.3747401  85.7598003  60.6860165  10.6992304  86.4279088
  60.9126167  10.8879775  84.9430156  63.1455448  10.8357548  89.4644692
  62.7813655  10.3088169  90.1757614  64.0022564  10.4456017  89.2911178
  69.0504749   2.1251881  96.7275959  68.7188073   2.9947292  96.5037174
  68.4550362   1.8088165  97.4069989  62.7860935   5.8647448  84.4606041
  62.9535337   6.7327684  84.8276512  62.5958104   6.0274729  83.5367330
  65.5436268  14.3264427  96.1271871  65.2436991  15.2289465  96.0187679
  65.1987328  14.0596610  96.9793024  58.9948750  10.7778224  92.1608576
  58.0699246  10.6454438  92.3686268  59.2433163  11.5572443  92.6578518
  68.9433412   6.8446967  93.8069309  68.0350289   6.7762375  93.5128070
  68.8921008   7.3218912  94.6351134  62.7650156   8.3205105  85.4452708
  62.6449781   8.7662156  86.2838188  62.0702744   8.6690423  84.8866246
  56.3557561  10.4211497  92.9952365  56.4849942  10.6745976  93.9091777
  55.6755012  11.0139205  92.6757020  60.5257048  21.0908747  89.0942839
  60.4481078  22.0416572  89.1731320  59.9218692  20.7454620  89.7517765
  63.0174278   8.2636612 101.7504206  62.2407612   8.8230533 101.7407071
  63.6564841   8.7493395 102.2719076  70.8095058   5.0463405  95.5847183
  70.1669439   5.3395938  94.9386977  70.3049987   4.9316326  96.3900379
  68.4635222   8.7926578  86.2733042  69.3753078   9.0253965  86.0980739
  67.9544869   9.3763623  85.7108120  61.2720650  11.0722066 101.3122173
  62.0135334  11.6107110 101.0356997  60.5657636  11.6988355 101.4693725
  66.7475990  13.2151206  99.9094334  67.1559346  12.7733617  99.1648967
  66.0253251  12.6403834 100.1628527  63.1007060   8.1523813  97.2827891
  63.9468255   8.5763227  97.4262540  63.0405697   7.4957437  97.9766455
  67.0704804  13.7752397  93.6646623  66.4413667  13.9398111  92.9622691
  66.6830466  14.1894006  94.4357587  70.9494036  14.7106835  91.0190987
  70.2645074  15.0905736  90.4688020  71.0337886  15.3202161  91.7522935
  66.2506505   5.8128181  98.9409065  66.0067437   6.5670242  98.4043341
  66.5266436   6.1913529  99.7756312  68.2044968  12.3566794  97.6186331
  68.4161863  12.9998554  96.9420712  68.1574716  11.5229110  97.1508261
  65.8071197   4.9684614  94.5222903  64.9455676   5.2665868  94.8139640
  65.8333631   5.1855013  93.5903935  62.6232766  13.5126805  90.9296708
  63.0871112  13.7914508  90.1401331  62.3589564  12.6110250  90.7469799
  59.5156847  13.0598287  93.8676472  60.0858204  13.4885555  93.2293956
  60.1064959  12.7780871  94.5660657  61.5601652   9.6349957  87.7386274
  62.2625696  10.0871001  88.2060200  61.2282281   8.9933776  88.3666167
  60.0082014   8.2261714 102.1137483  59.3780674   8.9077995 102.3472880
  59.9018102   8.1144796 101.1690621  55.3026986   7.8933510  93.0403407
  54.5126040   8.1491039  92.5643518  55.7938234   8.7081848  93.1455448
  69.3190796  15.2338749  95.7908688  70.1408240  14.8318936  95.5091370
  69.3153199  15.1306983  96.7424804  57.2541732   8.2578089  89.9986884
  56.4572895   8.3696784  90.5170380  57.0267324   8.5964741  89.1327774
  63.0847399  14.7822792  97.9469398  63.1491832  15.2443200  98.7827570
  62.3758323  14.1520157  98.0751708  53.5864689   8.1464000  95.4718398
  53.8372728   9.0311010  95.7375974  54.1224238   7.9668602  94.6993490
  77.4096789  11.5777498  92.1393659  76.6560497  11.0084896  91.9837664
  77.5444330  11.5440162  93.0864294  62.7995417  16.4490900  87.8148379
  62.6641092  17.2942436  88.2433227  63.3405229  16.6510178  87.0514313
  59.2862757   2.5282480 104.4762734  58.8929702   1.9748678 105.1510378
  60.1028897   2.8393058 104.8669252  56.2524814  13.9666338  88.3876304
  56.7649335  14.7609588  88.5381869  56.9047527  13.2692628  88.3209905
  58.0619699  17.0832094  90.4699057  58.2386327  18.0050059  90.2820041
  58.8576533  16.7690513  90.8993437  62.2030718   3.9440359 102.0682991
  62.9440431   4.5447512 101.9887453  62.4348640   3.2017997 101.5101033
  57.3472056   9.1296726 100.3461220  57.2325571   8.2281983 100.6468319
  56.4916573   9.3760423  99.9946037  64.4263893  17.0714466 101.9448721
  63.9827747  16.2850845 101.6269625  65.0881107  17.2593617 101.2792612
  59.1851014  18.6010268  96.4709399  59.7358440  18.4727331  95.6986393
  58.3462490  18.9005157  96.1204292  66.5245131  17.3517266  99.9730122
  66.5063607  18.1726147  99.4810391  67.4465051  17.2271342 100.1980263
  62.9818186  14.8661396 100.8153631  63.5146522  14.1049684 100.5852938
  62.4532267  14.5735048 101.5577785  66.1487880  -0.0278538  96.3447272
  65.8052150   0.8623104  96.2686383  66.5166843  -0.2176881  95.4816857
  54.2173731  12.2954992  89.1635874  55.0548953  12.7052001  88.9469582
  54.3951999  11.3554434  89.1336068  66.1138163   9.9630073  84.8519707
  65.5984787  10.7334678  85.0908095  65.8415472   9.2895209  85.4752769
  63.6985274   4.8079774  89.9104946  62.8426871   4.4186624  89.7310584
  64.1112226   4.8871735  89.0504731  65.2284421   2.3426117  94.3096506
  64.7249216   2.3056252  93.4964311  65.5215028   3.2518860  94.3693162
  61.4727307   2.4264847  93.3162687  62.3380304   2.2307655  92.9568577
  61.5404816   2.1975199  94.2432044  71.0872437  12.7162428  86.7872881
  70.3101880  12.3773587  86.3428043  71.7663918  12.7215051  86.1127846
  65.9024466   7.8357165  86.6779489  65.5974602   8.1503314  87.5289632
  66.8554908   7.9138585  86.7206822  64.3470898  13.9947388  88.3272443
  63.8192260  13.2600148  88.0145680  63.8458401  14.7722065  88.0812411
  69.3263744  12.1896409  93.4439489  68.6687419  12.8795670  93.5319617
  70.1304143  12.5792841  93.7873475  59.0789626   4.6567055  90.6879054
  59.6533378   4.4342236  89.9552247  59.6660608   4.7255749  91.4407655
  68.1369203  10.5440782  91.4943431  68.6501085  11.1770773  91.9965140
  68.7870427   9.9441977  91.1286791  59.4059213   6.6871516  84.7074939
  58.5696525   7.0246202  85.0284214  59.2663983   6.5520495  83.7702076
  61.3812294   1.5308304  89.4154123  60.7276706   1.2157321  88.7910738
  61.3392768   0.9084044  90.1413946  62.4923498  11.8127599  81.3307416
  61.5850560  11.5816852  81.5298565  62.9894530  11.0165218  81.5181397
  64.6150034   8.0190237  93.7401771  63.6972595   8.2405184  93.5823459
  65.0310178   8.0936548  92.8813478  65.3985082   9.4181653  88.8704451
  66.1456901   9.9303050  88.5611573  65.6676671   9.0965706  89.7308845
  63.6711732  11.9140194  85.8531406  62.7622951  11.6299226  85.9503875
  63.7006816  12.3339272  84.9934713  68.9030999  15.5246783  89.6222573
  68.4493326  14.6837693  89.6787764  68.2724966  16.1608181  89.9597353
  67.8463919   6.4538769  90.8523241  67.1086676   5.9416155  91.1833483
  68.0990692   6.0139151  90.0406518  67.3463938  17.3623280  90.5572391
  67.6386913  17.9228337  89.8384757  67.8562559  17.6551841  91.3125550
  67.9475546  -0.7684979  91.4465010  68.2534423  -1.6287616  91.1590925
  68.6728151  -0.1767359  91.2464004  54.2399902   9.6345708  89.8346608
  54.0424302   9.0415068  89.1097674  53.6846566   9.3297918  90.5522547
  62.2196626   9.5268814  91.9541201  62.2745236   8.5742651  91.8783678
  61.4087828   9.6828253  92.4382499  63.3687820  13.4548937  83.1919484
  62.9307250  12.7384796  82.7325122  64.1098260  13.6825052  82.6304576
  60.1588986   8.1445874  89.7131580  59.3456851   8.4440044  90.1196772
  60.6547980   7.7501563  90.4306062  62.3097564  18.1403631  91.6465845
  62.2673742  18.3664477  90.7174377  63.2260263  17.9067005  91.7951646
  65.7563197   8.6087698  98.5446474  66.1112585   8.8359171  99.4040940
  66.4035329   8.9406075  97.9223729  71.4860934  11.7306134  89.2495803
  71.3478833  11.9207730  88.3216992  71.1297153  12.4925517  89.7063854
  59.6503061   5.7164229  95.3292815  60.2902440   5.5752988  94.6315778
  58.8180591   5.4298743  94.9531417  71.5130314  13.7982661  94.2607074
  71.9466821  13.7057950  95.1090128  72.2261895  13.7740162  93.6227090
  60.4263364  15.0166660  91.4427807  61.2203963  14.5216980  91.2410382
  59.7155057  14.4884523  91.0795513  65.2458209  17.3984755  95.7940175
  65.2995231  17.9675692  96.5617891  64.3772990  17.5686640  95.4294212
  56.7346128   9.1609742  87.5187560  55.8043716   9.0994197  87.7357522
  56.8303600   8.6385694  86.7224201  56.6531677   5.6864554  90.1065802
  56.9138494   6.6009888  89.9974962  57.4748849   5.2188997  90.2562414
  58.1256602   7.1002312  97.2764626  58.7979656   6.8919674  96.6277275
  57.2986389   6.9024398  96.8369858  72.3745864  13.8406362  96.7939960
  72.5681754  14.7452172  97.0399235  72.2746482  13.3813781  97.6278545
  64.0282174   3.7264252  99.2930287  63.3810089   4.4254202  99.1994763
  64.7983190   4.1600396  99.6606535  67.4360972  13.9913105 102.3680840
  67.2846479  13.7623656 101.4510924  67.4265652  14.9483706 102.3812185
  64.2046309  11.5645017  97.3527107  65.1338369  11.7156177  97.1796074
  63.7837339  11.6529038  96.4975753  63.0034640  15.5895682  95.1225644
  62.8645726  15.2214466  95.9951582  62.2149237  16.1043321  94.9509602
  63.5982792  20.6904778  86.4651181  63.7734548  20.2192821  87.2796804
  62.9115580  21.3170544  86.6932442  64.5539856  14.9677284  92.5114482
  64.2189688  14.9278054  93.4072132  64.0543801  14.3022000  92.0384892
  58.5284100  10.3744915  98.0367063  58.3903897   9.6425153  98.6378602
  59.4389023  10.2853815  97.7551251  67.4899047  12.3133319  82.7851542
  66.8728218  11.5880147  82.6884594  67.0215536  13.0742679  82.4418616
  61.1566400  10.0864874  97.5250743  61.8666019   9.4458066  97.4837361
  61.1135708  10.3377769  98.4476924  69.1453179  17.0232227 100.4457322
  69.0865725  16.3391447  99.7787905  69.5472697  17.7651217  99.9937948
  59.8695334   7.0730092  99.3446382  59.3332691   6.6220830  99.9967979
  59.2812043   7.2076001  98.6016847  58.1643878  23.8394141  93.2391041
  58.4040476  24.4712665  93.9170060  57.3213074  23.4882181  93.5256400
  59.2797593   6.5318743  81.9072846  58.4027059   6.4107544  81.5435093
  59.7555346   5.7404821  81.6551735  69.1470586  14.9871811  98.6771302
  68.2597365  14.6497733  98.7997701  69.7169137  14.2554842  98.9140067
  50.7999733  11.3195903  92.0014353  51.4870773  11.0057633  91.4135369
  50.6447862  12.2237267  91.7281605  55.6034455   6.2086099  96.4299377
  55.5192644   5.6011769  95.6949787  54.7817162   6.6995118  96.4308873
  62.6771740  19.6473263  95.6432545  62.6041911  20.4528235  96.1551850
  62.2349133  19.8465229  94.8180566  62.4661519  18.8845033  89.1535367
  61.6829041  19.4266714  89.2473591  63.1654264  19.4019013  89.5529608
  65.7758169   4.6939663  91.7969572  66.2726869   3.9409625  91.4770642
  65.0045151   4.7303980  91.2312781  73.6287927  10.3980028  93.4387863
  73.6177803  11.2804744  93.0681797  72.7605306  10.0451579  93.2442401
  65.1370423  19.5460097  97.7990704  65.8498395  20.1807562  97.7266605
  64.6460452  19.6423963  96.9830706  66.8587950  13.4511350  89.3707995
  65.9244229  13.5712813  89.2012700  67.0364618  12.5483817  89.1068005
  62.3593138   6.8357046  91.5241257  61.9890926   6.2828086  92.2122162
  62.8552231   6.2315179  90.9716257  70.2460501   9.2928669  89.9058030
  70.7120954  10.1256661  89.8318332  70.6968002   8.8273651  90.6103288
  60.1882337  17.2954541  98.6196275  60.8891796  17.9291024  98.7725669
  59.7177452  17.6369272  97.8591914  68.3136732  15.6372491  86.9044182
  68.5896576  15.5229085  87.8138056  67.4441231  15.2389976  86.8656355
  68.2177164   1.6609256  93.9448931  67.3040244   1.8913483  94.1131138
  68.6470266   1.7447701  94.7962963  67.9883623   9.8499148  96.4448825
  67.3355073  10.0975056  95.7901278  68.3664002   9.0363287  96.1111302
  64.9490796  19.8858842  90.5476995  65.1313191  19.0680498  91.0104748
  65.7723782  20.1026534  90.1101885  64.0371196  10.5918959 102.9314862
  63.3611833  10.4913089 103.6017237  64.8598829  10.4358173 103.3950859
  55.7850055  16.8290896  95.5527377  56.3703491  16.0834584  95.6855281
  55.5874893  17.1394853  96.4364041  58.6388710  19.8642143  90.5689820
  57.9699085  20.3488271  90.0853860  58.5001580  20.1111364  91.4833198
  50.3767709   9.3996496  94.2731820  50.4151809   8.8660087  95.0668938
  49.8708002   8.8731702  93.6542798  62.7793978  21.8985887  97.1672478
  63.3312287  22.0617508  97.9321563  63.1200172  22.4890325  96.4952503
  57.7558472   4.2461037  97.7694363  57.8199798   5.1075868  97.3571760
  57.6925592   3.6335038  97.0366721  57.2310744   6.3184169 101.4167397
  57.8582783   5.9361247 102.0304921  56.3738663   6.0998371 101.7823089
  67.6304853  16.7247144 103.0221132  68.1744757  17.3377103 102.5276087
  67.0491698  17.2826723 103.5388145  54.0076287   8.1260598  87.3485752
  54.3029728   7.2171277  87.2952805  53.1064323   8.1048338  87.0266754
  65.9162366  19.8467862  94.1536160  65.7913505  19.0457602  93.6447106
  66.5741457  20.3414056  93.6650130  57.5370534   6.2016595  93.3313300
  56.8157120   6.8152563  93.1920774  58.3263790   6.7374360  93.2529946
  67.9797274  17.6476883  95.7815710  67.0327610  17.5282234  95.7094037
  68.3280047  16.7599381  95.8641972  60.3396848   3.5371021  99.6053952
  60.8631249   3.7833318 100.3680261  60.1209181   4.3691056  99.1857089
  55.7364129   5.8074696  87.4725077  55.4076835   4.9272075  87.2900183
  56.0903499   5.7522365  88.3601466  64.9843707  17.4429599  91.9820062
  64.8368670  16.5146306  92.1627632  65.8097201  17.4649689  91.4977138
  58.8505952   6.0947666  87.8400555  59.1902024   6.6233587  87.1179163
  59.2978072   6.4328072  88.6159121  68.5877829  18.2658157  93.0684935
  69.5124377  18.0601019  92.9309386  68.4193133  18.0174559  93.9774277
  61.5449393   4.4784717  97.2903623  61.2046213   3.6792530  97.6924303
  60.8388399   4.7786427  96.7180456  62.1965864   1.5634029  95.7430946
  63.0191934   1.0894507  95.6209836  62.4403928   2.3424513  96.2429632
  60.8374099   4.5922287  86.0393847  61.5582461   4.9703540  85.5357564
  60.2139403   5.3111164  86.1428825  64.9805222   5.2967436  86.9752180
  65.1968836   6.1792074  86.6741008  64.4999289   4.9053650  86.2457822
  59.7204443   8.2553150  93.5522924  59.5749024   8.5693453  94.4447206
  59.2429647   8.8738050  92.9993823  61.5800826   5.2455698  93.6003814
  61.5662395   4.3496791  93.2636112  62.2973254   5.2526361  94.2342100
  63.4326957   5.6793038  95.6456941  63.1744735   6.6010108  95.6441272
  62.9011997   5.2823472  96.3357405  54.1950105  10.7958494  96.4910585
  53.6503573  11.5718302  96.6230860  55.0729455  11.1429298  96.3329707
  60.9837722   4.1270078  88.8691384  61.1053633   3.1986724  89.0682271
  60.6939764   4.1408764  87.9569699  63.8528912   1.8124988  92.0058104
  63.8750609   1.8764321  91.0510083  64.2696971   0.9729497  92.1998610
  74.2312537  11.5480248  90.0437326  74.6743683  10.7987573  89.6456450
  73.3539047  11.5390384  89.6611058  54.9816127   9.9228390  99.3840742
  54.2397863  10.0711026  99.9705373  54.6608871  10.1836656  98.5207492
  71.2639741  15.5510295  87.0531256  71.7891065  15.8897568  86.3280576
  71.1762094  14.6157310  86.8694390  62.9259790  19.4644369  99.1821132
  63.2346916  19.2193515 100.0543832  63.7235272  19.6691007  98.6940003
  62.9480402  21.6182278  91.4126509  62.5085392  21.1258657  92.1059366
  63.6988519  21.0755246  91.1718584  55.4272741  17.8093819  91.4151137
  56.2530761  17.5097591  91.0349780  55.0766793  17.0401441  91.8640926
  60.3954274  17.1620287  93.4848811  59.7734283  16.4990992  93.1851038
  61.0659141  17.1881419  92.8022458  53.6281346  15.7280145  92.3740071
  52.7913254  15.3002320  92.1924072  53.6004991  15.9212589  93.3110862
  60.4678802   5.6402075 103.0781317  60.5166957   6.5164198 102.6959086
  61.0101316   5.0979468 102.5052960  70.9533647  16.1843198 102.3582454
  70.1629191  16.1667337 101.8186953  70.7167002  16.7231492 103.1131490
  71.0731522  13.0335665  99.6715182  71.1229527  12.8685672 100.6130705
  70.9645446  12.1662924  99.2813063  59.9567781  15.7124211  86.9607271
  60.1055901  16.3959675  86.3073944  60.7634224  15.6929301  87.4756727
  68.3635285   9.0166593 100.9874489  69.2645147   8.8773058 100.6958487
  68.4383259   9.1821048 101.9272666  62.6978090   6.3933448  99.8327675
  61.8281399   6.6867014  99.5610264  62.9337570   6.9773893 100.5534939
  72.5749719  15.4532606  99.9157204  72.2834527  15.8162587 100.7520665
  71.9621850  14.7399615  99.7370536  73.7745401  13.0185486  92.4359774
  74.6092293  13.4575290  92.5997334  73.9104530  12.5424139  91.6168020
  70.8236907  10.5765221  98.3837262  71.2991029  10.7692867  97.5756113
  69.9002473  10.6324407  98.1380645  57.7120414  11.7389388  87.9668340
  57.4666456  10.8351718  88.1648550  57.8816328  11.7406539  87.0247818
  65.4017124   2.6113065  97.3493096  65.9199068   3.3474092  97.0239584
  65.0472257   2.9177058  98.1839855  56.9816061   7.4717746  85.4654501
  56.2885306   7.5462101  84.8094537  56.7367813   6.7078089  85.9876018
  65.6529718  -0.9686653  92.8693992  65.9331472  -1.6363464  93.4954419
  66.4380325  -0.7757557  92.3568656  63.4563186  18.2072341  84.4319019
  62.8837154  18.8262528  83.9789490  64.0295980  18.7571703  84.9658940
  69.5238576   7.4530981  96.6165567  70.4755999   7.5529079  96.6377791
  69.3542027   6.6609250  97.1263652  67.5452956   4.5386564  96.8024968
  66.9502888   4.8191577  96.1071457  67.2602652   5.0280465  97.5741709
  69.3048463  17.8075361  82.5231548  69.2262094  17.4735225  83.4167306
  70.1258130  18.2997129  82.5223021  72.0026654  10.6737101  95.7307867
  71.9702974   9.7353102  95.9167551  72.6127278  10.7521138  94.9973692
  63.8409985   9.5433154  81.7735071  64.7869090   9.4139362  81.8423489
  63.4624230   8.8047816  82.2504499  72.1521143   7.4648144  95.7766150
  71.6360191   6.6806601  95.5896079  73.0361091   7.1366861  95.9412670
  69.8131869   1.2089160  91.7361963  69.6156691   0.9004248  92.6205295
  70.4231575   1.9350799  91.8659893  77.8203204  11.7353108  94.8713904
  78.5506592  11.4738396  95.4321607  77.2110149  10.9981830  94.9115972
  75.9018501   9.8760970  95.4688355  75.1751665   9.7416935  94.8604847
  75.4865788  10.1837799  96.2745073  63.7248677  13.5950900 103.2335728
  64.6451687  13.7729499 103.4275775  63.6898261  12.6506945 103.0815427
  62.0252902   7.4683130  81.7089956  61.1184357   7.1716243  81.7852670
  62.3028883   7.1712948  80.8424242  52.9430842   8.7889494  92.1589003
  52.6233627   7.9354802  91.8663377  52.3964271   9.0038072  92.9146970
  56.7210750  11.5051935  95.8758509  56.9396760  12.4369042  95.8946543
  57.1336524  11.1459909  96.6613313  63.6414968   2.0120020  87.8634198
  62.8315696   1.6667105  88.2389444  64.3299385   1.7027564  88.4521809
  65.5705516   1.0898067  89.4858494  66.1236555   1.5093520  90.1448517
  65.8075602   0.1633815  89.5281450  61.5938615   7.0785140 105.2661258
  61.4935342   8.0279497 105.1973349  61.3760157   6.7503379 104.3937328
  60.7951687   4.3270065  81.8501935  61.6570851   4.6524964  82.1097753
  60.9802031   3.5401561  81.3375001  52.8119102  12.4092405  94.1282124
  52.1182574  11.9946358  93.6152079  53.5592093  12.4512942  93.5315543
  68.9484323   3.1998592  88.9937158  68.3682992   3.8583396  88.6115211
  68.6820256   2.3775936  88.5824576  67.3987890   2.6003650  91.1958479
  67.8987668   2.7120184  90.3872798  68.0423497   2.2964702  91.8359287
  61.4569885  10.5082279 104.0826320  60.9736967  11.3082639 104.2890209
  61.5430824  10.5190224 103.1293764  54.7255845  12.3410659  92.0048139
  54.7026533  12.4398346  91.0530022  55.0356481  13.1875810  92.3265305
  57.3843223  14.3986814  96.1194754  58.3386476  14.3670756  96.0524685
  57.1855746  13.9377438  96.9344979  57.9742605  12.9687930  98.6865551
  58.7935494  13.4632009  98.7100388  58.2479413  12.0519898  98.6583119
  67.7309201   5.3598682  88.0493507  66.8435056   5.6448333  87.8313701
  68.1463190   5.1992446  87.2020784  71.0823737   5.3845203  91.7647846
  71.8584127   5.8741656  92.0372463  70.3571872   5.8103257  92.2219715
  73.5196296   6.0972822  92.8221787  74.1140787   5.8568558  92.1115095
  73.5922880   5.3779953  93.4495323  55.7393452  19.9406433  93.1364951
  55.6047920  19.1806834  92.5702949  55.3225514  20.6647333  92.6693740
  66.8752415  15.1243357  82.1441527  67.5788265  15.3293359  82.7599182
  66.1515063  15.6920119  82.4090610  67.7050225  10.8753218  88.2643797
  67.6485426  11.3321770  87.4251429  68.2578567  10.1143903  88.0866640
  71.5155031   6.6642950  89.0893916  71.2591965   6.2639586  89.9202124
  70.8907899   7.3786744  88.9644056  75.8267369   9.4039023  91.5965208
  75.2666927   9.4732213  92.3696770  75.2210872   9.2280008  90.8764704
  58.8962578  20.8375750  93.3483394  58.7794962  21.7821183  93.2462084
  58.0755024  20.5349312  93.7369193  68.7839112  15.5625886  84.1939987
  69.6184716  15.1307085  84.0117462  68.6223455  15.3907900  85.1216881
  68.4385004  12.0657999  85.5596326  68.3833808  11.9002271  84.6184770
  67.8131060  12.7734032  85.7158516  53.2277519   7.3026064  99.3857748
  53.8736383   6.7925018  99.8744973  53.0194670   8.0394745  99.9601174
  65.7530911  14.3706911 104.8849889  66.6222071  14.5447564 104.5236524
  65.2737663  15.1901328 104.7625618  61.7481130   1.5666108  85.1381644
  61.7359800   2.5107948  85.2949915  62.6404552   1.3836254  84.8441106
  59.9217092  21.4904012  96.5639322  60.8244338  21.5227623  96.8805817
  59.6954462  20.5604463  96.5785658  61.6770694  20.2434999  93.2249401
  60.7266325  20.2436860  93.1113773  61.9803180  19.4967733  92.7085436
  65.5633249  -1.8391115  89.3927581  64.7965645  -2.3932628  89.5384264
  65.9743954  -1.7669246  90.2541733  57.5675010   4.4493681 103.4832762
  58.4306472   4.0930486 103.6936087  56.9940421   4.1107576 104.1708167
  77.4123387  26.0795537  94.2895163  78.0501797  25.9602285  93.5858504
  77.2944230  27.0276381  94.3483116  74.2213093  26.0322965  94.2256688
  73.8831605  25.9164030  93.3377223  75.0902862  25.6314130  94.2057694
  74.7032876  27.1857817 100.1842894  74.6921517  26.7910615  99.3123397
  74.8653516  26.4523890 100.7776665  71.4240138  29.9694929  99.1322078
  71.1330004  30.8740560  99.0168744  72.0597122  30.0111456  99.8466147
  72.3496344  27.3471777  95.7223437  72.9459917  27.1227800  95.0080400
  72.4071316  26.6056523  96.3248885  76.9664656  23.8046991  91.3648372
  77.7527745  23.3866414  91.0138789  77.2303360  24.7093083  91.5330020
  77.1374733  29.2419841  86.0637028  76.5020566  29.3154468  86.7757933
  76.8072139  29.8313440  85.3856108  82.3673083  23.7422224  92.2681350
  83.0998255  23.1721441  92.5019180  81.6112438  23.3543825  92.7087856
  73.9849203  26.1649466  89.4644692  73.6207410  25.6380087  90.1757614
  74.8416318  25.7747935  89.2911178  79.8898503  17.4543798  96.7275959
  79.5581828  18.3239209  96.5037174  79.2944117  17.1380082  97.4069989
  73.6254689  21.1939365  84.4606041  73.7929092  22.0619602  84.8276512
  73.4351859  21.3566647  83.5367330  76.3830023  29.6556344  96.1271871
  76.0830746  30.5581383  96.0187679  76.0381082  29.3888528  96.9793024
  69.8342504  26.1070141  92.1608576  68.9093001  25.9746355  92.3686268
  70.0826917  26.8864360  92.6578518  79.7827166  22.1738885  93.8069309
  78.8744044  22.1054293  93.5128070  79.7314762  22.6510829  94.6351134
  73.6043910  23.6497023  85.4452708  73.4843536  24.0954074  86.2838188
  72.9096499  23.9982341  84.8866246  67.1951315  25.7503415  92.9952365
  67.3243696  26.0037894  93.9091777  66.5148767  26.3431123  92.6757020
  73.8568032  23.5928530 101.7504206  73.0801366  24.1522450 101.7407071
  74.4958595  24.0785313 102.2719076  81.6488813  20.3755323  95.5847183
  81.0063193  20.6687856  94.9386977  81.1443741  20.2608243  96.3900379
  79.3028977  24.1218496  86.2733042  80.2146833  24.3545883  86.0980739
  78.7938624  24.7055540  85.7108120  72.1114405  26.4013983 101.3122173
  72.8529089  26.9399027 101.0356997  71.4051390  27.0280272 101.4693725
  77.5869744  28.5443124  99.9094334  77.9953100  28.1025534  99.1648967
  76.8647006  27.9695751 100.1628527  73.9400814  23.4815731  97.2827891
  74.7862009  23.9055144  97.4262540  73.8799452  22.8249355  97.9766455
  81.7887791  30.0398752  91.0190987  81.1038829  30.4197654  90.4688020
  81.8731640  30.6494079  91.7522935  77.0900260  21.1420099  98.9409065
  76.8461191  21.8962160  98.4043341  77.3660190  21.5205447  99.7756312
  79.0438722  27.6858711  97.6186331  79.2555618  28.3290471  96.9420712
  78.9968471  26.8521028  97.1508261  76.6464951  20.2976532  94.5222903
  75.7849430  20.5957786  94.8139640  76.6727386  20.5146931  93.5903935
  73.4626521  28.8418723  90.9296708  73.9264866  29.1206426  90.1401331
  73.1983319  27.9402167  90.7469799  70.3550602  28.3890204  93.8676472
  70.9251959  28.8177473  93.2293956  70.9458714  28.1072789  94.5660657
  70.8475768  23.5553632 102.1137483  70.2174429  24.2369913 102.3472880
  70.7411856  23.4436713 101.1690621  66.1420741  23.2225428  93.0403407
  65.3519795  23.4782956  92.5643518  66.6331988  24.0373766  93.1455448
  73.9241154  30.1114710  97.9469398  73.9885586  30.5735117  98.7827570
  73.2152078  29.4812075  98.0751708  64.4258444  23.4755918  95.4718398
  64.6766482  24.3602928  95.7375974  64.9617992  23.2960520  94.6993490
  88.2490543  26.9069415  92.1393659  87.4954252  26.3376813  91.9837664
  88.3838085  26.8732080  93.0864294  70.1256511  17.8574398 104.4762734
  69.7323457  17.3040596 105.1510378  70.9422651  18.1684976 104.8669252
  73.0424472  19.2732277 102.0682991  73.7834185  19.8739430 101.9887453
  73.2742395  18.5309914 101.5101033  68.1865810  24.4588644 100.3461220
  68.0719325  23.5573901 100.6468319  67.3310328  24.7052341  99.9946037
  75.2657648  32.4006384 101.9448721  74.8221502  31.6142763 101.6269625
  75.9274861  32.5885535 101.2792612  70.0244769  33.9302186  96.4709399
  70.5752194  33.8019249  95.6986393  69.1856245  34.2297075  96.1204292
  77.3638886  32.6809184  99.9730122  77.3457361  33.5018065  99.4810391
  78.2858806  32.5563259 100.1980263  73.8211940  30.1953314 100.8153631
  74.3540277  29.4341602 100.5852938  73.2926021  29.9026965 101.5577785
  76.9881635  15.3013380  96.3447272  76.6445904  16.1915021  96.2686383
  77.3560598  15.1115037  95.4816857  76.9531918  25.2921991  84.8519707
  76.4378541  26.0626595  85.0908095  76.6809226  24.6187127  85.4752769
  74.5379029  20.1371691  89.9104946  73.6820625  19.7478542  89.7310584
  74.9505980  20.2163652  89.0504731  76.0678175  17.6718035  94.3096506
  75.5642971  17.6348170  93.4964311  76.3608782  18.5810777  94.3693162
  72.3121061  17.7556764  93.3162687  73.1774058  17.5599573  92.9568577
  72.3798570  17.5267116  94.2432044  81.9266192  28.0454345  86.7872881
  81.1495635  27.7065505  86.3428043  82.6057673  28.0506968  86.1127846
  76.7418221  23.1649083  86.6779489  76.4368356  23.4795232  87.5289632
  77.6948663  23.2430503  86.7206822  75.1864653  29.3239306  88.3272443
  74.6586014  28.5892066  88.0145680  74.6852155  30.1013982  88.0812411
  80.1657499  27.5188327  93.4439489  79.5081173  28.2087588  93.5319617
  80.9697898  27.9084758  93.7873475  78.9762958  25.8732699  91.4943431
  79.4894839  26.5062691  91.9965140  79.6264181  25.2733895  91.1286791
  72.2206048  16.8600221  89.4154123  71.5670460  16.5449238  88.7910738
  72.1786522  16.2375962  90.1413946  75.4543788  23.3482155  93.7401771
  74.5366350  23.5697102  93.5823459  75.8703932  23.4228465  92.8813478
  76.2378836  24.7473570  88.8704451  76.9850655  25.2594968  88.5611573
  76.5070426  24.4257623  89.7308845  74.5105486  27.2432111  85.8531406
  73.6016706  26.9591144  85.9503875  74.5400570  27.6631190  84.9934713
  79.7424754  30.8538701  89.6222573  79.2887081  30.0129611  89.6787764
  79.1118720  31.4900099  89.9597353  78.6857673  21.7830687  90.8523241
  77.9480430  21.2708073  91.1833483  78.9384447  21.3431068  90.0406518
  78.7869301  14.5606939  91.4465010  79.0928177  13.7004302  91.1590925
  79.5121905  15.1524559  91.2464004  73.0590380  24.8560732  91.9541201
  73.1138990  23.9034568  91.8783678  72.2481582  25.0120171  92.4382499
  76.5956952  23.9379616  98.5446474  76.9506340  24.1651089  99.4040940
  77.2429083  24.2697993  97.9223729  82.3254689  27.0598052  89.2495803
  82.1872587  27.2499648  88.3216992  81.9690908  27.8217435  89.7063854
  70.4896815  21.0456147  95.3292815  71.1296194  20.9044906  94.6315778
  69.6574346  20.7590660  94.9531417  82.3524069  29.1274579  94.2607074
  82.7860575  29.0349868  95.1090128  83.0655649  29.1032079  93.6227090
  71.2657119  30.3458577  91.4427807  72.0597717  29.8508898  91.2410382
  70.5548811  29.8176441  91.0795513  68.9650357  22.4294229  97.2764626
  69.6373410  22.2211591  96.6277275  68.1380143  22.2316315  96.8369858
  83.2139618  29.1698280  96.7939960  83.4075508  30.0744090  97.0399235
  83.1140236  28.7105699  97.6278545  74.8675929  19.0556170  99.2930287
  74.2203844  19.7546120  99.1994763  75.6376944  19.4892314  99.6606535
  78.2754727  29.3205022 102.3680840  78.1240233  29.0915574 101.4510924
  78.2659406  30.2775624 102.3812185  75.0440063  26.8936935  97.3527107
  75.9732123  27.0448095  97.1796074  74.6231093  26.9820956  96.4975753
  73.8428395  30.9187599  95.1225644  73.7039481  30.5506384  95.9951582
  73.0542991  31.4335239  94.9509602  75.3933610  30.2969202  92.5114482
  75.0583443  30.2569972  93.4072132  74.8937556  29.6313918  92.0384892
  69.3677854  25.7036832  98.0367063  69.2297652  24.9717071  98.6378602
  70.2782778  25.6145732  97.7551251  78.3292802  27.6425236  82.7851542
  77.7121972  26.9172065  82.6884594  77.8609290  28.4034597  82.4418616
  71.9960155  25.4156792  97.5250743  72.7059773  24.7749984  97.4837361
  71.9529463  25.6669686  98.4476924  79.9846933  32.3524145 100.4457322
  79.9259480  31.6683365  99.7787905  80.3866452  33.0943135  99.9937948
  70.7089089  22.4022009  99.3446382  70.1726446  21.9512748  99.9967979
  70.1205797  22.5367918  98.6016847  79.9864341  30.3163729  98.6771302
  79.0991119  29.9789651  98.7997701  80.5562892  29.5846760  98.9140067
  66.4428210  21.5378017  96.4299377  66.3586399  20.9303687  95.6949787
  65.6210916  22.0287035  96.4308873  76.6151924  20.0231581  91.7969572
  77.1120623  19.2701543  91.4770642  75.8438905  20.0595897  91.2312781
  84.4681681  25.7271946  93.4387863  84.4571557  26.6096662  93.0681797
  83.5999061  25.3743497  93.2442401  75.9764178  34.8752015  97.7990704
  76.6892150  35.5099480  97.7266605  75.4854206  34.9715881  96.9830706
  77.6981704  28.7803268  89.3707995  76.7637983  28.9004730  89.2012700
  77.8758373  27.8775735  89.1068005  73.1986893  22.1648964  91.5241257
  72.8284680  21.6120004  92.2122162  73.6945985  21.5607097  90.9716257
  81.0854256  24.6220587  89.9058030  81.5514708  25.4548579  89.8318332
  81.5361756  24.1565569  90.6103288  71.0276091  32.6246459  98.6196275
  71.7285551  33.2582942  98.7725669  70.5571206  32.9661190  97.8591914
  79.1530487  30.9664408  86.9044182  79.4290331  30.8521003  87.8138056
  78.2834986  30.5681893  86.8656355  79.0570919  16.9901174  93.9448931
  78.1433998  17.2205401  94.1131138  79.4864020  17.0739618  94.7962963
  78.8277377  25.1791066  96.4448825  78.1748827  25.4266974  95.7901278
  79.2057757  24.3655204  96.1111302  74.8764950  25.9210877 102.9314862
  74.2005587  25.8205006 103.6017237  75.6992584  25.7650091 103.3950859
  61.2161464  24.7288414  94.2731820  61.2545563  24.1952005  95.0668938
  60.7101757  24.2023619  93.6542798  68.5952226  19.5752954  97.7694363
  68.6593553  20.4367785  97.3571760  68.5319346  18.9626956  97.0366721
  68.0704499  21.6476087 101.4167397  68.6976538  21.2653164 102.0304921
  67.2132418  21.4290289 101.7823089  78.4698607  32.0539062 103.0221132
  79.0138511  32.6669020 102.5276087  77.8885452  32.6118641 103.5388145
  68.3764288  21.5308513  93.3313300  67.6550874  22.1444480  93.1920774
  69.1657544  22.0666277  93.2529946  71.1790602  18.8662939  99.6053952
  71.7025004  19.1125236 100.3680261  70.9602935  19.6982974  99.1857089
  72.3843147  19.8076634  97.2903623  72.0439967  19.0084447  97.6924303
  71.6782153  20.1078345  96.7180456  73.0359619  16.8925947  95.7430946
  73.8585688  16.4186425  95.6209836  73.2797682  17.6716430  96.2429632
  75.8198976  20.6259354  86.9752180  76.0362591  21.5083992  86.6741008
  75.3393043  20.2345567  86.2457822  70.5598198  23.5845067  93.5522924
  70.4142778  23.8985370  94.4447206  70.0823401  24.2029968  92.9993823
  72.4194581  20.5747615  93.6003814  72.4056149  19.6788709  93.2636112
  73.1367009  20.5818279  94.2342100  74.2720711  21.0084955  95.6456941
  74.0138489  21.9302026  95.6441272  73.7405752  20.6115390  96.3357405
  79.2166900  34.1135743  88.4247027  79.3903778  33.5482165  87.6720879
  79.7095791  34.9136637  88.2426517  65.0343860  26.1250412  96.4910585
  64.4897328  26.9010220  96.6230860  65.9123210  26.4721216  96.3329707
  71.8231476  19.4561996  88.8691384  71.9447388  18.5278642  89.0682271
  71.5333519  19.4700682  87.9569699  74.6922667  17.1416906  92.0058104
  74.7144364  17.2056239  91.0510083  75.1090726  16.3021415  92.1998610
  85.0706291  26.8772166  90.0437326  85.5137437  26.1279491  89.6456450
  84.1932801  26.8682302  89.6611058  80.2042072  33.4302507  85.5243925
  80.8992977  34.0509200  85.7431240  80.5465223  32.5797858  85.7996303
  65.8209882  25.2520308  99.3840742  65.0791618  25.4002943  99.9705373
  65.5002626  25.5128574  98.5207492  82.1033496  30.8802213  87.0531256
  82.6284820  31.2189485  86.3280576  82.0155848  29.9449228  86.8694390
  73.7653544  34.7936286  99.1821132  74.0740671  34.5485433 100.0543832
  74.5629026  34.9982925  98.6940003  71.3072556  20.9693993 103.0781317
  71.3560711  21.8456116 102.6959086  71.8495070  20.4271386 102.5052960
  81.7927402  31.5135116 102.3582454  81.0022945  31.4959255 101.8186953
  81.5560756  32.0523410 103.1131490  81.9125277  28.3627583  99.6715182
  81.9623282  28.1977590 100.6130705  81.8039200  27.4954842  99.2813063
  79.2029039  24.3458511 100.9874489  80.1038902  24.2064975 100.6958487
  79.2777014  24.5112965 101.9272666  73.5371844  21.7225365  99.8327675
  72.6675154  22.0158931  99.5610264  73.7731325  22.3065810 100.5534939
  83.4143474  30.7824524  99.9157204  83.1228282  31.1454505 100.7520665
  82.8015605  30.0691532  99.7370536  84.6139156  28.3477404  92.4359774
  85.4486047  28.7867208  92.5997334  84.7498285  27.8716057  91.6168020
  81.6630662  25.9057139  98.3837262  82.1384783  26.0984785  97.5756113
  80.7396227  25.9616325  98.1380645  76.2410878  17.9404982  97.3493096
  76.7592822  18.6766009  97.0239584  75.8866011  18.2468976  98.1839855
  76.4923472  14.3605265  92.8693992  76.7725226  13.6928454  93.4954419
  77.2774079  14.5534360  92.3568656  80.3632331  22.7822899  96.6165567
  81.3149754  22.8820996  96.6377791  80.1935781  21.9901167  97.1263652
  78.3846710  19.8678482  96.8024968  77.7896642  20.1483495  96.1071457
  78.0996407  20.3572383  97.5741709  77.5154201  33.8201409  85.5627601
  78.4484874  33.7546970  85.7660476  77.4277414  34.6557676  85.1042133
  80.1442217  33.1367279  82.5231548  80.0655849  32.8027143  83.4167306
  80.9651884  33.6289047  82.5223021  82.8420409  26.0029018  95.7307867
  82.8096729  25.0645019  95.9167551  83.4521032  26.0813055  94.9973692
  82.9914897  22.7940062  95.7766150  82.4753946  22.0098519  95.5896079
  83.8754846  22.4658779  95.9412670  80.6525624  16.5381077  91.7361963
  80.4550445  16.2296166  92.6205295  81.2625330  17.2642716  91.8659893
  88.6596958  27.0645025  94.8713904  89.3900347  26.8030313  95.4321607
  88.0503904  26.3273747  94.9115972  86.7412256  25.2052888  95.4688355
  86.0145419  25.0708853  94.8604847  86.3259542  25.5129717  96.2745073
  74.5642432  28.9242818 103.2335728  75.4845441  29.1021417 103.4275775
  74.5292015  27.9798863 103.0815427  72.8646657  22.7975048  81.7089956
  71.9578112  22.5008161  81.7852670  73.1422638  22.5004866  80.8424242
  63.7824597  24.1181411  92.1589003  63.4627381  23.2646719  91.8663377
  63.2358025  24.3329989  92.9146970  67.5604505  26.8343852  95.8758509
  67.7790514  27.7660960  95.8946543  67.9730278  26.4751827  96.6613313
  74.4808722  17.3411938  87.8634198  73.6709451  16.9959023  88.2389444
  75.1693139  17.0319481  88.4521809  76.4099271  16.4189984  89.4858494
  76.9630309  16.8385438  90.1448517  76.6469357  15.4925732  89.5281450
  72.4332370  22.4077058 105.2661258  72.3329097  23.3571415 105.1973349
  72.2153912  22.0795297 104.3937328  71.6345441  19.6561983  81.8501935
  72.4964605  19.9816881  82.1097753  71.8195785  18.8693479  81.3375001
  79.7878078  18.5290510  88.9937158  79.2076747  19.1875314  88.6115211
  79.5214010  17.7067854  88.5824576  78.2381644  17.9295567  91.1958479
  78.7381422  18.0412102  90.3872798  78.8817252  17.6256620  91.8359287
  72.2963640  25.8374197 104.0826320  71.8130722  26.6374557 104.2890209
  72.3824579  25.8482142 103.1293764  68.2236977  29.7278732  96.1194754
  69.1780231  29.6962674  96.0524685  68.0249501  29.2669355  96.9344979
  68.8136359  28.2979848  98.6865551  69.6329248  28.7923926  98.7100388
  69.0873167  27.3811816  98.6583119  78.5702956  20.6890600  88.0493507
  77.6828811  20.9740251  87.8313701  78.9856945  20.5284363  87.2020784
  81.9217492  20.7137121  91.7647846  82.6977882  21.2033573  92.0372463
  81.1965626  21.1395175  92.2219715  84.3590050  21.4264740  92.8221787
  84.9534541  21.1860476  92.1115095  84.4316634  20.7071871  93.4495323
  78.5443979  26.2045136  88.2643797  78.4879181  26.6613687  87.4251429
  79.0972322  25.4435820  88.0866640  82.3548785  21.9934868  89.0893916
  82.0985720  21.5931503  89.9202124  81.7301653  22.7078662  88.9644056
  86.6661123  24.7330941  91.5965208  86.1060681  24.8024130  92.3696770
  86.0604627  24.5571926  90.8764704  79.6232867  30.8917804  84.1939987
  80.4578471  30.4599002  84.0117462  79.4617209  30.7199817  85.1216881
  79.2778759  27.3949917  85.5596326  79.2227563  27.2294188  84.6184770
  78.6524814  28.1025950  85.7158516  64.0671274  22.6317981  99.3857748
  64.7130137  22.1216935  99.8744973  63.8588425  23.3686663  99.9601174
  76.5924666  29.6998829 104.8849889  77.4615826  29.8739481 104.5236524
  76.1131417  30.5193246 104.7625618  72.5874884  16.8958026  85.1381644
  72.5753554  17.8399866  85.2949915  73.4798306  16.7128171  84.8441106
  76.4027004  13.4900803  89.3927581  75.6359399  12.9359289  89.5384264
  76.8137709  13.5622671  90.2541733  68.4068765  19.7785599 103.4832762
  69.2700226  19.4222403 103.6936087  67.8334175  19.4399493 104.1708167
  82.7615127  40.1303130  83.5573628  83.0140648  39.6084652  82.7957091
  81.8239686  39.9669276  83.6600312  87.8058410  39.1338909  91.3648372
  88.5921499  38.7158332  91.0138789  88.0697114  40.0385001  91.5330020
  93.2066837  39.0714142  92.2681350  93.9392009  38.5013359  92.5019180
  92.4506193  38.6835742  92.7087856  82.4811416  42.0331236  85.7598003
  82.3647674  41.3576140  86.4279088  82.5913676  41.5463610  84.9430156
  90.7292258  32.7835716  96.7275959  90.3975582  33.6531127  96.5037174
  90.1337871  32.4672000  97.4069989  84.4648444  36.5231283  84.4606041
  84.6322846  37.3911520  84.8276512  84.2745613  36.6858565  83.5367330
  90.6220921  37.5030802  93.8069309  89.7137798  37.4346211  93.5128070
  90.5708517  37.9802747  94.6351134  84.4437665  38.9788941  85.4452708
  84.3237290  39.4245991  86.2838188  83.7490253  39.3274258  84.8866246
  92.4882567  35.7047241  95.5847183  91.8456948  35.9979774  94.9386977
  91.9837496  35.5900161  96.3900379  90.1422731  39.4510414  86.2733042
  91.0540587  39.6837801  86.0980739  89.6332378  40.0347458  85.7108120
  87.9294014  36.4712017  98.9409065  87.6854946  37.2254077  98.4043341
  88.2053945  36.8497364  99.7756312  87.4858706  35.6268450  94.5222903
  86.6243185  35.9249703  94.8139640  87.5121140  35.8438849  93.5903935
  99.0884298  42.2361333  92.1393659  98.3348006  41.6668731  91.9837664
  99.2231839  42.2023998  93.0864294  80.9650266  33.1866315 104.4762734
  80.5717211  32.6332514 105.1510378  81.7816406  33.4976894 104.8669252
  87.8275389  30.6305297  96.3447272  87.4839659  31.5206939  96.2686383
  88.1954352  30.4406955  95.4816857  87.7925672  40.6213908  84.8519707
  87.2772296  41.3918513  85.0908095  87.5202981  39.9479044  85.4752769
  85.3772783  35.4663609  89.9104946  84.5214380  35.0770459  89.7310584
  85.7899735  35.5455570  89.0504731  86.9071930  33.0009952  94.3096506
  86.4036725  32.9640088  93.4964311  87.2002537  33.9102695  94.3693162
  83.1514816  33.0848682  93.3162687  84.0167812  32.8891491  92.9568577
  83.2192325  32.8559034  94.2432044  92.7659946  43.3746263  86.7872881
  91.9889389  43.0357422  86.3428043  93.4451427  43.3798886  86.1127846
  87.5811975  38.4941000  86.6779489  87.2762111  38.8087150  87.5289632
  88.5342417  38.5722420  86.7206822  91.0051253  42.8480244  93.4439489
  90.3474928  43.5379506  93.5319617  91.8091652  43.2376676  93.7873475
  89.8156712  41.2024617  91.4943431  90.3288594  41.8354609  91.9965140
  90.4657936  40.6025812  91.1286791  81.0846722  37.3455351  84.7074939
  80.2484034  37.6830038  85.0284214  80.9451492  37.2104331  83.7702076
  83.0599803  32.1892139  89.4154123  82.4064215  31.8741156  88.7910738
  83.0180277  31.5667879  90.1413946  84.1711007  42.4711434  81.3307416
  83.2638069  42.2400687  81.5298565  84.6682039  41.6749053  81.5181397
  87.0772591  40.0765488  88.8704451  87.8244410  40.5886885  88.5611573
  87.3464180  39.7549541  89.7308845  90.5818508  46.1830618  89.6222573
  90.1280835  45.3421528  89.6787764  89.9512475  46.8192017  89.9597353
  89.5251428  37.1122604  90.8523241  88.7874185  36.5999991  91.1833483
  89.7778201  36.6722986  90.0406518  89.6263055  29.8898856  91.4465010
  89.9321932  29.0296220  91.1590925  90.3515660  30.4816477  91.2464004
  85.0475329  44.1132773  83.1919484  84.6094759  43.3968631  82.7325122
  85.7885769  44.3408887  82.6304576  93.1648443  42.3889970  89.2495803
  93.0266342  42.5791566  88.3216992  92.8084662  43.1509352  89.7063854
  93.1917823  44.4566497  94.2607074  93.6254330  44.3641786  95.1090128
  93.9049404  44.4323997  93.6227090  94.0533373  44.4990197  96.7939960
  94.2469263  45.4036008  97.0399235  93.9533991  44.0397616  97.6278545
  89.1148481  44.6496940 102.3680840  88.9633988  44.4207492 101.4510924
  89.1053161  45.6067541 102.3812185  89.1686556  42.9717154  82.7851542
  88.5515727  42.2463982  82.6884594  88.7003045  43.7326514  82.4418616
  90.8240688  47.6816063 100.4457322  90.7653234  46.9975283  99.7787905
  91.2260206  48.4235053  99.9937948  80.9585102  37.1902578  81.9072846
  80.0814568  37.0691379  81.5435093  81.4342855  36.3988657  81.6551735
  90.8258095  45.6455646  98.6771302  89.9384874  45.3081568  98.7997701
  91.3956646  44.9138678  98.9140067  87.4545678  35.3523498  91.7969572
  87.9514378  34.5993461  91.4770642  86.6832660  35.3887815  91.2312781
  95.3075436  41.0563864  93.4387863  95.2965312  41.9388579  93.0681797
  94.4392815  40.7035415  93.2442401  84.0380647  37.4940881  91.5241257
  83.6678435  36.9411922  92.2122162  84.5339739  36.8899015  90.9716257
  91.9248010  39.9512505  89.9058030  92.3908463  40.7840496  89.8318332
  92.3755511  39.4857486  90.6103288  89.8964673  32.3193092  93.9448931
  88.9827753  32.5497319  94.1131138  90.3257775  32.4031536  94.7962963
  85.7158705  41.2502795 102.9314862  85.0399342  41.1496924 103.6017237
  86.5386338  41.0942009 103.3950859  89.3092362  47.3830980 103.0221132
  89.8532266  47.9960938 102.5276087  88.7279207  47.9410558 103.5388145
  83.8753373  32.2217864  95.7430946  84.6979443  31.7478343  95.6209836
  84.1191437  33.0008348  96.2429632  82.5161608  35.2506123  86.0393847
  83.2369970  35.6287376  85.5357564  81.8926912  35.9695000  86.1428825
  86.6592731  35.9551272  86.9752180  86.8756345  36.8375910  86.6741008
  86.1786798  35.5637485  86.2457822  82.6625231  34.7853913  88.8691384
  82.7841142  33.8570559  89.0682271  82.3727273  34.7992599  87.9569699
  85.5316421  32.4708824  92.0058104  85.5538118  32.5348157  91.0510083
  85.9484480  31.6313332  92.1998610  95.9100046  42.2064083  90.0437326
  96.3531192  41.4571408  89.6456450  95.0326556  42.1974220  89.6611058
  92.6321156  46.8427034 102.3582454  91.8416700  46.8251173 101.8186953
  92.3954511  47.3815328 103.1131490  92.7519031  43.6919500  99.6715182
  92.8017036  43.5269508 100.6130705  92.6432955  42.8246759  99.2813063
  90.0422794  39.6750428 100.9874489  90.9432656  39.5356893 100.6958487
  90.1170768  39.8404883 101.9272666  94.2537228  46.1116442  99.9157204
  93.9622036  46.4746422 100.7520665  93.6409359  45.3983450  99.7370536
  95.4532910  43.6769322  92.4359774  96.2879802  44.1159126  92.5997334
  95.5892039  43.2007975  91.6168020  92.5024416  41.2349056  98.3837262
  92.9778538  41.4276703  97.5756113  91.5789982  41.2908242  98.1380645
  87.0804633  33.2696900  97.3493096  87.5986577  34.0057927  97.0239584
  86.7259766  33.5760893  98.1839855  78.6603570  38.1301581  85.4654501
  77.9672815  38.2045936  84.8094537  78.4155322  37.3661925  85.9876018
  87.3317227  29.6897182  92.8693992  87.6118981  29.0220372  93.4954419
  88.1167834  29.8826278  92.3568656  91.2026085  38.1114816  96.6165567
  92.1543508  38.2112914  96.6377791  91.0329536  37.3193085  97.1263652
  89.2240465  35.1970400  96.8024968  88.6290397  35.4775412  96.1071457
  88.9390161  35.6864301  97.5741709  93.6814163  41.3320936  95.7307867
  93.6490483  40.3936937  95.9167551  94.2914787  41.4104973  94.9973692
  85.5197494  40.2016989  81.7735071  86.4656599  40.0723197  81.8423489
  85.1411739  39.4631651  82.2504499  93.8308652  38.1231980  95.7766150
  93.3147700  37.3390436  95.5896079  94.7148600  37.7950696  95.9412670
  91.4919378  31.8672995  91.7361963  91.2944200  31.5588083  92.6205295
  92.1019084  32.5934634  91.8659893  99.4990713  42.3936943  94.8713904
 100.2294101  42.1322231  95.4321607  98.8897658  41.6565665  94.9115972
  97.5806010  40.5344806  95.4688355  96.8539174  40.4000771  94.8604847
  97.1653297  40.8421634  96.2745073  85.4036186  44.2534735 103.2335728
  86.3239196  44.4313334 103.4275775  85.3685769  43.3090781 103.0815427
  83.7040411  38.1266966  81.7089956  82.7971866  37.8300078  81.7852670
  83.9816392  37.8296784  80.8424242  85.3202477  32.6703855  87.8634198
  84.5103205  32.3250940  88.2389444  86.0086894  32.3611399  88.4521809
  87.2493025  31.7481902  89.4858494  87.8024064  32.1677355  90.1448517
  87.4863111  30.8217650  89.5281450  83.2726124  37.7368976 105.2661258
  83.1722851  38.6863333 105.1973349  83.0547666  37.4087215 104.3937328
  82.4739196  34.9853901  81.8501935  83.3358360  35.3108799  82.1097753
  82.6589540  34.1985397  81.3375001  90.6271832  33.8582427  88.9937158
  90.0470501  34.5167231  88.6115211  90.3607765  33.0359772  88.5824576
  89.0775399  33.2587485  91.1958479  89.5775177  33.3704019  90.3872798
  89.7211006  32.9548538  91.8359287  83.1357394  41.1666115 104.0826320
  82.6524476  41.9666475 104.2890209  83.2218333  41.1774059 103.1293764
  89.4096710  36.0182518  88.0493507  88.5222565  36.3032168  87.8313701
  89.8250699  35.8576281  87.2020784  92.7611246  36.0429039  91.7647846
  93.5371636  36.5325491  92.0372463  92.0359381  36.4687093  92.2219715
  95.1983805  36.7556658  92.8221787  95.7928296  36.5152394  92.1115095
  95.2710389  36.0363788  93.4495323  88.5539924  45.7827192  82.1441527
  89.2575774  45.9877195  82.7599182  87.8302572  46.3503954  82.4090610
  89.3837734  41.5337054  88.2643797  89.3272935  41.9905605  87.4251429
  89.9366076  40.7727738  88.0866640  93.1942540  37.3226785  89.0893916
  92.9379474  36.9223421  89.9202124  92.5695408  38.0370579  88.9644056
  97.5054878  40.0622859  91.5965208  96.9454436  40.1316048  92.3696770
  96.8998381  39.8863843  90.8764704  90.1172513  42.7241835  85.5596326
  90.0621317  42.5586106  84.6184770  89.4918569  43.4317868  85.7158516
  87.4318420  45.0290747 104.8849889  88.3009580  45.2031399 104.5236524
  86.9525172  45.8485163 104.7625618  83.4268639  32.2249944  85.1381644
  83.4147309  33.1691784  85.2949915  84.3192061  32.0420089  84.8441106
  87.2420758  28.8192720  89.3927581  86.4753154  28.2651207  89.5384264
  87.6531463  28.8914589  90.2541733  79.2462519  35.1077516 103.4832762
  80.1093981  34.7514321 103.6936087  78.6727930  34.7691411 104.1708167
  99.0910896  56.7379373  94.2895163  99.7289306  56.6186120  93.5858504
  98.9731739  57.6860217  94.3483116  96.3820385  57.8441652 100.1842894
  96.3709026  57.4494451  99.3123397  96.5441025  57.1107725 100.7776665
  93.1027647  60.6278764  99.1322078  92.8117513  61.5324395  99.0168744
  93.7384631  60.6695292  99.8466147  94.0283853  58.0055613  95.7223437
  94.6247426  57.7811635  95.0080400  94.0858825  57.2640358  96.3248885
  98.6452165  54.4630826  91.3648372  99.4315254  54.0450250  91.0138789
  98.9090869  55.3676919  91.5330020  98.8162242  59.9003677  86.0637028
  98.1808075  59.9738303  86.7757933  98.4859648  60.4897276  85.3856108
 104.0460592  54.4006060  92.2681350 104.7785764  53.8305276  92.5019180
 103.2899947  54.0127660  92.7087856  93.3205171  57.3623154  85.7598003
  93.2041429  56.6868057  86.4279088  93.4307430  56.8755528  84.9430156
 101.5686012  48.1127634  96.7275959 101.2369337  48.9823045  96.5037174
 100.9731626  47.7963918  97.4069989  98.0617532  60.3140180  96.1271871
  97.7618255  61.2165219  96.0187679  97.7168591  60.0472363  96.9793024
 101.4614675  52.8322720  93.8069309 100.5531553  52.7638128  93.5128070
 101.4102271  53.3094665  94.6351134  95.2831419  54.3080858  85.4452708
  95.1631045  54.7537909  86.2838188  94.5884008  54.6566176  84.8866246
  95.5355541  54.2512365 101.7504206  94.7588875  54.8106286 101.7407071
  96.1746104  54.7369148 102.2719076 103.3276322  51.0339158  95.5847183
 102.6850702  51.3271691  94.9386977 102.8231250  50.9192079  96.3900379
 100.9816486  54.7802331  86.2733042 101.8934342  55.0129718  86.0980739
 100.4726133  55.3639376  85.7108120  93.7901914  57.0597819 101.3122173
  94.5316598  57.5982863 101.0356997  93.0838899  57.6864108 101.4693725
  99.2657253  59.2026959  99.9094334  99.6740609  58.7609370  99.1648967
  98.5434515  58.6279587 100.1628527  95.6188323  54.1399566  97.2827891
  96.4649518  54.5638980  97.4262540  95.5586961  53.4833190  97.9766455
  99.5886068  59.7628150  93.6646623  98.9594930  59.9273864  92.9622691
  99.2011730  60.1769759  94.4357587 103.4675300  60.6982588  91.0190987
 102.7826338  61.0781489  90.4688020 103.5519149  61.3077914  91.7522935
  98.7687769  51.8003934  98.9409065  98.5248700  52.5545995  98.4043341
  99.0447699  52.1789282  99.7756312 100.7226231  58.3442547  97.6186331
 100.9343127  58.9874307  96.9420712 100.6755980  57.5104863  97.1508261
  98.3252460  50.9560367  94.5222903  97.4636939  51.2541621  94.8139640
  98.3514895  51.1730766  93.5903935  92.5263277  54.2137467 102.1137483
  91.8961938  54.8953748 102.3472880  92.4199365  54.1020549 101.1690621
 101.8372059  61.2214502  95.7908688 102.6589503  60.8194689  95.5091370
 101.8334462  61.1182736  96.7424804  95.6028663  60.7698546  97.9469398
  95.6673095  61.2318953  98.7827570  94.8939587  60.1395910  98.0751708
 109.9278052  57.5653251  92.1393659 109.1741761  56.9960649  91.9837664
 110.0625594  57.5315915  93.0864294  91.8044020  48.5158233 104.4762734
  91.4110966  47.9624431 105.1510378  92.6210160  48.8268811 104.8669252
  94.7211981  49.9316112 102.0682991  95.4621694  50.5323265 101.9887453
  94.9529904  49.1893750 101.5101033  89.8653319  55.1172479 100.3461220
  89.7506834  54.2157736 100.6468319  89.0097837  55.3636176  99.9946037
  96.9445157  63.0590220 101.9448721  96.5009011  62.2726598 101.6269625
  97.6062370  63.2469370 101.2792612  99.0426395  63.3393019  99.9730122
  99.0244870  64.1601900  99.4810391  99.9646315  63.2147095 100.1980263
  95.4999449  60.8537149 100.8153631  96.0327786  60.0925437 100.5852938
  94.9713530  60.5610801 101.5577785  98.6669144  45.9597215  96.3447272
  98.3233413  46.8498857  96.2686383  99.0348107  45.7698873  95.4816857
  98.6319427  55.9505826  84.8519707  98.1166050  56.7210431  85.0908095
  98.3596735  55.2770962  85.4752769  96.2166538  50.7955527  89.9104946
  95.3608134  50.4062377  89.7310584  96.6293489  50.8747488  89.0504731
  97.7465684  48.3301870  94.3096506  97.2430480  48.2932005  93.4964311
  98.0396291  49.2394613  94.3693162  93.9908570  48.4140600  93.3162687
  94.8561567  48.2183408  92.9568577  94.0586079  48.1850952  94.2432044
 103.6053701  58.7038181  86.7872881 102.8283144  58.3649340  86.3428043
 104.2845182  58.7090804  86.1127846  98.4205730  53.8232918  86.6779489
  98.1155865  54.1379067  87.5289632  99.3736172  53.9014338  86.7206822
 101.8445008  58.1772162  93.4439489 101.1868682  58.8671423  93.5319617
 102.6485407  58.5668594  93.7873475 100.6550467  56.5316535  91.4943431
 101.1682348  57.1646526  91.9965140 101.3051690  55.9317730  91.1286791
  93.8993557  47.5184057  89.4154123  93.2457969  47.2033074  88.7910738
  93.8574031  46.8959797  90.1413946  97.9172841  66.5100859  84.2504102
  97.2434540  66.8132556  84.8589060  98.3038663  67.3129939  83.9009559
  97.1331297  54.0065990  93.7401771  96.2153859  54.2280937  93.5823459
  97.5491441  54.0812301  92.8813478  97.9166345  55.4057406  88.8704451
  98.6638164  55.9178803  88.5611573  98.1857935  55.0841459  89.7308845
  96.1892995  57.9015947  85.8531406  95.2804215  57.6174979  85.9503875
  96.2188079  58.3215025  84.9934713 101.4212263  61.5122536  89.6222573
 100.9674590  60.6713446  89.6787764 100.7906229  62.1483934  89.9597353
 100.3645182  52.4414522  90.8523241  99.6267939  51.9291908  91.1833483
 100.6171956  52.0014904  90.0406518 100.4656810  45.2190774  91.4465010
 100.7715686  44.3588137  91.1590925 101.1909414  45.8108394  91.2464004
  98.2744461  54.5963451  98.5446474  98.6293849  54.8234924  99.4040940
  98.9216592  54.9281828  97.9223729 104.0042198  57.7181887  89.2495803
 103.8660096  57.9083483  88.3216992 103.6478417  58.4801270  89.7063854
 104.0311577  59.7858414  94.2607074 104.4648084  59.6933703  95.1090128
 104.7443158  59.7615915  93.6227090  97.7639472  63.3860508  95.7940175
  97.8176495  63.9551445  96.5617891  96.8954254  63.5562393  95.4294212
 104.8927127  59.8282115  96.7939960 105.0863017  60.7327925  97.0399235
 104.7927745  59.3689534  97.6278545  96.5463438  49.7140005  99.2930287
  95.8991353  50.4129955  99.1994763  97.3164453  50.1476149  99.6606535
  99.9542236  59.9788858 102.3680840  99.8027742  59.7499409 101.4510924
  99.9446915  60.9359459 102.3812185  96.7227572  57.5520770  97.3527107
  97.6519632  57.7031930  97.1796074  96.3018602  57.6404791  96.4975753
  95.5215904  61.5771435  95.1225644  95.3826990  61.2090219  95.9951582
  94.7330500  62.0919074  94.9509602  97.0721119  60.9553038  92.5114482
  96.7370952  60.9153807  93.4072132  96.5725065  60.2897753  92.0384892
  91.0465363  56.3620668  98.0367063  90.9085161  55.6300906  98.6378602
  91.9570286  56.2729568  97.7551251 100.0080311  58.3009072  82.7851542
  99.3909481  57.5755900  82.6884594  99.5396799  59.0618432  82.4418616
  93.6747664  56.0740627  97.5250743  94.3847282  55.4333819  97.4837361
  93.6316972  56.3253522  98.4476924 101.6634442  63.0107980 100.4457322
 101.6046989  62.3267200  99.7787905 102.0653961  63.7526970  99.9937948
  92.3876598  53.0605845  99.3446382  91.8513955  52.6096583  99.9967979
  91.7993306  53.1951754  98.6016847 101.6651850  60.9747564  98.6771302
 100.7778628  60.6373486  98.7997701 102.2350401  60.2430595  98.9140067
  95.1953003  65.6349016  95.6432545  95.1223175  66.4403988  96.1551850
  94.7530396  65.8340982  94.8180566  98.2939433  50.6815416  91.7969572
  98.7908132  49.9285378  91.4770642  97.5226414  50.7179733  91.2312781
 106.1469190  56.3855782  93.4387863 106.1359066  57.2680497  93.0681797
 105.2786570  56.0327332  93.2442401  97.6551687  65.5335851  97.7990704
  98.3679659  66.1683315  97.7266605  97.1641715  65.6299717  96.9830706
  99.3769213  59.4387103  89.3707995  98.4425492  59.5588566  89.2012700
  99.5545882  58.5359570  89.1068005  94.8774402  52.8232799  91.5241257
  94.5072189  52.2703839  92.2122162  95.3733494  52.2190932  90.9716257
 102.7641765  55.2804422  89.9058030 103.2302217  56.1132414  89.8318332
 103.2149265  54.8149404  90.6103288  92.7063600  63.2830294  98.6196275
  93.4073060  63.9166777  98.7725669  92.2358715  63.6245026  97.8591914
 100.8317996  61.6248244  86.9044182 101.1077840  61.5104838  87.8138056
  99.9622495  61.2265729  86.8656355 100.7358428  47.6485009  93.9448931
  99.8221507  47.8789236  94.1131138 101.1651529  47.7323454  94.7962963
 100.5064886  55.8374901  96.4448825  99.8536336  56.0850809  95.7901278
 100.8845266  55.0239040  96.1111302  96.5552459  56.5794712 102.9314862
  95.8793096  56.4788842 103.6017237  97.3780093  56.4233926 103.3950859
  95.2975242  67.8861640  97.1672478  95.8493550  68.0493261  97.9321563
  95.6381435  68.4766078  96.4952503  89.7492008  52.3059922 101.4167397
  90.3764047  51.9237000 102.0304921  88.8919927  52.0874124 101.7823089
 100.1486116  62.7122897 103.0221132 100.6926020  63.3252856 102.5276087
  99.5672961  63.2702476 103.5388145 100.4978538  63.6352636  95.7815710
  99.5508873  63.5157987  95.7094037 100.8461311  62.7475134  95.8641972
  92.8578111  49.5246774  99.6053952  93.3812513  49.7709071 100.3680261
  92.6390444  50.3566809  99.1857089 101.1059093  64.2533910  93.0684935
 102.0305640  64.0476772  92.9309386 100.9374396  64.0050312  93.9774277
  94.0630656  50.4660470  97.2903623  93.7227476  49.6668283  97.6924303
  93.3569662  50.7662180  96.7180456  94.7147128  47.5509782  95.7430946
  95.5373197  47.0770260  95.6209836  94.9585191  48.3300266  96.2429632
  97.4986485  51.2843189  86.9752180  97.7150100  52.1667827  86.6741008
  97.0180552  50.8929403  86.2457822  94.0982089  51.2331451  93.6003814
  94.0843658  50.3372544  93.2636112  94.8154518  51.2402114  94.2342100
  95.9508220  51.6668791  95.6456941  95.6925998  52.5885861  95.6441272
  95.4193261  51.2699225  96.3357405 100.8954409  64.7719578  88.4247027
 101.0691287  64.2066000  87.6720879 101.3883300  65.5720473  88.2426517
  93.5018985  50.1145831  88.8691384  93.6234897  49.1862477  89.0682271
  93.2121028  50.1284517  87.9569699  96.3710176  47.8000741  92.0058104
  96.3931873  47.8640074  91.0510083  96.7878235  46.9605250  92.1998610
 106.7493800  57.5356001  90.0437326 107.1924946  56.7863326  89.6456450
 105.8720310  57.5266137  89.6611058 101.8829581  64.0886342  85.5243925
 102.5780486  64.7093035  85.7431240 102.2252732  63.2381694  85.7996303
 103.7821005  61.5386048  87.0531256 104.3072329  61.8773321  86.3280576
 103.6943357  60.6033063  86.8694390  95.4441053  65.4520122  99.1821132
  95.7528180  65.2069268 100.0543832  96.2416535  65.6566760  98.6940003
  92.9860065  51.6277828 103.0781317  93.0348220  52.5039951 102.6959086
  93.5282579  51.0855221 102.5052960 103.4714911  62.1718952 102.3582454
 102.6810454  62.1543090 101.8186953 103.2348265  62.7107245 103.1131490
 103.5912786  59.0211418  99.6715182 103.6410791  58.8561425 100.6130705
 103.4826709  58.1538677  99.2813063 100.8816548  55.0042346 100.9874489
 101.7826411  54.8648811 100.6958487 100.9564523  55.1696801 101.9272666
  95.2159353  52.3809201  99.8327675  94.3462663  52.6742767  99.5610264
  95.4518834  52.9649646 100.5534939 105.0930983  61.4408359  99.9157204
 104.8015791  61.8038340 100.7520665 104.4803114  60.7275368  99.7370536
 106.2926665  59.0061239  92.4359774 107.1273556  59.4451043  92.5997334
 106.4285794  58.5299892  91.6168020 103.3418171  56.5640974  98.3837262
 103.8172292  56.7568620  97.5756113 102.4183736  56.6200160  98.1380645
  97.9198387  48.5988818  97.3493096  98.4380331  49.3349845  97.0239584
  97.5653520  48.9052811  98.1839855  98.1710981  45.0189100  92.8693992
  98.4512735  44.3512289  93.4954419  98.9561588  45.2118196  92.3568656
 102.0419840  53.4406734  96.6165567 102.9937263  53.5404832  96.6377791
 101.8723290  52.6485003  97.1263652 100.0634219  50.5262317  96.8024968
  99.4684151  50.8067330  96.1071457  99.7783916  51.0156218  97.5741709
  99.1941710  64.4785244  85.5627601 100.1272383  64.4130806  85.7660476
  99.1064923  65.3141511  85.1042133 101.8229726  63.7951115  82.5231548
 101.7443358  63.4610978  83.4167306 102.6439393  64.2872882  82.5223021
 104.5207918  56.6612854  95.7307867 104.4884238  55.7228855  95.9167551
 105.1308541  56.7396891  94.9973692  96.3591248  55.5308907  81.7735071
  97.3050353  55.4015115  81.8423489  95.9805493  54.7923569  82.2504499
 104.6702406  53.4523897  95.7766150 104.1541455  52.6682354  95.5896079
 105.5542355  53.1242614  95.9412670 102.3313133  47.1964913  91.7361963
 102.1337954  46.8880001  92.6205295 102.9412839  47.9226552  91.8659893
 110.3384467  57.7228861  94.8713904 111.0687856  57.4614149  95.4321607
 109.7291413  56.9857583  94.9115972 108.4199765  55.8636723  95.4688355
 107.6932928  55.7292688  94.8604847 108.0047051  56.1713552  96.2745073
  96.2429941  59.5826653 103.2335728  97.1632950  59.7605252 103.4275775
  96.2079524  58.6382698 103.0815427  96.1596231  47.9995773  87.8634198
  95.3496960  47.6542858  88.2389444  96.8480648  47.6903317  88.4521809
  98.0886780  47.0773820  89.4858494  98.6417818  47.4969273  90.1448517
  98.3256866  46.1509568  89.5281450  94.1119879  53.0660893 105.2661258
  94.0116606  54.0155250 105.1973349  93.8941421  52.7379132 104.3937328
 101.4665587  49.1874345  88.9937158 100.8864256  49.8459149  88.6115211
 101.2001519  48.3651689  88.5824576  99.9169153  48.5879403  91.1958479
 100.4168931  48.6995937  90.3872798 100.5604761  48.2840455  91.8359287
  93.9751149  56.4958032 104.0826320  93.4918231  57.2958392 104.2890209
  94.0612088  56.5065977 103.1293764  90.4923868  58.9563683  98.6865551
  91.3116757  59.4507762  98.7100388  90.7660676  58.0395651  98.6583119
 100.2490465  51.3474435  88.0493507  99.3616320  51.6324086  87.8313701
 100.6644454  51.1868199  87.2020784 103.6005001  51.3720956  91.7647846
 104.3765391  51.8617409  92.0372463 102.8753135  51.7979010  92.2219715
 106.0377559  52.0848575  92.8221787 106.6322050  51.8444311  92.1115095
 106.1104143  51.3655706  93.4495323 100.2231488  56.8628971  88.2643797
 100.1666690  57.3197523  87.4251429 100.7759831  56.1019656  88.0866640
 104.0336294  52.6518703  89.0893916 103.7773229  52.2515339  89.9202124
 103.4089162  53.3662497  88.9644056 108.3448632  55.3914776  91.5965208
 107.7848190  55.4607966  92.3696770 107.7392136  55.2155761  90.8764704
 101.3020376  61.5501639  84.1939987 102.1365979  61.1182838  84.0117462
 101.1404718  61.3783653  85.1216881 100.9566268  58.0533752  85.5596326
 100.9015072  57.8878024  84.6184770 100.3312323  58.7609785  85.7158516
  98.2712175  60.3582664 104.8849889  99.1403335  60.5323317 104.5236524
  97.7918926  61.1777081 104.7625618  98.0814513  44.1484638  89.3927581
  97.3146908  43.5943125  89.5384264  98.4925218  44.2206507  90.2541733
  90.0856274  50.4369434 103.4832762  90.9487735  50.0806239 103.6936087
  89.5121684  50.0983329 104.1708167 109.9304651  72.0671290  94.2895163
 110.5683061  71.9478038  93.5858504 109.8125494  73.0152134  94.3483116
 106.7394357  72.0198718  94.2256688 106.4012868  71.9039783  93.3377223
 107.6084125  71.6189883  94.2057694 102.5981173  73.8734195  90.2153579
 102.0346038  73.7824132  89.4469867 102.4833568  73.0534099  90.6956072
 107.2214140  73.1733570 100.1842894 107.2102781  72.7786368  99.3123397
 107.3834779  72.4399643 100.7776665 100.1445605  75.3685386  93.0537800
 100.9366896  75.0276211  92.6384099 100.3842255  75.4780361  93.9739953
 102.1036358  74.6294300  85.9255178 102.8767234  74.0823287  85.7868054
 102.4561757  75.4938549  86.1369640 103.9421401  75.9570682  99.1322078
 103.6511267  76.8616313  99.0168744 104.5778385  75.9987209  99.8466147
 104.8677608  73.3347530  95.7223437 105.4641180  73.1103553  95.0080400
 104.9252579  72.5932276  96.3248885 109.4845919  69.7922744  91.3648372
 110.2709008  69.3742167  91.0138789 109.7484623  70.6968836  91.5330020
 109.6555996  75.2295594  86.0637028 109.0201829  75.3030221  86.7757933
 109.3253403  75.8189193  85.3856108 114.8854346  69.7297977  92.2681350
 115.6179518  69.1597194  92.5019180 114.1293702  69.3419578  92.7087856
 104.1598925  72.6915072  85.7598003 104.0435183  72.0159975  86.4279088
 104.2701185  72.2047446  84.9430156 106.5030466  72.1525219  89.4644692
 106.1388673  71.6255840  90.1757614 107.3597582  71.7623688  89.2911178
 112.4079767  63.4419551  96.7275959 112.0763091  64.3114962  96.5037174
 111.8125380  63.1255835  97.4069989 106.1435953  67.1815118  84.4606041
 106.3110355  68.0495355  84.8276512 105.9533122  67.3442400  83.5367330
 108.9011286  75.6432097  96.1271871 108.6012009  76.5457136  96.0187679
 108.5562346  75.3764281  96.9793024 112.3008430  68.1614638  93.8069309
 111.3925307  68.0930046  93.5128070 112.2496026  68.6386582  94.6351134
 106.1225174  69.6372776  85.4452708 106.0024799  70.0829827  86.2838188
 105.4277762  69.9858094  84.8866246 106.3749296  69.5804283 101.7504206
 105.5982630  70.1398203 101.7407071 107.0139859  70.0661066 102.2719076
 114.1670076  66.3631076  95.5847183 113.5244457  66.6563609  94.9386977
 113.6625005  66.2483996  96.3900379 111.8210240  70.1094249  86.2733042
 112.7328096  70.3421636  86.0980739 111.3119887  70.6931293  85.7108120
 104.6295668  72.3889737 101.3122173 105.3710352  72.9274780 101.0356997
 103.9232653  73.0156025 101.4693725 110.1051008  74.5318877  99.9094334
 110.5134364  74.0901287  99.1648967 109.3828269  73.9571504 100.1628527
 106.4582078  69.4691484  97.2827891 107.3043273  69.8930897  97.4262540
 106.3980715  68.8125108  97.9766455 110.4279822  75.0920068  93.6646623
 109.7988685  75.2565782  92.9622691 110.0405484  75.5061677  94.4357587
 114.3069054  76.0274505  91.0190987 113.6220092  76.4073407  90.4688020
 114.3912904  76.6369832  91.7522935 109.6081523  67.1295852  98.9409065
 109.3642455  67.8837913  98.4043341 109.8841454  67.5081200  99.7756312
 111.5619986  73.6734464  97.6186331 111.7736881  74.3166224  96.9420712
 111.5149734  72.8396781  97.1508261 109.1646215  66.2852285  94.5222903
 108.3030694  66.5833539  94.8139640 109.1908649  66.5022684  93.5903935
 105.9807784  74.8294476  90.9296708 106.4446130  75.1082179  90.1401331
 105.7164582  73.9277920  90.7469799 102.8731865  74.3765957  93.8676472
 103.4433222  74.8053226  93.2293956 103.4639977  74.0948542  94.5660657
 104.9176670  70.9517628  87.7386274 105.6200714  71.4038672  88.2060200
 104.5857299  70.3101447  88.3666167 103.3657032  69.5429385 102.1137483
 102.7355692  70.2245666 102.3472880 103.2593120  69.4312466 101.1690621
 112.6765814  76.5506420  95.7908688 113.4983257  76.1486607  95.5091370
 112.6728217  76.4474654  96.7424804 106.4422417  76.0990463  97.9469398
 106.5066850  76.5610870  98.7827570 105.7333341  75.4687828  98.0751708
 120.7671807  72.8945168  92.1393659 120.0135515  72.3252566  91.9837664
 120.9019348  72.8607833  93.0864294 102.6437774  63.8450151 104.4762734
 102.2504720  63.2916349 105.1510378 103.4603915  64.1560729 104.8669252
 105.5605735  65.2608030 102.0682991 106.3015449  65.8615183 101.9887453
 105.7923658  64.5185667 101.5101033 100.7047074  70.4464397 100.3461220
 100.5900589  69.5449654 100.6468319  99.8491591  70.6928094  99.9946037
 107.7838911  78.3882137 101.9448721 107.3402765  77.6018516 101.6269625
 108.4456125  78.5761288 101.2792612 102.5426032  79.9177939  96.4709399
 103.0933458  79.7895002  95.6986393 101.7037508  80.2172828  96.1204292
 109.8820149  78.6684937  99.9730122 109.8638625  79.4893818  99.4810391
 110.8040069  78.5439012 100.1980263 106.3393203  76.1829067 100.8153631
 106.8721540  75.4217355 100.5852938 105.8107285  75.8902718 101.5577785
 109.5062898  61.2889133  96.3447272 109.1627168  62.1790774  96.2686383
 109.8741861  61.0990790  95.4816857 109.4713181  71.2797744  84.8519707
 108.9559805  72.0502348  85.0908095 109.1990490  70.6062880  85.4752769
 107.0560292  66.1247444  89.9104946 106.2001889  65.7354295  89.7310584
 107.4687244  66.2039405  89.0504731 108.5859439  63.6593788  94.3096506
 108.0824234  63.6223923  93.4964311 108.8790046  64.5686530  94.3693162
 104.8302325  63.7432517  93.3162687 105.6955321  63.5475326  92.9568577
 104.8979834  63.5142869  94.2432044 114.4447455  74.0330098  86.7872881
 113.6676898  73.6941258  86.3428043 115.1238936  74.0382721  86.1127846
 109.2599484  69.1524836  86.6779489 108.9549620  69.4670985  87.5289632
 110.2129926  69.2306256  86.7206822 107.7045916  75.3115059  88.3272443
 107.1767278  74.5767819  88.0145680 107.2033419  76.0889735  88.0812411
 112.6838762  73.5064080  93.4439489 112.0262437  74.1963341  93.5319617
 113.4879161  73.8960512  93.7873475 102.4364644  65.9734725  90.6879054
 103.0108396  65.7509907  89.9552247 103.0235626  66.0423420  91.4407655
 111.4944221  71.8608452  91.4943431 112.0076103  72.4938444  91.9965140
 112.1445445  71.2609648  91.1286791 102.7634231  68.0039186  84.7074939
 101.9271543  68.3413873  85.0284214 102.6239001  67.8688166  83.7702076
 104.7387311  62.8475974  89.4154123 104.0851724  62.5324991  88.7910738
 104.6967786  62.2251715  90.1413946 107.9725052  69.3357908  93.7401771
 107.0547613  69.5572855  93.5823459 108.3885195  69.4104218  92.8813478
 108.7560100  70.7349323  88.8704451 109.5031919  71.2470721  88.5611573
 109.0251689  70.4133376  89.7308845 107.0286750  73.2307864  85.8531406
 106.1197969  72.9466897  85.9503875 107.0581834  73.6506943  84.9934713
 112.2606017  76.8414454  89.6222573 111.8068344  76.0005364  89.6787764
 111.6299984  77.4775852  89.9597353 111.2038937  67.7706440  90.8523241
 110.4661694  67.2583826  91.1833483 111.4565710  67.3306821  90.0406518
 110.7038956  78.6790950  90.5572391 110.9961931  79.2396008  89.8384757
 111.2137577  78.9719511  91.3125550 111.3050564  60.5482692  91.4465010
 111.6109441  59.6880055  91.1590925 112.0303169  61.1400312  91.2464004
 105.5771644  70.8436485  91.9541201 105.6320254  69.8910321  91.8783678
 104.7662846  70.9995924  92.4382499 103.5164004  69.4613545  89.7131580
 102.7031869  69.7607715  90.1196772 104.0122998  69.0669233  90.4306062
 105.6672582  79.4571301  91.6465845 105.6248760  79.6832148  90.7174377
 106.5835280  79.2234676  91.7951646 109.1138215  69.9255369  98.5446474
 109.4687603  70.1526842  99.4040940 109.7610347  70.2573746  97.9223729
 114.8435952  73.0473805  89.2495803 114.7053851  73.2375401  88.3216992
 114.4872171  73.8093188  89.7063854 114.8705332  75.1150332  94.2607074
 115.3041839  75.0225621  95.1090128 115.5836913  75.0907832  93.6227090
 103.7838382  76.3334330  91.4427807 104.5778981  75.8384651  91.2410382
 103.0730075  75.8052194  91.0795513 108.6033227  78.7152426  95.7940175
 108.6570249  79.2843362  96.5617891 107.7348008  78.8854311  95.4294212
 115.7320882  75.1574033  96.7939960 115.9256772  76.0619843  97.0399235
 115.6321500  74.6981452  97.6278545 107.3857192  65.0431923  99.2930287
 106.7385107  65.7421873  99.1994763 108.1558208  65.4768067  99.6606535
 110.7935990  75.3080775 102.3680840 110.6421497  75.0791327 101.4510924
 110.7840670  76.2651377 102.3812185 107.5621327  72.8812688  97.3527107
 108.4913387  73.0323848  97.1796074 107.1412357  72.9696709  96.4975753
 106.3609658  76.9063352  95.1225644 106.2220744  76.5382137  95.9951582
 105.5724255  77.4210992  94.9509602 107.9114874  76.2844955  92.5114482
 107.5764706  76.2445725  93.4072132 107.4118819  75.6189671  92.0384892
 101.8859118  71.6912585  98.0367063 101.7478915  70.9592824  98.6378602
 102.7964041  71.6021485  97.7551251 110.8474065  73.6300990  82.7851542
 110.2303236  72.9047818  82.6884594 110.3790554  74.3910350  82.4418616
 104.5141418  71.4032545  97.5250743 105.2241037  70.7625737  97.4837361
 104.4710726  71.6545439  98.4476924 112.5028197  78.3399898 100.4457322
 112.4440743  77.6559118  99.7787905 112.9047715  79.0818888  99.9937948
 103.2270352  68.3897762  99.3446382 102.6907709  67.9388501  99.9967979
 102.6387061  68.5243671  98.6016847 101.5218896  85.1561812  93.2391041
 101.7615494  85.7880336  93.9170060 100.6788092  84.8049852  93.5256400
 112.5045604  76.3039482  98.6771302 111.6172383  75.9665404  98.7997701
 113.0744155  75.5722513  98.9140067 106.0346758  80.9640934  95.6432545
 105.9616929  81.7695906  96.1551850 105.5924151  81.1632900  94.8180566
 109.1333187  66.0107334  91.7969572 109.6301887  65.2577296  91.4770642
 108.3620169  66.0471650  91.2312781 116.9862945  71.7147699  93.4387863
 116.9752821  72.5972415  93.0681797 116.1180324  71.3619250  93.2442401
 108.4945441  80.8627768  97.7990704 109.2073413  81.4975233  97.7266605
 108.0035470  80.9591634  96.9830706 110.2162968  74.7679021  89.3707995
 109.2819247  74.8880483  89.2012700 110.3939636  73.8651488  89.1068005
 105.7168156  68.1524717  91.5241257 105.3465944  67.5995757  92.2122162
 106.2127248  67.5482850  90.9716257 113.6035519  70.6096340  89.9058030
 114.0695972  71.4424332  89.8318332 114.0543020  70.1441322  90.6103288
 103.5457355  78.6122212  98.6196275 104.2466814  79.2458695  98.7725669
 103.0752470  78.9536943  97.8591914 111.5752182  62.9776927  93.9448931
 110.6615262  63.2081154  94.1131138 112.0045284  63.0615371  94.7962963
 111.3458641  71.1666819  96.4448825 110.6930091  71.4142727  95.7901278
 111.7239020  70.3530957  96.1111302 107.3946214  71.9086630 102.9314862
 106.7186851  71.8080759 103.6017237 108.2173847  71.7525844 103.3950859
  99.1425073  78.1458567  95.5527377  99.7278509  77.4002255  95.6855281
  98.9449911  78.4562523  96.4364041  93.7342727  70.7164167  94.2731820
  93.7726827  70.1827758  95.0668938  93.2283020  70.1899372  93.6542798
 100.5885762  67.6351840 101.4167397 101.2157801  67.2528917 102.0304921
  99.7313681  67.4166042 101.7823089 110.9879871  78.0414815 103.0221132
 111.5319775  78.6544773 102.5276087 110.4066716  78.5994394 103.5388145
 109.2737384  81.1635533  94.1536160 109.1488523  80.3625273  93.6447106
 109.9316475  81.6581727  93.6650130 111.3372292  78.9644553  95.7815710
 110.3902628  78.8449904  95.7094037 111.6855065  78.0767051  95.8641972
 103.6971865  64.8538692  99.6053952 104.2206267  65.1000989 100.3680261
 103.4784199  65.6858727  99.1857089 108.3418725  78.7597269  91.9820062
 108.1943688  77.8313977  92.1627632 109.1672219  78.7817360  91.4977138
 102.2080970  67.4115337  87.8400555 102.5477042  67.9401258  87.1179163
 102.6553090  67.7495743  88.6159121 111.9452847  79.5825828  93.0684935
 112.8699395  79.3768690  92.9309386 111.7768151  79.3342229  93.9774277
 104.9024411  65.7952387  97.2903623 104.5621231  64.9960200  97.6924303
 104.1963417  66.0954098  96.7180456 105.5540882  62.8801700  95.7430946
 106.3766952  62.4062178  95.6209836 105.7978946  63.6592183  96.2429632
 104.1949117  65.9089958  86.0393847 104.9157479  66.2871211  85.5357564
 103.5714421  66.6278835  86.1428825 108.3380240  66.6135107  86.9752180
 108.5543854  67.4959745  86.6741008 107.8574307  66.2221320  86.2457822
 104.9375844  66.5623368  93.6003814 104.9237413  65.6664462  93.2636112
 105.6548272  66.5694032  94.2342100 106.7901975  66.9960709  95.6456941
 106.5319753  67.9177779  95.6441272 106.2587015  66.5991143  96.3357405
  97.5525123  72.1126165  96.4910585  97.0078591  72.8885973  96.6230860
  98.4304473  72.4596969  96.3329707 104.3412740  65.4437749  88.8691384
 104.4628651  64.5154395  89.0682271 104.0514782  65.4576435  87.9569699
 107.2103930  63.1292659  92.0058104 107.2325627  63.1931992  91.0510083
 107.6271989  62.2897168  92.1998610 117.5887555  72.8647919  90.0437326
 118.0318701  72.1155244  89.6456450 116.7114065  72.8558055  89.6611058
  98.3391145  71.2396061  99.3840742  97.5972881  71.3878696  99.9705373
  98.0183889  71.5004327  98.5207492 114.6214759  76.8677966  87.0531256
 115.1466083  77.2065238  86.3280576 114.5337112  75.9324981  86.8694390
 106.2834808  80.7812039  99.1821132 106.5921934  80.5361186 100.0543832
 107.0810290  80.9858678  98.6940003 103.7529292  78.4787958  93.4848811
 103.1309301  77.8158663  93.1851038 104.4234159  78.5049090  92.8022458
 103.8253819  66.9569746 103.0781317 103.8741975  67.8331869 102.6959086
 104.3676334  66.4147139 102.5052960 114.3108665  77.5010869 102.3582454
 113.5204209  77.4835008 101.8186953 114.0742020  78.0399163 103.1131490
 114.4306540  74.3503336  99.6715182 114.4804545  74.1853343 100.6130705
 114.3220464  73.4830595  99.2813063 111.7210303  70.3334264 100.9874489
 112.6220165  70.1940728 100.6958487 111.7958277  70.4988718 101.9272666
 106.0553108  67.7101118  99.8327675 105.1856417  68.0034684  99.5610264
 106.2912588  68.2941563 100.5534939 115.9324737  76.7700277  99.9157204
 115.6409545  77.1330258 100.7520665 115.3196868  76.0567285  99.7370536
 117.1320419  74.3353157  92.4359774 117.9667311  74.7742961  92.5997334
 117.2679548  73.8591810  91.6168020 114.1811925  71.8932892  98.3837262
 114.6566047  72.0860538  97.5756113 113.2577491  71.9492078  98.1380645
 108.7592142  63.9280735  97.3493096 109.2774086  64.6641762  97.0239584
 108.4047275  64.2344729  98.1839855 100.3391079  68.7885416  85.4654501
  99.6460324  68.8629771  84.8094537 100.0942831  68.0245760  85.9876018
 109.0104736  60.3481018  92.8693992 109.2906490  59.6804207  93.4954419
 109.7955343  60.5410113  92.3568656 112.8813594  68.7698652  96.6165567
 113.8331017  68.8696749  96.6377791 112.7117045  67.9776920  97.1263652
 110.9027974  65.8554235  96.8024968 110.3077906  66.1359248  96.1071457
 110.6177670  66.3448136  97.5741709 115.3601672  71.9904772  95.7307867
 115.3277992  71.0520772  95.9167551 115.9702296  72.0688808  94.9973692
 107.1985003  70.8600824  81.7735071 108.1444108  70.7307033  81.8423489
 106.8199248  70.1215486  82.2504499 115.5096161  68.7815815  95.7766150
 114.9935209  67.9974272  95.5896079 116.3936109  68.4534532  95.9412670
 113.1706887  62.5256831  91.7361963 112.9731709  62.2171919  92.6205295
 113.7806593  63.2518469  91.8659893 121.1778222  73.0520778  94.8713904
 121.9081610  72.7906066  95.4321607 120.5685167  72.3149500  94.9115972
 119.2593519  71.1928641  95.4688355 118.5326683  71.0584606  94.8604847
 118.8440806  71.5005470  96.2745073 107.0823695  74.9118571 103.2335728
 108.0026705  75.0897170 103.4275775 107.0473278  73.9674616 103.0815427
 105.3827920  68.7850801  81.7089956 104.4759375  68.4883914  81.7852670
 105.6603901  68.4880619  80.8424242 100.0785768  72.8219605  95.8758509
 100.2971778  73.7536713  95.8946543 100.4911542  72.4627580  96.6613313
 106.9989986  63.3287691  87.8634198 106.1890714  62.9834776  88.2389444
 107.6874403  63.0195234  88.4521809 108.9280534  62.4065737  89.4858494
 109.4811573  62.8261191  90.1448517 109.1650620  61.4801485  89.5281450
 104.9513633  68.3952811 105.2661258 104.8510360  69.3447168 105.1973349
 104.7335175  68.0671050 104.3937328 112.3059341  64.5166263  88.9937158
 111.7258010  65.1751067  88.6115211 112.0395274  63.6943607  88.5824576
 110.7562908  63.9171320  91.1958479 111.2562686  64.0287855  90.3872798
 111.3998515  63.6132373  91.8359287 104.8144903  71.8249950 104.0826320
 104.3311985  72.6250310 104.2890209 104.9005842  71.8357895 103.1293764
 100.7418241  75.7154485  96.1194754 101.6961494  75.6838427  96.0524685
 100.5430764  75.2545108  96.9344979 101.3317623  74.2855601  98.6865551
 102.1510512  74.7799679  98.7100388 101.6054431  73.3687569  98.6583119
 111.0884219  66.6766353  88.0493507 110.2010074  66.9616004  87.8313701
 111.5038208  66.5160116  87.2020784 114.4398755  66.7012874  91.7647846
 115.2159145  67.1909326  92.0372463 113.7146889  67.1270928  92.2219715
 116.8771314  67.4140493  92.8221787 117.4715805  67.1736229  92.1115095
 116.9497898  66.6947624  93.4495323  99.0968470  81.2574104  93.1364951
  98.9622938  80.4974505  92.5702949  98.6800532  81.9815004  92.6693740
 111.0625243  72.1920889  88.2643797 111.0060444  72.6489440  87.4251429
 111.6153585  71.4311573  88.0866640 114.8730049  67.9810621  89.0893916
 114.6166983  67.5807256  89.9202124 114.2482917  68.6954415  88.9644056
 119.1842387  70.7206694  91.5965208 118.6241945  70.7899883  92.3696770
 118.5785890  70.5447679  90.8764704 102.2537596  82.1543421  93.3483394
 102.1369980  83.0988854  93.2462084 101.4330042  81.8516983  93.7369193
 111.7960022  73.3825670  85.5596326 111.7408826  73.2169942  84.6184770
 111.1706078  74.0901703  85.7158516  96.5852537  68.6193734  99.3857748
  97.2311401  68.1092688  99.8744973  96.3769688  69.3562416  99.9601174
 109.1105929  75.6874582 104.8849889 109.9797089  75.8615234 104.5236524
 108.6312681  76.5068999 104.7625618 105.1056148  62.8833779  85.1381644
 105.0934818  63.8275619  85.2949915 105.9979570  62.7003925  84.8441106
 105.0345712  81.5602670  93.2249401 104.0841343  81.5604531  93.1113773
 105.3378198  80.8135404  92.7085436 108.9208267  59.4776556  89.3927581
 108.1540663  58.9235042  89.5384264 109.3318972  59.5498425  90.2541733
 100.9250028  65.7661352 103.4832762 101.7881490  65.4098156 103.6936087
 100.3515439  65.4275246 104.1708167 120.7698405  87.3963208  94.2895163
 121.4076815  87.2769955  93.5858504 120.6519248  88.3444052  94.3483116
 117.5788111  87.3490636  94.2256688 117.2406623  87.2331701  93.3377223
 118.4477880  86.9481801  94.2057694 118.0607894  88.5025488 100.1842894
 118.0496535  88.1078286  99.3123397 118.2228534  87.7691560 100.7776665
 114.7815156  91.2862600  99.1322078 114.4905022  92.1908230  99.0168744
 115.4172140  91.3279127  99.8466147 115.7071362  88.6639448  95.7223437
 116.3034935  88.4395470  95.0080400 115.7646334  87.9224194  96.3248885
 120.3239674  85.1214662  91.3648372 121.1102763  84.7034085  91.0138789
 120.5878378  86.0260754  91.5330020 125.7248101  85.0589895  92.2681350
 126.4573273  84.4889112  92.5019180 124.9687456  84.6711495  92.7087856
 123.2473521  78.7711469  96.7275959 122.9156846  79.6406880  96.5037174
 122.6519134  78.4547753  97.4069989 116.9829707  82.5107036  84.4606041
 117.1504110  83.3787273  84.8276512 116.7926877  82.6734318  83.5367330
 119.7405041  90.9724015  96.1271871 119.4405764  91.8749054  96.0187679
 119.3956100  90.7056198  96.9793024 123.1402184  83.4906555  93.8069309
 122.2319062  83.4221964  93.5128070 123.0889780  83.9678500  94.6351134
 117.2143050  84.9096201 101.7504206 116.4376384  85.4690121 101.7407071
 117.8533613  85.3952984 102.2719076 125.0063831  81.6922994  95.5847183
 124.3638211  81.9855527  94.9386977 124.5018759  81.5775914  96.3900379
 122.6603994  85.4386167  86.2733042 123.5721851  85.6713554  86.0980739
 122.1513642  86.0223211  85.7108120 115.4689423  87.7181654 101.3122173
 116.2104107  88.2566698 101.0356997 114.7626408  88.3447943 101.4693725
 120.9444762  89.8610795  99.9094334 121.3528118  89.4193205  99.1648967
 120.2222024  89.2863422 100.1628527 117.2975832  84.7983401  97.2827891
 118.1437027  85.2222815  97.4262540 117.2374470  84.1417026  97.9766455
 121.2673577  90.4211985  93.6646623 120.6382439  90.5857699  92.9622691
 120.8799239  90.8353595  94.4357587 125.1462809  91.3566423  91.0190987
 124.4613847  91.7365324  90.4688020 125.2306658  91.9661750  91.7522935
 120.4475278  82.4587770  98.9409065 120.2036209  83.2129830  98.4043341
 120.7235208  82.8373117  99.7756312 122.4013740  89.0026382  97.6186331
 122.6130636  89.6458142  96.9420712 122.3543489  88.1688699  97.1508261
 120.0039969  81.6144203  94.5222903 119.1424448  81.9125456  94.8139640
 120.0302404  81.8314602  93.5903935 113.7125620  89.7057875  93.8676472
 114.2826977  90.1345143  93.2293956 114.3033732  89.4240460  94.5660657
 114.2050786  84.8721302 102.1137483 113.5749447  85.5537583 102.3472880
 114.0986874  84.7604384 101.1690621 109.4995759  84.5393098  93.0403407
 108.7094813  84.7950627  92.5643518 109.9907006  85.3541436  93.1455448
 123.5159568  91.8798338  95.7908688 124.3377012  91.4778525  95.5091370
 123.5121971  91.7766572  96.7424804 111.4510504  84.9037678  89.9986884
 110.6541667  85.0156372  90.5170380 111.2236096  85.2424330  89.1327774
 117.2816172  91.4282381  97.9469398 117.3460604  91.8902788  98.7827570
 116.5727096  90.7979746  98.0751708 107.7833462  84.7923589  95.4718398
 108.0341500  85.6770599  95.7375974 108.3193010  84.6128190  94.6993490
 131.6065561  88.2237086  92.1393659 130.8529270  87.6544484  91.9837664
 131.7413103  88.1899751  93.0864294 113.4831529  79.1742068 104.4762734
 113.0898475  78.6208267 105.1510378 114.2997669  79.4852647 104.8669252
 116.3999490  80.5899947 102.0682991 117.1409203  81.1907100 101.9887453
 116.6317413  79.8477585 101.5101033 117.1786958  91.5120984 100.8153631
 117.7115295  90.7509272 100.5852938 116.6501039  91.2194636 101.5577785
 120.3456653  76.6181050  96.3447272 120.0020922  77.5082692  96.2686383
 120.7135616  76.4282708  95.4816857 120.3106936  86.6089661  84.8519707
 119.7953559  87.3794266  85.0908095 120.0384244  85.9354798  85.4752769
 117.8954047  81.4539362  89.9104946 117.0395643  81.0646213  89.7310584
 118.3080998  81.5331323  89.0504731 119.4253193  78.9885705  94.3096506
 118.9217989  78.9515841  93.4964311 119.7183800  79.8978448  94.3693162
 115.6696079  79.0724435  93.3162687 116.5349076  78.8767244  92.9568577
 115.7373588  78.8434787  94.2432044 120.0993239  84.4816753  86.6779489
 119.7943374  84.7962903  87.5289632 121.0523681  84.5598173  86.7206822
 123.5232517  88.8355997  93.4439489 122.8656191  89.5255259  93.5319617
 124.3272916  89.2252429  93.7873475 113.2758398  81.3026643  90.6879054
 113.8502150  81.0801825  89.9552247 113.8629381  81.3715338  91.4407655
 122.3337975  87.1900370  91.4943431 122.8469857  87.8230362  91.9965140
 122.9839199  86.5901565  91.1286791 115.5781066  78.1767892  89.4154123
 114.9245478  77.8616909  88.7910738 115.5361540  77.5543632  90.1413946
 118.8118806  84.6649825  93.7401771 117.8941368  84.8864772  93.5823459
 119.2278950  84.7396136  92.8813478 119.5953854  86.0641241  88.8704451
 120.3425673  86.5762638  88.5611573 119.8645444  85.7425294  89.7308845
 123.0999772  92.1706371  89.6222573 122.6462099  91.3297281  89.6787764
 122.4693738  92.8067770  89.9597353 122.0432691  83.0998357  90.8523241
 121.3055448  82.5875744  91.1833483 122.2959465  82.6598739  90.0406518
 121.5432711  94.0082868  90.5572391 121.8355685  94.5687925  89.8384757
 122.0531332  94.3011429  91.3125550 122.1444319  75.8774609  91.4465010
 122.4503195  75.0171973  91.1590925 122.8696923  76.4692230  91.2464004
 108.4368675  86.2805296  89.8346608 108.2393074  85.6874657  89.1097674
 107.8815339  85.9757506  90.5522547 116.4165398  86.1728402  91.9541201
 116.4714008  85.2202239  91.8783678 115.6056600  86.3287842  92.4382499
 114.3557758  84.7905462  89.7131580 113.5425624  85.0899633  90.1196772
 114.8516752  84.3961151  90.4306062 119.9531970  85.2547287  98.5446474
 120.3081358  85.4818760  99.4040940 120.6004101  85.5865663  97.9223729
 125.6829707  88.3765723  89.2495803 125.5447605  88.5667319  88.3216992
 125.3265926  89.1385105  89.7063854 113.8471833  82.3623818  95.3292815
 114.4871212  82.2212577  94.6315778 113.0149364  82.0758331  94.9531417
 125.7099086  90.4442250  94.2607074 126.1435593  90.3517539  95.1090128
 126.4230667  90.4199750  93.6227090 119.4426981  94.0444344  95.7940175
 119.4964004  94.6135280  96.5617891 118.5741763  94.2146229  95.4294212
 110.8500449  82.3324143  90.1065802 111.1107267  83.2469476  89.9974962
 111.6717622  81.8648585  90.2562414 112.3225375  83.7461900  97.2764626
 112.9948428  83.5379262  96.6277275 111.4955161  83.5483986  96.8369858
 126.5714636  90.4865950  96.7939960 126.7650526  91.3911761  97.0399235
 126.4715254  90.0273369  97.6278545 118.2250947  80.3723841  99.2930287
 117.5778862  81.0713790  99.1994763 118.9951962  80.8059985  99.6606535
 121.6329745  90.6372693 102.3680840 121.4815251  90.4083245 101.4510924
 121.6234424  91.5943294 102.3812185 118.4015081  88.2104606  97.3527107
 119.3307141  88.3615765  97.1796074 117.9806111  88.2988627  96.4975753
 117.2003413  92.2355270  95.1225644 117.0614499  91.8674055  95.9951582
 116.4118009  92.7502910  94.9509602 118.7508628  91.6136873  92.5114482
 118.4158461  91.5737643  93.4072132 118.2512574  90.9481589  92.0384892
 112.7252872  87.0204503  98.0367063 112.5872670  86.2884742  98.6378602
 113.6357795  86.9313403  97.7551251 115.3535173  86.7324462  97.5250743
 116.0634791  86.0917654  97.4837361 115.3104481  86.9837357  98.4476924
 114.0664107  83.7189680  99.3446382 113.5301464  83.2680419  99.9967979
 113.4780815  83.8535589  98.6016847 123.3439359  91.6331399  98.6771302
 122.4566137  91.2957321  98.7997701 123.9137910  90.9014431  98.9140067
 109.8003228  82.8545688  96.4299377 109.7161417  82.2471357  95.6949787
 108.9785934  83.3454706  96.4308873 119.9726942  81.3399251  91.7969572
 120.4695641  80.5869214  91.4770642 119.2013923  81.3763568  91.2312781
 127.8256699  87.0439617  93.4387863 127.8146575  87.9264332  93.0681797
 126.9574079  86.6911168  93.2442401 116.5561911  83.4816634  91.5241257
 116.1859698  82.9287675  92.2122162 117.0521003  82.8774768  90.9716257
 124.4429274  85.9388258  89.9058030 124.9089726  86.7716249  89.8318332
 124.8936774  85.4733239  90.6103288 122.4145937  78.3068845  93.9448931
 121.5009016  78.5373072  94.1131138 122.8439038  78.3907289  94.7962963
 122.1852395  86.4958737  96.4448825 121.5323845  86.7434644  95.7901278
 122.5632775  85.6822875  96.1111302 118.2339968  87.2378548 102.9314862
 117.5580605  87.1372677 103.6017237 119.0567602  87.0817762 103.3950859
 104.5736482  86.0456085  94.2731820 104.6120581  85.5119675  95.0668938
 104.0676775  85.5191290  93.6542798 111.9527244  80.8920625  97.7694363
 112.0168571  81.7535456  97.3571760 111.8894364  80.2794627  97.0366721
 111.4279517  82.9643758 101.4167397 112.0551556  82.5820835 102.0304921
 110.5707436  82.7457960 101.7823089 111.7339306  82.8476183  93.3313300
 111.0125892  83.4612151  93.1920774 112.5232562  83.3833948  93.2529946
 122.1766047  94.2936471  95.7815710 121.2296382  94.1741822  95.7094037
 122.5248820  93.4058969  95.8641972 114.5365620  80.1830610  99.6053952
 115.0600022  80.4292906 100.3680261 114.3177953  81.0150645  99.1857089
 113.0474724  82.7407254  87.8400555 113.3870797  83.2693175  87.1179163
 113.4946845  83.0787660  88.6159121 122.7846602  94.9117746  93.0684935
 123.7093149  94.7060607  92.9309386 122.6161905  94.6634147  93.9774277
 115.7418165  81.1244305  97.2903623 115.4014985  80.3252118  97.6924303
 115.0357171  81.4246016  96.7180456 116.3934637  78.2093617  95.7430946
 117.2160706  77.7354096  95.6209836 116.6372700  78.9884101  96.2429632
 119.1773994  81.9427025  86.9752180 119.3937609  82.8251663  86.6741008
 118.6968061  81.5513238  86.2457822 113.9173216  84.9012738  93.5522924
 113.7717796  85.2153041  94.4447206 113.4398419  85.5197638  92.9993823
 115.7769598  81.8915286  93.6003814 115.7631167  80.9956379  93.2636112
 116.4942027  81.8985950  94.2342100 117.6295729  82.3252626  95.6456941
 117.3713507  83.2469697  95.6441272 117.0980770  81.9283061  96.3357405
 122.5741918  95.4303413  88.4247027 122.7478795  94.8649836  87.6720879
 123.0670809  96.2304308  88.2426517 115.1806494  80.7729666  88.8691384
 115.3022406  79.8446312  89.0682271 114.8908537  80.7868352  87.9569699
 118.0497685  78.4584577  92.0058104 118.0719382  78.5223910  91.0510083
 118.4665744  77.6189085  92.1998610 128.4281309  88.1939836  90.0437326
 128.8712455  87.4447161  89.6456450 127.5507819  88.1849973  89.6611058
 114.6647574  82.2861664 103.0781317 114.7135729  83.1623786 102.6959086
 115.2070088  81.7439057 102.5052960 125.1502420  92.8302787 102.3582454
 124.3597963  92.8126926 101.8186953 124.9135774  93.3691081 103.1131490
 125.2700295  89.6795253  99.6715182 125.3198300  89.5145261 100.6130705
 125.1614218  88.8122512  99.2813063 122.5604057  85.6626181 100.9874489
 123.4613920  85.5232646 100.6958487 122.6352032  85.8280636 101.9272666
 116.8946862  83.0393036  99.8327675 116.0250172  83.3326602  99.5610264
 117.1306343  83.6233481 100.5534939 126.7718492  92.0992195  99.9157204
 126.4803300  92.4622175 100.7520665 126.1590623  91.3859203  99.7370536
 127.9714174  89.6645075  92.4359774 128.8061065  90.1034879  92.5997334
 128.1073303  89.1883728  91.6168020 125.0205680  87.2224809  98.3837262
 125.4959801  87.4152456  97.5756113 124.0971245  87.2783995  98.1380645
 119.5985896  79.2572653  97.3493096 120.1167840  79.9933680  97.0239584
 119.2441029  79.5636646  98.1839855 119.8498490  75.6772935  92.8693992
 120.1300244  75.0096125  93.4954419 120.6349097  75.8702031  92.3568656
 123.7207349  84.0990569  96.6165567 124.6724772  84.1988667  96.6377791
 123.5510799  83.3068838  97.1263652 121.7421728  81.1846153  96.8024968
 121.1471660  81.4651165  96.1071457 121.4571425  81.6740054  97.5741709
 120.8729219  95.1369080  85.5627601 121.8059892  95.0714641  85.7660476
 120.7852432  95.9725346  85.1042133 126.1995427  87.3196689  95.7307867
 126.1671747  86.3812690  95.9167551 126.8096050  87.3980726  94.9973692
 126.3489915  84.1107733  95.7766150 125.8328964  83.3266189  95.5896079
 127.2329864  83.7826449  95.9412670 124.0100642  77.8548748  91.7361963
 123.8125463  77.5463836  92.6205295 124.6200348  78.5810387  91.8659893
 132.0171976  88.3812696  94.8713904 132.7475365  88.1197984  95.4321607
 131.4078922  87.6441418  94.9115972 130.0987274  86.5220559  95.4688355
 129.3720437  86.3876524  94.8604847 129.6834560  86.8297387  96.2745073
 117.9217450  90.2410488 103.2335728 118.8420459  90.4189087 103.4275775
 117.8867033  89.2966534 103.0815427 116.2221675  84.1142719  81.7089956
 115.3153130  83.8175831  81.7852670 116.4997656  83.8172537  80.8424242
 117.8383740  78.6579608  87.8634198 117.0284469  78.3126693  88.2389444
 118.5268157  78.3487152  88.4521809 119.7674289  77.7357655  89.4858494
 120.3205327  78.1553108  90.1448517 120.0044375  76.8093403  89.5281450
 115.7907388  83.7244729 105.2661258 115.6904115  84.6739086 105.1973349
 115.5728930  83.3962968 104.3937328 123.1453096  79.8458180  88.9937158
 122.5651765  80.5042984  88.6115211 122.8789028  79.0235525  88.5824576
 121.5956662  79.2463238  91.1958479 122.0956440  79.3579772  90.3872798
 122.2392270  78.9424291  91.8359287 115.6538658  87.1541868 104.0826320
 115.1705740  87.9542228 104.2890209 115.7399597  87.1649812 103.1293764
 112.1711377  89.6147518  98.6865551 112.9904266  90.1091597  98.7100388
 112.4448185  88.6979486  98.6583119 121.9277974  82.0058271  88.0493507
 121.0403829  82.2907921  87.8313701 122.3431963  81.8452034  87.2020784
 125.2792510  82.0304792  91.7647846 126.0552900  82.5201244  92.0372463
 124.5540644  82.4562846  92.2219715 127.7165068  82.7432411  92.8221787
 128.3109559  82.5028147  92.1115095 127.7891652  82.0239541  93.4495323
 121.9018997  87.5212807  88.2643797 121.8454199  87.9781358  87.4251429
 122.4547340  86.7603491  88.0866640 125.7123803  83.3102538  89.0893916
 125.4560738  82.9099174  89.9202124 125.0876671  84.0246332  88.9644056
 130.0236141  86.0498612  91.5965208 129.4635699  86.1191801  92.3696770
 129.4179645  85.8739596  90.8764704 119.9499684  91.0166500 104.8849889
 120.8190844  91.1907152 104.5236524 119.4706435  91.8360916 104.7625618
 115.9449902  78.2125697  85.1381644 115.9328572  79.1567537  85.2949915
 116.8373324  78.0295842  84.8441106 119.7602022  74.8068473  89.3927581
 118.9934417  74.2526960  89.5384264 120.1712727  74.8790342  90.2541733
 111.7643783  81.0953269 103.4832762 112.6275244  80.7390074 103.6936087
 111.1909193  80.7567164 104.1708167 131.6092160 102.7255126  94.2895163
 132.2470570 102.6061873  93.5858504 131.4913003 103.6735970  94.3483116
 128.4181866 102.6782554  94.2256688 128.0800377 102.5623618  93.3377223
 129.2871634 102.2773719  94.2057694 128.9001649 103.8317405 100.1842894
 128.8890290 103.4370204  99.3123397 129.0622288 103.0983478 100.7776665
 129.8568240 108.1988998  85.5268044 129.2056220 108.7843078  85.1402058
 130.6512603 108.7295193  85.5863082 125.6208910 106.6154517  99.1322078
 125.3298776 107.5200148  99.0168744 126.2565894 106.6571045  99.8466147
 126.5465117 103.9931366  95.7223437 127.1428689 103.7687388  95.0080400
 126.6040088 103.2516111  96.3248885 131.1633428 100.4506579  91.3648372
 131.9496517 100.0326003  91.0138789 131.4272132 101.3552672  91.5330020
 131.3343505 105.8879430  86.0637028 130.6989338 105.9614056  86.7757933
 131.0040912 106.4773029  85.3856108 136.5641855 100.3881813  92.2681350
 137.2967027  99.8181029  92.5019180 135.8081211 100.0003413  92.7087856
 128.1817975 102.8109054  89.4644692 127.8176182 102.2839675  90.1757614
 129.0385091 102.4207523  89.2911178 134.0867276  94.1003387  96.7275959
 133.7550600  94.9698798  96.5037174 133.4912889  93.7839671  97.4069989
 130.5798795 106.3015933  96.1271871 130.2799518 107.2040972  96.0187679
 130.2349855 106.0348116  96.9793024 133.9795939  98.8198473  93.8069309
 133.0712816  98.7513881  93.5128070 133.9283535  99.2970418  94.6351134
 135.8457585  97.0214911  95.5847183 135.2031966  97.3147444  94.9386977
 135.3412514  96.9067832  96.3900379 133.4997749 100.7678085  86.2733042
 134.4115605 101.0005471  86.0980739 132.9907396 101.3515129  85.7108120
 131.7838517 105.1902712  99.9094334 132.1921873 104.7485123  99.1648967
 131.0615778 104.6155340 100.1628527 128.1369587 100.1275319  97.2827891
 128.9830782 100.5514733  97.4262540 128.0768224  99.4708943  97.9766455
 132.1067331 105.7503903  93.6646623 131.4776194 105.9149617  92.9622691
 131.7192993 106.1645513  94.4357587 135.9856563 106.6858341  91.0190987
 135.3007601 107.0657242  90.4688020 136.0700412 107.2953667  91.7522935
 131.2869032  97.7879687  98.9409065 131.0429964  98.5421748  98.4043341
 131.5628963  98.1665035  99.7756312 133.2407495 104.3318300  97.6186331
 133.4524390 104.9750060  96.9420712 133.1937243 103.4980616  97.1508261
 130.8433724  96.9436120  94.5222903 129.9818203  97.2417374  94.8139640
 130.8696158  97.1606519  93.5903935 134.3553323 107.2090255  95.7908688
 135.1770766 106.8070443  95.5091370 134.3515726 107.1058489  96.7424804
 128.1209926 106.7574299  97.9469398 128.1854359 107.2194706  98.7827570
 127.4120850 106.1271663  98.0751708 142.4459316 103.5529004  92.1393659
 141.6923024 102.9836402  91.9837664 142.5806857 103.5191668  93.0864294
 124.3225283  94.5033986 104.4762734 123.9292229  93.9500184 105.1510378
 125.1391424  94.8144564 104.8669252 127.2393244  95.9191865 102.0682991
 127.9802958  96.5199018 101.9887453 127.4711167  95.1769503 101.5101033
 129.4626420 109.0465973 101.9448721 129.0190274 108.2602351 101.6269625
 130.1243634 109.2345123 101.2792612 131.5607658 109.3268772  99.9730122
 131.5426134 110.1477654  99.4810391 132.4827578 109.2022848 100.1980263
 128.0180712 106.8412902 100.8153631 128.5509049 106.0801190 100.5852938
 127.4894794 106.5486554 101.5577785 131.1850407  91.9472968  96.3447272
 130.8414677  92.8374610  96.2686383 131.5529370  91.7574626  95.4816857
 131.1500690 101.9381579  84.8519707 130.6347314 102.7086184  85.0908095
 130.8777999 101.2646715  85.4752769 128.7347801  96.7831280  89.9104946
 127.8789398  96.3938130  89.7310584 129.1474753  96.8623241  89.0504731
 130.2646948  94.3177623  94.3096506 129.7611743  94.2807758  93.4964311
 130.5577555  95.2270366  94.3693162 126.5089834  94.4016353  93.3162687
 127.3742830  94.2059161  92.9568577 126.5767343  94.1726705  94.2432044
 136.1234964 104.6913934  86.7872881 135.3464407 104.3525093  86.3428043
 136.8026445 104.6966557  86.1127846 130.9386993  99.8108671  86.6779489
 130.6337129 100.1254820  87.5289632 131.8917435  99.8890091  86.7206822
 129.3833425 105.9698894  88.3272443 128.8554787 105.2351654  88.0145680
 128.8820928 106.7473571  88.0812411 134.3626271 104.1647915  93.4439489
 133.7049946 104.8547176  93.5319617 135.1666670 104.5544347  93.7873475
 124.1152153  96.6318561  90.6879054 124.6895905  96.4093742  89.9552247
 124.7023135  96.7007255  91.4407655 133.1731730 102.5192288  91.4943431
 133.6863612 103.1522279  91.9965140 133.8232954 101.9193483  91.1286791
 126.4174820  93.5059810  89.4154123 125.7639233  93.1908827  88.7910738
 126.3755295  92.8835550  90.1413946 129.6512561  99.9941743  93.7401771
 128.7335122 100.2156690  93.5823459 130.0672704 100.0688054  92.8813478
 130.4347609 101.3933159  88.8704451 131.1819428 101.9054556  88.5611573
 130.7039198 101.0717212  89.7308845 133.9393526 107.4998289  89.6222573
 133.4855853 106.6589199  89.6787764 133.3087493 108.1359687  89.9597353
 132.8826446  98.4290275  90.8523241 132.1449203  97.9167661  91.1833483
 133.1353219  97.9890657  90.0406518 132.3826465 109.3374786  90.5572391
 132.6749440 109.8979843  89.8384757 132.8925086 109.6303347  91.3125550
 132.9838073  91.2066527  91.4465010 133.2896950  90.3463891  91.1590925
 133.7090678  91.7984147  91.2464004 127.2559153 101.5020320  91.9541201
 127.3107763 100.5494157  91.8783678 126.4450355 101.6579759  92.4382499
 130.7925724 100.5839204  98.5446474 131.1475112 100.8110678  99.4040940
 131.4397856 100.9157581  97.9223729 136.5223461 103.7057640  89.2495803
 136.3841360 103.8959236  88.3216992 136.1659680 104.4677023  89.7063854
 124.6865587  97.6915735  95.3292815 125.3264967  97.5504495  94.6315778
 123.8543118  97.4050249  94.9531417 136.5492841 105.7734167  94.2607074
 136.9829348 105.6809456  95.1090128 137.2624422 105.7491668  93.6227090
 130.2820736 109.3736261  95.7940175 130.3357758 109.9427198  96.5617891
 129.4135517 109.5438146  95.4294212 137.4108391 105.8157868  96.7939960
 137.6044281 106.7203678  97.0399235 137.3109009 105.3565287  97.6278545
 129.0644701  95.7015759  99.2930287 128.4172616  96.4005708  99.1994763
 129.8345717  96.1351902  99.6606535 132.4723499 105.9664611 102.3680840
 132.3209006 105.7375162 101.4510924 132.4628179 106.9235212 102.3812185
 129.2408836 103.5396523  97.3527107 130.1700896 103.6907683  97.1796074
 128.8199866 103.6280544  96.4975753 128.0397167 107.5647188  95.1225644
 127.9008253 107.1965972  95.9951582 127.2511764 108.0794827  94.9509602
 129.5902383 106.9428791  92.5114482 129.2552215 106.9029561  93.4072132
 129.0906328 106.2773506  92.0384892 132.5261574 104.2884825  82.7851542
 131.9090745 103.5631653  82.6884594 132.0578063 105.0494185  82.4418616
 126.1928927 102.0616380  97.5250743 126.9028546 101.4209572  97.4837361
 126.1498235 102.3129275  98.4476924 134.1815706 108.9983733 100.4457322
 134.1228252 108.3142953  99.7787905 134.5835224 109.7402723  99.9937948
 134.1833113 106.9623317  98.6771302 133.2959892 106.6249239  98.7997701
 134.7531664 106.2306348  98.9140067 127.7134267 111.6224770  95.6432545
 127.6404438 112.4279741  96.1551850 127.2711660 111.8216735  94.8180566
 130.8120696  96.6691169  91.7969572 131.3089396  95.9161131  91.4770642
 130.0407678  96.7055486  91.2312781 138.6650454 102.3731535  93.4387863
 138.6540330 103.2556250  93.0681797 137.7967833 102.0203085  93.2442401
 130.1732950 111.5211604  97.7990704 130.8860922 112.1559068  97.7266605
 129.6822979 111.6175470  96.9830706 131.8950477 105.4262856  89.3707995
 130.9606756 105.5464319  89.2012700 132.0727145 104.5235323  89.1068005
 127.3955665  98.8108552  91.5241257 127.0253453  98.2579592  92.2122162
 127.8914757  98.2066685  90.9716257 135.2823028 101.2680176  89.9058030
 135.7483480 102.1008167  89.8318332 135.7330529 100.8025157  90.6103288
 125.2244864 109.2706047  98.6196275 125.9254323 109.9042530  98.7725669
 124.7539979 109.6120779  97.8591914 133.3499259 107.6123997  86.9044182
 133.6259103 107.4980591  87.8138056 132.4803758 107.2141482  86.8656355
 133.2539691  93.6360762  93.9448931 132.3402771  93.8664989  94.1131138
 133.6832792  93.7199207  94.7962963 133.0246150 101.8250654  96.4448825
 132.3717600 102.0726562  95.7901278 133.4026529 101.0114793  96.1111302
 127.8156505 113.8737393  97.1672478 128.3674813 114.0369014  97.9321563
 128.1562699 114.4641831  96.4952503 132.6667380 108.6998650 103.0221132
 133.2107284 109.3128609 102.5276087 132.0854225 109.2578229 103.5388145
 130.9524893 111.8219368  94.1536160 130.8276032 111.0209108  93.6447106
 131.6103984 112.3165562  93.6650130 133.0159801 109.6228389  95.7815710
 132.0690137 109.5033740  95.7094037 133.3642574 108.7350887  95.8641972
 125.3759374  95.5122527  99.6053952 125.8993776  95.7584824 100.3680261
 125.1571708  96.3442562  99.1857089 130.0206234 109.4181105  91.9820062
 129.8731197 108.4897812  92.1627632 130.8459728 109.4401196  91.4977138
 123.8868479  98.0699172  87.8400555 124.2264551  98.5985093  87.1179163
 124.3340599  98.4079578  88.6159121 133.6240356 110.2409664  93.0684935
 134.5486904 110.0352525  92.9309386 133.4555660 109.9926065  93.9774277
 126.5811920  96.4536223  97.2903623 126.2408740  95.6544036  97.6924303
 125.8750926  96.7537933  96.7180456 127.2328391  93.5385535  95.7430946
 128.0554461  93.0646013  95.6209836 127.4766455  94.3176019  96.2429632
 125.8736626  96.5673793  86.0393847 126.5944988  96.9455046  85.5357564
 125.2501930  97.2862670  86.1428825 130.0167749  97.2718942  86.9752180
 130.2331363  98.1543580  86.6741008 129.5361816  96.8805156  86.2457822
 126.6163353  97.2207204  93.6003814 126.6024922  96.3248297  93.2636112
 127.3335781  97.2277867  94.2342100 128.4689484  97.6544544  95.6456941
 128.2107262  98.5761615  95.6441272 127.9374524  97.2574978  96.3357405
 133.4135672 110.7595331  88.4247027 133.5872550 110.1941753  87.6720879
 133.9064564 111.5596226  88.2426517 126.0200249  96.1021584  88.8691384
 126.1416160  95.1738230  89.0682271 125.7302291  96.1160270  87.9569699
 128.8891439  93.7876494  92.0058104 128.9113136  93.8515827  91.0510083
 129.3059498  92.9481003  92.1998610 139.2675064 103.5231754  90.0437326
 139.7106210 102.7739079  89.6456450 138.3901574 103.5141890  89.6611058
 134.4010845 110.0762095  85.5243925 135.0961750 110.6968788  85.7431240
 134.7433995 109.2257447  85.7996303 136.3002268 107.5261801  87.0531256
 136.8253592 107.8649074  86.3280576 136.2124621 106.5908816  86.8694390
 127.9622317 111.4395875  99.1821132 128.2709443 111.1945021 100.0543832
 128.7597799 111.6442513  98.6940003 135.9896174 108.1594705 102.3582454
 135.1991718 108.1418843 101.8186953 135.7529529 108.6982998 103.1131490
 136.1094049 105.0087171  99.6715182 136.1592054 104.8437178 100.6130705
 136.0007973 104.1414430  99.2813063 133.3997812 100.9918099 100.9874489
 134.3007674 100.8524564 100.6958487 133.4745786 101.1572554 101.9272666
 127.7340617  98.3684954  99.8327675 126.8643926  98.6618520  99.5610264
 127.9700097  98.9525399 100.5534939 137.6112246 107.4284112  99.9157204
 137.3197054 107.7914093 100.7520665 136.9984377 106.7151121  99.7370536
 138.8107928 104.9936992  92.4359774 139.6454820 105.4326796  92.5997334
 138.9467057 104.5175645  91.6168020 135.8599434 102.5516727  98.3837262
 136.3353556 102.7444373  97.5756113 134.9365000 102.6075913  98.1380645
 122.7482941 103.7140894  87.9668340 122.5028983 102.8103224  88.1648550
 122.9178855 103.7158045  87.0247818 130.4379651  94.5864571  97.3493096
 130.9561595  95.3225598  97.0239584 130.0834783  94.8928564  98.1839855
 130.6892245  91.0064853  92.8693992 130.9693999  90.3388042  93.4954419
 131.4742852  91.1993949  92.3568656 134.5601103  99.4282487  96.6165567
 135.5118526  99.5280585  96.6377791 134.3904554  98.6360756  97.1263652
 132.5815483  96.5138070  96.8024968 131.9865415  96.7943083  96.1071457
 132.2965179  97.0031971  97.5741709 131.7122973 110.4660997  85.5627601
 132.6453646 110.4006559  85.7660476 131.6246186 111.3017264  85.1042133
 134.3410990 109.7826868  82.5231548 134.2624621 109.4486731  83.4167306
 135.1620657 110.2748635  82.5223021 137.0389181 102.6488607  95.7307867
 137.0065501 101.7104608  95.9167551 137.6489805 102.7272644  94.9973692
 137.1883670  99.4399650  95.7766150 136.6722718  98.6558107  95.5896079
 138.0723618  99.1118367  95.9412670 134.8494396  93.1840666  91.7361963
 134.6519218  92.8755754  92.6205295 135.4594102  93.9102305  91.8659893
 142.8565731 103.7104614  94.8713904 143.5869119 103.4489902  95.4321607
 142.2472676 102.9733336  94.9115972 140.9381028 101.8512476  95.4688355
 140.2114192 101.7168441  94.8604847 140.5228315 102.1589305  96.2745073
 128.7611204 105.5702406 103.2335728 129.6814214 105.7481005 103.4275775
 128.7260787 104.6258451 103.0815427 128.6777495  93.9871526  87.8634198
 127.8678223  93.6418611  88.2389444 129.3661912  93.6779070  88.4521809
 130.6068043  93.0649573  89.4858494 131.1599082  93.4845026  90.1448517
 130.8438129  92.1385321  89.5281450 133.9846850  95.1750098  88.9937158
 133.4045519  95.8334902  88.6115211 133.7182783  94.3527442  88.5824576
 132.4350417  94.5755156  91.1958479 132.9350195  94.6871690  90.3872798
 133.0786024  94.2716208  91.8359287 132.7671728  97.3350188  88.0493507
 131.8797583  97.6199839  87.8313701 133.1825717  97.1743952  87.2020784
 136.1186264  97.3596709  91.7647846 136.8946654  97.8493162  92.0372463
 135.3934398  97.7854763  92.2219715 138.5558823  98.0724328  92.8221787
 139.1503314  97.8320064  92.1115095 138.6285407  97.3531459  93.4495323
 131.9114942 107.0994863  82.1441527 132.6150792 107.3044865  82.7599182
 131.1877590 107.6671625  82.4090610 132.7412752 102.8504724  88.2643797
 132.6847953 103.3073276  87.4251429 133.2941094 102.0895409  88.0866640
 136.5517558  98.6394456  89.0893916 136.2954492  98.2391092  89.9202124
 135.9270426  99.3538250  88.9644056 140.8629896 101.3790529  91.5965208
 140.3029454 101.4483719  92.3696770 140.2573399 101.2031514  90.8764704
 133.8201639 107.5377392  84.1939987 134.6547243 107.1058591  84.0117462
 133.6585982 107.3659406  85.1216881 133.4747531 104.0409505  85.5596326
 133.4196335 103.8753777  84.6184770 132.8493586 104.7485538  85.7158516
 130.7893438 106.3458417 104.8849889 131.6584598 106.5199070 104.5236524
 130.3100190 107.1652834 104.7625618 130.5995776  90.1360391  89.3927581
 129.8328172  89.5818878  89.5384264 131.0106481  90.2082260  90.2541733
 142.4485914 118.0547043  94.2895163 143.0864324 117.9353791  93.5858504
 142.3306757 119.0027887  94.3483116 139.2575620 118.0074471  94.2256688
 138.9194132 117.8915536  93.3377223 140.1265389 117.6065636  94.2057694
 135.1162436 119.8609948  90.2153579 134.5527301 119.7699885  89.4469867
 135.0014831 119.0409852  90.6956072 139.7395403 119.1609323 100.1842894
 139.7284044 118.7662121  99.3123397 139.9016043 118.4275396 100.7776665
 132.6626868 121.3561139  93.0537800 133.4548160 121.0151964  92.6384099
 132.9023518 121.4656114  93.9739953 140.6961995 123.5280915  85.5268044
 140.0449975 124.1134996  85.1402058 141.4906358 124.0587110  85.5863082
 134.6217622 120.6170053  85.9255178 135.3948498 120.0699040  85.7868054
 134.9743021 121.4814302  86.1369640 136.4602665 121.9446435  99.1322078
 136.1692531 122.8492066  99.0168744 137.0959649 121.9862963  99.8466147
 137.3858871 119.3223283  95.7223437 137.9822444 119.0979306  95.0080400
 137.4433843 118.5808029  96.3248885 136.9583900 116.7762719  83.5573628
 137.2109420 116.2544240  82.7957091 136.0208459 116.6128864  83.6600312
 142.0027183 115.7798497  91.3648372 142.7890272 115.3617920  91.0138789
 142.2665887 116.6844589  91.5330020 142.1737260 121.2171347  86.0637028
 141.5383093 121.2905974  86.7757933 141.8434666 121.8064946  85.3856108
 147.4035610 115.7173730  92.2681350 148.1360782 115.1472947  92.5019180
 146.6474965 115.3295331  92.7087856 136.6780189 118.6790825  85.7598003
 136.5616447 118.0035728  86.4279088 136.7882448 118.1923199  84.9430156
 139.0211729 118.1400972  89.4644692 138.6569937 117.6131593  90.1757614
 139.8778845 117.7499441  89.2911178 144.9261030 109.4295304  96.7275959
 144.5944355 110.2990715  96.5037174 144.3306643 109.1131588  97.4069989
 138.6617216 113.1690871  84.4606041 138.8291619 114.0371108  84.8276512
 138.4714386 113.3318153  83.5367330 141.4192550 121.6307850  96.1271871
 141.1193273 122.5332889  96.0187679 141.0743609 121.3640034  96.9793024
 134.8705031 118.0821647  92.1608576 133.9455528 117.9497861  92.3686268
 135.1189444 118.8615866  92.6578518 144.8189693 114.1490391  93.8069309
 143.9106571 114.0805799  93.5128070 144.7677289 114.6262336  94.6351134
 138.6406437 115.6248529  85.4452708 138.5206063 116.0705580  86.2838188
 137.9459026 115.9733847  84.8866246 132.2313842 117.7254921  92.9952365
 132.3606223 117.9789400  93.9091777 131.5511293 118.3182629  92.6757020
 136.4013329 128.3952171  89.0942839 136.3237359 129.3459996  89.1731320
 135.7974973 128.0498043  89.7517765 138.8930559 115.5680036 101.7504206
 138.1163893 116.1273956 101.7407071 139.5321122 116.0536819 102.2719076
 146.6851340 112.3506829  95.5847183 146.0425720 112.6439362  94.9386977
 146.1806268 112.2359749  96.3900379 144.3391503 116.0970002  86.2733042
 145.2509360 116.3297389  86.0980739 143.8301151 116.6807046  85.7108120
 137.1476931 118.3765490 101.3122173 137.8891616 118.9150534 101.0356997
 136.4413917 119.0031778 101.4693725 142.6232271 120.5194630  99.9094334
 143.0315627 120.0777041  99.1648967 141.9009533 119.9447258 100.1628527
 138.9763341 115.4567237  97.2827891 139.8224536 115.8806650  97.4262540
 138.9161979 114.8000861  97.9766455 142.9461086 121.0795821  93.6646623
 142.3169948 121.2441535  92.9622691 142.5586748 121.4937430  94.4357587
 146.8250318 122.0150258  91.0190987 146.1401356 122.3949160  90.4688020
 146.9094167 122.6245585  91.7522935 142.1262787 113.1171605  98.9409065
 141.8823718 113.8713666  98.4043341 142.4022717 113.4956953  99.7756312
 144.0801249 119.6610218  97.6186331 144.2918145 120.3041977  96.9420712
 144.0330998 118.8272534  97.1508261 141.6827478 112.2728038  94.5222903
 140.8211957 112.5709292  94.8139640 141.7089913 112.4898437  93.5903935
 138.4989048 120.8170229  90.9296708 138.9627393 121.0957932  90.1401331
 138.2345846 119.9153673  90.7469799 135.3913129 120.3641710  93.8676472
 135.9614486 120.7928979  93.2293956 135.9821241 120.0824295  94.5660657
 137.4357934 116.9393381  87.7386274 138.1381977 117.3914425  88.2060200
 137.1038562 116.2977200  88.3666167 135.8838295 115.5305138 102.1137483
 135.2536956 116.2121419 102.3472880 135.7774383 115.4188219 101.1690621
 131.1783268 115.1976934  93.0403407 130.3882322 115.4534462  92.5643518
 131.6694515 116.0125272  93.1455448 145.1947077 122.5382173  95.7908688
 146.0164521 122.1362360  95.5091370 145.1909480 122.4350407  96.7424804
 133.1298013 115.5621513  89.9986884 132.3329176 115.6740207  90.5170380
 132.9023605 115.9008165  89.1327774 138.9603681 122.0866216  97.9469398
 139.0248113 122.5486623  98.7827570 138.2514605 121.4563581  98.0751708
 129.4620971 115.4507424  95.4718398 129.7129009 116.3354434  95.7375974
 129.9980519 115.2712026  94.6993490 153.2853070 118.8820921  92.1393659
 152.5316779 118.3128319  91.9837664 153.4200611 118.8483586  93.0864294
 138.6751698 123.7534324  87.8148379 138.5397373 124.5985859  88.2433227
 139.2161511 123.9553601  87.0514313 135.1619038 109.8325904 104.4762734
 134.7685984 109.2792102 105.1510378 135.9785178 110.1436482 104.8669252
 132.1281096 121.2709762  88.3876304 132.6405616 122.0653012  88.5381869
 132.7803809 120.5736052  88.3209905 133.9375980 124.3875518  90.4699057
 134.1142609 125.3093483  90.2820041 134.7332814 124.0733937  90.8993437
 138.0786999 111.2483783 102.0682991 138.8196712 111.8490936 101.9887453
 138.3104922 110.5061420 101.5101033 133.2228337 116.4340150 100.3461220
 133.1081852 115.5325407 100.6468319 132.3672855 116.6803847  99.9946037
 140.3020175 124.3757890 101.9448721 139.8584029 123.5894269 101.6269625
 140.9637388 124.5637041 101.2792612 135.0607296 125.9053692  96.4709399
 135.6114721 125.7770755  95.6986393 134.2218772 126.2048581  96.1204292
 142.4001413 124.6560690  99.9730122 142.3819888 125.4769571  99.4810391
 143.3221333 124.5314765 100.1980263 138.8574467 122.1704820 100.8153631
 139.3902804 121.4093108 100.5852938 138.3288548 121.8778471 101.5577785
 142.0244162 107.2764886  96.3447272 141.6808431 108.1666527  96.2686383
 142.3923125 107.0866543  95.4816857 130.0930013 119.5998416  89.1635874
 130.9305235 120.0095424  88.9469582 130.2708280 118.6597858  89.1336068
 141.9894445 117.2673497  84.8519707 141.4741068 118.0378101  85.0908095
 141.7171753 116.5938633  85.4752769 139.5741556 112.1123197  89.9104946
 138.7183152 111.7230048  89.7310584 139.9868507 112.1915158  89.0504731
 141.1040702 109.6469541  94.3096506 140.6005498 109.6099676  93.4964311
 141.3971309 110.5562283  94.3693162 137.3483588 109.7308270  93.3162687
 138.2136585 109.5351079  92.9568577 137.4161097 109.5018622  94.2432044
 146.9628719 120.0205851  86.7872881 146.1858162 119.6817011  86.3428043
 147.6420200 120.0258475  86.1127846 141.7780748 115.1400589  86.6779489
 141.4730883 115.4546738  87.5289632 142.7311190 115.2182009  86.7206822
 140.2227180 121.2990812  88.3272443 139.6948541 120.5643572  88.0145680
 139.7214682 122.0765488  88.0812411 145.2020026 119.4939833  93.4439489
 144.5443700 120.1839094  93.5319617 146.0060425 119.8836265  93.7873475
 134.9545907 111.9610478  90.6879054 135.5289659 111.7385660  89.9552247
 135.5416890 112.0299173  91.4407655 144.0125484 117.8484205  91.4943431
 144.5257366 118.4814197  91.9965140 144.6626708 117.2485401  91.1286791
 135.2815494 113.9914939  84.7074939 134.4452807 114.3289626  85.0284214
 135.1420264 113.8563919  83.7702076 137.2568575 108.8351727  89.4154123
 136.6032987 108.5200744  88.7910738 137.2149049 108.2127468  90.1413946
 138.3679780 119.1171022  81.3307416 137.4606842 118.8860276  81.5298565
 138.8650812 118.3208642  81.5181397 141.2747859 127.8268530  84.2504102
 140.6009557 128.1300226  84.8589060 141.6613681 128.6297610  83.9009559
 140.4906315 115.3233661  93.7401771 139.5728877 115.5448608  93.5823459
 140.9066459 115.3979971  92.8813478 141.2741363 116.7225077  88.8704451
 142.0213182 117.2346474  88.5611573 141.5432953 116.4009129  89.7308845
 139.5468013 119.2183617  85.8531406 138.6379233 118.9342650  85.9503875
 139.5763097 119.6382696  84.9934713 144.7787281 122.8290207  89.6222573
 144.3249608 121.9881117  89.6787764 144.1481247 123.4651605  89.9597353
 143.7220200 113.7582193  90.8523241 142.9842957 113.2459579  91.1833483
 143.9746974 113.3182574  90.0406518 143.2220220 124.6666703  90.5572391
 143.5143194 125.2271761  89.8384757 143.7318840 124.9595264  91.3125550
 143.8231828 106.5358445  91.4465010 144.1290704 105.6755808  91.1590925
 144.5484432 107.1276065  91.2464004 138.0952907 116.8312238  91.9541201
 138.1501517 115.8786074  91.8783678 137.2844109 116.9871677  92.4382499
 139.2444101 120.7592361  83.1919484 138.8063531 120.0428220  82.7325122
 139.9854542 120.9868476  82.6304576 136.0345267 115.4489298  89.7131580
 135.2213133 115.7483468  90.1196772 136.5304261 115.0544986  90.4306062
 138.1853845 125.4447055  91.6465845 138.1430024 125.6707901  90.7174377
 139.1016544 125.2110429  91.7951646 141.6319479 115.9131122  98.5446474
 141.9868867 116.1402595  99.4040940 142.2791610 116.2449499  97.9223729
 147.3617216 119.0349558  89.2495803 147.2235114 119.2251154  88.3216992
 147.0053435 119.7968941  89.7063854 135.5259342 113.0207653  95.3292815
 136.1658721 112.8796412  94.6315778 134.6936873 112.7342166  94.9531417
 147.3886595 121.1026085  94.2607074 147.8223102 121.0101374  95.1090128
 148.1018176 121.0783585  93.6227090 136.3019646 122.3210084  91.4427807
 137.0960244 121.8260404  91.2410382 135.5911338 121.7927947  91.0795513
 141.1214490 124.7028179  95.7940175 141.1751513 125.2719115  96.5617891
 140.2529272 124.8730064  95.4294212 132.5287958 112.9907978  90.1065802
 132.7894776 113.9053311  89.9974962 133.3505131 112.5232421  90.2562414
 134.0012884 114.4045735  97.2764626 134.6735937 114.1963097  96.6277275
 133.1742670 114.2067821  96.8369858 148.2502145 121.1449786  96.7939960
 148.4438035 122.0495596  97.0399235 148.1502763 120.6857205  97.6278545
 139.9038456 111.0307676  99.2930287 139.2566371 111.7297626  99.1994763
 140.6739471 111.4643820  99.6606535 143.3117254 121.2956528 102.3680840
 143.1602760 121.0667080 101.4510924 143.3021933 122.2527130 102.3812185
 140.0802590 118.8688441  97.3527107 141.0094650 119.0199601  97.1796074
 139.6593620 118.9572462  96.4975753 138.8790922 122.8939106  95.1225644
 138.7402008 122.5257890  95.9951582 138.0905518 123.4086745  94.9509602
 139.4739074 127.9948202  86.4651181 139.6490830 127.5236245  87.2796804
 138.7871862 128.6213968  86.6932442 140.4296137 122.2720708  92.5114482
 140.0945970 122.2321478  93.4072132 139.9300083 121.6065424  92.0384892
 134.4040381 117.6788338  98.0367063 134.2660179 116.9468577  98.6378602
 135.3145304 117.5897238  97.7551251 143.3655329 119.6176743  82.7851542
 142.7484499 118.8923571  82.6884594 142.8971817 120.3786103  82.4418616
 137.0322682 117.3908298  97.5250743 137.7422300 116.7501490  97.4837361
 136.9891990 117.6421192  98.4476924 145.0209460 124.3275651 100.4457322
 144.9622006 123.6434871  99.7787905 145.4228979 125.0694641  99.9937948
 135.7451616 114.3773515  99.3446382 135.2088973 113.9264254  99.9967979
 135.1568324 114.5119424  98.6016847 134.0400159 131.1437565  93.2391041
 134.2796757 131.7756089  93.9170060 133.1969356 130.7925605  93.5256400
 135.1553875 113.8362167  81.9072846 134.2783341 113.7150968  81.5435093
 135.6311628 113.0448245  81.6551735 145.0226868 122.2915235  98.6771302
 144.1353646 121.9541157  98.7997701 145.5925419 121.5598266  98.9140067
 126.6756015 118.6239327  92.0014353 127.3627055 118.3101057  91.4135369
 126.5204143 119.5280691  91.7281605 131.4790737 113.5129523  96.4299377
 131.3948926 112.9055193  95.6949787 130.6573443 114.0038541  96.4308873
 138.5528021 126.9516687  95.6432545 138.4798192 127.7571659  96.1551850
 138.1105414 127.1508653  94.8180566 138.3417801 126.1888457  89.1535367
 137.5585323 126.7310137  89.2473591 139.0410546 126.7062437  89.5529608
 141.6514451 111.9983087  91.7969572 142.1483150 111.2453049  91.4770642
 140.8801432 112.0347403  91.2312781 149.5044208 117.7023452  93.4387863
 149.4934084 118.5848168  93.0681797 148.6361588 117.3495003  93.2442401
 141.0126705 126.8503521  97.7990704 141.7254677 127.4850986  97.7266605
 140.5216733 126.9467387  96.9830706 142.7344231 120.7554774  89.3707995
 141.8000510 120.8756236  89.2012700 142.9120900 119.8527241  89.1068005
 138.2349419 114.1400470  91.5241257 137.8647207 113.5871510  92.2122162
 138.7308512 113.5358603  90.9716257 146.1216783 116.5972093  89.9058030
 146.5877235 117.4300085  89.8318332 146.5724283 116.1317075  90.6103288
 136.0638618 124.5997965  98.6196275 136.7648078 125.2334448  98.7725669
 135.5933733 124.9412696  97.8591914 144.1893014 122.9415914  86.9044182
 144.4652858 122.8272509  87.8138056 143.3197513 122.5433399  86.8656355
 144.0933446 108.9652680  93.9448931 143.1796525 109.1956907  94.1131138
 144.5226547 109.0491124  94.7962963 143.8639904 117.1542572  96.4448825
 143.2111354 117.4018480  95.7901278 144.2420284 116.3406710  96.1111302
 140.8247078 127.1902265  90.5476995 141.0069472 126.3723921  91.0104748
 141.6480064 127.4069958  90.1101885 141.1589243 126.1170450  87.8092044
 141.6877010 125.6062905  87.1962206 141.4217463 125.8012981  88.6737577
 139.9127477 117.8962383 102.9314862 139.2368114 117.7956513 103.6017237
 140.7355111 117.7401597 103.3950859 131.6606336 124.1334320  95.5527377
 132.2459773 123.3878008  95.6855281 131.4631175 124.4438276  96.4364041
 134.5144991 127.1685567  90.5689820 133.8455367 127.6531695  90.0853860
 134.3757861 127.4154788  91.4833198 126.2523991 116.7039920  94.2731820
 126.2908090 116.1703511  95.0668938 125.7464284 116.1775125  93.6542798
 138.6550260 129.2029311  97.1672478 139.2068568 129.3660932  97.9321563
 138.9956453 129.7933748  96.4952503 133.6314753 111.5504460  97.7694363
 133.6956080 112.4119291  97.3571760 133.5681873 110.9378462  97.0366721
 133.1067026 113.6227593 101.4167397 133.7339064 113.2404670 102.0304921
 132.2494945 113.4041795 101.7823089 143.5061134 124.0290568 103.0221132
 144.0501038 124.6420526 102.5276087 142.9247979 124.5870147 103.5388145
 141.7918647 127.1511286  94.1536160 141.6669787 126.3501026  93.6447106
 142.4497738 127.6457480  93.6650130 133.4126815 113.5060019  93.3313300
 132.6913401 114.1195986  93.1920774 134.2020071 114.0417783  93.2529946
 143.8553556 124.9520306  95.7815710 142.9083891 124.8325657  95.7094037
 144.2036329 124.0642804  95.8641972 136.2153129 110.8414445  99.6053952
 136.7387531 111.0876742 100.3680261 135.9965462 111.6734480  99.1857089
 140.8599989 124.7473022  91.9820062 140.7124951 123.8189730  92.1627632
 141.6853482 124.7693113  91.4977138 134.7262233 113.3991090  87.8400555
 135.0658306 113.9277011  87.1179163 135.1734354 113.7371496  88.6159121
 144.4634111 125.5701581  93.0684935 145.3880658 125.3644443  92.9309386
 144.2949414 125.3217982  93.9774277 137.4205674 111.7828140  97.2903623
 137.0802494 110.9835953  97.6924303 136.7144680 112.0829851  96.7180456
 138.0722146 108.8677453  95.7430946 138.8948215 108.3937931  95.6209836
 138.3160209 109.6467936  96.2429632 136.7130380 111.8965711  86.0393847
 137.4338743 112.2746964  85.5357564 136.0895684 112.6154588  86.1428825
 140.8561503 112.6010860  86.9752180 141.0725118 113.4835498  86.6741008
 140.3755570 112.2097074  86.2457822 135.5960725 115.5596573  93.5522924
 135.4505305 115.8736876  94.4447206 135.1185928 116.1781474  92.9993823
 137.4557107 112.5499121  93.6003814 137.4418676 111.6540215  93.2636112
 138.1729536 112.5569785  94.2342100 139.3083238 112.9836462  95.6456941
 139.0501016 113.9053532  95.6441272 138.7768279 112.5866896  96.3357405
 144.2529427 126.0887249  88.4247027 144.4266304 125.5233671  87.6720879
 144.7458318 126.8888144  88.2426517 130.0706387 118.1001918  96.4910585
 129.5259855 118.8761726  96.6230860 130.9485737 118.4472722  96.3329707
 136.8594003 111.4313502  88.8691384 136.9809915 110.5030148  89.0682271
 136.5696046 111.4452188  87.9569699 139.7285194 109.1168412  92.0058104
 139.7506891 109.1807745  91.0510083 140.1453253 108.2772921  92.1998610
 150.1068818 118.8523672  90.0437326 150.5499964 118.1030997  89.6456450
 149.2295328 118.8433808  89.6611058 145.2404599 125.4054013  85.5243925
 145.9355504 126.0260706  85.7431240 145.5827750 124.5549364  85.7996303
 130.8572409 117.2271814  99.3840742 130.1154145 117.3754449  99.9705373
 130.5365153 117.4880080  98.5207492 147.1396023 122.8553719  87.0531256
 147.6647347 123.1940991  86.3280576 147.0518375 121.9200734  86.8694390
 138.8016071 126.7687792  99.1821132 139.1103198 126.5236939 100.0543832
 139.5991553 126.9734431  98.6940003 138.8236683 128.9225702  91.4126509
 138.3841674 128.4302081  92.1059366 139.5744800 128.3798670  91.1718584
 131.3029022 125.1137243  91.4151137 132.1287042 124.8141015  91.0349780
 130.9523074 124.3444865  91.8640926 136.2710555 124.4663711  93.4848811
 135.6490565 123.8034416  93.1851038 136.9415422 124.4924843  92.8022458
 129.5037627 123.0323569  92.3740071 128.6669536 122.6045744  92.1924072
 129.4761273 123.2256013  93.3110862 136.3435083 112.9445499 103.0781317
 136.3923238 113.8207622 102.6959086 136.8857597 112.4022892 102.5052960
 146.8289929 123.4886622 102.3582454 146.0385472 123.4710761 101.8186953
 146.5923283 124.0274916 103.1131490 146.9487804 120.3379089  99.6715182
 146.9985809 120.1729096 100.6130705 146.8401727 119.4706348  99.2813063
 135.8324062 123.0167634  86.9607271 135.9812183 123.7003099  86.3073944
 136.6390506 122.9972724  87.4756727 144.2391566 116.3210017 100.9874489
 145.1401429 116.1816481 100.6958487 144.3139541 116.4864471 101.9272666
 138.5734371 113.6976871  99.8327675 137.7037681 113.9910437  99.5610264
 138.8093852 114.2817316 100.5534939 148.4506000 122.7576030  99.9157204
 148.1590809 123.1206011 100.7520665 147.8378132 122.0443038  99.7370536
 149.6501683 120.3228910  92.4359774 150.4848574 120.7618714  92.5997334
 149.7860812 119.8467563  91.6168020 146.6993189 117.8808645  98.3837262
 147.1747310 118.0736291  97.5756113 145.7758754 117.9367831  98.1380645
 133.5876695 119.0432812  87.9668340 133.3422737 118.1395142  88.1648550
 133.7572610 119.0449962  87.0247818 141.2773405 109.9156488  97.3493096
 141.7955349 110.6517515  97.0239584 140.9228538 110.2220482  98.1839855
 141.5285999 106.3356771  92.8693992 141.8087753 105.6679960  93.4954419
 142.3136606 106.5285866  92.3568656 139.3319468 125.5115765  84.4319019
 138.7593435 126.1305952  83.9789490 139.9052262 126.0615126  84.9658940
 145.3994858 114.7574405  96.6165567 146.3512281 114.8572503  96.6377791
 145.2298308 113.9652673  97.1263652 143.4209237 111.8429988  96.8024968
 142.8259169 112.1235001  96.1071457 143.1358934 112.3323889  97.5741709
 142.5516728 125.7952915  85.5627601 143.4847401 125.7298477  85.7660476
 142.4639940 126.6309182  85.1042133 145.1804744 125.1118785  82.5231548
 145.1018376 124.7778649  83.4167306 146.0014411 125.6040553  82.5223021
 147.8782936 117.9780525  95.7307867 147.8459256 117.0396525  95.9167551
 148.4883559 118.0564561  94.9973692 139.7166266 116.8476578  81.7735071
 140.6625371 116.7182786  81.8423489 139.3380511 116.1091239  82.2504499
 148.0277424 114.7691568  95.7766150 147.5116473 113.9850025  95.5896079
 148.9117373 114.4410285  95.9412670 145.6888151 108.5132584  91.7361963
 145.4912972 108.2047672  92.6205295 146.2987856 109.2394222  91.8659893
 153.6959485 119.0396531  94.8713904 154.4262874 118.7781819  95.4321607
 153.0866431 118.3025253  94.9115972 151.7774782 117.1804394  95.4688355
 151.0507946 117.0460359  94.8604847 151.3622069 117.4881223  96.2745073
 139.6004959 120.8994324 103.2335728 140.5207968 121.0772923 103.4275775
 139.5654542 119.9550369 103.0815427 137.9009184 114.7726554  81.7089956
 136.9940639 114.4759667  81.7852670 138.1785165 114.4756372  80.8424242
 128.8187124 116.0932917  92.1589003 128.4989908 115.2398225  91.8663377
 128.2720552 116.3081495  92.9146970 132.5967031 118.8095358  95.8758509
 132.8153041 119.7412466  95.8946543 133.0092805 118.4503333  96.6613313
 139.5171249 109.3163444  87.8634198 138.7071978 108.9710529  88.2389444
 140.2055666 109.0070987  88.4521809 141.4461798 108.3941490  89.4858494
 141.9992836 108.8136944  90.1448517 141.6831884 107.4677239  89.5281450
 137.4694897 114.3828564 105.2661258 137.3691624 115.3322921 105.1973349
 137.2516439 114.0546803 104.3937328 136.6707968 111.6313489  81.8501935
 137.5327132 111.9568387  82.1097753 136.8558312 110.8444985  81.3375001
 128.6875384 119.7135829  94.1282124 127.9938855 119.2989782  93.6152079
 129.4348375 119.7556365  93.5315543 144.8240605 110.5042016  88.9937158
 144.2439274 111.1626820  88.6115211 144.5576537 109.6819360  88.5824576
 143.2744171 109.9047073  91.1958479 143.7743949 110.0163608  90.3872798
 143.9179779 109.6008126  91.8359287 137.3326167 117.8125703 104.0826320
 136.8493249 118.6126063 104.2890209 137.4187106 117.8233648 103.1293764
 130.6012126 119.6454083  92.0048139 130.5782815 119.7441770  91.0530022
 130.9112763 120.4919233  92.3265305 133.2599504 121.7030238  96.1194754
 134.2142758 121.6714180  96.0524685 133.0612028 121.2420861  96.9344979
 133.8498886 120.2731354  98.6865551 134.6691775 120.7675432  98.7100388
 134.1235694 119.3563322  98.6583119 143.6065483 112.6642106  88.0493507
 142.7191338 112.9491757  87.8313701 144.0219472 112.5035869  87.2020784
 146.9580019 112.6888627  91.7647846 147.7340409 113.1785079  92.0372463
 146.2328153 113.1146681  92.2219715 149.3952577 113.4016246  92.8221787
 149.9897068 113.1611982  92.1115095 149.4679161 112.6823377  93.4495323
 131.6149733 127.2449857  93.1364951 131.4804201 126.4850258  92.5702949
 131.1981795 127.9690757  92.6693740 142.7508696 122.4286781  82.1441527
 143.4544546 122.6336783  82.7599182 142.0271345 122.9963543  82.4090610
 143.5806506 118.1796642  88.2643797 143.5241708 118.6365193  87.4251429
 144.1334849 117.4187326  88.0866640 147.3911312 113.9686374  89.0893916
 147.1348247 113.5683009  89.9202124 146.7664180 114.6830168  88.9644056
 151.7023650 116.7082447  91.5965208 151.1423208 116.7775636  92.3696770
 151.0967154 116.5323432  90.8764704 134.7718859 128.1419174  93.3483394
 134.6551243 129.0864607  93.2462084 133.9511305 127.8392736  93.7369193
 144.6595394 122.8669310  84.1939987 145.4940997 122.4350508  84.0117462
 144.4979736 122.6951324  85.1216881 144.3141286 119.3701423  85.5596326
 144.2590089 119.2045695  84.6184770 143.6887341 120.0777456  85.7158516
 129.1033801 114.6069488  99.3857748 129.7492664 114.0968441  99.8744973
 128.8950952 115.3438169  99.9601174 141.6287193 121.6750335 104.8849889
 142.4978353 121.8490987 104.5236524 141.1493944 122.4944752 104.7625618
 137.6237411 108.8709532  85.1381644 137.6116081 109.8151372  85.2949915
 138.5160833 108.6879678  84.8441106 135.7973373 128.7947436  96.5639322
 136.7000620 128.8271046  96.8805817 135.5710743 127.8647887  96.5785658
 137.5526975 127.5478423  93.2249401 136.6022606 127.5480284  93.1113773
 137.8559461 126.8011157  92.7085436 141.4389531 105.4652309  89.3927581
 140.6721926 104.9110795  89.5384264 141.8500236 105.5374178  90.2541733
 133.4431292 111.7537105 103.4832762 134.3062753 111.3973909 103.6936087
 132.8696702 111.4150999 104.1708167 153.2879669 133.3838961  94.2895163
 153.9258079 133.2645708  93.5858504 153.1700512 134.3319805  94.3483116
 150.0969375 133.3366389  94.2256688 149.7587886 133.2207454  93.3377223
 150.9659143 132.9357554  94.2057694 145.9556191 135.1901865  90.2153579
 145.3921056 135.0991802  89.4469867 145.8408586 134.3701770  90.6956072
 150.5789158 134.4901241 100.1842894 150.5677799 134.0954039  99.3123397
 150.7409797 133.7567313 100.7776665 143.5020623 136.6853057  93.0537800
 144.2941914 136.3443882  92.6384099 143.7417273 136.7948032  93.9739953
 151.5355749 138.8572833  85.5268044 150.8843729 139.4426914  85.1402058
 152.3300112 139.3879028  85.5863082 145.4611376 135.9461970  85.9255178
 146.2342252 135.3990957  85.7868054 145.8136775 136.8106220  86.1369640
 147.2996419 137.2738353  99.1322078 147.0086285 138.1783983  99.0168744
 147.9353403 137.3154880  99.8466147 148.2252626 134.6515201  95.7223437
 148.8216198 134.4271223  95.0080400 148.2827597 133.9099947  96.3248885
 147.7977654 132.1054636  83.5573628 148.0503175 131.5836158  82.7957091
 146.8602213 131.9420782  83.6600312 152.8420937 131.1090415  91.3648372
 153.6284026 130.6909838  91.0138789 153.1059641 132.0136507  91.5330020
 153.0131014 136.5463265  86.0637028 152.3776847 136.6197892  86.7757933
 152.6828421 137.1356864  85.3856108 158.2429364 131.0465648  92.2681350
 158.9754536 130.4764865  92.5019180 157.4868720 130.6587248  92.7087856
 147.5173943 134.0082742  85.7598003 147.4010201 133.3327646  86.4279088
 147.6276203 133.5215116  84.9430156 149.8605484 133.4692889  89.4644692
 149.4963691 132.9423510  90.1757614 150.7172600 133.0791359  89.2911178
 155.7654785 124.7587222  96.7275959 155.4338109 125.6282633  96.5037174
 155.1700398 124.4423506  97.4069989 149.5010971 128.4982789  84.4606041
 149.6685373 129.3663026  84.8276512 149.3108140 128.6610071  83.5367330
 152.2586304 136.9599768  96.1271871 151.9587027 137.8624807  96.0187679
 151.9137364 136.6931951  96.9793024 145.7098786 133.4113565  92.1608576
 144.7849282 133.2789779  92.3686268 145.9583199 134.1907784  92.6578518
 155.6583448 129.4782308  93.8069309 154.7500325 129.4097717  93.5128070
 155.6071044 129.9554253  94.6351134 149.4800192 130.9540447  85.4452708
 149.3599817 131.3997497  86.2838188 148.7852780 131.3025764  84.8866246
 143.0707597 133.0546838  92.9952365 143.1999978 133.3081317  93.9091777
 142.3905048 133.6474546  92.6757020 149.7324314 130.8971954 101.7504206
 148.9557648 131.4565874 101.7407071 150.3714877 131.3828737 102.2719076
 157.5245094 127.6798747  95.5847183 156.8819475 127.9731280  94.9386977
 157.0200023 127.5651667  96.3900379 155.1785258 131.4261920  86.2733042
 156.0903114 131.6589307  86.0980739 154.6694905 132.0098964  85.7108120
 147.9870686 133.7057407 101.3122173 148.7285370 134.2442451 101.0356997
 147.2807671 134.3323696 101.4693725 153.4626026 135.8486548  99.9094334
 153.8709382 135.4068958  99.1648967 152.7403287 135.2739175 100.1628527
 149.8157096 130.7859154  97.2827891 150.6618291 131.2098568  97.4262540
 149.7555733 130.1292779  97.9766455 153.7854840 136.4087738  93.6646623
 153.1563703 136.5733452  92.9622691 153.3980502 136.8229348  94.4357587
 152.9656541 128.4463523  98.9409065 152.7217473 129.2005583  98.4043341
 153.2416472 128.8248870  99.7756312 154.9195004 134.9902135  97.6186331
 155.1311899 135.6333895  96.9420712 154.8724752 134.1564452  97.1508261
 152.5221233 127.6019956  94.5222903 151.6605712 127.9001209  94.8139640
 152.5483667 127.8190355  93.5903935 149.3382802 136.1462146  90.9296708
 149.8021148 136.4249849  90.1401331 149.0739600 135.2445591  90.7469799
 146.2306883 135.6933628  93.8676472 146.8008240 136.1220896  93.2293956
 146.8214995 135.4116213  94.5660657 148.2751688 132.2685299  87.7386274
 148.9775732 132.7206342  88.2060200 147.9432317 131.6269118  88.3666167
 146.7232050 130.8597055 102.1137483 146.0930710 131.5413336 102.3472880
 146.6168138 130.7480137 101.1690621 142.0177022 130.5268851  93.0403407
 141.2276076 130.7826380  92.5643518 142.5088270 131.3417189  93.1455448
 156.0340832 137.8674091  95.7908688 156.8558275 137.4654278  95.5091370
 156.0303235 137.7642325  96.7424804 143.9691768 130.8913431  89.9986884
 143.1722931 131.0032125  90.5170380 143.7417360 131.2300083  89.1327774
 149.7997435 137.4158134  97.9469398 149.8641868 137.8778541  98.7827570
 149.0908359 136.7855499  98.0751708 140.3014725 130.7799342  95.4718398
 140.5522764 131.6646352  95.7375974 140.8374274 130.6003943  94.6993490
 149.5145453 139.0826241  87.8148379 149.3791128 139.9277777  88.2433227
 150.0555265 139.2845519  87.0514313 146.0012792 125.1617821 104.4762734
 145.6079738 124.6084020 105.1510378 146.8178933 125.4728400 104.8669252
 142.9674850 136.6001679  88.3876304 143.4799371 137.3944930  88.5381869
 143.6197563 135.9027970  88.3209905 144.7769735 139.7167436  90.4699057
 144.9536363 140.6385400  90.2820041 145.5726568 139.4025855  90.8993437
 148.9180753 126.5775700 102.0682991 149.6590467 127.1782853 101.9887453
 149.1498676 125.8353338 101.5101033 144.0622091 131.7632068 100.3461220
 143.9475607 130.8617325 100.6468319 143.2066609 132.0095764  99.9946037
 151.1413929 139.7049808 101.9448721 150.6977783 138.9186186 101.6269625
 151.8031143 139.8928958 101.2792612 145.9001050 141.2345609  96.4709399
 146.4508475 141.1062673  95.6986393 145.0612526 141.5340499  96.1204292
 149.6968221 137.4996737 100.8153631 150.2296558 136.7385025 100.5852938
 149.1682303 137.2070389 101.5577785 152.8637916 122.6056803  96.3447272
 152.5202186 123.4958445  96.2686383 153.2316879 122.4158461  95.4816857
 140.9323767 134.9290334  89.1635874 141.7698989 135.3387342  88.9469582
 141.1102035 133.9889776  89.1336068 152.8288199 132.5965414  84.8519707
 152.3134823 133.3670019  85.0908095 152.5565508 131.9230551  85.4752769
 150.4135310 127.4415115  89.9104946 149.5576906 127.0521966  89.7310584
 150.8262262 127.5207076  89.0504731 151.9434457 124.9761458  94.3096506
 151.4399252 124.9391594  93.4964311 152.2365064 125.8854201  94.3693162
 148.1877343 125.0600188  93.3162687 149.0530339 124.8642997  92.9568577
 148.2554852 124.8310540  94.2432044 157.8022473 135.3497769  86.7872881
 157.0251916 135.0108929  86.3428043 158.4813954 135.3550392  86.1127846
 152.6174502 130.4692506  86.6779489 152.3124638 130.7838656  87.5289632
 153.5704944 130.5473926  86.7206822 151.0620934 136.6282730  88.3272443
 150.5342296 135.8935489  88.0145680 150.5608437 137.4057406  88.0812411
 156.0413780 134.8231750  93.4439489 155.3837455 135.5131012  93.5319617
 156.8454179 135.2128182  93.7873475 145.7939662 127.2902396  90.6879054
 146.3683414 127.0677578  89.9552247 146.3810644 127.3591091  91.4407655
 154.8519239 133.1776123  91.4943431 155.3651121 133.8106115  91.9965140
 155.5020463 132.5777318  91.1286791 146.1209249 129.3206857  84.7074939
 145.2846561 129.6581544  85.0284214 145.9814018 129.1855837  83.7702076
 148.0962329 124.1643645  89.4154123 147.4426742 123.8492662  88.7910738
 148.0542804 123.5419385  90.1413946 149.2073534 134.4462940  81.3307416
 148.3000596 134.2152194  81.5298565 149.7044566 133.6500559  81.5181397
 151.3300070 130.6525579  93.7401771 150.4122631 130.8740526  93.5823459
 151.7460213 130.7271889  92.8813478 152.1135118 132.0516994  88.8704451
 152.8606937 132.5638391  88.5611573 152.3826707 131.7301047  89.7308845
 150.3861768 134.5475535  85.8531406 149.4772987 134.2634568  85.9503875
 150.4156852 134.9674613  84.9934713 155.6181035 138.1582124  89.6222573
 155.1643362 137.3173034  89.6787764 154.9875002 138.7943523  89.9597353
 154.5613955 129.0874110  90.8523241 153.8236712 128.5751497  91.1833483
 154.8140728 128.6474492  90.0406518 154.6625582 121.8650362  91.4465010
 154.9684459 121.0047726  91.1590925 155.3878187 122.4567983  91.2464004
 140.9549938 132.2681049  89.8346608 140.7574338 131.6750410  89.1097674
 140.3996602 131.9633259  90.5522547 148.9346662 132.1604156  91.9541201
 148.9895272 131.2077992  91.8783678 148.1237864 132.3163595  92.4382499
 150.0837856 136.0884279  83.1919484 149.6457285 135.3720138  82.7325122
 150.8248296 136.3160393  82.6304576 146.8739022 130.7781215  89.7131580
 146.0606887 131.0775386  90.1196772 147.3698016 130.3836904  90.4306062
 149.0247600 140.7738972  91.6465845 148.9823778 140.9999819  90.7174377
 149.9410298 140.5402347  91.7951646 152.4713233 131.2423040  98.5446474
 152.8262621 131.4694513  99.4040940 153.1185365 131.5741417  97.9223729
 158.2010970 134.3641476  89.2495803 158.0628869 134.5543072  88.3216992
 157.8447189 135.1260858  89.7063854 146.3653096 128.3499571  95.3292815
 147.0052476 128.2088330  94.6315778 145.5330627 128.0634084  94.9531417
 147.1413400 137.6502001  91.4427807 147.9353999 137.1552321  91.2410382
 146.4305093 137.1219864  91.0795513 151.9608245 140.0320097  95.7940175
 152.0145267 140.6011033  96.5617891 151.0923026 140.2021982  95.4294212
 143.4496164 131.7945083  87.5187560 142.5193752 131.7329538  87.7357522
 143.5453636 131.2721036  86.7224201 143.3681713 128.3199896  90.1065802
 143.6288530 129.2345229  89.9974962 144.1898885 127.8524338  90.2562414
 144.8406638 129.7337653  97.2764626 145.5129692 129.5255015  96.6277275
 144.0136425 129.5359739  96.8369858 150.7432210 126.3599594  99.2930287
 150.0960125 127.0589544  99.1994763 151.5133226 126.7935738  99.6606535
 154.1511008 136.6248446 102.3680840 153.9996515 136.3958998 101.4510924
 154.1415688 137.5819047 102.3812185 150.9196345 134.1980359  97.3527107
 151.8488405 134.3491518  97.1796074 150.4987375 134.2864380  96.4975753
 149.7184676 138.2231023  95.1225644 149.5795762 137.8549808  95.9951582
 148.9299273 138.7378663  94.9509602 151.2689892 137.6012626  92.5114482
 150.9339724 137.5613396  93.4072132 150.7693837 136.9357342  92.0384892
 145.2434135 133.0080256  98.0367063 145.1053933 132.2760495  98.6378602
 146.1539059 132.9189156  97.7551251 154.2049083 134.9468660  82.7851542
 153.5878254 134.2215488  82.6884594 153.7365572 135.7078021  82.4418616
 147.8716436 132.7200215  97.5250743 148.5816055 132.0793407  97.4837361
 147.8285744 132.9713110  98.4476924 146.5845370 129.7065433  99.3446382
 146.0482727 129.2556172  99.9967979 145.9962079 129.8411342  98.6016847
 145.9947629 129.1654085  81.9072846 145.1177095 129.0442885  81.5435093
 146.4705382 128.3740163  81.6551735 155.8620622 137.6207153  98.6771302
 154.9747401 137.2833074  98.7997701 156.4319173 136.8890184  98.9140067
 137.5149769 133.9531244  92.0014353 138.2020809 133.6392974  91.4135369
 137.3597898 134.8572609  91.7281605 142.3184491 128.8421441  96.4299377
 142.2342680 128.2347110  95.6949787 141.4967198 129.3330459  96.4308873
 149.1811555 141.5180375  89.1535367 148.3979077 142.0602055  89.2473591
 149.8804300 142.0354355  89.5529608 152.4908205 127.3275004  91.7969572
 152.9876905 126.5744967  91.4770642 151.7195187 127.3639321  91.2312781
 153.5737986 136.0846692  89.3707995 152.6394265 136.2048154  89.2012700
 153.7514654 135.1819158  89.1068005 149.0743174 129.4692387  91.5241257
 148.7040961 128.9163428  92.2122162 149.5702266 128.8650521  90.9716257
 156.9610537 131.9264011  89.9058030 157.4270989 132.7592002  89.8318332
 157.4118038 131.4608992  90.6103288 146.9032373 139.9289882  98.6196275
 147.6041832 140.5626365  98.7725669 146.4327488 140.2704614  97.8591914
 155.0286768 138.2707832  86.9044182 155.3046612 138.1564427  87.8138056
 154.1591267 137.8725317  86.8656355 154.9327200 124.2944598  93.9448931
 154.0190280 124.5248825  94.1131138 155.3620301 124.3783042  94.7962963
 154.7033659 132.4834490  96.4448825 154.0505109 132.7310397  95.7901278
 155.0814038 131.6698628  96.1111302 150.7521232 133.2254301 102.9314862
 150.0761869 133.1248430 103.6017237 151.5748865 133.0693515 103.3950859
 142.5000091 139.4626237  95.5527377 143.0853527 138.7169925  95.6855281
 142.3024929 139.7730194  96.4364041 145.3538746 142.4977485  90.5689820
 144.6849121 142.9823612  90.0853860 145.2151616 142.7446705  91.4833198
 137.0917745 132.0331838  94.2731820 137.1301845 131.4995428  95.0668938
 136.5858038 131.5067043  93.6542798 144.4708508 126.8796378  97.7694363
 144.5349834 127.7411209  97.3571760 144.4075628 126.2670380  97.0366721
 143.9460780 128.9519511 101.4167397 144.5732819 128.5696588 102.0304921
 143.0888699 128.7333713 101.7823089 140.7226323 130.7595940  87.3485752
 141.0179764 129.8506618  87.2952805 139.8214359 130.7383679  87.0266754
 144.2520570 128.8351936  93.3313300 143.5307156 129.4487904  93.1920774
 145.0413826 129.3709701  93.2529946 147.0546883 126.1706363  99.6053952
 147.5781285 126.4168659 100.3680261 146.8359217 127.0026398  99.1857089
 142.4514165 128.4410037  87.4725077 142.1226871 127.5607416  87.2900183
 142.8053535 128.3857706  88.3601466 151.6993743 140.0764940  91.9820062
 151.5518706 139.1481648  92.1627632 152.5247237 140.0985031  91.4977138
 145.5655988 128.7283007  87.8400555 145.9052060 129.2568928  87.1179163
 146.0128108 129.0663413  88.6159121 148.2599428 127.1120058  97.2903623
 147.9196249 126.3127871  97.6924303 147.5538435 127.4121769  96.7180456
 148.9115900 124.1969370  95.7430946 149.7341970 123.7229849  95.6209836
 149.1553964 124.9759854  96.2429632 147.5524135 127.2257629  86.0393847
 148.2732497 127.6038882  85.5357564 146.9289439 127.9446506  86.1428825
 151.6955258 127.9302778  86.9752180 151.9118872 128.8127416  86.6741008
 151.2149325 127.5388991  86.2457822 146.4354479 130.8888491  93.5522924
 146.2899060 131.2028794  94.4447206 145.9579683 131.5073391  92.9993823
 148.2950862 127.8791039  93.6003814 148.2812431 126.9832132  93.2636112
 149.0123290 127.8861703  94.2342100 150.1476993 128.3128379  95.6456941
 149.8894770 129.2345450  95.6441272 149.6162033 127.9158814  96.3357405
 140.9100141 133.4293835  96.4910585 140.3653609 134.2053643  96.6230860
 141.7879491 133.7764640  96.3329707 147.6987758 126.7605419  88.8691384
 147.8203669 125.8322065  89.0682271 147.4089800 126.7744105  87.9569699
 150.5678948 124.4460330  92.0058104 150.5900645 124.5099663  91.0510083
 150.9847007 123.6064838  92.1998610 141.6966163 132.5563732  99.3840742
 140.9547899 132.7046367  99.9705373 141.3758907 132.8171997  98.5207492
 142.1422777 140.4429160  91.4151137 142.9680797 140.1432932  91.0349780
 141.7916829 139.6736783  91.8640926 147.1104310 139.7955629  93.4848811
 146.4884319 139.1326334  93.1851038 147.7809177 139.8216761  92.8022458
 140.3431382 138.3615487  92.3740071 139.5063290 137.9337661  92.1924072
 140.3155027 138.5547930  93.3110862 147.1828837 128.2737417 103.0781317
 147.2316993 129.1499539 102.6959086 147.7251352 127.7314810 102.5052960
 157.7881558 135.6671006  99.6715182 157.8379563 135.5021014 100.6130705
 157.6795481 134.7998265  99.2813063 146.6717817 138.3459552  86.9607271
 146.8205937 139.0295016  86.3073944 147.4784260 138.3264642  87.4756727
 155.0785321 131.6501934 100.9874489 155.9795183 131.5108399 100.6958487
 155.1533295 131.8156389 101.9272666 149.4128126 129.0268789  99.8327675
 148.5431435 129.3202355  99.5610264 149.6487606 129.6109234 100.5534939
 157.5386943 133.2100562  98.3837262 158.0141065 133.4028209  97.5756113
 156.6152509 133.2659748  98.1380645 144.4270450 134.3724730  87.9668340
 144.1816492 133.4687060  88.1648550 144.5966364 134.3741880  87.0247818
 152.1167160 125.2448406  97.3493096 152.6349104 125.9809433  97.0239584
 151.7622292 125.5512399  98.1839855 143.6966097 130.1053087  85.4654501
 143.0035342 130.1797442  84.8094537 143.4517849 129.3413431  85.9876018
 152.3679754 121.6648689  92.8693992 152.6481508 120.9971878  93.4954419
 153.1530361 121.8577784  92.3568656 150.1713222 140.8407682  84.4319019
 149.5987189 141.4597870  83.9789490 150.7446016 141.3907044  84.9658940
 156.2388612 130.0866323  96.6165567 157.1906035 130.1864420  96.6377791
 156.0692063 129.2944591  97.1263652 154.2602992 127.1721906  96.8024968
 153.6652924 127.4526918  96.1071457 153.9752688 127.6615807  97.5741709
 150.5560021 132.1768495  81.7735071 151.5019126 132.0474703  81.8423489
 150.1774266 131.4383157  82.2504499 156.5281905 123.8424501  91.7361963
 156.3306727 123.5339589  92.6205295 157.1381611 124.5686140  91.8659893
 150.4398713 136.2286241 103.2335728 151.3601723 136.4064840 103.4275775
 150.4048296 135.2842287 103.0815427 148.7402938 130.1018472  81.7089956
 147.8334393 129.8051584  81.7852670 149.0178919 129.8048290  80.8424242
 139.6580878 131.4224835  92.1589003 139.3383663 130.5690143  91.8663377
 139.1114307 131.6373413  92.9146970 143.4360786 134.1387276  95.8758509
 143.6546796 135.0704384  95.8946543 143.8486560 133.7795250  96.6613313
 150.3565004 124.6455361  87.8634198 149.5465732 124.3002446  88.2389444
 151.0449421 124.3362905  88.4521809 152.2855552 123.7233408  89.4858494
 152.8386591 124.1428862  90.1448517 152.5225638 122.7969156  89.5281450
 148.3088651 129.7120482 105.2661258 148.2085378 130.6614839 105.1973349
 148.0910193 129.3838721 104.3937328 147.5101723 126.9605407  81.8501935
 148.3720887 127.2860305  82.1097753 147.6952067 126.1736903  81.3375001
 139.5269138 135.0427746  94.1282124 138.8332610 134.6281699  93.6152079
 140.2742129 135.0848283  93.5315543 155.6634359 125.8333933  88.9937158
 155.0833028 126.4918737  88.6115211 155.3970292 125.0111278  88.5824576
 154.1137925 125.2338991  91.1958479 154.6137704 125.3455525  90.3872798
 154.7573533 124.9300044  91.8359287 148.1719921 133.1417621 104.0826320
 147.6887003 133.9417981 104.2890209 148.2580860 133.1525565 103.1293764
 141.4405881 134.9746000  92.0048139 141.4176569 135.0733688  91.0530022
 141.7506517 135.8211151  92.3265305 144.0993259 137.0322155  96.1194754
 145.0536512 137.0006098  96.0524685 143.9005782 136.5712779  96.9344979
 144.6892641 135.6023271  98.6865551 145.5085530 136.0967350  98.7100388
 144.9629449 134.6855239  98.6583119 154.4459237 127.9934024  88.0493507
 153.5585092 128.2783674  87.8313701 154.8613226 127.8327787  87.2020784
 157.7973773 128.0180545  91.7647846 158.5734163 128.5076997  92.0372463
 157.0721907 128.4438599  92.2219715 142.4543488 142.5741775  93.1364951
 142.3197956 141.8142176  92.5702949 142.0375550 143.2982675  92.6693740
 153.5902451 137.7578698  82.1441527 154.2938301 137.9628701  82.7599182
 152.8665099 138.3255460  82.4090610 154.4200261 133.5088560  88.2643797
 154.3635462 133.9657111  87.4251429 154.9728603 132.7479244  88.0866640
 158.2305067 129.2978291  89.0893916 157.9742001 128.8974927  89.9202124
 157.6057935 130.0122085  88.9644056 145.6112613 143.4711092  93.3483394
 145.4944998 144.4156524  93.2462084 144.7905060 143.1684653  93.7369193
 155.4989148 138.1961227  84.1939987 156.3334752 137.7642426  84.0117462
 155.3373491 138.0243241  85.1216881 155.1535040 134.6993341  85.5596326
 155.0983844 134.5337612  84.6184770 154.5281095 135.4069374  85.7158516
 139.9427555 129.9361405  99.3857748 140.5886419 129.4260359  99.8744973
 139.7344706 130.6730087  99.9601174 152.4680947 137.0042253 104.8849889
 153.3372107 137.1782905 104.5236524 151.9887699 137.8236669 104.7625618
 148.4631166 124.2001450  85.1381644 148.4509835 125.1443290  85.2949915
 149.3554588 124.0171595  84.8441106 146.6367128 144.1239354  96.5639322
 147.5394374 144.1562964  96.8805817 146.4104498 143.1939805  96.5785658
 148.3920730 142.8770340  93.2249401 147.4416361 142.8772202  93.1113773
 148.6953216 142.1303075  92.7085436 152.2783285 120.7944226  89.3927581
 151.5115681 120.2402713  89.5384264 152.6893990 120.8666095  90.2541733
 144.2825046 127.0829022 103.4832762 145.1456508 126.7265827 103.6936087
 143.7090457 126.7442917 104.1708167  59.2406156 -10.4371353  76.9398886
  58.6771021 -10.5281416  76.1715174  59.1258551 -11.2571449  77.4201378
  56.7870588  -8.9420162  79.7783106  57.5791880  -9.2829337  79.3629406
  57.0267238  -8.8325187  80.6985260  64.8205715  -6.7700386  72.2513351
  64.1693694  -6.1846305  71.8647364  65.6150077  -6.2394191  72.3108388
  58.7461342  -9.6811249  72.6500485  59.5192218 -10.2282261  72.5113361
  59.0986741  -8.8166999  72.8614946  60.5846384  -8.3534866  85.8567384
  60.2936250  -7.4489235  85.7414051  61.2203369  -8.3118339  86.5711454
  66.2980980  -9.0809954  72.7882335  65.6626813  -9.0075327  73.5003240
  65.9678386  -8.4916355  72.1101414  65.5436269  -8.6673451  82.8517178
  65.2436993  -7.7648412  82.7432985  65.1987329  -8.9341268  83.7038331
  56.3557562 -12.5726380  79.7197672  56.4849943 -12.3191901  80.6337083
  55.6755013 -11.9798672  79.4002327  60.5257049  -1.9029130  75.8188146
  60.4481079  -0.9521305  75.8976626  59.9218693  -2.2483258  76.4763072
  62.6232767  -9.4811072  77.6542015  63.0871113  -9.2023369  76.8646638
  62.3589566 -10.3827628  77.4715106  59.5156849  -9.9339591  80.5921778
  60.0858206  -9.5052323  79.9539263  60.1064960 -10.2157006  81.2905964
  63.0847400  -8.2115085  84.6714705  63.1491833  -7.7494678  85.5072877
  62.3758324  -8.8417720  84.7997015  62.7995418  -6.5446977  74.5393685
  62.6641093  -5.6995442  74.9678533  63.3405231  -6.3427700  73.7759619
  56.2524816  -9.0271539  75.1121611  56.7649336  -8.2328289  75.2627175
  56.9047528  -9.7245249  75.0455212  58.0619700  -5.9105783  77.1944364
  58.2386329  -4.9887818  77.0065348  58.8576534  -6.2247364  77.6238743
  64.4263895  -5.9223411  88.6694028  63.9827749  -6.7087032  88.3514932
  65.0881108  -5.7344260  88.0037918  59.1851016  -4.3927609  83.1954706
  59.7358441  -4.5210546  82.4231700  58.3462492  -4.0932720  82.8449599
  66.5245133  -5.6420611  86.6975429  66.5063608  -4.8211730  86.2055698
  67.4465053  -5.7666536  86.9225570  62.9818187  -8.1276482  87.5398937
  63.5146524  -8.8888193  87.3098245  62.4532268  -8.4202830  88.2823092
  54.2173732 -10.6982885  75.8881181  55.0548954 -10.2885877  75.6714889
  54.3952000 -11.6383443  75.8581375  64.3470899  -8.9990489  75.0517749
  63.8192261  -9.7337729  74.7390987  63.8458402  -8.2215813  74.8057717
  65.3991579  -2.4712772  70.9749408  64.7253277  -2.1681075  71.5834366
  65.7857400  -1.6683691  70.6254865  68.9031000  -7.4691094  76.3467880
  68.4493328  -8.3100185  76.4033070  68.2724967  -6.8329696  76.6842660
  67.3463940  -5.6314598  77.2817698  67.6386914  -5.0709541  76.5630064
  67.8562560  -5.3386037  78.0370857  63.3687821  -9.5388940  69.9164791
  62.9307251 -10.2553081  69.4570428  64.1098262  -9.3112825  69.3549882
  62.3097565  -4.8534247  78.3711151  62.2673744  -4.6273400  77.4419683
  63.2260264  -5.0870872  78.5196952  60.4263366  -7.9771218  78.1673114
  61.2203964  -8.4720897  77.9655689  59.7155058  -8.5053354  77.8040819
  65.2458210  -5.5953122  82.5185482  65.2995232  -5.0262186  83.2863197
  64.3772992  -5.4251237  82.1539519  63.0034642  -7.4042196  81.8470951
  62.8645727  -7.7723411  82.7196889  62.2149238  -6.8894556  81.6754909
  63.5982794  -2.3033099  73.1896488  63.7734549  -2.7745056  74.0042110
  62.9115582  -1.6767333  73.4177748  64.5539857  -8.0260593  79.2359789
  64.2189689  -8.0659823  80.1317439  64.0543803  -8.6915877  78.7630199
  69.1453180  -5.9705650  87.1702629  69.0865726  -6.6546430  86.5033212
  69.5472699  -5.2286660  86.7183255  58.1643879   0.8456264  79.9636348
  58.4040477   1.4774788  80.6415366  57.3213075   0.4944304  80.2501707
  50.7999735 -11.6741975  78.7259660  51.4870774 -11.9880245  78.1380675
  50.6447863 -10.7700610  78.4526911  62.6771741  -3.3464614  82.3677852
  62.6041912  -2.5409642  82.8797156  62.2349134  -3.1472648  81.5425873
  62.4661520  -4.1092844  75.8780673  61.6829042  -3.5671164  75.9718898
  63.1654266  -3.5918864  76.2774914  65.1370424  -3.4477780  84.5236010
  65.8498397  -2.8130315  84.4511912  64.6460453  -3.3513914  83.7076012
  60.1882338  -5.6983336  85.3441581  60.8891797  -5.0646853  85.4970975
  59.7177453  -5.3568605  84.5837220  68.3136734  -7.3565387  73.6289488
  68.5896578  -7.4708792  74.5383362  67.4441232  -7.7547902  73.5901661
  64.9490798  -3.1079036  77.2722302  65.1313192  -3.9257380  77.7350054
  65.7723784  -2.8911344  76.8347192  65.2832963  -4.1810851  74.5337350
  65.8120730  -4.6918396  73.9207512  65.5461183  -4.4968320  75.3982883
  55.7850056  -6.1646981  82.2772684  56.3703493  -6.9103293  82.4100588
  55.5874894  -5.8543025  83.1609348  58.6388711  -3.1295734  77.2935126
  57.9699086  -2.6449606  76.8099166  58.5001581  -2.8826514  78.2078505
  62.7793980  -1.0951990  83.8917785  63.3312288  -0.9320369  84.6566870
  63.1200173  -0.5047553  83.2197809  67.6304854  -6.2690733  89.7466439
  68.1744758  -5.6560775  89.2521394  67.0491699  -5.7111155  90.2633452
  65.9162367  -3.1470015  80.8781467  65.7913506  -3.9480275  80.3692412
  66.5741458  -2.6523822  80.3895437  67.9797275  -5.3460995  82.5061017
  67.0327611  -5.4655644  82.4339344  68.3280049  -6.2338497  82.5887278
  64.9843709  -5.5508279  78.7065369  64.8368671  -6.4791571  78.8872939
  65.8097202  -5.5288188  78.2222444  68.5877831  -4.7279720  79.7930242
  69.5124378  -4.9336859  79.6554693  68.4193134  -4.9763319  80.7019583
  68.3773147  -4.2094052  75.1492333  68.5510024  -4.7747630  74.3966186
  68.8702038  -3.4093158  74.9671823  54.1950107 -12.1979383  83.2155892
  53.6503575 -11.4219575  83.3476166  55.0729456 -11.8508579  83.0575014
  69.3648319  -4.8927288  72.2489232  70.0599224  -4.2720595  72.4676546
  69.7071469  -5.7431937  72.5241609  54.9816128 -13.0709487  86.1086049
  54.2397864 -12.9226852  86.6950679  54.6608873 -12.8101222  85.2452798
  62.9259791  -3.5293509  85.9066439  63.2346918  -3.7744362  86.7789139
  63.7235273  -3.3246870  85.4185309  62.9480403  -1.3755599  78.1371816
  62.5085393  -1.8679221  78.8304672  63.6988520  -1.9182632  77.8963891
  55.4272742  -5.1844058  78.1396444  56.2530762  -5.4840287  77.7595087
  55.0766794  -5.9536436  78.5886232  60.3954275  -5.8317590  80.2094117
  59.7734285  -6.4946885  79.9096345  61.0659142  -5.8056458  79.5267765
  53.6281347  -7.2657732  79.0985377  52.7913255  -7.6935558  78.9169378
  53.6004993  -7.0725289  80.0356168  70.9533648  -6.8094679  89.0827760
  70.1629192  -6.8270540  88.5432260  70.7167003  -6.2706385  89.8376797
  59.9567782  -7.2813667  73.6852578  60.1055903  -6.5978202  73.0319250
  60.7634226  -7.3008577  74.2002033  57.7120415 -11.2548489  74.6913647
  57.4666457 -12.1586159  74.8893857  57.8816330 -11.2531339  73.7493125
  63.4563188  -4.7865536  71.1564325  62.8837155  -4.1675349  70.7034797
  64.0295981  -4.2366175  71.6904247  66.6760447  -4.5028386  72.2872907
  67.6091121  -4.5682825  72.4905783  66.5883660  -3.6672119  71.8287440
  69.3048464  -5.1862516  69.2476855  69.2262096  -5.5202652  70.1412613
  70.1258131  -4.6940748  69.2468327  56.7210751 -11.4885943  82.6003816
  56.9396761 -10.5568835  82.6191850  57.1336525 -11.8477968  83.3858620
  52.8119104 -10.5845472  80.8527431  52.1182575 -10.9991520  80.3397385
  53.5592095 -10.5424936  80.2560850  54.7255846 -10.6527219  78.7293446
  54.7026534 -10.5539531  77.7775329  55.0356483  -9.8062068  79.0510612
  57.3843224  -8.5951064  82.8440060  58.3386478  -8.6267121  82.7769992
  57.1855748  -9.0560440  83.6590286  57.9742606 -10.0249948  85.4110858
  58.7935495  -9.5305869  85.4345695  58.2479414 -10.9417979  85.3828425
  55.7393453  -3.0531444  79.8610258  55.6047921  -3.8131043  79.2948256
  55.3225515  -2.3290544  79.3939047  66.8752416  -7.8694521  68.8686833
  67.5788266  -7.6644518  69.4844489  66.1515065  -7.3017759  69.1335917
  58.8962579  -2.1562127  80.0728701  58.7794963  -1.2116695  79.9707391
  58.0755025  -2.4588565  80.4614500  68.7839113  -7.4311991  70.9185293
  69.6184717  -7.8630793  70.7362768  68.6223456  -7.6029978  71.8462188
  65.7530913  -8.6230966  91.6095195  66.6222072  -8.4490314  91.2481830
  65.2737664  -7.8036549  91.4870925  59.9217093  -1.5033865  83.2884629
  60.8244340  -1.4710255  83.6051124  59.6954463  -2.4333414  83.3030965
  61.6770695  -2.7502879  79.9494708  60.7266326  -2.7501017  79.8359080
  61.9803181  -3.4970144  79.4330742  77.4123388   3.0857660  81.0140470
  78.0501798   2.9664407  80.3103810  77.2944231   4.0338504  81.0728422
  74.2213095   3.0385088  80.9501995  73.8831606   2.9226153  80.0622530
  75.0902863   2.6376253  80.9303001  70.0799910   4.8920564  76.9398886
  69.5164776   4.8010501  76.1715174  69.9652305   4.0720469  77.4201378
  74.7032878   4.1919940  86.9088200  74.6921518   3.7972738  86.0368704
  74.8653517   3.4586012  87.5021972  67.6264342   6.3871756  79.7783106
  68.4185634   6.0462581  79.3629406  67.8660993   6.4966731  80.6985260
  75.6599469   8.5591532  72.2513351  75.0087449   9.1445612  71.8647364
  76.4543832   9.0897727  72.3108388  69.5855096   5.6480669  72.6500485
  70.3585972   5.1009656  72.5113361  69.9380495   6.5124918  72.8614946
  71.4240139   6.9757051  85.8567384  71.1330005   7.8802682  85.7414051
  72.0597123   7.0173579  86.5711454  72.3496346   4.3533900  82.4468744
  72.9459918   4.1289922  81.7325707  72.4071317   3.6118645  83.0494192
  71.9221374   1.8073335  70.2818935  72.1746895   1.2854857  69.5202398
  70.9845933   1.6439481  70.3845619  76.9664657   0.8109114  78.0893678
  77.7527746   0.3928537  77.7384095  77.2303361   1.7155206  78.2575327
  77.1374734   6.2481964  72.7882335  76.5020567   6.3216590  73.5003240
  76.8072141   6.8375563  72.1101414  82.3673084   0.7484347  78.9926657
  83.0998256   0.1783564  79.2264486  81.6112440   0.3605947  79.4333162
  71.6417663   3.7101441  72.4843310  71.5253921   3.0346345  73.1524394
  71.7519923   3.2233815  71.6675463  73.9849204   3.1711588  76.1889999
  73.6207411   2.6442209  76.9002921  74.8416320   2.7810057  76.0156485
  73.6254691  -1.7998512  71.1851348  73.7929093  -0.9318276  71.5521819
  73.4351860  -1.6371230  70.2612637  76.3830024   6.6618467  82.8517178
  76.0830747   7.5643506  82.7432985  76.0381083   6.3950650  83.7038331
  69.8342505   3.1132264  78.8853882  68.9093002   2.9808478  79.0931574
  70.0826919   3.8926483  79.3823825  79.7827168  -0.8198993  80.5314615
  78.8744045  -0.8883584  80.2373376  79.7314764  -0.3427048  81.3596441
  73.6043912   0.6559146  72.1698014  73.4843537   1.1016196  73.0083495
  72.9096500   1.0044463  71.6111553  67.1951316   2.7565537  79.7197672
  67.3243698   3.0100016  80.6337083  66.5148768   3.3493245  79.4002327
  71.3650804  13.4262787  75.8188146  71.2874833  14.3770612  75.8976626
  70.7612447  13.0808660  76.4763072  73.8568033   0.5990653  88.4749513
  73.0801368   1.1584573  88.4652377  74.4958597   1.0847436  88.9964383
  81.6488814  -2.6182554  82.3092489  81.0063194  -2.3250021  81.6632284
  81.1443743  -2.7329634  83.1145686  79.3028978   1.1280619  72.9978349
  80.2146834   1.3608005  72.8226046  78.7938625   1.7117663  72.4353427
  72.1114406   3.4076106  88.0367480  72.8529090   3.9461150  87.7602303
  71.4051391   4.0342395  88.1939031  77.5869745   5.5505247  86.6339641
  77.9953101   5.1087657  85.8894273  76.8647007   4.9757874  86.8873834
  73.9400815   0.4877853  84.0073198  74.7862011   0.9117267  84.1507847
  73.8799453  -0.1688522  84.7011761  77.9098560   6.1106437  80.3891930
  77.2807423   6.2752151  79.6867998  77.5224222   6.5248047  81.1602894
  81.7887792   7.0460875  77.7436294  81.1038830   7.4259776  77.1933327
  81.8731641   7.6556202  78.4768241  77.0900261  -1.8517778  85.6654372
  76.8461193  -1.0975718  85.1288647  77.3660191  -1.4732431  86.5001619
  79.0438724   4.6920834  84.3431637  79.2555619   5.3352594  83.6666018
  78.9968472   3.8583151  83.8753567  76.6464953  -2.6961345  81.2468209
  75.7849432  -2.3980092  81.5384947  76.6727387  -2.4790946  80.3149242
  73.4626522   5.8480845  77.6542015  73.9264868   6.1268548  76.8646638
  73.1983320   4.9464290  77.4715106  70.3550603   5.3952327  80.5921778
  70.9251960   5.8239595  79.9539263  70.9458715   5.1134911  81.2905964
  72.3995408   1.9703998  74.4631580  73.1019451   2.4225041  74.9305507
  72.0676037   1.3287816  75.0911473  70.8475770   0.5615754  88.8382790
  70.2174430   1.2432035  89.0718186  70.7411857   0.4498836  87.8935928
  66.1420742   0.2287550  79.7648714  65.3519796   0.4845079  79.2888824
  66.6331989   1.0435888  79.8700754  80.1584552   7.5692789  82.5153995
  80.9801995   7.1672977  82.2336676  80.1546954   7.4661024  83.4670110
  68.0935487   0.5932130  76.7232190  67.2966651   0.7050824  77.2415686
  67.8661080   0.9318782  75.8573081  73.9241155   7.1176833  84.6714705
  73.9885588   7.5797240  85.5072877  73.2152079   6.4874198  84.7997015
  64.4258445   0.4818041  82.1963705  64.6766483   1.3665051  82.4621281
  64.9617993   0.3022642  81.4238796  88.2490545   3.9131538  78.8638966
  87.4954253   3.3438936  78.7082971  88.3838086   3.8794202  79.8109601
  73.6389173   8.7844940  74.5393685  73.5034847   9.6296476  74.9678533
  74.1798985   8.9864218  73.7759619  70.1256512  -5.1363480  91.2008041
  69.7323458  -5.6897281  91.8755685  70.9422653  -4.8252901  91.5914558
  67.0918570   6.3020378  75.1121611  67.6043091   7.0963629  75.2627175
  67.7441283   5.6046669  75.0455212  68.9013455   9.4186135  77.1944364
  69.0780083  10.3404099  77.0065348  69.6970288   9.1044554  77.6238743
  73.0424473  -3.7205601  88.7928297  73.7834187  -3.1198448  88.7132760
  73.2742396  -4.4627963  88.2346340  68.1865811   1.4650766  87.0706527
  68.0719326   0.5636024  87.3713626  67.3310329   1.7114463  86.7191343
  75.2657649   9.4068507  88.6694028  74.8221503   8.6204885  88.3514932
  75.9274863   9.5947657  88.0037918  70.0244770  10.9364308  83.1954706
  70.5752195  10.8081372  82.4231700  69.1856246  11.2359197  82.8449599
  77.3638887   9.6871307  86.6975429  77.3457362  10.5080188  86.2055698
  78.2858807   9.5625382  86.9225570  73.8211941   7.2015436  87.5398937
  74.3540278   6.4403724  87.3098245  73.2926022   6.9089088  88.2823092
  65.0567487   4.6309033  75.8881181  65.8942709   5.0406041  75.6714889
  65.2345755   3.6908475  75.8581375  76.9531919   2.2984113  71.5765014
  76.4378542   3.0688718  71.8153401  76.6809227   1.6249249  72.1998075
  74.5379030  -2.8566186  76.6350252  73.6820626  -3.2459336  76.4555891
  74.9505982  -2.7774225  75.7750038  76.0678177  -5.3219843  81.0341812
  75.5642972  -5.3589708  80.2209617  76.3608783  -4.4127100  81.0938469
  72.3121062  -5.2381113  80.0407994  73.1774059  -5.4338304  79.6813883
  72.3798571  -5.4670761  80.9677351  81.9266193   5.0516468  73.5118187
  81.1495636   4.7127627  73.0673350  82.6057674   5.0569091  72.8373153
  76.7418222   0.1711205  73.4024795  76.4368358   0.4857355  74.2534938
  77.6948664   0.2492625  73.4452128  75.1864654   6.3301429  75.0517749
  74.6586016   5.5954188  74.7390987  74.6852157   7.1076105  74.8057717
  80.1657500   4.5250449  80.1684795  79.5081174   5.2149711  80.2564924
  80.9697899   4.9146881  80.5118782  69.9183382  -3.0078905  77.4124361
  70.4927133  -3.2303724  76.6797554  70.5054364  -2.9390211  78.1652962
  78.9762959   2.8794822  78.2188737  79.4894841   3.5124814  78.7210447
  79.6264183   2.2796017  77.8532097  70.2452969  -0.9774444  71.4320246
  69.4090281  -0.6399758  71.7529521  70.1057738  -1.1125464  70.4947383
  72.2206049  -6.1337656  76.1399430  71.5670462  -6.4488639  75.5156045
  72.1786523  -6.7561916  76.8659253  73.3317254   4.1481639  68.0552722
  72.4244316   3.9170892  68.2543871  73.8288286   3.3519258  68.2426704
  76.2385333  12.8579146  70.9749408  75.5647032  13.1610843  71.5834366
  76.6251155  13.6608226  70.6254865  75.4543790   0.3544277  80.4647078
  74.5366351   0.5759224  80.3068766  75.8703933   0.4290588  79.6058785
  76.2378837   1.7535693  75.5949758  76.9850656   2.2657090  75.2856880
  76.5070427   1.4319746  76.4554152  74.5105488   4.2494234  72.5776712
  73.6016707   3.9653267  72.6749182  74.5400571   4.6693312  71.7180019
  79.7424755   7.8600823  76.3467880  79.2887082   7.0191733  76.4033070
  79.1118722   8.4962222  76.6842660  78.6857675  -1.2107191  77.5768547
  77.9480431  -1.7229804  77.9078790  78.9384448  -1.6506809  76.7651824
  78.1857694   9.6977320  77.2817698  78.4780669  10.2582377  76.5630064
  78.6956315   9.9905881  78.0370857  65.0793658   1.9699748  76.5591914
  64.8818058   1.3769109  75.8342981  64.5240322   1.6651958  77.2767853
  73.0590382   1.8622854  78.6786508  73.1138991   0.9096691  78.6028984
  72.2481584   2.0182293  79.1627806  74.2081575   5.7902977  69.9164791
  73.7701005   5.0738836  69.4570428  74.9492016   6.0179092  69.3549882
  70.9982742   0.4799914  76.4376887  70.1850607   0.7794085  76.8442079
  71.4941736   0.0855603  77.1551369  73.1491319  10.4757671  78.3711151
  73.1067498  10.7018517  77.4419683  74.0654018  10.2421046  78.5196952
  76.5956953   0.9441739  85.2691780  76.9506341   1.1713212  86.1286246
  77.2429084   1.2760115  84.6469036  82.3254690   4.0660174  75.9741109
  82.1872589   4.2561770  75.0462299  81.9690909   4.8279557  76.4309161
  70.4896816  -1.9481730  82.0538121  71.1296196  -2.0892971  81.3561085
  69.6574347  -2.2347217  81.6776723  82.3524070   6.1336701  80.9852381
  82.7860576   6.0411991  81.8335435  83.0655650   6.1094202  80.3472397
  71.2657120   7.3520700  78.1673114  72.0597719   6.8571020  77.9655689
  70.5548813   6.8238563  77.8040819  76.0851965   9.7338796  82.5185482
  76.1388987  10.3029732  83.2863197  75.2166746   9.9040681  82.1539519
  67.5739884   1.4963782  74.2432867  66.6437472   1.4348237  74.4602829
  67.6697356   0.9739735  73.4469508  67.4925433  -1.9781405  76.8311108
  67.7532250  -1.0636072  76.7220269  68.3142605  -2.4456963  76.9807721
  68.9650358  -0.5643648  84.0009933  69.6373411  -0.7726286  83.3522582
  68.1380145  -0.7621562  83.5615165  83.2139619   6.1760402  83.5185266
  83.4075509   7.0806213  83.7644541  83.1140237   5.7167821  84.3523851
  74.8675930  -3.9381707  86.0175594  74.2203845  -3.2391758  85.9240070
  75.6376945  -3.5045563  86.3851842  78.2754728   6.3267145  89.0926147
  78.1240234   6.0977697  88.1756231  78.2659407   7.2837746  89.1057492
  75.0440064   3.8999058  84.0772413  75.9732124   4.0510217  83.9041381
  74.6231094   3.9883078  83.2221060  73.8428396   7.9249722  81.8470951
  73.7039482   7.5568506  82.7196889  73.0542992   8.4397361  81.6754909
  74.4376548  13.0258819  73.1896488  74.6128304  12.5546862  74.0042110
  73.7509336  13.6524585  73.4177748  75.3933611   7.3031325  79.2359789
  75.0583444   7.2632095  80.1317439  74.8937557   6.6376041  78.7630199
  69.3677855   2.7098955  84.7612370  69.2297653   1.9779194  85.3623909
  70.2782779   2.6207855  84.4796558  78.3292803   4.6487359  69.5096848
  77.7121974   3.9234187  69.4129901  77.8609291   5.4096719  69.1663923
  71.9960156   2.4218914  84.2496050  72.7059774   1.7812106  84.2082668
  71.9529464   2.6731809  85.1722230  79.9846935   9.3586267  87.1702629
  79.9259481   8.6745488  86.5033212  80.3866453  10.1005257  86.7183255
  70.7089090  -0.5915868  86.0691689  70.1726447  -1.0425130  86.7213285
  70.1205798  -0.4569959  85.3262153  69.0037633  16.1748181  79.9636348
  69.2434232  16.8066705  80.6415366  68.1606830  15.8236221  80.2501707
  70.1191349  -1.1327217  68.6318153  69.2420815  -1.2538416  68.2680399
  70.5949102  -1.9241138  68.3797041  79.9864342   7.3225851  85.4016608
  79.0991121   6.9851773  85.5243007  80.5562893   6.5908883  85.6385374
  61.6393489   3.6549943  78.7259660  62.3264529   3.3411673  78.1380675
  61.4841618   4.5591308  78.4526911  66.4428211  -1.4559860  83.1544684
  66.3586400  -2.0634191  82.4195094  65.6210918  -0.9650842  83.1554180
  73.5165495  11.9827304  82.3677852  73.4435667  12.7882275  82.8797156
  73.0742888  12.1819270  81.5425873  73.3055275  11.2199074  75.8780673
  72.5222797  11.7620754  75.9718898  74.0048020  11.7373053  76.2774914
  76.6151925  -2.9706297  78.5214879  77.1120625  -3.7236334  78.2015949
  75.8438907  -2.9341980  77.9558088  84.4681682   2.7334069  80.1633170
  84.4571559   3.6158784  79.7927103  83.5999062   2.3805620  79.9687707
  75.9764179  11.8814138  84.5236010  76.6892151  12.5161603  84.4511912
  75.4854207  11.9778004  83.7076012  77.6981706   5.7865390  76.0953302
  76.7637984   5.9066853  75.9258006  77.8758374   4.8837857  75.8313312
  73.1986894  -0.8288914  78.2486563  72.8284681  -1.3817873  78.9367469
  73.6945986  -1.4330780  77.6961563  81.0854257   1.6282710  76.6303336
  81.5514709   2.4610701  76.5563639  81.5361758   1.1627691  77.3348595
  71.0276092   9.6308581  85.3441581  71.7285552  10.2645064  85.4970975
  70.5571207   9.9723313  84.5837220  79.1530488   7.9726531  73.6289488
  79.4290332   7.8583126  74.5383362  78.2834987   7.5744016  73.5901661
  78.8277378   2.1853189  83.1694132  78.1748829   2.4329096  82.5146584
  79.2057758   1.3717327  82.8356609  75.7884552  12.2212882  77.2722302
  75.9706947  11.4034538  77.7350054  76.6117538  12.4380574  76.8347192
  76.1226718  11.1481067  74.5337350  76.6514484  10.6373522  73.9207512
  76.3854937  10.8323597  75.3982883  74.8764951   2.9273000  89.6560169
  74.2005588   2.8267129  90.3262544  75.6992585   2.7712213  90.1196166
  66.6243810   9.1644936  82.2772684  67.2097247   8.4188624  82.4100588
  66.4268649   9.4748893  83.1609348  69.4782466  12.1996184  77.2935126
  68.8092841  12.6842311  76.8099166  69.3395335  12.4465404  78.2078505
  61.2161465   1.7350536  80.9977127  61.2545565   1.2014127  81.7914245
  60.7101758   1.2085742  80.3788104  73.6187734  14.2339927  83.8917785
  74.1706042  14.3971549  84.6566870  73.9593928  14.8244365  83.2197809
  68.5952227  -3.4184923  84.4939669  68.6593554  -2.5570092  84.0817067
  68.5319348  -4.0310921  83.7612028  68.0704500  -1.3461790  88.1412704
  68.6976539  -1.7284713  88.7550228  67.2132419  -1.5647589  88.5068396
  78.4698609   9.0601185  89.7466439  79.0138513   9.6731143  89.2521394
  77.8885453   9.6180763  90.2633452  64.8470043   0.4614639  74.0731058
  65.1423484  -0.4474683  74.0198112  63.9458079   0.4402378  73.7512061
  76.7556122  12.1821903  80.8781467  76.6307261  11.3811643  80.3692412
  77.4135213  12.6768096  80.3895437  68.3764290  -1.4629365  80.0558607
  67.6550875  -0.8493397  79.9166080  69.1657546  -0.9271600  79.9775253
  78.8191030   9.9830923  82.5061017  77.8721365   9.8636274  82.4339344
  79.1673803   9.0953421  82.5887278  71.1790603  -4.1274938  86.3299259
  71.7025005  -3.8812642  87.0925568  70.9602937  -3.2954903  85.9102396
  66.5757884  -1.8571264  74.1970384  66.2470590  -2.7373885  74.0145489
  66.9297255  -1.9123595  75.0846773  75.8237463   9.7783639  78.7065369
  75.6762426   8.8500346  78.8872939  76.6490957   9.8003730  78.2222444
  69.6899707  -1.5698294  74.5645861  70.0295780  -1.0412373  73.8424470
  70.1371828  -1.2317888  75.3404428  79.4271585  10.6012198  79.7930242
  80.3518133  10.3955059  79.6554693  79.2586888  10.3528599  80.7019583
  72.3843148  -3.1861243  84.0148929  72.0439969  -3.9853430  84.4169609
  71.6782155  -2.8859532  83.4425762  71.6767855  -3.0723672  72.7639154
  72.3976217  -2.6942420  72.2602871  71.0533159  -2.3534796  72.8674132
  75.8198978  -2.3678523  73.6997486  76.0362592  -1.4853885  73.3986314
  75.3393045  -2.7592310  72.9703128  70.5598199   0.5907190  80.2768231
  70.4142780   0.9047493  81.1692512  70.0823403   1.2092090  79.7239130
  72.4194582  -2.4190262  80.3249120  72.4056151  -3.3149169  79.9881418
  73.1367010  -2.4119598  80.9587407  74.2720712  -1.9852922  82.3702248
  74.0138490  -1.0635851  82.3686578  73.7405753  -2.3822487  83.0602712
  79.2166901  11.1197865  75.1492333  79.3903779  10.5544288  74.3966186
  79.7095792  11.9198760  74.9671823  65.0343861   3.1312534  83.2155892
  64.4897329   3.9072342  83.3476166  65.9123211   3.4783339  83.0575014
  71.8231478  -3.5375882  75.5936691  71.9447389  -4.4659236  75.7927578
  71.5333520  -3.5237196  74.6815006  85.0706292   3.8834288  76.7682633
  85.5137438   3.1341613  76.3701756  84.1932803   3.8744424  76.3856365
  80.2042074  10.4364630  72.2489232  80.8992978  11.0571322  72.4676546
  80.5465224   9.5859981  72.5241609  65.8209883   2.2582431  86.1086049
  65.0791619   2.4065066  86.6950679  65.5002627   2.5190696  85.2452798
  82.1033497   7.8864335  73.7776562  82.6284821   8.2251608  73.0525882
  82.0155849   6.9511350  73.5939697  73.7653546  11.7998409  85.9066439
  74.0740672  11.5547556  86.7789139  74.5629028  12.0045047  85.4185309
  73.7874158  13.9536318  78.1371816  73.3479148  13.4612697  78.8304672
  74.5382275  13.4109286  77.8963891  66.2666497  10.1447859  78.1396444
  67.0924517   9.8451631  77.7595087  65.9160549   9.3755482  78.5886232
  71.2348030   9.4974327  80.2094117  70.6128039   8.8345033  79.9096345
  71.9052897   9.5235459  79.5267765  64.4675102   8.0634186  79.0985377
  63.6307010   7.6356360  78.9169378  64.4398747   8.2566629  80.0356168
  71.3072557  -2.0243884  89.8026623  71.3560713  -1.1481762  89.4204393
  71.8495071  -2.5666491  89.2298266  81.7927403   8.5197239  89.0827760
  81.0022947   8.5021378  88.5432260  81.5560757   9.0585532  89.8376797
  81.9125278   5.3689705  86.3960489  81.9623283   5.2039713  87.3376012
  81.8039201   4.5016964  86.0058370  70.7961537   8.0478251  73.6852578
  70.9449657   8.7313715  73.0319250  71.6027980   8.0283341  74.2002033
  79.2029040   1.3520633  87.7119796  80.1038903   1.2127098  87.4203793
  79.2777015   1.5175088  88.6517973  73.5371846  -1.2712512  86.5572982
  72.6675155  -0.9778946  86.2855570  73.7731326  -0.6872067  87.2780245
  83.4143475   7.7886647  86.6402510  83.1228283   8.1516627  87.4765971
  82.8015606   7.0753655  86.4615842  84.6139157   5.3539526  79.1605081
  85.4486049   5.7929331  79.3242641  84.7498286   4.8778180  78.3413326
  81.6630663   2.9119261  85.1082568  82.1384785   3.1046908  84.3001420
  80.7396228   2.9678447  84.8625952  68.5514170   4.0743428  74.6913647
  68.3060212   3.1705758  74.8893857  68.7210084   4.0760579  73.7493125
  76.2410880  -5.0532895  84.0738402  76.7592823  -4.3171868  83.7484891
  75.8866012  -4.7468902  84.9085161  67.8209817  -0.1928214  72.1899808
  67.1279062  -0.1183859  71.5339844  67.5761569  -0.9567870  72.7121325
  74.2956942  10.5426381  71.1564325  73.7230909  11.1616568  70.7034797
  74.8689736  11.0925743  71.6904247  80.3632332  -0.2114979  83.3410874
  81.3149755  -0.1116881  83.3623098  80.1935782  -1.0036710  83.8508958
  78.3846712  -3.1259395  83.5270275  77.7896644  -2.8454383  82.8316763
  78.0996408  -2.6365494  84.2987016  77.5154202  10.8263531  72.2872907
  78.4484875  10.7609093  72.4905783  77.4277415  11.6619798  71.8287440
  80.1442219  10.1429402  69.2476855  80.0655850   9.8089265  70.1412613
  80.9651885  10.6351170  69.2468327  82.8420410   3.0091141  82.4553174
  82.8096730   2.0707142  82.6412857  83.4521033   3.0875178  81.7218998
  74.6803741   1.8787194  68.4980378  75.6262845   1.7493402  68.5668796
  74.3017986   1.1401856  68.9749806  82.9914898  -0.1997816  82.5011457
  82.4753947  -0.9839359  82.3141386  83.8754847  -0.5279099  82.6657976
  88.6596960   4.0707148  81.5959210  89.3900348   3.8092436  82.1566914
  88.0503905   3.3335870  81.6361278  86.7412257   2.2115010  82.1933662
  86.0145420   2.0770975  81.5850153  86.3259544   2.5191839  82.9990380
  74.5642433   5.9304940  89.9581035  75.4845443   6.1083539  90.1521081
  74.5292016   4.9860986  89.8060734  72.8646658  -0.1962830  68.4335263
  71.9578113  -0.4929717  68.5097976  73.1422639  -0.4933011  67.5669549
  63.7824598   1.1243534  78.8834309  63.4627383   0.2708842  78.5908683
  63.2358026   1.3392112  79.6392277  67.5604506   3.8405975  82.6003816
  67.7790516   4.7723083  82.6191850  67.9730280   3.4813949  83.3858620
  74.4808724  -5.6525940  74.5879504  73.6709452  -5.9978855  74.9634750
  75.1693140  -5.9618396  75.1767116  72.4332371  -0.5860819  91.9906565
  72.3329098   0.3633538  91.9218656  72.2153913  -0.9142581  91.1182635
  71.6345442  -3.3375894  68.5747242  72.4964606  -3.0120996  68.8343059
  71.8195787  -4.1244398  68.0620308  63.6512858   4.7446445  80.8527431
  62.9576330   4.3300398  80.3397385  64.3985849   4.7866982  80.2560850
  72.2963641   2.8436319  90.8071626  71.8130723   3.6436680  91.0135515
  72.3824580   2.8544264  89.8539070  65.5649601   4.6764699  78.7293446
  65.5420289   4.7752386  77.7775329  65.8750237   5.5229850  79.0510612
  68.2236979   6.7340854  82.8440060  69.1780232   6.7024796  82.7769992
  68.0249502   6.2731478  83.6590286  68.8136361   5.3041970  85.4110858
  69.6329250   5.7986049  85.4345695  69.0873168   4.3873938  85.3828425
  78.5702957  -2.3047278  74.7738813  77.6828812  -2.0197627  74.5559008
  78.9856946  -2.4653514  73.9266090  81.9217493  -2.2800757  78.4893153
  82.6977883  -1.7904304  78.7617769  81.1965627  -1.8542702  78.9465022
  84.3590052  -1.5673137  79.5467093  84.9534543  -1.8077401  78.8360401
  84.4316635  -2.2866007  80.1740629  66.5787207  12.2760474  79.8610258
  66.4441675  11.5160875  79.2948256  66.1619270  13.0001373  79.3939047
  77.7146170   7.4597397  68.8686833  78.4182021   7.6647400  69.4844489
  76.9908819   8.0274159  69.1335917  78.5443981   3.2107258  74.9889103
  78.4879182   3.6675810  74.1496736  79.0972323   2.4497943  74.8111946
  82.3548787  -1.0003010  75.8139223  82.0985721  -1.4006374  76.6447431
  81.7301655  -0.2859216  75.6889362  86.6661124   1.7393064  78.3210514
  86.1060682   1.8086253  79.0942076  86.0604628   1.5634048  77.6010011
  69.7356333  13.1729791  80.0728701  69.6188717  14.1175223  79.9707391
  68.9148780  12.8703352  80.4614500  79.6232868   7.8979926  70.9185293
  80.4578472   7.4661125  70.7362768  79.4617211   7.7261940  71.8462188
  79.2778760   4.4012040  72.2841633  79.2227564   4.2356311  71.3430077
  78.6524815   5.1088073  72.4403822  64.0671275  -0.3619896  86.1103055
  64.7130139  -0.8720942  86.5990280  63.8588426   0.3748786  86.6846480
  76.5924667   6.7060952  91.6095195  77.4615827   6.8801604  91.2481830
  76.1131419   7.5255368  91.4870925  72.5874885  -6.0979851  71.8626951
  72.5753555  -5.1538011  72.0195222  73.4798307  -6.2809706  71.5686412
  70.7610847  13.8258053  83.2884629  71.6638094  13.8581663  83.6051124
  70.5348217  12.8958503  83.3030965  72.5164449  12.5789039  79.9494708
  71.5660080  12.5790901  79.8359080  72.8196936  11.8321774  79.4330742
  68.4068766  -3.2152279  90.2078069  69.2700228  -3.5715474  90.4181394
  67.8334177  -3.5538384  90.8953473  88.2517143  18.4149577  81.0140470
  88.8895553  18.2956325  80.3103810  88.1337986  19.3630421  81.0728422
  85.0606849  18.3677006  80.9501995  84.7225361  18.2518070  80.0622530
  85.9296617  17.9668171  80.9303001  80.9193665  20.2212482  76.9398886
  80.3558530  20.1302419  76.1715174  80.8046060  19.4012386  77.4201378
  85.5426632  19.5211857  86.9088200  85.5315273  19.1264656  86.0368704
  85.7047272  18.7877930  87.5021972  78.4658097  21.7163674  79.7783106
  79.2579389  21.3754498  79.3629406  78.7054747  21.8258649  80.6985260
  86.4993224  23.8883450  72.2513351  85.8481203  24.4737530  71.8647364
  87.2937586  24.4189645  72.3108388  80.4248851  20.9772587  72.6500485
  81.1979727  20.4301574  72.5113361  80.7774250  21.8416836  72.8614946
  82.2633893  22.3048969  85.8567384  81.9723759  23.2094600  85.7414051
  82.8990878  22.3465497  86.5711454  83.1890100  19.6825818  82.4468744
  83.7853672  19.4581840  81.7325707  83.2465072  18.9410563  83.0494192
  82.7615129  17.1365253  70.2818935  83.0140649  16.6146774  69.5202398
  81.8239688  16.9731398  70.3845619  87.8058411  16.1401031  78.0893678
  88.5921501  15.7220454  77.7384095  88.0697116  17.0447124  78.2575327
  87.9768489  21.5773882  72.7882335  87.3414322  21.6508508  73.5003240
  87.6465895  22.1667480  72.1101414  93.2066839  16.0776265  78.9926657
  93.9392010  15.5075481  79.2264486  92.4506194  15.6897865  79.4333162
  82.4811417  19.0393359  72.4843310  82.3647675  18.3638262  73.1524394
  82.5913677  18.5525733  71.6675463  84.8242958  18.5003506  76.1889999
  84.4601165  17.9734127  76.9002921  85.6810074  18.1101975  76.0156485
  90.7292259   9.7897839  83.4521265  90.3975584  10.6593250  83.2282480
  90.1337872   9.4734123  84.1315296  84.4648445  13.5293406  71.1851348
  84.6322848  14.3973642  71.5521819  84.2745614  13.6920687  70.2612637
  87.2223778  21.9910385  82.8517178  86.9224502  22.8935423  82.7432985
  86.8774838  21.7242568  83.7038331  80.6736260  18.4424181  78.8853882
  79.7486756  18.3100396  79.0931574  80.9220673  19.2218401  79.3823825
  90.6220922  14.5092925  80.5314615  89.7137800  14.4408333  80.2373376
  90.5708518  14.9864870  81.3596441  84.4437666  15.9851063  72.1698014
  84.3237291  16.4308114  73.0083495  83.7490254  16.3336381  71.6111553
  78.0345071  18.0857455  79.7197672  78.1637452  18.3391934  80.6337083
  77.3542522  18.6785163  79.4002327  82.2044558  28.7554705  75.8188146
  82.1268588  29.7062530  75.8976626  81.6006202  28.4100577  76.4763072
  84.6961788  15.9282570  88.4749513  83.9195122  16.4876491  88.4652377
  85.3352351  16.4139353  88.9964383  92.4882569  12.7109363  82.3092489
  91.8456949  13.0041896  81.6632284  91.9837497  12.5962284  83.1145686
  90.1422732  16.4572536  72.9978349  91.0540588  16.6899923  72.8226046
  89.6332379  17.0409581  72.4353427  82.9508160  18.7368024  88.0367480
  83.6922845  19.2753068  87.7602303  82.2445146  19.3634313  88.1939031
  88.4263500  20.8797164  86.6339641  88.8346856  20.4379575  85.8894273
  87.7040761  20.3049792  86.8873834  84.7794570  15.8169771  84.0073198
  85.6255765  16.2409185  84.1507847  84.7193208  15.1603395  84.7011761
  88.7492315  21.4398355  80.3891930  88.1201177  21.6044069  79.6867998
  88.3617977  21.8539964  81.1602894  92.6281546  22.3752793  77.7436294
  91.9432585  22.7551694  77.1933327  92.7125396  22.9848119  78.4768241
  87.9294015  13.4774139  85.6654372  87.6854947  14.2316200  85.1288647
  88.2053946  13.8559487  86.5001619  89.8832478  20.0212752  84.3431637
  90.0949373  20.6644512  83.6666018  89.8362226  19.1875068  83.8753567
  87.4858707  12.6330572  81.2468209  86.6243186  12.9311826  81.5384947
  87.5121142  12.8500971  80.3149242  84.3020276  21.1772763  77.6542015
  84.7658622  21.4560466  76.8646638  84.0377075  20.2756208  77.4715106
  81.1944358  20.7244244  80.5921778  81.7645715  21.1531513  79.9539263
  81.7852469  20.4426829  81.2905964  83.2389163  17.2995915  74.4631580
  83.9413206  17.7516959  74.9305507  82.9069791  16.6579734  75.0911473
  81.6869524  15.8907672  88.8382790  81.0568185  16.5723953  89.0718186
  81.5805612  15.7790754  87.8935928  76.9814496  15.5579468  79.7648714
  76.1913550  15.8136996  79.2888824  77.4725744  16.3727806  79.8700754
  90.9978306  22.8984707  82.5153995  91.8195750  22.4964894  82.2336676
  90.9940709  22.7952941  83.4670110  78.9329242  15.9224047  76.7232190
  78.1360405  16.0342741  77.2415686  78.7054834  16.2610699  75.8573081
  84.7634909  22.4468750  84.6714705  84.8279342  22.9089158  85.5072877
  84.0545833  21.8166115  84.7997015  75.2652199  15.8109958  82.1963705
  75.5160238  16.6956968  82.4621281  75.8011748  15.6314560  81.4238796
  99.0884299  19.2423456  78.8638966  98.3348007  18.6730854  78.7082971
  99.2231840  19.2086120  79.8109601  84.4782927  24.1136858  74.5393685
  84.3428602  24.9588394  74.9678533  85.0192740  24.3156136  73.7759619
  80.9650267  10.1928438  91.2008041  80.5717212   9.6394636  91.8755685
  81.7816407  10.5039016  91.5914558  77.9312325  21.6312296  75.1121611
  78.4436845  22.4255546  75.2627175  78.5835037  20.9338586  75.0455212
  79.7407209  24.7478052  77.1944364  79.9173838  25.6696017  77.0065348
  80.5364043  24.4336471  77.6238743  83.8818228  11.6086317  88.7928297
  84.6227941  12.2093470  88.7132760  84.1136151  10.8663955  88.2346340
  79.0259566  16.7942684  87.0706527  78.9113081  15.8927941  87.3713626
  78.1704084  17.0406381  86.7191343  86.1051404  24.7360424  88.6694028
  85.6615258  23.9496803  88.3514932  86.7668617  24.9239575  88.0037918
  80.8638525  26.2656226  83.1954706  81.4145950  26.1373289  82.4231700
  80.0250001  26.5651115  82.8449599  88.2032642  25.0163224  86.6975429
  88.1851117  25.8372105  86.2055698  89.1252562  24.8917300  86.9225570
  84.6605696  22.5307354  87.5398937  85.1934033  21.7695642  87.3098245
  84.1319777  22.2381006  88.2823092  87.8275391   7.6367420  83.0692579
  87.4839660   8.5269061  82.9931689  88.1954353   7.4469077  82.2062164
  75.8961241  19.9600950  75.8881181  76.7336463  20.3697959  75.6714889
  76.0739509  19.0200392  75.8581375  87.7925673  17.6276031  71.5765014
  87.2772297  18.3980636  71.8153401  87.5202982  16.9541167  72.1998075
  85.3772784  12.4725732  76.6350252  84.5214381  12.0832582  76.4555891
  85.7899736  12.5517692  75.7750038  86.9071931  10.0072075  81.0341812
  86.4036727   9.9702210  80.2209617  87.2002538  10.9164818  81.0938469
  83.1514817  10.0910805  80.0407994  84.0167814   9.8953613  79.6813883
  83.2192326   9.8621156  80.9677351  92.7659948  20.3808386  73.5118187
  91.9889390  20.0419545  73.0673350  93.4451429  20.3861009  72.8373153
  87.5811977  15.5003123  73.4024795  87.2762112  15.8149272  74.2534938
  88.5342419  15.5784543  73.4452128  86.0258408  21.6593346  75.0517749
  85.4979770  20.9246106  74.7390987  85.5245911  22.4368023  74.8057717
  91.0051254  19.8542367  80.1684795  90.3474929  20.5441628  80.2564924
  91.8091654  20.2438799  80.5118782  80.7577136  12.3213013  77.4124361
  81.3320888  12.0988194  76.6797554  81.3448118  12.3901707  78.1652962
  89.8156713  18.2086739  78.2188737  90.3288595  18.8416731  78.7210447
  90.4657937  17.6087935  77.8532097  81.0846723  14.3517474  71.4320246
  80.2484035  14.6892160  71.7529521  80.9451493  14.2166453  70.4947383
  83.0599804   9.1954262  76.1399430  82.4064216   8.8803279  75.5156045
  83.0180278   8.5730002  76.8659253  84.1711009  19.4773557  68.0552722
  83.2638070  19.2462810  68.2543871  84.6682041  18.6811176  68.2426704
  87.0779088  28.1871064  70.9749408  86.4040786  28.4902761  71.5834366
  87.4644909  28.9900144  70.6254865  86.2937544  15.6836195  80.4647078
  85.3760106  15.9051142  80.3068766  86.7097688  15.7582506  79.6058785
  87.0772592  17.0827611  75.5949758  87.8244411  17.5949008  75.2856880
  87.3464181  16.7611663  76.4554152  85.3499242  19.5786151  72.5776712
  84.4410461  19.2945184  72.6749182  85.3794326  19.9985230  71.7180019
  90.5818509  23.1892741  76.3467880  90.1280837  22.3483651  76.4033070
  89.9512476  23.8254139  76.6842660  89.5251429  14.1184727  77.5768547
  88.7874186  13.6062113  77.9078790  89.7778203  13.6785109  76.7651824
  89.0251449  25.0269238  77.2817698  89.3174423  25.5874295  76.5630064
  89.5350069  25.3197799  78.0370857  89.6263056   6.8960979  78.1710317
  89.9321933   6.0358342  77.8836232  90.3515661   7.4878599  77.9709310
  75.9187412  17.2991666  76.5591914  75.7211812  16.7061026  75.8342981
  75.3634076  16.9943876  77.2767853  83.8984136  17.1914772  78.6786508
  83.9532746  16.2388608  78.6028984  83.0875338  17.3474211  79.1627806
  85.0475330  21.1194895  69.9164791  84.6094760  20.4030754  69.4570428
  85.7885771  21.3471010  69.3549882  81.8376496  15.8091832  76.4376887
  81.0244362  16.1086002  76.8442079  82.3335490  15.4147521  77.1551369
  83.9885074  25.8049589  78.3711151  83.9461253  26.0310435  77.4419683
  84.9047773  25.5712963  78.5196952  87.4350708  16.2733656  85.2691780
  87.7900095  16.5005129  86.1286246  88.0822839  16.6052033  84.6469036
  93.1648445  19.3952092  75.9741109  93.0266343  19.5853688  75.0462299
  92.8084663  20.1571475  76.4309161  81.3290571  13.3810187  82.0538121
  81.9689950  13.2398946  81.3561085  80.4968101  13.0944701  81.6776723
  93.1917824  21.4628619  80.9852381  93.6254331  21.3703908  81.8335435
  93.9049405  21.4386120  80.3472397  82.1050875  22.6812618  78.1673114
  82.8991473  22.1862938  77.9655689  81.3942567  22.1530481  77.8040819
  86.9245719  25.0630713  82.5185482  86.9782741  25.6321650  83.2863197
  86.0560501  25.2332598  82.1539519  78.4133638  16.8255699  74.2432867
  77.4831226  16.7640155  74.4602829  78.5091110  16.3031652  73.4469508
  78.3319187  13.3510512  76.8311108  78.5926005  14.2655846  76.7220269
  79.1536360  12.8834955  76.9807721  79.8044113  14.7648269  84.0009933
  80.4767166  14.5565632  83.3522582  78.9773899  14.5670355  83.5615165
  94.0533374  21.5052320  83.5185266  94.2469264  22.4098130  83.7644541
  93.9533992  21.0459739  84.3523851  85.7069685  11.3910210  86.0175594
  85.0597600  12.0900160  85.9240070  86.4770700  11.8246354  86.3851842
  89.1148482  21.6559063  89.0926147  88.9633989  21.4269614  88.1756231
  89.1053162  22.6129664  89.1057492  85.8833819  19.2290975  84.0772413
  86.8125879  19.3802135  83.9041381  85.4624849  19.3174996  83.2221060
  84.6822151  23.2541640  81.8470951  84.5433236  22.8860424  82.7196889
  83.8936747  23.7689279  81.6754909  85.2770303  28.3550736  73.1896488
  85.4522058  27.8838779  74.0042110  84.5903091  28.9816502  73.4177748
  86.2327366  22.6323242  79.2359789  85.8977198  22.5924012  80.1317439
  85.7331312  21.9667958  78.7630199  80.2071610  18.0390872  84.7612370
  80.0691408  17.3071111  85.3623909  81.1176533  17.9499773  84.4796558
  89.1686557  19.9779277  69.5096848  88.5515728  19.2526105  69.4129901
  88.7003046  20.7388637  69.1663923  82.8353910  17.7510832  84.2496050
  83.5453529  17.1104024  84.2082668  82.7923219  18.0023727  85.1722230
  90.8240689  24.6878185  87.1702629  90.7653235  24.0037405  86.5033212
  91.2260208  25.4297175  86.7183255  81.5482844  14.7376050  86.0691689
  81.0120201  14.2866788  86.7213285  80.9599553  14.8721958  85.3262153
  79.8431388  31.5040099  79.9636348  80.0827986  32.1358623  80.6415366
  79.0000584  31.1528139  80.2501707  80.9585103  14.1964701  68.6318153
  80.0814570  14.0753502  68.2680399  81.4342856  13.4050779  68.3797041
  90.8258096  22.6517769  85.4016608  89.9384875  22.3143691  85.5243007
  91.3956647  21.9200800  85.6385374  72.4787244  18.9841861  78.7259660
  73.1658283  18.6703591  78.1380675  72.3235372  19.8883225  78.4526911
  77.2821966  13.8732057  83.1544684  77.1980154  13.2657727  82.4195094
  76.4604672  14.3641076  83.1554180  84.3559250  27.3119221  82.3677852
  84.2829421  28.1174193  82.8797156  83.9136643  27.5111187  81.5425873
  84.1449029  26.5490991  75.8780673  83.3616551  27.0912672  75.9718898
  84.8441775  27.0664971  76.2774914  87.4545680  12.3585621  78.5214879
  87.9514379  11.6055583  78.2015949  86.6832661  12.3949938  77.9558088
  95.3075437  18.0625986  80.1633170  95.2965313  18.9450702  79.7927103
  94.4392816  17.7097537  79.9687707  86.8157933  27.2106055  84.5236010
  87.5285906  27.8453520  84.4511912  86.3247962  27.3069921  83.7076012
  88.5375460  21.1157308  76.0953302  87.6031739  21.2358771  75.9258006
  88.7152129  20.2129775  75.8313312  84.0380648  14.5003004  78.2486563
  83.6678436  13.9474044  78.9367469  84.5339741  13.8961137  77.6961563
  91.9248012  16.9574627  76.6303336  92.3908464  17.7902619  76.5563639
  92.3755512  16.4919609  77.3348595  81.8669847  24.9600499  85.3441581
  82.5679306  25.5936982  85.4970975  81.3964962  25.3015230  84.5837220
  89.9924243  23.3018449  73.6289488  90.2684087  23.1875043  74.5383362
  89.1228741  22.9035934  73.5901661  89.8964674   9.3255214  80.6694237
  88.9827754   9.5559441  80.8376444  90.3257776   9.4093658  81.5208270
  89.6671133  17.5145106  83.1694132  89.0142583  17.7621014  82.5146584
  90.0451513  16.7009245  82.8356609  86.6278307  27.5504800  77.2722302
  86.8100701  26.7326455  77.7350054  87.4511293  27.7672492  76.8347192
  86.9620472  26.4772985  74.5337350  87.4908239  25.9665439  73.9207512
  87.2248692  26.1615515  75.3982883  85.7158706  18.2564917  89.6560169
  85.0399343  18.1559047  90.3262544  86.5386340  18.1004131  90.1196166
  77.4637565  24.4936854  82.2772684  78.0491002  23.7480542  82.4100588
  77.2662403  24.8040811  83.1609348  80.3176220  27.5288101  77.2935126
  79.6486595  28.0134229  76.8099166  80.1789090  27.7757322  78.2078505
  72.0555220  17.0642454  80.9977127  72.0939319  16.5306045  81.7914245
  71.5495512  16.5377660  80.3788104  84.4581489  29.5631845  83.8917785
  85.0099797  29.7263466  84.6566870  84.7987682  30.1536283  83.2197809
  79.4345982  11.9106995  84.4939669  79.4987308  12.7721826  84.0817067
  79.3713102  11.2980996  83.7612028  78.9098254  13.9830127  88.1412704
  79.5370293  13.6007205  88.7550228  78.0526173  13.7644329  88.5068396
  89.3092363  24.3893102  89.7466439  89.8532267  25.0023061  89.2521394
  88.7279208  24.9472681  90.2633452  75.6863797  15.7906556  74.0731058
  75.9817238  14.8817235  74.0198112  74.7851833  15.7694296  73.7512061
  87.5949876  27.5113820  80.8781467  87.4701015  26.7103560  80.3692412
  88.2528967  28.0060014  80.3895437  79.2158044  13.8662553  80.0558607
  78.4944630  14.4798521  79.9166080  80.0051300  14.4020318  79.9775253
  89.6584784  25.3122840  82.5061017  88.7115120  25.1928192  82.4339344
  90.0067557  24.4245339  82.5887278  82.0184358  11.2016979  86.3299259
  82.5418760  11.4479276  87.0925568  81.7996691  12.0337014  85.9102396
  77.4151639  13.4720654  74.1970384  77.0864345  12.5918033  74.0145489
  77.7691010  13.4168323  75.0846773  86.6631218  25.1075557  78.7065369
  86.5156180  24.1792264  78.8872939  87.4884711  25.1295647  78.2222444
  80.5293462  13.7593624  74.5645861  80.8689534  14.2879545  73.8424470
  80.9765582  14.0974030  75.3404428  90.2665340  25.9304115  79.7930242
  91.1911887  25.7246977  79.6554693  90.0980643  25.6820517  80.7019583
  83.2236903  12.1430675  84.0148929  82.8833723  11.3438488  84.4169609
  82.5175909  12.4432385  83.4425762  83.8753375   9.2279987  82.4676252
  84.6979444   8.7540465  82.3455143  84.1191438  10.0070471  82.9674939
  82.5161609  12.2568245  72.7639154  83.2369972  12.6349498  72.2602871
  81.8926913  12.9757122  72.8674132  86.6592732  12.9613394  73.6997486
  86.8756346  13.8438032  73.3986314  86.1786799  12.5699608  72.9703128
  81.3991953  15.9199108  80.2768231  81.2536534  16.2339411  81.1692512
  80.9217157  16.5384008  79.7239130  83.2588336  12.9101656  80.3249120
  83.2449905  12.0142749  79.9881418  83.9760764  12.9172319  80.9587407
  85.1114467  13.3438996  82.3702248  84.8532245  14.2656066  82.3686578
  84.5799507  12.9469430  83.0602712  90.0560656  26.4489783  75.1492333
  90.2297533  25.8836205  74.3966186  90.5489547  27.2490678  74.9671823
  75.8737616  18.4604452  83.2155892  75.3291084  19.2364260  83.3476166
  76.7516965  18.8075256  83.0575014  82.6625232  11.7916036  75.5936691
  82.7841143  10.8632682  75.7927578  82.3727275  11.8054722  74.6815006
  85.5316423   9.4770946  78.7303410  85.5538119   9.5410279  77.7755390
  85.9484482   8.6375455  78.9243917  95.9100047  19.2126206  76.7682633
  96.3531193  18.4633531  76.3701756  95.0326557  19.2036342  76.3856365
  91.0435828  25.7656547  72.2489232  91.7386733  26.3863240  72.4676546
  91.3858978  24.9151898  72.5241609  76.6603637  17.5874348  86.1086049
  75.9185373  17.7356984  86.6950679  76.3396382  17.8482614  85.2452798
  92.9427251  23.2156253  73.7776562  93.4678575  23.5543526  73.0525882
  92.8549604  22.2803268  73.5939697  84.6047300  27.1290326  85.9066439
  84.9134426  26.8839473  86.7789139  85.4022782  27.3336965  85.4185309
  84.6267912  29.2828236  78.1371816  84.1872902  28.7904615  78.8304672
  85.3776029  28.7401204  77.8963891  82.0741784  24.8266245  80.2094117
  81.4521794  24.1636950  79.9096345  82.7446651  24.8527377  79.5267765
  75.3068856  23.3926103  79.0985377  74.4700764  22.9648278  78.9169378
  75.2792502  23.5858547  80.0356168  82.1466312  13.3048033  89.8026623
  82.1954467  14.1810156  89.4204393  82.6888826  12.7625426  89.2298266
  92.6321157  23.8489156  89.0827760  91.8416701  23.8313295  88.5432260
  92.3954512  24.3877450  89.8376797  92.7519032  20.6981623  86.3960489
  92.8017037  20.5331630  87.3376012  92.6432956  19.8308882  86.0058370
  81.6355291  23.3770169  73.6852578  81.7843412  24.0605633  73.0319250
  82.4421735  23.3575259  74.2002033  90.0422795  16.6812551  87.7119796
  90.9432658  16.5419016  87.4203793  90.1170769  16.8467006  88.6517973
  84.3765600  14.0579406  86.5572982  83.5068910  14.3512972  86.2855570
  84.6125081  14.6419851  87.2780245  94.2537229  23.1178564  86.6402510
  93.9622038  23.4808545  87.4765971  93.6409361  22.4045573  86.4615842
  95.4532912  20.6831444  79.1605081  96.2879803  21.1221248  79.3242641
  95.5892040  20.2070097  78.3413326  92.5024418  18.2411179  85.1082568
  92.9778539  18.4338825  84.3001420  91.5789983  18.2970365  84.8625952
  79.3907924  19.4035346  74.6913647  79.1453966  18.4997676  74.8893857
  79.5603839  19.4052497  73.7493125  87.0804634  10.2759023  84.0738402
  87.5986578  11.0120049  83.7484891  86.7259767  10.5823016  84.9085161
  78.6603572  15.1363704  72.1899808  77.9672817  15.2108059  71.5339844
  78.4155324  14.3724047  72.7121325  87.3317228   6.6959305  79.5939299
  87.6118982   6.0282494  80.2199725  88.1167835   6.8888401  79.0813963
  85.1350697  25.8718299  71.1564325  84.5624664  26.4908486  70.7034797
  85.7083490  26.4217661  71.6904247  91.2026087  15.1176939  83.3410874
  92.1543509  15.2175037  83.3623098  91.0329537  14.3255208  83.8508958
  89.2240466  12.2032522  83.5270275  88.6290398  12.4837535  82.8316763
  88.9390163  12.6926423  84.2987016  88.3547956  26.1555449  72.2872907
  89.2878630  26.0901011  72.4905783  88.2671169  26.9911716  71.8287440
  90.9835973  25.4721319  69.2476855  90.9049605  25.1381183  70.1412613
  91.8045640  25.9643087  69.2468327  93.6814164  18.3383059  82.4553174
  93.6490484  17.3999059  82.6412857  94.2914788  18.4167095  81.7218998
  85.5197495  17.2079112  68.4980378  86.4656600  17.0785320  68.5668796
  85.1411740  16.4693774  68.9749806  93.8308653  15.1294102  82.5011457
  93.3147701  14.3452559  82.3141386  94.7148601  14.8012819  82.6657976
  91.4919380   8.8735118  78.4607269  91.2944201   8.5650206  79.3450601
  92.1019085   9.5996757  78.5905199  99.4990714  19.3999066  81.5959210
 100.2294103  19.1384354  82.1566914  98.8897660  18.6627788  81.6361278
  97.5806011  17.5406928  82.1933662  96.8539175  17.4062893  81.5850153
  97.1653298  17.8483757  82.9990380  85.4036188  21.2596858  89.9581035
  86.3239197  21.4375457  90.1521081  85.3685771  20.3152903  89.8060734
  83.7040412  15.1329088  68.4335263  82.7971868  14.8362201  68.5097976
  83.9816393  14.8358906  67.5669549  74.6218353  16.4535452  78.8834309
  74.3021137  15.6000760  78.5908683  74.0751781  16.6684030  79.6392277
  78.3998260  19.1697893  82.6003816  78.6184270  20.1015000  82.6191850
  78.8124034  18.8105867  83.3858620  85.3202478   9.6765978  74.5879504
  84.5103206   9.3313063  74.9634750  86.0086895   9.3673522  75.1767116
  87.2493026   8.7544025  76.2103801  87.8024065   9.1739478  76.8693824
  87.4863113   7.8279773  76.2526757  83.2726126  14.7431098  91.9906565
  83.1722852  15.6925455  91.9218656  83.0547668  14.4149337  91.1182635
  82.4739197  11.9916023  68.5747242  83.3358361  12.3170922  68.8343059
  82.6589541  11.2047519  68.0620308  74.4906613  20.0738363  80.8527431
  73.7970084  19.6592316  80.3397385  75.2379604  20.1158900  80.2560850
  90.6271833  10.8644550  75.7182465  90.0470502  11.5229354  75.3360517
  90.3607766  10.0421894  75.3069883  89.0775400  10.2649607  77.9203785
  89.5775178  10.3766142  77.1118104  89.7211008   9.9610660  78.5604594
  83.1357396  18.1728237  90.8071626  82.6524477  18.9728597  91.0135515
  83.2218335  18.1836182  89.8539070  76.4043355  20.0056617  78.7293446
  76.3814043  20.1044304  77.7775329  76.7143992  20.8521768  79.0510612
  79.0630733  22.0632772  82.8440060  80.0173987  22.0316714  82.7769992
  78.8643257  21.6023396  83.6590286  79.6530115  20.6333888  85.4110858
  80.4723004  21.1277967  85.4345695  79.9266923  19.7165856  85.3828425
  89.4096711  13.0244640  74.7738813  88.5222566  13.3094291  74.5559008
  89.8250701  12.8638404  73.9266090  92.7611248  13.0491161  78.4893153
  93.5371638  13.5387614  78.7617769  92.0359382  13.4749215  78.9465022
  95.1983806  13.7618780  79.5467093  95.7928297  13.5214516  78.8360401
  95.2710390  13.0425911  80.1740629  88.5539925  22.7889315  68.8686833
  89.2575775  22.9939317  69.4844489  87.8302574  23.3566077  69.1335917
  89.3837735  18.5399176  74.9889103  89.3272937  18.9967728  74.1496736
  89.9366078  17.7789861  74.8111946  93.1942541  14.3288908  75.8139223
  92.9379475  13.9285544  76.6447431  92.5695409  15.0432702  75.6889362
  97.5054879  17.0684981  78.3210514  96.9454437  17.1378171  79.0942076
  96.8998382  16.8925966  77.6010011  80.5750088  28.5021708  80.0728701
  80.4582472  29.4467141  79.9707391  79.7542534  28.1995270  80.4614500
  90.4626622  23.2271844  70.9185293  91.2972226  22.7953043  70.7362768
  90.3010965  23.0553858  71.8462188  90.1172515  19.7303957  72.2841633
  90.0621318  19.5648229  71.3430077  89.4918570  20.4379990  72.4403822
  74.9065029  14.9672022  86.1103055  75.5523893  14.4570976  86.5990280
  74.6982181  15.7040703  86.6846480  87.4318422  22.0352869  91.6095195
  88.3009581  22.2093521  91.2481830  86.9525173  22.8547286  91.4870925
  83.4268640   9.2312066  71.8626951  83.4147310  10.1753906  72.0195222
  84.3192062   9.0482212  71.5686412  81.6004602  29.1549970  83.2884629
  82.5031849  29.1873580  83.6051124  81.3741972  28.2250421  83.3030965
  83.3558204  27.9080957  79.9494708  82.4053835  27.9082818  79.8359080
  83.6590690  27.1613691  79.4330742  87.2420759   5.8254843  76.1172888
  86.4753155   5.2713330  76.2629570  87.6531464   5.8976712  76.9787039
  79.2462520  12.1139639  90.2078069  80.1093982  11.7576444  90.4181394
  78.6727931  11.7753534  90.8953473  99.0910897  33.7441495  81.0140470
  99.7289307  33.6248243  80.3103810  98.9731740  34.6922339  81.0728422
  95.9000604  33.6968923  80.9501995  95.5619115  33.5809988  80.0622530
  96.7690372  33.2960088  80.9303001  91.7587419  35.5504400  76.9398886
  91.1952285  35.4594337  76.1715174  91.6439814  34.7304304  77.4201378
  96.3820387  34.8503775  86.9088200  96.3709027  34.4556573  86.0368704
  96.5441026  34.1169848  87.5021972  89.3051851  37.0455591  79.7783106
  90.0973143  36.7046416  79.3629406  89.5448501  37.1550566  80.6985260
  97.3386978  39.2175367  72.2513351  96.6874958  39.8029448  71.8647364
  98.1331341  39.7481562  72.3108388  91.2642605  36.3064505  72.6500485
  92.0373481  35.7593492  72.5113361  91.6168004  37.1708754  72.8614946
  93.1027648  37.6340887  85.8567384  92.8117514  38.5386518  85.7414051
  93.7384632  37.6757414  86.5711454  94.0283855  35.0117735  82.4468744
  94.6247427  34.7873758  81.7325707  94.0858826  34.2702481  83.0494192
  93.6008883  32.4657171  70.2818935  93.8534404  31.9438692  69.5202398
  92.6633442  32.3023316  70.3845619  98.6452166  31.4692949  78.0893678
  99.4315255  31.0512372  77.7384095  98.9090870  32.3739041  78.2575327
  98.8162243  36.9065799  72.7882335  98.1808076  36.9800426  73.5003240
  98.4859650  37.4959398  72.1101414 104.0460593  31.4068182  78.9926657
 104.7785765  30.8367399  79.2264486 103.2899949  31.0189783  79.4333162
  93.3205172  34.3685277  72.4843310  93.2041430  33.6930180  73.1524394
  93.4307432  33.8817651  71.6675463  95.6636713  33.8295424  76.1889999
  95.2994920  33.3026045  76.9002921  96.5203829  33.4393893  76.0156485
 101.5686013  25.1189756  83.4521265 101.2369338  25.9885167  83.2282480
 100.9731627  24.8026040  84.1315296  95.3042200  28.8585323  71.1851348
  95.4716602  29.7265560  71.5521819  95.1139369  29.0212605  70.2612637
  98.0617533  37.3202302  82.8517178  97.7618256  38.2227341  82.7432985
  97.7168592  37.0534486  83.7038331  91.5130014  33.7716099  78.8853882
  90.5880511  33.6392313  79.0931574  91.7614428  34.5510318  79.3823825
 101.4614677  29.8384842  80.5314615 100.5531554  29.7700251  80.2373376
 101.4102272  30.3156787  81.3596441  95.2831421  31.3142981  72.1698014
  95.1631046  31.7600032  73.0083495  94.5884009  31.6628299  71.6111553
  88.8738825  33.4149373  79.7197672  89.0031207  33.6683852  80.6337083
  88.1936277  34.0077081  79.4002327  93.0438313  44.0846623  75.8188146
  92.9662342  45.0354448  75.8976626  92.4399956  43.7392495  76.4763072
  95.5355542  31.2574488  88.4749513  94.7588877  31.8168408  88.4652377
  96.1746106  31.7431271  88.9964383 103.3276323  28.0401281  82.3092489
 102.6850703  28.3333814  81.6632284 102.8231252  27.9254201  83.1145686
 100.9816487  31.7864454  72.9978349 101.8934343  32.0191841  72.8226046
 100.4726134  32.3701498  72.4353427  93.7901915  34.0659941  88.0367480
  94.5316599  34.6044985  87.7602303  93.0838900  34.6926230  88.1939031
  99.2657254  36.2089082  86.6339641  99.6740610  35.7671492  85.8894273
  98.5434516  35.6341709  86.8873834  95.6188324  31.1461689  84.0073198
  96.4649520  31.5701102  84.1507847  95.5586962  30.4895313  84.7011761
  99.5886069  36.7690273  80.3891930  98.9594932  36.9335987  79.6867998
  99.2011731  37.1831882  81.1602894 103.4675301  37.7044710  77.7436294
 102.7826339  38.0843612  77.1933327 103.5519150  38.3140037  78.4768241
  98.7687770  28.8066057  85.6654372  98.5248702  29.5608118  85.1288647
  99.0447700  29.1851405  86.5001619 100.7226233  35.3504669  84.3431637
 100.9343128  35.9936429  83.6666018 100.6755981  34.5166986  83.8753567
  98.3252462  27.9622490  81.2468209  97.4636941  28.2603744  81.5384947
  98.3514896  28.1792889  80.3149242  95.1414031  36.5064681  77.6542015
  95.6052376  36.7852384  76.8646638  94.8770829  35.6048125  77.4715106
  92.0338112  36.0536162  80.5921778  92.6039469  36.4823431  79.9539263
  92.6246224  35.7718747  81.2905964  94.0782917  32.6287833  74.4631580
  94.7806960  33.0808877  74.9305507  93.7463546  31.9871652  75.0911473
  92.5263279  31.2199590  88.8382790  91.8961939  31.9015870  89.0718186
  92.4199366  31.1082671  87.8935928  87.8208251  30.8871386  79.7648714
  87.0307305  31.1428914  79.2888824  88.3119498  31.7019723  79.8700754
 101.8372061  38.2276625  82.5153995 102.6589504  37.8256812  82.2336676
 101.8334463  38.1244859  83.4670110  89.7722996  31.2515965  76.7232190
  88.9754160  31.3634659  77.2415686  89.5448589  31.5902617  75.8573081
  95.6028664  37.7760668  84.6714705  95.6673096  38.2381075  85.5072877
  94.8939588  37.1458033  84.7997015  86.1045954  31.1401876  82.1963705
  86.3553992  32.0248886  82.4621281  86.6405502  30.9606478  81.4238796
 109.9278054  34.5715373  78.8638966 109.1741762  34.0022771  78.7082971
 110.0625595  34.5378038  79.8109601  95.3176682  39.4428776  74.5393685
  95.1822356  40.2880311  74.9678533  95.8586494  39.6448053  73.7759619
  91.8044021  25.5220355  91.2008041  91.4110967  24.9686554  91.8755685
  92.6210162  25.8330934  91.5914558  88.7706079  36.9604214  75.1121611
  89.2830600  37.7547464  75.2627175  89.4228792  36.2630504  75.0455212
  90.5800964  40.0769970  77.1944364  90.7567592  40.9987935  77.0065348
  91.3757797  39.7628389  77.6238743  94.7211982  26.9378235  88.7928297
  95.4621696  27.5385388  88.7132760  94.9529905  26.1955872  88.2346340
  89.8653320  32.1234602  87.0706527  89.7506835  31.2219859  87.3713626
  89.0097838  32.3698299  86.7191343  96.9445158  40.0652342  88.6694028
  96.5009012  39.2788721  88.3514932  97.6062372  40.2531493  88.0037918
  91.7032279  41.5948144  83.1954706  92.2539704  41.4665207  82.4231700
  90.8643755  41.8943033  82.8449599  99.0426396  40.3455142  86.6975429
  99.0244871  41.1664023  86.2055698  99.9646316  40.2209217  86.9225570
  95.4999450  37.8599272  87.5398937  96.0327787  37.0987560  87.3098245
  94.9713531  37.5672923  88.2823092  98.6669145  22.9659337  83.0692579
  98.3233415  23.8560979  82.9931689  99.0348108  22.7760995  82.2062164
  86.7354996  35.2892868  75.8881181  87.5730218  35.6989876  75.6714889
  86.9133264  34.3492310  75.8581375  98.6319428  32.9567949  71.5765014
  98.1166051  33.7272553  71.8153401  98.3596736  32.2833085  72.1998075
  96.2166539  27.8017649  76.6350252  95.3608135  27.4124500  76.4555891
  96.6293491  27.8809610  75.7750038  97.7465686  25.3363993  81.0341812
  97.2430481  25.2994128  80.2209617  98.0396292  26.2456735  81.0938469
  93.9908571  25.4202722  80.0407994  94.8561568  25.2245531  79.6813883
  94.0586080  25.1913074  80.9677351 103.6053702  35.7100303  73.5118187
 102.8283145  35.3711463  73.0673350 104.2845183  35.7152926  72.8373153
  98.4205731  30.8295041  73.4024795  98.1155867  31.1441190  74.2534938
  99.3736173  30.9076461  73.4452128  96.8652163  36.9885264  75.0517749
  96.3373525  36.2538024  74.7390987  96.3639666  37.7659940  74.8057717
 101.8445009  35.1834284  80.1684795 101.1868683  35.8733546  80.2564924
 102.6485408  35.5730716  80.5118782  91.5970891  27.6504930  77.4124361
  92.1714642  27.4280112  76.6797554  92.1841873  27.7193625  78.1652962
 100.6550468  33.5378657  78.2188737 101.1682350  34.1708649  78.7210447
 101.3051692  32.9379853  77.8532097  91.9240478  29.6809391  71.4320246
  91.0877790  30.0184078  71.7529521  91.7845247  29.5458371  70.4947383
  93.8993558  24.5246179  76.1399430  93.2457971  24.2095196  75.5156045
  93.8574032  23.9021920  76.8659253  95.0104763  34.8065474  68.0552722
  94.1031825  34.5754728  68.2543871  95.5075795  34.0103094  68.2426704
  97.9172842  43.5162981  70.9749408  97.2434541  43.8194678  71.5834366
  98.3038664  44.3192062  70.6254865  97.1331299  31.0128113  80.4647078
  96.2153860  31.2343060  80.3068766  97.5491442  31.0874423  79.6058785
  97.9166346  32.4119528  75.5949758  98.6638165  32.9240926  75.2856880
  98.1857936  32.0903581  76.4554152  96.1892997  34.9078069  72.5776712
  95.2804216  34.6237102  72.6749182  96.2188080  35.3277148  71.7180019
 101.4212264  38.5184659  76.3467880 100.9674591  37.6775569  76.4033070
 100.7906231  39.1546057  76.6842660 100.3645184  29.4476645  77.5768547
  99.6267940  28.9354031  77.9078790 100.6171957  29.0077026  76.7651824
  99.8645203  40.3561155  77.2817698 100.1568178  40.9166212  76.5630064
 100.3743824  40.6489716  78.0370857 100.4656811  22.2252897  78.1710317
 100.7715688  21.3650260  77.8836232 101.1909416  22.8170517  77.9709310
  86.7581167  32.6283583  76.5591914  86.5605567  32.0352944  75.8342981
  86.2027831  32.3235793  77.2767853  94.7377891  32.5206690  78.6786508
  94.7926500  31.5680526  78.6028984  93.9269093  32.6766129  79.1627806
  95.8869084  36.4486813  69.9164791  95.4488514  35.7322672  69.4570428
  96.6279525  36.6762928  69.3549882  92.6770251  31.1383749  76.4376887
  91.8638116  31.4377920  76.8442079  93.1729245  30.7439438  77.1551369
  94.8278828  41.1341506  78.3711151  94.7855007  41.3602353  77.4419683
  95.7441527  40.9004881  78.5196952  98.2744462  31.6025574  85.2691780
  98.6293850  31.8297047  86.1286246  98.9216593  31.9343951  84.6469036
 104.0042199  34.7244010  75.9741109 103.8660098  34.9145606  75.0462299
 103.6478418  35.4863393  76.4309161  92.1684325  28.7102105  82.0538121
  92.8083705  28.5690864  81.3561085  91.3361856  28.4236618  81.6776723
 104.0311579  36.7920537  80.9852381 104.4648085  36.6995826  81.8335435
 104.7443159  36.7678037  80.3472397  92.9444629  38.0104535  78.1673114
  93.7385228  37.5154856  77.9655689  92.2336322  37.4822399  77.8040819
  97.7639474  40.3922631  82.5185482  97.8176496  40.9613567  83.2863197
  96.8954255  40.5624516  82.1539519  89.2527393  32.1547617  74.2432867
  88.3224981  32.0932073  74.4602829  89.3484865  31.6323570  73.4469508
  89.1712942  28.6802430  76.8311108  89.4319759  29.5947763  76.7220269
  89.9930114  28.2126873  76.9807721  90.6437867  30.0940187  84.0009933
  91.3160920  29.8857549  83.3522582  89.8167654  29.8962273  83.5615165
 104.8927128  36.8344237  83.5185266 105.0863018  37.7390048  83.7644541
 104.7927746  36.3751657  84.3523851  96.5463439  26.7202128  86.0175594
  95.8991354  27.4192078  85.9240070  97.3164454  27.1538272  86.3851842
  99.9542237  36.9850980  89.0926147  99.8027743  36.7561532  88.1756231
  99.9446916  37.9421582  89.1057492  96.7227573  34.5582893  84.0772413
  97.6519633  34.7094053  83.9041381  96.3018603  34.6466914  83.2221060
  95.5215905  38.5833557  81.8470951  95.3826991  38.2152342  82.7196889
  94.7330501  39.0981197  81.6754909  96.1164057  43.6842654  73.1896488
  96.2915813  43.2130697  74.0042110  95.4296845  44.3108420  73.4177748
  97.0721120  37.9615160  79.2359789  96.7370953  37.9215930  80.1317439
  96.5725066  37.2959876  78.7630199  91.0465364  33.3682790  84.7612370
  90.9085162  32.6363029  85.3623909  91.9570288  33.2791690  84.4796558
 100.0080312  35.3071194  69.5096848  99.3909483  34.5818023  69.4129901
  99.5396800  36.0680555  69.1663923  93.6747665  33.0802749  84.2496050
  94.3847283  32.4395942  84.2082668  93.6316973  33.3315644  85.1722230
 101.6634444  40.0170103  87.1702629 101.6046990  39.3329323  86.5033212
 102.0653962  40.7589093  86.7183255  92.3876599  30.0667967  86.0691689
  91.8513956  29.6158706  86.7213285  91.7993307  30.2013876  85.3262153
  91.7978858  29.5256619  68.6318153  90.9208324  29.4045420  68.2680399
  92.2736611  28.7342697  68.3797041 101.6651851  37.9809687  85.4016608
 100.7778630  37.6435609  85.5243007 102.2350402  37.2492718  85.6385374
  83.3180998  34.3133778  78.7259660  84.0052038  33.9995509  78.1380675
  83.1629127  35.2175143  78.4526911  88.1215720  29.2023975  83.1544684
  88.0373909  28.5949645  82.4195094  87.2998427  29.6932993  83.1554180
  95.1953004  42.6411139  82.3677852  95.1223176  43.4466111  82.8797156
  94.7530397  42.8403105  81.5425873  94.9842784  41.8782909  75.8780673
  94.2010306  42.4204589  75.9718898  95.6835529  42.3956889  76.2774914
  98.2939434  27.6877539  78.5214879  98.7908134  26.9347501  78.2015949
  97.5226416  27.7241855  77.9558088 106.1469191  33.3917904  80.1633170
 106.1359068  34.2742620  79.7927103 105.2786571  33.0389455  79.9687707
  97.6551688  42.5397973  84.5236010  98.3679660  43.1745438  84.4511912
  97.1641716  42.6361839  83.7076012  99.3769215  36.4449226  76.0953302
  98.4425493  36.5650688  75.9258006  99.5545883  35.5421693  75.8313312
  94.8774403  29.8294922  78.2486563  94.5072190  29.2765962  78.9367469
  95.3733495  29.2253055  77.6961563 102.7641766  32.2866545  76.6303336
 103.2302218  33.1194537  76.5563639 103.2149267  31.8211527  77.3348595
  92.7063601  40.2892417  85.3441581  93.4073061  40.9228900  85.4970975
  92.2358716  40.6307148  84.5837220 100.8317997  38.6310366  73.6289488
 101.1077841  38.5166961  74.5383362  99.9622496  38.2327851  73.5901661
 100.7358429  24.6547132  80.6694237  99.8221509  24.8851359  80.8376444
 101.1651530  24.7385576  81.5208270 100.5064887  32.8437024  83.1694132
  99.8536338  33.0912931  82.5146584 100.8845267  32.0301162  82.8356609
  97.4672061  42.8796717  77.2722302  97.6494456  42.0618373  77.7350054
  98.2905047  43.0964409  76.8347192  97.8014227  41.8064902  74.5337350
  98.3301993  41.2957357  73.9207512  98.0642446  41.4907433  75.3982883
  96.5552460  33.5856835  89.6560169  95.8793097  33.4850964  90.3262544
  97.3780094  33.4296049  90.1196166  88.3031319  39.8228772  82.2772684
  88.8884756  39.0772460  82.4100588  88.1056158  40.1332728  83.1609348
  91.1569975  42.8580019  77.2935126  90.4880350  43.3426147  76.8099166
  91.0182844  43.1049239  78.2078505  82.8948974  32.3934372  80.9977127
  82.9333074  31.8597963  81.7914245  82.3889267  31.8669577  80.3788104
  95.2975243  44.8923763  83.8917785  95.8493551  45.0555384  84.6566870
  95.6381437  45.4828200  83.2197809  90.2739736  27.2398912  84.4939669
  90.3381063  28.1013743  84.0817067  90.2106857  26.6272914  83.7612028
  89.7492009  29.3122045  88.1412704  90.3764048  28.9299122  88.7550228
  88.8919928  29.0936247  88.5068396 100.1486118  39.7185020  89.7466439
 100.6926022  40.3314978  89.2521394  99.5672962  40.2764598  90.2633452
  86.5257552  31.1198474  74.0731058  86.8210993  30.2109152  74.0198112
  85.6245587  31.0986213  73.7512061  98.4343630  42.8405738  80.8781467
  98.3094770  42.0395478  80.3692412  99.0922722  43.3351931  80.3895437
  90.0551799  29.1954471  80.0558607  89.3338384  29.8090438  79.9166080
  90.8445054  29.7312235  79.9775253 100.4978539  40.6414758  82.5061017
  99.5508874  40.5220109  82.4339344 100.8461312  39.7537256  82.5887278
  92.8578112  26.5308897  86.3299259  93.3812514  26.7771194  87.0925568
  92.6390446  27.3628932  85.9102396  88.2545393  28.8012572  74.1970384
  87.9258099  27.9209951  74.0145489  88.6084764  28.7460240  75.0846773
  97.5024972  40.4367474  78.7065369  97.3549935  39.5084182  78.8872939
  98.3278466  40.4587565  78.2222444  91.3687216  29.0885541  74.5645861
  91.7083289  29.6171463  73.8424470  91.8159337  29.4265948  75.3404428
 101.1059094  41.2596033  79.7930242 102.0305641  41.0538894  79.6554693
 100.9374397  41.0112434  80.7019583  94.0630657  27.4722592  84.0148929
  93.7227478  26.6730405  84.4169609  93.3569664  27.7724303  83.4425762
  94.7147129  24.5571905  82.4676252  95.5373198  24.0832383  82.3455143
  94.9585193  25.3362388  82.9674939  93.3555364  27.5860163  72.7639154
  94.0763726  27.9641416  72.2602871  92.7320668  28.3049040  72.8674132
  97.4986486  28.2905312  73.6997486  97.7150101  29.1729950  73.3986314
  97.0180554  27.8991525  72.9703128  92.2385708  31.2491025  80.2768231
  92.0930289  31.5631328  81.1692512  91.7610912  31.8675926  79.7239130
  94.0982091  28.2393573  80.3249120  94.0843660  27.3434667  79.9881418
  94.8154519  28.2464237  80.9587407  95.9508221  28.6730913  82.3702248
  95.6925999  29.5947984  82.3686578  95.4193262  28.2761348  83.0602712
 100.8954410  41.7781701  75.1492333 101.0691288  41.2128123  74.3966186
 101.3883301  42.5782595  74.9671823  86.7131370  33.7896370  83.2155892
  86.1684838  34.5656178  83.3476166  87.5910720  34.1367174  83.0575014
  93.5018987  27.1207954  75.5936691  93.6234898  26.1924600  75.7927578
  93.2121029  27.1346639  74.6815006  96.3710177  24.8062864  78.7303410
  96.3931874  24.8702197  77.7755390  96.7878236  23.9667373  78.9243917
 106.7493801  34.5418123  76.7682633 107.1924947  33.7925449  76.3701756
 105.8720312  34.5328260  76.3856365 101.8829583  41.0948465  72.2489232
 102.5780487  41.7155158  72.4676546 102.2252733  40.2443816  72.5241609
  87.4997392  32.9166266  86.1086049  86.7579128  33.0648901  86.6950679
  87.1790136  33.1774532  85.2452798 103.7821006  38.5448170  73.7776562
 104.3072330  38.8835443  73.0525882 103.6943358  37.6095186  73.5939697
  95.4441055  42.4582244  85.9066439  95.7528181  42.2131391  86.7789139
  96.2416537  42.6628883  85.4185309  95.4661667  44.6120154  78.1371816
  95.0266657  44.1196532  78.8304672  96.2169784  44.0693121  77.8963891
  87.9454006  40.8031695  78.1396444  88.7712025  40.5035466  77.7595087
  87.5948058  40.0339317  78.5886232  92.9135539  40.1558163  80.2094117
  92.2915548  39.4928868  79.9096345  93.5840406  40.1819295  79.5267765
  86.1462611  38.7218021  79.0985377  85.3094519  38.2940195  78.9169378
  86.1186256  38.9150464  80.0356168  92.9860066  28.6339951  89.8026623
  93.0348222  29.5102074  89.4204393  93.5282580  28.0917344  89.2298266
 103.4714912  39.1781074  89.0827760 102.6810456  39.1605213  88.5432260
 103.2348266  39.7169368  89.8376797 103.5912787  36.0273540  86.3960489
 103.6410792  35.8623548  87.3376012 103.4826710  35.1600800  86.0058370
  92.4749046  38.7062086  73.6852578  92.6237166  39.3897551  73.0319250
  93.2815489  38.6867176  74.2002033 100.8816549  32.0104469  87.7119796
 101.7826412  31.8710933  87.4203793 100.9564524  32.1758923  88.6517973
  95.2159355  29.3871323  86.5572982  94.3462664  29.6804889  86.2855570
  95.4518835  29.9711768  87.2780245 105.0930984  38.4470482  86.6402510
 104.8015792  38.8100463  87.4765971 104.4803115  37.7337490  86.4615842
 106.2926666  36.0123362  79.1605081 107.1273557  36.4513166  79.3242641
 106.4285795  35.5362015  78.3413326 103.3418172  33.5703097  85.1082568
 103.8172294  33.7630743  84.3001420 102.4183737  33.6262282  84.8625952
  90.2301679  34.7327264  74.6913647  89.9847721  33.8289594  74.8893857
  90.3997593  34.7344414  73.7493125  97.9198389  25.6050940  84.0738402
  98.4380332  26.3411967  83.7484891  97.5653521  25.9114933  84.9085161
  89.4997326  30.4655621  72.1899808  88.8066571  30.5399976  71.5339844
  89.2549078  29.7015965  72.7121325  98.1710983  22.0251223  79.5939299
  98.4512736  21.3574412  80.2199725  98.9561590  22.2180318  79.0813963
  95.9744451  41.2010217  71.1564325  95.4018418  41.8200404  70.7034797
  96.5477245  41.7509578  71.6904247 102.0419841  30.4468857  83.3410874
 102.9937264  30.5466954  83.3623098 101.8723291  29.6547125  83.8508958
 100.0634220  27.5324440  83.5270275  99.4684153  27.8129453  82.8316763
  99.7783917  28.0218341  84.2987016  99.1941711  41.4847367  72.2872907
 100.1272384  41.4192928  72.4905783  99.1064924  42.3203634  71.8287440
 101.8229728  40.8013237  69.2476855 101.7443359  40.4673101  70.1412613
 102.6439394  41.2935005  69.2468327 104.5207919  33.6674976  82.4553174
 104.4884239  32.7290977  82.6412857 105.1308542  33.7459013  81.7218998
  96.3591250  32.5371029  68.4980378  97.3050354  32.4077237  68.5668796
  95.9805495  31.7985691  68.9749806 104.6702407  30.4586020  82.5011457
 104.1541456  29.6744476  82.3141386 105.5542356  30.1304736  82.6657976
 102.3313134  24.2027035  78.4607269 102.1337955  23.8942124  79.3450601
 102.9412840  24.9288674  78.5905199 110.3384469  34.7290983  81.5959210
 111.0687857  34.4676271  82.1566914 109.7291414  33.9919705  81.6361278
 108.4199766  32.8698846  82.1933662 107.6932929  32.7354811  81.5850153
 108.0047053  33.1775674  82.9990380  96.2429942  36.5888776  89.9581035
  97.1632952  36.7667375  90.1521081  96.2079525  35.6444821  89.8060734
  94.5434167  30.4621006  68.4335263  93.6365622  30.1654118  68.5097976
  94.8210148  30.1650824  67.5669549  85.4612107  31.7827369  78.8834309
  85.1414892  30.9292677  78.5908683  84.9145535  31.9975947  79.6392277
  89.2392015  34.4989810  82.6003816  89.4578025  35.4306918  82.6191850
  89.6517789  34.1397785  83.3858620  96.1596233  25.0057895  74.5879504
  95.3496961  24.6604980  74.9634750  96.8480649  24.6965439  75.1767116
  98.0886781  24.0835942  76.2103801  98.6417819  24.5031396  76.8693824
  98.3256867  23.1571690  76.2526757  94.1119880  30.0723016  91.9906565
  94.0116607  31.0217373  91.9218656  93.8941422  29.7441255  91.1182635
  93.3132951  27.3207941  68.5747242  94.1752115  27.6462839  68.8343059
  93.4983296  26.5339437  68.0620308  85.3300367  35.4030281  80.8527431
  84.6363839  34.9884233  80.3397385  86.0773358  35.4450817  80.2560850
 101.4665588  26.1936467  75.7182465 100.8864257  26.8521271  75.3360517
 101.2001521  25.3713812  75.3069883  99.9169154  25.5941525  77.9203785
 100.4168933  25.7058060  77.1118104 100.5604762  25.2902578  78.5604594
  93.9751150  33.5020155  90.8071626  93.4918232  34.3020515  91.0135515
  94.0612089  33.5128100  89.8539070  87.2437110  35.3348534  78.7293446
  87.2207798  35.4336222  77.7775329  87.5537746  36.1813685  79.0510612
  89.9024488  37.3924689  82.8440060  90.8567741  37.3608632  82.7769992
  89.7037011  36.9315313  83.6590286  90.4923870  35.9625806  85.4110858
  91.3116759  36.4569884  85.4345695  90.7660677  35.0457774  85.3828425
 100.2490466  28.3536558  74.7738813  99.3616321  28.6386208  74.5559008
 100.6644455  28.1930321  73.9266090 103.6005002  28.3783079  78.4893153
 104.3765392  28.8679531  78.7617769 102.8753136  28.8041133  78.9465022
 106.0377561  29.0910698  79.5467093 106.6322052  28.8506434  78.8360401
 106.1104144  28.3717829  80.1740629  88.2574716  42.9344309  79.8610258
  88.1229184  42.1744710  79.2948256  87.8406779  43.6585209  79.3939047
  99.3933679  38.1181233  68.8686833 100.0969530  38.3231235  69.4844489
  98.6696328  38.6857994  69.1335917 100.2231490  33.8691094  74.9889103
 100.1666691  34.3259645  74.1496736 100.7759832  33.1081778  74.8111946
 104.0336296  29.6580826  75.8139223 103.7773230  29.2577461  76.6447431
 103.4089164  30.3724620  75.6889362 108.3448633  32.3976899  78.3210514
 107.7848191  32.4670088  79.0942076 107.7392137  32.2217884  77.6010011
  91.4143842  43.8313626  80.0728701  91.2976226  44.7759058  79.9707391
  90.5936289  43.5287188  80.4614500 101.3020377  38.5563762  70.9185293
 102.1365981  38.1244960  70.7362768 101.1404720  38.3845775  71.8462188
 100.9566269  35.0595875  72.2841633 100.9015073  34.8940146  71.3430077
 100.3312324  35.7671908  72.4403822  85.7458784  30.2963939  86.1103055
  86.3917648  29.7862893  86.5990280  85.5375935  31.0332621  86.6846480
  98.2712176  37.3644787  91.6095195  99.1403336  37.5385439  91.2481830
  97.7918928  38.1839204  91.4870925  94.2662394  24.5603984  71.8626951
  94.2541064  25.5045824  72.0195222  95.1585816  24.3774129  71.5686412
  92.4398356  44.4841888  83.2884629  93.3425603  44.5165498  83.6051124
  92.2135726  43.5542339  83.3030965  94.1951958  43.2372874  79.9494708
  93.2447589  43.2374736  79.8359080  94.4984445  42.4905609  79.4330742
  98.0814514  21.1546761  76.1172888  97.3146910  20.6005247  76.2629570
  98.4925219  21.2268629  76.9787039  90.0856275  27.4431556  90.2078069
  90.9487737  27.0868361  90.4181394  89.5121686  27.1045451  90.8953473
 109.9304652  49.0733413  81.0140470 110.5683062  48.9540160  80.3103810
 109.8125495  50.0214257  81.0728422 106.7394358  49.0260841  80.9501995
 106.4012870  48.9101906  80.0622530 107.6084126  48.6252006  80.9303001
 102.5981174  50.8796317  76.9398886 102.0346039  50.7886254  76.1715174
 102.4833569  50.0596222  77.4201378 107.2214141  50.1795693  86.9088200
 107.2102782  49.7848491  86.0368704 107.3834781  49.4461765  87.5021972
 100.1445606  52.3747509  79.7783106 100.9366898  52.0338334  79.3629406
 100.3842256  52.4842484  80.6985260 108.1780733  54.5467285  72.2513351
 107.5268712  55.1321365  71.8647364 108.9725095  55.0773480  72.3108388
 102.1036360  51.6356422  72.6500485 102.8767236  51.0885409  72.5113361
 102.4561759  52.5000672  72.8614946 103.9421402  52.9632804  85.8567384
 103.6511268  53.8678435  85.7414051 104.5778387  53.0049332  86.5711454
 104.8677609  50.3409653  82.4468744 105.4641181  50.1165675  81.7325707
 104.9252581  49.5994398  83.0494192 104.4402638  47.7949088  70.2818935
 104.6928158  47.2730610  69.5202398 103.5027197  47.6315234  70.3845619
 109.4845920  46.7984867  78.0893678 110.2709010  46.3804290  77.7384095
 109.7484625  47.7030959  78.2575327 109.6555998  52.2357717  72.7882335
 109.0201831  52.3092343  73.5003240 109.3253404  52.8251316  72.1101414
 114.8854348  46.7360100  78.9926657 115.6179519  46.1659317  79.2264486
 114.1293703  46.3481700  79.4333162 104.1598926  49.6977194  72.4843310
 104.0435184  49.0222098  73.1524394 104.2701186  49.2109568  71.6675463
 106.5030467  49.1587341  76.1889999 106.1388674  48.6317962  76.9002921
 107.3597583  48.7685810  76.0156485 112.4079768  40.4481674  83.4521265
 112.0763093  41.3177085  83.2282480 111.8125381  40.1317958  84.1315296
 106.1435954  44.1877241  71.1851348 106.3110357  45.0557477  71.5521819
 105.9533123  44.3504523  70.2612637 108.9011287  52.6494220  82.8517178
 108.6012010  53.5519259  82.7432985 108.5562347  52.3826403  83.7038331
 102.3523769  49.1008017  78.8853882 101.4274265  48.9684231  79.0931574
 102.6008182  49.8802236  79.3823825 112.3008431  45.1676760  80.5314615
 111.3925309  45.0992169  80.2373376 112.2496027  45.6448705  81.3596441
 106.1225175  46.6434899  72.1698014 106.0024800  47.0891949  73.0083495
 105.4277763  46.9920216  71.6111553  99.7132580  48.7441290  79.7197672
  99.8424961  48.9975769  80.6337083  99.0330031  49.3368998  79.4002327
 106.3749297  46.5866406  88.4749513 105.5982631  47.1460326  88.4652377
 107.0139860  47.0723189  88.9964383 114.1670078  43.3693199  82.3092489
 113.5244458  43.6625732  81.6632284 113.6625006  43.2546119  83.1145686
 111.8210241  47.1156372  72.9978349 112.7328097  47.3483758  72.8226046
 111.3119888  47.6993416  72.4353427 104.6295669  49.3951859  88.0367480
 105.3710354  49.9336903  87.7602303 103.9232655  50.0218148  88.1939031
 110.1051009  51.5381000  86.6339641 110.5134365  51.0963410  85.8894273
 109.3828270  50.9633627  86.8873834 106.4582079  46.4753606  84.0073198
 107.3043274  46.8993020  84.1507847 106.3980717  45.8187231  84.7011761
 110.4279824  52.0982190  80.3891930 109.7988686  52.2627904  79.6867998
 110.0405486  52.5123800  81.1602894 114.3069055  53.0336628  77.7436294
 113.6220094  53.4135529  77.1933327 114.3912905  53.6431955  78.4768241
 109.6081524  44.1357975  85.6654372 109.3642456  44.8900035  85.1288647
 109.8841455  44.5143322  86.5001619 111.5619987  50.6796587  84.3431637
 111.7736882  51.3228347  83.6666018 111.5149735  49.8458904  83.8753567
 109.1646216  43.2914408  81.2468209 108.3030695  43.5895661  81.5384947
 109.1908651  43.5084807  80.3149242 105.9807785  51.8356598  77.6542015
 106.4446131  52.1144301  76.8646638 105.7164584  50.9340043  77.4715106
 102.8731867  51.3828080  80.5921778 103.4433224  51.8115348  79.9539263
 103.4639978  51.1010665  81.2905964 104.9176672  47.9579751  74.4631580
 105.6200715  48.4100794  74.9305507 104.5857300  47.3163570  75.0911473
 103.3657033  46.5491507  88.8382790 102.7355694  47.2307788  89.0718186
 103.2593121  46.4374589  87.8935928  98.6602005  46.2163303  79.7648714
  97.8701059  46.4720832  79.2888824  99.1513253  47.0311641  79.8700754
 112.6765815  53.5568542  82.5153995 113.4983259  53.1548730  82.2336676
 112.6728218  53.4536777  83.4670110 100.6116751  46.5807883  76.7232190
  99.8147914  46.6926577  77.2415686 100.3842343  46.9194535  75.8573081
 106.4422418  53.1052586  84.6714705 106.5066851  53.5672993  85.5072877
 105.7333342  52.4749951  84.7997015  96.9439708  46.4693794  82.1963705
  97.1947747  47.3540804  82.4621281  97.4799257  46.2898395  81.4238796
 120.7671808  49.9007291  78.8638966 120.0135516  49.3314689  78.7082971
 120.9019349  49.8669955  79.8109601 102.6437776  40.8512273  91.2008041
 102.2504721  40.2978472  91.8755685 103.4603916  41.1622852  91.5914558
  99.6099834  52.2896131  75.1121611 100.1224354  53.0839382  75.2627175
 100.2622546  51.5922422  75.0455212 105.5605737  42.2670152  88.7928297
 106.3015450  42.8677305  88.7132760 105.7923660  41.5247790  88.2346340
 100.7047075  47.4526519  87.0706527 100.5900590  46.5511777  87.3713626
  99.8491593  47.6990216  86.7191343 107.7838913  55.3944260  88.6694028
 107.3402767  54.6080638  88.3514932 108.4456126  55.5823410  88.0037918
 102.5426034  56.9240061  83.1954706 103.0933459  56.7957125  82.4231700
 101.7037510  57.2234950  82.8449599 109.8820151  55.6747060  86.6975429
 109.8638626  56.4955941  86.2055698 110.8040071  55.5501135  86.9225570
 106.3393205  53.1891189  87.5398937 106.8721542  52.4279477  87.3098245
 105.8107286  52.8964841  88.2823092 109.5062900  38.2951255  83.0692579
 109.1627169  39.1852897  82.9931689 109.8741862  38.1052913  82.2062164
  97.5748750  50.6184786  75.8881181  98.4123972  51.0281794  75.6714889
  97.7527018  49.6784228  75.8581375 109.4713182  48.2859866  71.5765014
 108.9559806  49.0564471  71.8153401 109.1990491  47.6125002  72.1998075
 107.0560293  43.1309567  76.6350252 106.2001890  42.7416417  76.4555891
 107.4687245  43.2101528  75.7750038 108.5859440  40.6655910  81.0341812
 108.0824236  40.6286045  80.2209617 108.8790047  41.5748653  81.0938469
 104.8302326  40.7494640  80.0407994 105.6955323  40.5537449  79.6813883
 104.8979835  40.5204992  80.9677351 114.4447457  51.0392221  73.5118187
 113.6676899  50.7003380  73.0673350 115.1238938  51.0444844  72.8373153
 109.2599486  46.1586958  73.4024795 108.9549621  46.4733108  74.2534938
 110.2129928  46.2368378  73.4452128 107.7045917  52.3177182  75.0517749
 107.1767279  51.5829941  74.7390987 107.2033420  53.0951858  74.8057717
 112.6838763  50.5126202  80.1684795 112.0262438  51.2025464  80.2564924
 113.4879163  50.9022634  80.5118782 102.4364645  42.9796848  77.4124361
 103.0108397  42.7572029  76.6797554 103.0235627  43.0485542  78.1652962
 111.4944222  48.8670575  78.2188737 112.0076104  49.5000567  78.7210447
 112.1445446  48.2671770  77.8532097 102.7634232  45.0101309  71.4320246
 101.9271544  45.3475996  71.7529521 102.6239002  44.8750289  70.4947383
 104.7387313  39.8538097  76.1399430 104.0851725  39.5387114  75.5156045
 104.6967787  39.2313837  76.8659253 105.8498518  50.1357392  68.0552722
 104.9425579  49.9046645  68.2543871 106.3469550  49.3395011  68.2426704
 108.7566596  58.8454899  70.9749408 108.0828295  59.1486596  71.5834366
 109.1432418  59.6483979  70.6254865 107.9725053  46.3420030  80.4647078
 107.0547614  46.5634977  80.3068766 108.3885197  46.4166341  79.6058785
 108.7560101  47.7411446  75.5949758 109.5031920  48.2532843  75.2856880
 109.0251690  47.4195499  76.4554152 107.0286751  50.2369987  72.5776712
 106.1197970  49.9529020  72.6749182 107.0581835  50.6569065  71.7180019
 112.2606018  53.8476576  76.3467880 111.8068346  53.0067486  76.4033070
 111.6299985  54.4837975  76.6842660 111.2038938  44.7768562  77.5768547
 110.4661695  44.2645949  77.9078790 111.4565712  44.3368944  76.7651824
 110.7038958  55.6853073  77.2817698 110.9961932  56.2458130  76.5630064
 111.2137578  55.9781634  78.0370857 111.3050565  37.5544814  78.1710317
 111.6109442  36.6942178  77.8836232 112.0303170  38.1462435  77.9709310
  97.5974921  47.9575501  76.5591914  97.3999321  47.3644862  75.8342981
  97.0421585  47.6527711  77.2767853 105.5771645  47.8498607  78.6786508
 105.6320255  46.8972444  78.6028984 104.7662847  48.0058047  79.1627806
 106.7262839  51.7778730  69.9164791 106.2882269  51.0614589  69.4570428
 107.4673280  52.0054845  69.3549882 103.5164005  46.4675667  76.4376887
 102.7031871  46.7669838  76.8442079 104.0122999  46.0731356  77.1551369
 105.6672583  56.4633424  78.3711151 105.6248762  56.6894270  77.4419683
 106.5835282  56.2296799  78.5196952 109.1138217  46.9317492  85.2691780
 109.4687604  47.1588965  86.1286246 109.7610348  47.2635868  84.6469036
 114.8435954  50.0535928  75.9741109 114.7053852  50.2437523  75.0462299
 114.4872172  50.8155310  76.4309161 103.0078080  44.0394023  82.0538121
 103.6477459  43.8982782  81.3561085 102.1755610  43.7528536  81.6776723
 114.8705333  52.1212455  80.9852381 115.3041840  52.0287744  81.8335435
 115.5836914  52.0969955  80.3472397 103.7838384  53.3396453  78.1673114
 104.5778982  52.8446773  77.9655689 103.0730076  52.8114316  77.8040819
 108.6033228  55.7214549  82.5185482 108.6570250  56.2905485  83.2863197
 107.7348010  55.8916434  82.1539519 100.0921147  47.4839535  74.2432867
  99.1618735  47.4223990  74.4602829 100.1878619  46.9615488  73.4469508
 100.0106696  44.0094348  76.8311108 100.2713513  44.9239681  76.7220269
 100.8323869  43.5418790  76.9807721 101.4831622  45.4232105  84.0009933
 102.1554675  45.2149467  83.3522582 100.6561408  45.2254191  83.5615165
 115.7320883  52.1636155  83.5185266 115.9256773  53.0681966  83.7644541
 115.6321501  51.7043574  84.3523851 107.3857194  42.0494046  86.0175594
 106.7385109  42.7483995  85.9240070 108.1558209  42.4830190  86.3851842
 110.7935991  52.3142898  89.0926147 110.6421498  52.0853450  88.1756231
 110.7840671  53.2713499  89.1057492 107.5621328  49.8874811  84.0772413
 108.4913388  50.0385970  83.9041381 107.1412358  49.9758831  83.2221060
 106.3609660  53.9125475  81.8470951 106.2220745  53.5444259  82.7196889
 105.5724256  54.4273115  81.6754909 107.9114875  53.2907078  79.2359789
 107.5764707  53.2507848  80.1317439 107.4118820  52.6251794  78.7630199
 101.8859119  48.6974708  84.7612370 101.7478917  47.9654947  85.3623909
 102.7964042  48.6083608  84.4796558 110.8474066  50.6363112  69.5096848
 110.2303237  49.9109940  69.4129901 110.3790555  51.3972472  69.1663923
 104.5141419  48.4094667  84.2496050 105.2241038  47.7687859  84.2082668
 104.4710728  48.6607562  85.1722230 112.5028198  55.3462020  87.1702629
 112.4440744  54.6621241  86.5033212 112.9047717  56.0881010  86.7183255
 103.2270353  45.3959885  86.0691689 102.6907710  44.9450623  86.7213285
 102.6387062  45.5305794  85.3262153 102.6372612  44.8548536  68.6318153
 101.7602079  44.7337337  68.2680399 103.1130365  44.0634615  68.3797041
 112.5045605  53.3101604  85.4016608 111.6172384  52.9727526  85.5243007
 113.0744156  52.5784636  85.6385374  98.9609475  44.5315893  83.1544684
  98.8767663  43.9241562  82.4195094  98.1392181  45.0224911  83.1554180
 106.0346759  57.9703057  82.3677852 105.9616930  58.7758028  82.8797156
 105.5924152  58.1695023  81.5425873 109.1333189  43.0169456  78.5214879
 109.6301888  42.2639419  78.2015949 108.3620170  43.0533773  77.9558088
 116.9862946  48.7209822  80.1633170 116.9752822  49.6034537  79.7927103
 116.1180325  48.3681373  79.9687707 108.4945442  57.8689891  84.5236010
 109.2073415  58.5037356  84.4511912 108.0035471  57.9653757  83.7076012
 110.2162969  51.7741143  76.0953302 109.2819248  51.8942606  75.9258006
 110.3939638  50.8713610  75.8313312 105.7168157  45.1586839  78.2486563
 105.3465945  44.6057880  78.9367469 106.2127250  44.5544973  77.6961563
 113.6035521  47.6158463  76.6303336 114.0695973  48.4486454  76.5563639
 114.0543021  47.1503444  77.3348595 103.5457356  55.6184334  85.3441581
 104.2466815  56.2520817  85.4970975 103.0752471  55.9599066  84.5837220
 111.6711752  53.9602284  73.6289488 111.9471596  53.8458879  74.5383362
 110.8016250  53.5619769  73.5901661 111.5752183  39.9839050  80.6694237
 110.6615263  40.2143277  80.8376444 112.0045285  40.0677494  81.5208270
 111.3458642  48.1728942  83.1694132 110.6930092  48.4204849  82.5146584
 111.7239022  47.3593080  82.8356609 108.3065816  58.2088635  77.2722302
 108.4888210  57.3910291  77.7350054 109.1298802  58.4256327  76.8347192
 108.6407981  57.1356820  74.5337350 109.1695748  56.6249275  73.9207512
 108.9036201  56.8199350  75.3982883 107.3946215  48.9148753  89.6560169
 106.7186852  48.8142882  90.3262544 108.2173849  48.7587967  90.1196166
  99.1425074  55.1520689  82.2772684  99.7278511  54.4064377  82.4100588
  98.9449912  55.4624646  83.1609348 106.1368998  60.2215680  83.8917785
 106.6887306  60.3847302  84.6566870 106.4775191  60.8120118  83.2197809
 101.1133491  42.5690830  84.4939669 101.1774817  43.4305661  84.0817067
 101.0500611  41.9564832  83.7612028 100.5885763  44.6413963  88.1412704
 101.2157802  44.2591040  88.7550228  99.7313682  44.4228164  88.5068396
 110.9879872  55.0476938  89.7466439 111.5319776  55.6606896  89.2521394
 110.4066717  55.6056516  90.2633452  97.3651306  46.4490392  74.0731058
  97.6604747  45.5401070  74.0198112  96.4639342  46.4278131  73.7512061
 109.2737385  58.1697656  80.8781467 109.1488524  57.3687396  80.3692412
 109.9316476  58.6643849  80.3895437 100.8945553  44.5246388  80.0558607
 100.1732139  45.1382356  79.9166080 101.6838809  45.0604153  79.9775253
 111.3372293  55.9706676  82.5061017 110.3902629  55.8512027  82.4339344
 111.6855066  55.0829174  82.5887278 103.6971867  41.8600815  86.3299259
 104.2206269  42.1063111  87.0925568 103.4784200  42.6920850  85.9102396
  99.0939148  44.1304489  74.1970384  98.7651854  43.2501868  74.0145489
  99.4478518  44.0752158  75.0846773 108.3418727  55.7659392  78.7065369
 108.1943689  54.8376099  78.8872939 109.1672220  55.7879483  78.2222444
 102.2080971  44.4177459  74.5645861 102.5477043  44.9463380  73.8424470
 102.6553091  44.7557865  75.3404428 111.9452849  56.5887951  79.7930242
 112.8699396  56.3830812  79.6554693 111.7768152  56.3404352  80.7019583
 104.9024412  42.8014510  84.0148929 104.5621232  42.0022323  84.4169609
 104.1963418  43.1016221  83.4425762 105.5540884  39.8863822  82.4676252
 106.3766953  39.4124300  82.3455143 105.7978947  40.6654306  82.9674939
 104.1949118  42.9152081  72.7639154 104.9157481  43.2933334  72.2602871
 103.5714422  43.6340958  72.8674132 108.3380241  43.6197230  73.6997486
 108.5543855  44.5021868  73.3986314 107.8574308  43.2283443  72.9703128
 103.0779462  46.5782943  80.2768231 102.9324043  46.8923246  81.1692512
 102.6004666  47.1967843  79.7239130 104.9375845  43.5685491  80.3249120
 104.9237414  42.6726584  79.9881418 105.6548273  43.5756155  80.9587407
 106.7901976  44.0022831  82.3702248 106.5319754  44.9239902  82.3686578
 106.2587016  43.6053266  83.0602712 111.7348165  57.1073618  75.1492333
 111.9085042  56.5420041  74.3966186 112.2277056  57.9074513  74.9671823
  97.5525125  49.1188287  83.2155892  97.0078593  49.8948095  83.3476166
  98.4304474  49.4659092  83.0575014 104.3412741  42.4499871  75.5936691
 104.4628652  41.5216517  75.7927578 104.0514784  42.4638557  74.6815006
 107.2103932  40.1354782  78.7303410 107.2325628  40.1994115  77.7755390
 107.6271991  39.2959290  78.9243917 117.5887556  49.8710041  76.7682633
 118.0318702  49.1217366  76.3701756 116.7114066  49.8620178  76.3856365
 112.7223337  56.4240383  72.2489232 113.4174242  57.0447075  72.4676546
 113.0646487  55.5735734  72.5241609  98.3391146  48.2458184  86.1086049
  97.5972882  48.3940819  86.6950679  98.0183891  48.5066449  85.2452798
 114.6214760  53.8740088  73.7776562 115.1466084  54.2127361  73.0525882
 114.5337113  52.9387103  73.5939697 106.2834809  57.7874162  85.9066439
 106.5921935  57.5423309  86.7789139 107.0810291  57.9920800  85.4185309
 106.3055421  59.9412071  78.1371816 105.8660411  59.4488450  78.8304672
 107.0563538  59.3985039  77.8963891 103.7529293  55.4850081  80.2094117
 103.1309303  54.8220786  79.9096345 104.4234160  55.5111212  79.5267765
  96.9856365  54.0509939  79.0985377  96.1488273  53.6232113  78.9169378
  96.9580011  54.2442382  80.0356168 103.8253821  43.9631869  89.8026623
 103.8741976  44.8393991  89.4204393 104.3676335  43.4209262  89.2298266
 114.3108666  54.5072992  89.0827760 113.5204210  54.4897131  88.5432260
 114.0742021  55.0461285  89.8376797 114.4306541  51.3565458  86.3960489
 114.4804546  51.1915466  87.3376012 114.3220465  50.4892717  86.0058370
 103.3142800  54.0354004  73.6852578 103.4630921  54.7189468  73.0319250
 104.1209244  54.0159094  74.2002033 111.7210304  47.3396386  87.7119796
 112.6220167  47.2002851  87.4203793 111.7958278  47.5050841  88.6517973
 106.0553109  44.7163241  86.5572982 105.1856419  45.0096807  86.2855570
 106.2912590  45.3003686  87.2780245 115.9324738  53.7762400  86.6402510
 115.6409547  54.1392380  87.4765971 115.3196870  53.0629408  86.4615842
 117.1320421  51.3415279  79.1605081 117.9667312  51.7805084  79.3242641
 117.2679549  50.8653933  78.3413326 114.1811927  48.8995014  85.1082568
 114.6566048  49.0922661  84.3001420 113.2577492  48.9554200  84.8625952
 101.0695433  50.0619181  74.6913647 100.8241475  49.1581511  74.8893857
 101.2391348  50.0636332  73.7493125 108.7592143  40.9342858  84.0738402
 109.2774087  41.6703885  83.7484891 108.4047276  41.2406851  84.9085161
 100.3391081  45.7947539  72.1899808  99.6460326  45.8691894  71.5339844
 100.0942833  45.0307883  72.7121325 109.0104737  37.3543140  79.5939299
 109.2906491  36.6866329  80.2199725 109.7955344  37.5472236  79.0813963
 106.8138206  56.5302134  71.1564325 106.2412173  57.1492321  70.7034797
 107.3870999  57.0801496  71.6904247 112.8813596  45.7760774  83.3410874
 113.8331018  45.8758872  83.3623098 112.7117046  44.9839043  83.8508958
 110.9027975  42.8616358  83.5270275 110.3077907  43.1421370  82.8316763
 110.6177672  43.3510259  84.2987016 110.0335465  56.8139284  72.2872907
 110.9666139  56.7484846  72.4905783 109.9458678  57.6495551  71.8287440
 112.6623482  56.1305155  69.2476855 112.5837114  55.7965018  70.1412613
 113.4833149  56.6226923  69.2468327 115.3601673  48.9966894  82.4553174
 115.3277993  48.0582895  82.6412857 115.9702297  49.0750931  81.7218998
 107.1985004  47.8662947  68.4980378 108.1444109  47.7369155  68.5668796
 106.8199249  47.1277609  68.9749806 115.5096162  45.7877938  82.5011457
 114.9935210  45.0036394  82.3141386 116.3936110  45.4596654  82.6657976
 113.1706889  39.5318953  78.4607269 112.9731710  39.2234041  79.3450601
 113.7806594  40.2580592  78.5905199 121.1778223  50.0582901  81.5959210
 121.9081612  49.7968189  82.1566914 120.5685169  49.3211623  81.6361278
 119.2593520  48.1990764  82.1933662 118.5326684  48.0646728  81.5850153
 118.8440807  48.5067592  82.9990380 107.0823697  51.9180693  89.9581035
 108.0026706  52.0959292  90.1521081 107.0473280  50.9736739  89.8060734
 105.3827921  45.7912923  68.4335263 104.4759377  45.4946036  68.5097976
 105.6603902  45.4942742  67.5669549  96.3005862  47.1119287  78.8834309
  95.9808646  46.2584595  78.5908683  95.7539290  47.3267865  79.6392277
 100.0785769  49.8281728  82.6003816 100.2971779  50.7598836  82.6191850
 100.4911543  49.4689702  83.3858620 106.9989987  40.3349813  74.5879504
 106.1890715  39.9896898  74.9634750 107.6874404  40.0257357  75.1767116
 108.9280535  39.4127860  76.2103801 109.4811574  39.8323313  76.8693824
 109.1650622  38.4863608  76.2526757 104.9513635  45.4014934  91.9906565
 104.8510361  46.3509291  91.9218656 104.7335177  45.0733173  91.1182635
 104.1526706  42.6499859  68.5747242 105.0145870  42.9754757  68.8343059
 104.3377050  41.8631355  68.0620308  96.1694122  50.7322198  80.8527431
  95.4757593  50.3176151  80.3397385  96.9167113  50.7742735  80.2560850
 112.3059342  41.5228385  75.7182465 111.7258011  42.1813189  75.3360517
 112.0395275  40.7005730  75.3069883 110.7562909  40.9233443  77.9203785
 111.2562687  41.0349977  77.1118104 111.3998517  40.6194496  78.5604594
 104.8144905  48.8312072  90.8071626 104.3311986  49.6312433  91.0135515
 104.9005844  48.8420017  89.8539070  98.0830864  50.6640452  78.7293446
  98.0601552  50.7628139  77.7775329  98.3931501  51.5105603  79.0510612
 100.7418242  52.7216607  82.8440060 101.6961496  52.6900549  82.7769992
 100.5430766  52.2607231  83.6590286 101.3317624  51.2917723  85.4110858
 102.1510513  51.7861802  85.4345695 101.6054432  50.3749691  85.3828425
 111.0884220  43.6828476  74.7738813 110.2010075  43.9678126  74.5559008
 111.5038210  43.5222239  73.9266090 114.4398757  43.7074996  78.4893153
 115.2159147  44.1971449  78.7617769 113.7146891  44.1333051  78.9465022
 116.8771315  44.4202616  79.5467093 117.4715806  44.1798352  78.8360401
 116.9497899  43.7009746  80.1740629 110.2327434  53.4473150  68.8686833
 110.9363284  53.6523153  69.4844489 109.5090083  54.0149912  69.1335917
 111.0625244  49.1983011  74.9889103 111.0060446  49.6551563  74.1496736
 111.6153587  48.4373696  74.8111946 114.8730050  44.9872743  75.8139223
 114.6166984  44.5869379  76.6447431 114.2482918  45.7016537  75.6889362
 119.1842388  47.7268817  78.3210514 118.6241946  47.7962006  79.0942076
 118.5785891  47.5509801  77.6010011 112.1414131  53.8855679  70.9185293
 112.9759735  53.4536878  70.7362768 111.9798474  53.7137693  71.8462188
 111.7960023  50.3887793  72.2841633 111.7408827  50.2232064  71.3430077
 111.1706079  51.0963826  72.4403822  96.5852538  45.6255857  86.1103055
  97.2311402  45.1154811  86.5990280  96.3769690  46.3624539  86.6846480
 109.1105931  52.6936705  91.6095195 109.9797090  52.8677357  91.2481830
 108.6312682  53.5131121  91.4870925 105.1056149  39.8895902  71.8626951
 105.0934819  40.8337742  72.0195222 105.9979571  39.7066047  71.5686412
 103.2792111  59.8133806  83.2884629 104.1819358  59.8457416  83.6051124
 103.0529481  58.8834257  83.3030965 105.0345713  58.5664792  79.9494708
 104.0841344  58.5666654  79.8359080 105.3378199  57.8197527  79.4330742
 108.9208268  36.4838678  76.1172888 108.1540664  35.9297165  76.2629570
 109.3318973  36.5560547  76.9787039 100.9250029  42.7723474  90.2078069
 101.7881491  42.4160279  90.4181394 100.3515440  42.4337369  90.8953473
 120.7698406  64.4025331  81.0140470 121.4076816  64.2832078  80.3103810
 120.6519249  65.3506174  81.0728422 117.5788113  64.3552759  80.9501995
 117.2406624  64.2393823  80.0622530 118.4477881  63.9543924  80.9303001
 113.4374928  66.2088235  76.9398886 112.8739794  66.1178172  76.1715174
 113.3227323  65.3888139  77.4201378 118.0607896  65.5087610  86.9088200
 118.0496536  65.1140409  86.0368704 118.2228535  64.7753683  87.5021972
 110.9839360  67.7039427  79.7783106 111.7760652  67.3630251  79.3629406
 111.2236010  67.8134402  80.6985260 119.0174487  69.8759203  72.2513351
 118.3662467  70.4613283  71.8647364 119.8118850  70.4065398  72.3108388
 112.9430114  66.9648340  72.6500485 113.7160990  66.4177327  72.5113361
 113.2955513  67.8292589  72.8614946 114.7815157  68.2924722  85.8567384
 114.4905023  69.1970353  85.7414051 115.4172141  68.3341250  86.5711454
 115.7071364  65.6701571  82.4468744 116.3034936  65.4457593  81.7325707
 115.7646335  64.9286316  83.0494192 115.2796392  63.1241006  70.2818935
 115.5321913  62.6022527  69.5202398 114.3420951  62.9607151  70.3845619
 120.3239675  62.1276784  78.0893678 121.1102764  61.7096208  77.7384095
 120.5878379  63.0322877  78.2575327 120.4949752  67.5649635  72.7882335
 119.8595585  67.6384261  73.5003240 120.1647159  68.1543233  72.1101414
 125.7248102  62.0652018  78.9926657 126.4573274  61.4951234  79.2264486
 124.9687458  61.6773618  79.4333162 114.9992681  65.0269112  72.4843310
 114.8828939  64.3514015  73.1524394 115.1094941  64.5401486  71.6675463
 117.3424222  64.4879259  76.1889999 116.9782429  63.9609880  76.9002921
 118.1991338  64.0977728  76.0156485 123.2473522  55.7773592  83.4521265
 122.9156847  56.6469003  83.2282480 122.6519136  55.4609876  84.1315296
 116.9829709  59.5169159  71.1851348 117.1504111  60.3849395  71.5521819
 116.7926878  59.6796440  70.2612637 119.7405042  67.9786138  82.8517178
 119.4405765  68.8811176  82.7432985 119.3956101  67.7118321  83.7038331
 113.1917523  64.4299934  78.8853882 112.2668020  64.2976149  79.0931574
 113.4401937  65.2094154  79.3823825 123.1402186  60.4968678  80.5314615
 122.2319063  60.4284086  80.2373376 123.0889781  60.9740623  81.3596441
 116.9618930  61.9726816  72.1698014 116.8418555  62.4183867  73.0083495
 116.2671518  62.3212134  71.6111553 110.5526334  64.0733208  79.7197672
 110.6818716  64.3267687  80.6337083 109.8723786  64.6660916  79.4002327
 114.7225822  74.7430458  75.8188146 114.6449851  75.6938283  75.8976626
 114.1187465  74.3976330  76.4763072 117.2143051  61.9158323  88.4749513
 116.4376386  62.4752244  88.4652377 117.8533615  62.4015106  88.9964383
 125.0063832  58.6985116  82.3092489 124.3638212  58.9917649  81.6632284
 124.5018761  58.5838037  83.1145686 122.6603996  62.4448289  72.9978349
 123.5721852  62.6775676  72.8226046 122.1513643  63.0285334  72.4353427
 115.4689424  64.7243777  88.0367480 116.2104108  65.2628821  87.7602303
 114.7626409  65.3510066  88.1939031 120.9444763  66.8672917  86.6339641
 121.3528119  66.4255328  85.8894273 120.2222025  66.2925545  86.8873834
 117.2975833  61.8045524  84.0073198 118.1437029  62.2284938  84.1507847
 117.2374471  61.1479148  84.7011761 121.2673578  67.4274108  80.3891930
 120.6382441  67.5919822  79.6867998 120.8799240  67.8415717  81.1602894
 125.1462810  68.3628546  77.7436294 124.4613848  68.7427447  77.1933327
 125.2306659  68.9723872  78.4768241 120.4475279  59.4649892  85.6654372
 120.2036211  60.2191953  85.1288647 120.7235209  59.8435240  86.5001619
 122.4013742  66.0088505  84.3431637 122.6130637  66.6520265  83.6666018
 122.3543490  65.1750821  83.8753567 120.0039971  58.6206325  81.2468209
 119.1424450  58.9187579  81.5384947 120.0302405  58.8376724  80.3149242
 116.8201540  67.1648516  77.6542015 117.2839885  67.4436219  76.8646638
 116.5558338  66.2631961  77.4715106 113.7125621  66.7119998  80.5921778
 114.2826978  67.1407266  79.9539263 114.3033733  66.4302582  81.2905964
 115.7570426  63.2871668  74.4631580 116.4594469  63.7392712  74.9305507
 115.4251054  62.6455487  75.0911473 114.2050788  61.8783425  88.8382790
 113.5749448  62.5599706  89.0718186 114.0986875  61.7666507  87.8935928
 109.4995760  61.5455221  79.7648714 108.7094814  61.8012750  79.2888824
 109.9907007  62.3603559  79.8700754 123.5159570  68.8860460  82.5153995
 124.3377013  68.4840647  82.2336676 123.5121972  68.7828694  83.4670110
 111.4510505  61.9099800  76.7232190 110.6541669  62.0218494  77.2415686
 111.2236098  62.2486452  75.8573081 117.2816173  68.4344503  84.6714705
 117.3460605  68.8964911  85.5072877 116.5727097  67.8041868  84.7997015
 107.7833463  61.7985711  82.1963705 108.0341501  62.6832721  82.4621281
 108.3193011  61.6190313  81.4238796 131.6065563  65.2299209  78.8638966
 130.8529271  64.6606607  78.7082971 131.7413104  65.1961873  79.8109601
 116.9964191  70.1012611  74.5393685 116.8609865  70.9464147  74.9678533
 117.5374003  70.3031889  73.7759619 113.4831530  56.1804191  91.2008041
 113.0898476  55.6270389  91.8755685 114.2997671  56.4914769  91.5914558
 110.4493588  67.6188049  75.1121611 110.9618109  68.4131299  75.2627175
 111.1016301  66.9214339  75.0455212 112.2588473  70.7353805  77.1944364
 112.4355101  71.6571770  77.0065348 113.0545306  70.4212224  77.6238743
 116.3999491  57.5962070  88.7928297 117.1409205  58.1969223  88.7132760
 116.6317414  56.8539708  88.2346340 111.5440829  62.7818437  87.0706527
 111.4294344  61.8803694  87.3713626 110.6885347  63.0282134  86.7191343
 118.6232667  70.7236177  88.6694028 118.1796521  69.9372556  88.3514932
 119.2849881  70.9115328  88.0037918 113.3819788  72.2531979  83.1954706
 113.9327213  72.1249042  82.4231700 112.5431264  72.5526868  82.8449599
 120.7213905  71.0038977  86.6975429 120.7032380  71.8247858  86.2055698
 121.6433825  70.8793053  86.9225570 117.1786959  68.5183107  87.5398937
 117.7115296  67.7571395  87.3098245 116.6501040  68.2256759  88.2823092
 120.3456654  53.6243173  83.0692579 120.0020924  54.5144815  82.9931689
 120.7135617  53.4344830  82.2062164 108.4142505  65.9476703  75.8881181
 109.2517727  66.3573712  75.6714889 108.5920772  65.0076145  75.8581375
 120.3106937  63.6151784  71.5765014 119.7953560  64.3856389  71.8153401
 120.0384245  62.9416920  72.1998075 117.8954048  58.4601485  76.6350252
 117.0395644  58.0708335  76.4555891 118.3081000  58.5393446  75.7750038
 119.4253195  55.9947828  81.0341812 118.9217990  55.9577963  80.2209617
 119.7183801  56.9040571  81.0938469 115.6696080  56.0786558  80.0407994
 116.5349077  55.8829366  79.6813883 115.7373589  55.8496909  80.9677351
 125.2841211  66.3684139  73.5118187 124.5070654  66.0295298  73.0673350
 125.9632692  66.3736762  72.8373153 120.0993240  61.4878876  73.4024795
 119.7943376  61.8025025  74.2534938 121.0523682  61.5660296  73.4452128
 118.5439672  67.6469099  75.0517749 118.0161033  66.9121859  74.7390987
 118.0427175  68.4243776  74.8057717 123.5232518  65.8418120  80.1684795
 122.8656192  66.5317381  80.2564924 124.3272917  66.2314552  80.5118782
 113.2758400  58.3088766  77.4124361 113.8502151  58.0863947  76.6797554
 113.8629382  58.3777460  78.1652962 122.3337977  64.1962493  78.2188737
 122.8469858  64.8292484  78.7210447 122.9839201  63.5963688  77.8532097
 113.6027987  60.3393227  71.4320246 112.7665299  60.6767913  71.7529521
 113.4632756  60.2042206  70.4947383 115.5781067  55.1830015  76.1399430
 114.9245480  54.8679032  75.5156045 115.5361541  54.5605755  76.8659253
 116.6892272  65.4649310  68.0552722 115.7819334  65.2338563  68.2543871
 117.1863304  64.6686929  68.2426704 118.8118808  61.6711948  80.4647078
 117.8941369  61.8926895  80.3068766 119.2278951  61.7458259  79.6058785
 119.5953855  63.0703364  75.5949758 120.3425674  63.5824761  75.2856880
 119.8645445  62.7487416  76.4554152 117.8680506  65.5661904  72.5776712
 116.9591725  65.2820937  72.6749182 117.8975589  65.9860983  71.7180019
 123.0999773  69.1768494  76.3467880 122.6462100  68.3359404  76.4033070
 122.4693740  69.8129892  76.6842660 122.0432693  60.1060480  77.5768547
 121.3055449  59.5937866  77.9078790 122.2959466  59.6660862  76.7651824
 121.5432712  71.0144991  77.2817698 121.8355687  71.5750048  76.5630064
 122.0531333  71.3073552  78.0370857 122.1444320  52.8836732  78.1710317
 122.4503197  52.0234095  77.8836232 122.8696925  53.4754352  77.9709310
 108.4368676  63.2867419  76.5591914 108.2393076  62.6936779  75.8342981
 107.8815340  62.9819629  77.2767853 116.4165400  63.1790525  78.6786508
 116.4714009  62.2264361  78.6028984 115.6056602  63.3349964  79.1627806
 117.5656593  67.1070648  69.9164791 117.1276023  66.3906507  69.4570428
 118.3067034  67.3346763  69.3549882 114.3557759  61.7967585  76.4376887
 113.5425625  62.0961755  76.8442079 114.8516754  61.4023274  77.1551369
 116.5066337  71.7925342  78.3711151 116.4642516  72.0186188  77.4419683
 117.4229036  71.5588716  78.5196952 119.9531971  62.2609409  85.2691780
 120.3081359  62.4880882  86.1286246 120.6004102  62.5927786  84.6469036
 125.6829708  65.3827845  75.9741109 125.5447607  65.5729441  75.0462299
 125.3265927  66.1447228  76.4309161 113.8471834  59.3685940  82.0538121
 114.4871214  59.2274699  81.3561085 113.0149365  59.0820454  81.6776723
 125.7099088  67.4504372  80.9852381 126.1435594  67.3579661  81.8335435
 126.4230668  67.4261873  80.3472397 114.6232138  68.6688371  78.1673114
 115.4172737  68.1738691  77.9655689 113.9123831  68.1406234  77.8040819
 119.4426983  71.0506466  82.5185482 119.4964005  71.6197403  83.2863197
 118.5741764  71.2208351  82.1539519 110.9314902  62.8131453  74.2432867
 110.0012490  62.7515908  74.4602829 111.0272374  62.2907405  73.4469508
 110.8500451  59.3386265  76.8311108 111.1107268  60.2531599  76.7220269
 111.6717623  58.8710708  76.9807721 112.3225376  60.7524023  84.0009933
 112.9948429  60.5441385  83.3522582 111.4955163  60.5546109  83.5615165
 126.5714637  67.4928073  83.5185266 126.7650527  68.3973883  83.7644541
 126.4715255  67.0335492  84.3523851 118.2250948  57.3785963  86.0175594
 117.5778863  58.0775913  85.9240070 118.9951963  57.8122107  86.3851842
 121.6329746  67.6434816  89.0926147 121.4815252  67.4145367  88.1756231
 121.6234425  68.6005417  89.1057492 118.4015082  65.2166728  84.0772413
 119.3307142  65.3677888  83.9041381 117.9806112  65.3050749  83.2221060
 117.2003414  69.2417393  81.8470951 117.0614500  68.8736177  82.7196889
 116.4118010  69.7565032  81.6754909 118.7508629  68.6198995  79.2359789
 118.4158462  68.5799765  80.1317439 118.2512575  67.9543711  78.7630199
 112.7252873  64.0266625  84.7612370 112.5872671  63.2946864  85.3623909
 113.6357797  63.9375526  84.4796558 121.6867821  65.9655030  69.5096848
 121.0696992  65.2401858  69.4129901 121.2184309  66.7264390  69.1663923
 115.3535174  63.7386585  84.2496050 116.0634792  63.0979777  84.2082668
 115.3104482  63.9899480  85.1722230 123.3421953  70.6753938  87.1702629
 123.2834499  69.9913158  86.5033212 123.7441471  71.4172928  86.7183255
 114.0664108  60.7251803  86.0691689 113.5301465  60.2742541  86.7213285
 113.4780816  60.8597712  85.3262153 113.4766367  60.1840454  68.6318153
 112.5995833  60.0629255  68.2680399 113.9524120  59.3926532  68.3797041
 123.3439360  68.6393522  85.4016608 122.4566139  68.3019444  85.5243007
 123.9137911  67.9076553  85.6385374 109.8003229  59.8607810  83.1544684
 109.7161418  59.2533480  82.4195094 108.9785936  60.3516829  83.1554180
 116.8740513  73.2994974  82.3677852 116.8010685  74.1049946  82.8797156
 116.4317906  73.4986940  81.5425873 116.6630293  72.5366744  75.8780673
 115.8797815  73.0788425  75.9718898 117.3623038  73.0540724  76.2774914
 119.9726943  58.3461374  78.5214879 120.4695643  57.5931336  78.2015949
 119.2013925  58.3825691  77.9558088 127.8256700  64.0501739  80.1633170
 127.8146577  64.9326455  79.7927103 126.9574080  63.6973290  79.9687707
 119.3339197  73.1981808  84.5236010 120.0467169  73.8329273  84.4511912
 118.8429225  73.2945674  83.7076012 121.0556724  67.1033061  76.0953302
 120.1213002  67.2234524  75.9258006 121.2333392  66.2005528  75.8313312
 116.5561912  60.4878757  78.2486563 116.1859699  59.9349797  78.9367469
 117.0521004  59.8836890  77.6961563 124.4429275  62.9450380  76.6303336
 124.9089727  63.7778372  76.5563639 124.8936776  62.4795362  77.3348595
 114.3851110  70.9476252  85.3441581 115.0860570  71.5812735  85.4970975
 113.9146225  71.2890983  84.5837220 122.5105506  69.2894202  73.6289488
 122.7865350  69.1750796  74.5383362 121.6410005  68.8911687  73.5901661
 122.4145938  55.3130967  80.6694237 121.5009018  55.5435194  80.8376444
 122.8439039  55.3969411  81.5208270 122.1852396  63.5020859  83.1694132
 121.5323847  63.7496767  82.5146584 122.5632776  62.6884998  82.8356609
 119.1459570  73.5380553  77.2722302 119.3281965  72.7202208  77.7350054
 119.9692556  73.7548245  76.8347192 119.4801736  72.4648738  74.5337350
 120.0089502  71.9541192  73.9207512 119.7429955  72.1491268  75.3982883
 118.2339969  64.2440670  89.6560169 117.5580606  64.1434800  90.3262544
 119.0567603  64.0879884  90.1196166 109.9818828  70.4812607  82.2772684
 110.5672265  69.7356295  82.4100588 109.7843667  70.7916564  83.1609348
 112.8357484  73.5163854  77.2935126 112.1667859  74.0009982  76.8099166
 112.6970353  73.7633075  78.2078505 104.5736483  63.0518207  80.9977127
 104.6120583  62.5181798  81.7914245 104.0676776  62.5253413  80.3788104
 116.9762752  75.5507598  83.8917785 117.5281060  75.7139219  84.6566870
 117.3168946  76.1412036  83.2197809 111.9527245  57.8982748  84.4939669
 112.0168572  58.7597579  84.0817067 111.8894366  57.2856749  83.7612028
 111.4279518  59.9705880  88.1412704 112.0551557  59.5882958  88.7550228
 110.5707437  59.7520082  88.5068396 121.8273627  70.3768855  89.7466439
 122.3713531  70.9898814  89.2521394 121.2460471  70.9348434  90.2633452
 108.2045061  61.7782309  74.0731058 108.4998502  60.8692988  74.0198112
 107.3033096  61.7570049  73.7512061 120.1131139  73.4989573  80.8781467
 119.9882279  72.6979313  80.3692412 120.7710231  73.9935767  80.3895437
 111.7339308  59.8538306  80.0558607 111.0125893  60.4674274  79.9166080
 112.5232563  60.3896071  79.9775253 122.1766048  71.2998594  82.5061017
 121.2296383  71.1803945  82.4339344 122.5248821  70.4121092  82.5887278
 114.5365621  57.1892732  86.3299259 115.0600023  57.4355029  87.0925568
 114.3177954  58.0212767  85.9102396 109.9332902  59.4596407  74.1970384
 109.6045608  58.5793786  74.0145489 110.2872273  59.4044076  75.0846773
 119.1812481  71.0951310  78.7065369 119.0337444  70.1668017  78.8872939
 120.0065975  71.1171400  78.2222444 113.0474725  59.7469377  74.5645861
 113.3870798  60.2755298  73.8424470 113.4946846  60.0849783  75.3404428
 122.7846603  71.9179868  79.7930242 123.7093150  71.7122730  79.6554693
 122.6161906  71.6696270  80.7019583 115.7418166  58.1306428  84.0148929
 115.4014987  57.3314241  84.4169609 115.0357173  58.4308138  83.4425762
 116.3934638  55.2155740  82.4676252 117.2160707  54.7416218  82.3455143
 116.6372702  55.9946224  82.9674939 115.0342873  58.2443998  72.7639154
 115.7551235  58.6225251  72.2602871 114.4108177  58.9632875  72.8674132
 119.1773995  58.9489147  73.6997486 119.3937610  59.8313785  73.3986314
 118.6968063  58.5575361  72.9703128 113.9173217  61.9074861  80.2768231
 113.7717798  62.2215164  81.1692512 113.4398420  62.5259761  79.7239130
 115.7769600  58.8977409  80.3249120 115.7631168  58.0018502  79.9881418
 116.4942028  58.9048072  80.9587407 117.6295730  59.3314749  82.3702248
 117.3713508  60.2531819  82.3686578 117.0980771  58.9345183  83.0602712
 122.5741919  72.4365536  75.1492333 122.7478797  71.8711958  74.3966186
 123.0670810  73.2366431  74.9671823 108.3918879  64.4480205  83.2155892
 107.8472347  65.2240013  83.3476166 109.2698229  64.7951009  83.0575014
 115.1806496  57.7791789  75.5936691 115.3022407  56.8508435  75.7927578
 114.8908538  57.7930475  74.6815006 118.0497686  55.4646699  78.7303410
 118.0719383  55.5286032  77.7755390 118.4665745  54.6251208  78.9243917
 128.4281310  65.2001959  76.7682633 128.8712456  64.4509284  76.3701756
 127.5507821  65.1912095  76.3856365 123.5617092  71.7532300  72.2489232
 124.2567996  72.3738993  72.4676546 123.9040242  70.9027652  72.5241609
 109.1784901  63.5750101  86.1086049 108.4366637  63.7232737  86.6950679
 108.8577645  63.8358367  85.2452798 125.4608515  69.2032006  73.7776562
 125.9859839  69.5419279  73.0525882 125.3730867  68.2679021  73.5939697
 117.1228564  73.1166079  85.9066439 117.4315690  72.8715226  86.7789139
 117.9204046  73.3212718  85.4185309 117.1449176  75.2703989  78.1371816
 116.7054166  74.7780368  78.8304672 117.8957293  74.7276957  77.8963891
 114.5923048  70.8141998  80.2094117 113.9703057  70.1512703  79.9096345
 115.2627915  70.8403130  79.5267765 107.8250120  69.3801856  79.0985377
 106.9882028  68.9524031  78.9169378 107.7973765  69.5734300  80.0356168
 114.6647575  59.2923786  89.8026623 114.7135731  60.1685909  89.4204393
 115.2070089  58.7501179  89.2298266 125.1502421  69.8364909  89.0827760
 124.3597965  69.8189048  88.5432260 124.9135775  70.3753203  89.8376797
 125.2700296  66.6857376  86.3960489 125.3198301  66.5207383  87.3376012
 125.1614219  65.8184635  86.0058370 114.1536555  69.3645922  73.6852578
 114.3024675  70.0481386  73.0319250 114.9602998  69.3451012  74.2002033
 122.5604058  62.6688304  87.7119796 123.4613921  62.5294769  87.4203793
 122.6352033  62.8342759  88.6517973 116.8946864  60.0455159  86.5572982
 116.0250173  60.3388725  86.2855570 117.1306344  60.6295604  87.2780245
 126.7718493  69.1054317  86.6402510 126.4803301  69.4684298  87.4765971
 126.1590624  68.3921326  86.4615842 127.9714175  66.6707197  79.1605081
 128.8061066  67.1097001  79.3242641 128.1073304  66.1945850  78.3413326
 125.0205681  64.2286932  85.1082568 125.4959803  64.4214578  84.3001420
 124.0971246  64.2846118  84.8625952 111.9089188  65.3911099  74.6913647
 111.6635230  64.4873429  74.8893857 112.0785102  65.3928250  73.7493125
 119.5985897  56.2634776  84.0738402 120.1167841  56.9995802  83.7484891
 119.2441030  56.5698769  84.9085161 111.1784835  61.1239457  72.1899808
 110.4854080  61.1983812  71.5339844 110.9336587  60.3599800  72.7121325
 119.8498492  52.6835058  79.5939299 120.1300245  52.0158247  80.2199725
 120.6349099  52.8764154  79.0813963 117.6531960  71.8594052  71.1564325
 117.0805927  72.4784239  70.7034797 118.2264754  72.4093414  71.6904247
 123.7207350  61.1052692  83.3410874 124.6724773  61.2050790  83.3623098
 123.5510800  60.3130961  83.8508958 121.7421729  58.1908275  83.5270275
 121.1471662  58.4713288  82.8316763 121.4571426  58.6802176  84.2987016
 120.8729220  72.1431202  72.2872907 121.8059893  72.0776764  72.4905783
 120.7852433  72.9787469  71.8287440 123.5017237  71.4597072  69.2476855
 123.4230868  71.1256936  70.1412613 124.3226903  71.9518840  69.2468327
 126.1995428  64.3258812  82.4553174 126.1671748  63.3874812  82.6412857
 126.8096051  64.4042848  81.7218998 118.0378759  63.1954865  68.4980378
 118.9837863  63.0661073  68.5668796 117.6593004  62.4569527  68.9749806
 126.3489916  61.1169855  82.5011457 125.8328965  60.3328312  82.3141386
 127.2329865  60.7888572  82.6657976 124.0100643  54.8610871  78.4607269
 123.8125464  54.5525959  79.3450601 124.6200349  55.5872510  78.5905199
 132.0171978  65.3874819  81.5959210 132.7475366  65.1260107  82.1566914
 131.4078923  64.6503541  81.6361278 130.0987275  63.5282681  82.1933662
 129.3720438  63.3938646  81.5850153 129.6834562  63.8359510  82.9990380
 117.9217451  67.2472611  89.9581035 118.8420461  67.4251210  90.1521081
 117.8867034  66.3028656  89.8060734 116.2221676  61.1204841  68.4335263
 115.3153131  60.8237954  68.5097976 116.4997657  60.8234659  67.5669549
 107.1399616  62.4411205  78.8834309 106.8202401  61.5876513  78.5908683
 106.5933044  62.6559783  79.6392277 110.9179524  65.1573646  82.6003816
 111.1365534  66.0890753  82.6191850 111.3305298  64.7981620  83.3858620
 117.8383742  55.6641731  74.5879504 117.0284470  55.3188816  74.9634750
 118.5268158  55.3549275  75.1767116 119.7674290  54.7419778  76.2103801
 120.3205328  55.1615231  76.8693824 120.0044376  53.8155526  76.2526757
 115.7907389  60.7306851  91.9906565 115.6904116  61.6801208  91.9218656
 115.5728931  60.4025090  91.1182635 114.9920460  57.9791776  68.5747242
 115.8539624  58.3046675  68.8343059 115.1770805  57.1923272  68.0620308
 107.0087876  66.0614116  80.8527431 106.3151348  65.6468069  80.3397385
 107.7560867  66.1034653  80.2560850 123.1453097  56.8520303  75.7182465
 122.5651766  57.5105107  75.3360517 122.8789030  56.0297647  75.3069883
 121.5956663  56.2525361  77.9203785 122.0956442  56.3641895  77.1118104
 122.2392271  55.9486413  78.5604594 115.6538659  64.1603990  90.8071626
 115.1705741  64.9604350  91.0135515 115.7399598  64.1711935  89.8539070
 108.9224619  65.9932370  78.7293446 108.8995307  66.0920057  77.7775329
 109.2325255  66.8397521  79.0510612 111.5811997  68.0508525  82.8440060
 112.5355250  68.0192467  82.7769992 111.3824520  67.5899149  83.6590286
 112.1711379  66.6209641  85.4110858 112.9904268  67.1153720  85.4345695
 112.4448186  65.7041609  85.3828425 121.9277975  59.0120393  74.7738813
 121.0403830  59.2970044  74.5559008 122.3431964  58.8514157  73.9266090
 125.2792511  59.0366914  78.4893153 126.0552901  59.5263367  78.7617769
 124.5540645  59.4624968  78.9465022 127.7165070  59.7494533  79.5467093
 128.3109560  59.5090269  78.8360401 127.7891653  59.0301664  80.1740629
 109.9362225  73.5928144  79.8610258 109.8016693  72.8328545  79.2948256
 109.5194288  74.3169044  79.3939047 121.0721188  68.7765068  68.8686833
 121.7757039  68.9815070  69.4844489 120.3483837  69.3441830  69.1335917
 121.9018999  64.5274929  74.9889103 121.8454200  64.9843481  74.1496736
 122.4547341  63.7665614  74.8111946 125.7123805  60.3164661  75.8139223
 125.4560739  59.9161297  76.6447431 125.0876673  61.0308455  75.6889362
 130.0236142  63.0560734  78.3210514 129.4635700  63.1253924  79.0942076
 129.4179646  62.8801719  77.6010011 113.0931351  74.4897461  80.0728701
 112.9763735  75.4342894  79.9707391 112.2723798  74.1871023  80.4614500
 122.9807886  69.2147597  70.9185293 123.8153490  68.7828796  70.7362768
 122.8192229  69.0429611  71.8462188 122.6353778  65.7179710  72.2841633
 122.5802582  65.5523982  71.3430077 122.0099833  66.4255743  72.4403822
 107.4246293  60.9547775  86.1103055 108.0705157  60.4446729  86.5990280
 107.2163444  61.6916456  86.6846480 119.9499685  68.0228622  91.6095195
 120.8190845  68.1969275  91.2481830 119.4706437  68.8423039  91.4870925
 115.9449903  55.2187819  71.8626951 115.9328573  56.1629659  72.0195222
 116.8373325  55.0357965  71.5686412 114.1185865  75.1425723  83.2884629
 115.0213112  75.1749334  83.6051124 113.8923235  74.2126174  83.3030965
 115.8739467  73.8956710  79.9494708 114.9235098  73.8958571  79.8359080
 116.1771954  73.1489444  79.4330742 119.7602023  51.8130596  76.1172888
 118.9934419  51.2589083  76.2629570 120.1712728  51.8852465  76.9787039
 111.7643784  58.1015392  90.2078069 112.6275246  57.7452197  90.4181394
 111.1909195  57.7629287  90.8953473 131.6092161  79.7317248  81.0140470
 132.2470571  79.6123996  80.3103810 131.4913004  80.6798092  81.0728422
 128.4181867  79.6844676  80.9501995 128.0800379  79.5685741  80.0622530
 129.2871635  79.2835841  80.9303001 128.9001650  80.8379528  86.9088200
 128.8890291  80.4432326  86.0368704 129.0622290  80.1045601  87.5021972
 125.6208911  83.6216640  85.8567384 125.3298777  84.5262271  85.7414051
 126.2565896  83.6633167  86.5711454 126.5465118  80.9993488  82.4468744
 127.1428690  80.7749511  81.7325707 126.6040090  80.2578234  83.0494192
 126.1190147  78.4532924  70.2818935 126.3715667  77.9314445  69.5202398
 125.1814706  78.2899069  70.3845619 131.1633429  77.4568702  78.0893678
 131.9496519  77.0388125  77.7384095 131.4272134  78.3614794  78.2575327
 136.5641857  77.3943935  78.9926657 137.2967028  76.8243152  79.2264486
 135.8081212  77.0065536  79.4333162 128.1817976  79.8171177  76.1889999
 127.8176183  79.2901798  76.9002921 129.0385092  79.4269646  76.0156485
 134.0867277  71.1065509  83.4521265 133.7550602  71.9760920  83.2282480
 133.4912890  70.7901793  84.1315296 127.8223463  74.8461076  71.1851348
 127.9897866  75.7141313  71.5521819 127.6320632  75.0088358  70.2612637
 124.0311278  79.7591852  78.8853882 123.1061774  79.6268066  79.0931574
 124.2795691  80.5386071  79.3823825 133.9795940  75.8260596  80.5314615
 133.0712818  75.7576004  80.2373376 133.9283536  76.3032540  81.3596441
 127.8012684  77.3018734  72.1698014 127.6812309  77.7475785  73.0083495
 127.1065272  77.6504052  71.6111553 121.3920089  79.4025126  79.7197672
 121.5212470  79.6559605  80.6337083 120.7117540  79.9952834  79.4002327
 128.0536806  77.2450241  88.4749513 127.2770140  77.8044161  88.4652377
 128.6927369  77.7307024  88.9964383 135.8457587  74.0277034  82.3092489
 135.2031967  74.3209567  81.6632284 135.3412515  73.9129954  83.1145686
 126.3083178  80.0535694  88.0367480 127.0497863  80.5920738  87.7602303
 125.6020164  80.6801983  88.1939031 131.7838518  82.1964835  86.6339641
 132.1921874  81.7547245  85.8894273 131.0615779  81.6217462  86.8873834
 128.1369588  77.1337442  84.0073198 128.9830783  77.5576855  84.1507847
 128.0768226  76.4771066  84.7011761 132.1067333  82.7566026  80.3891930
 131.4776195  82.9211740  79.6867998 131.7192995  83.1707635  81.1602894
 131.2869033  74.7941810  85.6654372 131.0429965  75.5483871  85.1288647
 131.5628964  75.1727158  86.5001619 133.2407496  81.3380422  84.3431637
 133.4524391  81.9812182  83.6666018 133.1937244  80.5042739  83.8753567
 130.8433725  73.9498243  81.2468209 129.9818204  74.2479497  81.5384947
 130.8696160  74.1668642  80.3149242 126.5964180  78.6163586  74.4631580
 127.2988224  79.0684630  74.9305507 126.2644809  77.9747405  75.0911473
 125.0444542  77.2075343  88.8382790 124.4143203  77.8891623  89.0718186
 124.9380630  77.0958424  87.8935928 120.3389514  76.8747139  79.7648714
 119.5488568  77.1304667  79.2888824 120.8300762  77.6895477  79.8700754
 134.3553324  84.2152378  82.5153995 135.1770768  83.8132565  82.2336676
 134.3515727  84.1120612  83.4670110 122.2904260  77.2391718  76.7232190
 121.4935423  77.3510412  77.2415686 122.0629852  77.5778370  75.8573081
 118.6227217  77.1277629  82.1963705 118.8735256  78.0124639  82.4621281
 119.1586766  76.9482231  81.4238796 142.4459317  80.5591126  78.8638966
 141.6923025  79.9898524  78.7082971 142.5806858  80.5253791  79.8109601
 124.3225285  71.5096108  91.2008041 123.9292230  70.9562307  91.8755685
 125.1391425  71.8206687  91.5914558 127.2393246  72.9253988  88.7928297
 127.9802959  73.5261141  88.7132760 127.4711169  72.1831625  88.2346340
 122.3834584  78.1110355  87.0706527 122.2688099  77.2095612  87.3713626
 121.5279101  78.3574052  86.7191343 129.4626421  86.0528095  88.6694028
 129.0190276  85.2664474  88.3514932 130.1243635  86.2407246  88.0037918
 131.5607660  86.3330895  86.6975429 131.5426135  87.1539776  86.2055698
 132.4827580  86.2084970  86.9225570 128.0180714  83.8475025  87.5398937
 128.5509051  83.0863313  87.3098245 127.4894795  83.5548676  88.2823092
 131.1850409  68.9535091  83.0692579 130.8414678  69.8436732  82.9931689
 131.5529371  68.7636748  82.2062164 128.7347802  73.7893402  76.6350252
 127.8789399  73.4000253  76.4555891 129.1474754  73.8685363  75.7750038
 130.2646949  71.3239746  81.0341812 129.7611745  71.2869881  80.2209617
 130.5577556  72.2332488  81.0938469 126.5089835  71.4078475  80.0407994
 127.3742832  71.2121284  79.6813883 126.5767344  71.1788827  80.9677351
 130.9386995  76.8170794  73.4024795 130.6337130  77.1316943  74.2534938
 131.8917437  76.8952214  73.4452128 134.3626272  81.1710038  80.1684795
 133.7049947  81.8609299  80.2564924 135.1666672  81.5606469  80.5118782
 124.1152154  73.6380683  77.4124361 124.6895906  73.4155865  76.6797554
 124.7023136  73.7069378  78.1652962 124.4421741  75.6685144  71.4320246
 123.6059053  76.0059831  71.7529521 124.3026511  75.5334124  70.4947383
 126.4174822  70.5121932  76.1399430 125.7639234  70.1970949  75.5156045
 126.3755296  69.8897673  76.8659253 129.6512562  77.0003866  80.4647078
 128.7335123  77.2218813  80.3068766 130.0672706  77.0750176  79.6058785
 130.4347610  78.3995281  75.5949758 131.1819429  78.9116679  75.2856880
 130.7039199  78.0779334  76.4554152 132.8826447  75.4352398  77.5768547
 132.1449204  74.9229784  77.9078790 133.1353221  74.9952779  76.7651824
 132.9838074  68.2128650  78.1710317 133.2896951  67.3526013  77.8836232
 133.7090679  68.8046270  77.9709310 127.2559154  78.5082443  78.6786508
 127.3107764  77.5556279  78.6028984 126.4450356  78.6641882  79.1627806
 125.1951514  77.1259503  76.4376887 124.3819380  77.4253673  76.8442079
 125.6910508  76.7315191  77.1551369 130.7925726  77.5901327  85.2691780
 131.1475113  77.8172800  86.1286246 131.4397857  77.9219704  84.6469036
 124.6865589  74.6977858  82.0538121 125.3264968  74.5566617  81.3561085
 123.8543119  74.4112371  81.6776723 136.5492842  82.7796290  80.9852381
 136.9829349  82.6871579  81.8335435 137.2624423  82.7553790  80.3472397
 121.6894205  74.6678183  76.8311108 121.9501022  75.5823516  76.7220269
 122.5111377  74.2002626  76.9807721 123.1619130  76.0815940  84.0009933
 123.8342184  75.8733302  83.3522582 122.3348917  75.8838026  83.5615165
 137.4108392  82.8219991  83.5185266 137.6044282  83.7265801  83.7644541
 137.3109010  82.3627410  84.3523851 129.0644703  72.7077881  86.0175594
 128.4172618  73.4067831  85.9240070 129.8345718  73.1414025  86.3851842
 132.4723500  82.9726733  89.0926147 132.3209007  82.7437285  88.1756231
 132.4628180  83.9297335  89.1057492 129.2408837  80.5458646  84.0772413
 130.1700897  80.6969806  83.9041381 128.8199867  80.6342667  83.2221060
 129.5902384  83.9490913  79.2359789 129.2552216  83.9091683  80.1317439
 129.0906329  83.2835629  78.7630199 123.5646628  79.3558543  84.7612370
 123.4266426  78.6238782  85.3623909 124.4751551  79.2667443  84.4796558
 126.1928928  79.0678502  84.2496050 126.9028547  78.4271695  84.2082668
 126.1498237  79.3191397  85.1722230 134.1815707  86.0045856  87.1702629
 134.1228253  85.3205076  86.5033212 134.5835225  86.7464846  86.7183255
 124.9057862  76.0543720  86.0691689 124.3695219  75.6034459  86.7213285
 124.3174571  76.1889629  85.3262153 124.3160121  75.5132372  68.6318153
 123.4389588  75.3921173  68.2680399 124.7917874  74.7218450  68.3797041
 134.1833114  83.9685440  85.4016608 133.2959893  83.6311362  85.5243007
 134.7531665  83.2368471  85.6385374 120.6396984  75.1899728  83.1544684
 120.5555172  74.5825398  82.4195094 119.8179690  75.6808746  83.1554180
 130.8120697  73.6753292  78.5214879 131.3089397  72.9223254  78.2015949
 130.0407679  73.7117608  77.9558088 138.6650455  79.3793657  80.1633170
 138.6540331  80.2618373  79.7927103 137.7967834  79.0265208  79.9687707
 127.3955666  75.8170675  78.2486563 127.0253454  75.2641715  78.9367469
 127.8914759  75.2128808  77.6961563 133.2539692  70.6422885  80.6694237
 132.3402772  70.8727112  80.8376444 133.6832794  70.7261329  81.5208270
 133.0246151  78.8312777  83.1694132 132.3717601  79.0788685  82.5146584
 133.4026531  78.0176915  82.8356609 129.0733724  79.5732588  89.6560169
 128.3974361  79.4726717  90.3262544 129.8961358  79.4171802  90.1196166
 115.4130238  78.3810125  80.9977127 115.4514337  77.8473716  81.7914245
 114.9070530  77.8545330  80.3788104 122.7921000  73.2274665  84.4939669
 122.8562326  74.0889496  84.0817067 122.7288120  72.6148667  83.7612028
 122.2673272  75.2997798  88.1412704 122.8945311  74.9174875  88.7550228
 121.4101191  75.0812000  88.5068396 132.6667381  85.7060773  89.7466439
 133.2107285  86.3190731  89.2521394 132.0854226  86.2640351  90.2633452
 130.9524894  88.8281491  80.8781467 130.8276033  88.0271231  80.3692412
 131.6103985  89.3227684  80.3895437 122.5733062  75.1830224  80.0558607
 121.8519648  75.7966191  79.9166080 123.3626318  75.7187988  79.9775253
 133.0159802  86.6290511  82.5061017 132.0690138  86.5095862  82.4339344
 133.3642575  85.7413009  82.5887278 125.3759376  72.5184650  86.3299259
 125.8993778  72.7646947  87.0925568 125.1571709  73.3504685  85.9102396
 120.7726657  74.7888325  74.1970384 120.4439363  73.9085704  74.0145489
 121.1266027  74.7335993  75.0846773 123.8868480  75.0761294  74.5645861
 124.2264552  75.6047216  73.8424470 124.3340600  75.4141701  75.3404428
 126.5811921  73.4598345  84.0148929 126.2408741  72.6606158  84.4169609
 125.8750927  73.7600056  83.4425762 127.2328393  70.5447658  82.4676252
 128.0554462  70.0708136  82.3455143 127.4766456  71.3238141  82.9674939
 125.8736627  73.5735916  72.7639154 126.5944990  73.9517169  72.2602871
 125.2501931  74.2924793  72.8674132 130.0167750  74.2781065  73.6997486
 130.2331364  75.1605703  73.3986314 129.5361817  73.8867278  72.9703128
 124.7566971  77.2366778  80.2768231 124.6111552  77.5507081  81.1692512
 124.2792175  77.8551679  79.7239130 126.6163354  74.2269326  80.3249120
 126.6024923  73.3310420  79.9881418 127.3335782  74.2339990  80.9587407
 128.4689485  74.6606666  82.3702248 128.2107263  75.5823737  82.3686578
 127.9374525  74.2637101  83.0602712 119.2312633  79.7772123  83.2155892
 118.6866102  80.5531931  83.3476166 120.1091983  80.1242927  83.0575014
 126.0200250  73.1083707  75.5936691 126.1416161  72.1800353  75.7927578
 125.7302293  73.1222392  74.6815006 128.8891441  70.7938617  78.7303410
 128.9113137  70.8577950  77.7755390 129.3059500  69.9543126  78.9243917
 139.2675065  80.5293877  76.7682633 139.7106211  79.7801202  76.3701756
 138.3901575  80.5204013  76.3856365 120.0178655  78.9042019  86.1086049
 119.2760391  79.0524654  86.6950679 119.6971400  79.1650285  85.2452798
 125.5041330  74.6215704  89.8026623 125.5529485  75.4977827  89.4204393
 126.0463844  74.0793097  89.2298266 135.9896175  85.1656827  89.0827760
 135.1991719  85.1480966  88.5432260 135.7529530  85.7045121  89.8376797
 136.1094050  82.0149294  86.3960489 136.1592055  81.8499301  87.3376012
 136.0007974  81.1476553  86.0058370 133.3997813  77.9980222  87.7119796
 134.3007676  77.8586686  87.4203793 133.4745787  78.1634676  88.6517973
 127.7340618  75.3747076  86.5572982 126.8643928  75.6680642  86.2855570
 127.9700099  75.9587521  87.2780245 137.6112247  84.4346235  86.6402510
 137.3197056  84.7976216  87.4765971 136.9984379  83.7213243  86.4615842
 138.8107930  81.9999115  79.1605081 139.6454821  82.4388919  79.3242641
 138.9467058  81.5237768  78.3413326 135.8599435  79.5578850  85.1082568
 136.3353557  79.7506496  84.3001420 134.9365001  79.6138035  84.8625952
 130.4379652  71.5926693  84.0738402 130.9561596  72.3287720  83.7484891
 130.0834785  71.8990687  84.9085161 130.6892246  68.0126976  79.5939299
 130.9694000  67.3450165  80.2199725 131.4742853  68.2056071  79.0813963
 134.5601104  76.4344610  83.3410874 135.5118527  76.5342707  83.3623098
 134.3904555  75.6422878  83.8508958 132.5815484  73.5200193  83.5270275
 131.9865416  73.8005206  82.8316763 132.2965181  74.0094094  84.2987016
 137.0389182  79.6550729  82.4553174 137.0065502  78.7166730  82.6412857
 137.6489806  79.7334766  81.7218998 137.1883671  76.4461773  82.5011457
 136.6722719  75.6620230  82.3141386 138.0723619  76.1180489  82.6657976
 134.8494398  70.1902788  78.4607269 134.6519219  69.8817877  79.3450601
 135.4594103  70.9164427  78.5905199 142.8565732  80.7166736  81.5959210
 143.5869121  80.4552024  82.1566914 142.2472678  79.9795458  81.6361278
 140.9381029  78.8574599  82.1933662 140.2114193  78.7230564  81.5850153
 140.5228316  79.1651427  82.9990380 128.7611206  82.5764529  89.9581035
 129.6814215  82.7543128  90.1521081 128.7260789  81.6320574  89.8060734
 117.9793371  77.7703122  78.8834309 117.6596155  76.9168430  78.5908683
 117.4326799  77.9851700  79.6392277 121.7573278  80.4865563  82.6003816
 121.9759288  81.4182671  82.6191850 122.1699052  80.1273538  83.3858620
 128.6777496  70.9933649  74.5879504 127.8678224  70.6480733  74.9634750
 129.3661913  70.6841192  75.1767116 130.6068044  70.0711695  76.2103801
 131.1599083  70.4907149  76.8693824 130.8438131  69.1447443  76.2526757
 126.6301144  76.0598769  91.9906565 126.5297870  77.0093126  91.9218656
 126.4122686  75.7317008  91.1182635 125.8314215  73.3083694  68.5747242
 126.6933379  73.6338592  68.8343059 126.0164559  72.5215190  68.0620308
 117.8481631  81.3906034  80.8527431 117.1545102  80.9759986  80.3397385
 118.5954622  81.4326570  80.2560850 133.9846851  72.1812220  75.7182465
 133.4045520  72.8397025  75.3360517 133.7182784  71.3589565  75.3069883
 132.4350418  71.5817278  77.9203785 132.9350196  71.6933813  77.1118104
 133.0786026  71.2778331  78.5604594 126.4932414  79.4895908  90.8071626
 126.0099495  80.2896268  91.0135515 126.5793353  79.5003853  89.8539070
 123.0105133  81.9501559  85.4110858 123.8298022  82.4445637  85.4345695
 123.2841941  81.0333527  85.3828425 132.7671729  74.3412311  74.7738813
 131.8797584  74.6261961  74.5559008 133.1825718  74.1806074  73.9266090
 136.1186266  74.3658832  78.4893153 136.8946656  74.8555284  78.7617769
 135.3934400  74.7916886  78.9465022 138.5558824  75.0786451  79.5467093
 139.1503315  74.8382187  78.8360401 138.6285408  74.3593582  80.1740629
 136.5517559  75.6456579  75.8139223 136.2954493  75.2453214  76.6447431
 135.9270427  76.3600373  75.6889362 140.8629897  78.3852652  78.3210514
 140.3029455  78.4545841  79.0942076 140.2573400  78.2093637  77.6010011
 118.2640047  76.2839692  86.1103055 118.9098911  75.7738646  86.5990280
 118.0557199  77.0208374  86.6846480 130.7893440  83.3520540  91.6095195
 131.6584599  83.5261192  91.2481830 130.3100191  84.1714957  91.4870925
 126.7843658  70.5479737  71.8626951 126.7722328  71.4921577  72.0195222
 127.6767080  70.3649882  71.5686412 130.5995777  67.1422514  76.1172888
 129.8328173  66.5881000  76.2629570 131.0106482  67.2144382  76.9787039
 122.6037538  73.4307309  90.2078069 123.4669000  73.0744114  90.4181394
 122.0302949  73.0921204  90.8953473 142.4485915  95.0609166  81.0140470
 143.0864325  94.9415913  80.3103810 142.3306758  96.0090010  81.0728422
 139.2575622  95.0136594  80.9501995 138.9194133  94.8977659  80.0622530
 140.1265390  94.6127759  80.9303001 139.7395405  96.1671446  86.9088200
 139.7284045  95.7724244  86.0368704 139.9016044  95.4337518  87.5021972
 136.4602666  98.9508557  85.8567384 136.1692532  99.8554188  85.7414051
 137.0959650  98.9925085  86.5711454 137.3858873  96.3285406  82.4468744
 137.9822445  96.1041428  81.7325707 137.4433844  95.5870151  83.0494192
 142.0027184  92.7860620  78.0893678 142.7890273  92.3680043  77.7384095
 142.2665888  93.6906712  78.2575327 147.4035611  92.7235853  78.9926657
 148.1360783  92.1535070  79.2264486 146.6474967  92.3357453  79.4333162
 144.9261031  86.4357427  83.4521265 144.5944356  87.3052838  83.2282480
 144.3306645  86.1193711  84.1315296 141.4192551  98.6369973  82.8517178
 141.1193274  99.5395012  82.7432985 141.0743610  98.3702156  83.7038331
 144.8189695  91.1552513  80.5314615 143.9106572  91.0867922  80.2373376
 144.7677290  91.6324458  81.3596441 136.4013331 105.4014293  75.8188146
 136.3237360 106.3522118  75.8976626 135.7974974 105.0560166  76.4763072
 138.8930560  92.5742159  88.4749513 138.1163895  93.1336079  88.4652377
 139.5321124  93.0598942  88.9964383 146.6851341  89.3568952  82.3092489
 146.0425721  89.6501485  81.6632284 146.1806270  89.2421872  83.1145686
 144.3391505  93.1032125  72.9978349 145.2509361  93.3359512  72.8226046
 143.8301152  93.6869169  72.4353427 137.1476933  95.3827612  88.0367480
 137.8891617  95.9212656  87.7602303 136.4413918  96.0093901  88.1939031
 142.6232272  97.5256753  86.6339641 143.0315628  97.0839163  85.8894273
 141.9009534  96.9509380  86.8873834 138.9763342  92.4629359  84.0073198
 139.8224538  92.8868773  84.1507847 138.9161980  91.8062984  84.7011761
 142.9461087  98.0857943  80.3891930 142.3169949  98.2503657  79.6867998
 142.5586749  98.4999553  81.1602894 146.8250319  99.0212381  77.7436294
 146.1401357  99.4011282  77.1933327 146.9094168  99.6307708  78.4768241
 142.1262788  90.1233728  85.6654372 141.8823720  90.8775788  85.1288647
 142.4022718  90.5019075  86.5001619 144.0801251  96.6672340  84.3431637
 144.2918146  97.3104100  83.6666018 144.0330999  95.8334657  83.8753567
 141.6827479  89.2790161  81.2468209 140.8211959  89.5771414  81.5384947
 141.7089914  89.4960560  80.3149242 135.8838296  92.5367260  88.8382790
 135.2536957  93.2183541  89.0718186 135.7774384  92.4250342  87.8935928
 145.1947078  99.5444296  82.5153995 146.0164522  99.1424483  82.2336676
 145.1909481  99.4412530  83.4670110 138.9603682  99.0928339  84.6714705
 139.0248114  99.5548746  85.5072877 138.2514606  98.4625704  84.7997015
 153.2853072  95.8883044  78.8638966 152.5316780  95.3190442  78.7082971
 153.4200613  95.8545709  79.8109601 135.1619039  86.8388026  91.2008041
 134.7685985  86.2854225  91.8755685 135.9785180  87.1498605  91.5914558
 138.0787000  88.2545905  88.7928297 138.8196714  88.8553058  88.7132760
 138.3104923  87.5123543  88.2346340 133.2228338  93.4402273  87.0706527
 133.1081853  92.5387530  87.3713626 132.3672856  93.6865969  86.7191343
 140.3020176 101.3820013  88.6694028 139.8584030 100.5956391  88.3514932
 140.9637390 101.5699163  88.0037918 135.0607297 102.9115814  83.1954706
 135.6114722 102.7832878  82.4231700 134.2218773 103.2110703  82.8449599
 142.4001414 101.6622813  86.6975429 142.3819889 102.4831694  86.2055698
 143.3221334 101.5376888  86.9225570 138.8574468  99.1766942  87.5398937
 139.3902805  98.4155230  87.3098245 138.3288549  98.8840594  88.2823092
 142.0244163  84.2827008  83.0692579 141.6808433  85.1728650  82.9931689
 142.3923126  84.0928666  82.2062164 141.1040704  86.6531663  81.0341812
 140.6005499  86.6161799  80.2209617 141.3971310  87.5624406  81.0938469
 146.9628720  97.0267974  73.5118187 146.1858163  96.6879133  73.0673350
 147.6420201  97.0320597  72.8373153 145.2020027  96.5001955  80.1684795
 144.5443701  97.1901217  80.2564924 146.0060426  96.8898387  80.5118782
 144.0125486  94.8546328  78.2188737 144.5257367  95.4876320  78.7210447
 144.6626710  94.2547523  77.8532097 141.2747860 104.8330652  70.9749408
 140.6009559 105.1362349  71.5834366 141.6613682 105.6359733  70.6254865
 140.4906317  92.3295783  80.4647078 139.5728878  92.5510730  80.3068766
 140.9066460  92.4042094  79.6058785 144.7787282  99.8352329  76.3467880
 144.3249609  98.9943239  76.4033070 144.1481249 100.4713728  76.6842660
 143.7220201  90.7644315  77.5768547 142.9842958  90.2521702  77.9078790
 143.9746975  90.3244697  76.7651824 143.2220221 101.6728826  77.2817698
 143.5143196 102.2333883  76.5630064 143.7318842 101.9657387  78.0370857
 143.8231829  83.5420567  78.1710317 144.1290706  82.6817931  77.8836232
 144.5484434  84.1338188  77.9709310 138.1853846 102.4509177  78.3711151
 138.1430025 102.6770023  77.4419683 139.1016545 102.2172552  78.5196952
 141.6319480  92.9193245  85.2691780 141.9868868  93.1464718  86.1286246
 142.2791611  93.2511621  84.6469036 147.3617217  96.0411681  75.9741109
 147.2235116  96.2313277  75.0462299 147.0053436  96.8031063  76.4309161
 147.3886597  98.1088208  80.9852381 147.8223103  98.0163497  81.8335435
 148.1018177  98.0845708  80.3472397 141.1214492 101.7090302  82.5185482
 141.1751514 102.2781238  83.2863197 140.2529273 101.8792187  82.1539519
 134.0012885  91.4107858  84.0009933 134.6735938  91.2025220  83.3522582
 133.1742672  91.2129944  83.5615165 148.2502146  98.1511908  83.5185266
 148.4438036  99.0557719  83.7644541 148.1502764  97.6919327  84.3523851
 139.9038457  88.0369799  86.0175594 139.2566372  88.7359748  85.9240070
 140.6739472  88.4705943  86.3851842 143.3117255  98.3018651  89.0926147
 143.1602761  98.0729203  88.1756231 143.3021934  99.2589252  89.1057492
 140.0802591  95.8750564  84.0772413 141.0094651  96.0261723  83.9041381
 139.6593621  95.9634584  83.2221060 138.8790923  99.9001228  81.8470951
 138.7402009  99.5320013  82.7196889 138.0905519 100.4148868  81.6754909
 139.4739075 105.0010325  73.1896488 139.6490831 104.5298368  74.0042110
 138.7871863 105.6276091  73.4177748 140.4296138  99.2782831  79.2359789
 140.0945971  99.2383601  80.1317439 139.9300084  98.6127547  78.7630199
 134.4040382  94.6850461  84.7612370 134.2660180  93.9530700  85.3623909
 135.3145306  94.5959361  84.4796558 143.3655330  96.6238865  69.5096848
 142.7484501  95.8985693  69.4129901 142.8971818  97.3848225  69.1663923
 137.0322683  94.3970420  84.2496050 137.7422301  93.7563612  84.2082668
 136.9891991  94.6483315  85.1722230 145.0209462 101.3337774  87.1702629
 144.9622008 100.6496994  86.5033212 145.4228980 102.0756764  86.7183255
 135.7451617  91.3835638  86.0691689 135.2088974  90.9326377  86.7213285
 135.1568325  91.5181547  85.3262153 134.0400160 108.1499687  79.9636348
 134.2796759 108.7818212  80.6415366 133.1969357 107.7987727  80.2501707
 145.0226869  99.2977357  85.4016608 144.1353648  98.9603279  85.5243007
 145.5925420  98.5660389  85.6385374 131.4790738  90.5191646  83.1544684
 131.3948927  89.9117315  82.4195094 130.6573445  91.0100664  83.1554180
 138.5528022 103.9578810  82.3677852 138.4798194 104.7633781  82.8797156
 138.1105415 104.1570776  81.5425873 138.3417802 103.1950580  75.8780673
 137.5585324 103.7372260  75.9718898 139.0410547 103.7124559  76.2774914
 141.6514452  89.0045209  78.5214879 142.1483152  88.2515172  78.2015949
 140.8801433  89.0409526  77.9558088 149.5044209  94.7085575  80.1633170
 149.4934086  95.5910290  79.7927103 148.6361589  94.3557126  79.9687707
 141.0126706 103.8565644  84.5236010 141.7254678 104.4913109  84.4511912
 140.5216734 103.9529510  83.7076012 146.1216784  93.6034216  76.6303336
 146.5877236  94.4362207  76.5563639 146.5724285  93.1379197  77.3348595
 136.0638619 101.6060087  85.3441581 136.7648079 102.2396570  85.4970975
 135.5933734 101.9474819  84.5837220 144.1893015  99.9478037  73.6289488
 144.4652859  99.8334632  74.5383362 143.3197514  99.5495522  73.5901661
 144.0933447  85.9714803  80.6694237 143.1796527  86.2019030  80.8376444
 144.5226548  86.0553247  81.5208270 143.8639905  94.1604695  83.1694132
 143.2111356  94.4080602  82.5146584 144.2420285  93.3468833  82.8356609
 140.8247079 104.1964388  77.2722302 141.0069474 103.3786044  77.7350054
 141.6480065 104.4132080  76.8347192 141.1589245 103.1232573  74.5337350
 141.6877011 102.6125028  73.9207512 141.4217464 102.8075103  75.3982883
 139.9127478  94.9024506  89.6560169 139.2368115  94.8018635  90.3262544
 140.7355112  94.7463720  90.1196166 131.6606337 101.1396442  82.2772684
 132.2459774 100.3940130  82.4100588 131.4631176 101.4500399  83.1609348
 138.6550261 106.2091433  83.8917785 139.2068569 106.3723055  84.6566870
 138.9956455 106.7995871  83.2197809 133.6314754  88.5566583  84.4939669
 133.6956081  89.4181414  84.0817067 133.5681875  87.9440585  83.7612028
 133.1067027  90.6289716  88.1412704 133.7339066  90.2466793  88.7550228
 132.2494946  90.4103918  88.5068396 143.5061136 101.0352691  89.7466439
 144.0501039 101.6482649  89.2521394 142.9247980 101.5932269  90.2633452
 141.7918648 104.1573409  80.8781467 141.6669788 103.3563149  80.3692412
 142.4497740 104.6519602  80.3895437 143.8553557 101.9582429  82.5061017
 142.9083892 101.8387780  82.4339344 144.2036330 101.0704927  82.5887278
 136.2153130  87.8476568  86.3299259 136.7387532  88.0938864  87.0925568
 135.9965463  88.6796603  85.9102396 140.8599990 101.7535145  78.7065369
 140.7124953 100.8251852  78.8872939 141.6853484 101.7755236  78.2222444
 144.4634112 102.5763704  79.7930242 145.3880659 102.3706565  79.6554693
 144.2949415 102.3280105  80.7019583 137.4205675  88.7890263  84.0148929
 137.0802496  87.9898076  84.4169609 136.7144682  89.0891974  83.4425762
 138.0722147  85.8739575  82.4676252 138.8948216  85.4000053  82.3455143
 138.3160211  86.6530059  82.9674939 139.3083239  89.9898584  82.3702248
 139.0501017  90.9115655  82.3686578 138.7768280  89.5929019  83.0602712
 144.2529428 103.0949371  75.1492333 144.4266306 102.5295794  74.3966186
 144.7458319 103.8950266  74.9671823 139.7285195  86.1230535  78.7303410
 139.7506892  86.1869868  77.7755390 140.1453254  85.2835043  78.9243917
 150.1068819  95.8585794  76.7682633 150.5499965  95.1093119  76.3701756
 149.2295330  95.8495931  76.3856365 145.2404601 102.4116136  72.2489232
 145.9355505 103.0322828  72.4676546 145.5827751 101.5611487  72.5241609
 130.8572410  94.2333937  86.1086049 130.1154146  94.3816572  86.6950679
 130.5365154  94.4942202  85.2452798 147.1396024  99.8615841  73.7776562
 147.6647348 100.2003114  73.0525882 147.0518376  98.9262857  73.5939697
 138.8016072 103.7749915  85.9066439 139.1103199 103.5299062  86.7789139
 139.5991555 103.9796553  85.4185309 138.8236685 105.9287824  78.1371816
 138.3841675 105.4364203  78.8304672 139.5744802 105.3860792  77.8963891
 131.3029024 102.1199365  78.1396444 132.1287043 101.8203137  77.7595087
 130.9523076 101.3506988  78.5886232 129.5037629 100.0385692  79.0985377
 128.6669537  99.6107866  78.9169378 129.4761274 100.2318135  80.0356168
 136.3435084  89.9507622  89.8026623 136.3923240  90.8269744  89.4204393
 136.8857598  89.4085015  89.2298266 146.8289930 100.4948745  89.0827760
 146.0385474 100.4772884  88.5432260 146.5923284 101.0337039  89.8376797
 146.9487805  97.3441211  86.3960489 146.9985810  97.1791219  87.3376012
 146.8401728  96.4768470  86.0058370 144.2391567  93.3272139  87.7119796
 145.1401430  93.1878604  87.4203793 144.3139542  93.4926594  88.6517973
 138.5734373  90.7038994  86.5572982 137.7037682  90.9972560  86.2855570
 138.8093853  91.2879439  87.2780245 148.4506002  99.7638153  86.6402510
 148.1590810 100.1268133  87.4765971 147.8378133  99.0505161  86.4615842
 149.6501684  97.3291033  79.1605081 150.4848575  97.7680837  79.3242641
 149.7860813  96.8529686  78.3413326 146.6993190  94.8870767  85.1082568
 147.1747312  95.0798414  84.3001420 145.7758755  94.9429953  84.8625952
 141.2773406  86.9218611  84.0738402 141.7955350  87.6579638  83.7484891
 140.9228539  87.2282604  84.9085161 141.5286001  83.3418893  79.5939299
 141.8087754  82.6742083  80.2199725 142.3136608  83.5347989  79.0813963
 139.3319469 102.5177887  71.1564325 138.7593436 103.1368074  70.7034797
 139.9052263 103.0677249  71.6904247 145.3994859  91.7636527  83.3410874
 146.3512282  91.8634625  83.3623098 145.2298309  90.9714796  83.8508958
 143.4209238  88.8492111  83.5270275 142.8259171  89.1297123  82.8316763
 143.1358935  89.3386012  84.2987016 142.5516729 102.8015037  72.2872907
 143.4847402 102.7360599  72.4905783 142.4639942 103.6371304  71.8287440
 145.1804746 102.1180908  69.2476855 145.1018377 101.7840771  70.1412613
 146.0014412 102.6102676  69.2468327 147.8782937  94.9842647  82.4553174
 147.8459257  94.0458648  82.6412857 148.4883560  95.0626684  81.7218998
 148.0277425  91.7753691  82.5011457 147.5116474  90.9912147  82.3141386
 148.9117374  91.4472407  82.6657976 145.6888152  85.5194706  78.4607269
 145.4912973  85.2109794  79.3450601 146.2987858  86.2456345  78.5905199
 153.6959487  96.0458654  81.5959210 154.4262875  95.7843942  82.1566914
 153.0866432  95.3087376  81.6361278 151.7774784  94.1866517  82.1933662
 151.0507947  94.0522481  81.5850153 151.3622071  94.4943345  82.9990380
 139.6004960  97.9056446  89.9581035 140.5207970  98.0835045  90.1521081
 139.5654543  96.9612492  89.8060734 132.5967033  95.8157481  82.6003816
 132.8153042  96.7474589  82.6191850 133.0092807  95.4565455  83.3858620
 141.4461799  85.4003613  76.2103801 141.9992837  85.8199066  76.8693824
 141.6831885  84.4739361  76.2526757 137.4694898  91.3890687  91.9906565
 137.3691625  92.3385044  91.9218656 137.2516440  91.0608926  91.1182635
 144.8240606  87.5104138  75.7182465 144.2439275  88.1688942  75.3360517
 144.5576539  86.6881483  75.3069883 143.2744172  86.9109196  77.9203785
 143.7743951  87.0225730  77.1118104 143.9179780  86.6070249  78.5604594
 137.3326168  94.8187825  90.8071626 136.8493250  95.6188186  91.0135515
 137.4187107  94.8295770  89.8539070 133.2599506  98.7092360  82.8440060
 134.2142759  98.6776303  82.7769992 133.0612029  98.2482984  83.6590286
 133.8498888  97.2793476  85.4110858 134.6691777  97.7737555  85.4345695
 134.1235695  96.3625444  85.3828425 143.6065484  89.6704229  74.7738813
 142.7191339  89.9553879  74.5559008 144.0219473  89.5097992  73.9266090
 146.9580020  89.6950750  78.4893153 147.7340410  90.1847202  78.7617769
 146.2328154  90.1208804  78.9465022 149.3952579  90.4078369  79.5467093
 149.9897069  90.1674105  78.8360401 149.4679162  89.6885499  80.1740629
 131.6149734 104.2511980  79.8610258 131.4804202 103.4912381  79.2948256
 131.1981797 104.9752880  79.3939047 142.7508697  99.4348903  68.8686833
 143.4544547  99.6398906  69.4844489 142.0271346 100.0025665  69.1335917
 143.5806508  95.1858764  74.9889103 143.5241709  95.6427316  74.1496736
 144.1334850  94.4249449  74.8111946 147.3911314  90.9748496  75.8139223
 147.1348248  90.5745132  76.6447431 146.7664182  91.6892290  75.6889362
 151.7023651  93.7144570  78.3210514 151.1423209  93.7837759  79.0942076
 151.0967155  93.5385554  77.6010011 134.7718860 105.1481297  80.0728701
 134.6551244 106.0926729  79.9707391 133.9511307 104.8454858  80.4614500
 144.6595395  99.8731432  70.9185293 145.4940999  99.4412631  70.7362768
 144.4979738  99.7013446  71.8462188 144.3141287  96.3763546  72.2841633
 144.2590091  96.2107817  71.3430077 143.6887342  97.0839579  72.4403822
 141.6287194  98.6812458  91.6095195 142.4978354  98.8553110  91.2481830
 141.1493946  99.5006874  91.4870925 135.7973374 105.8009559  83.2884629
 136.7000621 105.8333169  83.6051124 135.5710744 104.8710010  83.3030965
 137.5526976 104.5540545  79.9494708 136.6022607 104.5542407  79.8359080
 137.8559463 103.8073280  79.4330742 141.4389532  82.4714431  76.1172888
 140.6721928  81.9172918  76.2629570 141.8500237  82.5436300  76.9787039
 133.4431293  88.7599227  90.2078069 134.3062754  88.4036032  90.4181394
 132.8696704  88.4213122  90.8953473 153.2879670 110.3901084  81.0140470
 153.9258080 110.2707831  80.3103810 153.1700513 111.3381927  81.0728422
 150.0969376 110.3428512  80.9501995 149.7587888 110.2269576  80.0622530
 150.9659144 109.9419677  80.9303001 145.9556192 112.1963988  76.9398886
 145.3921057 112.1053925  76.1715174 145.8408587 111.3763893  77.4201378
 150.5789159 111.4963363  86.9088200 150.5677800 111.1016162  86.0368704
 150.7409799 110.7629436  87.5021972 143.5020624 113.6915180  79.7783106
 144.2941916 113.3506004  79.3629406 143.7417274 113.8010155  80.6985260
 151.5355751 115.8634956  72.2513351 150.8843730 116.4489036  71.8647364
 152.3300113 116.3941151  72.3108388 145.4611378 112.9524093  72.6500485
 146.2342254 112.4053080  72.5113361 145.8136777 113.8168342  72.8614946
 147.2996420 114.2800475  85.8567384 147.0086286 115.1846106  85.7414051
 147.9353405 114.3217003  86.5711454 148.2252627 111.6577324  82.4468744
 148.8216199 111.4333346  81.7325707 148.2827599 110.9162069  83.0494192
 147.7977656 109.1116759  70.2818935 148.0503176 108.5898280  69.5202398
 146.8602215 108.9482904  70.3845619 152.8420938 108.1152537  78.0893678
 153.6284028 107.6971961  77.7384095 153.1059643 109.0198630  78.2575327
 153.0131016 113.5525388  72.7882335 152.3776849 113.6260014  73.5003240
 152.6828422 114.1418987  72.1101414 158.2429365 108.0527771  78.9926657
 158.9754537 107.4826987  79.2264486 157.4868721 107.6649371  79.4333162
 147.5173944 111.0144865  72.4843310 147.4010202 110.3389768  73.1524394
 147.6276204 110.5277239  71.6675463 149.8605485 110.4755012  76.1889999
 149.4963692 109.9485633  76.9002921 150.7172601 110.0853481  76.0156485
 155.7654786 101.7649345  83.4521265 155.4338111 102.6344756  83.2282480
 155.1700399 101.4485629  84.1315296 149.5010972 105.5044912  71.1851348
 149.6685375 106.3725148  71.5521819 149.3108141 105.6672193  70.2612637
 152.2586305 113.9661891  82.8517178 151.9587028 114.8686929  82.7432985
 151.9137365 113.6994074  83.7038331 145.7098787 110.4175688  78.8853882
 144.7849283 110.2851902  79.0931574 145.9583200 111.1969907  79.3823825
 155.6583449 106.4844431  80.5314615 154.7500326 106.4159839  80.2373376
 155.6071045 106.9616376  81.3596441 149.4800193 107.9602569  72.1698014
 149.3599818 108.4059620  73.0083495 148.7852781 108.3087887  71.6111553
 143.0707598 110.0608961  79.7197672 143.1999979 110.3143440  80.6337083
 142.3905049 110.6536669  79.4002327 147.2407085 120.7306211  75.8188146
 147.1631115 121.6814036  75.8976626 146.6368729 120.3852084  76.4763072
 149.7324315 107.9034076  88.4749513 148.9557649 108.4627997  88.4652377
 150.3714878 108.3890859  88.9964383 157.5245096 104.6860869  82.3092489
 156.8819476 104.9793402  81.6632284 157.0200024 104.5713790  83.1145686
 155.1785259 108.4324042  72.9978349 156.0903115 108.6651429  72.8226046
 154.6694906 109.0161087  72.4353427 147.9870687 110.7119530  88.0367480
 148.7285372 111.2504574  87.7602303 147.2807673 111.3385819  88.1939031
 153.4626027 112.8548670  86.6339641 153.8709383 112.4131081  85.8894273
 152.7403288 112.2801298  86.8873834 149.8157097 107.7921277  84.0073198
 150.6618292 108.2160691  84.1507847 149.7555735 107.1354901  84.7011761
 153.7854842 113.4149861  80.3891930 153.1563704 113.5795575  79.6867998
 153.3980504 113.8291470  81.1602894 157.6644073 114.3504299  77.7436294
 156.9795112 114.7303200  77.1933327 157.7487923 114.9599625  78.4768241
 152.9656542 105.4525645  85.6654372 152.7217474 106.2067706  85.1288647
 153.2416473 105.8310993  86.5001619 154.9195005 111.9964258  84.3431637
 155.1311900 112.6396018  83.6666018 154.8724753 111.1626574  83.8753567
 152.5221234 104.6082078  81.2468209 151.6605713 104.9063332  81.5384947
 152.5483669 104.8252477  80.3149242 149.3382803 113.1524269  77.6542015
 149.8021149 113.4311972  76.8646638 149.0739602 112.2507714  77.4715106
 146.2306884 112.6995751  80.5921778 146.8008242 113.1283019  79.9539263
 146.8214996 112.4178335  81.2905964 148.2751689 109.2747421  74.4631580
 148.9775733 109.7268465  74.9305507 147.9432318 108.6331240  75.0911473
 146.7232051 107.8659178  88.8382790 146.0930712 108.5475459  89.0718186
 146.6168139 107.7542260  87.8935928 142.0177023 107.5330974  79.7648714
 141.2276077 107.7888503  79.2888824 142.5088271 108.3479312  79.8700754
 156.0340833 114.8736213  82.5153995 156.8558277 114.4716400  82.2336676
 156.0303236 114.7704447  83.4670110 143.9691769 107.8975553  76.7232190
 143.1722932 108.0094248  77.2415686 143.7417361 108.2362205  75.8573081
 149.7997436 114.4220256  84.6714705 149.8641869 114.8840664  85.5072877
 149.0908360 113.7917621  84.7997015 140.3014726 107.7861464  82.1963705
 140.5522765 108.6708474  82.4621281 140.8374275 107.6066066  81.4238796
 149.5145454 116.0888364  74.5393685 149.3791129 116.9339900  74.9678533
 150.0555267 116.2907642  73.7759619 146.0012794 102.1679944  91.2008041
 145.6079739 101.6146142  91.8755685 146.8178934 102.4790522  91.5914558
 142.9674851 113.6063802  75.1121611 143.4799372 114.4007052  75.2627175
 143.6197564 112.9090092  75.0455212 144.7769736 116.7229558  77.1944364
 144.9536365 117.6447523  77.0065348 145.5726570 116.4087978  77.6238743
 148.9180755 103.5837823  88.7928297 149.6590468 104.1844976  88.7132760
 149.1498678 102.8415461  88.2346340 144.0622093 108.7694190  87.0706527
 143.9475608 107.8679447  87.3713626 143.2066610 109.0157887  86.7191343
 151.1413930 116.7111930  88.6694028 150.6977785 115.9248309  88.3514932
 151.8031144 116.8991081  88.0037918 145.9001052 118.2407732  83.1954706
 146.4508477 118.1124795  82.4231700 145.0612528 118.5402621  82.8449599
 153.2395169 116.9914730  86.6975429 153.2213644 117.8123611  86.2055698
 154.1615089 116.8668806  86.9225570 149.6968223 114.5058860  87.5398937
 150.2296559 113.7447148  87.3098245 149.1682304 114.2132512  88.2823092
 152.8637918  99.6118926  83.0692579 152.5202187 100.5020568  82.9931689
 153.2316880  99.4220584  82.2062164 140.9323768 111.9352456  75.8881181
 141.7698990 112.3449465  75.6714889 141.1102036 110.9951898  75.8581375
 152.8288200 109.6027537  71.5765014 152.3134824 110.3732142  71.8153401
 152.5565509 108.9292673  72.1998075 150.4135311 104.4477238  76.6350252
 149.5576908 104.0584088  76.4555891 150.8262263 104.5269199  75.7750038
 151.9434458 101.9823581  81.0341812 151.4399254 101.9453716  80.2209617
 152.2365065 102.8916324  81.0938469 148.1877344 102.0662311  80.0407994
 149.0530341 101.8705119  79.6813883 148.2554853 101.8372663  80.9677351
 157.8022475 112.3559892  73.5118187 157.0251917 112.0171051  73.0673350
 158.4813955 112.3612515  72.8373153 152.6174504 107.4754629  73.4024795
 152.3124639 107.7900778  74.2534938 153.5704946 107.5536049  73.4452128
 151.0620935 113.6344852  75.0517749 150.5342297 112.8997612  74.7390987
 150.5608438 114.4119529  74.8057717 156.0413781 111.8293873  80.1684795
 155.3837456 112.5193134  80.2564924 156.8454181 112.2190305  80.5118782
 145.7939663 104.2964519  77.4124361 146.3683415 104.0739700  76.6797554
 146.3810645 104.3653213  78.1652962 154.8519240 110.1838246  78.2188737
 155.3651122 110.8168237  78.7210447 155.5020464 109.5839441  77.8532097
 146.1209250 106.3268980  71.4320246 145.2846562 106.6643666  71.7529521
 145.9814020 106.1917959  70.4947383 148.0962331 101.1705768  76.1399430
 147.4426743 100.8554785  75.5156045 148.0542805 100.5481508  76.8659253
 149.2073536 111.4525063  68.0552722 148.3000597 111.2214316  68.2543871
 149.7044568 110.6562682  68.2426704 152.1141614 120.1622570  70.9749408
 151.4403313 120.4654267  71.5834366 152.5007436 120.9651650  70.6254865
 151.3300071 107.6587701  80.4647078 150.4122632 107.8802648  80.3068766
 151.7460215 107.7334012  79.6058785 152.1135119 109.0579117  75.5949758
 152.8606938 109.5700514  75.2856880 152.3826708 108.7363170  76.4554152
 150.3861769 111.5537658  72.5776712 149.4772988 111.2696690  72.6749182
 150.4156853 111.9736736  71.7180019 155.6181036 115.1644247  76.3467880
 155.1643364 114.3235157  76.4033070 154.9875003 115.8005645  76.6842660
 154.5613956 106.0936233  77.5768547 153.8236713 105.5813619  77.9078790
 154.8140730 105.6536615  76.7651824 154.0613976 117.0020744  77.2817698
 154.3536950 117.5625801  76.5630064 154.5712596 117.2949305  78.0370857
 154.6625583  98.8712485  78.1710317 154.9684460  98.0109848  77.8836232
 155.3878188  99.4630105  77.9709310 140.9549939 109.2743172  76.5591914
 140.7574339 108.6812532  75.8342981 140.3996603 108.9695382  77.2767853
 148.9346663 109.1666278  78.6786508 148.9895273 108.2140115  78.6028984
 148.1237865 109.3225717  79.1627806 150.0837857 113.0946401  69.9164791
 149.6457287 112.3782260  69.4570428 150.8248298 113.3222516  69.3549882
 146.8739023 107.7843338  76.4376887 146.0606889 108.0837508  76.8442079
 147.3698017 107.3899027  77.1551369 149.0247601 117.7801095  78.3711151
 148.9823780 118.0061941  77.4419683 149.9410300 117.5464469  78.5196952
 152.4713235 108.2485162  85.2691780 152.8262622 108.4756635  86.1286246
 153.1185366 108.5803539  84.6469036 158.2010972 111.3703598  75.9741109
 158.0628870 111.5605194  75.0462299 157.8447190 112.1322981  76.4309161
 146.3653098 105.3561693  82.0538121 147.0052477 105.2150452  81.3561085
 145.5330628 105.0696207  81.6776723 158.2280351 113.4380125  80.9852381
 158.6616858 113.3455414  81.8335435 158.9411932 113.4137626  80.3472397
 147.1413402 114.6564124  78.1673114 147.9354000 114.1614444  77.9655689
 146.4305094 114.1281987  77.8040819 151.9608246 117.0382219  82.5185482
 152.0145268 117.6073156  83.2863197 151.0923027 117.2084104  82.1539519
 143.4496165 108.8007206  74.2432867 142.5193753 108.7391661  74.4602829
 143.5453637 108.2783158  73.4469508 143.3681714 105.3262018  76.8311108
 143.6288531 106.2407352  76.7220269 144.1898886 104.8586461  76.9807721
 144.8406639 106.7399776  84.0009933 145.5129693 106.5317138  83.3522582
 144.0136426 106.5421862  83.5615165 150.7432211 103.3661716  86.0175594
 150.0960127 104.0651666  85.9240070 151.5133227 103.7997860  86.3851842
 154.1511009 113.6310569  89.0926147 153.9996516 113.4021120  88.1756231
 154.1415689 114.5881170  89.1057492 150.9196346 111.2042481  84.0772413
 151.8488406 111.3553641  83.9041381 150.4987376 111.2926502  83.2221060
 149.7184678 115.2293146  81.8470951 149.5795763 114.8611930  82.7196889
 148.9299274 115.7440785  81.6754909 150.3132830 120.3302242  73.1896488
 150.4884585 119.8590285  74.0042110 149.6265618 120.9568008  73.4177748
 151.2689893 114.6074748  79.2359789 150.9339725 114.5675518  80.1317439
 150.7693838 113.9419464  78.7630199 145.2434137 110.0142379  84.7612370
 145.1053935 109.2822617  85.3623909 146.1539060 109.9251279  84.4796558
 154.2049084 111.9530783  69.5096848 153.5878255 111.2277611  69.4129901
 153.7365573 112.7140143  69.1663923 147.8716437 109.7262338  84.2496050
 148.5816056 109.0855530  84.2082668 147.8285746 109.9775233  85.1722230
 155.8603216 116.6629691  87.1702629 155.8015762 115.9788911  86.5033212
 156.2622734 117.4048681  86.7183255 146.5845371 106.7127556  86.0691689
 146.0482728 106.2618294  86.7213285 145.9962080 106.8473465  85.3262153
 144.8793915 123.4791605  79.9636348 145.1190513 124.1110129  80.6415366
 144.0363111 123.1279645  80.2501707 145.9947630 106.1716207  68.6318153
 145.1177097 106.0505008  68.2680399 146.4705383 105.3802285  68.3797041
 155.8620623 114.6269275  85.4016608 154.9747402 114.2895197  85.5243007
 156.4319174 113.8952306  85.6385374 137.5149770 110.9593367  78.7259660
 138.2020810 110.6455097  78.1380675 137.3597899 111.8634732  78.4526911
 142.3184493 105.8483563  83.1544684 142.2342681 105.2409233  82.4195094
 141.4967199 106.3392582  83.1554180 149.3921777 119.2870727  82.3677852
 149.3191948 120.0925699  82.8797156 148.9499170 119.4862693  81.5425873
 149.1811556 118.5242497  75.8780673 148.3979078 119.0664178  75.9718898
 149.8804302 119.0416477  76.2774914 152.4908206 104.3337127  78.5214879
 152.9876906 103.5807089  78.2015949 151.7195188 104.3701444  77.9558088
 151.8520460 119.1857561  84.5236010 152.5648432 119.8205026  84.4511912
 151.3610489 119.2821427  83.7076012 153.5737987 113.0908814  76.0953302
 152.6394266 113.2110277  75.9258006 153.7514656 112.1881281  75.8313312
 149.0743175 106.4754510  78.2486563 148.7040963 105.9225550  78.9367469
 149.5702268 105.8712643  77.6961563 156.9610539 108.9326133  76.6303336
 157.4270991 109.7654125  76.5563639 157.4118039 108.4671115  77.3348595
 146.9032374 116.9352005  85.3441581 147.6041833 117.5688488  85.4970975
 146.4327489 117.2766737  84.5837220 155.0286770 115.2769955  73.6289488
 155.3046614 115.1626549  74.5383362 154.1591268 114.8787440  73.5901661
 154.9327201 101.3006720  80.6694237 154.0190281 101.5310947  80.8376444
 155.3620303 101.3845165  81.5208270 154.7033660 109.4896612  83.1694132
 154.0505110 109.7372520  82.5146584 155.0814040 108.6760751  82.8356609
 151.6640834 119.5256306  77.2722302 151.8463228 118.7077962  77.7350054
 152.4873820 119.7423998  76.8347192 151.9982999 118.4524491  74.5337350
 152.5270766 117.9416945  73.9207512 152.2611219 118.1367021  75.3982883
 150.7521233 110.2316423  89.6560169 150.0761870 110.1310553  90.3262544
 151.5748867 110.0755637  90.1196166 142.5000092 116.4688360  82.2772684
 143.0853529 115.7232048  82.4100588 142.3024930 116.7792317  83.1609348
 145.3538747 119.5039607  77.2935126 144.6849122 119.9885735  76.8099166
 145.2151617 119.7508828  78.2078505 137.0917747 109.0393960  80.9977127
 137.1301846 108.5057551  81.7914245 136.5858039 108.5129166  80.3788104
 149.4944016 121.5383351  83.8917785 150.0462324 121.7014972  84.6566870
 149.8350209 122.1287789  83.2197809 144.4708509 103.8858501  84.4939669
 144.5349835 104.7473332  84.0817067 144.4075629 103.2732502  83.7612028
 143.9460781 105.9581633  88.1412704 144.5732820 105.5758711  88.7550228
 143.0888700 105.7395835  88.5068396 154.3454890 116.3644608  89.7466439
 154.8894794 116.9774567  89.2521394 153.7641735 116.9224187  90.2633452
 140.7226324 107.7658062  74.0731058 141.0179765 106.8568741  74.0198112
 139.8214360 107.7445802  73.7512061 152.6312403 119.4865326  80.8781467
 152.5063542 118.6855066  80.3692412 153.2891494 119.9811520  80.3895437
 144.2520571 105.8414059  80.0558607 143.5307157 106.4550027  79.9166080
 145.0413827 106.3771824  79.9775253 154.6947311 117.2874347  82.5061017
 153.7477647 117.1679698  82.4339344 155.0430084 116.3996845  82.5887278
 147.0546885 103.1768485  86.3299259 147.5781287 103.4230782  87.0925568
 146.8359218 104.0088520  85.9102396 142.4514166 105.4472160  74.1970384
 142.1226872 104.5669539  74.0145489 142.8053536 105.3919829  75.0846773
 151.6993745 117.0827063  78.7065369 151.5518707 116.1543770  78.8872939
 152.5247238 117.1047153  78.2222444 145.5655989 105.7345130  74.5645861
 145.9052061 106.2631051  73.8424470 146.0128109 106.0725536  75.3404428
 155.3027866 117.9055621  79.7930242 156.2274414 117.6998483  79.6554693
 155.1343170 117.6572023  80.7019583 148.2599430 104.1182181  84.0148929
 147.9196250 103.3189994  84.4169609 147.5538436 104.4183891  83.4425762
 148.9115902 101.2031493  82.4676252 149.7341971 100.7291971  82.3455143
 149.1553965 101.9821977  82.9674939 147.5524136 104.2319751  72.7639154
 148.2732499 104.6101004  72.2602871 146.9289440 104.9508628  72.8674132
 151.6955259 104.9364900  73.6997486 151.9118873 105.8189538  73.3986314
 151.2149326 104.5451114  72.9703128 146.4354480 107.8950614  80.2768231
 146.2899061 108.2090917  81.1692512 145.9579684 108.5135514  79.7239130
 148.2950863 104.8853162  80.3249120 148.2812432 103.9894255  79.9881418
 149.0123291 104.8923825  80.9587407 150.1476994 105.3190502  82.3702248
 149.8894772 106.2407572  82.3686578 149.6162034 104.9220936  83.0602712
 155.0923183 118.4241289  75.1492333 155.2660060 117.8587711  74.3966186
 155.5852074 119.2242184  74.9671823 140.9100142 110.4355958  83.2155892
 140.3653611 111.2115766  83.3476166 141.7879492 110.7826762  83.0575014
 147.6987759 103.7667542  75.5936691 147.8203670 102.8384188  75.7927578
 147.4089802 103.7806228  74.6815006 150.5678950 101.4522452  78.7303410
 150.5900646 101.5161785  77.7755390 150.9847009 100.6126961  78.9243917
 156.0798355 117.7408053  72.2489232 156.7749260 118.3614746  72.4676546
 156.4221505 116.8903405  72.5241609 141.6966164 109.5625854  86.1086049
 140.9547900 109.7108490  86.6950679 141.3758909 109.8234120  85.2452798
 157.9789778 115.1907759  73.7776562 158.5041102 115.5295032  73.0525882
 157.8912131 114.2554774  73.5939697 149.6409827 119.1041833  85.9066439
 149.9496953 118.8590979  86.7789139 150.4385309 119.3088471  85.4185309
 149.6630439 121.2579742  78.1371816 149.2235429 120.7656121  78.8304672
 150.4138556 120.7152710  77.8963891 142.1422778 117.4491283  78.1396444
 142.9680798 117.1495055  77.7595087 141.7916830 116.6798905  78.5886232
 147.1104311 116.8017751  80.2094117 146.4884320 116.1388456  79.9096345
 147.7809178 116.8278883  79.5267765 140.3431383 115.3677609  79.0985377
 139.5063291 114.9399784  78.9169378 140.3155028 115.5610053  80.0356168
 147.1828839 105.2799539  89.8026623 147.2316994 106.1561662  89.4204393
 147.7251353 104.7376932  89.2298266 157.6683684 115.8240663  89.0827760
 156.8779228 115.8064801  88.5432260 157.4317039 116.3628956  89.8376797
 157.7881559 112.6733129  86.3960489 157.8379564 112.5083136  87.3376012
 157.6795483 111.8060388  86.0058370 146.6717818 115.3521675  73.6852578
 146.8205938 116.0357139  73.0319250 147.4784262 115.3326765  74.2002033
 155.0785322 108.6564057  87.7119796 155.9795185 108.5170522  87.4203793
 155.1533296 108.8218512  88.6517973 149.4128127 106.0330912  86.5572982
 148.5431437 106.3264478  86.2855570 149.6487607 106.6171357  87.2780245
 157.5386944 110.2162685  85.1082568 158.0141066 110.4090331  84.3001420
 156.6152510 110.2721871  84.8625952 144.4270451 111.3786852  74.6913647
 144.1816493 110.4749182  74.8893857 144.5966366 111.3804003  73.7493125
 152.1167161 102.2510529  84.0738402 152.6349105 102.9871556  83.7484891
 151.7622294 102.5574522  84.9085161 143.6966099 107.1115210  72.1899808
 143.0035344 107.1859565  71.5339844 143.4517851 106.3475553  72.7121325
 152.3679755  98.6710811  79.5939299 152.6481509  98.0034000  80.2199725
 153.1530362  98.8639907  79.0813963 150.1713224 117.8469805  71.1564325
 149.5987191 118.4659992  70.7034797 150.7446017 118.3969167  71.6904247
 156.2388613 107.0928445  83.3410874 157.1906036 107.1926543  83.3623098
 156.0692064 106.3006714  83.8508958 154.2602993 104.1784028  83.5270275
 153.6652925 104.4589041  82.8316763 153.9752690 104.6677929  84.2987016
 153.3910483 118.1306955  72.2872907 154.3241157 118.0652517  72.4905783
 153.3033696 118.9663222  71.8287440 156.0198500 117.4472825  69.2476855
 155.9412132 117.1132689  70.1412613 156.8408167 117.9394593  69.2468327
 150.5560022 109.1830618  68.4980378 151.5019127 109.0536826  68.5668796
 150.1774267 108.4445280  68.9749806 156.5281907 100.8486624  78.4607269
 156.3306728 100.5401712  79.3450601 157.1381612 101.5748263  78.5905199
 150.4398715 113.2348364  89.9581035 151.3601724 113.4126963  90.1521081
 150.4048298 112.2904409  89.8060734 148.7402939 107.1080594  68.4335263
 147.8334395 106.8113707  68.5097976 149.0178920 106.8110412  67.5669549
 139.6580880 108.4286958  78.8834309 139.3383664 107.5752266  78.5908683
 139.1114308 108.6435536  79.6392277 143.4360787 111.1449399  82.6003816
 143.6546797 112.0766506  82.6191850 143.8486561 110.7857373  83.3858620
 150.3565005 101.6517484  74.5879504 149.5465733 101.3064569  74.9634750
 151.0449422 101.3425028  75.1767116 152.2855553 100.7295531  76.2103801
 152.8386592 101.1490984  76.8693824 152.5225640  99.8031279  76.2526757
 148.3088653 106.7182604  91.9906565 148.2085379 107.6676961  91.9218656
 148.0910195 106.3900843  91.1182635 147.5101724 103.9667529  68.5747242
 148.3720888 104.2922428  68.8343059 147.6952068 103.1799025  68.0620308
 139.5269140 112.0489869  80.8527431 138.8332611 111.6343822  80.3397385
 140.2742131 112.0910406  80.2560850 155.6634360 102.8396056  75.7182465
 155.0833029 103.4980860  75.3360517 155.3970293 102.0173400  75.3069883
 154.1137927 102.2401114  77.9203785 154.6137705 102.3517648  77.1118104
 154.7573535 101.9362166  78.5604594 148.1719923 110.1479743  90.8071626
 147.6887004 110.9480103  91.0135515 148.2580862 110.1587688  89.8539070
 141.4405882 111.9808123  78.7293446 141.4176570 112.0795810  77.7775329
 141.7506519 112.8273274  79.0510612 144.0993260 114.0384278  82.8440060
 145.0536514 114.0068220  82.7769992 143.9005784 113.5774902  83.6590286
 144.6892642 112.6085394  85.4110858 145.5085531 113.1029473  85.4345695
 144.9629450 111.6917362  85.3828425 154.4459238 104.9996146  74.7738813
 153.5585093 105.2845797  74.5559008 154.8613227 104.8389910  73.9266090
 157.7973775 105.0242667  78.4893153 158.5734165 105.5139120  78.7617769
 157.0721909 105.4500721  78.9465022 142.4543489 119.5803897  79.8610258
 142.3197957 118.8204298  79.2948256 142.0375551 120.3044797  79.3939047
 153.5902452 114.7640821  68.8686833 154.2938302 114.9690823  69.4844489
 152.8665101 115.3317583  69.1335917 154.4200262 110.5150682  74.9889103
 154.3635464 110.9719234  74.1496736 154.9728605 109.7541367  74.8111946
 158.2305068 106.3040414  75.8139223 157.9742002 105.9037050  76.6447431
 157.6057936 107.0184208  75.6889362 145.6112615 120.4773214  80.0728701
 145.4944999 121.4218647  79.9707391 144.7905061 120.1746776  80.4614500
 155.4989149 115.2023350  70.9185293 156.3334753 114.7704549  70.7362768
 155.3373492 115.0305364  71.8462188 155.1535041 111.7055463  72.2841633
 155.0983845 111.5399735  71.3430077 154.5281097 112.4131496  72.4403822
 139.9427556 106.9423528  86.1103055 140.5886420 106.4322482  86.5990280
 139.7344708 107.6792209  86.6846480 152.4680949 114.0104375  91.6095195
 153.3372108 114.1845028  91.2481830 151.9887700 114.8298792  91.4870925
 148.4631167 101.2063572  71.8626951 148.4509837 102.1505412  72.0195222
 149.3554589 101.0233718  71.5686412 146.6367129 121.1301476  83.2884629
 147.5394376 121.1625087  83.6051124 146.4104499 120.2001927  83.3030965
 148.3920731 119.8832463  79.9494708 147.4416362 119.8834324  79.8359080
 148.6953217 119.1365197  79.4330742 152.2783286  97.8006349  76.1172888
 151.5115682  97.2464836  76.2629570 152.6893991  97.8728218  76.9787039
 144.2825047 104.0891145  90.2078069 145.1456509 103.7327950  90.4181394
 143.7090458 103.7505040  90.8953473 156.7949946 127.5255906  76.9398886
 156.2314811 127.4345843  76.1715174 156.6802341 126.7055810  77.4201378
 154.3414378 129.0207097  79.7783106 155.1335670 128.6797922  79.3629406
 154.5811028 129.1302072  80.6985260 156.3005132 128.2816011  72.6500485
 157.0736008 127.7344998  72.5113361 156.6530531 129.1460260  72.8614946
 158.1390175 129.6092393  85.8567384 157.8480041 130.5138024  85.7414051
 158.7747159 129.6508920  86.5711454 158.6371410 124.4408677  70.2818935
 158.8896931 123.9190198  69.5202398 157.6995969 124.2774822  70.3845619
 158.3567699 126.3436783  72.4843310 158.2403957 125.6681686  73.1524394
 158.4669959 125.8569157  71.6675463 156.5492541 125.7467605  78.8853882
 155.6243038 125.6143819  79.0931574 156.7976955 126.5261824  79.3823825
 153.9101352 125.3900879  79.7197672 154.0393734 125.6435358  80.6337083
 153.2298804 125.9828587  79.4002327 157.0700639 128.0287668  80.5921778
 157.6401996 128.4574937  79.9539263 157.6608751 127.7470253  81.2905964
 157.5625805 123.1951096  88.8382790 156.9324466 123.8767377  89.0718186
 157.4561893 123.0834177  87.8935928 152.8570778 122.8622892  79.7648714
 152.0669832 123.1180420  79.2888824 153.3482025 123.6771230  79.8700754
 154.8085523 123.2267471  76.7232190 154.0116687 123.3386165  77.2415686
 154.5811115 123.5654123  75.8573081 151.1408481 123.1153382  82.1963705
 151.3916519 124.0000392  82.4621281 151.6768029 122.9357984  81.4238796
 156.8406548 117.4971862  91.2008041 156.4473494 116.9438060  91.8755685
 157.6572689 117.8082440  91.5914558 153.8068606 128.9355720  75.1121611
 154.3193127 129.7298970  75.2627175 154.4591319 128.2382010  75.0455212
 155.6163491 132.0521476  77.1944364 155.7930119 132.9739441  77.0065348
 156.4120324 131.7379895  77.6238743 154.9015847 124.0986108  87.0706527
 154.7869362 123.1971365  87.3713626 154.0460365 124.3449805  86.7191343
 156.7394806 133.5699650  83.1954706 157.2902231 133.4416713  82.4231700
 155.9006282 133.8694539  82.8449599 151.7717523 127.2644374  75.8881181
 152.6092745 127.6741382  75.6714889 151.9495790 126.3243816  75.8581375
 156.6333417 119.6256436  77.4124361 157.2077169 119.4031618  76.6797554
 157.2204400 119.6945131  78.1652962 156.9603005 121.6560897  71.4320246
 156.1240317 121.9935584  71.7529521 156.8207774 121.5209877  70.4947383
 158.9356085 116.4997685  76.1399430 158.2820498 116.1846702  75.5156045
 158.8936559 115.8773426  76.8659253 151.7943694 124.6035089  76.5591914
 151.5968094 124.0104450  75.8342981 151.2390358 124.2987300  77.2767853
 157.7132777 123.1135256  76.4376887 156.9000643 123.4129426  76.8442079
 158.2091772 122.7190944  77.1551369 157.2046852 120.6853611  82.0538121
 157.8446232 120.5442370  81.3561085 156.3724383 120.3988124  81.6776723
 157.9807156 129.9856041  78.1673114 158.7747755 129.4906362  77.9655689
 157.2698849 129.4573905  77.8040819 154.2889920 124.1299123  74.2432867
 153.3587508 124.0683579  74.4602829 154.3847392 123.6075076  73.4469508
 154.2075469 120.6553936  76.8311108 154.4682286 121.5699269  76.7220269
 155.0292641 120.1878379  76.9807721 155.6800394 122.0691693  84.0009933
 156.3523447 121.8609055  83.3522582 154.8530180 121.8713779  83.5615165
 156.0827891 125.3434296  84.7612370 155.9447689 124.6114535  85.3623909
 156.9932815 125.2543196  84.4796558 157.4239126 122.0419473  86.0691689
 156.8876483 121.5910212  86.7213285 156.8355834 122.1765382  85.3262153
 156.8341385 121.5008125  68.6318153 155.9570851 121.3796926  68.2680399
 157.3099138 120.7094203  68.3797041 148.3543525 126.2885285  78.7259660
 149.0414565 125.9747015  78.1380675 148.1991654 127.1926649  78.4526911
 153.1578247 121.1775481  83.1544684 153.0736436 120.5701151  82.4195094
 152.3360954 121.6684499  83.1554180 157.7426128 132.2643923  85.3441581
 158.4435588 132.8980406  85.4970975 157.2721243 132.6058654  84.5837220
 153.3393846 131.7980278  82.2772684 153.9247283 131.0523966  82.4100588
 153.1418685 132.1084234  83.1609348 156.1932502 134.8331525  77.2935126
 155.5242877 135.3177653  76.8099166 156.0545371 135.0800746  78.2078505
 147.9311501 124.3685878  80.9977127 147.9695601 123.8349469  81.7914245
 147.4251794 123.8421083  80.3788104 155.3102263 119.2150418  84.4939669
 155.3743590 120.0765249  84.0817067 155.2469384 118.6024420  83.7612028
 154.7854536 121.2873551  88.1412704 155.4126575 120.9050628  88.7550228
 153.9282455 121.0687753  88.5068396 151.5620079 123.0949980  74.0731058
 151.8573520 122.1860658  74.0198112 150.6608114 123.0737719  73.7512061
 155.0914326 121.1705977  80.0558607 154.3700911 121.7841944  79.9166080
 155.8807581 121.7063741  79.9775253 157.8940639 118.5060403  86.3299259
 158.4175041 118.7522700  87.0925568 157.6752972 119.3380438  85.9102396
 153.2907920 120.7764078  74.1970384 152.9620626 119.8961457  74.0145489
 153.6447291 120.7211746  75.0846773 156.4049743 121.0637048  74.5645861
 156.7445816 121.5922969  73.8424470 156.8521864 121.4017454  75.3404428
 159.0993184 119.4474098  84.0148929 158.7590005 118.6481911  84.4169609
 158.3932191 119.7475809  83.4425762 158.3917891 119.5611669  72.7639154
 159.1126253 119.9392922  72.2602871 157.7683195 120.2800546  72.8674132
 157.2748235 123.2242531  80.2768231 157.1292816 123.5382834  81.1692512
 156.7973438 123.8427432  79.7239130 151.7493897 125.7647876  83.2155892
 151.2047365 126.5407684  83.3476166 152.6273247 126.1118680  83.0575014
 158.5381514 119.0959460  75.5936691 158.6597425 118.1676106  75.7927578
 158.2483556 119.1098146  74.6815006 152.5359919 124.8917772  86.1086049
 151.7941655 125.0400407  86.6950679 152.2152663 125.1526038  85.2452798
 152.9816533 132.7783201  78.1396444 153.8074552 132.4786973  77.7595087
 152.6310585 132.0090823  78.5886232 157.9498066 132.1309669  80.2094117
 157.3278075 131.4680374  79.9096345 158.6202933 132.1570801  79.5267765
 151.1825138 130.6969527  79.0985377 150.3457046 130.2691701  78.9169378
 151.1548783 130.8901970  80.0356168 158.0222593 120.6091457  89.8026623
 158.0710749 121.4853580  89.4204393 158.5645107 120.0668850  89.2298266
 157.5111573 130.6813592  73.6852578 157.6599693 131.3649057  73.0319250
 158.3178016 130.6618682  74.2002033 155.2664206 126.7078770  74.6913647
 155.0210248 125.8041100  74.8893857 155.4360120 126.7095920  73.7493125
 154.5359853 122.4407127  72.1899808 153.8429098 122.5151482  71.5339844
 154.2911605 121.6767471  72.7121325 150.4974634 123.7578875  78.8834309
 150.1777418 122.9044183  78.5908683 149.9508062 123.9727453  79.6392277
 154.2754542 126.4741316  82.6003816 154.4940551 127.4058424  82.6191850
 154.6880316 126.1149291  83.3858620 159.1482407 122.0474522  91.9906565
 159.0479134 122.9968879  91.9218656 158.9303949 121.7192761  91.1182635
 158.3495478 119.2959447  68.5747242 159.2114642 119.6214345  68.8343059
 158.5345823 118.5090943  68.0620308 150.3662894 127.3781787  80.8527431
 149.6726366 126.9635740  80.3397385 151.1135885 127.4202323  80.2560850
 159.0113677 125.4771661  90.8071626 158.5280759 126.2772021  91.0135515
 159.0974616 125.4879606  89.8539070 152.2799637 127.3100041  78.7293446
 152.2570325 127.4087728  77.7775329 152.5900273 128.1565191  79.0510612
 154.9387015 129.3676196  82.8440060 155.8930268 129.3360138  82.7769992
 154.7399538 128.9066819  83.6590286 155.5286397 127.9377312  85.4110858
 156.3479286 128.4321390  85.4345695 155.8023204 127.0209280  85.3828425
 153.2937243 134.9095815  79.8610258 153.1591711 134.1496216  79.2948256
 152.8769306 135.6336715  79.3939047 156.4506369 135.8065132  80.0728701
 156.3338753 136.7510565  79.9707391 155.6298815 135.5038694  80.4614500
 150.7821311 122.2715445  86.1103055 151.4280175 121.7614399  86.5990280
 150.5738462 123.0084127  86.6846480 157.4760883 136.4593394  83.2884629
 158.3788130 136.4917004  83.6051124 157.2498253 135.5293845  83.3030965
 155.1218802 119.4183063  90.2078069 155.9850263 119.0619867  90.4181394
 154.5484213 119.0796957  90.8953473  69.0037635  -6.8189696  66.6881654
  69.2434233  -6.1871172  67.3660673  68.1606831  -7.1701656  66.9747014
  80.9193666  -2.7725395  63.6644192  80.3558531  -2.8635458  62.8960480
  80.8046061  -3.5925491  64.1446685  78.4658098  -1.2774204  66.5028413
  79.2579390  -1.6183379  66.0874712  78.7054748  -1.1679229  67.4230566
  86.4993225   0.8945572  58.9758657  85.8481205   1.4799653  58.5892671
  87.2937588   1.4251767  59.0353695  80.4248852  -2.0165291  59.3745792
  81.1979728  -2.5636303  59.2358667  80.7774251  -1.1521041  59.5860253
  82.2633895  -0.6888908  72.5812691  81.9723761   0.2156723  72.4659357
  82.8990879  -0.6472381  73.2956761  87.9768490  -1.4163996  59.5127642
  87.3414323  -1.3429369  60.2248546  87.6465896  -0.8270397  58.8346721
  87.2223780  -1.0027493  69.5762485  86.9224503  -0.1002454  69.4678292
  86.8774839  -1.2695310  70.4283638  78.0345072  -4.9080422  66.4442978
  78.1637453  -4.6545943  67.3582390  77.3542524  -4.3152714  66.1247633
  82.2044559   5.7616828  62.5433452  82.1268589   6.7124653  62.6221933
  81.6006203   5.4162700  63.2008379  84.3020278  -1.8165114  64.3787322
  84.7658623  -1.5377411  63.5891944  84.0377076  -2.7181670  64.1960412
  81.1944359  -2.2693633  67.3167085  81.7645716  -1.8406365  66.6784569
  81.7852471  -2.5511048  68.0151271  84.7634911  -0.5469127  71.3960012
  84.8279343  -0.0848720  72.2318184  84.0545835  -1.1771762  71.5242322
  84.4782928   1.1198981  61.2638992  84.3428603   1.9650516  61.6923840
  85.0192741   1.3218258  60.5004926  77.9312326  -1.3625581  61.8366917
  78.4436846  -0.5682331  61.9872482  78.5835039  -2.0599291  61.7700519
  79.7407210   1.7540175  63.9189670  79.9173839   2.6758140  63.7310654
  80.5364044   1.4398594  64.3484050  86.1051405   1.7422547  75.3939334
  85.6615259   0.9558926  75.0760239  86.7668618   1.9301698  74.7283225
  80.8638526   3.2718349  69.9200013  81.4145951   3.1435412  69.1477007
  80.0250002   3.5713238  69.5694905  88.2032643   2.0225347  73.4220735
  88.1851118   2.8434228  72.9301005  89.1252563   1.8979422  73.6470877
  84.6605697  -0.4630524  74.2644244  85.1934034  -1.2242235  74.0343552
  84.1319778  -0.7556872  75.0068398  75.8961243  -3.0336927  62.6126488
  76.7336465  -2.6239919  62.3960195  76.0739510  -3.9737485  62.5826682
  86.0258410  -1.3344531  61.7763056  85.4979771  -2.0691772  61.4636293
  85.5245912  -0.5569855  61.5303024  87.0779089   5.1933186  57.6994715
  86.4040788   5.4964883  58.3079673  87.4644911   5.9962267  57.3500172
  90.5818511   0.1954864  63.0713186  90.1280838  -0.6454227  63.1278377
  89.9512477   0.8316262  63.4087967  89.0251450   2.0331360  64.0063005
  89.3174424   2.5936417  63.2875370  89.5350071   2.3259921  64.7616164
  85.0475331  -1.8742982  56.6410098  84.6094761  -2.5907123  56.1815735
  85.7885772  -1.6466867  56.0795189  83.9885075   2.8111711  65.0956458
  83.9461254   3.0372558  64.1664990  84.9047774   2.5775086  65.2442259
  82.1050876  -0.3125260  64.8918421  82.8991474  -0.8074940  64.6900996
  81.3942568  -0.8407397  64.5286126  86.9245720   2.0692836  69.2430788
  86.9782743   2.6383772  70.0108504  86.0560502   2.2394721  68.8784825
  84.6822152   0.2603762  68.5716258  84.5433238  -0.1077453  69.4442196
  83.8936748   0.7751402  68.4000215  85.2770304   5.3612859  59.9141794
  85.4522060   4.8900902  60.7287417  84.5903092   5.9878625  60.1423055
  86.2327367  -0.3614635  65.9605095  85.8977200  -0.4013865  66.8562745
  85.7331313  -1.0269919  65.4875506  90.8240690   1.6940308  73.8947935
  90.7653237   1.0099528  73.2278518  91.2260209   2.4359298  73.4428561
  79.8431389   8.5102222  66.6881654  80.0827987   9.1420746  67.3660673
  79.0000586   8.1590262  66.9747014  72.4787245  -4.0096017  65.4504967
  73.1658285  -4.3234287  64.8625982  72.3235373  -3.1054652  65.1772218
  84.3559251   4.3181344  69.0923158  84.2829423   5.1236316  69.6042463
  83.9136644   4.5173310  68.2671180  84.1449031   3.5553114  62.6025980
  83.3616553   4.0974794  62.6964204  84.8441776   4.0727094  63.0020221
  86.8157935   4.2168178  71.2481317  87.5285907   4.8515643  71.1757218
  86.3247963   4.3132044  70.4321319  81.8669848   1.9662622  72.0686888
  82.5679308   2.5999104  72.2216282  81.3964963   2.3077353  71.3082527
  89.9924244   0.3080571  60.3534795  90.2684088   0.1937166  61.2628669
  89.1228743  -0.0901944  60.3146968  86.6278308   4.5566922  63.9967608
  86.8100702   3.7388578  64.4595361  87.4511294   4.7734614  63.5592498
  86.9620473   3.4835107  61.2582657  87.4908240   2.9727562  60.6452819
  87.2248693   3.1677637  62.1228190  77.4637566   1.4998977  69.0017990
  78.0491003   0.7542664  69.1345895  77.2662405   1.8102933  69.8854654
  80.3176221   4.5350224  64.0180433  79.6486597   5.0196352  63.5344473
  80.1789091   4.7819444  64.9323811  72.0555221  -5.9295423  67.7222434
  72.0939320  -6.4631833  68.5159552  71.5495514  -6.4560218  67.1033411
  84.4581490   6.5693967  70.6163091  85.0099798   6.7325589  71.3812176
  84.7987683   7.1598405  69.9443116  89.3092364   1.3955225  76.4711746
  89.8532268   2.0085183  75.9766700  88.7279209   1.9534803  76.9878759
  87.5949877   4.5175943  67.6026773  87.4701017   3.7165683  67.0937719
  88.2528968   5.0122136  67.1140743  89.6584786   2.3184963  69.2306323
  88.7115121   2.1990314  69.1584650  90.0067559   1.4307461  69.3132585
  86.6631219   2.1137679  65.4310676  86.5156181   1.1854387  65.6118246
  87.4884712   2.1357770  64.9467751  90.2665341   2.9366238  66.5175548
  91.1911888   2.7309099  66.3800000  90.0980644   2.6882639  67.4264890
  90.0560657   3.4551905  61.8737640  90.2297535   2.8898328  61.1211492
  90.5489548   4.2552800  61.6917130  75.8737617  -4.5333425  69.9401199
  75.3291085  -3.7573617  70.0721473  76.7516967  -4.1862621  69.7820320
  91.0435829   2.7718670  58.9734538  91.7386734   3.3925363  59.1921853
  91.3858980   1.9214021  59.2486916  76.6603639  -5.4063529  72.8331356
  75.9185375  -5.2580894  73.4195986  76.3396383  -5.1455264  71.9698105
  84.6047301   4.1352449  72.6311746  84.9134428   3.8901596  73.5034445
  85.4022783   4.3399088  72.1430616  84.6267913   6.2890359  64.8617122
  84.1872904   5.7966737  65.5549979  85.3776030   5.7463326  64.6209197
  77.1060252   2.4801900  64.8641750  77.9318272   2.1805671  64.4840394
  76.7554304   1.7109522  65.3131539  82.0741786   1.8328368  66.9339424
  81.4521795   1.1699073  66.6341652  82.7446652   1.8589500  66.2513072
  75.3068857   0.3988226  65.8230684  74.4700766  -0.0289600  65.6414685
  75.2792503   0.5920669  66.7601475  92.6321159   0.8551279  75.8073067
  91.8416702   0.8375418  75.2677566  92.3954513   1.3939573  76.5622104
  81.6355292   0.3832291  60.4097884  81.7843413   1.0667755  59.7564557
  82.4421736   0.3637381  60.9247340  79.3907925  -3.5902531  61.4158953
  79.1453967  -4.4940201  61.6139163  79.5603840  -3.5885381  60.4738431
  85.1350698   2.8780422  57.8809632  84.5624665   3.4970609  57.4280104
  85.7083492   3.4279783  58.4149554  88.3547958   3.1617572  59.0118214
  89.2878631   3.0963133  59.2151090  88.2671171   3.9973839  58.5532747
  90.9835974   2.4783442  55.9722162  90.9049606   2.1443306  56.8657920
  91.8045641   2.9705210  55.9713634  78.3998262  -3.8239985  69.3249122
  78.6184271  -2.8922877  69.3437156  78.8124035  -4.1832010  70.1103926
  74.4906614  -2.9199514  67.5772737  73.7970085  -3.3345562  67.0642692
  75.2379605  -2.8778978  66.9806156  76.4043356  -2.9881261  65.4538752
  76.3814045  -2.8893573  64.5020635  76.7143993  -2.1416110  65.7755918
  79.0630734  -0.9305106  69.5685367  80.0173988  -0.9621163  69.5015298
  78.8643258  -1.3914482  70.3835593  79.6530117  -2.3603990  72.1356164
  80.4723005  -1.8659911  72.1591002  79.9266924  -3.2772021  72.1073732
  77.4180963   4.6114514  66.5855565  77.2835431   3.8514915  66.0193563
  77.0013025   5.3355414  66.1184354  88.5539926  -0.2048563  55.5932140
  89.2575776   0.0001440  56.2089796  87.8302575   0.3628199  55.8581223
  80.5750089   5.5083831  66.7974007  80.4582473   6.4529263  66.6952698
  79.7542535   5.2057392  67.1859807  90.4626624   0.2333967  57.6430600
  91.2972228  -0.1984835  57.4608075  90.3010967   0.0615980  58.5707494
  87.4318423  -0.9585008  78.3340502  88.3009583  -0.7844356  77.9727137
  86.9525174  -0.1390591  78.2116231  81.6004603   6.1612093  70.0129936
  82.5031850   6.1935703  70.3296431  81.3741973   5.2312544  70.0276272
  83.3558205   4.9143079  66.6740014  82.4053836   4.9144941  66.5604387
  83.6590691   4.1675814  66.1576049  99.0910899  10.7503618  67.7385777
  99.7289309  10.6310365  67.0349117  98.9731742  11.6984462  67.7973729
  95.9000605  10.7031046  67.6747301  95.5619116  10.5872111  66.7867836
  96.7690373  10.3022211  67.6548308  91.7587421  12.5566522  63.6644192
  91.1952286  12.4656459  62.8960480  91.6439816  11.7366427  64.1446685
  96.3820388  11.8565898  73.6333507  96.3709029  11.4618696  72.7614011
  96.5441027  11.1231970  74.2267278  89.3051853  14.0517714  66.5028413
  90.0973145  13.7108539  66.0874712  89.5448503  14.1612689  67.4230566
  97.3386979  16.2237490  58.9758657  96.6874959  16.8091570  58.5892671
  98.1331342  16.7543685  59.0353695  91.2642607  13.3126627  59.3745792
  92.0373483  12.7655614  59.2358667  91.6168005  14.1770876  59.5860253
  93.1027649  14.6403009  72.5812691  92.8117515  15.5448640  72.4659357
  93.7384633  14.6819537  73.2956761  94.0283856  12.0179858  69.1714051
  94.6247428  11.7935880  68.4571014  94.0858827  11.2764603  69.7739498
  93.6008884   9.4719293  57.0064242  93.8534405   8.9500815  56.2447705
  92.6633443   9.3085439  57.1090925  98.6452167   8.4755072  64.8138985
  99.4315256   8.0574495  64.4629402  98.9090871   9.3801164  64.9820633
  98.8162245  13.9127922  59.5127642  98.1808077  13.9862548  60.2248546
  98.4859651  14.5021521  58.8346721 104.0460594   8.4130305  65.7171963
 104.7785766   7.8429522  65.9509793 103.2899950   8.0251905  66.1578469
  93.3205173  11.3747399  59.2088617  93.2041431  10.6992303  59.8769701
  93.4307433  10.8879773  58.3920770  95.6636714  10.8357546  62.9135306
  95.2994921  10.3088167  63.6248227  96.5203830  10.4456015  62.7401791
  95.3042201   5.8647446  57.9096654  95.4716603   6.7327682  58.2767125
  95.1139370   6.0274728  56.9857944  98.0617534  14.3264425  69.5762485
  97.7618257  15.2289464  69.4678292  97.7168594  14.0596608  70.4283638
  91.5130016  10.7778222  65.6099189  90.5880512  10.6454436  65.8176881
  91.7614429  11.5572441  66.1069131 101.4614678   6.8446965  67.2559922
 100.5531555   6.7762374  66.9618683 101.4102274   7.3218910  68.0841747
  95.2831422   8.3205103  58.8943321  95.1631047   8.7662154  59.7328801
  94.5884010   8.6690421  58.3356859  88.8738827  10.4211495  66.4442978
  89.0031208  10.6745974  67.3582390  88.1936278  11.0139203  66.1247633
  93.0438314  21.0908745  62.5433452  92.9662344  22.0416570  62.6221933
  92.4399958  20.7454618  63.2008379  95.5355544   8.2636611  75.1994819
  94.7588878   8.8230531  75.1897684  96.1746107   8.7493394  75.7209689
 103.3276324   5.0463403  69.0337796 102.6850705   5.3395937  68.3877590
 102.8231253   4.9316324  69.8390993 100.9816488   8.7926577  59.7223655
 101.8934344   9.0253963  59.5471353 100.4726135   9.3763621  59.1598734
  93.7901916  11.0722064  74.7612786  94.5316600  11.6107108  74.4847610
  93.0838902  11.6988353  74.9184338  99.2657256  13.2151204  73.3584948
  99.6740612  12.7733615  72.6139580  98.5434517  12.6403832  73.6119141
  95.6188326   8.1523811  70.7318505  96.4649521   8.5763225  70.8753154
  95.5586963   7.4957436  71.4257068  99.5886070  13.7752395  67.1137237
  98.9594933  13.9398109  66.4113304  99.2011732  14.1894005  67.8848201
 103.4675302  14.7106833  64.4681600 102.7826340  15.0905734  63.9178634
 103.5519152  15.3202160  65.2013548  98.7687771   5.8128180  72.3899678
  98.5248703   6.5670240  71.8533954  99.0447702   6.1913527  73.2246925
 100.7226234  12.3566792  71.0676944 100.9343129  12.9998552  70.3911325
 100.6755982  11.5229109  70.5998874  98.3252463   4.9684613  67.9713516
  97.4636942   5.2665866  68.2630254  98.3514897   5.1855012  67.0394549
  95.1414032  13.5126803  64.3787322  95.6052378  13.7914506  63.5891944
  94.8770830  12.6110248  64.1960412  92.0338113  13.0598285  67.3167085
  92.6039470  13.4885553  66.6784569  92.6246225  12.7780869  68.0151271
  94.0782918   9.6349956  61.1876887  94.7806962  10.0870999  61.6550813
  93.7463547   8.9933774  61.8156780  92.5263280   8.2261712  75.5628096
  91.8961940   8.9077993  75.7963493  92.4199368   8.1144794  74.6181234
  87.8208252   7.8933508  66.4894020  87.0307306   8.1491037  66.0134131
  88.3119500   8.7081846  66.5946061 101.8372062  15.2338747  69.2399301
 102.6589506  14.8318935  68.9581983 101.8334465  15.1306982  70.1915417
  89.7722998   8.2578087  63.4477497  88.9754161   8.3696782  63.9660993
  89.5448590   8.5964740  62.5818388  95.6028665  14.7822791  71.3960012
  95.6673098  15.2443198  72.2318184  94.8939589  14.1520156  71.5242322
  86.1045955   8.1463999  68.9209011  86.3553994   9.0311009  69.1866587
  86.6405504   7.9668600  68.1484103 109.9278055  11.5777496  65.5884273
 109.1741763  11.0084894  65.4328277 110.0625596  11.5440160  66.5354907
  95.3176683  16.4490898  61.2638992  95.1822358  17.2942434  61.6923840
  95.8586495  16.6510176  60.5004926  91.8044023   2.5282478  77.9253347
  91.4110968   1.9748677  78.6000992  92.6210163   2.8393057  78.3159865
  88.7706080  13.9666336  61.8366917  89.2830601  14.7609586  61.9872482
  89.4228793  13.2692627  61.7700519  90.5800965  17.0832093  63.9189670
  90.7567593  18.0050057  63.7310654  91.3757799  16.7690512  64.3484050
  94.7211984   3.9440357  75.5173604  95.4621697   4.5447510  75.4378066
  94.9529906   3.2017995  74.9591646  89.8653322   9.1296724  73.7951834
  89.7506837   8.2281982  74.0958932  89.0097839   9.3760421  73.4436650
  96.9445159  17.0714465  75.3939334  96.5009013  16.2850843  75.0760239
  97.6062373  17.2593615  74.7283225  91.7032280  18.6010266  69.9200013
  92.2539706  18.4727330  69.1477007  90.8643756  18.9005155  69.5694905
  99.0426397  17.3517265  73.4220735  99.0244873  18.1726146  72.9301005
  99.9646317  17.2271340  73.6470877  95.4999451  14.8661394  74.2644244
  96.0327788  14.1049682  74.0343552  94.9713533  14.5735046  75.0068398
  86.7354997  12.2954991  62.6126488  87.5730219  12.7051999  62.3960195
  86.9133265  11.3554433  62.5826682  98.6319429   9.9630071  58.3010321
  98.1166053  10.7334676  58.5398708  98.3596738   9.2895207  58.9243382
  96.2166540   4.8079772  63.3595559  95.3608137   4.4186622  63.1801198
  96.6293492   4.8871733  62.4995345  97.7465687   2.3426115  67.7587119
  97.2430482   2.3056250  66.9454924  98.0396294   3.2518858  67.8183775
  93.9908573   2.4264845  66.7653301  94.8561570   2.2307654  66.4059190
  94.0586082   2.1975197  67.6922657 103.6053703  12.7162426  60.2363494
 102.8283146  12.3773585  59.7918656 104.2845184  12.7215049  59.5618459
  98.4205732   7.8357163  60.1270102  98.1155868   8.1503312  60.9780245
  99.3736174   7.9138583  60.1697435  96.8652164  13.9947387  61.7763056
  96.3373526  13.2600146  61.4636293  96.3639667  14.7722063  61.5303024
 101.8445010  12.1896407  66.8930102 101.1868685  12.8795668  66.9810231
 102.6485409  12.5792839  67.2364088  91.5970892   4.6567053  64.1369667
  92.1714644   4.4342234  63.4042860  92.1841874   4.7255747  64.8898269
 100.6550469  10.5440780  64.9434044 101.1682351  11.1770772  65.4455754
 101.3051693   9.9441975  64.5777404  91.9240479   6.6871514  58.1565553
  91.0877791   7.0246200  58.4774827  91.7845249   6.5520494  57.2192690
  93.8993560   1.5308302  62.8644737  93.2457972   1.2157319  62.2401352
  93.8574034   0.9084042  63.5904560  95.0104764  11.8127597  54.7798029
  94.1031826  11.5816850  54.9789178  95.5075796  11.0165216  54.9672010
  97.9172843  20.5225104  57.6994715  97.2434542  20.8256801  58.3079673
  98.3038665  21.3254184  57.3500172  97.1331300   8.0190235  67.1892384
  96.2153861   8.2405182  67.0314072  97.5491444   8.0936546  66.3304092
  97.9166348   9.4181651  62.3195065  98.6638167   9.9303048  62.0102187
  98.1857937   9.0965704  63.1799458  96.1892998  11.9140192  59.3022019
  95.2804217  11.6299225  59.3994489  96.2188082  12.3339270  58.4425326
 101.4212265  15.5246781  63.0713186 100.9674592  14.6837691  63.1278377
 100.7906232  16.1608180  63.4087967 100.3645185   6.4538767  64.3013854
  99.6267942   5.9416153  64.6324097 100.6171958   6.0139149  63.4897131
  99.8645204  17.3623278  64.0063005 100.1568179  17.9228335  63.2875370
 100.3743825  17.6551839  64.7616164  86.7581168   9.6345706  63.2837221
  86.5605568   9.0415067  62.5588288  86.2027832   9.3297916  64.0013160
  94.7377892   9.5268812  65.4031814  94.7926502   8.5742649  65.3274291
  93.9269094   9.6828251  65.8873113  95.8869086  13.4548935  56.6410098
  95.4488516  12.7384794  56.1815735  96.6279526  13.6825050  56.0795189
  92.6770252   8.1445872  63.1622193  91.8638117   8.4440043  63.5687385
  93.1729246   7.7501561  63.8796675  94.8278830  18.1403629  65.0956458
  94.7855008  18.3664475  64.1664990  95.7441529  17.9067004  65.2442259
  98.2744463   8.6087697  71.9937087  98.6293851   8.8359170  72.8531553
  98.9216595   8.9406073  71.3714342 104.0042200  11.7306132  62.6986416
 103.8660099  11.9207728  61.7707605 103.6478419  12.4925515  63.1554467
  92.1684327   5.7164228  68.7783428  92.8083706   5.5752987  68.0806391
  91.3361857   5.4298741  68.4022030 104.0311580  13.7982659  67.7097688
 104.4648087  13.7057949  68.5580742 104.7443161  13.7740160  67.0717704
  92.9444630  15.0166658  64.8918421  93.7385229  14.5216978  64.6900996
  92.2336323  14.4884521  64.5286126  97.7639475  17.3984754  69.2430788
  97.8176497  17.9675690  70.0108504  96.8954256  17.5686639  68.8784825
  89.2527394   9.1609740  60.9678173  88.3224982   9.0994195  61.1848135
  89.3484866   8.6385693  60.1714814  89.1712943   5.6864553  63.5556415
  89.4319760   6.6009886  63.4465575  89.9930115   5.2188995  63.7053028
  90.6437868   7.1002310  70.7255239  91.3160922   6.8919672  70.0767888
  89.8167655   6.9024396  70.2860472 104.8927130  13.8406360  70.2430573
 105.0863020  14.7452171  70.4889848 104.7927748  13.3813779  71.0769158
  96.5463440   3.7264251  72.7420900  95.8991355   4.4254200  72.6485377
  97.3164456   4.1600395  73.1097149  99.9542238  13.9913103  75.8171454
  99.8027745  13.7623655  74.9001537  99.9446918  14.9483704  75.8302799
  96.7227575  11.5645016  70.8017720  97.6519635  11.7156175  70.6286687
  96.3018605  11.6529036  69.9466367  95.5215906  15.5895680  68.5716258
  95.3826992  15.2214464  69.4442196  94.7330503  16.1043319  68.4000215
  96.1164058  20.6904776  59.9141794  96.2915814  20.2192820  60.7287417
  95.4296846  21.3170543  60.1423055  97.0721122  14.9677283  65.9605095
  96.7370954  14.9278053  66.8562745  96.5725067  14.3021999  65.4875506
  91.0465366  10.3744913  71.4857677  90.9085163   9.6425152  72.0869216
  91.9570289  10.2853813  71.2041864 100.0080313  12.3133317  56.2342155
  99.3909484  11.5880145  56.1375208  99.5396802  13.0742677  55.8909229
  93.6747666  10.0864872  70.9741356  94.3847285   9.4458064  70.9327975
  93.6316974  10.3377767  71.8967537 101.6634445  17.0232225  73.8947935
 101.6046991  16.3391446  73.2278518 102.0653963  17.7651215  73.4428561
  92.3876600   7.0730090  72.7936996  91.8513957   6.6220828  73.4458592
  91.7993309   7.2075999  72.0507460  90.6825144  23.8394139  66.6881654
  90.9221742  24.4712663  67.3660673  89.8394340  23.4882179  66.9747014
  91.7978859   6.5318741  55.3563459  90.9208325   6.4107542  54.9925706
  92.2736612   5.7404820  55.1042348 101.6651852  14.9871809  72.1261915
 100.7778631  14.6497731  72.2488314 102.2350403  14.2554841  72.3630681
  83.3180999  11.3195901  65.4504967  84.0052039  11.0057631  64.8625982
  83.1629128  12.2237266  65.1772218  88.1215721   6.2086098  69.8789990
  88.0373910   5.6011767  69.1440400  87.2998428   6.6995116  69.8799487
  95.1953006  19.6473262  69.0923158  95.1223177  20.4528233  69.6042463
  94.7530399  19.8465228  68.2671180  94.9842785  18.8845032  62.6025980
  94.2010307  19.4266712  62.6964204  95.6835530  19.4019011  63.0020221
  98.2939435   4.6939661  65.2460185  98.7908135   3.9409623  64.9261255
  97.5226417   4.7303978  64.6803395 106.1469193  10.3980027  66.8878477
 106.1359069  11.2804742  66.5172410 105.2786572  10.0451578  66.6933014
  97.6551689  19.5460096  71.2481317  98.3679661  20.1807561  71.1757218
  97.1641718  19.6423962  70.4321319  99.3769216  13.4511348  62.8198609
  98.4425495  13.5712811  62.6503313  99.5545884  12.5483815  62.5558618
  94.8774404   6.8357044  64.9731870  94.5072192   6.2828085  65.6612775
  95.3733496   6.2315178  64.4206870 102.7641767   9.2928668  63.3548643
 103.2302220  10.1256659  63.2808945 103.2149268   8.8273649  64.0593901
  92.7063603  17.2954539  72.0686888  93.4073062  17.9291022  72.2216282
  92.2358718  17.6369271  71.3082527 100.8317998  15.6372489  60.3534795
 101.1077842  15.5229084  61.2628669  99.9622497  15.2389974  60.3146968
 100.5064889   9.8499147  69.8939438  99.8536339  10.0975054  69.2391891
 100.8845268   9.0363285  69.5601915  97.4672062  19.8858840  63.9967608
  97.6494457  19.0680496  64.4595361  98.2905048  20.1026532  63.5592498
  97.8014228  18.8127025  61.2582657  98.3301994  18.3019480  60.6452819
  98.0642448  18.4969555  62.1228190  96.5552462  10.5918958  76.3805475
  95.8793099  10.4913087  77.0507850  97.3780095  10.4358171  76.8441472
  88.3031321  16.8290894  69.0017990  88.8884757  16.0834582  69.1345895
  88.1056159  17.1394851  69.8854654  91.1569976  19.8642142  64.0180433
  90.4880351  20.3488269  63.5344473  91.0182846  20.1111362  64.9323811
  82.8948975   9.3996494  67.7222434  82.9333075   8.8660085  68.5159552
  82.3889268   8.8731700  67.1033411  95.2975244  21.8985885  70.6163091
  95.8493553  22.0617507  71.3812176  95.6381438  22.4890323  69.9443116
  90.2739738   4.2461035  71.2184976  90.3381064   5.1075866  70.8062374
  90.2106858   3.6335037  70.4857334  89.7492010   6.3184167  74.8658010
  90.3764049   5.9361245  75.4795535  88.8919929   6.0998369  75.2313703
 100.1486119  16.7247143  76.4711746 100.6926023  17.3377101  75.9766700
  99.5672964  17.2826721  76.9878759  86.5257553   8.1260597  60.7976365
  86.8210994   7.2171275  60.7443419  85.6245589   8.1048336  60.4757367
  98.4343632  19.8467861  67.6026773  98.3094771  19.0457601  67.0937719
  99.0922723  20.3414054  67.1140743  90.0551800   6.2016593  66.7803914
  89.3338386   6.8152561  66.6411387  90.8445056   6.7374358  66.7020560
 100.4978540  17.6476881  69.2306323  99.5508876  17.5282232  69.1584650
 100.8461313  16.7599379  69.3132585  92.8578114   3.5371020  73.0544565
  93.3812515   3.7833316  73.8170875  92.6390447   4.3691054  72.6347703
  88.2545395   5.8074694  60.9215690  87.9258101   4.9272073  60.7390796
  88.6084765   5.7522363  61.8092079  97.5024973  17.4429597  65.4310676
  97.3549936  16.5146304  65.6118246  98.3278467  17.4649688  64.9467751
  91.3687218   6.0947664  61.2891168  91.7083290   6.6233585  60.5669776
  91.8159338   6.4328070  62.0649734 101.1059095  18.2658156  66.5175548
 102.0305643  18.0601017  66.3800000 100.9374399  18.0174557  67.4264890
  94.0630659   4.4784715  70.7394236  93.7227479   3.6792528  71.1414916
  93.3569665   4.7786426  70.1671069  93.3555365   4.5922286  59.4884461
  94.0763727   4.9703538  58.9848177  92.7320669   5.3111162  59.5919439
  97.4986488   5.2967435  60.4242793  97.7150102   6.1792072  60.1231621
  97.0180555   4.9053648  59.6948435  92.2385709   8.2553148  67.0013538
  92.0930290   8.5693451  67.8937819  91.7610913   8.8738048  66.4484436
  94.0982092   5.2455696  67.0494427  94.0843661   4.3496789  66.7126725
  94.8154520   5.2526360  67.6832713  95.9508223   5.6793036  69.0947555
  95.6926001   6.6010107  69.0931885  95.4193263   5.2823471  69.7848019
 100.8954411  18.7843823  61.8737640 101.0691289  18.2190246  61.1211492
 101.3883303  19.5844718  61.6917130  86.7131371  10.7958492  69.9401199
  86.1684839  11.5718300  70.0721473  87.5910721  11.1429297  69.7820320
  93.5018988   4.1270076  62.3181997  93.6234899   3.1986722  62.5172885
  93.2121030   4.1408762  61.4060313 106.7493803  11.5480246  63.4927940
 107.1924949  10.7987571  63.0947063 105.8720313  11.5390382  63.1101672
 101.8829584  18.1010588  58.9734538 102.5780489  18.7217280  59.1921853
 102.2252734  17.2505939  59.2486916  87.4997393   9.9228388  72.8331356
  86.7579129  10.0711024  73.4195986  87.1790137  10.1836654  71.9698105
 103.7821007  15.5510293  60.5021869 104.3072331  15.8897566  59.7771189
 103.6943360  14.6157308  60.3185004  95.4441056  19.4644367  72.6311746
  95.7528182  19.2193513  73.5034445  96.2416538  19.6691005  72.1430616
  95.4661668  21.6182276  64.8617122  95.0266658  21.1258655  65.5549979
  96.2169785  21.0755244  64.6209197  87.9454007  17.8093817  64.8641750
  88.7712027  17.5097589  64.4840394  87.5948059  17.0401440  65.3131539
  92.9135540  17.1620285  66.9339424  92.2915549  16.4990990  66.6341652
  93.5840407  17.1881417  66.2513072  86.1462612  15.7280144  65.8230684
  85.3094520  15.3002318  65.6414685  86.1186257  15.9212587  66.7601475
  92.9860067   5.6402073  76.5271930  93.0348223   6.5164196  76.1449699
  93.5282582   5.0979467  75.9543573 103.4714913  16.1843197  75.8073067
 102.6810457  16.1667336  75.2677566 103.2348268  16.7231490  76.5622104
 103.5912788  13.0335663  73.1205795 103.6410793  12.8685671  74.0621318
 103.4826712  12.1662922  72.7303676  92.4749047  15.7124209  60.4097884
  92.6237167  16.3959673  59.7564557  93.2815490  15.6929299  60.9247340
 100.8816551   9.0166591  74.4365102 101.7826413   8.8773056  74.1449100
 100.9564525   9.1821046  75.3763280  95.2159356   6.3933446  73.2818288
  94.3462665   6.6867012  73.0100877  95.4518836   6.9773891  74.0025552
 105.0930985  15.4532605  73.3647817 104.8015793  15.8162585  74.2011278
 104.4803116  14.7399613  73.1861149 106.2926667  13.0185484  65.8850387
 107.1273559  13.4575288  66.0487948 106.4285796  12.5424138  65.0658633
 103.3418173  10.5765219  71.8327875 103.8172295  10.7692866  71.0246726
 102.4183739  10.6324405  71.5871259  90.2301680  11.7389386  61.4158953
  89.9847722  10.8351716  61.6139163  90.3997594  11.7406537  60.4738431
  97.9198390   2.6113063  70.7983709  98.4380334   3.3474090  70.4730197
  97.5653523   2.9177056  71.6330468  89.4997327   7.4717744  58.9145115
  88.8066572   7.5462099  58.2585151  89.2549079   6.7078088  59.4366632
  95.9744452  18.2072339  57.8809632  95.4018420  18.8262526  57.4280104
  96.5477246  18.7571701  58.4149554 102.0419842   7.4530979  70.0656181
 102.9937265   7.5529077  70.0868405 101.8723293   6.6609248  70.5754265
 100.0634222   4.5386563  70.2515582  99.4684154   4.8191575  69.5562070
  99.7783918   5.0280463  71.0232323  99.1941712  18.4909489  59.0118214
 100.1272385  18.4255051  59.2151090  99.1064925  19.3265756  58.5532747
 101.8229729  17.8075360  55.9722162 101.7443360  17.4735223  56.8657920
 102.6439396  18.2997128  55.9713634 104.5207920  10.6737099  69.1798480
 104.4884240   9.7353100  69.3658164 105.1308544  10.7521136  68.4464305
  96.3591251   9.5433152  55.2225684  97.3050356   9.4139360  55.2914102
  95.9805496   8.8047814  55.6995112 104.6702409   7.4648142  69.2256763
 104.1541457   6.6806599  69.0386692 105.5542357   7.1366859  69.3903283
 110.3384470  11.7353106  68.3204517 111.0687858  11.4738394  68.8812220
 109.7291415  10.9981828  68.3606585 108.4199767   9.8760968  68.9178968
 107.6932931   9.7416933  68.3095460 108.0047054  10.1837797  69.7235686
  96.2429943  13.5950898  76.6826341  97.1632953  13.7729497  76.8766388
  96.2079527  12.6506943  76.5306041  94.5434168   7.4683128  55.1580570
  93.6365623   7.1716241  55.2343283  94.8210149   7.1712946  54.2914856
  85.4612108   8.7889492  65.6079616  85.1414893   7.9354800  65.3153990
  84.9145537   9.0038070  66.3637583  89.2392016  11.5051933  69.3249122
  89.4578026  12.4369041  69.3437156  89.6517790  11.1459907  70.1103926
  96.1596234   2.0120018  61.3124811  95.3496962   1.6667103  61.6880057
  96.8480651   1.7027562  61.9012422  94.1119881   7.0785139  78.7151871
  94.0116608   8.0279495  78.6463962  93.8941423   6.7503377  77.8427941
  93.3132953   4.3270064  55.2992549  94.1752117   4.6524962  55.5588366
  93.4983297   3.5401559  54.7865614  85.3300368  12.4092403  67.5772737
  84.6363840  11.9946356  67.0642692  86.0773359  12.4512940  66.9806156
  93.9751151  10.5082277  77.5316933  93.4918233  11.3082637  77.7380822
  94.0612090  10.5190222  76.5784377  87.2437111  12.3410657  65.4538752
  87.2207799  12.4398344  64.5020635  87.5537747  13.1875808  65.7755918
  89.9024489  14.3986812  69.5685367  90.8567742  14.3670754  69.5015298
  89.7037012  13.9377436  70.3835593  90.4923871  12.9687928  72.1356164
  91.3116760  13.4632007  72.1591002  90.7660679  12.0519896  72.1073732
 100.2490467   5.3598680  61.4984120  99.3616322   5.6448331  61.2804315
 100.6644456   5.1992444  60.6511397 103.6005003   5.3845201  65.2138459
 104.3765393   5.8741654  65.4863076 102.8753138   5.8103256  65.6710329
 106.0377562   6.0972821  66.2712400 106.6322053   5.8568557  65.5605708
 106.1104146   5.3779951  66.8985936  88.2574718  19.9406432  66.5855565
  88.1229186  19.1806832  66.0193563  87.8406780  20.6647331  66.1184354
  99.3933681  15.1243355  55.5932140 100.0969531  15.3293358  56.2089796
  98.6696329  15.6920117  55.8581223 100.2231491  10.8753216  61.7134410
 100.1666692  11.3321768  60.8742043 100.7759833  10.1143901  61.5357253
 104.0336297   6.6642948  62.5384530 103.7773231   6.2639584  63.3692737
 103.4089165   7.3786742  62.4134669 108.3448635   9.4039021  65.0455821
 107.7848193   9.4732211  65.8187383 107.7392138   9.2280006  64.3255317
  91.4143844  20.8375749  66.7974007  91.2976228  21.7821181  66.6952698
  90.5936290  20.5349310  67.1859807 101.3020378  15.5625884  57.6430600
 102.1365982  15.1307083  57.4608075 101.1404721  15.3907898  58.5707494
 100.9566270  12.0657998  59.0086939 100.9015074  11.9002269  58.0675383
 100.3312326  12.7734031  59.1649129  85.7458785   7.3026062  72.8348362
  86.3917649   6.7925016  73.3235587  85.5375936   8.0394744  73.4091787
  98.2712177  14.3706909  78.3340502  99.1403337  14.5447562  77.9727137
  97.7918929  15.1901326  78.2116231  94.2662396   1.5666107  58.5872258
  94.2541066   2.5107947  58.7440529  95.1585818   1.3836252  58.2931719
  92.4398358  21.4904010  70.0129936  93.3425604  21.5227621  70.3296431
  92.2135728  20.5604461  70.0276272  94.1951960  20.2434997  66.6740014
  93.2447591  20.2436859  66.5604387  94.4984446  19.4967732  66.1576049
  90.0856276   4.4493679  76.9323376  90.9487738   4.0930484  77.1426700
  89.5121687   4.1107574  77.6198780 109.9304653  26.0795535  67.7385777
 110.5683063  25.9602283  67.0349117 109.8125496  27.0276379  67.7973729
 106.7394359  26.0322964  67.6747301 106.4012871  25.9164028  66.7867836
 107.6084128  25.6314129  67.6548308 102.5981175  27.8858440  63.6644192
 102.0346040  27.7948377  62.8960480 102.4833570  27.0658344  64.1446685
 107.2214142  27.1857815  73.6333507 107.2102783  26.7910614  72.7614011
 107.3834782  26.4523888  74.2267278 100.1445607  29.3809632  66.5028413
 100.9366899  29.0400456  66.0874712 100.3842257  29.4904607  67.4230566
 108.1780734  31.5529408  58.9758657 107.5268714  32.1383488  58.5892671
 108.9725097  32.0835603  59.0353695 102.1036361  28.6418545  59.3745792
 102.8767237  28.0947532  59.2358667 102.4561760  29.5062794  59.5860253
 103.9421404  29.9694927  72.5812691 103.6511270  30.8740558  72.4659357
 104.5778388  30.0111455  73.2956761 104.8677610  27.3471776  69.1714051
 105.4641183  27.1227798  68.4571014 104.9252582  26.6056521  69.7739498
 104.4402639  24.8011211  57.0064242 104.6928160  24.2792732  56.2447705
 103.5027198  24.6377356  57.1090925 109.4845922  23.8046989  64.8138985
 110.2709011  23.3866412  64.4629402 109.7484626  24.7093081  64.9820633
 109.6555999  29.2419840  59.5127642 109.0201832  29.3154466  60.2248546
 109.3253405  29.8313438  58.8346721 114.8854349  23.7422222  65.7171963
 115.6179521  23.1721439  65.9509793 114.1293704  23.3543823  66.1578469
 104.1598928  26.7039317  59.2088617 104.0435186  26.0284220  59.8769701
 104.2701187  26.2171691  58.3920770 106.5030469  26.1649464  62.9135306
 106.1388676  25.6380085  63.6248227 107.3597584  25.7747933  62.7401791
 112.4079769  17.4543797  70.1766572 112.0763094  18.3239208  69.9527787
 111.8125383  17.1380081  70.8560602 106.1435955  21.1939364  57.9096654
 106.3110358  22.0619600  58.2767125 105.9533125  21.3566645  56.9857944
 108.9011289  29.6556343  69.5762485 108.6012012  30.5581381  69.4678292
 108.5562348  29.3888526  70.4283638 102.3523770  26.1070139  65.6099189
 101.4274267  25.9746354  65.8176881 102.6008183  26.8864359  66.1069131
 112.3008432  22.1738883  67.2559922 111.3925310  22.1054291  66.9618683
 112.2496028  22.6510828  68.0841747 106.1225176  23.6497021  58.8943321
 106.0024802  24.0954072  59.7328801 105.4277765  23.9982339  58.3356859
  99.7132581  25.7503413  66.4442978  99.8424962  26.0037892  67.3582390
  99.0330032  26.3431121  66.1247633 103.8832068  36.4200663  62.5433452
 103.8056098  37.3708488  62.6221933 103.2793712  36.0746535  63.2008379
 106.3749298  23.5928528  75.1994819 105.5982632  24.1522448  75.1897684
 107.0139861  24.0785311  75.7209689 114.1670079  20.3755321  69.0337796
 113.5244459  20.6687854  68.3877590 113.6625007  20.2608241  69.8390993
 111.8210243  24.1218494  59.7223655 112.7328099  24.3545881  59.5471353
 111.3119890  24.7055539  59.1598734 104.6295671  26.4013982  74.7612786
 105.3710355  26.9399026  74.4847610 103.9232656  27.0280270  74.9184338
 110.1051010  28.5443122  73.3584948 110.5134366  28.1025533  72.6139580
 109.3828272  27.9695750  73.6119141 106.4582080  23.4815729  70.7318505
 107.3043275  23.9055142  70.8753154 106.3980718  22.8249353  71.4257068
 110.4279825  29.1044313  67.1137237 109.7988687  29.2690027  66.4113304
 110.0405487  29.5185922  67.8848201 114.3069057  30.0398751  64.4681600
 113.6220095  30.4197652  63.9178634 114.3912906  30.6494077  65.2013548
 109.6081526  21.1420097  72.3899678 109.3642457  21.8962158  71.8533954
 109.8841456  21.5205445  73.2246925 111.5619988  27.6858710  71.0676944
 111.7736884  28.3290470  70.3911325 111.5149737  26.8521026  70.5998874
 109.1646217  20.2976530  67.9713516 108.3030696  20.5957784  68.2630254
 109.1908652  20.5146929  67.0394549 105.9807787  28.8418721  64.3787322
 106.4446132  29.1206424  63.5891944 105.7164585  27.9402165  64.1960412
 102.8731868  28.3890202  67.3167085 103.4433225  28.8177471  66.6784569
 103.4639980  28.1072787  68.0151271 104.9176673  24.9641873  61.1876887
 105.6200716  25.4162917  61.6550813 104.5857301  24.3225692  61.8156780
 103.3657034  23.5553630  75.5628096 102.7355695  24.2369911  75.7963493
 103.2593122  23.4436711  74.6181234  98.6602007  23.2225426  66.4894020
  97.8701061  23.4782954  66.0134131  99.1513254  24.0373764  66.5946061
 112.6765816  30.5630665  69.2399301 113.4983260  30.1610852  68.9581983
 112.6728219  30.4598899  70.1915417 100.6116752  23.5870005  63.4477497
  99.8147915  23.6988699  63.9660993 100.3842344  23.9256657  62.5818388
 106.4422420  30.1114708  71.3960012 106.5066852  30.5735116  72.2318184
 105.7333344  29.4812073  71.5242322  96.9439710  23.4755916  68.9209011
  97.1947748  24.3602926  69.1866587  97.4799258  23.2960518  68.1484103
 120.7671809  26.9069414  65.5884273 120.0135518  26.3376812  65.4328277
 120.9019351  26.8732078  66.5354907 106.1570437  31.7782816  61.2638992
 106.0216112  32.6234352  61.6923840 106.6980250  31.9802094  60.5004926
 102.6437777  17.8574396  77.9253347 102.2504723  17.3040594  78.6000992
 103.4603917  18.1684974  78.3159865  99.6099835  29.2958254  61.8366917
 100.1224355  30.0901504  61.9872482 100.2622548  28.5984544  61.7700519
 101.4194719  32.4124010  63.9189670 101.5961348  33.3341975  63.7310654
 102.2151553  32.0982429  64.3484050 105.5605738  19.2732275  75.5173604
 106.3015451  19.8739428  75.4378066 105.7923661  18.5309913  74.9591646
 100.7047076  24.4588642  73.7951834 100.5900591  23.5573899  74.0958932
  99.8491594  24.7052339  73.4436650 107.7838914  32.4006382  75.3939334
 107.3402768  31.6142761  75.0760239 108.4456127  32.5885533  74.7283225
 102.5426035  33.9302184  69.9200013 103.0933460  33.8019247  69.1477007
 101.7037511  34.2297073  69.5694905 109.8820152  32.6809182  73.4220735
 109.8638627  33.5018063  72.9301005 110.8040072  32.5563258  73.6470877
 106.3393206  30.1953312  74.2644244 106.8721543  29.4341600  74.0343552
 105.8107287  29.9026964  75.0068398 109.5062901  15.3013378  69.7937886
 109.1627170  16.1915019  69.7176996 109.8741864  15.1115035  68.9307471
  97.5748752  27.6246908  62.6126488  98.4123974  28.0343917  62.3960195
  97.7527019  26.6846350  62.5826682 109.4713184  25.2921989  58.3010321
 108.9559807  26.0626593  58.5398708 109.1990492  24.6187125  58.9243382
 107.0560295  20.1371690  63.3595559 106.2001891  19.7478540  63.1801198
 107.4687246  20.2163650  62.4995345 108.5859441  17.6718033  67.7587119
 108.0824237  17.6348168  66.9454924 108.8790048  18.5810776  67.8183775
 104.8302327  17.7556763  66.7653301 105.6955324  17.5599571  66.4059190
 104.8979836  17.5267114  67.6922657 114.4447458  28.0454344  60.2363494
 113.6676901  27.7065503  59.7918656 115.1238939  28.0506967  59.5618459
 109.2599487  23.1649081  60.1270102 108.9549622  23.4795230  60.9780245
 110.2129929  23.2430501  60.1697435 107.7045919  29.3239304  61.7763056
 107.1767280  28.5892064  61.4636293 107.2033421  30.1013981  61.5303024
 112.6838765  27.5188325  66.8930102 112.0262439  28.2087586  66.9810231
 113.4879164  27.9084757  67.2364088 102.4364646  19.9858971  64.1369667
 103.0108398  19.7634152  63.4042860 103.0235629  20.0547665  64.8898269
 111.4944224  25.8732697  64.9434044 112.0076105  26.5062689  65.4455754
 112.1445447  25.2733893  64.5777404 102.7634233  22.0163432  58.1565553
 101.9271546  22.3538118  58.4774827 102.6239003  21.8812411  57.2192690
 104.7387314  16.8600219  62.8644737 104.0851726  16.5449237  62.2401352
 104.6967788  16.2375960  63.5904560 105.8498519  27.1419515  54.7798029
 104.9425581  26.9108768  54.9789178 106.3469551  26.3457134  54.9672010
 108.7566598  35.8517022  57.6994715 108.0828297  36.1548718  58.3079673
 109.1432420  36.6546102  57.3500172 107.9725054  23.3482153  67.1892384
 107.0547616  23.5697100  67.0314072 108.3885198  23.4228463  66.3304092
 108.7560102  24.7473569  62.3195065 109.5031921  25.2594966  62.0102187
 109.0251692  24.4257621  63.1799458 107.0286752  27.2432109  59.3022019
 106.1197972  26.9591142  59.3994489 107.0581836  27.6631188  58.4425326
 112.2606020  30.8538699  63.0713186 111.8068347  30.0129609  63.1278377
 111.6299986  31.4900097  63.4087967 111.2038939  21.7830685  64.3013854
 110.4661696  21.2708071  64.6324097 111.4565713  21.3431067  63.4897131
 110.7038959  32.6915196  64.0063005 110.9961933  33.2520253  63.2875370
 111.2137580  32.9843757  64.7616164 111.3050567  14.5606937  64.8955623
 111.6109443  13.7004300  64.6081538 112.0303171  15.1524557  64.6954617
  97.5974923  24.9637624  63.2837221  97.3999323  24.3706984  62.5588288
  97.0421587  24.6589834  64.0013160 105.5771646  24.8560730  65.4031814
 105.6320256  23.9034566  65.3274291 104.7662848  25.0120169  65.8873113
 106.7262840  28.7840853  56.6410098 106.2882270  28.0676712  56.1815735
 107.4673281  29.0116968  56.0795189 103.5164006  23.4737790  63.1622193
 102.7031872  23.7731960  63.5687385 104.0123000  23.0793479  63.8796675
 105.6672584  33.4695547  65.0956458 105.6248763  33.6956393  64.1664990
 106.5835283  33.2358921  65.2442259 109.1138218  23.9379614  71.9937087
 109.4687606  24.1651087  72.8531553 109.7610349  24.2697991  71.3714342
 114.8435955  27.0598050  62.6986416 114.7053853  27.2499646  61.7707605
 114.4872174  27.8217433  63.1554467 103.0078081  21.0456145  68.7783428
 103.6477460  20.9044904  68.0806391 102.1755612  20.7590659  68.4022030
 114.8705334  29.1274577  67.7097688 115.3041841  29.0349866  68.5580742
 115.5836915  29.1032078  67.0717704 103.7838385  30.3458576  64.8918421
 104.5778983  29.8508896  64.6900996 103.0730077  29.8176439  64.5286126
 108.6033229  32.7276671  69.2430788 108.6570252  33.2967608  70.0108504
 107.7348011  32.8978556  68.8784825 100.0921148  24.4901657  60.9678173
  99.1618736  24.4286113  61.1848135 100.1878620  23.9677610  60.1714814
 100.0106697  21.0156470  63.5556415 100.2713515  21.9301804  63.4465575
 100.8323870  20.5480913  63.7053028 101.4831623  22.4294227  70.7255239
 102.1554676  22.2211590  70.0767888 100.6561409  22.2316313  70.2860472
 115.7320884  29.1698278  70.2430573 115.9256774  30.0744088  70.4889848
 115.6321502  28.7105697  71.0769158 107.3857195  19.0556168  72.7420900
 106.7385110  19.7546118  72.6485377 108.1558210  19.4892312  73.1097149
 110.7935993  29.3205021  75.8171454 110.6421499  29.0915572  74.9001537
 110.7840672  30.2775622  75.8302799 107.5621329  26.8936933  70.8017720
 108.4913389  27.0448093  70.6286687 107.1412359  26.9820954  69.9466367
 106.3609661  30.9187598  68.5716258 106.2220747  30.5506382  69.4442196
 105.5724257  31.4335237  68.4000215 106.9557813  36.0196694  59.9141794
 107.1309569  35.5484737  60.7287417 106.2690601  36.6462460  60.1423055
 107.9114876  30.2969200  65.9605095 107.5764709  30.2569970  66.8562745
 107.4118822  29.6313916  65.4875506 101.8859120  25.7036830  71.4857677
 101.7478918  24.9717069  72.0869216 102.7964044  25.6145731  71.2041864
 110.8474068  27.6425235  56.2342155 110.2303238  26.9172063  56.1375208
 110.3790556  28.4034595  55.8909229 104.5141421  25.4156790  70.9741356
 105.2241039  24.7749982  70.9327975 104.4710729  25.6669685  71.8967537
 112.5028199  32.3524143  73.8947935 112.4440746  31.6683363  73.2278518
 112.9047718  33.0943133  73.4428561 103.2270355  22.4022008  72.7936996
 102.6907712  21.9512746  73.4458592 102.6387063  22.5367916  72.0507460
 101.5218898  39.1686057  66.6881654 101.7615496  39.8004581  67.3660673
 100.6788095  38.8174097  66.9747014 102.6372614  21.8610659  55.3563459
 101.7602080  21.7399460  54.9925706 103.1130367  21.0696737  55.1042348
 112.5045607  30.3163727  72.1261915 111.6172385  29.9789649  72.2488314
 113.0744158  29.5846758  72.3630681  94.1574754  26.6487819  65.4504967
  94.8445794  26.3349549  64.8625982  94.0022882  27.5529183  65.1772218
  98.9609476  21.5378015  69.8789990  98.8767665  20.9303685  69.1440400
  98.1392182  22.0287034  69.8799487 106.0346760  34.9765179  69.0923158
 105.9616932  35.7820151  69.6042463 105.5924153  35.1757145  68.2671180
 105.8236540  34.2136949  62.6025980 105.0404062  34.7558630  62.6964204
 106.5229285  34.7310929  63.0020221 109.1333190  20.0231579  65.2460185
 109.6301889  19.2701541  64.9261255 108.3620171  20.0595896  64.6803395
 116.9862947  25.7271944  66.8878477 116.9752823  26.6096660  66.5172410
 116.1180327  25.3743495  66.6933014 108.4945444  34.8752013  71.2481317
 109.2073416  35.5099478  71.1757218 108.0035472  34.9715879  70.4321319
 110.2162970  28.7803266  62.8198609 109.2819249  28.9004729  62.6503313
 110.3939639  27.8775733  62.5558618 105.7168159  22.1648962  64.9731870
 105.3465946  21.6120002  65.6612775 106.2127251  21.5607095  64.4206870
 113.6035522  24.6220585  63.3548643 114.0695974  25.4548577  63.2808945
 114.0543022  24.1565567  64.0593901 103.5457357  32.6246457  72.0686888
 104.2466817  33.2582940  72.2216282 103.0752472  32.9661188  71.3082527
 111.6711753  30.9664407  60.3534795 111.9471597  30.8521001  61.2628669
 110.8016252  30.5681891  60.3146968 111.5752185  16.9901172  67.3939544
 110.6615264  17.2205399  67.5621751 112.0045286  17.0739616  68.2453577
 111.3458643  25.1791064  69.8939438 110.6930093  25.4266972  69.2391891
 111.7239023  24.3655202  69.5601915 108.3065817  35.2150757  63.9967608
 108.4888211  34.3972413  64.4595361 109.1298803  35.4318450  63.5592498
 108.6407982  34.1418943  61.2582657 109.1695749  33.6311397  60.6452819
 108.9036202  33.8261473  62.1228190 107.3946216  25.9210875  76.3805475
 106.7186853  25.8205005  77.0507850 108.2173850  25.7650089  76.8441472
  99.1425075  32.1582812  69.0017990  99.7278512  31.4126500  69.1345895
  98.9449914  32.4686769  69.8854654 101.9963730  35.1934059  64.0180433
 101.3274106  35.6780187  63.5344473 101.8576600  35.4403280  64.9323811
  93.7342730  24.7288412  67.7222434  93.7726829  24.1952003  68.5159552
  93.2283023  24.2023618  67.1033411 106.1368999  37.2277803  70.6163091
 106.6887307  37.3909424  71.3812176 106.4775192  37.8182241  69.9443116
 101.1133492  19.5752953  71.2184976 101.1774819  20.4367784  70.8062374
 101.0500612  18.9626954  70.4857334 100.5885765  21.6476085  74.8658010
 101.2157804  21.2653162  75.4795535  99.7313684  21.4290287  75.2313703
 110.9879873  32.0539060  76.4711746 111.5319777  32.6669019  75.9766700
 110.4066718  32.6118639  76.9878759  97.3651307  23.4552514  60.7976365
  97.6604749  22.5463193  60.7443419  96.4639343  23.4340254  60.4757367
 109.2737386  35.1759778  67.6026773 109.1488526  34.3749518  67.0937719
 109.9316477  35.6705972  67.1140743 100.8945554  21.5308511  66.7803914
 100.1732140  22.1444479  66.6411387 101.6838810  22.0666276  66.7020560
 111.3372295  32.9768798  69.2306323 110.3902630  32.8574150  69.1584650
 111.6855068  32.0891296  69.3132585 103.6971868  18.8662937  73.0544565
 104.2206270  19.1125234  73.8170875 103.4784201  19.6982972  72.6347703
  99.0939149  21.1366612  60.9215690  98.7651855  20.2563991  60.7390796
  99.4478520  21.0814281  61.8092079 108.3418728  32.7721515  65.4310676
 108.1943690  31.8438222  65.6118246 109.1672221  32.7941605  64.9467751
 102.2080972  21.4239582  61.2891168 102.5477045  21.9525503  60.5669776
 102.6553093  21.7619988  62.0649734 111.9452850  33.5950073  66.5175548
 112.8699397  33.3892935  66.3800000 111.7768153  33.3466475  67.4264890
 104.9024413  19.8076632  70.7394236 104.5621233  19.0084446  71.1414916
 104.1963419  20.1078343  70.1671069 105.5540885  16.8925945  69.1921559
 106.3766954  16.4186423  69.0700449 105.7978948  17.6716429  69.6920245
 104.1949119  19.9214203  59.4884461 104.9157482  20.2995456  58.9848177
 103.5714423  20.6403080  59.5919439 108.3380242  20.6259352  60.4242793
 108.5543857  21.5083990  60.1231621 107.8574309  20.2345566  59.6948435
 103.0779464  23.5845066  67.0013538 102.9324044  23.8985369  67.8937819
 102.6004667  24.2029966  66.4484436 104.9375847  20.5747613  67.0494427
 104.9237415  19.6788707  66.7126725 105.6548275  20.5818277  67.6832713
 106.7901977  21.0084954  69.0947555 106.5319755  21.9302024  69.0931885
 106.2587018  20.6115388  69.7848019 111.7348166  34.1135741  61.8737640
 111.9085044  33.5482163  61.1211492 112.2277057  34.9136636  61.6917130
  97.5525126  26.1250410  69.9401199  97.0078594  26.9010218  70.0721473
  98.4304476  26.4721214  69.7820320 104.3412742  19.4561994  62.3181997
 104.4628654  18.5278640  62.5172885 104.0514785  19.4700680  61.4060313
 107.2103933  17.1416904  65.4548717 107.2325630  17.2056237  64.5000697
 107.6271992  16.3021413  65.6489223 117.5887557  26.8772164  63.4927940
 118.0318703  26.1279489  63.0947063 116.7114067  26.8682300  63.1101672
 112.7223338  33.4302505  58.9734538 113.4174243  34.0509198  59.1921853
 113.0646489  32.5797856  59.2486916  98.3391148  25.2520306  72.8331356
  97.5972884  25.4002942  73.4195986  98.0183892  25.5128572  71.9698105
 114.6214762  30.8802211  60.5021869 115.1466086  31.2189484  59.7771189
 114.5337114  29.9449226  60.3185004 106.2834810  34.7936284  72.6311746
 106.5921937  34.5485431  73.5034445 107.0810292  34.9982923  72.1430616
 106.3055422  36.9474194  64.8617122 105.8660413  36.4550573  65.5549979
 107.0563539  36.4047162  64.6209197  98.7847761  33.1385735  64.8641750
  99.6105781  32.8389507  64.4840394  98.4341813  32.3693357  65.3131539
 103.7529294  32.4912203  66.9339424 103.1309304  31.8282908  66.6341652
 104.4234161  32.5173335  66.2513072  96.9856366  31.0572061  65.8230684
  96.1488275  30.6294236  65.6414685  96.9580012  31.2504505  66.7601475
 103.8253822  20.9693991  76.5271930 103.8741977  21.8456114  76.1449699
 104.3676336  20.4271384  75.9543573 114.3108668  31.5135114  75.8073067
 113.5204211  31.4959253  75.2677566 114.0742022  32.0523408  76.5622104
 114.4306543  28.3627581  73.1205795 114.4804548  28.1977588  74.0621318
 114.3220466  27.4954840  72.7303676 103.3142801  31.0416126  60.4097884
 103.4630922  31.7251591  59.7564557 104.1209245  31.0221217  60.9247340
 111.7210305  24.3458509  74.4365102 112.6220168  24.2064974  74.1449100
 111.7958280  24.5112964  75.3763280 106.0553110  21.7225364  73.2818288
 105.1856420  22.0158930  73.0100877 106.2912591  22.3065809  74.0025552
 115.9324740  30.7824522  73.3647817 115.6409548  31.1454503  74.2011278
 115.3196871  30.0691531  73.1861149 117.1320422  28.3477402  65.8850387
 117.9667313  28.7867206  66.0487948 117.2679551  27.8716055  65.0658633
 114.1811928  25.9057137  71.8327875 114.6566049  26.0984783  71.0246726
 113.2577493  25.9616323  71.5871259 101.0695434  27.0681304  61.4158953
 100.8241476  26.1643634  61.6139163 101.2391349  27.0698455  60.4738431
 108.7592144  17.9404980  70.7983709 109.2774088  18.6766007  70.4730197
 108.4047277  18.2468974  71.6330468 100.3391082  22.8009662  58.9145115
  99.6460327  22.8754017  58.2585151 100.0942834  22.0370005  59.4366632
 109.0104738  14.3605263  66.3184605 109.2906492  13.6928452  66.9445032
 109.7955345  14.5534359  65.8059269 106.8138207  33.5364257  57.8809632
 106.2412174  34.1554444  57.4280104 107.3871001  34.0863619  58.4149554
 112.8813597  22.7822897  70.0656181 113.8331020  22.8820995  70.0868405
 112.7117047  21.9901166  70.5754265 110.9027976  19.8678480  70.2515582
 110.3077908  20.1483493  69.5562070 110.6177673  20.3572381  71.0232323
 110.0335467  33.8201407  59.0118214 110.9666140  33.7546969  59.2151090
 109.9458680  34.6557674  58.5532747 112.6623483  33.1367277  55.9722162
 112.5837115  32.8027141  56.8657920 113.4833150  33.6289045  55.9713634
 115.3601675  26.0029017  69.1798480 115.3277995  25.0645017  69.3658164
 115.9702298  26.0813053  68.4464305 107.1985005  24.8725070  55.2225684
 108.1444110  24.7431278  55.2914102 106.8199250  24.1339732  55.6995112
 115.5096163  22.7940060  69.2256763 114.9935212  22.0098517  69.0386692
 116.3936112  22.4658777  69.3903283 113.1706890  16.5381076  65.1852576
 112.9731711  16.2296164  66.0695908 113.7806596  17.2642715  65.3150506
 121.1778224  27.0645024  68.3204517 121.9081613  26.8030312  68.8812220
 120.5685170  26.3273745  68.3606585 119.2593522  25.2052886  68.9178968
 118.5326685  25.0708851  68.3095460 118.8440808  25.5129715  69.7235686
 107.0823698  28.9242816  76.6826341 108.0026707  29.1021415  76.8766388
 107.0473281  27.9798861  76.5306041 105.3827923  22.7975046  55.1580570
 104.4759378  22.5008159  55.2343283 105.6603904  22.5004864  54.2914856
  96.3005863  24.1181409  65.6079616  95.9808647  23.2646718  65.3153990
  95.7539291  24.3329988  66.3637583 100.0785771  26.8343850  69.3249122
 100.2971780  27.7660958  69.3437156 100.4911544  26.4751825  70.1103926
 106.9989988  17.3411936  61.3124811 106.1890717  16.9959021  61.6880057
 107.6874405  17.0319479  61.9012422 108.9280537  16.4189983  62.9349107
 109.4811575  16.8385436  63.5939131 109.1650623  15.4925731  62.9772063
 104.9513636  22.4077056  78.7151871 104.8510363  23.3571413  78.6463962
 104.7335178  22.0795295  77.8427941 104.1526707  19.6561981  55.2992549
 105.0145871  19.9816880  55.5588366 104.3377051  18.8693477  54.7865614
  96.1694123  27.7384321  67.5772737  95.4757594  27.3238274  67.0642692
  96.9167114  27.7804857  66.9806156 112.3059344  18.5290508  62.4427772
 111.7258013  19.1875312  62.0605824 112.0395276  17.7067852  62.0315189
 110.7562910  17.9295565  64.6449092 111.2562688  18.0412100  63.8363411
 111.3998518  17.6256618  65.2849900 104.8144906  25.8374195  77.5316933
 104.3311988  26.6374555  77.7380822 104.9005845  25.8482140  76.5784377
  98.0830865  27.6702575  65.4538752  98.0601554  27.7690262  64.5020635
  98.3931502  28.5167726  65.7755918 100.7418243  29.7278730  69.5685367
 101.6961497  29.6962672  69.5015298 100.5430767  29.2669353  70.3835593
 101.3317625  28.2979846  72.1356164 102.1510514  28.7923924  72.1591002
 101.6054433  27.3811814  72.1073732 111.0884222  20.6890598  61.4984120
 110.2010077  20.9740249  61.2804315 111.5038211  20.5284361  60.6511397
 114.4398758  20.7137119  65.2138459 115.2159148  21.2033572  65.4863076
 113.7146892  21.1395173  65.6710329 116.8771316  21.4264738  66.2712400
 117.4715807  21.1860474  65.5605708 116.9497900  20.7071869  66.8985936
  99.0968472  35.2698349  66.5855565  98.9622940  34.5098750  66.0193563
  98.6800534  35.9939249  66.1184354 110.2327435  30.4535273  55.5932140
 110.9363285  30.6585275  56.2089796 109.5090084  31.0212035  55.8581223
 111.0625245  26.2045134  61.7134410 111.0060447  26.6613685  60.8742043
 111.6153588  25.4435819  61.5357253 114.8730051  21.9934866  62.5384530
 114.6166986  21.5931502  63.3692737 114.2482919  22.7078660  62.4134669
 119.1842389  24.7330939  65.0455821 118.6241947  24.8024128  65.8187383
 118.5785893  24.5571924  64.3255317 102.2537598  36.1667666  66.7974007
 102.1369982  37.1113099  66.6952698 101.4330044  35.8641228  67.1859807
 112.1414133  30.8917802  57.6430600 112.9759736  30.4599000  57.4608075
 111.9798475  30.7199816  58.5707494 111.7960025  27.3949915  59.0086939
 111.7408829  27.2294187  58.0675383 111.1706080  28.1025948  59.1649129
  96.5852540  22.6317980  72.8348362  97.2311403  22.1216934  73.3235587
  96.3769691  23.3686661  73.4091787 109.1105932  29.6998827  78.3340502
 109.9797092  29.8739479  77.9727137 108.6312683  30.5193244  78.2116231
 105.1056150  16.8958024  58.5872258 105.0934820  17.8399864  58.7440529
 105.9979572  16.7128170  58.2931719 103.2792112  36.8195928  70.0129936
 104.1819359  36.8519538  70.3296431 103.0529482  35.8896379  70.0276272
 105.0345714  35.5726915  66.6740014 104.0841345  35.5728776  66.5604387
 105.3378200  34.8259649  66.1576049 108.9208270  13.4900801  62.8418194
 108.1540665  12.9359288  62.9874877 109.3318975  13.5622670  63.7032346
 100.9250031  19.7785597  76.9323376 101.7881492  19.4222402  77.1426700
 100.3515441  19.4399492  77.6198780 120.7698408  41.4087453  67.7385777
 121.4076818  41.2894200  67.0349117 120.6519251  42.3568297  67.7973729
 117.5788114  41.3614881  67.6747301 117.2406625  41.2455946  66.7867836
 118.4477882  40.9606046  67.6548308 113.4374930  43.2150358  63.6644192
 112.8739795  43.1240295  62.8960480 113.3227325  42.3950262  64.1446685
 118.0607897  42.5149733  73.6333507 118.0496538  42.1202531  72.7614011
 118.2228536  41.7815806  74.2267278 110.9839362  44.7101549  66.5028413
 111.7760653  44.3692374  66.0874712 111.2236012  44.8196524  67.4230566
 119.0174488  46.8821325  58.9758657 118.3662468  47.4675406  58.5892671
 119.8118851  47.4127520  59.0353695 112.9430115  43.9710462  59.3745792
 113.7160991  43.4239450  59.2358667 113.2955514  44.8354712  59.5860253
 114.7815158  45.2986845  72.5812691 114.4905024  46.2032476  72.4659357
 115.4172142  45.3403372  73.2956761 115.7071365  42.6763693  69.1714051
 116.3034937  42.4519716  68.4571014 115.7646336  41.9348439  69.7739498
 115.2796393  40.1303129  57.0064242 115.5321914  39.6084650  56.2447705
 114.3420952  39.9669274  57.1090925 120.3239676  39.1338907  64.8138985
 121.1102765  38.7158330  64.4629402 120.5878380  40.0384999  64.9820633
 120.4949753  44.5711757  59.5127642 119.8595586  44.6446384  60.2248546
 120.1647160  45.1605356  58.8346721 125.7248103  39.0714140  65.7171963
 126.4573275  38.5013357  65.9509793 124.9687459  38.6835741  66.1578469
 114.9992682  42.0331235  59.2088617 114.8828940  41.3576138  59.8769701
 115.1094942  41.5463608  58.3920770 117.3424223  41.4941382  62.9135306
 116.9782430  40.9672003  63.6248227 118.1991339  41.1039851  62.7401791
 123.2473524  32.7835714  70.1766572 122.9156848  33.6531125  69.9527787
 122.6519137  32.4671998  70.8560602 116.9829710  36.5231281  57.9096654
 117.1504112  37.3911518  58.2767125 116.7926879  36.6858563  56.9857944
 119.7405043  44.9848260  69.5762485 119.4405766  45.8873299  69.4678292
 119.3956103  44.7180443  70.4283638 113.1917525  41.4362057  65.6099189
 112.2668021  41.3038271  65.8176881 113.4401938  42.2156276  66.1069131
 123.1402187  37.5030800  67.2559922 122.2319064  37.4346209  66.9618683
 123.0889783  37.9802745  68.0841747 116.9618931  38.9788939  58.8943321
 116.8418556  39.4245990  59.7328801 116.2671519  39.3274257  58.3356859
 110.5526336  41.0795331  66.4442978 110.6818717  41.3329810  67.3582390
 109.8723787  41.6723039  66.1247633 114.7225823  51.7492581  62.5433452
 114.6449853  52.7000406  62.6221933 114.1187467  51.4038453  63.2008379
 117.2143053  38.9220446  75.1994819 116.4376387  39.4814366  75.1897684
 117.8533616  39.4077229  75.7209689 125.0063833  35.7047239  69.0337796
 124.3638214  35.9979772  68.3877590 124.5018762  35.5900159  69.8390993
 122.6603997  39.4510412  59.7223655 123.5721853  39.6837799  59.5471353
 122.1513644  40.0347456  59.1598734 115.4689425  41.7305899  74.7612786
 116.2104109  42.2690943  74.4847610 114.7626410  42.3572188  74.9184338
 120.9444765  43.8735040  73.3584948 121.3528121  43.4317450  72.6139580
 120.2222026  43.2987667  73.6119141 117.2975835  38.8107647  70.7318505
 118.1437030  39.2347060  70.8753154 117.2374472  38.1541271  71.4257068
 121.2673579  44.4336230  67.1137237 120.6382442  44.5981945  66.4113304
 120.8799241  44.8477840  67.8848201 125.1462811  45.3690668  64.4681600
 124.4613849  45.7489570  63.9178634 125.2306661  45.9785995  65.2013548
 120.4475280  36.4712015  72.3899678 120.2036212  37.2254076  71.8533954
 120.7235211  36.8497363  73.2246925 122.4013743  43.0150627  71.0676944
 122.6130638  43.6582387  70.3911325 122.3543491  42.1812944  70.5998874
 120.0039972  35.6268448  67.9713516 119.1424451  35.9249702  68.2630254
 120.0302406  35.8438847  67.0394549 116.8201541  44.1710639  64.3787322
 117.2839887  44.4498342  63.5891944 116.5558339  43.2694083  64.1960412
 113.7125622  43.7182120  67.3167085 114.2826979  44.1469388  66.6784569
 114.3033734  43.4364705  68.0151271 115.7570427  40.2933791  61.1876887
 116.4594471  40.7454835  61.6550813 115.4251056  39.6517610  61.8156780
 114.2050789  38.8845548  75.5628096 113.5749449  39.5661828  75.7963493
 114.0986877  38.7728629  74.6181234 109.4995761  38.5517344  66.4894020
 108.7094815  38.8074872  66.0134131 109.9907009  39.3665681  66.5946061
 123.5159571  45.8922583  69.2399301 124.3377014  45.4902770  68.9581983
 123.5121974  45.7890817  70.1915417 111.4510507  38.9161923  63.4477497
 110.6541670  39.0280617  63.9660993 111.2236099  39.2548575  62.5818388
 117.2816174  45.4406626  71.3960012 117.3460607  45.9027033  72.2318184
 116.5727098  44.8103991  71.5242322 107.7833464  38.8047834  68.9209011
 108.0341503  39.6894844  69.1866587 108.3193013  38.6252436  68.1484103
 131.6065564  42.2361331  65.5884273 130.8529272  41.6668729  65.4328277
 131.7413105  42.2023996  66.5354907 116.9964192  47.1074734  61.2638992
 116.8609867  47.9526269  61.6923840 117.5374004  47.3094011  60.5004926
 113.4831532  33.1866313  77.9253347 113.0898477  32.6332512  78.6000992
 114.2997672  33.4976892  78.3159865 110.4493589  44.6250172  61.8366917
 110.9618110  45.4193422  61.9872482 111.1016302  43.9276462  61.7700519
 112.2588474  47.7415928  63.9189670 112.4355102  48.6633893  63.7310654
 113.0545307  47.4274347  64.3484050 116.3999492  34.6024192  75.5173604
 117.1409206  35.2031346  75.4378066 116.6317415  33.8601830  74.9591646
 111.5440831  39.7880560  73.7951834 111.4294346  38.8865817  74.0958932
 110.6885348  40.0344257  73.4436650 118.6232668  47.7298300  75.3939334
 118.1796522  46.9434679  75.0760239 119.2849882  47.9177451  74.7283225
 113.3819789  49.2594102  69.9200013 113.9327215  49.1311165  69.1477007
 112.5431265  49.5588991  69.5694905 120.7213906  48.0101100  73.4220735
 120.7032382  48.8309981  72.9301005 121.6433826  47.8855175  73.6470877
 117.1786960  45.5245229  74.2644244 117.7115297  44.7633518  74.0343552
 116.6501042  45.2318881  75.0068398 120.3456655  30.6305295  69.7937886
 120.0020925  31.5206937  69.7176996 120.7135618  30.4406953  68.9307471
 108.4142506  42.9538826  62.6126488 109.2517728  43.3635834  62.3960195
 108.5920774  42.0138268  62.5826682 120.3106938  40.6213907  58.3010321
 119.7953562  41.3918511  58.5398708 120.0384247  39.9479043  58.9243382
 117.8954049  35.4663607  63.3595559 117.0395646  35.0770458  63.1801198
 118.3081001  35.5455568  62.4995345 119.4253196  33.0009951  67.7587119
 118.9217991  32.9640086  66.9454924 119.7183803  33.9102693  67.8183775
 115.6696082  33.0848680  66.7653301 116.5349078  32.8891489  66.4059190
 115.7373591  32.8559032  67.6922657 125.2841212  43.3746261  60.2363494
 124.5070655  43.0357421  59.7918656 125.9632693  43.3798884  59.5618459
 120.0993241  38.4940999  60.1270102 119.7943377  38.8087148  60.9780245
 121.0523683  38.5722419  60.1697435 118.5439673  44.6531222  61.7763056
 118.0161035  43.9183982  61.4636293 118.0427176  45.4305898  61.5303024
 123.5232519  42.8480242  66.8930102 122.8656194  43.5379504  66.9810231
 124.3272918  43.2376674  67.2364088 113.2758401  35.3150888  64.1369667
 113.8502153  35.0926070  63.4042860 113.8629383  35.3839583  64.8898269
 122.3337978  41.2024615  64.9434044 122.8469860  41.8354607  65.4455754
 122.9839202  40.6025811  64.5777404 113.6027988  37.3455349  58.1565553
 112.7665300  37.6830036  58.4774827 113.4632758  37.2104329  57.2192690
 115.5781068  32.1892137  62.8644737 114.9245481  31.8741154  62.2401352
 115.5361543  31.5667878  63.5904560 116.6892273  42.4711432  54.7798029
 115.7819335  42.2400686  54.9789178 117.1863305  41.6749051  54.9672010
 119.5960352  51.1808939  57.6994715 118.9222051  51.4840636  58.3079673
 119.9826174  51.9838020  57.3500172 118.8118809  38.6774071  67.1892384
 117.8941370  38.8989018  67.0314072 119.2278952  38.7520381  66.3304092
 119.5953857  40.0765486  62.3195065 120.3425676  40.5886884  62.0102187
 119.8645446  39.7549539  63.1799458 117.8680507  42.5724027  59.3022019
 116.9591726  42.2883060  59.3994489 117.8975591  42.9923106  58.4425326
 123.0999774  46.1830617  63.0713186 122.6462101  45.3421526  63.1278377
 122.4693741  46.8192015  63.4087967 122.0432694  37.1122603  64.3013854
 121.3055451  36.5999989  64.6324097 122.2959467  36.6722984  63.4897131
 121.5432713  48.0207113  64.0063005 121.8355688  48.5812170  63.2875370
 122.0531334  48.3135674  64.7616164 122.1444321  29.8898855  64.8955623
 122.4503198  29.0296218  64.6081538 122.8696926  30.4816475  64.6954617
 108.4368677  40.2929541  63.2837221 108.2393077  39.6998902  62.5588288
 107.8815341  39.9881751  64.0013160 116.4165401  40.1852648  65.4031814
 116.4714011  39.2326484  65.3274291 115.6056603  40.3412087  65.8873113
 117.5656595  44.1132771  56.6410098 117.1276025  43.3968630  56.1815735
 118.3067035  44.3408886  56.0795189 114.3557761  38.8029707  63.1622193
 113.5425626  39.1023878  63.5687385 114.8516755  38.4085396  63.8796675
 116.5066339  48.7987464  65.0956458 116.4642517  49.0248311  64.1664990
 117.4229038  48.5650839  65.2442259 119.9531972  39.2671532  71.9937087
 120.3081360  39.4943005  72.8531553 120.6004104  39.5989909  71.3714342
 125.6829709  42.3889968  62.6986416 125.5447608  42.5791564  61.7707605
 125.3265928  43.1509351  63.1554467 113.8471836  36.3748063  68.7783428
 114.4871215  36.2336822  68.0806391 113.0149366  36.0882576  68.4022030
 125.7099089  44.4566495  67.7097688 126.1435596  44.3641784  68.5580742
 126.4230670  44.4323995  67.0717704 114.6232139  45.6750493  64.8918421
 115.4172738  45.1800814  64.6900996 113.9123832  45.1468357  64.5286126
 119.4426984  48.0568589  69.2430788 119.4964006  48.6259525  70.0108504
 118.5741765  48.2270474  68.8784825 110.9314903  39.8193575  60.9678173
 110.0012491  39.7578031  61.1848135 111.0272375  39.2969528  60.1714814
 110.8500452  36.3448388  63.5556415 111.1107269  37.2593721  63.4465575
 111.6717624  35.8772831  63.7053028 112.3225377  37.7586145  70.7255239
 112.9948431  37.5503507  70.0767888 111.4955164  37.5608231  70.2860472
 126.5714639  44.4990195  70.2430573 126.7650529  45.4036006  70.4889848
 126.4715257  44.0397615  71.0769158 118.2250949  34.3848086  72.7420900
 117.5778864  35.0838036  72.6485377 118.9951965  34.8184230  73.1097149
 121.6329747  44.6496938  75.8171454 121.4815254  44.4207490  74.9001537
 121.6234427  45.6067540  75.8302799 118.4015084  42.2228851  70.8017720
 119.3307144  42.3740011  70.6286687 117.9806114  42.3112872  69.9466367
 117.2003415  46.2479515  68.5716258 117.0614501  45.8798300  69.4442196
 116.4118012  46.7627155  68.4000215 117.7951567  51.3488612  59.9141794
 117.9703323  50.8776655  60.7287417 117.1084355  51.9754378  60.1423055
 118.7508631  45.6261118  65.9605095 118.4158463  45.5861888  66.8562745
 118.2512576  44.9605834  65.4875506 112.7252875  41.0328748  71.4857677
 112.5872672  40.3008987  72.0869216 113.6357798  40.9437648  71.2041864
 121.6867822  42.9717152  56.2342155 121.0696993  42.2463981  56.1375208
 121.2184311  43.7326513  55.8909229 115.3535175  40.7448707  70.9741356
 116.0634794  40.1041900  70.9327975 115.3104483  40.9961602  71.8967537
 123.3421954  47.6816061  73.8947935 123.2834500  46.9975281  73.2278518
 123.7441472  48.4235051  73.4428561 114.0664109  37.7313925  72.7936996
 113.5301466  37.2804664  73.4458592 113.4780818  37.8659834  72.0507460
 112.3612653  54.4977975  66.6881654 112.6009251  55.1296499  67.3660673
 111.5181849  54.1466015  66.9747014 113.4766368  37.1902577  55.3563459
 112.5995834  37.0691377  54.9925706 113.9524121  36.3988655  55.1042348
 123.3439361  45.6455645  72.1261915 122.4566140  45.3081566  72.2488314
 123.9137912  44.9138676  72.3630681 104.9968508  41.9779736  65.4504967
 105.6839548  41.6641466  64.8625982 104.8416637  42.8821101  65.1772218
 109.8003230  36.8669933  69.8789990 109.7161419  36.2595603  69.1440400
 108.9785937  37.3578951  69.8799487 116.8740515  50.3057097  69.0923158
 116.8010686  51.1112069  69.6042463 116.4317908  50.5049063  68.2671180
 116.6630294  49.5428867  62.6025980 115.8797816  50.0850547  62.6964204
 117.3623039  50.0602847  63.0020221 119.9726944  35.3523497  65.2460185
 120.4695644  34.5993459  64.9261255 119.2013926  35.3887813  64.6803395
 127.8256702  41.0563862  66.8878477 127.8146578  41.9388577  66.5172410
 126.9574081  40.7035413  66.6933014 119.3339198  50.2043931  71.2481317
 120.0467170  50.8391396  71.1757218 118.8429227  50.3007797  70.4321319
 121.0556725  44.1095184  62.8198609 120.1213004  44.2296646  62.6503313
 121.2333393  43.2067651  62.5558618 116.5561913  37.4940880  64.9731870
 116.1859701  36.9411920  65.6612775 117.0521005  36.8899013  64.4206870
 124.4429276  39.9512503  63.3548643 124.9089729  40.7840495  63.2808945
 124.8936777  39.4857485  64.0593901 114.3851112  47.9538375  72.0686888
 115.0860571  48.5874857  72.2216282 113.9146227  48.2953106  71.3082527
 122.5105507  46.2956324  60.3534795 122.7865351  46.1812919  61.2628669
 121.6410006  45.8973809  60.3146968 122.4145939  32.3193090  67.3939544
 121.5009019  32.5497317  67.5621751 122.8439041  32.4031534  68.2453577
 122.1852398  40.5082982  69.8939438 121.5323848  40.7558889  69.2391891
 122.5632777  39.6947120  69.5601915 119.1459571  50.5442675  63.9967608
 119.3281966  49.7264331  64.4595361 119.9692557  50.7610367  63.5592498
 119.4801737  49.4710860  61.2582657 120.0089503  48.9603315  60.6452819
 119.7429957  49.1553390  62.1228190 118.2339971  41.2502793  76.3805475
 117.5580608  41.1496922  77.0507850 119.0567604  41.0942007  76.8441472
 109.9818830  47.4874730  69.0017990 110.5672266  46.7418417  69.1345895
 109.7843668  47.7978686  69.8854654 112.8357485  50.5225977  64.0180433
 112.1667860  51.0072105  63.5344473 112.6970355  50.7695197  64.9323811
 104.5736484  40.0580330  67.7222434 104.6120584  39.5243920  68.5159552
 104.0676777  39.5315535  67.1033411 116.9762753  52.5569720  70.6163091
 117.5281061  52.7201342  71.3812176 117.3168947  53.1474158  69.9443116
 111.9527247  34.9044870  71.2184976 112.0168573  35.7659701  70.8062374
 111.8894367  34.2918872  70.4857334 111.4279519  36.9768003  74.8658010
 112.0551558  36.5945080  75.4795535 110.5707438  36.7582205  75.2313703
 121.8273628  47.3830978  76.4711746 122.3713532  47.9960936  75.9766700
 121.2460473  47.9410556  76.9878759 108.2045062  38.7844432  60.7976365
 108.4998503  37.8755110  60.7443419 107.3033098  38.7632171  60.4757367
 120.1131141  50.5051696  67.6026773 119.9882280  49.7041436  67.0937719
 120.7710232  50.9997889  67.1140743 111.7339309  36.8600429  66.7803914
 111.0125895  37.4736396  66.6411387 112.5232565  37.3958193  66.7020560
 122.1766049  48.3060716  69.2306323 121.2296385  48.1866067  69.1584650
 122.5248822  47.4183214  69.3132585 114.5365622  34.1954855  73.0544565
 115.0600024  34.4417152  73.8170875 114.3177956  35.0274890  72.6347703
 109.9332904  36.4658530  60.9215690 109.6045610  35.5855909  60.7390796
 110.2872274  36.4106198  61.8092079 119.1812482  48.1013432  65.4310676
 119.0337445  47.1730140  65.6118246 120.0065976  48.1233523  64.9467751
 113.0474727  36.7531499  61.2891168 113.3870799  37.2817421  60.5669776
 113.4946847  37.0911906  62.0649734 122.7846604  48.9241991  66.5175548
 123.7093152  48.7184852  66.3800000 122.6161908  48.6758392  67.4264890
 115.7418168  35.1368550  70.7394236 115.4014988  34.3376363  71.1414916
 115.0357174  35.4370261  70.1671069 116.3934639  32.2217863  69.1921559
 117.2160709  31.7478341  69.0700449 116.6372703  33.0008346  69.6920245
 115.0342874  35.2506121  59.4884461 115.7551236  35.6287374  58.9848177
 114.4108178  35.9694998  59.5919439 119.1773997  35.9551270  60.4242793
 119.3937611  36.8375908  60.1231621 118.6968064  35.5637483  59.6948435
 113.9173218  38.9136983  67.0013538 113.7717799  39.2277286  67.8937819
 113.4398422  39.5321884  66.4484436 115.7769601  35.9039531  67.0494427
 115.7631170  35.0080624  66.7126725 116.4942029  35.9110195  67.6832713
 117.6295732  36.3376871  69.0947555 117.3713510  37.2593942  69.0931885
 117.0980772  35.9407306  69.7848019 122.5741920  49.4427658  61.8737640
 122.7478798  48.8774081  61.1211492 123.0670812  50.2428553  61.6917130
 108.3918880  41.4542328  69.9401199 107.8472348  42.2302136  70.0721473
 109.2698230  41.8013132  69.7820320 115.1806497  34.7853911  62.3181997
 115.3022408  33.8570558  62.5172885 114.8908539  34.7992597  61.4060313
 118.0497687  32.4708822  65.4548717 118.0719384  32.5348155  64.5000697
 118.4665746  31.6313331  65.6489223 128.4281312  42.2064081  63.4927940
 128.8712458  41.4571407  63.0947063 127.5507822  42.1974218  63.1101672
 123.5617093  48.7594423  58.9734538 124.2567998  49.3801116  59.1921853
 123.9040243  47.9089774  59.2486916 109.1784902  40.5812224  72.8331356
 108.4366638  40.7294859  73.4195986 108.8577646  40.8420489  71.9698105
 125.4608516  46.2094128  60.5021869 125.9859840  46.5481401  59.7771189
 125.3730869  45.2741144  60.3185004 117.1228565  50.1228202  72.6311746
 117.4315691  49.8777349  73.5034445 117.9204047  50.3274841  72.1430616
 117.1449177  52.2766112  64.8617122 116.7054167  51.7842490  65.5549979
 117.8957294  51.7339079  64.6209197 109.6241516  48.4677653  64.8641750
 110.4499536  48.1681424  64.4840394 109.2735568  47.6985275  65.3131539
 114.5923049  47.8204121  66.9339424 113.9703058  47.1574826  66.6341652
 115.2627916  47.8465253  66.2513072 107.8250121  46.3863979  65.8230684
 106.9882029  45.9586153  65.6414685 107.7973766  46.5796422  66.7601475
 114.6647576  36.2985909  76.5271930 114.7135732  37.1748032  76.1449699
 115.2070091  35.7563302  75.9543573 125.1502422  46.8427032  75.8073067
 124.3597966  46.8251171  75.2677566 124.9135777  47.3815326  76.5622104
 125.2700297  43.6919498  73.1205795 125.3198302  43.5269506  74.0621318
 125.1614221  42.8246757  72.7303676 114.1536556  46.3708044  60.4097884
 114.3024676  47.0543509  59.7564557 114.9602999  46.3513134  60.9247340
 122.5604060  39.6750426  74.4365102 123.4613922  39.5356891  74.1449100
 122.6352034  39.8404881  75.3763280 116.8946865  37.0517281  73.2818288
 116.0250174  37.3450847  73.0100877 117.1306345  37.6357726  74.0025552
 126.7718494  46.1116440  73.3647817 126.4803302  46.4746421  74.2011278
 126.1590625  45.3983448  73.1861149 127.9714176  43.6769320  65.8850387
 128.8061068  44.1159124  66.0487948 128.1073305  43.2007973  65.0658633
 125.0205682  41.2349055  71.8327875 125.4959804  41.4276701  71.0246726
 124.0971248  41.2908240  71.5871259 111.9089189  42.3973222  61.4158953
 111.6635231  41.4935552  61.6139163 112.0785103  42.3990372  60.4738431
 119.5985899  33.2696898  70.7983709 120.1167843  34.0057925  70.4730197
 119.2441032  33.5760891  71.6330468 111.1784836  38.1301579  58.9145115
 110.4854081  38.2045934  58.2585151 110.9336588  37.3661923  59.4366632
 119.8498493  29.6897181  66.3184605 120.1300247  29.0220370  66.9445032
 120.6349100  29.8826276  65.8059269 117.6531961  48.8656175  57.8809632
 117.0805928  49.4846362  57.4280104 118.2264755  49.4155536  58.4149554
 123.7207351  38.1114815  70.0656181 124.6724774  38.2112912  70.0868405
 123.5510802  37.3193083  70.5754265 121.7421731  35.1970398  70.2515582
 121.1471663  35.4775411  69.5562070 121.4571427  35.6864299  71.0232323
 120.8729221  49.1493325  59.0118214 121.8059894  49.0838886  59.2151090
 120.7852434  49.9849592  58.5532747 123.5017238  48.4659195  55.9722162
 123.4230869  48.1319059  56.8657920 124.3226905  48.9580963  55.9713634
 126.1995429  41.3320934  69.1798480 126.1671749  40.3936935  69.3658164
 126.8096053  41.4104971  68.4464305 118.0378760  40.2016987  55.2225684
 118.9837865  40.0723195  55.2914102 117.6593005  39.4631649  55.6995112
 126.3489918  38.1231978  69.2256763 125.8328966  37.3390434  69.0386692
 127.2329866  37.7950694  69.3903283 124.0100644  31.8672993  65.1852576
 123.8125466  31.5588082  66.0695908 124.6200350  32.5934632  65.3150506
 132.0171979  42.3936941  68.3204517 132.7475367  42.1322229  68.8812220
 131.4078924  41.6565663  68.3606585 130.0987276  40.5344804  68.9178968
 129.3720440  40.4000769  68.3095460 129.6834563  40.8421632  69.7235686
 117.9217452  44.2534733  76.6826341 118.8420462  44.4313332  76.8766388
 117.8867035  43.3090779  76.5306041 116.2221677  38.1266964  55.1580570
 115.3153132  37.8300076  55.2343283 116.4997658  37.8296782  54.2914856
 107.1399617  39.4473327  65.6079616 106.8202402  38.5938635  65.3153990
 106.5933046  39.6621905  66.3637583 110.9179525  42.1635768  69.3249122
 111.1365535  43.0952876  69.3437156 111.3305299  41.8043743  70.1103926
 117.8383743  32.6703853  61.3124811 117.0284471  32.3250938  61.6880057
 118.5268160  32.3611397  61.9012422 119.7674291  31.7481900  62.9349107
 120.3205330  32.1677354  63.5939131 120.0044377  30.8217648  62.9772063
 115.7907390  37.7368974  78.7151871 115.6904117  38.6863331  78.6463962
 115.5728932  37.4087213  77.8427941 114.9920462  34.9853899  55.2992549
 115.8539626  35.3108797  55.5588366 115.1770806  34.1985395  54.7865614
 107.0087877  43.0676239  67.5772737 106.3151349  42.6530191  67.0642692
 107.7560868  43.1096775  66.9806156 123.1453098  33.8582425  62.4427772
 122.5651767  34.5167229  62.0605824 122.8789031  33.0359770  62.0315189
 121.5956665  33.2587483  64.6449092 122.0956443  33.3704018  63.8363411
 122.2392272  32.9548536  65.2849900 115.6538660  41.1666113  77.5316933
 115.1705742  41.9666473  77.7380822 115.7399599  41.1774058  76.5784377
 108.9224620  42.9994492  65.4538752 108.8995308  43.0982180  64.5020635
 109.2325256  43.8459643  65.7755918 111.5811998  45.0570647  69.5685367
 112.5355251  45.0254590  69.5015298 111.3824521  44.5961271  70.3835593
 112.1711380  43.6271763  72.1356164 112.9904269  44.1215842  72.1591002
 112.4448188  42.7103732  72.1073732 121.9277976  36.0182516  61.4984120
 121.0403831  36.3032166  61.2804315 122.3431965  35.8576279  60.6511397
 125.2792512  36.0429037  65.2138459 126.0552902  36.5325489  65.4863076
 124.5540646  36.4687091  65.6710329 127.7165071  36.7556656  66.2712400
 128.3109562  36.5152392  65.5605708 127.7891655  36.0363787  66.8985936
 109.9362227  50.5990267  66.5855565 109.8016695  49.8390668  66.0193563
 109.5194289  51.3231167  66.1184354 121.0721190  45.7827190  55.5932140
 121.7757040  45.9877193  56.2089796 120.3483838  46.3503952  55.8581223
 121.9019000  41.5337052  61.7134410 121.8454201  41.9905603  60.8742043
 122.4547342  40.7727736  61.5357253 125.7123806  37.3226784  62.5384530
 125.4560740  36.9223419  63.3692737 125.0876674  38.0370578  62.4134669
 130.0236144  40.0622857  65.0455821 129.4635702  40.1316046  65.8187383
 129.4179647  39.8863841  64.3255317 113.0931353  51.4959584  66.7974007
 112.9763737  52.4405016  66.6952698 112.2723799  51.1933145  67.1859807
 122.9807887  46.2209720  57.6430600 123.8153491  45.7890918  57.4608075
 122.8192230  46.0491733  58.5707494 122.6353779  42.7241833  59.0086939
 122.5802583  42.5586104  58.0675383 122.0099835  43.4317866  59.1649129
 107.4246294  37.9609897  72.8348362 108.0705158  37.4508851  73.3235587
 107.2163445  38.6978579  73.4091787 119.9499686  45.0290745  78.3340502
 120.8190846  45.2031397  77.9727137 119.4706438  45.8485162  78.2116231
 115.9449905  32.2249942  58.5872258 115.9328575  33.1691782  58.7440529
 116.8373327  32.0420087  58.2931719 114.1185867  52.1487846  70.0129936
 115.0213113  52.1811456  70.3296431 113.8923237  51.2188297  70.0276272
 115.8739469  50.9018832  66.6740014 114.9235100  50.9020694  66.5604387
 116.1771955  50.1551567  66.1576049 119.7602024  28.8192719  62.8418194
 118.9934420  28.2651205  62.9874877 120.1712729  28.8914587  63.7032346
 111.7643785  35.1077514  76.9323376 112.6275247  34.7514319  77.1426700
 111.1909196  34.7691409  77.6198780 131.6092162  56.7379371  67.7385777
 132.2470572  56.6186118  67.0349117 131.4913005  57.6860215  67.7973729
 128.4181868  56.6906799  67.6747301 128.0800380  56.5747864  66.7867836
 129.2871637  56.2897964  67.6548308 124.2768684  58.5442275  63.6644192
 123.7133549  58.4532212  62.8960480 124.1621079  57.7242180  64.1446685
 128.9001651  57.8441651  73.6333507 128.8890292  57.4494449  72.7614011
 129.0622291  57.1107723  74.2267278 121.8233116  60.0393467  66.5028413
 122.6154408  59.6984292  66.0874712 122.0629766  60.1488442  67.4230566
 129.8568243  62.2113243  58.9758657 129.2056223  62.7967323  58.5892671
 130.6512606  62.7419438  59.0353695 123.7823870  59.3002380  59.3745792
 124.5554746  58.7531367  59.2358667 124.1349269  60.1646629  59.5860253
 125.6208913  60.6278762  72.5812691 125.3298779  61.5324393  72.4659357
 126.2565897  60.6695290  73.2956761 126.5465119  58.0055611  69.1714051
 127.1428692  57.7811633  68.4571014 126.6040091  57.2640356  69.7739498
 126.1190148  55.4595046  57.0064242 126.3715668  54.9376568  56.2447705
 125.1814707  55.2961192  57.1090925 131.1633431  54.4630825  64.8138985
 131.9496520  54.0450248  64.4629402 131.4272135  55.3676917  64.9820633
 131.3343508  59.9003675  59.5127642 130.6989341  59.9738301  60.2248546
 131.0040914  60.4897274  58.8346721 136.5641858  54.4006058  65.7171963
 137.2967030  53.8305275  65.9509793 135.8081213  54.0127658  66.1578469
 125.8386437  57.3623152  59.2088617 125.7222695  56.6868056  59.8769701
 125.9488696  56.8755526  58.3920770 128.1817977  56.8233299  62.9135306
 127.8176185  56.2963920  63.6248227 129.0385093  56.4331768  62.7401791
 134.0867278  48.1127632  70.1766572 133.7550603  48.9823043  69.9527787
 133.4912891  47.7963916  70.8560602 127.8223464  51.8523199  57.9096654
 127.9897867  52.7203435  58.2767125 127.6320634  52.0150481  56.9857944
 130.5798798  60.3140178  69.5762485 130.2799521  61.2165217  69.4678292
 130.2349857  60.0472361  70.4283638 124.0311279  56.7653975  65.6099189
 123.1061776  56.6330189  65.8176881 124.2795692  57.5448194  66.1069131
 133.9795941  52.8322718  67.2559922 133.0712819  52.7638127  66.9618683
 133.9283537  53.3094663  68.0841747 127.8012685  54.3080857  58.8943321
 127.6812311  54.7537907  59.7328801 127.1065274  54.6566174  58.3356859
 121.3920090  56.4087248  66.4442978 121.5212471  56.6621727  67.3582390
 120.7117541  57.0014956  66.1247633 125.5619577  67.0784498  62.5433452
 125.4843607  68.0292323  62.6221933 124.9581221  66.7330371  63.2008379
 128.0536807  54.2512364  75.1994819 127.2770141  54.8106284  75.1897684
 128.6927370  54.7369147  75.7209689 135.8457588  51.0339157  69.0337796
 135.2031968  51.3271690  68.3877590 135.3412516  50.9192077  69.8390993
 133.4997751  54.7802330  59.7223655 134.4115608  55.0129716  59.5471353
 132.9907399  55.3639374  59.1598734 126.3083180  57.0597817  74.7612786
 127.0497864  57.5982861  74.4847610 125.6020165  57.6864106  74.9184338
 131.7838519  59.2026958  73.3584948 132.1921875  58.7609368  72.6139580
 131.0615781  58.6279585  73.6119141 128.1369589  54.1399564  70.7318505
 128.9830784  54.5638978  70.8753154 128.0768227  53.4833189  71.4257068
 132.1067334  59.7628148  67.1137237 131.4776196  59.9273862  66.4113304
 131.7192996  60.1769758  67.8848201 135.9856566  60.6982586  64.4681600
 135.3007604  61.0781487  63.9178634 136.0700415  61.3077913  65.2013548
 131.2869035  51.8003933  72.3899678 131.0429966  52.5545993  71.8533954
 131.5628965  52.1789280  73.2246925 133.2407497  58.3442545  71.0676944
 133.4524393  58.9874305  70.3911325 133.1937246  57.5104862  70.5998874
 130.8433726  50.9560366  67.9713516 129.9818205  51.2541619  68.2630254
 130.8696161  51.1730765  67.0394549 127.6595296  59.5002556  64.3787322
 128.1233641  59.7790259  63.5891944 127.3952094  58.5986001  64.1960412
 124.5519377  59.0474038  67.3167085 125.1220734  59.4761306  66.6784569
 125.1427489  58.7656622  68.0151271 126.5964182  55.6225709  61.1876887
 127.2988225  56.0746752  61.6550813 126.2644810  54.9809527  61.8156780
 125.0444543  54.2137465  75.5628096 124.4143204  54.8953746  75.7963493
 124.9380631  54.1020547  74.6181234 120.3389516  53.8809261  66.4894020
 119.5488570  54.1366790  66.0134131 120.8300763  54.6957599  66.5946061
 134.3553325  61.2214500  69.2399301 135.1770769  60.8194688  68.9581983
 134.3515728  61.1182735  70.1915417 122.2904261  54.2453841  63.4477497
 121.4935424  54.3572535  63.9660993 122.0629853  54.5840493  62.5818388
 128.1209929  60.7698544  71.3960012 128.1854361  61.2318951  72.2318184
 127.4120853  60.1395909  71.5242322 118.6227219  54.1339752  68.9209011
 118.8735257  55.0186762  69.1866587 119.1586767  53.9544353  68.1484103
 142.4459318  57.5653249  65.5884273 141.6923027  56.9960647  65.4328277
 142.5806860  57.5315913  66.5354907 127.8357946  62.4366651  61.2638992
 127.7003621  63.2818187  61.6923840 128.3767759  62.6385929  60.5004926
 124.3225286  48.5158231  77.9253347 123.9292232  47.9624430  78.6000992
 125.1391426  48.8268810  78.3159865 121.2887344  59.9542089  61.8366917
 121.8011864  60.7485340  61.9872482 121.9410057  59.2568380  61.7700519
 123.0982228  63.0707846  63.9189670 123.2748857  63.9925810  63.7310654
 123.8939062  62.7566265  64.3484050 127.2393247  49.9316110  75.5173604
 127.9802960  50.5323263  75.4378066 127.4711170  49.1893748  74.9591646
 122.3834585  55.1172477  73.7951834 122.2688100  54.2157735  74.0958932
 121.5279103  55.3636174  73.4436650 129.4626423  63.0590218  75.3939334
 129.0190277  62.2726596  75.0760239 130.1243636  63.2469368  74.7283225
 124.2213544  64.5886019  69.9200013 124.7720969  64.4603083  69.1477007
 123.3825020  64.8880908  69.5694905 131.5607661  63.3393018  73.4220735
 131.5426136  64.1601899  72.9301005 132.4827581  63.2147093  73.6470877
 128.0180715  60.8537147  74.2644244 128.5509052  60.0925435  74.0343552
 127.4894796  60.5610799  75.0068398 131.1850410  45.9597213  69.7937886
 130.8414679  46.8498855  69.7176996 131.5529373  45.7698871  68.9307471
 119.2536261  58.2830744  62.6126488 120.0911483  58.6927752  62.3960195
 119.4314528  57.3430186  62.5826682 131.1500693  55.9505824  58.3010321
 130.6347316  56.7210429  58.5398708 130.8778001  55.2770960  58.9243382
 128.7347804  50.7955525  63.3595559 127.8789400  50.4062375  63.1801198
 129.1474755  50.8747486  62.4995345 130.2646950  48.3301868  67.7587119
 129.7611746  48.2932003  66.9454924 130.5577557  49.2394611  67.8183775
 126.5089836  48.4140598  66.7653301 127.3742833  48.2183407  66.4059190
 126.5767345  48.1850950  67.6922657 136.1234967  58.7038179  60.2363494
 135.3464410  58.3649338  59.7918656 136.8026448  58.7090802  59.5618459
 130.9386996  53.8232916  60.1270102 130.6337131  54.1379065  60.9780245
 131.8917438  53.9014336  60.1697435 129.3833428  59.9823140  61.7763056
 128.8554789  59.2475899  61.4636293 128.8820930  60.7597816  61.5303024
 134.3626274  58.1772160  66.8930102 133.7049948  58.8671422  66.9810231
 135.1666673  58.5668592  67.2364088 124.1152155  50.6442806  64.1369667
 124.6895907  50.4217987  63.4042860 124.7023138  50.7131500  64.8898269
 133.1731732  56.5316533  64.9434044 133.6863614  57.1646525  65.4455754
 133.8232956  55.9317728  64.5777404 124.4421742  52.6747267  58.1565553
 123.6059055  53.0121953  58.4774827 124.3026512  52.5396247  57.2192690
 126.4174823  47.5184055  62.8644737 125.7639235  47.2033072  62.2401352
 126.3755297  46.8959795  63.5904560 127.5286028  57.8003350  54.7798029
 126.6213090  57.5692603  54.9789178 128.0257060  57.0040969  54.9672010
 130.4354107  66.5100857  57.6994715 129.7615805  66.8132554  58.3079673
 130.8219929  67.3129937  57.3500172 129.6512563  54.0065988  67.1892384
 128.7335125  54.2280935  67.0314072 130.0672707  54.0812299  66.3304092
 130.4347611  55.4057404  62.3195065 131.1819430  55.9178801  62.0102187
 130.7039201  55.0841457  63.1799458 128.7074261  57.9015945  59.3022019
 127.7985481  57.6174978  59.3994489 128.7369345  58.3215023  58.4425326
 133.9393529  61.5122534  63.0713186 133.4855856  60.6713444  63.1278377
 133.3087495  62.1483933  63.4087967 132.8826448  52.4414520  64.3013854
 132.1449205  51.9291906  64.6324097 133.1353222  52.0014902  63.4897131
 132.3826468  63.3499031  64.0063005 132.6749442  63.9104088  63.2875370
 132.8925089  63.6427592  64.7616164 132.9838076  45.2190772  64.8955623
 133.2896952  44.3588136  64.6081538 133.7090680  45.8108392  64.6954617
 119.2762432  55.6221459  63.2837221 119.0786831  55.0290820  62.5588288
 118.7209096  55.3173669  64.0013160 127.2559155  55.5144565  65.4031814
 127.3107765  54.5618402  65.3274291 126.4450357  55.6704004  65.8873113
 128.4050349  59.4424688  56.6410098 127.9669779  58.7260547  56.1815735
 129.1460790  59.6700803  56.0795189 125.1951515  54.1321625  63.1622193
 124.3819381  54.4315796  63.5687385 125.6910509  53.7377314  63.8796675
 127.3460093  64.1279382  65.0956458 127.3036272  64.3540228  64.1664990
 128.2622792  63.8942757  65.2442259 130.7925727  54.5963450  71.9937087
 131.1475115  54.8234923  72.8531553 131.4397858  54.9281826  71.3714342
 136.5223464  57.7181885  62.6986416 136.3841362  57.9083481  61.7707605
 136.1659683  58.4801268  63.1554467 124.6865590  51.7039981  68.7783428
 125.3264969  51.5628740  68.0806391 123.8543121  51.4174494  68.4022030
 136.5492843  59.7858412  67.7097688 136.9829350  59.6933702  68.5580742
 137.2624424  59.7615913  67.0717704 125.4625894  61.0042411  64.8918421
 126.2566492  60.5092731  64.6900996 124.7517586  60.4760274  64.5286126
 130.2820738  63.3860507  69.2430788 130.3357761  63.9551443  70.0108504
 129.4135520  63.5562392  68.8784825 121.7708657  55.1485493  60.9678173
 120.8406245  55.0869948  61.1848135 121.8666129  54.6261446  60.1714814
 121.6894206  51.6740306  63.5556415 121.9501024  52.5885639  63.4465575
 122.5111379  51.2064748  63.7053028 123.1619132  53.0878063  70.7255239
 123.8342185  52.8795425  70.0767888 122.3348918  52.8900149  70.2860472
 137.4108393  59.8282113  70.2430573 137.6044283  60.7327924  70.4889848
 137.3109011  59.3689532  71.0769158 129.0644704  49.7140004  72.7420900
 128.4172619  50.4129953  72.6485377 129.8345719  50.1476148  73.1097149
 132.4723502  59.9788856  75.8171454 132.3209008  59.7499408  74.9001537
 132.4628181  60.9359457  75.8302799 129.2408838  57.5520769  70.8017720
 130.1700898  57.7031928  70.6286687 128.8199868  57.6404789  69.9466367
 128.0397170  61.5771433  68.5716258 127.9008256  61.2090217  69.4442196
 127.2511766  62.0919072  68.4000215 128.6345322  66.6780529  59.9141794
 128.8097078  66.2068573  60.7287417 127.9478110  67.3046296  60.1423055
 129.5902385  60.9553036  65.9605095 129.2552218  60.9153806  66.8562745
 129.0906331  60.2897752  65.4875506 123.5646629  56.3620666  71.4857677
 123.4266427  55.6300905  72.0869216 124.4751552  56.2729566  71.2041864
 132.5261577  58.3009070  56.2342155 131.9090747  57.5755898  56.1375208
 132.0578065  59.0618430  55.8909229 126.1928930  56.0740625  70.9741356
 126.9028548  55.4333817  70.9327975 126.1498238  56.3253520  71.8967537
 134.1815708  63.0107978  73.8947935 134.1228255  62.3267199  73.2278518
 134.5835227  63.7526968  73.4428561 124.9057864  53.0605843  72.7936996
 124.3695221  52.6096581  73.4458592 124.3174572  53.1951752  72.0507460
 123.2006407  69.8269892  66.6881654 123.4403005  70.4588416  67.3660673
 122.3575604  69.4757932  66.9747014 124.3160123  52.5194494  55.3563459
 123.4389589  52.3983295  54.9925706 124.7917876  51.7280573  55.1042348
 134.1833116  60.9747562  72.1261915 133.2959894  60.6373484  72.2488314
 134.7531667  60.2430594  72.3630681 115.8362263  57.3071654  65.4504967
 116.5233303  56.9933384  64.8625982 115.6810391  58.2113019  65.1772218
 120.6396985  52.1961851  69.8789990 120.5555174  51.5887520  69.1440400
 119.8179691  52.6870869  69.8799487 127.7134269  65.6349015  69.0923158
 127.6404441  66.4403986  69.6042463 127.2711662  65.8340981  68.2671180
 127.5024049  64.8720785  62.6025980 126.7191571  65.4142465  62.6964204
 128.2016794  65.3894764  63.0020221 130.8120699  50.6815414  65.2460185
 131.3089398  49.9285377  64.9261255 130.0407680  50.7179731  64.6803395
 138.6650456  56.3855780  66.8878477 138.6540332  57.2680495  66.5172410
 137.7967836  56.0327331  66.6933014 130.1732953  65.5335849  71.2481317
 130.8860925  66.1683314  71.1757218 129.6822981  65.6299715  70.4321319
 131.8950479  59.4387101  62.8198609 130.9606758  59.5588564  62.6503313
 132.0727148  58.5359568  62.5558618 127.3955668  52.8232797  64.9731870
 127.0253455  52.2703838  65.6612775 127.8914760  52.2190931  64.4206870
 135.2823031  55.2804421  63.3548643 135.7483483  56.1132412  63.2808945
 135.7330531  54.8149402  64.0593901 125.2244866  63.2830292  72.0686888
 125.9254326  63.9166775  72.2216282 124.7539981  63.6245024  71.3082527
 133.3499262  61.6248242  60.3534795 133.6259106  61.5104837  61.2628669
 132.4803761  61.2265727  60.3146968 133.2539694  47.6485008  67.3939544
 132.3402773  47.8789235  67.5621751 133.6832795  47.7323452  68.2453577
 133.0246152  55.8374900  69.8939438 132.3717602  56.0850807  69.2391891
 133.4026532  55.0239038  69.5601915 129.9853326  65.8734593  63.9967608
 130.1675720  65.0556249  64.4595361 130.8086312  66.0902285  63.5592498
 130.3195491  64.8002778  61.2582657 130.8483258  64.2895233  60.6452819
 130.5823711  64.4845308  62.1228190 129.0733725  56.5794711  76.3805475
 128.3974362  56.4788840  77.0507850 129.8961359  56.4233924  76.8441472
 120.8212584  62.8166647  69.0017990 121.4066021  62.0710335  69.1345895
 120.6237423  63.1270604  69.8854654 123.6751239  65.8517895  64.0180433
 123.0061615  66.3364022  63.5344473 123.5364109  66.0987115  64.9323811
 115.4130239  55.3872247  67.7222434 115.4514338  54.8535838  68.5159552
 114.9070532  54.8607453  67.1033411 127.8156508  67.8861638  70.6163091
 128.3674816  68.0493260  71.3812176 128.1562701  68.4766076  69.9443116
 122.7921001  50.2336788  71.2184976 122.8562328  51.0951619  70.8062374
 122.7288121  49.6210790  70.4857334 122.2673274  52.3059921  74.8658010
 122.8945313  51.9236998  75.4795535 121.4101193  52.0874122  75.2313703
 132.6667382  62.7122896  76.4711746 133.2107286  63.3252854  75.9766700
 132.0854227  63.2702474  76.9878759 119.0438816  54.1136350  60.7976365
 119.3392258  53.2047028  60.7443419 118.1426852  54.0924089  60.4757367
 130.9524895  65.8343614  67.6026773 130.8276035  65.0333354  67.0937719
 131.6103986  66.3289807  67.1140743 122.5733063  52.1892346  66.7803914
 121.8519649  52.8028314  66.6411387 123.3626319  52.7250111  66.7020560
 133.0159804  63.6352634  69.2306323 132.0690139  63.5157985  69.1584650
 133.3642577  62.7475132  69.3132585 125.3759377  49.5246773  73.0544565
 125.8993779  49.7709069  73.8170875 125.1571710  50.3566808  72.6347703
 120.7726658  51.7950447  60.9215690 120.4439364  50.9147826  60.7390796
 121.1266029  51.7398116  61.8092079 130.0206237  63.4305350  65.4310676
 129.8731199  62.5022057  65.6118246 130.8459730  63.4525441  64.9467751
 123.8868481  52.0823417  61.2891168 124.2264554  52.6109338  60.5669776
 124.3340602  52.4203823  62.0649734 133.6240359  64.2533909  66.5175548
 134.5486906  64.0476770  66.3800000 133.4555662  64.0050310  67.4264890
 126.5811922  50.4660468  70.7394236 126.2408742  49.6668281  71.1414916
 125.8750928  50.7662179  70.1671069 127.2328394  47.5509780  69.1921559
 128.0554463  47.0770258  69.0700449 127.4766457  48.3300264  69.6920245
 125.8736628  50.5798039  59.4884461 126.5944991  50.9579291  58.9848177
 125.2501932  51.2986915  59.5919439 130.0167751  51.2843188  60.4242793
 130.2331366  52.1667826  60.1231621 129.5361818  50.8929401  59.6948435
 124.7566973  54.2428901  67.0013538 124.6111553  54.5569204  67.8937819
 124.2792176  54.8613801  66.4484436 126.6163355  51.2331449  67.0494427
 126.6024924  50.3372542  66.7126725 127.3335784  51.2402113  67.6832713
 128.4689486  51.6668789  69.0947555 128.2107264  52.5885860  69.0931885
 127.9374527  51.2699224  69.7848019 133.4135675  64.7719576  61.8737640
 133.5872552  64.2065999  61.1211492 133.9064566  65.5720471  61.6917130
 119.2312635  56.7834245  69.9401199 118.6866103  57.5594053  70.0721473
 120.1091985  57.1305050  69.7820320 126.0200251  50.1145829  62.3181997
 126.1416163  49.1862475  62.5172885 125.7302294  50.1284515  61.4060313
 128.8891442  47.8000740  65.4548717 128.9113139  47.8640073  64.5000697
 129.3059501  46.9605248  65.6489223 139.2675066  57.5355999  63.4927940
 139.7106212  56.7863324  63.0947063 138.3901576  57.5266135  63.1101672
 134.4010847  64.0886341  58.9734538 135.0961752  64.7093033  59.1921853
 134.7433998  63.2381692  59.2486916 120.0178657  55.9104142  72.8331356
 119.2760393  56.0586777  73.4195986 119.6971401  56.1712407  71.9698105
 136.3002271  61.5386046  60.5021869 136.8253595  61.8773319  59.7771189
 136.2124623  60.6033061  60.3185004 127.9622319  65.4520120  72.6311746
 128.2709446  65.2069267  73.5034445 128.7597801  65.6566758  72.1430616
 127.9842931  67.6058029  64.8617122 127.5447922  67.1134408  65.5549979
 128.7351048  67.0630997  64.6209197 120.4635270  63.7969570  64.8641750
 121.2893290  63.4973342  64.4840394 120.1129322  63.0277193  65.3131539
 125.4316803  63.1496038  66.9339424 124.8096813  62.4866743  66.6341652
 126.1021670  63.1757170  66.2513072 118.6643875  61.7155897  65.8230684
 117.8275784  61.2878071  65.6414685 118.6367521  61.9088340  66.7601475
 125.5041331  51.6277826  76.5271930 125.5529486  52.5039949  76.1449699
 126.0463845  51.0855220  75.9543573 135.9896177  62.1718950  75.8073067
 135.1991720  62.1543089  75.2677566 135.7529531  62.7107243  76.5622104
 136.1094052  59.0211416  73.1205795 136.1592057  58.8561424  74.0621318
 136.0007975  58.1538675  72.7303676 124.9930310  61.6999962  60.4097884
 125.1418431  62.3835426  59.7564557 125.7996754  61.6805052  60.9247340
 133.3997814  55.0042344  74.4365102 134.3007677  54.8648809  74.1449100
 133.4745789  55.1696799  75.3763280 127.7340619  52.3809199  73.2818288
 126.8643929  52.6742765  73.0100877 127.9700100  52.9649644  74.0025552
 137.6112249  61.4408358  73.3647817 137.3197057  61.8038338  74.2011278
 136.9984380  60.7275366  73.1861149 138.8107931  59.0061237  65.8850387
 139.6454822  59.4451041  66.0487948 138.9467060  58.5299891  65.0658633
 135.8599437  56.5640972  71.8327875 136.3353558  56.7568619  71.0246726
 134.9365002  56.6200158  71.5871259 122.7482943  57.7265139  61.4158953
 122.5028985  56.8227469  61.6139163 122.9178858  57.7282290  60.4738431
 130.4379653  48.5988816  70.7983709 130.9561597  49.3349843  70.4730197
 130.0834786  48.9052809  71.6330468 122.0178591  53.4593497  58.9145115
 121.3247836  53.5337852  58.2585151 121.7730343  52.6953841  59.4366632
 130.6892247  45.0189098  66.3184605 130.9694001  44.3512287  66.9445032
 131.4742854  45.2118194  65.8059269 128.4925716  64.1948092  57.8809632
 127.9199683  64.8138279  57.4280104 129.0658510  64.7447454  58.4149554
 134.5601106  53.4406732  70.0656181 135.5118529  53.5404830  70.0868405
 134.3904556  52.6485001  70.5754265 132.5815485  50.5262316  70.2515582
 131.9865417  50.8067328  69.5562070 132.2965182  51.0156216  71.0232323
 131.7122976  64.4785242  59.0118214 132.6453649  64.4130804  59.2151090
 131.6246189  65.3141509  58.5532747 134.3410992  63.7951113  55.9722162
 134.2624624  63.4610976  56.8657920 135.1620659  64.2872881  55.9713634
 137.0389184  56.6612852  69.1798480 137.0065504  55.7228853  69.3658164
 137.6489807  56.7396889  68.4464305 128.8772514  55.5308905  55.2225684
 129.8231619  55.4015113  55.2914102 128.4986759  54.7923567  55.6995112
 137.1883672  53.4523895  69.2256763 136.6722721  52.6682352  69.0386692
 138.0723621  53.1242612  69.3903283 134.8494399  47.1964911  65.1852576
 134.6519220  46.8879999  66.0695908 135.4594105  47.9226550  65.3150506
 142.8565733  57.7228859  68.3204517 143.5869122  57.4614147  68.8812220
 142.2472679  56.9857581  68.3606585 140.9381031  55.8636721  68.9178968
 140.2114194  55.7292686  68.3095460 140.5228317  56.1713550  69.7235686
 128.7611207  59.5826651  76.6826341 129.6814216  59.7605250  76.8766388
 128.7260790  58.6382696  76.5306041 127.0615432  53.4558881  55.1580570
 126.1546887  53.1591994  55.2343283 127.3391413  53.1588699  54.2914856
 117.9793372  54.7765245  65.6079616 117.6596156  53.9230553  65.3153990
 117.4326800  54.9913823  66.3637583 121.7573279  57.4927686  69.3249122
 121.9759289  58.4244794  69.3437156 122.1699053  57.1335660  70.1103926
 128.6777497  47.9995771  61.3124811 127.8678226  47.6542856  61.6880057
 129.3661914  47.6903315  61.9012422 130.6068046  47.0773818  62.9349107
 131.1599084  47.4969271  63.5939131 130.8438132  46.1509566  62.9772063
 126.6301145  53.0660892  78.7151871 126.5297872  54.0155249  78.6463962
 126.4122687  52.7379130  77.8427941 125.8314216  50.3145817  55.2992549
 126.6933380  50.6400715  55.5588366 126.0164560  49.5277313  54.7865614
 117.8481632  58.3968156  67.5772737 117.1545103  57.9822109  67.0642692
 118.5954623  58.4388693  66.9806156 133.9846853  49.1874343  62.4427772
 133.4045522  49.8459147  62.0605824 133.7182785  48.3651688  62.0315189
 132.4350419  48.5879401  64.6449092 132.9350197  48.6995935  63.8363411
 133.0786027  48.2840454  65.2849900 126.4932415  56.4958030  77.5316933
 126.0099497  57.2958391  77.7380822 126.5793354  56.5065975  76.5784377
 119.7618374  58.3286410  65.4538752 119.7389063  58.4274097  64.5020635
 120.0719011  59.1751561  65.7755918 122.4205752  60.3862565  69.5685367
 123.3749006  60.3546507  69.5015298 122.2218276  59.9253189  70.3835593
 123.0105134  58.9563681  72.1356164 123.8298023  59.4507760  72.1591002
 123.2841942  58.0395649  72.1073732 132.7671731  51.3474433  61.4984120
 131.8797586  51.6324084  61.2804315 133.1825720  51.1868197  60.6511397
 136.1186267  51.3720954  65.2138459 136.8946657  51.8617407  65.4863076
 135.3934401  51.7979009  65.6710329 138.5558825  52.0848574  66.2712400
 139.1503316  51.8444310  65.5605708 138.6285409  51.3655704  66.8985936
 120.7755981  65.9282185  66.5855565 120.6410449  65.1682585  66.0193563
 120.3588043  66.6523084  66.1184354 131.9114944  61.1119108  55.5932140
 132.6150794  61.3169111  56.2089796 131.1877593  61.6795870  55.8581223
 132.7412754  56.8628969  61.7134410 132.6847956  57.3197521  60.8742043
 133.2941097  56.1019654  61.5357253 136.5517560  52.6518701  62.5384530
 136.2954495  52.2515337  63.3692737 135.9270428  53.3662495  62.4134669
 140.8629898  55.3914775  65.0455821 140.3029456  55.4607964  65.8187383
 140.2573402  55.2155759  64.3255317 123.9325107  66.8251502  66.7974007
 123.8157491  67.7696934  66.6952698 123.1117553  66.5225063  67.1859807
 133.8201642  61.5501637  57.6430600 134.6547245  61.1182836  57.4608075
 133.6585984  61.3783651  58.5707494 133.4747534  58.0533751  59.0086939
 133.4196338  57.8878022  58.0675383 132.8493589  58.7609784  59.1649129
 118.2640049  53.2901815  72.8348362 118.9098912  52.7800769  73.3235587
 118.0557200  54.0270497  73.4091787 130.7893441  60.3582663  78.3340502
 131.6584601  60.5323315  77.9727137 130.3100192  61.1777079  78.2116231
 126.7843659  47.5541860  58.5872258 126.7722329  48.4983700  58.7440529
 127.6767081  47.3712005  58.2931719 124.9579621  67.4779764  70.0129936
 125.8606868  67.5103374  70.3296431 124.7316991  66.5480214  70.0276272
 126.7133223  66.2310750  66.6740014 125.7628854  66.2312612  66.5604387
 127.0165709  65.4843485  66.1576049 130.5995779  44.1484636  62.8418194
 129.8328174  43.5943123  62.9874877 131.0106484  44.2206505  63.7032346
 122.6037540  50.4369432  76.9323376 123.4669001  50.0806237  77.1426700
 122.0302950  50.0983327  77.6198780 142.4485917  72.0671288  67.7385777
 143.0864327  71.9478036  67.0349117 142.3306760  73.0152132  67.7973729
 139.2575623  72.0198717  67.6747301 138.9194134  71.9039781  66.7867836
 140.1265391  71.6189882  67.6548308 135.1162439  73.8734193  63.6644192
 134.5527304  73.7824130  62.8960480 135.0014834  73.0534097  64.1446685
 139.7395406  73.1733568  73.6333507 139.7284047  72.7786367  72.7614011
 139.9016045  72.4399641  74.2267278 140.6961997  77.5405161  58.9758657
 140.0449977  78.1259241  58.5892671 141.4906360  78.0711356  59.0353695
 136.4602667  75.9570680  72.5812691 136.1692533  76.8616311  72.4659357
 137.0959651  75.9987208  73.2956761 137.3858874  73.3347529  69.1714051
 137.9822446  73.1103551  68.4571014 137.4433845  72.5932274  69.7739498
 136.9583902  70.7886964  57.0064242 137.2109423  70.2668485  56.2447705
 136.0208461  70.6253109  57.1090925 142.0027185  69.7922742  64.8138985
 142.7890274  69.3742165  64.4629402 142.2665889  70.6968834  64.9820633
 142.1737262  75.2295593  59.5127642 141.5383095  75.3030219  60.2248546
 141.8434669  75.8189191  58.8346721 147.4035612  69.7297975  65.7171963
 148.1360784  69.1597192  65.9509793 146.6474968  69.3419576  66.1578469
 139.0211732  72.1525217  62.9135306 138.6569939  71.6255838  63.6248227
 139.8778848  71.7623686  62.7401791 144.9261033  63.4419550  70.1766572
 144.5944357  64.3114961  69.9527787 144.3306646  63.1255834  70.8560602
 138.6617219  67.1815117  57.9096654 138.8291621  68.0495353  58.2767125
 138.4714388  67.3442398  56.9857944 141.4192552  75.6432096  69.5762485
 141.1193275  76.5457134  69.4678292 141.0743612  75.3764279  70.4283638
 134.8705034  72.0945892  65.6099189 133.9455530  71.9622107  65.8176881
 135.1189447  72.8740112  66.1069131 144.8189696  68.1614636  67.2559922
 143.9106573  68.0930044  66.9618683 144.7677292  68.6386581  68.0841747
 138.6406440  69.6372774  58.8943321 138.5206065  70.0829825  59.7328801
 137.9459028  69.9858092  58.3356859 138.8930562  69.5804281  75.1994819
 138.1163896  70.1398202  75.1897684 139.5321125  70.0661064  75.7209689
 146.6851342  66.3631074  69.0337796 146.0425723  66.6563607  68.3877590
 146.1806271  66.2483995  69.8390993 144.3391506  70.1094247  59.7223655
 145.2509362  70.3421634  59.5471353 143.8301153  70.6931292  59.1598734
 137.1476934  72.3889735  74.7612786 137.8891618  72.9274779  74.4847610
 136.4413919  73.0156023  74.9184338 142.6232274  74.5318875  73.3584948
 143.0315630  74.0901286  72.6139580 141.9009535  73.9571503  73.6119141
 138.9763344  69.4691482  70.7318505 139.8224539  69.8930896  70.8753154
 138.9161981  68.8125106  71.4257068 142.9461088  75.0920066  67.1137237
 142.3169951  75.2565780  66.4113304 142.5586750  75.5061675  67.8848201
 146.8250320  76.0274504  64.4681600 146.1401358  76.4073405  63.9178634
 146.9094170  76.6369830  65.2013548 142.1262789  67.1295850  72.3899678
 141.8823721  67.8837911  71.8533954 142.4022720  67.5081198  73.2246925
 144.0801252  73.6734463  71.0676944 144.2918147  74.3166223  70.3911325
 144.0331000  72.8396779  70.5998874 141.6827481  66.2852283  67.9713516
 140.8211960  66.5833537  68.2630254 141.7089915  66.5022682  67.0394549
 138.4989050  74.8294474  64.3787322 138.9627396  75.1082177  63.5891944
 138.2345848  73.9277918  64.1960412 135.3913131  74.3765955  67.3167085
 135.9614488  74.8053224  66.6784569 135.9821243  74.0948540  68.0151271
 137.4357936  70.9517626  61.1876887 138.1381980  71.4038670  61.6550813
 137.1038565  70.3101445  61.8156780 135.8838298  69.5429383  75.5628096
 135.2536958  70.2245664  75.7963493 135.7774386  69.4312465  74.6181234
 131.1783270  69.2101179  66.4894020 130.3882324  69.4658707  66.0134131
 131.6694518  70.0249517  66.5946061 145.1947080  76.5506418  69.2399301
 146.0164523  76.1486605  68.9581983 145.1909483  76.4474652  70.1915417
 133.1298016  69.5745758  63.4477497 132.3329179  69.6864452  63.9660993
 132.9023608  69.9132410  62.5818388 138.9603683  76.0990461  71.3960012
 139.0248116  76.5610869  72.2318184 138.2514607  75.4687826  71.5242322
 129.4620973  69.4631669  68.9209011 129.7129012  70.3478679  69.1866587
 129.9980522  69.2836271  68.1484103 153.2853073  72.8945167  65.5884273
 152.5316781  72.3252565  65.4328277 153.4200614  72.8607831  66.5354907
 138.6751701  77.7658569  61.2638992 138.5397376  78.6110105  61.6923840
 139.2161513  77.9677847  60.5004926 135.1619040  63.8450149  77.9253347
 134.7685986  63.2916347  78.6000992 135.9785181  64.1560727  78.3159865
 138.0787001  65.2608028  75.5173604 138.8196715  65.8615181  75.4378066
 138.3104924  64.5185666  74.9591646 133.2228339  70.4464395  73.7951834
 133.1081855  69.5449652  74.0958932 132.3672857  70.6928092  73.4436650
 140.3020177  78.3882135  75.3939334 139.8584031  77.6018514  75.0760239
 140.9637391  78.5761286  74.7283225 142.4001415  78.6684935  73.4220735
 142.3819891  79.4893816  72.9301005 143.3221335  78.5439011  73.6470877
 138.8574469  76.1829065  74.2644244 139.3902806  75.4217353  74.0343552
 138.3288551  75.8902717  75.0068398 142.0244164  61.2889131  69.7937886
 141.6808434  62.1790772  69.7176996 142.3923127  61.0990788  68.9307471
 141.9894447  71.2797742  58.3010321 141.4741071  72.0502347  58.5398708
 141.7171756  70.6062878  58.9243382 139.5741558  66.1247443  63.3595559
 138.7183155  65.7354293  63.1801198 139.9868510  66.2039403  62.4995345
 141.1040705  63.6593786  67.7587119 140.6005500  63.6223921  66.9454924
 141.3971312  64.5686529  67.8183775 137.3483591  63.7432516  66.7653301
 138.2136587  63.5475324  66.4059190 137.4161100  63.5142867  67.6922657
 146.9628721  74.0330097  60.2363494 146.1858164  73.6941256  59.7918656
 147.6420202  74.0382720  59.5618459 141.7780750  69.1524834  60.1270102
 141.4730886  69.4670983  60.9780245 142.7311192  69.2306254  60.1697435
 140.2227182  75.3115057  61.7763056 139.6948544  74.5767817  61.4636293
 139.7214685  76.0889734  61.5303024 145.2020028  73.5064078  66.8930102
 144.5443703  74.1963339  66.9810231 146.0060427  73.8960510  67.2364088
 134.9545910  65.9734724  64.1369667 135.5289662  65.7509905  63.4042860
 135.5416892  66.0423418  64.8898269 144.0125487  71.8608450  64.9434044
 144.5257369  72.4938442  65.4455754 144.6626711  71.2609646  64.5777404
 135.2815497  68.0039185  58.1565553 134.4452809  68.3413871  58.4774827
 135.1420267  67.8688164  57.2192690 137.2568577  62.8475972  62.8644737
 136.6032990  62.5324990  62.2401352 137.2149052  62.2251713  63.5904560
 138.3679782  73.1295268  54.7798029 137.4606844  72.8984521  54.9789178
 138.8650814  72.3332887  54.9672010 141.2747861  81.8392775  57.6994715
 140.6009560  82.1424472  58.3079673 141.6613683  82.6421855  57.3500172
 140.4906318  69.3357906  67.1892384 139.5728879  69.5572853  67.0314072
 140.9066461  69.4104217  66.3304092 141.2741366  70.7349322  62.3195065
 142.0213185  71.2470719  62.0102187 141.5432955  70.4133374  63.1799458
 139.5468016  73.2307862  59.3022019 138.6379235  72.9466895  59.3994489
 139.5763100  73.6506941  58.4425326 144.7787283  76.8414452  63.0713186
 144.3249610  76.0005362  63.1278377 144.1481250  77.4775850  63.4087967
 143.7220203  67.7706438  64.3013854 142.9842960  67.2583824  64.6324097
 143.9746976  67.3306820  63.4897131 143.2220222  78.6790949  64.0063005
 143.5143197  79.2396006  63.2875370 143.7318843  78.9719510  64.7616164
 143.8231830  60.5482690  64.8955623 144.1290707  59.6880053  64.6081538
 144.5484435  61.1400310  64.6954617 138.0952910  70.8436483  65.4031814
 138.1501520  69.8910319  65.3274291 137.2844112  70.9995922  65.8873113
 139.2444104  74.7716606  56.6410098 138.8063534  74.0552465  56.1815735
 139.9854544  74.9992721  56.0795189 136.0345270  69.4613543  63.1622193
 135.2213135  69.7607713  63.5687385 136.5304264  69.0669232  63.8796675
 138.1853848  79.4571300  65.0956458 138.1430026  79.6832146  64.1664990
 139.1016546  79.2234674  65.2442259 141.6319481  69.9255367  71.9937087
 141.9868869  70.1526840  72.8531553 142.2791613  70.2573744  71.3714342
 147.3617218  73.0473803  62.6986416 147.2235117  73.2375399  61.7707605
 147.0053437  73.8093186  63.1554467 135.5259344  67.0331898  68.7783428
 136.1658724  66.8920657  68.0806391 134.6936875  66.7466412  68.4022030
 147.3886598  75.1150330  67.7097688 147.8223105  75.0225619  68.5580742
 148.1018179  75.0907831  67.0717704 136.3019648  76.3334329  64.8918421
 137.0960247  75.8384649  64.6900996 135.5911341  75.8052192  64.5286126
 141.1214493  78.7152424  69.2430788 141.1751515  79.2843361  70.0108504
 140.2529274  78.8854309  68.8784825 132.5287961  67.0032223  63.5556415
 132.7894778  67.9177557  63.4465575 133.3505133  66.5356666  63.7053028
 134.0012886  68.4169980  70.7255239 134.6735940  68.2087343  70.0767888
 133.1742673  68.2192066  70.2860472 148.2502148  75.1574031  70.2430573
 148.4438038  76.0619841  70.4889848 148.1502766  74.6981450  71.0769158
 139.9038458  65.0431921  72.7420900 139.2566373  65.7421871  72.6485377
 140.6739474  65.4768065  73.1097149 143.3117256  75.3080774  75.8171454
 143.1602763  75.0791325  74.9001537 143.3021936  76.2651375  75.8302799
 140.0802593  72.8812686  70.8017720 141.0094653  73.0323846  70.6286687
 139.6593623  72.9696707  69.9466367 138.8790924  76.9063351  68.5716258
 138.7402010  76.5382135  69.4442196 138.0905521  77.4210990  68.4000215
 139.4739076  82.0072447  59.9141794 139.6490832  81.5360490  60.7287417
 138.7871864  82.6338213  60.1423055 140.4296140  76.2844953  65.9605095
 140.0945972  76.2445723  66.8562745 139.9300085  75.6189669  65.4875506
 134.4040384  71.6912583  71.4857677 134.2660181  70.9592822  72.0869216
 135.3145307  71.6021484  71.2041864 143.3655331  73.6300988  56.2342155
 142.7484502  72.9047816  56.1375208 142.8971820  74.3910348  55.8909229
 137.0322684  71.4032543  70.9741356 137.7422303  70.7625735  70.9327975
 136.9891992  71.6545438  71.8967537 145.0209463  78.3399896  73.8947935
 144.9622009  77.6559116  73.2278518 145.4228981  79.0818886  73.4428561
 135.7451618  68.3897761  72.7936996 135.2088975  67.9388499  73.4458592
 135.1568327  68.5243669  72.0507460 135.1553877  67.8486412  55.3563459
 134.2783343  67.7275213  54.9925706 135.6311630  67.0572490  55.1042348
 145.0226870  76.3039480  72.1261915 144.1353649  75.9665402  72.2488314
 145.5925421  75.5722511  72.3630681 131.4790739  67.5253768  69.8789990
 131.3948928  66.9179438  69.1440400 130.6573446  68.0162787  69.8799487
 138.5528024  80.9640932  69.0923158 138.4798195  81.7695904  69.6042463
 138.1105417  81.1632898  68.2671180 138.3417803  80.2012702  62.6025980
 137.5585325  80.7434383  62.6964204 139.0410548  80.7186682  63.0020221
 141.6514453  66.0107332  65.2460185 142.1483153  65.2577294  64.9261255
 140.8801435  66.0471649  64.6803395 149.5044211  71.7147697  66.8878477
 149.4934087  72.5972413  66.5172410 148.6361590  71.3619248  66.6933014
 141.0126707  80.8627766  71.2481317 141.7254679  81.4975231  71.1757218
 140.5216736  80.9591632  70.4321319 142.7344234  74.7679019  62.8198609
 141.8000513  74.8880482  62.6503313 142.9120902  73.8651486  62.5558618
 138.2349422  68.1524715  64.9731870 137.8647210  67.5995755  65.6612775
 138.7308514  67.5482848  64.4206870 146.1216785  70.6096338  63.3548643
 146.5877237  71.4424330  63.2808945 146.5724286  70.1441320  64.0593901
 144.1893016  76.9540160  60.3534795 144.4652860  76.8396754  61.2628669
 143.3197515  76.5557645  60.3146968 144.0933448  62.9776925  67.3939544
 143.1796528  63.2081152  67.5621751 144.5226550  63.0615369  68.2453577
 143.8639907  71.1666817  69.8939438 143.2111357  71.4142725  69.2391891
 144.2420286  70.3530956  69.5601915 140.8247080  81.2026511  63.9967608
 141.0069475  80.3848166  64.4595361 141.6480066  81.4194203  63.5592498
 141.1589246  80.1294696  61.2582657 141.6877012  79.6187150  60.6452819
 141.4217465  79.8137226  62.1228190 139.9127480  71.9086628  76.3805475
 139.2368117  71.8080758  77.0507850 140.7355113  71.7525842  76.8441472
 126.2523993  70.7164165  67.7222434 126.2908093  70.1827756  68.5159552
 125.7464286  70.1899371  67.1033411 138.6550262  83.2153556  70.6163091
 139.2068570  83.3785177  71.3812176 138.9956456  83.8057994  69.9443116
 133.6314756  65.5628706  71.2184976 133.6956082  66.4243537  70.8062374
 133.5681876  64.9502707  70.4857334 133.1067028  67.6351838  74.8658010
 133.7339067  67.2528916  75.4795535 132.2494947  67.4166040  75.2313703
 143.5061137  78.0414813  76.4711746 144.0501041  78.6544772  75.9766700
 142.9247982  78.5994392  76.9878759 141.7918650  81.1635531  67.6026773
 141.6669789  80.3625271  67.0937719 142.4497741  81.6581725  67.1140743
 133.4126818  67.5184264  66.7803914 132.6913404  68.1320232  66.6411387
 134.2020074  68.0542029  66.7020560 143.8553558  78.9644551  69.2306323
 142.9083894  78.8449903  69.1584650 144.2036331  78.0767049  69.3132585
 136.2153131  64.8538690  73.0544565 136.7387533  65.1000987  73.8170875
 135.9965465  65.6858725  72.6347703 131.6120413  67.1242365  60.9215690
 131.2833119  66.2439744  60.7390796 131.9659783  67.0690034  61.8092079
 140.8599991  78.7597268  65.4310676 140.7124954  77.8313975  65.6118246
 141.6853485  78.7817358  64.9467751 134.7262236  67.4115335  61.2891168
 135.0658308  67.9401256  60.5669776 135.1734356  67.7495741  62.0649734
 144.4634113  79.5825826  66.5175548 145.3880661  79.3768688  66.3800000
 144.2949417  79.3342228  67.4264890 137.4205677  65.7952385  70.7394236
 137.0802497  64.9960199  71.1414916 136.7144683  66.0954096  70.1671069
 138.0722148  62.8801698  69.1921559 138.8948218  62.4062176  69.0700449
 138.3160212  63.6592182  69.6920245 136.7130383  65.9089956  59.4884461
 137.4338745  66.2871209  58.9848177 136.0895687  66.6278833  59.5919439
 140.8561506  66.6135105  60.4242793 141.0725120  67.4959743  60.1231621
 140.3755573  66.2221319  59.6948435 135.5960727  69.5720819  67.0013538
 135.4505308  69.8861122  67.8937819 135.1185931  70.1905719  66.4484436
 137.4557110  66.5623367  67.0494427 137.4418679  65.6664460  66.7126725
 138.1729538  66.5694030  67.6832713 139.3083241  66.9960707  69.0947555
 139.0501019  67.9177777  69.0931885 138.7768281  66.5991141  69.7848019
 144.2529429  80.1011494  61.8737640 144.4266307  79.5357916  61.1211492
 144.7458321  80.9012389  61.6917130 130.0706389  72.1126163  69.9401199
 129.5259857  72.8885971  70.0721473 130.9485739  72.4596967  69.7820320
 136.8594006  65.4437747  62.3181997 136.9809917  64.5154393  62.5172885
 136.5696048  65.4576433  61.4060313 139.7285196  63.1292657  65.4548717
 139.7506893  63.1931990  64.5000697 140.1453255  62.2897166  65.6489223
 150.1068821  72.8647917  63.4927940 150.5499967  72.1155242  63.0947063
 149.2295331  72.8558053  63.1101672 145.2404602  79.4178258  58.9734538
 145.9355507  80.0384951  59.1921853 145.5827752  78.5673609  59.2486916
 130.8572411  71.2396059  72.8331356 130.1154147  71.3878695  73.4195986
 130.5365155  71.5004325  71.9698105 147.1396025  76.8677964  60.5021869
 147.6647349  77.2065237  59.7771189 147.0518378  75.9324979  60.3185004
 136.3435085  66.9569744  76.5271930 136.3923241  67.8331867  76.1449699
 136.8857600  66.4147137  75.9543573 146.8289931  77.5010867  75.8073067
 146.0385475  77.4835006  75.2677566 146.5923286  78.0399161  76.5622104
 146.9487806  74.3503334  73.1205795 146.9985811  74.1853341  74.0621318
 146.8401730  73.4830593  72.7303676 144.2391569  70.3334262  74.4365102
 145.1401431  70.1940727  74.1449100 144.3139543  70.4988717  75.3763280
 138.5734374  67.7101117  73.2818288 137.7037683  68.0034683  73.0100877
 138.8093854  68.2941562  74.0025552 148.4506003  76.7700275  73.3647817
 148.1590811  77.1330256  74.2011278 147.8378134  76.0567284  73.1861149
 149.6501685  74.3353155  65.8850387 150.4848577  74.7742959  66.0487948
 149.7860814  73.8591808  65.0658633 146.6993191  71.8932890  71.8327875
 147.1747313  72.0860536  71.0246726 145.7758757  71.9492076  71.5871259
 141.2773408  63.9280734  70.7983709 141.7955352  64.6641760  70.4730197
 140.9228541  64.2344727  71.6330468 141.5286002  60.3481016  66.3184605
 141.8087756  59.6804205  66.9445032 142.3136609  60.5410112  65.8059269
 139.3319470  79.5240010  57.8809632 138.7593437  80.1430197  57.4280104
 139.9052264  80.0739372  58.4149554 145.3994860  68.7698650  70.0656181
 146.3512283  68.8696748  70.0868405 145.2298311  67.9776919  70.5754265
 143.4209240  65.8554233  70.2515582 142.8259172  66.1359246  69.5562070
 143.1358936  66.3448134  71.0232323 142.5516730  79.8077160  59.0118214
 143.4847403  79.7422722  59.2151090 142.4639943  80.6433427  58.5532747
 145.1804747  79.1243030  55.9722162 145.1018378  78.7902894  56.8657920
 146.0014414  79.6164798  55.9713634 147.8782938  71.9904770  69.1798480
 147.8459258  71.0520770  69.3658164 148.4883562  72.0688806  68.4464305
 139.7166269  70.8600823  55.2225684 140.6625374  70.7307031  55.2914102
 139.3380514  70.1215485  55.6995112 148.0277427  68.7815813  69.2256763
 147.5116475  67.9974270  69.0386692 148.9117375  68.4534530  69.3903283
 145.6888153  62.5256829  65.1852576 145.4912975  62.2171917  66.0695908
 146.2987859  63.2518468  65.3150506 153.6959488  73.0520777  68.3204517
 154.4262876  72.7906065  68.8812220 153.0866433  72.3149499  68.3606585
 151.7774785  71.1928639  68.9178968 151.0507949  71.0584604  68.3095460
 151.3622072  71.5005468  69.7235686 139.6004961  74.9118569  76.6826341
 140.5207971  75.0897168  76.8766388 139.5654544  73.9674614  76.5306041
 137.9009186  68.7850799  55.1580570 136.9940641  68.4883912  55.2343283
 138.1785167  68.4880617  54.2914856 128.8187126  70.1057162  65.6079616
 128.4989911  69.2522471  65.3153990 128.2720555  70.3205741  66.3637583
 132.5967034  72.8219603  69.3249122 132.8153044  73.7536711  69.3437156
 133.0092808  72.4627578  70.1103926 139.5171252  63.3287689  61.3124811
 138.7071980  62.9834774  61.6880057 140.2055669  63.0195233  61.9012422
 141.4461800  62.4065736  62.9349107 141.9992839  62.8261189  63.5939131
 141.6831886  61.4801484  62.9772063 137.4694899  68.3952809  78.7151871
 137.3691626  69.3447166  78.6463962 137.2516441  68.0671048  77.8427941
 136.6707971  65.6437734  55.2992549 137.5327135  65.9692633  55.5588366
 136.8558315  64.8569230  54.7865614 144.8240607  64.5166261  62.4427772
 144.2439276  65.1751065  62.0605824 144.5576540  63.6943605  62.0315189
 143.2744174  63.9171318  64.6449092 143.7743952  64.0287853  63.8363411
 143.9179781  63.6132371  65.2849900 137.3326169  71.8249948  77.5316933
 136.8493251  72.6250308  77.7380822 137.4187108  71.8357893  76.5784377
 133.8498889  74.2855599  72.1356164 134.6691778  74.7799678  72.1591002
 134.1235697  73.3687567  72.1073732 143.6065485  66.6766351  61.4984120
 142.7191340  66.9616002  61.2804315 144.0219474  66.5160115  60.6511397
 146.9580021  66.7012872  65.2138459 147.7340411  67.1909325  65.4863076
 146.2328155  67.1270926  65.6710329 149.3952580  67.4140491  66.2712400
 149.9897071  67.1736227  65.5605708 149.4679164  66.6947622  66.8985936
 142.7508699  76.4411026  55.5932140 143.4544549  76.6461028  56.2089796
 142.0271347  77.0087788  55.8581223 143.5806509  72.1920887  61.7134410
 143.5241710  72.6489439  60.8742043 144.1334851  71.4311572  61.5357253
 147.3911315  67.9810619  62.5384530 147.1348249  67.5807255  63.3692737
 146.7664183  68.6954413  62.4134669 151.7023653  70.7206692  65.0455821
 151.1423211  70.7899882  65.8187383 151.0967156  70.5447677  64.3255317
 144.6595396  76.8793555  57.6430600 145.4941000  76.4474753  57.4608075
 144.4979739  76.7075569  58.5707494 144.3141288  73.3825668  59.0086939
 144.2590092  73.2169940  58.0675383 143.6887343  74.0901701  59.1649129
 129.1033803  68.6193733  72.8348362 129.7492667  68.1092687  73.3235587
 128.8950954  69.3562414  73.4091787 141.6287195  75.6874580  78.3340502
 142.4978355  75.8615232  77.9727137 141.1493947  76.5068997  78.2116231
 137.6237414  62.8833777  58.5872258 137.6116084  63.8275617  58.7440529
 138.5160836  62.7003923  58.2931719 141.4389533  59.4776554  62.8418194
 140.6721929  58.9235041  62.9874877 141.8500238  59.5498423  63.7032346
 133.4431294  65.7661350  76.9323376 134.3062756  65.4098155  77.1426700
 132.8696705  65.4275245  77.6198780 153.2879671  87.3963206  67.7385777
 153.9258081  87.2769953  67.0349117 153.1700514  88.3444050  67.7973729
 150.0969377  87.3490634  67.6747301 149.7587889  87.2331699  66.7867836
 150.9659146  86.9481799  67.6548308 145.9556193  89.2026111  63.6644192
 145.3921058  89.1116048  62.8960480 145.8408588  88.3826015  64.1446685
 150.5789160  88.5025486  73.6333507 150.5677801  88.1078284  72.7614011
 150.7409800  87.7691559  74.2267278 143.5020625  90.6977302  66.5028413
 144.2941917  90.3568127  66.0874712 143.7417275  90.8072277  67.4230566
 151.5355752  92.8697078  58.9758657 150.8843732  93.4551159  58.5892671
 152.3300115  93.4003273  59.0353695 145.4611379  89.9586215  59.3745792
 146.2342255  89.4115203  59.2358667 145.8136778  90.8230465  59.5860253
 147.2996422  91.2862598  72.5812691 147.0086288  92.1908229  72.4659357
 147.9353406  91.3279125  73.2956761 148.2252628  88.6639446  69.1714051
 148.8216201  88.4395469  68.4571014 148.2827600  87.9224192  69.7739498
 147.7977657  86.1178882  57.0064242 148.0503177  85.5960403  56.2447705
 146.8602216  85.9545027  57.1090925 152.8420940  85.1214660  64.8138985
 153.6284029  84.7034083  64.4629402 153.1059644  86.0260752  64.9820633
 153.0131017  90.5587510  59.5127642 152.3776850  90.6322137  60.2248546
 152.6828423  91.1481109  58.8346721 158.2429367  85.0589893  65.7171963
 158.9754539  84.4889110  65.9509793 157.4868722  84.6711494  66.1578469
 147.5173946  88.0206988  59.2088617 147.4010204  87.3451891  59.8769701
 147.6276205  87.5339361  58.3920770 149.8605486  87.4817135  62.9135306
 149.4963694  86.9547756  63.6248227 150.7172602  87.0915604  62.7401791
 155.7654787  78.7711467  70.1766572 155.4338112  79.6406878  69.9527787
 155.1700400  78.4547751  70.8560602 149.5010973  82.5107034  57.9096654
 149.6685376  83.3787271  58.2767125 149.3108143  82.6734316  56.9857944
 152.2586307  90.9724013  69.5762485 151.9587030  91.8749052  69.4678292
 151.9137366  90.7056196  70.4283638 145.7098788  87.4237810  65.6099189
 144.7849285  87.2914024  65.8176881 145.9583201  88.2032029  66.1069131
 155.6583450  83.4906553  67.2559922 154.7500328  83.4221962  66.9618683
 155.6071046  83.9678498  68.0841747 149.4800194  84.9664692  58.8943321
 149.3599820  85.4121743  59.7328801 148.7852783  85.3150010  58.3356859
 143.0707599  87.0671084  66.4442978 143.1999980  87.3205563  67.3582390
 142.3905050  87.6598792  66.1247633 147.2407086  97.7368334  62.5433452
 147.1631116  98.6876159  62.6221933 146.6368730  97.3914206  63.2008379
 149.7324316  84.9096199  75.1994819 148.9557650  85.4690119  75.1897684
 150.3714879  85.3952982  75.7209689 157.5245097  81.6922992  69.0337796
 156.8819477  81.9855525  68.3877590 157.0200025  81.5775912  69.8390993
 155.1785260  85.4386165  59.7223655 156.0903117  85.6713552  59.5471353
 154.6694908  86.0223209  59.1598734 147.9870689  87.7181652  74.7612786
 148.7285373  88.2566696  74.4847610 147.2807674  88.3447941  74.9184338
 153.4626028  89.8610793  73.3584948 153.8709384  89.4193203  72.6139580
 152.7403290  89.2863420  73.6119141 149.8157098  84.7983400  70.7318505
 150.6618293  85.2222813  70.8753154 149.7555736  84.1417024  71.4257068
 153.7854843  90.4211983  67.1137237 153.1563705  90.5857698  66.4113304
 153.3980505  90.8353593  67.8848201 157.6644075  91.3566421  64.4681600
 156.9795113  91.7365323  63.9178634 157.7487924  91.9661748  65.2013548
 152.9656544  82.4587768  72.3899678 152.7217475  83.2129829  71.8533954
 153.2416474  82.8373116  73.2246925 154.9195006  89.0026380  71.0676944
 155.1311902  89.6458140  70.3911325 154.8724755  88.1688697  70.5998874
 152.5221235  81.6144201  67.9713516 151.6605714  81.9125455  68.2630254
 152.5483670  81.8314600  67.0394549 149.3382805  90.1586392  64.3787322
 149.8021150  90.4374095  63.5891944 149.0739603  89.2569836  64.1960412
 146.2306886  89.7057873  67.3167085 146.8008243  90.1345141  66.6784569
 146.8214998  89.4240458  68.0151271 148.2751691  86.2809544  61.1876887
 148.9775734  86.7330588  61.6550813 147.9432319  85.6393363  61.8156780
 146.7232052  84.8721301  75.5628096 146.0930713  85.5537581  75.7963493
 146.6168140  84.7604382  74.6181234 142.0177025  84.5393097  66.4894020
 141.2276079  84.7950625  66.0134131 142.5088272  85.3541434  66.5946061
 156.0340834  91.8798336  69.2399301 156.8558278  91.4778523  68.9581983
 156.0303237  91.7766570  70.1915417 143.9691770  84.9037676  63.4477497
 143.1722933  85.0156370  63.9660993 143.7417362  85.2424328  62.5818388
 149.7997438  91.4282379  71.3960012 149.8641870  91.8902786  72.2318184
 149.0908362  90.7979744  71.5242322 140.3014728  84.7923587  68.9209011
 140.5522766  85.6770597  69.1866587 140.8374276  84.6128189  68.1484103
 149.5145455  93.0950487  61.2638992 149.3791130  93.9402022  61.6923840
 150.0555268  93.2969764  60.5004926 146.0012795  79.1742066  77.9253347
 145.6079741  78.6208265  78.6000992 146.8178935  79.4852645  78.3159865
 142.9674853  90.6125925  61.8366917 143.4799373  91.4069175  61.9872482
 143.6197566  89.9152215  61.7700519 144.7769737  93.7291681  63.9189670
 144.9536366  94.6509646  63.7310654 145.5726571  93.4150100  64.3484050
 148.9180756  80.5899946  75.5173604 149.6590469  81.1907099  75.4378066
 149.1498679  79.8477583  74.9591646 144.0622094  85.7756313  73.7951834
 143.9475609  84.8741570  74.0958932 143.2066612  86.0220010  73.4436650
 151.1413932  93.7174053  75.3939334 150.6977786  92.9310432  75.0760239
 151.8031145  93.9053204  74.7283225 145.9001053  95.2469855  69.9200013
 146.4508478  95.1186918  69.1477007 145.0612529  95.5464744  69.5694905
 153.2395170  93.9976853  73.4220735 153.2213645  94.8185734  72.9301005
 154.1615090  93.8730928  73.6470877 149.6968224  91.5120983  74.2644244
 150.2296561  90.7509271  74.0343552 149.1682305  91.2194634  75.0068398
 152.8637919  76.6181048  69.7937886 152.5202188  77.5082690  69.7176996
 153.2316882  76.4282706  68.9307471 140.9323770  88.9414579  62.6126488
 141.7698992  89.3511587  62.3960195 141.1102037  88.0014021  62.5826682
 152.8288202  86.6089660  58.3010321 152.3134825  87.3794264  58.5398708
 152.5565510  85.9354796  58.9243382 150.4135313  81.4539360  63.3595559
 149.5576909  81.0646211  63.1801198 150.8262264  81.5331321  62.4995345
 151.9434459  78.9885704  67.7587119 151.4399255  78.9515839  66.9454924
 152.2365066  79.8978446  67.8183775 148.1877345  79.0724433  66.7653301
 149.0530342  78.8767242  66.4059190 148.2554854  78.8434785  67.6922657
 157.8022476  89.3622014  60.2363494 157.0251919  89.0233174  59.7918656
 158.4813957  89.3674637  59.5618459 152.6174505  84.4816752  60.1270102
 152.3124640  84.7962901  60.9780245 153.5704947  84.5598172  60.1697435
 151.0620937  90.6406975  61.7763056 150.5342298  89.9059735  61.4636293
 150.5608439  91.4181651  61.5303024 156.0413783  88.8355995  66.8930102
 155.3837457  89.5255257  66.9810231 156.8454182  89.2252427  67.2364088
 145.7939664  81.3026641  64.1369667 146.3683416  81.0801823  63.4042860
 146.3810647  81.3715336  64.8898269 154.8519241  87.1900368  64.9434044
 155.3651123  87.8230360  65.4455754 155.5020465  86.5901564  64.5777404
 146.1209251  83.3331102  58.1565553 145.2846564  83.6705789  58.4774827
 145.9814021  83.1980082  57.2192690 148.0962332  78.1767890  62.8644737
 147.4426744  77.8616907  62.2401352 148.0542806  77.5543631  63.5904560
 149.2073537  88.4587185  54.7798029 148.3000599  88.2276439  54.9789178
 149.7044569  87.6624804  54.9672010 152.1141616  97.1684692  57.6994715
 151.4403314  97.4716389  58.3079673 152.5007438  97.9713773  57.3500172
 151.3300072  84.6649824  67.1892384 150.4122634  84.8864771  67.0314072
 151.7460216  84.7396134  66.3304092 152.1135120  86.0641239  62.3195065
 152.8606939  86.5762637  62.0102187 152.3826710  85.7425292  63.1799458
 150.3861770  88.5599780  59.3022019 149.4772990  88.2758813  59.3994489
 150.4156854  88.9798859  58.4425326 155.6181038  92.1706370  63.0713186
 155.1643365  91.3297279  63.1278377 154.9875004  92.8067768  63.4087967
 154.5613957  83.0998356  64.3013854 153.8236714  82.5875742  64.6324097
 154.8140731  82.6598737  63.4897131 154.0613977  94.0082866  64.0063005
 154.3536951  94.5687923  63.2875370 154.5712597  94.3011427  64.7616164
 154.6625585  75.8774608  64.8955623 154.9684461  75.0171971  64.6081538
 155.3878189  76.4692228  64.6954617 148.9346664  86.1728401  65.4031814
 148.9895274  85.2202237  65.3274291 148.1237866  86.3287840  65.8873113
 150.0837858  90.1008524  56.6410098 149.6457288  89.3844383  56.1815735
 150.8248299  90.3284639  56.0795189 146.8739024  84.7905460  63.1622193
 146.0606890  85.0899631  63.5687385 147.3698018  84.3961149  63.8796675
 149.0247602  94.7863217  65.0956458 148.9823781  95.0124064  64.1664990
 149.9410301  94.5526592  65.2442259 152.4713236  85.2547285  71.9937087
 152.8262624  85.4818758  72.8531553 153.1185367  85.5865662  71.3714342
 158.2010973  88.3765721  62.6986416 158.0628871  88.5667317  61.7707605
 157.8447192  89.1385104  63.1554467 146.3653099  82.3623816  68.7783428
 147.0052478  82.2212575  68.0806391 145.5330630  82.0758329  68.4022030
 158.2280352  90.4442248  67.7097688 158.6616859  90.3517537  68.5580742
 158.9411933  90.4199748  67.0717704 147.1413403  91.6626246  64.8918421
 147.9354001  91.1676567  64.6900996 146.4305095  91.1344110  64.5286126
 151.9608247  94.0444342  69.2430788 152.0145270  94.6135278  70.0108504
 151.0923029  94.2146227  68.8784825 143.4496166  85.8069328  60.9678173
 142.5193754  85.7453784  61.1848135 143.5453638  85.2845281  60.1714814
 143.3681715  82.3324141  63.5556415 143.6288533  83.2469474  63.4465575
 144.1898888  81.8648584  63.7053028 144.8406641  83.7461898  70.7255239
 145.5129694  83.5379260  70.0767888 144.0136427  83.5483984  70.2860472
 150.7432213  80.3723839  72.7420900 150.0960128  81.0713789  72.6485377
 151.5133228  80.8059983  73.1097149 154.1511011  90.6372691  75.8171454
 153.9996517  90.4083243  74.9001537 154.1415690  91.5943293  75.8302799
 150.9196347  88.2104604  70.8017720 151.8488407  88.3615764  70.6286687
 150.4987377  88.2988625  69.9466367 149.7184679  92.2355268  68.5716258
 149.5795765  91.8674053  69.4442196 148.9299275  92.7502908  68.4000215
 150.3132831  97.3364365  59.9141794 150.4884587  96.8652408  60.7287417
 149.6265619  97.9630131  60.1423055 151.2689894  91.6136871  65.9605095
 150.9339727  91.5737641  66.8562745 150.7693840  90.9481587  65.4875506
 145.2434138  87.0204501  71.4857677 145.1053936  86.2884740  72.0869216
 146.1539061  86.9313401  71.2041864 154.2049086  88.9592905  56.2342155
 153.5878256  88.2339734  56.1375208 153.7365574  89.7202266  55.8909229
 147.8716439  86.7324460  70.9741356 148.5816057  86.0917653  70.9327975
 147.8285747  86.9837355  71.8967537 155.8603217  93.6691814  73.8947935
 155.8015763  92.9851034  73.2278518 156.2622736  94.4110804  73.4428561
 146.5845373  83.7189678  72.7936996 146.0482730  83.2680417  73.4458592
 145.9962081  83.8535587  72.0507460 144.8793916 100.4853728  66.6881654
 145.1190514 101.1172252  67.3660673 144.0363113 100.1341768  66.9747014
 145.9947632  83.1778330  55.3563459 145.1177098  83.0567131  54.9925706
 146.4705385  82.3864408  55.1042348 155.8620625  91.6331398  72.1261915
 154.9747403  91.2957320  72.2488314 156.4319176  90.9014429  72.3630681
 142.3184494  82.8545686  69.8789990 142.2342683  82.2471356  69.1440400
 141.4967200  83.3454704  69.8799487 149.3921778  96.2932850  69.0923158
 149.3191949  97.0987822  69.6042463 148.9499171  96.4924816  68.2671180
 149.1811558  95.5304620  62.6025980 148.3979080  96.0726300  62.6964204
 149.8804303  96.0478600  63.0020221 152.4908208  81.3399250  65.2460185
 152.9876907  80.5869212  64.9261255 151.7195189  81.3763566  64.6803395
 151.8520462  96.1919684  71.2481317 152.5648434  96.8267149  71.1757218
 151.3610490  96.2883550  70.4321319 153.5737988  90.0970937  62.8198609
 152.6394267  90.2172399  62.6503313 153.7514657  89.1943404  62.5558618
 149.0743176  83.4816633  64.9731870 148.7040964  82.9287673  65.6612775
 149.5702269  82.8774766  64.4206870 156.9610540  85.9388256  63.3548643
 157.4270992  86.7716248  63.2808945 157.4118040  85.4733238  64.0593901
 146.9032375  93.9414128  72.0686888 147.6041835  94.5750611  72.2216282
 146.4327490  94.2828859  71.3082527 155.0286771  92.2832077  60.3534795
 155.3046615  92.1688672  61.2628669 154.1591270  91.8849562  60.3146968
 154.9327203  78.3068843  67.3939544 154.0190282  78.5373070  67.5621751
 155.3620304  78.3907287  68.2453577 154.7033661  86.4958735  69.8939438
 154.0505111  86.7434642  69.2391891 155.0814041  85.6822873  69.5601915
 151.6640835  96.5318428  63.9967608 151.8463229  95.7140084  64.4595361
 152.4873821  96.7486120  63.5592498 151.9983000  95.4586613  61.2582657
 152.5270767  94.9479068  60.6452819 152.2611220  95.1429144  62.1228190
 150.7521234  87.2378546  76.3805475 150.0761871  87.1372675  77.0507850
 151.5748868  87.0817760  76.8441472 145.3538748  96.5101730  64.0180433
 144.6849124  96.9947858  63.5344473 145.2151618  96.7570950  64.9323811
 149.4944017  98.5445474  70.6163091 150.0462325  98.7077095  71.3812176
 149.8350210  99.1349911  69.9443116 144.4708510  80.8920623  71.2184976
 144.5349837  81.7535454  70.8062374 144.4075630  80.2794625  70.4857334
 143.9460783  82.9643756  74.8658010 144.5732821  82.5820833  75.4795535
 143.0888702  82.7457958  75.2313703 154.3454891  93.3706731  76.4711746
 154.8894795  93.9836689  75.9766700 153.7641736  93.9286309  76.9878759
 140.7226325  84.7720185  60.7976365 141.0179767  83.8630863  60.7443419
 139.8214361  84.7507924  60.4757367 152.6312404  96.4927449  67.6026773
 152.5063544  95.6917189  67.0937719 153.2891495  96.9873642  67.1140743
 144.2520572  82.8476182  66.7803914 143.5307158  83.4612149  66.6411387
 145.0413828  83.3833946  66.7020560 154.6947313  94.2936469  69.2306323
 153.7477648  94.1741820  69.1584650 155.0430086  93.4058967  69.3132585
 147.0546886  80.1830608  73.0544565 147.5781288  80.4292905  73.8170875
 146.8359219  81.0150643  72.6347703 142.4514167  82.4534283  60.9215690
 142.1226873  81.5731662  60.7390796 142.8053538  82.3981951  61.8092079
 151.6993746  94.0889185  65.4310676 151.5518708  93.1605893  65.6118246
 152.5247239  94.1109276  64.9467751 145.5655990  82.7407252  61.2891168
 145.9052063  83.2693174  60.5669776 146.0128111  83.0787659  62.0649734
 155.3027868  94.9117744  66.5175548 156.2274415  94.7060605  66.3800000
 155.1343171  94.6634145  67.4264890 148.2599431  81.1244303  70.7394236
 147.9196251  80.3252116  71.1414916 147.5538437  81.4246014  70.1671069
 148.9115903  78.2093616  69.1921559 149.7341972  77.7354094  69.0700449
 149.1553966  78.9884099  69.6920245 147.5524137  81.2381874  59.4884461
 148.2732500  81.6163127  58.9848177 146.9289441  81.9570751  59.5919439
 151.6955260  81.9427023  60.4242793 151.9118875  82.8251661  60.1231621
 151.2149327  81.5513236  59.6948435 146.4354482  84.9012736  67.0013538
 146.2899062  85.2153039  67.8937819 145.9579685  85.5197637  66.4484436
 148.2950864  81.8915284  67.0494427 148.2812433  80.9956378  66.7126725
 149.0123293  81.8985948  67.6832713 150.1476995  82.3252624  69.0947555
 149.8894773  83.2469695  69.0931885 149.6162036  81.9283059  69.7848019
 155.0923184  95.4303412  61.8737640 155.2660061  94.8649834  61.1211492
 155.5852075  96.2304306  61.6917130 140.9100144  87.4418081  69.9401199
 140.3653612  88.2177889  70.0721473 141.7879494  87.7888885  69.7820320
 147.6987760  80.7729664  62.3181997 147.8203672  79.8446311  62.5172885
 147.4089803  80.7868350  61.4060313 150.5678951  78.4584575  65.4548717
 150.5900648  78.5223908  64.5000697 150.9847010  77.6189084  65.6489223
 156.0798356  94.7470176  58.9734538 156.7749261  95.3676869  59.1921853
 156.4221507  93.8965527  59.2486916 141.6966166  86.5687977  72.8331356
 140.9547902  86.7170612  73.4195986 141.3758910  86.8296242  71.9698105
 157.9789780  92.1969881  60.5021869 158.5041104  92.5357154  59.7771189
 157.8912132  91.2616897  60.3185004 149.6409828  96.1103955  72.6311746
 149.9496955  95.8653102  73.5034445 150.4385310  96.3150594  72.1430616
 149.6630440  98.2641865  64.8617122 149.2235431  97.7718243  65.5549979
 150.4138557  97.7214832  64.6209197 142.1422779  94.4553406  64.8641750
 142.9680799  94.1557177  64.4840394 141.7916831  93.6861028  65.3131539
 147.1104312  93.8079874  66.9339424 146.4884322  93.1450579  66.6341652
 147.7809179  93.8341006  66.2513072 140.3431384  92.3739732  65.8230684
 139.5063293  91.9461906  65.6414685 140.3155030  92.5672175  66.7601475
 147.1828840  82.2861662  76.5271930 147.2316995  83.1623785  76.1449699
 147.7251354  81.7439055  75.9543573 157.6683686  92.8302785  75.8073067
 156.8779229  92.8126924  75.2677566 157.4317040  93.3691079  76.5622104
 157.7881561  89.6795251  73.1205795 157.8379566  89.5145259  74.0621318
 157.6795484  88.8122510  72.7303676 146.6717819  92.3583797  60.4097884
 146.8205940  93.0419262  59.7564557 147.4784263  92.3388887  60.9247340
 155.0785323  85.6626179  74.4365102 155.9795186  85.5232644  74.1449100
 155.1533298  85.8280634  75.3763280 149.4128128  83.0393034  73.2818288
 148.5431438  83.3326600  73.0100877 149.6487609  83.6233479  74.0025552
 157.5386946  87.2224808  71.8327875 158.0141067  87.4152454  71.0246726
 156.6152511  87.2783993  71.5871259 144.4270452  88.3848975  61.4158953
 144.1816494  87.4811305  61.6139163 144.5966367  88.3866125  60.4738431
 152.1167162  79.2572651  70.7983709 152.6349106  79.9933678  70.4730197
 151.7622295  79.5636644  71.6330468 143.6966100  84.1177332  58.9145115
 143.0035345  84.1921687  58.2585151 143.4517852  83.3537676  59.4366632
 152.3679756  75.6772934  66.3184605 152.6481510  75.0096123  66.9445032
 153.1530363  75.8702029  65.8059269 150.1713225  94.8531928  57.8809632
 149.5987192  95.4722115  57.4280104 150.7446019  95.4031289  58.4149554
 156.2388615  84.0990568  70.0656181 157.1906038  84.1988665  70.0868405
 156.0692065  83.3068836  70.5754265 154.2602994  81.1846151  70.2515582
 153.6652926  81.4651164  69.5562070 153.9752691  81.6740052  71.0232323
 153.3910485  95.1369078  59.0118214 154.3241158  95.0714639  59.2151090
 153.3033697  95.9725345  58.5532747 156.0198501  94.4534948  55.9722162
 155.9412133  94.1194812  56.8657920 156.8408168  94.9456716  55.9713634
 150.5560023  86.1892740  55.2225684 151.5019128  86.0598948  55.2914102
 150.1774268  85.4507402  55.6995112 156.5281908  77.8548746  65.1852576
 156.3306729  77.5463835  66.0695908 157.1381614  78.5810385  65.3150506
 150.4398716  90.2410486  76.6826341 151.3601725  90.4189086  76.8766388
 150.4048299  89.2966532  76.5306041 148.7402941  84.1142717  55.1580570
 147.8334396  83.8175829  55.2343283 149.0178922  83.8172535  54.2914856
 143.4360788  88.1511521  69.3249122 143.6546798  89.0828629  69.3437156
 143.8486562  87.7919496  70.1103926 150.3565006  78.6579606  61.3124811
 149.5465735  78.3126691  61.6880057 151.0449423  78.3487150  61.9012422
 152.2855555  77.7357653  62.9349107 152.8386593  78.1553107  63.5939131
 152.5225641  76.8093401  62.9772063 148.3088654  83.7244727  78.7151871
 148.2085381  84.6739084  78.6463962 148.0910196  83.3962966  77.8427941
 147.5101725  80.9729652  55.2992549 148.3720889  81.2984550  55.5588366
 147.6952069  80.1861148  54.7865614 139.5269141  89.0551992  67.5772737
 138.8332612  88.6405944  67.0642692 140.2742132  89.0972528  66.9806156
 155.6634362  79.8458178  62.4427772 155.0833031  80.5042982  62.0605824
 155.3970294  79.0235523  62.0315189 154.1137928  79.2463236  64.6449092
 154.6137706  79.3579771  63.8363411 154.7573536  78.9424289  65.2849900
 148.1719924  87.1541866  77.5316933 147.6887006  87.9542226  77.7380822
 148.2580863  87.1649811  76.5784377 141.4405883  88.9870245  65.4538752
 141.4176572  89.0857933  64.5020635 141.7506520  89.8335396  65.7755918
 144.0993261  91.0446400  69.5685367 145.0536515  91.0130343  69.5015298
 143.9005785  90.5837024  70.3835593 144.6892643  89.6147517  72.1356164
 145.5085532  90.1091595  72.1591002 144.9629451  88.6979485  72.1073732
 154.4459240  82.0058269  61.4984120 153.5585095  82.2907919  61.2804315
 154.8613229  81.8452032  60.6511397 157.7973776  82.0304790  65.2138459
 158.5734166  82.5201242  65.4863076 157.0721910  82.4562844  65.6710329
 142.4543490  96.5866020  66.5855565 142.3197958  95.8266421  66.0193563
 142.0375552  97.3106920  66.1184354 153.5902453  91.7702943  55.5932140
 154.2938303  91.9752946  56.2089796 152.8665102  92.3379705  55.8581223
 154.4200263  87.5212805  61.7134410 154.3635465  87.9781356  60.8742043
 154.9728606  86.7603489  61.5357253 158.2305069  83.3102537  62.5384530
 157.9742004  82.9099172  63.3692737 157.6057937  84.0246331  62.4134669
 145.6112616  97.4835337  66.7974007 145.4945000  98.4280769  66.6952698
 144.7905062  97.1808899  67.1859807 155.4989151  92.2085473  57.6430600
 156.3334754  91.7766671  57.4608075 155.3373493  92.0367486  58.5707494
 155.1535043  88.7117586  59.0086939 155.0983846  88.5461857  58.0675383
 154.5281098  89.4193619  59.1649129 139.9427558  83.9485650  72.8348362
 140.5886421  83.4384604  73.3235587 139.7344709  84.6854332  73.4091787
 152.4680950  91.0166498  78.3340502 153.3372110  91.1907150  77.9727137
 151.9887701  91.8360915  78.2116231 148.4631168  78.2125695  58.5872258
 148.4509838  79.1567535  58.7440529 149.3554590  78.0295840  58.2931719
 146.6367130  98.1363599  70.0129936 147.5394377  98.1687209  70.3296431
 146.4104500  97.2064050  70.0276272 148.3920732  96.8894585  66.6740014
 147.4416363  96.8896447  66.5604387 148.6953218  96.1427320  66.1576049
 152.2783288  74.8068472  62.8418194 151.5115683  74.2526958  62.9874877
 152.6893993  74.8790340  63.7032346 144.2825049  81.0953267  76.9323376
 145.1456510  80.7390072  77.1426700 143.7090459  80.7567162  77.6198780
 156.7949948 104.5318028  63.6644192 156.2314813 104.4407965  62.8960480
 156.6802343 103.7117933  64.1446685 154.3414380 106.0269220  66.5028413
 155.1335671 105.6860045  66.0874712 154.5811030 106.1364195  67.4230566
 156.3005133 105.2878133  59.3745792 157.0736009 104.7407120  59.2358667
 156.6530532 106.1522382  59.5860253 158.1390176 106.6154515  72.5812691
 157.8480042 107.5200146  72.4659357 158.7747160 106.6571043  73.2956761
 158.6371411 101.4470799  57.0064242 158.8896932 100.9252321  56.2447705
 157.6995970 101.2836945  57.1090925 158.3567700 103.3498905  59.2088617
 158.2403958 102.6743809  59.8769701 158.4669960 102.8631279  58.3920770
 156.5492543 102.7529728  65.6099189 155.6243039 102.6205942  65.8176881
 156.7976956 103.5323947  66.1069131 153.9101354 102.3963001  66.4442978
 154.0393735 102.6497480  67.3582390 153.2298805 102.9890709  66.1247633
 158.0800841 113.0660251  62.5433452 158.0024871 114.0168076  62.6221933
 157.4762485 112.7206124  63.2008379 157.0700640 105.0349791  67.3167085
 157.6401997 105.4637059  66.6784569 157.6608752 104.7532376  68.0151271
 157.5625807 100.2013218  75.5628096 156.9324467 100.8829499  75.7963493
 157.4561895 100.0896300  74.6181234 152.8570779  99.8685014  66.4894020
 152.0669833 100.1242543  66.0134131 153.3482027 100.6833352  66.5946061
 154.8085525 100.2329594  63.4477497 154.0116688 100.3448288  63.9660993
 154.5811117 100.5716246  62.5818388 151.1408482 100.1215505  68.9209011
 151.3916521 101.0062515  69.1866587 151.6768031  99.9420106  68.1484103
 156.8406549  94.5033984  77.9253347 156.4473495  93.9500183  78.6000992
 157.6572690  94.8144563  78.3159865 153.8068607 105.9417842  61.8366917
 154.3193128 106.7361093  61.9872482 154.4591320 105.2444133  61.7700519
 155.6163492 109.0583599  63.9189670 155.7930120 109.9801563  63.7310654
 156.4120325 108.7442018  64.3484050 154.9015848 101.1048230  73.7951834
 154.7869364 100.2033488  74.0958932 154.0460366 101.3511927  73.4436650
 156.7394807 110.5761772  69.9200013 157.2902233 110.4478836  69.1477007
 155.9006283 110.8756661  69.5694905 151.7717524 104.2706497  62.6126488
 152.6092746 104.6803505  62.3960195 151.9495792 103.3305939  62.5826682
 156.6333419  96.6318559  64.1369667 157.2077171  96.4093740  63.4042860
 157.2204401  96.7007253  64.8898269 156.9603006  98.6623020  58.1565553
 156.1240318  98.9997707  58.4774827 156.8207776  98.5272000  57.2192690
 158.9356086  93.5059808  62.8644737 158.2820499  93.1908825  62.2401352
 158.8936561  92.8835548  63.5904560 151.7943695 101.6097212  63.2837221
 151.5968095 101.0166573  62.5588288 151.2390359 101.3049422  64.0013160
 157.7132779 100.1197378  63.1622193 156.9000644 100.4191549  63.5687385
 158.2091773  99.7253067  63.8796675 157.2046853  97.6915734  68.7783428
 157.8446233  97.5504493  68.0806391 156.3724384  97.4050247  68.4022030
 157.9807157 106.9918164  64.8918421 158.7747756 106.4968484  64.6900996
 157.2698850 106.4636027  64.5286126 154.2889921 101.1361246  60.9678173
 153.3587509 101.0745701  61.1848135 154.3847393 100.6137199  60.1714814
 154.2075470  97.6616059  63.5556415 154.4682287  98.5761392  63.4465575
 155.0292642  97.1940501  63.7053028 155.6800395  99.0753816  70.7255239
 156.3523449  98.8671178  70.0767888 154.8530182  98.8775902  70.2860472
 156.0827892 102.3496419  71.4857677 155.9447690 101.6176658  72.0869216
 156.9932816 102.2605319  71.2041864 157.4239127  99.0481596  72.7936996
 156.8876484  98.5972334  73.4458592 156.8355836  99.1827505  72.0507460
 155.7187671 115.8145645  66.6881654 155.9584269 116.4464169  67.3660673
 154.8756867 115.4633685  66.9747014 156.8341386  98.5070247  55.3563459
 155.9570852  98.3859048  54.9925706 157.3099139  97.7156326  55.1042348
 148.3543526 103.2947407  65.4504967 149.0414566 102.9809137  64.8625982
 148.1991655 104.1988772  65.1772218 153.1578248  98.1837604  69.8789990
 153.0736437  97.5763273  69.1440400 152.3360955  98.6746622  69.8799487
 157.7426130 109.2706045  72.0686888 158.4435589 109.9042528  72.2216282
 157.2721245 109.6120777  71.3082527 153.3393848 108.8042400  69.0017990
 153.9247284 108.0586088  69.1345895 153.1418686 109.1146357  69.8854654
 156.1932503 111.8393648  64.0180433 155.5242878 112.3239775  63.5344473
 156.0545373 112.0862868  64.9323811 147.9311502 101.3748000  67.7222434
 147.9695602 100.8411591  68.5159552 147.4251795 100.8483206  67.1033411
 155.3102265  96.2212541  71.2184976 155.3743591  97.0827372  70.8062374
 155.2469385  95.6086543  70.4857334 154.7854537  98.2935674  74.8658010
 155.4126576  97.9112751  75.4795535 153.9282456  98.0749875  75.2313703
 151.5620080 100.1012103  60.7976365 151.8573521  99.1922781  60.7443419
 150.6608116 100.0799842  60.4757367 155.0914327  98.1768099  66.7803914
 154.3700913  98.7904067  66.6411387 155.8807583  98.7125864  66.7020560
 157.8940640  95.5122526  73.0544565 158.4175042  95.7584822  73.8170875
 157.6752974  96.3442561  72.6347703 153.2907922  97.7826200  60.9215690
 152.9620628  96.9023579  60.7390796 153.6447292  97.7273869  61.8092079
 156.4049745  98.0699170  61.2891168 156.7445817  98.5985091  60.5669776
 156.8521865  98.4079576  62.0649734 159.0993185  96.4536221  70.7394236
 158.7590006  95.6544034  71.1414916 158.3932192  96.7537932  70.1671069
 158.3917892  96.5673792  59.4884461 159.1126254  96.9455044  58.9848177
 157.7683196  97.2862669  59.5919439 157.2748236 100.2304654  67.0013538
 157.1292817 100.5444957  67.8937819 156.7973440 100.8489554  66.4484436
 151.7493898 102.7709998  69.9401199 151.2047366 103.5469806  70.0721473
 152.6273248 103.1180803  69.7820320 158.5381515  96.1021582  62.3181997
 158.6597426  95.1738228  62.5172885 158.2483557  96.1160268  61.4060313
 152.5359920 101.8979895  72.8331356 151.7941656 102.0462530  73.4195986
 152.2152664 102.1588160  71.9698105 152.9816534 109.7845323  64.8641750
 153.8074554 109.4849095  64.4840394 152.6310586 109.0152946  65.3131539
 157.9498067 109.1371792  66.9339424 157.3278076 108.4742497  66.6341652
 158.6202934 109.1632923  66.2513072 151.1825139 107.7031650  65.8230684
 150.3457047 107.2753824  65.6414685 151.1548784 107.8964093  66.7601475
 158.0222594  97.6153580  76.5271930 158.0710750  98.4915702  76.1449699
 158.5645109  97.0730973  75.9543573 157.5111574 107.6875715  60.4097884
 157.6599694 108.3711179  59.7564557 158.3178017 107.6680805  60.9247340
 155.2664207 103.7140892  61.4158953 155.0210249 102.8103222  61.6139163
 155.4360121 103.7158043  60.4738431 154.5359854  99.4469250  58.9145115
 153.8429099  99.5213605  58.2585151 154.2911606  98.6829594  59.4366632
 150.4974635 100.7640998  65.6079616 150.1777420  99.9106306  65.3153990
 149.9508064 100.9789576  66.3637583 154.2754543 103.4803439  69.3249122
 154.4940553 104.4120547  69.3437156 154.6880317 103.1211413  70.1103926
 159.1482408  99.0536645  78.7151871 159.0479135 100.0031002  78.6463962
 158.9303950  98.7254883  77.8427941 158.3495480  96.3021570  55.2992549
 159.2114644  96.6276468  55.5588366 158.5345824  95.5153066  54.7865614
 150.3662895 104.3843909  67.5772737 149.6726367 103.9697862  67.0642692
 151.1135886 104.4264446  66.9806156 159.0113678 102.4833783  77.5316933
 158.5280760 103.2834144  77.7380822 159.0974617 102.4941728  76.5784377
 152.2799638 104.3162163  65.4538752 152.2570326 104.4149850  64.5020635
 152.5900274 105.1627314  65.7755918 154.9387016 106.3738318  69.5685367
 155.8930269 106.3422260  69.5015298 154.7399539 105.9128942  70.3835593
 155.5286398 104.9439434  72.1356164 156.3479287 105.4383513  72.1591002
 155.8023206 104.0271402  72.1073732 153.2937245 111.9157938  66.5855565
 153.1591713 111.1558339  66.0193563 152.8769307 112.6398837  66.1184354
 156.4506370 112.8127255  66.7974007 156.3338755 113.7572687  66.6952698
 155.6298817 112.5100816  67.1859807 150.7821312  99.2777568  72.8348362
 151.4280176  98.7676522  73.3235587 150.5738463 100.0146250  73.4091787
 157.4760885 113.4655517  70.0129936 158.3788131 113.4979127  70.3296431
 157.2498255 112.5355967  70.0276272 155.1218803  96.4245185  76.9323376
 155.9850265  96.0681990  77.1426700 154.5484214  96.0859080  77.6198780
 158.7705257 116.7039918  67.7222434 158.8089356 116.1703509  68.5159552
 158.2645550 116.1775124  67.1033411  90.6825145   0.8456262  53.4126961
  90.9221743   1.4774786  54.0905980  89.8394341   0.4944302  53.6992320
 102.5981176   4.8920563  50.3889499 102.0346042   4.8010499  49.6205787
 102.4833571   4.0720467  50.8691992 100.1445608   6.3871754  53.2273719
 100.9366900   6.0462579  52.8120019 100.3842258   6.4966729  54.1475873
 108.1780735   8.5591530  45.7003964 107.5268715   9.1445611  45.3137978
 108.9725098   9.0897725  45.7599001 102.1036362   5.6480667  46.0991098
 102.8767238   5.1009654  45.9603974 102.4561761   6.5124917  46.3105560
 103.9421405   6.9757050  59.3057998 103.6511271   7.8802680  59.1904664
 104.5778389   7.0173577  60.0202067 109.6556000   6.2481962  46.2372948
 109.0201833   6.3216589  46.9493853 109.3253407   6.8375561  45.5592027
 108.9011290   6.6618465  56.3007791 108.6012013   7.5643504  56.1923599
 108.5562349   6.3950648  57.1528944  99.7132582   2.7565536  53.1688285
  99.8424964   3.0100014  54.0827696  99.0330034   3.3493244  52.8492940
 103.8832070  13.4262786  49.2678759 103.8056099  14.3770611  49.3467240
 103.2793713  13.0808658  49.9253685 105.9807788   5.8480843  51.1032628
 106.4446133   6.1268546  50.3137251 105.7164586   4.9464288  50.9205719
 102.8731869   5.3952325  54.0412392 103.4433226   5.8239593  53.4029876
 103.4639981   5.1134910  54.7396577 106.4422421   7.1176831  58.1205318
 106.5066853   7.5797238  58.9563490 105.7333345   6.4874196  58.2487628
 106.1570439   8.7844938  47.9884299 106.0216113   9.6296474  48.4169147
 106.6980251   8.9864216  47.2250232  99.6099836   6.3020377  48.5612224
 100.1224357   7.0963627  48.7117788 100.2622549   5.6046667  48.4945825
 101.4194721   9.4186133  50.6434977 101.5961349  10.3404097  50.4555961
 102.2151554   9.1044552  51.0729357 107.7838915   9.4068505  62.1184641
 107.3402769   8.6204884  61.8005545 108.4456129   9.5947655  61.4528532
 102.5426036  10.9364307  56.6445319 103.0933461  10.8081370  55.8722313
 101.7037512  11.2359196  56.2940212 109.8820153   9.6871305  60.1466042
 109.8638628  10.5080186  59.6546311 110.8040073   9.5625380  60.3716183
 106.3393207   7.2015434  60.9889550 106.8721544   6.4403723  60.7588858
 105.8107288   6.9089086  61.7313705  97.5748753   4.6309031  49.3371794
  98.4123975   5.0406039  49.1205502  97.7527021   3.6908473  49.3071988
 107.7045920   6.3301427  48.5008362 107.1767282   5.5954186  48.1881600
 107.2033423   7.1076103  48.2548331 108.7566599  12.8579144  44.4240022
 108.0828298  13.1610841  45.0324979 109.1432421  13.6608225  44.0745479
 112.2606021   7.8600821  49.7958493 111.8068348   7.0191731  49.8523684
 111.6299988   8.4962220  50.1333273 110.7038960   9.6977318  50.7308311
 110.9961935  10.2582375  50.0120677 111.2137581   9.9905879  51.4861470
 106.7262841   5.7902976  43.3655404 106.2882271   5.0738835  42.9061041
 107.4673282   6.0179090  42.8040496 105.6672585  10.4757669  51.8201764
 105.6248764  10.7018516  50.8910296 106.5835284  10.2421044  51.9687566
 103.7838386   7.3520698  51.6163727 104.5778985   6.8571018  51.4146302
 103.0730079   6.8238561  51.2531433 108.6033231   9.7338794  55.9676095
 108.6570253  10.3029730  56.7353811 107.7348012   9.9040679  55.6030132
 106.3609662   7.9249720  55.2961564 106.2220748   7.5568505  56.1687502
 105.5724258   8.4397360  55.1245522 106.9557814  13.0258817  46.6387101
 107.1309570  12.5546860  47.4532723 106.2690602  13.6524583  46.8668362
 107.9114877   7.3031323  52.6850402 107.5764710   7.2632093  53.5808052
 107.4118823   6.6376039  52.2120812 112.5028201   9.3586266  60.6193242
 112.4440747   8.6745486  59.9523825 112.9047719  10.1005256  60.1673868
 101.5218899  16.1748180  53.4126961 101.7615498  16.8066704  54.0905980
 100.6788096  15.8236220  53.6992320  94.1574755   3.6549941  52.1750273
  94.8445795   3.3411671  51.5871288  94.0022884   4.5591306  51.9017525
 106.0346761  11.9827302  55.8168465 105.9616933  12.7882273  56.3287770
 105.5924154  12.1819268  54.9916486 105.8236541  11.2199072  49.3271287
 105.0404063  11.7620752  49.4209511 106.5229286  11.7373052  49.7265528
 108.4945445  11.8814136  57.9726624 109.2073417  12.5161601  57.9002525
 108.0035473  11.9778002  57.1566625 103.5457358   9.6308579  58.7932194
 104.2466818  10.2645062  58.9461589 103.0752473   9.9723311  58.0327834
 111.6711754   7.9726529  47.0780101 111.9471598   7.8583124  47.9873976
 110.8016253   7.5744014  47.0392275 108.3065818  12.2212880  50.7212915
 108.4888213  11.4034536  51.1840667 109.1298804  12.4380572  50.2837805
 108.6407984  11.1481065  47.9827964 109.1695750  10.6373520  47.3698126
 108.9036203  10.8323595  48.8473497  99.1425076   9.1644934  55.7263297
  99.7278513   8.4188622  55.8591201  98.9449915   9.4748891  56.6099961
 101.9963732  12.1996182  50.7425739 101.3274107  12.6842310  50.2589780
 101.8576601  12.4465402  51.6569118  93.7342731   1.7350535  54.4467740
  93.7726831   1.2014125  55.2404858  93.2283024   1.2085740  53.8278717
 106.1369000  14.2339925  57.3408398 106.6887308  14.3971547  58.1057483
 106.4775194  14.8244363  56.6688423 110.9879875   9.0601183  63.1957052
 111.5319779   9.6731141  62.7012007 110.4066719   9.6180761  63.7124065
 109.2737387  12.1821901  54.3272080 109.1488527  11.3811641  53.8183026
 109.9316479  12.6768094  53.8386050 111.3372296   9.9830921  55.9551630
 110.3902631   9.8636272  55.8829957 111.6855069   9.0953419  56.0377892
 108.3418729   9.7783637  52.1555982 108.1943692   8.8500345  52.3363552
 109.1672223   9.8003728  51.6713058 111.9452851  10.6012196  53.2420855
 112.8699398  10.3955057  53.1045306 111.7768154  10.3528597  54.1510197
 111.7348167  11.1197863  48.5982947 111.9085045  10.5544286  47.8456799
 112.2277058  11.9198758  48.4162437  97.5525127   3.1312532  56.6646505
  97.0078595   3.9072340  56.7966780  98.4304477   3.4783337  56.5065627
 112.7223340  10.4364628  45.6979845 113.4174244  11.0571320  45.9167159
 113.0646490   9.5859979  45.9732223  98.3391149   2.2582429  59.5576662
  97.5972885   2.4065064  60.1441293  98.0183893   2.5190694  58.6943412
 106.2834812  11.7998407  59.3557052 106.5921938  11.5547554  60.2279752
 107.0810294  12.0045045  58.8675922 106.3055424  13.9536317  51.5862429
 105.8660414  13.4612695  52.2795285 107.0563541  13.4109284  51.3454504
  98.7847763  10.1447857  51.5887057  99.6105782   9.8451629  51.2085700
  98.4341815   9.3755480  52.0376846 103.7529296   9.4974326  53.6584730
 103.1309305   8.8345031  53.3586958 104.4234163   9.5235458  52.9758378
  96.9856368   8.0634184  52.5475990  96.1488276   7.6356358  52.3659992
  96.9580013   8.2566627  53.4846782 114.3108669   8.5197237  62.5318374
 113.5204213   8.5021376  61.9922873 114.0742023   9.0585531  63.2867410
 103.3142803   8.0478249  47.1343191 103.4630923   8.7313713  46.4809864
 104.1209246   8.0283339  47.6492647 101.0695436   4.0743427  48.1404260
 100.8241478   3.1705757  48.3384470 101.2391350   4.0760577  47.1983738
 106.8138208  10.5426379  44.6054938 106.2412175  11.1616567  44.1525410
 107.3871002  11.0925741  45.1394860 110.0335468  10.8263530  45.7363521
 110.9666141  10.7609091  45.9396396 109.9458681  11.6619796  45.2778053
 112.6623485  10.1429400  42.6967468 112.5837116   9.8089264  43.5903226
 113.4833151  10.6351168  42.6958941 100.0785772   3.8405973  56.0494429
 100.2971782   4.7723081  56.0682463 100.4911546   3.4813947  56.8349233
  96.1694124   4.7446444  54.3018044  95.4757596   4.3300396  53.7887999
  96.9167115   4.7866980  53.7051463  98.0830867   4.6764697  52.1784059
  98.0601555   4.7752385  51.2265942  98.3931503   5.5229848  52.5001225
 100.7418245   6.7340852  56.2930673 101.6961498   6.7024795  56.2260605
 100.5430768   6.2731476  57.1080899 101.3317627   5.3041968  58.8601471
 102.1510516   5.7986047  58.8836308 101.6054434   4.3873937  58.8319039
  99.0968473  12.2760472  53.3100871  98.9622941  11.5160873  52.7438869
  98.6800536  13.0001372  52.8429660 110.2327436   7.4597395  42.3177447
 110.9363287   7.6647398  42.9335102 109.5090085   8.0274157  42.5826530
 102.2537599  13.1729789  53.5219314 102.1369983  14.1175221  53.4198004
 101.4330046  12.8703350  53.9105113 112.1414134   7.8979925  44.3675907
 112.9759738   7.4661123  44.1853381 111.9798477   7.7261938  45.2952801
 109.1105933   6.7060950  65.0585809 109.9797093   6.8801602  64.6972444
 108.6312685   7.5255367  64.9361538 103.2792113  13.8258051  56.7375242
 104.1819360  13.8581661  57.0541737 103.0529483  12.8958502  56.7521578
 105.0345715  12.5789037  53.3985321 104.0841346  12.5790899  53.2849693
 105.3378202  11.8321772  52.8821356 120.7698409  18.4149576  54.4631083
 121.4076819  18.2956323  53.7594423 120.6519252  19.3630420  54.5219036
 117.5788115  18.3677004  54.3992608 117.2406627  18.2518068  53.5113143
 118.4477883  17.9668169  54.3793614 113.4374931  20.2212480  50.3889499
 112.8739796  20.1302417  49.6205787 113.3227326  19.4012385  50.8691992
 118.0607898  19.5211856  60.3578814 118.0496539  19.1264654  59.4859317
 118.2228538  18.7877928  60.9512585 110.9839363  21.7163672  53.2273719
 111.7760655  21.3754496  52.8120019 111.2236013  21.8258647  54.1475873
 119.0174490  23.8883448  45.7003964 118.3662469  24.4737528  45.3137978
 119.8118852  24.4189643  45.7599001 112.9430117  20.9772585  46.0991098
 113.7160993  20.4301572  45.9603974 113.2955516  21.8416834  46.3105560
 114.7815159  22.3048967  59.3057998 114.4905025  23.2094598  59.1904664
 115.4172144  22.3465495  60.0202067 115.7071366  19.6825816  55.8959357
 116.3034938  19.4581838  55.1816320 115.7646338  18.9410561  56.4984805
 115.2796395  17.1365251  43.7309548 115.5321915  16.6146772  42.9693011
 114.3420954  16.9731397  43.8336232 120.3239677  16.1401030  51.5384291
 121.1102767  15.7220453  51.1874708 120.5878382  17.0447122  51.7065940
 120.4949755  21.5773880  46.2372948 119.8595588  21.6508506  46.9493853
 120.1647161  22.1667479  45.5592027 125.7248105  16.0776263  52.4417270
 126.4573276  15.5075480  52.6755099 124.9687460  15.6897863  52.8823776
 114.9992683  19.0393357  45.9333923 114.8828941  18.3638261  46.6015007
 115.1094943  18.5525731  45.1166076 117.3424224  18.5003504  49.6380612
 116.9782431  17.9734125  50.3493534 118.1991340  18.1101973  49.4647098
 116.9829711  13.5293404  44.6341961 117.1504114  14.3973640  45.0012432
 116.7926880  13.6920686  43.7103250 119.7405044  21.9910383  56.3007791
 119.4405767  22.8935422  56.1923599 119.3956104  21.7242566  57.1528944
 113.1917526  18.4424180  52.3344496 112.2668022  18.3100394  52.5422187
 113.4401939  19.2218399  52.8314438 123.1402188  14.5092923  53.9805229
 122.2319066  14.4408331  53.6863990 123.0889784  14.9864868  54.8087054
 116.9618932  15.9851061  45.6188628 116.8418557  16.4308112  46.4574108
 116.2671520  16.3336379  45.0602166 110.5526337  18.0857453  53.1688285
 110.6818718  18.3391932  54.0827696 109.8723788  18.6785161  52.8492940
 114.7225824  28.7554703  49.2678759 114.6449854  29.7062528  49.3467240
 114.1187468  28.4100576  49.9253685 117.2143054  15.9282569  61.9240126
 116.4376388  16.4876489  61.9142991 117.8533617  16.4139352  62.4454996
 125.0063835  12.7109361  55.7583103 124.3638215  13.0041895  55.1122897
 124.5018763  12.5962282  56.5636299 122.6603998  16.4572535  46.4468962
 123.5721854  16.6899921  46.2716659 122.1513645  17.0409579  45.8844040
 115.4689426  18.7368022  61.4858093 116.2104111  19.2753066  61.2092916
 114.7626412  19.3634311  61.6429645 120.9444766  20.8797162  60.0830254
 121.3528122  20.4379573  59.3384887 120.2222027  20.3049790  60.3364447
 117.2975836  15.8169769  57.4563811 118.1437031  16.2409183  57.5998460
 117.2374474  15.1603394  58.1502374 121.2673581  21.4398353  53.8382543
 120.6382443  21.6044067  53.1358611 120.8799243  21.8539963  54.6093507
 125.1462812  22.3752791  51.1926907 124.4613851  22.7551692  50.6423940
 125.2306662  22.9848118  51.9258855 120.4475281  13.4774138  59.1144985
 120.2036213  14.2316198  58.5779261 120.7235212  13.8559485  59.9492232
 122.4013744  20.0212750  57.7922251 122.6130639  20.6644510  57.1156632
 122.3543492  19.1875066  57.3244181 120.0039973  12.6330571  54.6958823
 119.1424452  12.9311824  54.9875560 120.0302408  12.8500969  53.7639855
 116.8201542  21.1772761  51.1032628 117.2839888  21.4560464  50.3137251
 116.5558341  20.2756206  50.9205719 113.7125624  20.7244243  54.0412392
 114.2826981  21.1531511  53.4029876 114.3033735  20.4426827  54.7396577
 115.7570429  17.2995914  47.9122193 116.4594472  17.7516957  48.3796120
 115.4251057  16.6579732  48.5402087 114.2050790  15.8907670  62.2873403
 113.5749451  16.5723951  62.5208800 114.0986878  15.7790752  61.3426541
 109.4995762  15.5579466  53.2139327 108.7094816  15.8136995  52.7379438
 109.9907010  16.3727804  53.3191368 123.5159572  22.8984705  55.9644608
 124.3377016  22.4964893  55.6827290 123.5121975  22.7952940  56.9160724
 111.4510508  15.9224045  50.1722804 110.6541671  16.0342740  50.6906299
 111.2236100  16.2610698  49.3063694 117.2816175  22.4468749  58.1205318
 117.3460608  22.9089156  58.9563490 116.5727099  21.8166114  58.2487628
 107.7833465  15.8109957  55.6454318 108.0341504  16.6956967  55.9111894
 108.3193014  15.6314558  54.8729410 131.6065565  19.2423454  52.3129579
 130.8529273  18.6730852  52.1573584 131.7413106  19.2086118  53.2600214
 116.9964193  24.1136856  47.9884299 116.8609868  24.9588392  48.4169147
 117.5374006  24.3156134  47.2250232 113.4831533  10.1928436  64.6498654
 113.0898478   9.6394635  65.3246298 114.2997673  10.5039014  65.0405171
 110.4493591  21.6312294  48.5612224 110.9618111  22.4255544  48.7117788
 111.1016303  20.9338585  48.4945825 112.2588475  24.7478050  50.6434977
 112.4355104  25.6696015  50.4555961 113.0545309  24.4336470  51.0729357
 116.3999494  11.6086315  62.2418910 117.1409207  12.2093468  62.1623373
 116.6317417  10.8663953  61.6836953 111.5440832  16.7942682  60.5197140
 111.4294347  15.8927940  60.8204239 110.6885350  17.0406379  60.1681957
 118.6232670  24.7360423  62.1184641 118.1796524  23.9496801  61.8005545
 119.2849883  24.9239573  61.4528532 113.3819791  26.2656224  56.6445319
 113.9327216  26.1373288  55.8722313 112.5431267  26.5651113  56.2940212
 120.7213908  25.0163223  60.1466042 120.7032383  25.8372104  59.6546311
 121.6433828  24.8917298  60.3716183 117.1786962  22.5307352  60.9889550
 117.7115299  21.7695640  60.7588858 116.6501043  22.2381004  61.7313705
 108.4142507  19.9600948  49.3371794 109.2517729  20.3697957  49.1205502
 108.5920775  19.0200391  49.3071988 120.3106939  17.6276029  45.0255627
 119.7953563  18.3980634  45.2644015 120.0384248  16.9541165  45.6488689
 117.8954050  12.4725730  50.0840866 117.0395647  12.0832580  49.9046504
 118.3081002  12.5517691  49.2240651 119.4253197  10.0072073  54.4832425
 118.9217993   9.9702208  53.6700231 119.7183804  10.9164816  54.5429082
 115.6696083  10.0910803  53.4898607 116.5349080   9.8953612  53.1304497
 115.7373592   9.8621155  54.4167964 125.2841214  20.3808384  46.9608801
 124.5070656  20.0419543  46.5163963 125.9632695  20.3861007  46.2863766
 120.0993243  15.5003121  46.8515408 119.7943378  15.8149270  47.7025552
 121.0523685  15.5784541  46.8942741 118.5439674  21.6593345  48.5008362
 118.0161036  20.9246104  48.1881600 118.0427177  22.4368021  48.2548331
 123.5232520  19.8542365  53.6175409 122.8656195  20.5441626  53.7055537
 124.3272920  20.2438797  53.9609395 113.2758402  12.3213011  50.8614974
 113.8502154  12.0988192  50.1288167 113.8629384  12.3901705  51.6143575
 122.3337979  18.2086738  51.6679350 122.8469861  18.8416730  52.1701060
 122.9839203  17.6087933  51.3022711 113.6027989  14.3517472  44.8810859
 112.7665301  14.6892158  45.2020134 113.4632759  14.2166452  43.9437996
 115.5781070   9.1954260  49.5890043 114.9245482   8.8803277  48.9646658
 115.5361544   8.5730000  50.3149866 116.6892275  19.4773555  41.5043335
 115.7819336  19.2462808  41.7034484 117.1863307  18.6811174  41.6917317
 119.5960353  28.1871062  44.4240022 118.9222052  28.4902759  45.0324979
 119.9826175  28.9900142  44.0745479 118.8118810  15.6836193  53.9137691
 117.8941371  15.9051140  53.7559379 119.2278954  15.7582504  53.0549398
 119.5953858  17.0827609  49.0440371 120.3425677  17.5949006  48.7347493
 119.8645447  16.7611662  49.9044765 117.8680508  19.5786150  46.0267326
 116.9591727  19.2945182  46.1239795 117.8975592  19.9985228  45.1670632
 123.0999775  23.1892739  49.7958493 122.6462103  22.3483649  49.8523684
 122.4693742  23.8254138  50.1333273 122.0432695  14.1184725  51.0259161
 121.3055452  13.6062111  51.3569403 122.2959469  13.6785107  50.2142437
 121.5432715  25.0269236  50.7308311 121.8355689  25.5874293  50.0120677
 122.0531335  25.3197797  51.4861470 108.4368678  17.2991664  50.0082528
 108.2393078  16.7061025  49.2833594 107.8815342  16.9943874  50.7258467
 116.4165402  17.1914770  52.1277121 116.4714012  16.2388607  52.0519597
 115.6056604  17.3474209  52.6118419 117.5656596  21.1194893  43.3655404
 117.1276026  20.4030752  42.9061041 118.3067037  21.3471008  42.8040496
 114.3557762  15.8091830  49.8867500 113.5425628  16.1086001  50.2932692
 114.8516756  15.4147519  50.6041982 116.5066340  25.8049587  51.8201764
 116.4642519  26.0310433  50.8910296 117.4229039  25.5712962  51.9687566
 119.9531974  16.2733654  58.7182394 120.3081361  16.5005128  59.5776859
 120.6004105  16.6052031  58.0959649 125.6829711  19.3952090  49.4231723
 125.5447609  19.5853686  48.4952912 125.3265929  20.1571473  49.8799774
 113.8471837  13.3810186  55.5028735 114.4871216  13.2398945  54.8051698
 113.0149367  13.0944699  55.1267337 125.7099090  21.4628617  54.4342994
 126.1435597  21.3703906  55.2826048 126.4230671  21.4386118  53.7963010
 114.6232141  22.6812616  51.6163727 115.4172739  22.1862936  51.4146302
 113.9123833  22.1530479  51.2531433 119.4426985  25.0630712  55.9676095
 119.4964007  25.6321648  56.7353811 118.5741767  25.2332597  55.6030132
 110.9314904  16.8255698  47.6923480 110.0012492  16.7640153  47.9093442
 111.0272376  16.3031650  46.8960121 110.8500453  13.3510511  50.2801722
 111.1107270  14.2655844  50.1710882 111.6717626  12.8834953  50.4298334
 112.3225379  14.7648268  57.4500546 112.9948432  14.5565630  56.8013195
 111.4955165  14.5670354  57.0105778 126.5714640  21.5052318  56.9675880
 126.7650530  22.4098129  57.2135155 126.4715258  21.0459737  57.8014465
 118.2250951  11.3910209  59.4666207 117.5778866  12.0900158  59.3730683
 118.9951966  11.8246353  59.8342455 121.6329748  21.6559061  62.5416760
 121.4815255  21.4269612  61.6246844 121.6234428  22.6129662  62.5548105
 118.4015085  19.2290974  57.5263027 119.3307145  19.3802133  57.3531994
 117.9806115  19.3174994  56.6711673 117.2003417  23.2541638  55.2961564
 117.0614502  22.8860422  56.1687502 116.4118013  23.7689277  55.1245522
 117.7951569  28.3550734  46.6387101 117.9703324  27.8838778  47.4532723
 117.1084357  28.9816501  46.8668362 118.7508632  22.6323241  52.6850402
 118.4158464  22.5924011  53.5808052 118.2512577  21.9667957  52.2120812
 112.7252876  18.0390871  58.2102983 112.5872674  17.3071110  58.8114522
 113.6357799  17.9499771  57.9287171 121.6867823  19.9779275  42.9587462
 121.0696994  19.2526103  42.8620514 121.2184312  20.7388635  42.6154536
 115.3535176  17.7510830  57.6986663 116.0634795  17.1104022  57.6573281
 115.3104485  18.0023725  58.6212844 123.3421955  24.6878183  60.6193242
 123.2834501  24.0037403  59.9523825 123.7441474  25.4297173  60.1673868
 114.0664110  14.7376048  59.5182302 113.5301467  14.2866786  60.1703899
 113.4780819  14.8721957  58.7752767 112.3612654  31.5040097  53.4126961
 112.6009252  32.1358621  54.0905980 111.5181850  31.1528137  53.6992320
 113.4766369  14.1964699  42.0808766 112.5995836  14.0753500  41.7171013
 113.9524122  13.4050778  41.8287655 123.3439362  22.6517767  58.8507222
 122.4566141  22.3143689  58.9733621 123.9137913  21.9200799  59.0875987
 104.9968510  18.9841859  52.1750273 105.6839549  18.6703589  51.5871288
 104.8416638  19.8883224  51.9017525 109.8003232  13.8732056  56.6035297
 109.7161420  13.2657725  55.8685707 108.9785938  14.3641074  56.6044793
 116.8740516  27.3119220  55.8168465 116.8010687  28.1174191  56.3287770
 116.4317909  27.5111185  54.9916486 116.6630295  26.5490990  49.3271287
 115.8797817  27.0912670  49.4209511 117.3623041  27.0664969  49.7265528
 119.9726946  12.3585619  51.9705492 120.4695645  11.6055581  51.6506562
 119.2013927  12.3949936  51.4048701 127.8256703  18.0625985  53.6123783
 127.8146579  18.9450700  53.2417716 126.9574082  17.7097535  53.4178320
 119.3339199  27.2106054  57.9726624 120.0467172  27.8453518  57.9002525
 118.8429228  27.3069920  57.1566625 121.0556726  21.1157306  49.5443915
 120.1213005  21.2358769  49.3748620 121.2333395  20.2129773  49.2803925
 116.5561914  14.5003002  51.6977176 116.1859702  13.9474042  52.3858082
 117.0521007  13.8961136  51.1452177 124.4429278  16.9574626  50.0793949
 124.9089730  17.7902617  50.0054252 124.8936778  16.4919607  50.7839208
 114.3851113  24.9600497  58.7932194 115.0860572  25.5936980  58.9461589
 113.9146228  25.3015229  58.0327834 122.5105509  23.3018447  47.0780101
 122.7865353  23.1875041  47.9873976 121.6410007  22.9035932  47.0392275
 122.1852399  17.5145105  56.6184745 121.5323849  17.7621012  55.9637198
 122.5632779  16.7009243  56.2847222 119.1459573  27.5504798  50.7212915
 119.3281967  26.7326454  51.1840667 119.9692559  27.7672490  50.2837805
 119.4801738  26.4772983  47.9827964 120.0089505  25.9665437  47.3698126
 119.7429958  26.1615513  48.8473497 118.2339972  18.2564916  63.1050782
 117.5580609  18.1559045  63.7753157 119.0567606  18.1004129  63.5686779
 109.9818831  24.4936852  55.7263297 110.5672268  23.7480540  55.8591201
 109.7843669  24.8040809  56.6099961 112.8357486  27.5288100  50.7425739
 112.1667861  28.0134227  50.2589780 112.6970356  27.7757320  51.6569118
 104.5736486  17.0642452  54.4467740 104.6120585  16.5306043  55.2404858
 104.0676778  16.5377658  53.8278717 116.9762755  29.5631843  57.3408398
 117.5281063  29.7263465  58.1057483 117.3168948  30.1536281  56.6688423
 111.9527248  11.9106993  57.9430283 112.0168574  12.7721824  57.5307680
 111.8894368  11.2980995  57.2102641 111.4279520  13.9830125  61.5903317
 112.0551559  13.6007203  62.2040841 110.5707439  13.7644327  61.9559009
 121.8273629  24.3893101  63.1957052 122.3713533  25.0023059  62.7012007
 121.2460474  24.9472679  63.7124065 108.2045063  15.7906555  47.5221672
 108.4998504  14.8817233  47.4688725 107.3033099  15.7694294  47.2002674
 120.1131142  27.5113819  54.3272080 119.9882281  26.7103558  53.8183026
 120.7710233  28.0060012  53.8386050 111.7339310  13.8662551  53.5049220
 111.0125896  14.4798519  53.3656694 112.5232566  14.4020316  53.4265866
 122.1766050  25.3122839  55.9551630 121.2296386  25.1928190  55.8829957
 122.5248823  24.4245337  56.0377892 114.5365624  11.2016978  59.7789872
 115.0600026  11.4479274  60.5416181 114.3177957  12.0337012  59.3593009
 109.9332905  13.4720652  47.6460997 109.6045611  12.5918031  47.4636103
 110.2872275  13.4168321  48.5337386 119.1812484  25.1075555  52.1555982
 119.0337446  24.1792262  52.3363552 120.0065977  25.1295646  51.6713058
 113.0474728  13.7593622  48.0136475 113.3870800  14.2879543  47.2915083
 113.4946848  14.0974028  48.7895041 122.7846606  25.9304114  53.2420855
 123.7093153  25.7246975  53.1045306 122.6161909  25.6820515  54.1510197
 115.7418169  12.1430673  57.4639543 115.4014989  11.3438486  57.8660222
 115.0357175  12.4432384  56.8916376 115.0342875  12.2568244  46.2129767
 115.7551238  12.6349496  45.7093484 114.4108179  12.9757120  46.3164745
 119.1773998  12.9613393  47.1488100 119.3937612  13.8438030  46.8476928
 118.6968065  12.5699606  46.4193742 113.9173219  15.9199106  53.7258844
 113.7717800  16.2339409  54.6183126 113.4398423  16.5384006  53.1729743
 115.7769602  12.9101654  53.7739734 115.7631171  12.0142747  53.4372032
 116.4942030  12.9172318  54.4078020 117.6295733  13.3438994  55.8192861
 117.3713511  14.2656065  55.8177192 117.0980773  12.9469429  56.5093325
 122.5741922  26.4489781  48.5982947 122.7478799  25.8836204  47.8456799
 123.0670813  27.2490676  48.4162437 108.3918882  18.4604450  56.6646505
 107.8472350  19.2364258  56.7966780 109.2698231  18.8075255  56.5065627
 115.1806498  11.7916034  49.0427304 115.3022409  10.8632680  49.2418191
 114.8908541  11.8054720  48.1305619 128.4281313  19.2126204  50.2173246
 128.8712459  18.4633529  49.8192370 127.5507823  19.2036340  49.8346978
 123.5617094  25.7656545  45.6979845 124.2567999  26.3863238  45.9167159
 123.9040244  24.9151897  45.9732223 109.1784903  17.5874346  59.5576662
 108.4366639  17.7356982  60.1441293 108.8577648  17.8482612  58.6943412
 125.4608517  23.2156251  47.2267176 125.9859841  23.5543524  46.5016496
 125.3730870  22.2803266  47.0430310 117.1228566  27.1290325  59.3557052
 117.4315692  26.8839471  60.2279752 117.9204048  27.3336963  58.8675922
 117.1449178  29.2828234  51.5862429 116.7054168  28.7904613  52.2795285
 117.8957295  28.7401202  51.3454504 109.6241517  25.4739775  51.5887057
 110.4499537  25.1743547  51.2085700 109.2735569  24.7047398  52.0376846
 114.5923050  24.8266243  53.6584730 113.9703060  24.1636948  53.3586958
 115.2627917  24.8527375  52.9758378 107.8250122  23.3926102  52.5475990
 106.9882030  22.9648276  52.3659992 107.7973768  23.5858545  53.4846782
 114.6647578  13.3048031  63.2517236 114.7135733  14.1810154  62.8695006
 115.2070092  12.7625424  62.6788880 125.1502423  23.8489155  62.5318374
 124.3597967  23.8313294  61.9922873 124.9135778  24.3877448  63.2867410
 125.2700298  20.6981621  59.8451102 125.3198303  20.5331628  60.7866625
 125.1614222  19.8308880  59.4548983 114.1536557  23.3770167  47.1343191
 114.3024678  24.0605631  46.4809864 114.9603001  23.3575257  47.6492647
 122.5604061  16.6812549  61.1610409 123.4613924  16.5419014  60.8694407
 122.6352035  16.8467004  62.1008586 116.8946866  14.0579404  60.0063595
 116.0250176  14.3512970  59.7346184 117.1306347  14.6419849  60.7270859
 126.7718495  23.1178563  60.0893124 126.4803304  23.4808543  60.9256585
 126.1590627  22.4045571  59.9106456 127.9714178  20.6831442  52.6095694
 128.8061069  21.1221246  52.7733254 128.1073306  20.2070096  51.7903940
 125.0205684  18.2411177  58.5573182 125.4959805  18.4338823  57.7492033
 124.0971249  18.2970363  58.3116565 111.9089190  19.4035344  48.1404260
 111.6635232  18.4997674  48.3384470 112.0785105  19.4052495  47.1983738
 119.5985900  10.2759021  57.5229016 120.1167844  11.0120048  57.1975504
 119.2441033  10.5823014  58.3575775 111.1784838  15.1363702  45.6390421
 110.4854083  15.2108057  44.9830457 110.9336590  14.3724046  46.1611938
 117.6531963  25.8718297  44.6054938 117.0805930  26.4908484  44.1525410
 118.2264756  26.4217659  45.1394860 123.7207353  15.1176937  56.7901487
 124.6724775  15.2175035  56.8113711 123.5510803  14.3255206  57.2999572
 121.7421732  12.2032520  56.9760888 121.1471664  12.4837533  56.2807377
 121.4571429  12.6926421  57.7477629 120.8729222  26.1555447  45.7363521
 121.8059896  26.0901009  45.9396396 120.7852435  26.9911714  45.2778053
 123.5017239  25.4721318  42.6967468 123.4230871  25.1381181  43.5903226
 124.3226906  25.9643086  42.6958941 126.1995430  18.3383057  55.9043787
 126.1671750  17.3999058  56.0903471 126.8096054  18.4167094  55.1709612
 118.0378761  17.2079110  41.9470991 118.9837866  17.0785318  42.0159409
 117.6593006  16.4693772  42.4240419 126.3489919  15.1294100  55.9502070
 125.8328967  14.3452557  55.7631999 127.2329867  14.8012817  56.1148590
 132.0171980  19.3999064  55.0449824 132.7475369  19.1384352  55.6057527
 131.4078926  18.6627786  55.0851892 130.0987277  17.5406926  55.6424275
 129.3720441  17.4062891  55.0340766 129.6834564  17.8483755  56.4480993
 117.9217454  21.2596856  63.4071648 118.8420463  21.4375455  63.6011694
 117.8867037  20.3152901  63.2551347 116.2221678  15.1329086  41.8825876
 115.3153134  14.8362199  41.9588590 116.4997659  14.8358904  41.0160162
 107.1399619  16.4535450  52.3324923 106.8202403  15.6000758  52.0399297
 106.5933047  16.6684028  53.0882890 110.9179526  19.1697891  56.0494429
 111.1365536  20.1014999  56.0682463 111.3305300  18.8105865  56.8349233
 117.8383744   9.6765976  48.0370117 117.0284472   9.3313061  48.4125364
 118.5268161   9.3673520  48.6257729 115.7907392  14.7431096  65.4397178
 115.6904118  15.6925453  65.3709269 115.5728934  14.4149335  64.5673248
 114.9920463  11.9916022  42.0237855 115.8539627  12.3170920  42.2833673
 115.1770807  11.2047517  41.5110921 107.0087879  20.0738361  54.3018044
 106.3151350  19.6592314  53.7887999 107.7560870  20.1158898  53.7051463
 115.6538662  18.1728235  64.2562240 115.1705743  18.9728595  64.4626129
 115.7399601  18.1836180  63.3029684 108.9224621  20.0056615  52.1784059
 108.8995309  20.1044302  51.2265942 109.2325258  20.8521766  52.5001225
 111.5811999  22.0632770  56.2930673 112.5355253  22.0316712  56.2260605
 111.3824523  21.6023394  57.1080899 112.1711381  20.6333886  58.8601471
 112.9904270  21.1277965  58.8836308 112.4448189  19.7165854  58.8319039
 121.9277977  13.0244638  48.2229427 121.0403832  13.3094289  48.0049621
 122.3431967  12.8638402  47.3756704 125.2792514  13.0491159  51.9383766
 126.0552904  13.5387612  52.2108383 124.5540648  13.4749214  52.3955635
 127.7165072  13.7618779  52.9957706 128.3109563  13.5214515  52.2851015
 127.7891656  13.0425909  53.6231243 109.9362228  27.6052390  53.3100871
 109.8016696  26.8452790  52.7438869 109.5194290  28.3293289  52.8429660
 121.0721191  22.7889313  42.3177447 121.7757041  22.9939316  42.9335102
 120.3483840  23.3566075  42.5826530 121.9019001  18.5399174  48.4379717
 121.8454203  18.9967726  47.5987349 122.4547344  17.7789859  48.2602560
 125.7123807  14.3288906  49.2629836 125.4560741  13.9285542  50.0938044
 125.0876675  15.0432700  49.1379975 130.0236145  17.0684979  51.7701128
 129.4635703  17.1378169  52.5432690 129.4179648  16.8925964  51.0500624
 113.0931354  28.5021707  53.5219314 112.9763738  29.4467139  53.4198004
 112.2723800  28.1995268  53.9105113 122.9807888  23.2271842  44.3675907
 123.8153492  22.7953041  44.1853381 122.8192231  23.0553856  45.2952801
 122.6353780  19.7303956  45.7332246 122.5802584  19.5648227  44.7920690
 122.0099836  20.4379988  45.8894436 107.4246295  14.9672020  59.5593668
 108.0705159  14.4570974  60.0480893 107.2163447  15.7040702  60.1337093
 119.9499688  22.0352867  65.0585809 120.8190847  22.2093520  64.6972444
 119.4706439  22.8547284  64.9361538 115.9449906   9.2312065  45.3117564
 115.9328576  10.1753904  45.4685835 116.8373328   9.0482210  45.0177026
 114.1185868  29.1549968  56.7375242 115.0213115  29.1873579  57.0541737
 113.8923238  28.2250419  56.7521578 115.8739470  27.9080955  53.3985321
 114.9235101  27.9082817  53.2849693 116.1771956  27.1613690  52.8821356
 111.7643786  12.1139637  63.6568682 112.6275248  11.7576442  63.8672007
 111.1909197  11.7753532  64.3444087 131.6092163  33.7441493  54.4631083
 132.2470573  33.6248241  53.7594423 131.4913006  34.6922337  54.5219036
 128.4181870  33.6968921  54.3992608 128.0800381  33.5809986  53.5113143
 129.2871638  33.2960087  54.3793614 124.2768685  35.5504398  50.3889499
 123.7133551  35.4594335  49.6205787 124.1621080  34.7304302  50.8691992
 128.9001653  34.8503773  60.3578814 128.8890293  34.4556571  59.4859317
 129.0622292  34.1169846  60.9512585 121.8233117  37.0455589  53.2273719
 122.6154409  36.7046414  52.8120019 122.0629767  37.1550565  54.1475873
 129.8568244  39.2175366  45.7003964 129.2056224  39.8029446  45.3137978
 130.6512607  39.7481560  45.7599001 123.7823871  36.3064503  46.0991098
 124.5554747  35.7593490  45.9603974 124.1349270  37.1708752  46.3105560
 125.6208914  37.6340885  59.3057998 125.3298780  38.5386516  59.1904664
 126.2565898  37.6757413  60.0202067 126.5465121  35.0117734  55.8959357
 127.1428693  34.7873756  55.1816320 126.6040092  34.2702479  56.4984805
 126.1190149  32.4657169  43.7309548 126.3715670  31.9438690  42.9693011
 125.1814708  32.3023314  43.8336232 131.1633432  31.4692947  51.5384291
 131.9496521  31.0512370  51.1874708 131.4272136  32.3739039  51.7065940
 131.3343509  36.9065798  46.2372948 130.6989342  36.9800424  46.9493853
 131.0040916  37.4959396  45.5592027 136.5641859  31.4068180  52.4417270
 137.2967031  30.8367397  52.6755099 135.8081215  31.0189781  52.8823776
 125.8386438  34.3685275  45.9333923 125.7222696  33.6930178  46.6015007
 125.9488698  33.8817649  45.1166076 128.1817979  33.8295422  49.6380612
 127.8176186  33.3026043  50.3493534 129.0385095  33.4393891  49.4647098
 134.0867279  25.1189755  56.9011879 133.7550604  25.9885165  56.6773094
 133.4912893  24.8026039  57.5805909 127.8223466  28.8585322  44.6341961
 127.9897868  29.7265558  45.0012432 127.6320635  29.0212603  43.7103250
 130.5798799  37.3202301  56.3007791 130.2799522  38.2227339  56.1923599
 130.2349858  37.0534484  57.1528944 124.0311280  33.7716097  52.3344496
 123.1061777  33.6392311  52.5422187 124.2795694  34.5510317  52.8314438
 133.9795943  29.8384841  53.9805229 133.0712820  29.7700249  53.6863990
 133.9283538  30.3156786  54.8087054 127.8012687  31.3142979  45.6188628
 127.6812312  31.7600030  46.4574108 127.1065275  31.6628297  45.0602166
 121.3920091  33.4149371  53.1688285 121.5212473  33.6683850  54.0827696
 120.7117543  34.0077079  52.8492940 125.5619579  44.0846621  49.2678759
 125.4843608  45.0354446  49.3467240 124.9581222  43.7392493  49.9253685
 128.0536808  31.2574486  61.9240126 127.2770143  31.8168406  61.9142991
 128.6927372  31.7431269  62.4454996 135.8457589  28.0401279  55.7583103
 135.2031969  28.3333812  55.1122897 135.3412518  27.9254199  56.5636299
 133.4997753  31.7864452  46.4468962 134.4115609  32.0191839  46.2716659
 132.9907400  32.3701496  45.8844040 126.3083181  34.0659940  61.4858093
 127.0497865  34.6044984  61.2092916 125.6020166  34.6926228  61.6429645
 131.7838520  36.2089080  60.0830254 132.1921876  35.7671491  59.3384887
 131.0615782  35.6341708  60.3364447 128.1369590  31.1461687  57.4563811
 128.9830786  31.5701100  57.5998460 128.0768228  30.4895311  58.1502374
 132.1067335  36.7690271  53.8382543 131.4776198  36.9335985  53.1358611
 131.7192997  37.1831880  54.6093507 135.9856567  37.7044709  51.1926907
 135.3007605  38.0843610  50.6423940 136.0700416  38.3140035  51.9258855
 131.2869036  28.8066055  59.1144985 131.0429968  29.5608116  58.5779261
 131.5628966  29.1851403  59.9492232 133.2407499  35.3504668  57.7922251
 133.4524394  35.9936428  57.1156632 133.1937247  34.5166984  57.3244181
 130.8433728  27.9622488  54.6958823 129.9818207  28.2603742  54.9875560
 130.8696162  28.1792887  53.7639855 127.6595297  36.5064679  51.1032628
 128.1233642  36.7852382  50.3137251 127.3952095  35.6048123  50.9205719
 124.5519378  36.0536160  54.0412392 125.1220735  36.4823429  53.4029876
 125.1427490  35.7718745  54.7396577 126.5964183  32.6287831  47.9122193
 127.2988226  33.0808875  48.3796120 126.2644811  31.9871650  48.5402087
 125.0444545  31.2199588  62.2873403 124.4143205  31.9015869  62.5208800
 124.9380632  31.1082669  61.3426541 120.3389517  30.8871384  53.2139327
 119.5488571  31.1428912  52.7379438 120.8300764  31.7019722  53.3191368
 134.3553327  38.2276623  55.9644608 135.1770770  37.8256810  55.6827290
 134.3515729  38.1244857  56.9160724 122.2904262  31.2515963  50.1722804
 121.4935426  31.3634657  50.6906299 122.0629855  31.5902615  49.3063694
 128.1209930  37.7760666  58.1205318 128.1854362  38.2381074  58.9563490
 127.4120854  37.1458031  58.2487628 118.6227220  31.1401874  55.6454318
 118.8735258  32.0248884  55.9111894 119.1586768  30.9606476  54.8729410
 142.4459320  34.5715372  52.3129579 141.6923028  34.0022770  52.1573584
 142.5806861  34.5378036  53.2600214 127.8357948  39.4428774  47.9884299
 127.7003622  40.2880310  48.4169147 128.3767760  39.6448051  47.2250232
 124.3225287  25.5220354  64.6498654 123.9292233  24.9686552  65.3246298
 125.1391428  25.8330932  65.0405171 121.2887345  36.9604212  48.5612224
 121.8011866  37.7547462  48.7117788 121.9410058  36.2630502  48.4945825
 123.0982230  40.0769968  50.6434977 123.2748858  40.9987933  50.4555961
 123.8939063  39.7628387  51.0729357 127.2393248  26.9378233  62.2418910
 127.9802962  27.5385386  62.1623373 127.4711171  26.1955871  61.6836953
 122.3834586  32.1234600  60.5197140 122.2688101  31.2219857  60.8204239
 121.5279104  32.3698297  60.1681957 129.4626424  40.0652340  62.1184641
 129.0190278  39.2788719  61.8005545 130.1243638  40.2531491  61.4528532
 124.2213545  41.5948142  56.6445319 124.7720970  41.4665205  55.8722313
 123.3825021  41.8943031  56.2940212 131.5607662  40.3455140  60.1466042
 131.5426137  41.1664021  59.6546311 132.4827582  40.2209215  60.3716183
 128.0180716  37.8599270  60.9889550 128.5509053  37.0987558  60.7588858
 127.4894797  37.5672922  61.7313705 131.1850411  22.9659336  56.5183192
 130.8414681  23.8560977  56.4422303 131.5529374  22.7760993  55.6552777
 119.2536262  35.2892866  49.3371794 120.0911484  35.6989875  49.1205502
 119.4314529  34.3492308  49.3071988 131.1500694  32.9567947  45.0255627
 130.6347317  33.7272551  45.2644015 130.8778002  32.2833083  45.6488689
 128.7347805  27.8017648  50.0840866 127.8789401  27.4124498  49.9046504
 129.1474757  27.8809608  49.2240651 130.2646952  25.3363991  54.4832425
 129.7611747  25.2994126  53.6700231 130.5577558  26.2456734  54.5429082
 126.5089837  25.4202721  53.4898607 127.3742834  25.2245529  53.1304497
 126.5767346  25.1913072  54.4167964 136.1234968  35.7100301  46.9608801
 135.3464411  35.3711461  46.5163963 136.8026449  35.7152925  46.2863766
 130.9386997  30.8295039  46.8515408 130.6337133  31.1441188  47.7025552
 131.8917439  30.9076459  46.8942741 129.3833429  36.9885262  48.5008362
 128.8554790  36.2538022  48.1881600 128.8820932  37.7659939  48.2548331
 134.3626275  35.1834283  53.6175409 133.7049949  35.8733544  53.7055537
 135.1666674  35.5730715  53.9609395 124.1152157  27.6504929  50.8614974
 124.6895908  27.4280110  50.1288167 124.7023139  27.7193623  51.6143575
 133.1731734  33.5378655  51.6679350 133.6863615  34.1708647  52.1701060
 133.8232958  32.9379851  51.3022711 124.4421744  29.6809390  44.8810859
 123.6059056  30.0184076  45.2020134 124.3026513  29.5458369  43.9437996
 126.4174824  24.5246177  49.5890043 125.7639237  24.2095195  48.9646658
 126.3755298  23.9021918  50.3149866 127.5286029  34.8065472  41.5043335
 126.6213091  34.5754726  41.7034484 128.0257061  34.0103092  41.6917317
 130.4354108  43.5162980  44.4240022 129.7615807  43.8194676  45.0324979
 130.8219930  44.3192060  44.0745479 129.6512565  31.0128111  53.9137691
 128.7335126  31.2343058  53.7559379 130.0672708  31.0874421  53.0549398
 130.4347612  32.4119527  49.0440371 131.1819431  32.9240924  48.7347493
 130.7039202  32.0903579  49.9044765 128.7074263  34.9078067  46.0267326
 127.7985482  34.6237100  46.1239795 128.7369346  35.3277146  45.1670632
 133.9393530  38.5184657  49.7958493 133.4855857  37.6775567  49.8523684
 133.3087497  39.1546055  50.1333273 132.8826450  29.4476643  51.0259161
 132.1449206  28.9354029  51.3569403 133.1353223  29.0077024  50.2142437
 132.3826469  40.3561154  50.7308311 132.6749444  40.9166211  50.0120677
 132.8925090  40.6489715  51.4861470 132.9838077  22.2252895  51.6200930
 133.2896954  21.3650258  51.3326845 133.7090682  22.8170515  51.4199924
 119.2762433  32.6283581  50.0082528 119.0786833  32.0352942  49.2833594
 118.7209097  32.3235792  50.7258467 127.2559157  32.5206688  52.1277121
 127.3107766  31.5680524  52.0519597 126.4450359  32.6766127  52.6118419
 128.4050350  36.4486811  43.3655404 127.9669780  35.7322670  42.9061041
 129.1460791  36.6762926  42.8040496 125.1951517  31.1383748  49.8867500
 124.3819382  31.4377918  50.2932692 125.6910511  30.7439436  50.6041982
 127.3460094  41.1341505  51.8201764 127.3036273  41.3602351  50.8910296
 128.2622793  40.9004879  51.9687566 130.7925728  31.6025572  58.7182394
 131.1475116  31.8297045  59.5776859 131.4397859  31.9343949  58.0959649
 136.5223465  34.7244008  49.4231723 136.3841364  34.9145604  48.4952912
 136.1659684  35.4863391  49.8799774 124.6865591  28.7102103  55.5028735
 125.3264971  28.5690862  54.8051698 123.8543122  28.4236617  55.1267337
 136.5492845  36.7920535  54.4342994 136.9829351  36.6995824  55.2826048
 137.2624425  36.7678036  53.7963010 125.4625895  38.0104534  51.6163727
 126.2566494  37.5154854  51.4146302 124.7517588  37.4822397  51.2531433
 130.2820740  40.3922629  55.9676095 130.3357762  40.9613565  56.7353811
 129.4135521  40.5624514  55.6030132 121.7708659  32.1547615  47.6923480
 120.8406247  32.0932071  47.9093442 121.8666131  31.6323568  46.8960121
 121.6894208  28.6802428  50.2801722 121.9501025  29.5947761  50.1710882
 122.5111380  28.2126871  50.4298334 123.1619133  30.0940185  57.4500546
 123.8342186  29.8857548  56.8013195 122.3348920  29.8962271  57.0105778
 137.4108394  36.8344236  56.9675880 137.6044284  37.7390046  57.2135155
 137.3109012  36.3751655  57.8014465 129.0644705  26.7202126  59.4666207
 128.4172620  27.4192076  59.3730683 129.8345720  27.1538270  59.8342455
 132.4723503  36.9850978  62.5416760 132.3209009  36.7561530  61.6246844
 132.4628182  37.9421580  62.5548105 129.2408839  34.5582891  57.5263027
 130.1700899  34.7094051  57.3531994 128.8199869  34.6466912  56.6711673
 128.0397171  38.5833556  55.2961564 127.9008257  38.2152340  56.1687502
 127.2511767  39.0981195  55.1245522 128.6345323  43.6842652  46.6387101
 128.8097079  43.2130695  47.4532723 127.9478111  44.3108418  46.8668362
 129.5902386  37.9615158  52.6850402 129.2552219  37.9215928  53.5808052
 129.0906332  37.2959874  52.2120812 123.5646630  33.3682788  58.2102983
 123.4266428  32.6363027  58.8114522 124.4751554  33.2791688  57.9287171
 132.5261578  35.3071193  42.9587462 131.9090749  34.5818021  42.8620514
 132.0578066  36.0680553  42.6154536 126.1928931  33.0802748  57.6986663
 126.9028549  32.4395940  57.6573281 126.1498239  33.3315643  58.6212844
 134.1815710  40.0170101  60.6193242 134.1228256  39.3329321  59.9523825
 134.5835228  40.7589091  60.1673868 124.9057865  30.0667966  59.5182302
 124.3695222  29.6158704  60.1703899 124.3174573  30.2013874  58.7752767
 123.2006408  46.8332015  53.4126961 123.4403007  47.4650539  54.0905980
 122.3575605  46.4820055  53.6992320 124.3160124  29.5256617  42.0808766
 123.4389590  29.4045418  41.7171013 124.7917877  28.7342695  41.8287655
 134.1833117  37.9809685  58.8507222 133.2959896  37.6435607  58.9733621
 134.7531668  37.2492716  59.0875987 115.8362264  34.3133777  52.1750273
 116.5233304  33.9995507  51.5871288 115.6810393  35.2175141  51.9017525
 120.6396986  29.2023973  56.6035297 120.5555175  28.5949643  55.8685707
 119.8179693  29.6932992  56.6044793 127.7134270  42.6411137  55.8168465
 127.6404442  43.4466109  56.3287770 127.2711663  42.8403103  54.9916486
 127.5024050  41.8782907  49.3271287 126.7191572  42.4204588  49.4209511
 128.2016795  42.3956887  49.7265528 130.8120700  27.6877537  51.9705492
 131.3089400  26.9347499  51.6506562 130.0407682  27.7241853  51.4048701
 138.6650457  33.3917902  53.6123783 138.6540334  34.2742618  53.2417716
 137.7967837  33.0389453  53.4178320 130.1732954  42.5397971  57.9726624
 130.8860926  43.1745436  57.9002525 129.6822982  42.6361837  57.1566625
 131.8950481  36.4449224  49.5443915 130.9606759  36.5650686  49.3748620
 132.0727149  35.5421691  49.2803925 127.3955669  29.8294920  51.6977176
 127.0253456  29.2765960  52.3858082 127.8914761  29.2253053  51.1452177
 135.2823032  32.2866543  50.0793949 135.7483484  33.1194535  50.0054252
 135.7330533  31.8211525  50.7839208 125.2244867  40.2892415  58.7932194
 125.9254327  40.9228898  58.9461589 124.7539982  40.6307146  58.0327834
 133.3499263  38.6310365  47.0780101 133.6259107  38.5166959  47.9873976
 132.4803762  38.2327849  47.0392275 133.2539695  24.6547130  54.1184851
 132.3402775  24.8851357  54.2867058 133.6832796  24.7385574  54.9698883
 133.0246153  32.8437022  56.6184745 132.3717604  33.0912930  55.9637198
 133.4026533  32.0301160  56.2847222 129.9853327  42.8796715  50.7212915
 130.1675722  42.0618371  51.1840667 130.8086313  43.0964408  50.2837805
 130.3195493  41.8064901  47.9827964 130.8483259  41.2957355  47.3698126
 130.5823712  41.4907431  48.8473497 129.0733726  33.5856833  63.1050782
 128.3974363  33.4850963  63.7753157 129.8961360  33.4296047  63.5686779
 120.8212585  39.8228770  55.7263297 121.4066022  39.0772458  55.8591201
 120.6237424  40.1332727  56.6099961 123.6751241  42.8580017  50.7425739
 123.0061616  43.3426145  50.2589780 123.5364110  43.1049238  51.6569118
 115.4130240  32.3934370  54.4467740 115.4514340  31.8597961  55.2404858
 114.9070533  31.8669576  53.8278717 127.8156509  44.8923761  57.3408398
 128.3674817  45.0555382  58.1057483 128.1562703  45.4828199  56.6688423
 122.7921002  27.2398911  57.9430283 122.8562329  28.1013741  57.5307680
 122.7288123  26.6272912  57.2102641 122.2673275  29.3122043  61.5903317
 122.8945314  28.9299120  62.2040841 121.4101194  29.0936245  61.9559009
 132.6667384  39.7185018  63.1957052 133.2107288  40.3314977  62.7012007
 132.0854228  40.2764597  63.7124065 119.0438818  31.1198472  47.5221672
 119.3392259  30.2109151  47.4688725 118.1426853  31.0986212  47.2002674
 130.9524896  42.8405736  54.3272080 130.8276036  42.0395476  53.8183026
 131.6103988  43.3351930  53.8386050 122.5733065  29.1954469  53.5049220
 121.8519650  29.8090436  53.3656694 123.3626320  29.7312234  53.4265866
 133.0159805  40.6414756  55.9551630 132.0690140  40.5220108  55.8829957
 133.3642578  39.7537254  56.0377892 125.3759378  26.5308895  59.7789872
 125.8993780  26.7771192  60.5416181 125.1571712  27.3628930  59.3593009
 120.7726659  28.8012570  47.6460997 120.4439365  27.9209949  47.4636103
 121.1266030  28.7460239  48.5337386 130.0206238  40.4367473  52.1555982
 129.8731201  39.5084180  52.3363552 130.8459732  40.4587563  51.6713058
 123.8868482  29.0885540  48.0136475 124.2264555  29.6171461  47.2915083
 124.3340603  29.4265946  48.7895041 133.6240360  41.2596031  53.2420855
 134.5486907  41.0538893  53.1045306 133.4555663  41.0112432  54.1510197
 126.5811923  27.4722590  57.4639543 126.2408744  26.6730403  57.8660222
 125.8750930  27.7724301  56.8916376 127.2328395  24.5571903  55.9166866
 128.0554464  24.0832381  55.7945756 127.4766459  25.3362387  56.4165552
 125.8736630  27.5860161  46.2129767 126.5944992  27.9641414  45.7093484
 125.2501934  28.3049038  46.3164745 130.0167752  28.2905310  47.1488100
 130.2331367  29.1729948  46.8476928 129.5361820  27.8991524  46.4193742
 124.7566974  31.2491023  53.7258844 124.6111555  31.5631327  54.6183126
 124.2792177  31.8675924  53.1729743 126.6163357  28.2393571  53.7739734
 126.6024925  27.3434665  53.4372032 127.3335785  28.2464235  54.4078020
 128.4689487  28.6730912  55.8192861 128.2107265  29.5947982  55.8177192
 127.9374528  28.2761346  56.5093325 133.4135676  41.7781699  48.5982947
 133.5872554  41.2128121  47.8456799 133.9064567  42.5782594  48.4162437
 119.2312636  33.7896368  56.6646505 118.6866104  34.5656176  56.7966780
 120.1091986  34.1367172  56.5065627 126.0200253  27.1207952  49.0427304
 126.1416164  26.1924598  49.2418191 125.7302295  27.1346638  48.1305619
 128.8891443  24.8062862  52.1794024 128.9113140  24.8702195  51.2246003
 129.3059502  23.9667371  52.3734530 139.2675067  34.5418122  50.2173246
 139.7106213  33.7925447  49.8192370 138.3901578  34.5328258  49.8346978
 134.4010849  41.0948463  45.6979845 135.0961753  41.7155156  45.9167159
 134.7433999  40.2443814  45.9732223 120.0178658  32.9166264  59.5576662
 119.2760394  33.0648899  60.1441293 119.6971402  33.1774530  58.6943412
 136.3002272  38.5448169  47.2267176 136.8253596  38.8835441  46.5016496
 136.2124624  37.6095184  47.0430310 127.9622321  42.4582242  59.3557052
 128.2709447  42.2131389  60.2279752 128.7597803  42.6628881  58.8675922
 127.9842933  44.6120152  51.5862429 127.5447923  44.1196531  52.2795285
 128.7351050  44.0693120  51.3454504 120.4635272  40.8031693  51.5887057
 121.2893291  40.5035465  51.2085700 120.1129324  40.0339315  52.0376846
 125.4316805  40.1558161  53.6584730 124.8096814  39.4928866  53.3586958
 126.1021672  40.1819293  52.9758378 118.6643877  38.7218019  52.5475990
 117.8275785  38.2940194  52.3659992 118.6367522  38.9150463  53.4846782
 125.5041332  28.6339949  63.2517236 125.5529488  29.5102072  62.8695006
 126.0463846  28.0917342  62.6788880 135.9896178  39.1781072  62.5318374
 135.1991722  39.1605211  61.9922873 135.7529532  39.7169366  63.2867410
 136.1094053  36.0273539  59.8451102 136.1592058  35.8623546  60.7866625
 136.0007976  35.1600798  59.4548983 124.9930312  38.7062084  47.1343191
 125.1418432  39.3897549  46.4809864 125.7996755  38.6867174  47.6492647
 133.3997815  32.0104467  61.1610409 134.3007678  31.8710932  60.8694407
 133.4745790  32.1758922  62.1008586 127.7340621  29.3871321  60.0063595
 126.8643930  29.6804888  59.7346184 127.9700101  29.9711766  60.7270859
 137.6112250  38.4470480  60.0893124 137.3197058  38.8100461  60.9256585
 136.9984381  37.7337489  59.9106456 138.8107932  36.0123360  52.6095694
 139.6454823  36.4513164  52.7733254 138.9467061  35.5362013  51.7903940
 135.8599438  33.5703095  58.5573182 136.3353560  33.7630741  57.7492033
 134.9365003  33.6262281  58.3116565 122.7482945  34.7327262  48.1404260
 122.5028987  33.8289592  48.3384470 122.9178859  34.7344412  47.1983738
 130.4379654  25.6050938  57.5229016 130.9561598  26.3411965  57.1975504
 130.0834787  25.9114932  58.3575775 122.0178592  30.4655620  45.6390421
 121.3247837  30.5399975  44.9830457 121.7730344  29.7015963  46.1611938
 130.6892249  22.0251221  53.0429912 130.9694002  21.3574410  53.6690339
 131.4742856  22.2180317  52.5304576 128.4925717  41.2010215  44.6054938
 127.9199684  41.8200402  44.1525410 129.0658511  41.7509577  45.1394860
 134.5601107  30.4468855  56.7901487 135.5118530  30.5466953  56.8113711
 134.3904557  29.6547124  57.2999572 132.5815486  27.5324438  56.9760888
 131.9865419  27.8129451  56.2807377 132.2965183  28.0218339  57.7477629
 131.7122977  41.4847365  45.7363521 132.6453650  41.4192927  45.9396396
 131.6246190  42.3203632  45.2778053 134.3410994  40.8013235  42.6967468
 134.2624625  40.4673099  43.5903226 135.1620660  41.2935003  42.6958941
 137.0389185  33.6674975  55.9043787 137.0065505  32.7290975  56.0903471
 137.6489808  33.7459011  55.1709612 128.8772516  32.5371028  41.9470991
 129.8231620  32.4077236  42.0159409 128.4986761  31.7985690  42.4240419
 137.1883673  30.4586018  55.9502070 136.6722722  29.6744475  55.7631999
 138.0723622  30.1304735  56.1148590 134.8494400  24.2027034  51.9097883
 134.6519221  23.8942122  52.7941215 135.4594106  24.9288673  52.0395813
 142.8565735  34.7290981  55.0449824 143.5869123  34.4676270  55.6057527
 142.2472680  33.9919703  55.0851892 140.9381032  32.8698844  55.6424275
 140.2114195  32.7354809  55.0340766 140.5228319  33.1775673  56.4480993
 128.7611208  36.5888774  63.4071648 129.6814218  36.7667373  63.6011694
 128.7260791  35.6444819  63.2551347 127.0615433  30.4621004  41.8825876
 126.1546888  30.1654117  41.9588590 127.3391414  30.1650822  41.0160162
 117.9793373  31.7827367  52.3324923 117.6596158  30.9292676  52.0399297
 117.4326801  31.9975946  53.0882890 121.7573281  34.4989808  56.0494429
 121.9759291  35.4306916  56.0682463 122.1699055  34.1397783  56.8349233
 128.6777499  25.0057894  48.0370117 127.8678227  24.6604979  48.4125364
 129.3661915  24.6965437  48.6257729 130.6068047  24.0835941  49.6594414
 131.1599085  24.5031394  50.3184437 130.8438133  23.1571689  49.7017370
 126.6301146  30.0723014  65.4397178 126.5297873  31.0217371  65.3709269
 126.4122688  29.7441253  64.5673248 125.8314217  27.3207939  42.0237855
 126.6933381  27.6462838  42.2833673 126.0164562  26.5339435  41.5110921
 117.8481633  35.4030279  54.3018044 117.1545105  34.9884232  53.7887999
 118.5954624  35.4450815  53.7051463 133.9846854  26.1936466  49.1673078
 133.4045523  26.8521270  48.7851131 133.7182787  25.3713810  48.7560496
 132.4350420  25.5941523  51.3694399 132.9350199  25.7058058  50.5608718
 133.0786028  25.2902576  52.0095207 126.4932416  33.5020153  64.2562240
 126.0099498  34.3020513  64.4626129 126.5793355  33.5128098  63.3029684
 119.7618376  35.3348533  52.1784059 119.7389064  35.4336220  51.2265942
 120.0719012  36.1813683  52.5001225 122.4205754  37.3924688  56.2930673
 123.3749007  37.3608630  56.2260605 122.2218277  36.9315311  57.1080899
 123.0105136  35.9625804  58.8601471 123.8298025  36.4569882  58.8836308
 123.2841943  35.0457772  58.8319039 132.7671732  28.3536556  48.2229427
 131.8797587  28.6386207  48.0049621 133.1825721  28.1930319  47.3756704
 136.1186268  28.3783077  51.9383766 136.8946658  28.8679529  52.2108383
 135.3934402  28.8041131  52.3955635 138.5558827  29.0910696  52.9957706
 139.1503317  28.8506432  52.2851015 138.6285410  28.3717827  53.6231243
 120.7755982  42.9344307  53.3100871 120.6410450  42.1744708  52.7438869
 120.3588045  43.6585207  52.8429660 131.9114945  38.1181231  42.3177447
 132.6150796  38.3231233  42.9335102 131.1877594  38.6857993  42.5826530
 132.7412756  33.8691092  48.4379717 132.6847957  34.3259643  47.5987349
 133.2941098  33.1081777  48.2602560 136.5517562  29.6580824  49.2629836
 136.2954496  29.2577460  50.0938044 135.9270430  30.3724618  49.1379975
 140.8629899  32.3976897  51.7701128 140.3029457  32.4670086  52.5432690
 140.2573403  32.2217882  51.0500624 123.9325108  43.8313624  53.5219314
 123.8157492  44.7759057  53.4198004 123.1117555  43.5287186  53.9105113
 133.8201643  38.5563760  44.3675907 134.6547247  38.1244958  44.1853381
 133.6585986  38.3845774  45.2952801 133.4747535  35.0595873  45.7332246
 133.4196339  34.8940145  44.7920690 132.8493590  35.7671906  45.8894436
 118.2640050  30.2963938  59.5593668 118.9098914  29.7862892  60.0480893
 118.0557201  31.0332619  60.1337093 130.7893442  37.3644785  65.0585809
 131.6584602  37.5385437  64.6972444 130.3100194  38.1839202  64.9361538
 126.7843660  24.5603982  45.3117564 126.7722330  25.5045822  45.4685835
 127.6767082  24.3774128  45.0177026 124.9579622  44.4841886  56.7375242
 125.8606869  44.5165496  57.0541737 124.7316992  43.5542337  56.7521578
 126.7133224  43.2372873  53.3985321 125.7628855  43.2374734  53.2849693
 127.0165711  42.4905607  52.8821356 130.5995780  21.1546759  49.5663501
 129.8328176  20.6005246  49.7120183 131.0106485  21.2268628  50.4277653
 122.6037541  27.4431555  63.6568682 123.4669003  27.0868360  63.8672007
 122.0302952  27.1045450  64.3444087 142.4485918  49.0733411  54.4631083
 143.0864328  48.9540158  53.7594423 142.3306761  50.0214255  54.5219036
 139.2575624  49.0260839  54.3992608 138.9194136  48.9101904  53.5113143
 140.1265392  48.6252004  54.3793614 135.1162440  50.8796316  50.3889499
 134.5527305  50.7886253  49.6205787 135.0014835  50.0596220  50.8691992
 139.7395407  50.1795691  60.3578814 139.7284048  49.7848489  59.4859317
 139.9016047  49.4461763  60.9512585 132.6626872  52.3747507  53.2273719
 133.4548164  52.0338332  52.8120019 132.9023522  52.4842482  54.1475873
 140.6961999  54.5467283  45.7003964 140.0449978  55.1321364  45.3137978
 141.4906361  55.0773478  45.7599001 134.6217626  51.6356420  46.0991098
 135.3948502  51.0885407  45.9603974 134.9743025  52.5000670  46.3105560
 136.4602668  52.9632803  59.3057998 136.1692534  53.8678434  59.1904664
 137.0959653  53.0049330  60.0202067 137.3858875  50.3409651  55.8959357
 137.9822447  50.1165674  55.1816320 137.4433847  49.5994397  56.4984805
 136.9583904  47.7949087  43.7309548 137.2109424  47.2730608  42.9693011
 136.0208463  47.6315232  43.8336232 142.0027186  46.7984865  51.5384291
 142.7890276  46.3804288  51.1874708 142.2665891  47.7030957  51.7065940
 142.1737264  52.2357715  46.2372948 141.5383097  52.3092342  46.9493853
 141.8434670  52.8251314  45.5592027 147.4035614  46.7360098  52.4417270
 148.1360785  46.1659315  52.6755099 146.6474969  46.3481699  52.8823776
 136.6780192  49.6977192  45.9333923 136.5616450  49.0222096  46.6015007
 136.7882452  49.2109566  45.1166076 139.0211733  49.1587340  49.6380612
 138.6569940  48.6317961  50.3493534 139.8778849  48.7685809  49.4647098
 144.9261034  40.4481672  56.9011879 144.5944359  41.3177083  56.6773094
 144.3306647  40.1317956  57.5805909 138.6617220  44.1877239  44.6341961
 138.8291623  45.0557476  45.0012432 138.4714389  44.3504521  43.7103250
 141.4192553  52.6494218  56.3007791 141.1193276  53.5519257  56.1923599
 141.0743613  52.3826401  57.1528944 134.8705035  49.1008015  52.3344496
 133.9455531  48.9684229  52.5422187 135.1189448  49.8802234  52.8314438
 144.8189697  45.1676758  53.9805229 143.9106575  45.0992167  53.6863990
 144.7677293  45.6448703  54.8087054 138.6406441  46.6434897  45.6188628
 138.5206066  47.0891948  46.4574108 137.9459029  46.9920214  45.0602166
 132.2313846  48.7441289  53.1688285 132.3606227  48.9975768  54.0827696
 131.5511297  49.3368997  52.8492940 136.4013333  59.4138539  49.2678759
 136.3237363  60.3646364  49.3467240 135.7974977  59.0684411  49.9253685
 138.8930563  46.5866404  61.9240126 138.1163897  47.1460324  61.9142991
 139.5321126  47.0723187  62.4454996 146.6851344  43.3693197  55.7583103
 146.0425724  43.6625730  55.1122897 146.1806272  43.2546117  56.5636299
 144.3391507  47.1156370  46.4468962 145.2509363  47.3483757  46.2716659
 143.8301154  47.6993414  45.8844040 137.1476935  49.3951857  61.4858093
 137.8891620  49.9336901  61.2092916 136.4413921  50.0218146  61.6429645
 142.6232275  51.5380998  60.0830254 143.0315631  51.0963408  59.3384887
 141.9009536  50.9633625  60.3364447 138.9763345  46.4753605  57.4563811
 139.8224540  46.8993018  57.5998460 138.9161983  45.8187229  58.1502374
 142.9461090  52.0982188  53.8382543 142.3169952  52.2627903  53.1358611
 142.5586752  52.5123798  54.6093507 146.8250321  53.0336626  51.1926907
 146.1401360  53.4135528  50.6423940 146.9094171  53.6431953  51.9258855
 142.1262790  44.1357973  59.1144985 141.8823722  44.8900033  58.5779261
 142.4022721  44.5143321  59.9492232 144.0801253  50.6796585  57.7922251
 144.2918148  51.3228345  57.1156632 144.0331001  49.8458902  57.3244181
 141.6827482  43.2914406  54.6958823 140.8211961  43.5895660  54.9875560
 141.7089917  43.5084805  53.7639855 138.4989051  51.8356597  51.1032628
 138.9627397  52.1144299  50.3137251 138.2345850  50.9340041  50.9205719
 135.3913132  51.3828078  54.0412392 135.9614490  51.8115346  53.4029876
 135.9821244  51.1010663  54.7396577 137.4357937  47.9579749  47.9122193
 138.1381981  48.4100793  48.3796120 137.1038566  47.3163568  48.5402087
 135.8838299  46.5491506  62.2873403 135.2536960  47.2307786  62.5208800
 135.7774387  46.4374587  61.3426541 131.1783271  46.2163302  53.2139327
 130.3882325  46.4720830  52.7379438 131.6694519  47.0311639  53.3191368
 145.1947081  53.5568541  55.9644608 146.0164525  53.1548728  55.6827290
 145.1909484  53.4536775  56.9160724 133.1298017  46.5807881  50.1722804
 132.3329180  46.6926575  50.6906299 132.9023609  46.9194533  49.3063694
 138.9603684  53.1052584  58.1205318 139.0248117  53.5672991  58.9563490
 138.2514608  52.4749949  58.2487628 129.4620974  46.4693792  55.6454318
 129.7129013  47.3540802  55.9111894 129.9980523  46.2898394  54.8729410
 153.2853074  49.9007289  52.3129579 152.5316782  49.3314687  52.1573584
 153.4200615  49.8669954  53.2600214 138.6751702  54.7720691  47.9884299
 138.5397377  55.6172227  48.4169147 139.2161515  54.9739969  47.2250232
 135.1619042  40.8512271  64.6498654 134.7685987  40.2978470  65.3246298
 135.9785182  41.1622850  65.0405171 132.1281099  52.2896130  48.5612224
 132.6405620  53.0839380  48.7117788 132.7803812  51.5922420  48.4945825
 133.9375984  55.4061886  50.6434977 134.1142613  56.3279851  50.4555961
 134.7332818  55.0920305  51.0729357 138.0787003  42.2670150  62.2418910
 138.8196716  42.8677304  62.1623373 138.3104926  41.5247788  61.6836953
 133.2228341  47.4526518  60.5197140 133.1081856  46.5511775  60.8204239
 132.3672858  47.6990214  60.1681957 140.3020178  55.3944258  62.1184641
 139.8584033  54.6080637  61.8005545 140.9637392  55.5823409  61.4528532
 135.0607300  56.9240060  56.6445319 135.6114725  56.7957123  55.8722313
 134.2218776  57.2234949  56.2940212 142.4001417  55.6747058  60.1466042
 142.3819892  56.4955939  59.6546311 143.3221337  55.5501133  60.3716183
 138.8574471  53.1891187  60.9889550 139.3902808  52.4279476  60.7588858
 138.3288552  52.8964839  61.7313705 142.0244166  38.2951253  56.5183192
 141.6808435  39.1852895  56.4422303 142.3923128  38.1052911  55.6552777
 130.0930016  50.6184784  49.3371794 130.9305238  51.0281792  49.1205502
 130.2708284  49.6784226  49.3071988 141.9894448  48.2859864  45.0255627
 141.4741072  49.0564469  45.2644015 141.7171757  47.6125001  45.6488689
 139.5741559  43.1309565  50.0840866 138.7183156  42.7416416  49.9046504
 139.9868511  43.2101526  49.2240651 141.1040706  40.6655909  54.4832425
 140.6005502  40.6286044  53.6700231 141.3971313  41.5748651  54.5429082
 137.3483592  40.7494638  53.4898607 138.2136589  40.5537447  53.1304497
 137.4161101  40.5204990  54.4167964 146.9628723  51.0392219  46.9608801
 146.1858165  50.7003379  46.5163963 147.6420204  51.0444842  46.2863766
 141.7780752  46.1586957  46.8515408 141.4730887  46.4733106  47.7025552
 142.7311194  46.2368376  46.8942741 140.2227183  52.3177180  48.5008362
 139.6948545  51.5829939  48.1881600 139.7214686  53.0951856  48.2548331
 145.2020029  50.5126200  53.6175409 144.5443704  51.2025462  53.7055537
 146.0060429  50.9022632  53.9609395 134.9545911  42.9796846  50.8614974
 135.5289663  42.7572028  50.1288167 135.5416893  43.0485541  51.6143575
 144.0125488  48.8670573  51.6679350 144.5257370  49.5000565  52.1701060
 144.6626712  48.2671769  51.3022711 135.2815498  45.0101307  44.8810859
 134.4452810  45.3475994  45.2020134 135.1420268  44.8750287  43.9437996
 137.2568579  39.8538095  49.5890043 136.6032991  39.5387112  48.9646658
 137.2149053  39.2313836  50.3149866 138.3679784  50.1357390  41.5043335
 137.4606845  49.9046644  41.7034484 138.8650816  49.3395009  41.6917317
 141.2747862  58.8454897  44.4240022 140.6009561  59.1486594  45.0324979
 141.6613684  59.6483978  44.0745479 140.4906319  46.3420029  53.9137691
 139.5728880  46.5634976  53.7559379 140.9066463  46.4166339  53.0549398
 141.2741367  47.7411444  49.0440371 142.0213186  48.2532842  48.7347493
 141.5432956  47.4195497  49.9044765 139.5468017  50.2369985  46.0267326
 138.6379236  49.9529018  46.1239795 139.5763101  50.6569064  45.1670632
 144.7787284  53.8476575  49.7958493 144.3249612  53.0067484  49.8523684
 144.1481251  54.4837973  50.1333273 143.7220204  44.7768561  51.0259161
 142.9842961  44.2645947  51.3569403 143.9746978  44.3368942  50.2142437
 143.2220224  55.6853071  50.7308311 143.5143198  56.2458128  50.0120677
 143.7318844  55.9781632  51.4861470 143.8231831  37.5544813  51.6200930
 144.1290708  36.6942176  51.3326845 144.5484436  38.1462433  51.4199924
 130.1156187  47.9575499  50.0082528 129.9180587  47.3644860  49.2833594
 129.5602851  47.6527709  50.7258467 138.0952911  47.8498606  52.1277121
 138.1501521  46.8972442  52.0519597 137.2844113  48.0058045  52.6118419
 139.2444105  51.7778729  43.3655404 138.8063535  51.0614588  42.9061041
 139.9854546  52.0054844  42.8040496 136.0345271  46.4675665  49.8867500
 135.2213137  46.7669836  50.2932692 136.5304265  46.0731354  50.6041982
 138.1853849  56.4633422  51.8201764 138.1430028  56.6894269  50.8910296
 139.1016548  56.2296797  51.9687566 141.6319483  46.9317490  58.7182394
 141.9868870  47.1588963  59.5776859 142.2791614  47.2635867  58.0959649
 147.3617220  50.0535926  49.4231723 147.2235118  50.2437522  48.4952912
 147.0053438  50.8155309  49.8799774 135.5259346  44.0394021  55.5028735
 136.1658725  43.8982780  54.8051698 134.6936876  43.7528534  55.1267337
 147.3886599  52.1212453  54.4342994 147.8223106  52.0287742  55.2826048
 148.1018180  52.0969953  53.7963010 136.3019650  53.3396451  51.6163727
 137.0960248  52.8446771  51.4146302 135.5911342  52.8114314  51.2531433
 141.1214494  55.7214547  55.9676095 141.1751516  56.2905483  56.7353811
 140.2529275  55.8916432  55.6030132 132.6102413  47.4839533  47.6923480
 131.6800001  47.4223989  47.9093442 132.7059885  46.9615486  46.8960121
 132.5287962  44.0094346  50.2801722 132.7894779  44.9239679  50.1710882
 133.3505134  43.5418788  50.4298334 134.0012888  45.4232103  57.4500546
 134.6735941  45.2149465  56.8013195 133.1742674  45.2254189  57.0105778
 148.2502149  52.1636153  56.9675880 148.4438039  53.0681964  57.2135155
 148.1502767  51.7043572  57.8014465 139.9038460  42.0494044  59.4666207
 139.2566375  42.7483994  59.3730683 140.6739475  42.4830188  59.8342455
 143.3117257  52.3142896  62.5416760 143.1602764  52.0853448  61.6246844
 143.3021937  53.2713498  62.5548105 140.0802594  49.8874809  57.5263027
 141.0094654  50.0385969  57.3531994 139.6593624  49.9758830  56.6711673
 138.8790926  53.9125473  55.2961564 138.7402011  53.5444258  56.1687502
 138.0905522  54.4273113  55.1245522 139.4739078  59.0134570  46.6387101
 139.6490833  58.5422613  47.4532723 138.7871866  59.6400336  46.8668362
 140.4296141  53.2907076  52.6850402 140.0945973  53.2507846  53.5808052
 139.9300086  52.6251792  52.2120812 134.4040385  48.6974706  58.2102983
 134.2660183  47.9654945  58.8114522 135.3145308  48.6083606  57.9287171
 143.3655332  50.6363110  42.9587462 142.7484503  49.9109939  42.8620514
 142.8971821  51.3972471  42.6154536 137.0322685  48.4094665  57.6986663
 137.7422304  47.7687858  57.6573281 136.9891994  48.6607560  58.6212844
 145.0209464  55.3462019  60.6193242 144.9622010  54.6621239  59.9523825
 145.4228982  56.0881009  60.1673868 135.7451619  45.3959883  59.5182302
 135.2088976  44.9450622  60.1703899 135.1568328  45.5305792  58.7752767
 134.0400163  62.1623933  53.4126961 134.2796761  62.7942457  54.0905980
 133.1969359  61.8111973  53.6992320 135.1553878  44.8548535  42.0808766
 134.2783345  44.7337335  41.7171013 135.6311631  44.0634613  41.8287655
 145.0226871  53.3101603  58.8507222 144.1353650  52.9727524  58.9733621
 145.5925422  52.5784634  59.0875987 126.6756018  49.6425694  52.1750273
 127.3627058  49.3287424  51.5871288 126.5204147  50.5467059  51.9017525
 131.4790741  44.5315891  56.6035297 131.3948929  43.9241560  55.8685707
 130.6573447  45.0224909  56.6044793 138.5528025  57.9703055  55.8168465
 138.4798196  58.7758026  56.3287770 138.1105418  58.1695021  54.9916486
 138.3417804  57.2074825  49.3271287 137.5585326  57.7496505  49.4209511
 139.0410550  57.7248805  49.7265528 141.6514455  43.0169454  51.9705492
 142.1483154  42.2639417  51.6506562 140.8801436  43.0533771  51.4048701
 149.5044212  48.7209820  53.6123783 149.4934088  49.6034535  53.2417716
 148.6361591  48.3681371  53.4178320 141.0126708  57.8689889  57.9726624
 141.7254680  58.5037354  57.9002525 140.5216737  57.9653755  57.1566625
 142.7344235  51.7741142  49.5443915 141.8000514  51.8942604  49.3748620
 142.9120904  50.8713608  49.2803925 138.2349423  45.1586837  51.6977176
 137.8647211  44.6057878  52.3858082 138.7308516  44.5544971  51.1452177
 146.1216787  47.6158461  50.0793949 146.5877239  48.4486453  50.0054252
 146.5724287  47.1503443  50.7839208 136.0638622  55.6184332  58.7932194
 136.7648081  56.2520815  58.9461589 135.5933737  55.9599064  58.0327834
 144.1893018  53.9602282  47.0780101 144.4652862  53.8458877  47.9873976
 143.3197516  53.5619767  47.0392275 144.0933449  39.9839048  54.1184851
 143.1796529  40.2143275  54.2867058 144.5226551  40.0677492  54.9698883
 143.8639908  48.1728940  56.6184745 143.2111358  48.4204847  55.9637198
 144.2420288  47.3593078  56.2847222 140.8247082  58.2088633  50.7212915
 141.0069476  57.3910289  51.1840667 141.6480068  58.4256325  50.2837805
 141.1589247  57.1356818  47.9827964 141.6877014  56.6249273  47.3698126
 141.4217467  56.8199348  48.8473497 139.9127481  48.9148751  63.1050782
 139.2368118  48.8142880  63.7753157 140.7355115  48.7587965  63.5686779
 131.6606340  55.1520688  55.7263297 132.2459777  54.4064375  55.8591201
 131.4631178  55.4624644  56.6099961 134.5144995  58.1871935  50.7425739
 133.8455370  58.6718063  50.2589780 134.3757865  58.4341155  51.6569118
 126.2523995  47.7226288  54.4467740 126.2908094  47.1889878  55.2404858
 125.7464287  47.1961493  53.8278717 138.6550264  60.2215678  57.3408398
 139.2068572  60.3847300  58.1057483 138.9956457  60.8120116  56.6688423
 133.6314757  42.5690828  57.9430283 133.6956083  43.4305659  57.5307680
 133.5681877  41.9564830  57.2102641 133.1067029  44.6413961  61.5903317
 133.7339068  44.2591038  62.2040841 132.2494948  44.4228163  61.9559009
 143.5061138  55.0476936  63.1957052 144.0501042  55.6606894  62.7012007
 142.9247983  55.6056514  63.7124065 129.8832572  46.4490390  47.5221672
 130.1786013  45.5401068  47.4688725 128.9820608  46.4278129  47.2002674
 141.7918651  58.1697654  54.3272080 141.6669790  57.3687394  53.8183026
 142.4497742  58.6643847  53.8386050 133.4126819  44.5246386  53.5049220
 132.6913405  45.1382354  53.3656694 134.2020075  45.0604151  53.4265866
 143.8553559  55.9706674  55.9551630 142.9083895  55.8512025  55.8829957
 144.2036332  55.0829172  56.0377892 136.2153133  41.8600813  59.7789872
 136.7387535  42.1063110  60.5416181 135.9965466  42.6920848  59.3593009
 131.6120414  44.1304488  47.6460997 131.2833120  43.2501866  47.4636103
 131.9659784  44.0752156  48.5337386 140.8599993  55.7659390  52.1555982
 140.7124955  54.8376098  52.3363552 141.6853486  55.7879481  51.6713058
 134.7262237  44.4177457  48.0136475 135.0658309  44.9463379  47.2915083
 135.1734357  44.7557863  48.7895041 144.4634114  56.5887949  53.2420855
 145.3880662  56.3830810  53.1045306 144.2949418  56.3404350  54.1510197
 137.4205678  42.8014508  57.4639543 137.0802498  42.0022321  57.8660222
 136.7144684  43.1016219  56.8916376 138.0722150  39.8863820  55.9166866
 138.8948219  39.4124299  55.7945756 138.3160213  40.6654304  56.4165552
 136.7130384  42.9152079  46.2129767 137.4338747  43.2933332  45.7093484
 136.0895688  43.6340956  46.3164745 140.8561507  43.6197228  47.1488100
 141.0725121  44.5021866  46.8476928 140.3755574  43.2283441  46.4193742
 135.5960728  46.5782941  53.7258844 135.4505309  46.8923244  54.6183126
 135.1185932  47.1967841  53.1729743 137.4557111  43.5685489  53.7739734
 137.4418680  42.6726582  53.4372032 138.1729539  43.5756153  54.4078020
 139.3083242  44.0022829  55.8192861 139.0501020  44.9239900  55.8177192
 138.7768282  43.6053264  56.5093325 144.2529431  57.1073616  48.5982947
 144.4266308  56.5420039  47.8456799 144.7458322  57.9074511  48.4162437
 130.0706391  49.1188286  56.6646505 129.5259859  49.8948093  56.7966780
 130.9485740  49.4659090  56.5065627 136.8594007  42.4499869  49.0427304
 136.9809918  41.5216516  49.2418191 136.5696050  42.4638555  48.1305619
 139.7285198  40.1354780  52.1794024 139.7506894  40.1994113  51.2246003
 140.1453257  39.2959288  52.3734530 150.1068822  49.8710039  50.2173246
 150.5499968  49.1217365  49.8192370 149.2295332  49.8620176  49.8346978
 145.2404603  56.4240381  45.6979845 145.9355508  57.0447074  45.9167159
 145.5827753  55.5735732  45.9732223 130.8572412  48.2458182  59.5576662
 130.1154148  48.3940817  60.1441293 130.5365157  48.5066447  58.6943412
 147.1396026  53.8740086  47.2267176 147.6647350  54.2127359  46.5016496
 147.0518379  52.9387102  47.0430310 138.8016075  57.7874160  59.3557052
 139.1103201  57.5423307  60.2279752 139.5991557  57.9920798  58.8675922
 138.8236687  59.9412070  51.5862429 138.3841677  59.4488448  52.2795285
 139.5744804  59.3985037  51.3454504 131.3029026  56.1323611  51.5887057
 132.1287046  55.8327382  51.2085700 130.9523078  55.3631233  52.0376846
 136.2710559  55.4850079  53.6584730 135.6490568  54.8220784  53.3586958
 136.9415426  55.5111211  52.9758378 129.5037631  54.0509937  52.5475990
 128.6669539  53.6232111  52.3659992 129.4761277  54.2442380  53.4846782
 136.3435087  43.9631867  63.2517236 136.3923242  44.8393990  62.8695006
 136.8857601  43.4209260  62.6788880 146.8289932  54.5072990  62.5318374
 146.0385476  54.4897129  61.9922873 146.5923287  55.0461284  63.2867410
 146.9487807  51.3565456  59.8451102 146.9985812  51.1915464  60.7866625
 146.8401731  50.4892715  59.4548983 135.8324066  54.0354002  47.1343191
 135.9812186  54.7189466  46.4809864 136.6390510  54.0159092  47.6492647
 144.2391570  47.3396384  61.1610409 145.1401433  47.2002849  60.8694407
 144.3139544  47.5050839  62.1008586 138.5734375  44.7163239  60.0063595
 137.7037685  45.0096805  59.7346184 138.8093856  45.3003684  60.7270859
 148.4506004  53.7762398  60.0893124 148.1590813  54.1392378  60.9256585
 147.8378136  53.0629406  59.9106456 149.6501687  51.3415278  52.6095694
 150.4848578  51.7805082  52.7733254 149.7860815  50.8653931  51.7903940
 146.6993193  48.8995013  58.5573182 147.1747314  49.0922659  57.7492033
 145.7758758  48.9554198  58.3116565 133.5876699  50.0619180  48.1404260
 133.3422741  49.1581510  48.3384470 133.7572614  50.0636330  47.1983738
 141.2773409  40.9342856  57.5229016 141.7955353  41.6703883  57.1975504
 140.9228542  41.2406849  58.3575775 132.8572347  45.7947537  45.6390421
 132.1641592  45.8691892  44.9830457 132.6124099  45.0307881  46.1611938
 141.5286003  37.3543139  53.0429912 141.8087757  36.6866328  53.6690339
 142.3136610  37.5472234  52.5304576 139.3319472  56.5302133  44.6054938
 138.7593439  57.1492320  44.1525410 139.9052265  57.0801494  45.1394860
 145.3994862  45.7760773  56.7901487 146.3512284  45.8758870  56.8113711
 145.2298312  44.9839041  57.2999572 143.4209241  42.8616356  56.9760888
 142.8259173  43.1421369  56.2807377 143.1358938  43.3510257  57.7477629
 142.5516731  56.8139283  45.7363521 143.4847405  56.7484844  45.9396396
 142.4639944  57.6495550  45.2778053 145.1804748  56.1305153  42.6967468
 145.1018380  55.7965017  43.5903226 146.0014415  56.6226921  42.6958941
 147.8782939  48.9966892  55.9043787 147.8459259  48.0582893  56.0903471
 148.4883563  49.0750929  55.1709612 139.7166270  47.8662945  41.9470991
 140.6625375  47.7369153  42.0159409 139.3380515  47.1277607  42.4240419
 148.0277428  45.7877936  55.9502070 147.5116476  45.0036392  55.7631999
 148.9117376  45.4596652  56.1148590 145.6888155  39.5318951  51.9097883
 145.4912976  39.2234040  52.7941215 146.2987860  40.2580590  52.0395813
 153.6959489  50.0582899  55.0449824 154.4262878  49.7968187  55.6057527
 153.0866435  49.3211621  55.0851892 151.7774786  48.1990762  55.6424275
 151.0507950  48.0646727  55.0340766 151.3622073  48.5067590  56.4480993
 139.6004963  51.9180691  63.4071648 140.5207972  52.0959290  63.6011694
 139.5654546  50.9736737  63.2551347 137.9009187  45.7912922  41.8825876
 136.9940643  45.4946034  41.9588590 138.1785168  45.4942740  41.0160162
 128.8187128  47.1119285  52.3324923 128.4989912  46.2584593  52.0399297
 128.2720556  47.3267863  53.0882890 132.5967035  49.8281726  56.0494429
 132.8153045  50.7598834  56.0682463 133.0092809  49.4689700  56.8349233
 139.5171253  40.3349811  48.0370117 138.7071981  39.9896896  48.4125364
 140.2055670  40.0257355  48.6257729 141.4461801  39.4127858  49.6594414
 141.9992840  39.8323312  50.3184437 141.6831888  38.4863606  49.7017370
 137.4694901  45.4014932  65.4397178 137.3691627  46.3509289  65.3709269
 137.2516443  45.0733171  64.5673248 136.6707972  42.6499857  42.0237855
 137.5327136  42.9754755  42.2833673 136.8558316  41.8631353  41.5110921
 128.6875388  50.7322197  54.3018044 127.9938859  50.3176149  53.7887999
 129.4348379  50.7742733  53.7051463 144.8240608  41.5228383  49.1673078
 144.2439277  42.1813187  48.7851131 144.5576541  40.7005728  48.7560496
 143.2744175  40.9233441  51.3694399 143.7743953  41.0349976  50.5608718
 143.9179783  40.6194494  52.0095207 137.3326171  48.8312071  64.2562240
 136.8493252  49.6312431  64.4626129 137.4187110  48.8420016  63.3029684
 130.6012130  50.6640450  52.1784059 130.5782818  50.7628138  51.2265942
 130.9112767  51.5105601  52.5001225 133.2599508  52.7216605  56.2930673
 134.2142762  52.6900548  56.2260605 133.0612032  52.2607229  57.1080899
 133.8498890  51.2917721  58.8601471 134.6691779  51.7861800  58.8836308
 134.1235698  50.3749690  58.8319039 143.6065486  43.6828474  48.2229427
 142.7191341  43.9678124  48.0049621 144.0219475  43.5222237  47.3756704
 146.9580023  43.7074995  51.9383766 147.7340413  44.1971447  52.2108383
 146.2328157  44.1333049  52.3955635 149.3952581  44.4202614  52.9957706
 149.9897072  44.1798350  52.2851015 149.4679165  43.7009745  53.6231243
 131.6149737  58.2636225  53.3100871 131.4804205  57.5036626  52.7438869
 131.1981799  58.9877125  52.8429660 142.7508700  53.4473148  42.3177447
 143.4544550  53.6523151  42.9335102 142.0271349  54.0149910  42.5826530
 143.5806510  49.1983010  48.4379717 143.5241712  49.6551561  47.5987349
 144.1334853  48.4373694  48.2602560 147.3911316  44.9872742  49.2629836
 147.1348250  44.5869377  50.0938044 146.7664184  45.7016535  49.1379975
 151.7023654  47.7268815  51.7701128 151.1423212  47.7962004  52.5432690
 151.0967157  47.5509799  51.0500624 134.7718863  59.1605542  53.5219314
 134.6551247  60.1050974  53.4198004 133.9511309  58.8579103  53.9105113
 144.6595397  53.8855678  44.3675907 145.4941001  53.4536876  44.1853381
 144.4979740  53.7137691  45.2952801 144.3141289  50.3887791  45.7332246
 144.2590093  50.2232062  44.7920690 143.6887345  51.0963824  45.8894436
 129.1033804  45.6255855  59.5593668 129.7492668  45.1154809  60.0480893
 128.8950956  46.3624537  60.1337093 141.6287197  52.6936703  65.0585809
 142.4978356  52.8677355  64.6972444 141.1493948  53.5131120  64.9361538
 137.6237415  39.8895900  45.3117564 137.6116085  40.8337740  45.4685835
 138.5160837  39.7066045  45.0177026 135.7973377  59.8133804  56.7375242
 136.7000624  59.8457414  57.0541737 135.5710747  58.8834255  56.7521578
 137.5526979  58.5664790  53.3985321 136.6022610  58.5666652  53.2849693
 137.8559465  57.8197525  52.8821356 141.4389534  36.4838677  49.5663501
 140.6721930  35.9297163  49.7120183 141.8500239  36.5560545  50.4277653
 133.4431295  42.7723472  63.6568682 134.3062757  42.4160277  63.8672007
 132.8696706  42.4337367  64.3444087 153.2879672  64.4025329  54.4631083
 153.9258082  64.2832076  53.7594423 153.1700515  65.3506173  54.5219036
 150.0969379  64.3552757  54.3992608 149.7587890  64.2393822  53.5113143
 150.9659147  63.9543922  54.3793614 145.9556194  66.2088233  50.3889499
 145.3921059  66.1178170  49.6205787 145.8408589  65.3888138  50.8691992
 150.5789162  65.5087609  60.3578814 150.5677802  65.1140407  59.4859317
 150.7409801  64.7753681  60.9512585 143.5020626  67.7039425  53.2273719
 144.2941918  67.3630249  52.8120019 143.7417276  67.8134400  54.1475873
 151.5355753  69.8759201  45.7003964 150.8843733  70.4613281  45.3137978
 152.3300116  70.4065396  45.7599001 145.4611380  66.9648338  46.0991098
 146.2342256  66.4177325  45.9603974 145.8136779  67.8292587  46.3105560
 147.2996423  68.2924720  59.3057998 147.0086289  69.1970351  59.1904664
 147.9353407  68.3341248  60.0202067 148.2252630  65.6701569  55.8959357
 148.8216202  65.4457591  55.1816320 148.2827601  64.9286314  56.4984805
 147.7977658  63.1241004  43.7309548 148.0503179  62.6022525  42.9693011
 146.8602217  62.9607150  43.8336232 152.8420941  62.1276783  51.5384291
 153.6284030  61.7096206  51.1874708 153.1059645  63.0322875  51.7065940
 153.0131018  67.5649633  46.2372948 152.3776851  67.6384259  46.9493853
 152.6828425  68.1543232  45.5592027 158.2429368  62.0652016  52.4417270
 158.9754540  61.4951233  52.6755099 157.4868724  61.6773616  52.8823776
 147.5173947  65.0269110  45.9333923 147.4010205  64.3514014  46.6015007
 147.6276207  64.5401484  45.1166076 149.8605488  64.4879257  49.6380612
 149.4963695  63.9609878  50.3493534 150.7172604  64.0977726  49.4647098
 155.7654788  55.7773590  56.9011879 155.4338113  56.6469001  56.6773094
 155.1700402  55.4609874  57.5805909 149.5010975  59.5169157  44.6341961
 149.6685377  60.3849393  45.0012432 149.3108144  59.6796439  43.7103250
 152.2586308  67.9786136  56.3007791 151.9587031  68.8811175  56.1923599
 151.9137367  67.7118319  57.1528944 145.7098789  64.4299933  52.3344496
 144.7849286  64.2976147  52.5422187 145.9583203  65.2094152  52.8314438
 155.6583452  60.4968676  53.9805229 154.7500329  60.4284084  53.6863990
 155.6071047  60.9740621  54.8087054 149.4800196  61.9726814  45.6188628
 149.3599821  62.4183865  46.4574108 148.7852784  62.3212132  45.0602166
 143.0707600  64.0733206  53.1688285 143.1999982  64.3267685  54.0827696
 142.3905052  64.6660914  52.8492940 147.2407088  74.7430456  49.2678759
 147.1631117  75.6938281  49.3467240 146.6368731  74.3976329  49.9253685
 149.7324317  61.9158322  61.9240126 148.9557652  62.4752242  61.9142991
 150.3714881  62.4015105  62.4454996 157.5245098  58.6985114  55.7583103
 156.8819478  58.9917648  55.1122897 157.0200027  58.5838035  56.5636299
 155.1785262  62.4448288  46.4468962 156.0903118  62.6775674  46.2716659
 154.6694909  63.0285332  45.8844040 147.9870690  64.7243775  61.4858093
 148.7285374  65.2628819  61.2092916 147.2807675  65.3510064  61.6429645
 153.4626029  66.8672915  60.0830254 153.8709385  66.4255326  59.3384887
 152.7403291  66.2925543  60.3364447 149.8157099  61.8045522  57.4563811
 150.6618295  62.2284936  57.5998460 149.7555737  61.1479147  58.1502374
 153.7854844  67.4274106  53.8382543 153.1563706  67.5919820  53.1358611
 153.3980506  67.8415716  54.6093507 157.6644076  68.3628544  51.1926907
 156.9795114  68.7427445  50.6423940 157.7487925  68.9723871  51.9258855
 152.9656545  59.4649891  59.1144985 152.7217477  60.2191951  58.5779261
 153.2416475  59.8435238  59.9492232 154.9195008  66.0088503  57.7922251
 155.1311903  66.6520263  57.1156632 154.8724756  65.1750820  57.3244181
 152.5221237  58.6206324  54.6958823 151.6605716  58.9187577  54.9875560
 152.5483671  58.8376723  53.7639855 149.3382806  67.1648514  51.1032628
 149.8021151  67.4436217  50.3137251 149.0739604  66.2631959  50.9205719
 146.2306887  66.7119996  54.0412392 146.8008244  67.1407264  53.4029876
 146.8214999  66.4302580  54.7396577 148.2751692  63.2871667  47.9122193
 148.9775735  63.7392710  48.3796120 147.9432320  62.6455485  48.5402087
 146.7232054  61.8783423  62.2873403 146.0930714  62.5599704  62.5208800
 146.6168141  61.7666505  61.3426541 142.0177026  61.5455219  53.2139327
 141.2276080  61.8012748  52.7379438 142.5088273  62.3603557  53.3191368
 156.0340835  68.8860458  55.9644608 156.8558279  68.4840646  55.6827290
 156.0303238  68.7828693  56.9160724 143.9691771  61.9099798  50.1722804
 143.1722935  62.0218493  50.6906299 143.7417364  62.2486451  49.3063694
 149.7997439  68.4344502  58.1205318 149.8641871  68.8964909  58.9563490
 149.0908363  67.8041867  58.2487628 140.3014729  61.7985710  55.6454318
 140.5522767  62.6832720  55.9111894 140.8374277  61.6190311  54.8729410
 149.5145457  70.1012609  47.9884299 149.3791131  70.9464145  48.4169147
 150.0555269  70.3031887  47.2250232 146.0012796  56.1804189  64.6498654
 145.6079742  55.6270388  65.3246298 146.8178937  56.4914767  65.0405171
 142.9674854  67.6188047  48.5612224 143.4799375  68.4131297  48.7117788
 143.6197567  66.9214338  48.4945825 144.7769739  70.7353803  50.6434977
 144.9536367  71.6571768  50.4555961 145.5726572  70.4212223  51.0729357
 148.9180757  57.5962068  62.2418910 149.6590471  58.1969221  62.1623373
 149.1498680  56.8539706  61.6836953 144.0622095  62.7818435  60.5197140
 143.9475610  61.8803693  60.8204239 143.2066613  63.0282132  60.1681957
 151.1413933  70.7236176  62.1184641 150.6977787  69.9372554  61.8005545
 151.8031147  70.9115326  61.4528532 145.9001054  72.2531977  56.6445319
 146.4508479  72.1249041  55.8722313 145.0612530  72.5526866  56.2940212
 153.2395171  71.0038976  60.1466042 153.2213646  71.8247857  59.6546311
 154.1615091  70.8793051  60.3716183 149.6968225  68.5183105  60.9889550
 150.2296562  67.7571393  60.7588858 149.1682306  68.2256757  61.7313705
 152.8637920  53.6243171  56.5183192 152.5202190  54.5144813  56.4422303
 153.2316883  53.4344829  55.6552777 140.9323771  65.9476702  49.3371794
 141.7698993  66.3573710  49.1205502 141.1102038  65.0076144  49.3071988
 152.8288203  63.6151782  45.0255627 152.3134826  64.3856387  45.2644015
 152.5565511  62.9416918  45.6488689 150.4135314  58.4601483  50.0840866
 149.5576910  58.0708333  49.9046504 150.8262266  58.5393444  49.2240651
 151.9434461  55.9947826  54.4832425 151.4399256  55.9577961  53.6700231
 152.2365067  56.9040569  54.5429082 148.1877346  56.0786556  53.4898607
 149.0530343  55.8829365  53.1304497 148.2554855  55.8496908  54.4167964
 157.8022477  66.3684137  46.9608801 157.0251920  66.0295296  46.5163963
 158.4813958  66.3736760  46.2863766 152.6174506  61.4878874  46.8515408
 152.3124642  61.8025023  47.7025552 153.5704948  61.5660294  46.8942741
 151.0620938  67.6469098  48.5008362 150.5342299  66.9121857  48.1881600
 150.5608441  68.4243774  48.2548331 156.0413784  65.8418118  53.6175409
 155.3837458  66.5317379  53.7055537 156.8454183  66.2314550  53.9609395
 145.7939666  58.3088764  50.8614974 146.3683417  58.0863945  50.1288167
 146.3810648  58.3777458  51.6143575 154.8519243  64.1962491  51.6679350
 155.3651124  64.8292483  52.1701060 155.5020467  63.5963686  51.3022711
 146.1209253  60.3393225  44.8810859 145.2846565  60.6767911  45.2020134
 145.9814022  60.2042205  43.9437996 148.0962333  55.1830013  49.5890043
 147.4426746  54.8679030  48.9646658 148.0542807  54.5605753  50.3149866
 149.2073538  65.4649308  41.5043335 148.3000600  65.2338561  41.7034484
 149.7044570  64.6686927  41.6917317 152.1141617  74.1746815  44.4240022
 151.4403316  74.4778512  45.0324979 152.5007439  74.9775895  44.0745479
 151.3300074  61.6711946  53.9137691 150.4122635  61.8926893  53.7559379
 151.7460217  61.7458257  53.0549398 152.1135121  63.0703362  49.0440371
 152.8606940  63.5824759  48.7347493 152.3826711  62.7487415  49.9044765
 150.3861772  65.5661903  46.0267326 149.4772991  65.2820936  46.1239795
 150.4156855  65.9860981  45.1670632 155.6181039  69.1768492  49.7958493
 155.1643366  68.3359402  49.8523684 154.9875006  69.8129891  50.1333273
 154.5613958  60.1060478  51.0259161 153.8236715  59.5937864  51.3569403
 154.8140732  59.6660860  50.2142437 154.0613978  71.0144989  50.7308311
 154.3536953  71.5750046  50.0120677 154.5712599  71.3073550  51.4861470
 154.6625586  52.8836730  51.6200930 154.9684463  52.0234094  51.3326845
 155.3878191  53.4754350  51.4199924 140.9549942  63.2867417  50.0082528
 140.7574342  62.6936778  49.2833594 140.3996606  62.9819627  50.7258467
 148.9346666  63.1790523  52.1277121 148.9895275  62.2264360  52.0519597
 148.1237868  63.3349962  52.6118419 150.0837859  67.1070646  43.3655404
 149.6457289  66.3906505  42.9061041 150.8248300  67.3346761  42.8040496
 146.8739025  61.7967583  49.8867500 146.0606891  62.0961754  50.2932692
 147.3698020  61.4023272  50.6041982 149.0247603  71.7925340  51.8201764
 148.9823782  72.0186186  50.8910296 149.9410302  71.5588715  51.9687566
 152.4713237  62.2609408  58.7182394 152.8262625  62.4880881  59.5776859
 153.1185368  62.5927784  58.0959649 158.2010974  65.3827843  49.4231723
 158.0628873  65.5729439  48.4952912 157.8447193  66.1447226  49.8799774
 146.3653100  59.3685939  55.5028735 147.0052480  59.2274698  54.8051698
 145.5330631  59.0820452  55.1267337 158.2280354  67.4504370  54.4342994
 158.6616860  67.3579660  55.2826048 158.9411934  67.4261871  53.7963010
 147.1413404  68.6688369  51.6163727 147.9354003  68.1738689  51.4146302
 146.4305097  68.1406232  51.2531433 151.9608249  71.0506465  55.9676095
 152.0145271  71.6197401  56.7353811 151.0923030  71.2208350  55.6030132
 143.4496168  62.8131451  47.6923480 142.5193756  62.7515906  47.9093442
 143.5453640  62.2907403  46.8960121 143.3681717  59.3386264  50.2801722
 143.6288534  60.2531597  50.1710882 144.1898889  58.8710706  50.4298334
 144.8406642  60.7524021  57.4500546 145.5129695  60.5441383  56.8013195
 144.0136429  60.5546107  57.0105778 150.7432214  57.3785962  59.4666207
 150.0960129  58.0775911  59.3730683 151.5133229  57.8122106  59.8342455
 154.1511012  67.6434814  62.5416760 153.9996518  67.4145366  61.6246844
 154.1415691  68.6005415  62.5548105 150.9196348  65.2166727  57.5263027
 151.8488408  65.3677886  57.3531994 150.4987378  65.3050747  56.6711673
 149.7184680  69.2417391  55.2961564 149.5795766  68.8736175  56.1687502
 148.9299276  69.7565030  55.1245522 150.3132832  74.3426487  46.6387101
 150.4884588  73.8714531  47.4532723 149.6265620  74.9692254  46.8668362
 151.2689895  68.6198994  52.6850402 150.9339728  68.5799764  53.5808052
 150.7693841  67.9543710  52.2120812 145.2434139  64.0266624  58.2102983
 145.1053937  63.2946863  58.8114522 146.1539063  63.9375524  57.9287171
 154.2049087  65.9655028  42.9587462 153.5878258  65.2401856  42.8620514
 153.7365575  66.7264388  42.6154536 147.8716440  63.7386583  57.6986663
 148.5816058  63.0979775  57.6573281 147.8285748  63.9899478  58.6212844
 155.8603219  70.6753936  60.6193242 155.8015765  69.9913157  59.9523825
 156.2622737  71.4172926  60.1673868 146.5845374  60.7251801  59.5182302
 146.0482731  60.2742539  60.1703899 145.9962082  60.8597710  58.7752767
 144.8793917  77.4915850  53.4126961 145.1190516  78.1234374  54.0905980
 144.0363114  77.1403890  53.6992320 145.9947633  60.1840452  42.0808766
 145.1177099  60.0629253  41.7171013 146.4705386  59.3926531  41.8287655
 155.8620626  68.6393520  58.8507222 154.9747405  68.3019442  58.9733621
 156.4319177  67.9076552  59.0875987 137.5149773  64.9717612  52.1750273
 138.2020813  64.6579342  51.5871288 137.3597902  65.8758977  51.9017525
 142.3184495  59.8607809  56.6035297 142.2342684  59.2533478  55.8685707
 141.4967202  60.3516827  56.6044793 149.3921779  73.2994973  55.8168465
 149.3191951  74.1049944  56.3287770 148.9499172  73.4986938  54.9916486
 149.1811559  72.5366743  49.3271287 148.3979081  73.0788423  49.4209511
 149.8804304  73.0540722  49.7265528 152.4908209  58.3461372  51.9705492
 152.9876909  57.5931334  51.6506562 151.7195191  58.3825689  51.4048701
 151.8520463  73.1981807  57.9726624 152.5648435  73.8329272  57.9002525
 151.3610491  73.2945673  57.1566625 153.5737990  67.1033059  49.5443915
 152.6394268  67.2234522  49.3748620 153.7514658  66.2005526  49.2803925
 149.0743178  60.4878755  51.6977176 148.7040965  59.9349796  52.3858082
 149.5702270  59.8836889  51.1452177 156.9610541  62.9450379  50.0793949
 157.4270993  63.7778370  50.0054252 157.4118042  62.4795360  50.7839208
 146.9032376  70.9476250  58.7932194 147.6041836  71.5812733  58.9461589
 146.4327491  71.2890982  58.0327834 155.0286772  69.2894200  47.0780101
 155.3046616  69.1750795  47.9873976 154.1591271  68.8911685  47.0392275
 154.9327204  55.3130966  54.1184851 154.0190284  55.5435192  54.2867058
 155.3620305  55.3969410  54.9698883 154.7033662  63.5020858  56.6184745
 154.0505113  63.7496765  55.9637198 155.0814042  62.6884996  56.2847222
 151.6640836  73.5380551  50.7212915 151.8463231  72.7202207  51.1840667
 152.4873822  73.7548243  50.2837805 151.9983002  72.4648736  47.9827964
 152.5270768  71.9541190  47.3698126 152.2611221  72.1491266  48.8473497
 150.7521235  64.2440669  63.1050782 150.0761872  64.1434798  63.7753157
 151.5748869  64.0879882  63.5686779 142.5000094  70.4812605  55.7263297
 143.0853531  69.7356293  55.8591201 142.3024933  70.7916562  56.6099961
 145.3538750  73.5163853  50.7425739 144.6849125  74.0009980  50.2589780
 145.2151619  73.7633073  51.6569118 137.0917749  63.0518205  54.4467740
 137.1301849  62.5181796  55.2404858 136.5858042  62.5253411  53.8278717
 149.4944018  75.5507596  57.3408398 150.0462326  75.7139218  58.1057483
 149.8350212  76.1412034  56.6688423 144.4708511  57.8982746  57.9430283
 144.5349838  58.7597577  57.5307680 144.4075632  57.2856748  57.2102641
 143.9460784  59.9705878  61.5903317 144.5732823  59.5882956  62.2040841
 143.0888703  59.7520080  61.9559009 154.3454893  70.3768854  63.1957052
 154.8894796  70.9898812  62.7012007 153.7641737  70.9348432  63.7124065
 140.7226327  61.7782308  47.5221672 141.0179768  60.8692986  47.4688725
 139.8214362  61.7570047  47.2002674 152.6312405  73.4989572  54.3272080
 152.5063545  72.6979311  53.8183026 153.2891497  73.9935765  53.8386050
 144.2520574  59.8538304  53.5049220 143.5307159  60.4674272  53.3656694
 145.0413829  60.3896069  53.4265866 154.6947314  71.2998592  55.9551630
 153.7477649  71.1803943  55.8829957 155.0430087  70.4121090  56.0377892
 147.0546887  57.1892731  59.7789872 147.5781289  57.4355027  60.5416181
 146.8359220  58.0212765  59.3593009 142.4514168  59.4596405  47.6460997
 142.1226874  58.5793784  47.4636103 142.8053539  59.4044074  48.5337386
 151.6993747  71.0951308  52.1555982 151.5518710  70.1668015  52.3363552
 152.5247241  71.1171399  51.6713058 145.5655991  59.7469375  48.0136475
 145.9052064  60.2755296  47.2915083 146.0128112  60.0849781  48.7895041
 155.3027869  71.9179867  53.2420855 156.2274416  71.7122728  53.1045306
 155.1343172  71.6696268  54.1510197 148.2599432  58.1306426  57.4639543
 147.9196253  57.3314239  57.8660222 147.5538439  58.4308137  56.8916376
 148.9115904  55.2155738  55.9166866 149.7341973  54.7416216  55.7945756
 149.1553968  55.9946222  56.4165552 147.5524139  58.2443997  46.2129767
 148.2732501  58.6225249  45.7093484 146.9289443  58.9632873  46.3164745
 151.6955261  58.9489146  47.1488100 151.9118876  59.8313783  46.8476928
 151.2149329  58.5575359  46.4193742 146.4354483  61.9074859  53.7258844
 146.2899064  62.2215162  54.6183126 145.9579686  62.5259759  53.1729743
 148.2950866  58.8977407  53.7739734 148.2812434  58.0018500  53.4372032
 149.0123294  58.9048071  54.4078020 150.1476996  59.3314747  55.8192861
 149.8894774  60.2531818  55.8177192 149.6162037  58.9345182  56.5093325
 155.0923185  72.4365534  48.5982947 155.2660063  71.8711957  47.8456799
 155.5852076  73.2366429  48.4162437 140.9100145  64.4480203  56.6646505
 140.3653613  65.2240011  56.7966780 141.7879495  64.7951008  56.5065627
 147.6987762  57.7791787  49.0427304 147.8203673  56.8508433  49.2418191
 147.4089804  57.7930473  48.1305619 150.5678952  55.4646698  52.1794024
 150.5900649  55.5286031  51.2246003 150.9847011  54.6251206  52.3734530
 156.0798358  71.7532299  45.6979845 156.7749262  72.3738991  45.9167159
 156.4221508  70.9027650  45.9732223 141.6966167  63.5750099  59.5576662
 140.9547903  63.7232735  60.1441293 141.3758911  63.8358365  58.6943412
 157.9789781  69.2032004  47.2267176 158.5041105  69.5419277  46.5016496
 157.8912133  68.2679019  47.0430310 149.6409830  73.1166078  59.3557052
 149.9496956  72.8715224  60.2279752 150.4385312  73.3212716  58.8675922
 149.6630442  75.2703987  51.5862429 149.2235432  74.7780366  52.2795285
 150.4138559  74.7276955  51.3454504 142.1422781  71.4615528  51.5887057
 142.9680800  71.1619300  51.2085700 141.7916833  70.6923151  52.0376846
 147.1104314  70.8141996  53.6584730 146.4884323  70.1512701  53.3586958
 147.7809181  70.8403128  52.9758378 140.3431386  69.3801855  52.5475990
 139.5063294  68.9524029  52.3659992 140.3155031  69.5734298  53.4846782
 147.1828841  59.2923784  63.2517236 147.2316997  60.1685907  62.8695006
 147.7251355  58.7501177  62.6788880 157.6683687  69.8364908  62.5318374
 156.8779231  69.8189047  61.9922873 157.4317041  70.3753201  63.2867410
 157.7881562  66.6857374  59.8451102 157.8379567  66.5207382  60.7866625
 157.6795485  65.8184633  59.4548983 146.6717821  69.3645920  47.1343191
 146.8205941  70.0481384  46.4809864 147.4784264  69.3451010  47.6492647
 155.0785324  62.6688302  61.1610409 155.9795187  62.5294767  60.8694407
 155.1533299  62.8342757  62.1008586 149.4128130  60.0455157  60.0063595
 148.5431439  60.3388723  59.7346184 149.6487610  60.6295602  60.7270859
 157.5386947  64.2286930  58.5573182 158.0141069  64.4214577  57.7492033
 156.6152512  64.2846116  58.3116565 144.4270454  65.3911097  48.1404260
 144.1816496  64.4873427  48.3384470 144.5966368  65.3928248  47.1983738
 152.1167163  56.2634774  57.5229016 152.6349107  56.9995801  57.1975504
 151.7622296  56.5698767  58.3575775 143.6966101  61.1239455  45.6390421
 143.0035346  61.1983810  44.9830457 143.4517853  60.3599799  46.1611938
 152.3679758  52.6835056  53.0429912 152.6481511  52.0158245  53.6690339
 153.1530365  52.8764152  52.5304576 150.1713226  71.8594050  44.6054938
 149.5987193  72.4784237  44.1525410 150.7446020  72.4093412  45.1394860
 156.2388616  61.1052690  56.7901487 157.1906039  61.2050788  56.8113711
 156.0692066  60.3130959  57.2999572 154.2602995  58.1908274  56.9760888
 153.6652928  58.4713286  56.2807377 153.9752692  58.6802174  57.7477629
 153.3910486  72.1431200  45.7363521 154.3241159  72.0776762  45.9396396
 153.3033699  72.9787467  45.2778053 156.0198503  71.4597071  42.6967468
 155.9412134  71.1256934  43.5903226 156.8408169  71.9518839  42.6958941
 150.5560025  63.1954863  41.9470991 151.5019129  63.0661071  42.0159409
 150.1774270  62.4569525  42.4240419 156.5281909  54.8610869  51.9097883
 156.3306730  54.5525957  52.7941215 157.1381615  55.5872508  52.0395813
 150.4398717  67.2472609  63.4071648 151.3601727  67.4251208  63.6011694
 150.4048300  66.3028654  63.2551347 148.7402942  61.1204839  41.8825876
 147.8334397  60.8237952  41.9588590 149.0178923  60.8234657  41.0160162
 139.6580882  62.4411203  52.3324923 139.3383667  61.5876511  52.0399297
 139.1114310  62.6559781  53.0882890 143.4360790  65.1573644  56.0494429
 143.6546799  66.0890752  56.0682463 143.8486564  64.7981618  56.8349233
 150.3565008  55.6641729  48.0370117 149.5465736  55.3188814  48.4125364
 151.0449424  55.3549273  48.6257729 152.2855556  54.7419776  49.6594414
 152.8386594  55.1615229  50.3184437 152.5225642  53.8155524  49.7017370
 148.3088655  60.7306850  65.4397178 148.2085382  61.6801206  65.3709269
 148.0910197  60.4025088  64.5673248 147.5101726  57.9791775  42.0237855
 148.3720890  58.3046673  42.2833673 147.6952071  57.1923270  41.5110921
 139.5269142  66.0614114  54.3018044 138.8332614  65.6468067  53.7887999
 140.2742133  66.1034651  53.7051463 155.6634363  56.8520301  49.1673078
 155.0833032  57.5105105  48.7851131 155.3970296  56.0297646  48.7560496
 154.1137929  56.2525359  51.3694399 154.6137708  56.3641893  50.5608718
 154.7573537  55.9486412  52.0095207 148.1719925  64.1603988  64.2562240
 147.6887007  64.9604348  64.4626129 148.2580864  64.1711933  63.3029684
 141.4405885  65.9932368  52.1784059 141.4176573  66.0920055  51.2265942
 141.7506521  66.8397519  52.5001225 144.0993263  68.0508523  56.2930673
 145.0536516  68.0192465  56.2260605 143.9005786  67.5899147  57.1080899
 144.6892645  66.6209639  58.8601471 145.5085534  67.1153718  58.8836308
 144.9629452  65.7041607  58.8319039 154.4459241  59.0120391  48.2229427
 153.5585096  59.2970042  48.0049621 154.8613230  58.8514155  47.3756704
 157.7973777  59.0366912  51.9383766 158.5734167  59.5263365  52.2108383
 157.0721911  59.4624967  52.3955635 142.4543491  73.5928143  53.3100871
 142.3197959  72.8328543  52.7438869 142.0375554  74.3169042  52.8429660
 153.5902454  68.7765066  42.3177447 154.2938304  68.9815069  42.9335102
 152.8665103  69.3441828  42.5826530 154.4200265  64.5274927  48.4379717
 154.3635466  64.9843479  47.5987349 154.9728607  63.7665612  48.2602560
 158.2305071  60.3164659  49.2629836 157.9742005  59.9161295  50.0938044
 157.6057939  61.0308453  49.1379975 145.6112617  74.4897460  53.5219314
 145.4945001  75.4342892  53.4198004 144.7905064  74.1871021  53.9105113
 155.4989152  69.2147595  44.3675907 156.3334756  68.7828794  44.1853381
 155.3373495  69.0429609  45.2952801 155.1535044  65.7179709  45.7332246
 155.0983848  65.5523980  44.7920690 154.5281099  66.4255742  45.8894436
 139.9427559  60.9547773  59.5593668 140.5886423  60.4446727  60.0480893
 139.7344710  61.6916455  60.1337093 152.4680951  68.0228620  65.0585809
 153.3372111  68.1969273  64.6972444 151.9887703  68.8423037  64.9361538
 148.4631169  55.2187818  45.3117564 148.4509839  56.1629658  45.4685835
 149.3554591  55.0357963  45.0177026 146.6367131  75.1425721  56.7375242
 147.5394378  75.1749332  57.0541737 146.4104501  74.2126172  56.7521578
 148.3920733  73.8956708  53.3985321 147.4416364  73.8958570  53.2849693
 148.6953220  73.1489443  52.8821356 152.2783289  51.8130594  49.5663501
 151.5115685  51.2589081  49.7120183 152.6893994  51.8852463  50.4277653
 144.2825050  58.1015390  63.6568682 145.1456512  57.7452195  63.8672007
 143.7090461  57.7629285  64.3444087 156.7949949  81.5380151  50.3889499
 156.2314814  81.4470088  49.6205787 156.6802344  80.7180055  50.8691992
 154.3414381  83.0331343  53.2273719 155.1335673  82.6922167  52.8120019
 154.5811031  83.1426318  54.1475873 156.3005135  82.2940256  46.0991098
 157.0736011  81.7469243  45.9603974 156.6530534  83.1584505  46.3105560
 158.1390177  83.6216638  59.3057998 157.8480043  84.5262269  59.1904664
 158.7747162  83.6633166  60.0202067 158.6371413  78.4532922  43.7309548
 158.8896933  77.9314443  42.9693011 157.6995972  78.2899067  43.8336232
 158.3567701  80.3561028  45.9333923 158.2403959  79.6805931  46.6015007
 158.4669961  79.8693402  45.1166076 156.5492544  79.7591850  52.3344496
 155.6243040  79.6268064  52.5422187 156.7976957  80.5386070  52.8314438
 153.9101355  79.4025124  53.1688285 154.0393736  79.6559603  54.0827696
 153.2298806  79.9952832  52.8492940 158.0800842  90.0722374  49.2678759
 158.0024872  91.0230199  49.3467240 157.4762486  89.7268246  49.9253685
 157.0700641  82.0411913  54.0412392 157.6401999  82.4699182  53.4029876
 157.6608753  81.7594498  54.7396577 157.5625808  77.2075341  62.2873403
 156.9324469  77.8891622  62.5208800 157.4561896  77.0958422  61.3426541
 152.8570780  76.8747137  53.2139327 152.0669834  77.1304665  52.7379438
 153.3482028  77.6895475  53.3191368 154.8085526  77.2391716  50.1722804
 154.0116689  77.3510410  50.6906299 154.5811118  77.5778368  49.3063694
 151.1408483  77.1277627  55.6454318 151.3916522  78.0124637  55.9111894
 151.6768032  76.9482229  54.8729410 156.8406551  71.5096107  64.6498654
 156.4473496  70.9562305  65.3246298 157.6572691  71.8206685  65.0405171
 153.8068608  82.9479965  48.5612224 154.3193129  83.7423215  48.7117788
 154.4591321  82.2506255  48.4945825 155.6163493  86.0645721  50.6434977
 155.7930122  86.9863686  50.4555961 156.4120327  85.7504140  51.0729357
 154.9015850  78.1110353  60.5197140 154.7869365  77.2095610  60.8204239
 154.0460367  78.3574050  60.1681957 156.7394809  87.5823895  56.6445319
 157.2902234  87.4540958  55.8722313 155.9006285  87.8818784  56.2940212
 151.7717525  81.2768619  49.3371794 152.6092747  81.6865628  49.1205502
 151.9495793  80.3368061  49.3071988 156.6333420  73.6380682  50.8614974
 157.2077172  73.4155863  50.1288167 157.2204402  73.7069376  51.6143575
 156.9603007  75.6685143  44.8810859 156.1240319  76.0059829  45.2020134
 156.8207777  75.5334122  43.9437996 158.9356088  70.5121930  49.5890043
 158.2820500  70.1970948  48.9646658 158.8936562  69.8897671  50.3149866
 151.7943696  78.6159335  50.0082528 151.5968096  78.0228695  49.2833594
 151.2390360  78.3111545  50.7258467 157.7132780  77.1259501  49.8867500
 156.9000646  77.4253671  50.2932692 158.2091774  76.7315190  50.6041982
 157.2046855  74.6977856  55.5028735 157.8446234  74.5566615  54.8051698
 156.3724385  74.4112370  55.1267337 157.9807159  83.9980287  51.6163727
 158.7747757  83.5030607  51.4146302 157.2698851  83.4698150  51.2531433
 154.2889922  78.1423368  47.6923480 153.3587510  78.0807824  47.9093442
 154.3847394  77.6199321  46.8960121 154.2075471  74.6678181  50.2801722
 154.4682288  75.5823514  50.1710882 155.0292643  74.2002624  50.4298334
 155.6800396  76.0815938  57.4500546 156.3523450  75.8733301  56.8013195
 154.8530183  75.8838024  57.0105778 156.0827894  79.3558541  58.2102983
 155.9447692  78.6238780  58.8114522 156.9932817  79.2667441  57.9287171
 157.4239128  76.0543719  59.5182302 156.8876485  75.6034457  60.1703899
 156.8355837  76.1889627  58.7752767 155.7187672  92.8207768  53.4126961
 155.9584270  93.4526292  54.0905980 154.8756868  92.4695808  53.6992320
 156.8341387  75.5132370  42.0808766 155.9570854  75.3921171  41.7171013
 157.3099140  74.7218448  41.8287655 148.3543527  80.3009530  52.1750273
 149.0414567  79.9871260  51.5871288 148.1991656  81.2050894  51.9017525
 153.1578250  75.1899726  56.6035297 153.0736438  74.5825396  55.8685707
 152.3360956  75.6808745  56.6044793 157.7426131  86.2768168  58.7932194
 158.4435590  86.9104651  58.9461589 157.2721246  86.6182899  58.0327834
 153.3393849  85.8104523  55.7263297 153.9247286  85.0648211  55.8591201
 153.1418687  86.1208480  56.6099961 156.1932504  88.8455770  50.7425739
 155.5242879  89.3301898  50.2589780 156.0545374  89.0924991  51.6569118
 147.9311504  78.3810123  54.4467740 147.9695603  77.8473714  55.2404858
 147.4251796  77.8545329  53.8278717 155.3102266  73.2274664  57.9430283
 155.3743592  74.0889494  57.5307680 155.2469386  72.6148665  57.2102641
 154.7854538  75.2997796  61.5903317 155.4126577  74.9174873  62.2040841
 153.9282457  75.0811998  61.9559009 151.5620081  77.1074225  47.5221672
 151.8573522  76.1984904  47.4688725 150.6608117  77.0861965  47.2002674
 155.0914328  75.1830222  53.5049220 154.3700914  75.7966190  53.3656694
 155.8807584  75.7187987  53.4265866 157.8940642  72.5184648  59.7789872
 158.4175044  72.7646945  60.5416181 157.6752975  73.3504683  59.3593009
 153.2907923  74.7888323  47.6460997 152.9620629  73.9085702  47.4636103
 153.6447293  74.7335992  48.5337386 156.4049746  75.0761293  48.0136475
 156.7445818  75.6047214  47.2915083 156.8521866  75.4141699  48.7895041
 159.0993187  73.4598343  57.4639543 158.7590007  72.6606156  57.8660222
 158.3932193  73.7600054  56.8916376 158.3917893  73.5735914  46.2129767
 159.1126256  73.9517167  45.7093484 157.7683197  74.2924791  46.3164745
 157.2748237  77.2366776  53.7258844 157.1292818  77.5507080  54.6183126
 156.7973441  77.8551677  53.1729743 151.7493899  79.7772121  56.6646505
 151.2047368  80.5531929  56.7966780 152.6273249  80.1242925  56.5065627
 158.5381516  73.1083705  49.0427304 158.6597427  72.1800351  49.2418191
 158.2483559  73.1222391  48.1305619 152.5359921  78.9042017  59.5576662
 151.7941657  79.0524653  60.1441293 152.2152666  79.1650283  58.6943412
 152.9816535  86.7907446  51.5887057 153.8074555  86.4911218  51.2085700
 152.6310587  86.0215068  52.0376846 157.9498068  86.1433914  53.6584730
 157.3278077  85.4804619  53.3586958 158.6202935  86.1695046  52.9758378
 151.1825140  84.7093772  52.5475990 150.3457048  84.2815947  52.3659992
 151.1548786  84.9026216  53.4846782 158.0222596  74.6215702  63.2517236
 158.0710751  75.4977825  62.8695006 158.5645110  74.0793095  62.6788880
 157.5111575  84.6937837  47.1343191 157.6599695  85.3773302  46.4809864
 158.3178019  84.6742927  47.6492647 155.2664208  80.7203015  48.1404260
 155.0210250  79.8165345  48.3384470 155.4360123  80.7220166  47.1983738
 154.5359856  76.4531373  45.6390421 153.8429101  76.5275728  44.9830457
 154.2911608  75.6891716  46.1611938 150.4974637  77.7703120  52.3324923
 150.1777421  76.9168429  52.0399297 149.9508065  77.9851699  53.0882890
 154.2754544  80.4865561  56.0494429 154.4940554  81.4182669  56.0682463
 154.6880318  80.1273536  56.8349233 159.1482410  76.0598767  65.4397178
 159.0479136  77.0093124  65.3709269 158.9303952  75.7317006  64.5673248
 158.3495481  73.3083692  42.0237855 159.2114645  73.6338591  42.2833673
 158.5345825  72.5215188  41.5110921 150.3662897  81.3906032  54.3018044
 149.6726368  80.9759985  53.7887999 151.1135888  81.4326568  53.7051463
 159.0113680  79.4895906  64.2562240 158.5280761  80.2896266  64.4626129
 159.0974619  79.5003851  63.3029684 152.2799639  81.3224286  52.1784059
 152.2570327  81.4211973  51.2265942 152.5900276  82.1689437  52.5001225
 154.9387017  83.3800441  56.2930673 155.8930271  83.3484383  56.2260605
 154.7399541  82.9191064  57.1080899 155.5286399  81.9501557  58.8601471
 156.3479288  82.4445635  58.8836308 155.8023207  81.0333525  58.8319039
 153.2937246  88.9220060  53.3100871 153.1591714  88.1620461  52.7438869
 152.8769308  89.6460960  52.8429660 156.4506372  89.8189377  53.5219314
 156.3338756  90.7634810  53.4198004 155.6298818  89.5162939  53.9105113
 150.7821313  76.2839691  59.5593668 151.4280177  75.7738645  60.0480893
 150.5738465  77.0208372  60.1337093 157.4760886  90.4717639  56.7375242
 158.3788133  90.5041249  57.0541737 157.2498256  89.5418090  56.7521578
 155.1218804  73.4307308  63.6568682 155.9850266  73.0744113  63.8672007
 154.5484215  73.0921203  64.3444087 158.7705258  93.7102041  54.4467740
 158.8089358  93.1765631  55.2404858 158.2645551  93.1837246  53.8278717
 112.3612655   8.5102220  40.1372268 112.6009253   9.1420744  40.8151286
 111.5181852   8.1590260  40.4237627 124.2768687  12.5566520  37.1134806
 123.7133552  12.4656457  36.3451093 124.1621082  11.7366425  37.5937298
 121.8233119  14.0517712  39.9519026 122.6154410  13.7108537  39.5365325
 122.0629769  14.1612687  40.8721179 129.8568245  16.2237488  32.4249271
 129.2056225  16.8091569  32.0383284 130.6512608  16.7543683  32.4844308
 123.7823873  13.3126625  32.8236405 124.5554749  12.7655612  32.6849281
 124.1349271  14.1770875  33.0350866 125.6208915  14.6403008  46.0303304
 125.3298781  15.5448638  45.9149971 126.2565899  14.6819535  46.7447374
 131.3343510  13.9127920  32.9618255 130.6989343  13.9862547  33.6739160
 131.0040917  14.5021519  32.2837334 130.5798800  14.3264423  43.0253098
 130.2799523  15.2289462  42.9168905 130.2349860  14.0596606  43.8774251
 121.3920093  10.4211494  39.8933591 121.5212474  10.6745972  40.8073003
 120.7117544  11.0139202  39.5738246 125.5619580  21.0908743  35.9924066
 125.4843610  22.0416569  36.0712546 124.9581224  20.7454616  36.6498992
 127.6595298  13.5126801  37.8277935 128.1233644  13.7914504  37.0382557
 127.3952096  12.6110246  37.6451026 124.5519379  13.0598283  40.7657698
 125.1220736  13.4885551  40.1275183 125.1427491  12.7780868  41.4641884
 128.1209931  14.7822789  44.8450625 128.1854364  15.2443196  45.6808797
 127.4120855  14.1520154  44.9732935 127.8357949  16.4490896  34.7129605
 127.7003624  17.2942432  35.1414453 128.3767761  16.6510174  33.9495539
 121.2887346  13.9666334  35.2857530 121.8011867  14.7609585  35.4363095
 121.9410059  13.2692625  35.2191132 123.0982231  17.0832091  37.3680284
 123.2748859  18.0050055  37.1801267 123.8939064  16.7690510  37.7974663
 129.4626425  17.0714463  48.8429947 129.0190279  16.2850841  48.5250852
 130.1243639  17.2593613  48.1773838 124.2213546  18.6010265  43.3690626
 124.7720972  18.4727328  42.5967620 123.3825022  18.9005154  43.0185519
 131.5607663  17.3517263  46.8711349 131.5426139  18.1726144  46.3791618
 132.4827583  17.2271338  47.0961490 128.0180717  14.8661392  47.7134857
 128.5509054  14.1049681  47.4834165 127.4894799  14.5735044  48.4559012
 119.2536263  12.2954989  36.0617101 120.0911485  12.7051997  35.8450809
 119.4314531  11.3554431  36.0317295 129.3833430  13.9947385  35.2253669
 128.8554792  13.2600144  34.9126907 128.8820933  14.7722061  34.9793637
 130.4354109  20.5225102  31.1485328 129.7615808  20.8256799  31.7570286
 130.8219931  21.3254183  30.7990785 133.9393531  15.5246779  36.5203800
 133.4855858  14.6837689  36.5768990 133.3087498  16.1608178  36.8578580
 132.3826470  17.3623276  37.4553618 132.6749445  17.9228333  36.7365984
 132.8925091  17.6551837  38.2106777 128.4050352  13.4548934  30.0900711
 127.9669782  12.7384793  29.6306348 129.1460792  13.6825048  29.5285802
 127.3460096  18.1403627  38.5447071 127.3036274  18.3664474  37.6155603
 128.2622795  17.9067002  38.6932872 125.4625896  15.0166656  38.3409034
 126.2566495  14.5216976  38.1391609 124.7517589  14.4884519  37.9776739
 130.2820741  17.3984752  42.6921401 130.3357763  17.9675688  43.4599117
 129.4135522  17.5686637  42.3275439 128.0397172  15.5895678  42.0206871
 127.9008258  15.2214463  42.8932809 127.2511769  16.1043318  41.8490829
 128.6345324  20.6904775  33.3632407 128.8097080  20.2192818  34.1778030
 127.9478112  21.3170541  33.5913668 129.5902388  14.9677281  39.4095709
 129.2552220  14.9278051  40.3053359 129.0906333  14.3021997  38.9366119
 134.1815711  17.0232224  47.3438549 134.1228257  16.3391444  46.6769132
 134.5835229  17.7651214  46.8919175 123.2006410  23.8394137  40.1372268
 123.4403008  24.4712662  40.8151286 122.3575606  23.4882177  40.4237627
 115.8362265  11.3195899  38.8995580 116.5233305  11.0057629  38.3116595
 115.6810394  12.2237264  38.6262831 127.7134272  19.6473260  42.5413772
 127.6404443  20.4528231  43.0533076 127.2711665  19.8465226  41.7161793
 127.5024051  18.8845030  36.0516593 126.7191573  19.4266710  36.1454818
 128.2016796  19.4019010  36.4510834 130.1732955  19.5460094  44.6971930
 130.8860927  20.1807559  44.6247832 129.6822984  19.6423960  43.8811932
 125.2244869  17.2954537  45.5177501 125.9254328  17.9291020  45.6706895
 124.7539984  17.6369269  44.7573140 133.3499264  15.6372487  33.8025408
 133.6259108  15.5229082  34.7119282 132.4803763  15.2389972  33.7637581
 129.9853328  19.8858838  37.4458222 130.1675723  19.0680494  37.9085974
 130.8086314  20.1026530  37.0083112 130.3195494  18.8127023  34.7073270
 130.8483260  18.3019478  34.0943432 130.5823714  18.4969553  35.5718803
 120.8212587  16.8290892  42.4508604 121.4066023  16.0834580  42.5836508
 120.6237425  17.1394849  43.3345268 123.6751242  19.8642140  37.4671046
 123.0061617  20.3488267  36.9835086 123.5364112  20.1111360  38.3814425
 115.4130241   9.3996493  41.1713047 115.4514341   8.8660083  41.9650165
 114.9070534   8.8731698  40.5524024 127.8156510  21.8985883  44.0653705
 128.3674818  22.0617505  44.8302790 128.1562704  22.4890321  43.3933729
 132.6667385  16.7247141  49.9202359 133.2107289  17.3377099  49.4257314
 132.0854230  17.2826719  50.4369372 130.9524898  19.8467859  41.0517387
 130.8276037  19.0457599  40.5428332 131.6103989  20.3414052  40.5631357
 133.0159806  17.6476879  42.6796937 132.0690142  17.5282230  42.6075263
 133.3642579  16.7599377  42.7623198 130.0206239  17.4429595  38.8801289
 129.8731202  16.5146303  39.0608859 130.8459733  17.4649686  38.3958364
 133.6240361  18.2658154  39.9666162 134.5486909  18.0601015  39.8290613
 133.4555665  18.0174555  40.8755503 133.4135677  18.7843821  35.3228253
 133.5872555  18.2190244  34.5702106 133.9064569  19.5844716  35.1407743
 119.2312637  10.7958490  43.3891812 118.6866105  11.5718298  43.5212086
 120.1091987  11.1429295  43.2310933 134.4010850  18.1010586  32.4225151
 135.0961755  18.7217278  32.6412466 134.7434000  17.2505937  32.6977529
 120.0178659   9.9228387  46.2821969 119.2760395  10.0711022  46.8686599
 119.6971403  10.1836652  45.4188718 127.9622322  19.4644365  46.0802359
 128.2709448  19.2193512  46.9525058 128.7597804  19.6691003  45.5921229
 127.9842934  21.6182275  38.3107735 127.5447924  21.1258653  39.0040592
 128.7351051  21.0755242  38.0699811 120.4635273  17.8093815  38.3132363
 121.2893293  17.5097587  37.9331007 120.1129325  17.0401438  38.7622152
 125.4316806  17.1620284  40.3830037 124.8096815  16.4990989  40.0832265
 126.1021673  17.1881416  39.7003685 118.6643878  15.7280142  39.2721297
 117.8275786  15.3002316  39.0905298 118.6367523  15.9212585  40.2092088
 135.9896179  16.1843195  49.2563680 135.1991723  16.1667334  48.7168180
 135.7529534  16.7231489  50.0112717 124.9930313  15.7124207  33.8588498
 125.1418433  16.3959671  33.2055170 125.7996756  15.6929297  34.3737953
 122.7482946  11.7389385  34.8649567 122.5028988  10.8351715  35.0629777
 122.9178860  11.7406535  33.9229045 128.4925718  18.2072337  31.3300245
 127.9199686  18.8262525  30.8770717 129.0658512  18.7571699  31.8640167
 131.7122978  18.4909488  32.4608827 132.6453651  18.4255049  32.6641703
 131.6246191  19.3265754  32.0023360 121.7573282  11.5051931  42.7739736
 121.9759292  12.4369039  42.7927770 122.1699056  11.1459905  43.5594540
 117.8481634  12.4092401  41.0263351 117.1545106  11.9946354  40.5133305
 118.5954625  12.4512938  40.4296770 119.7618377  12.3410655  38.9029366
 119.7389065  12.4398343  37.9511249 120.0719013  13.1875806  39.2246532
 122.4205755  14.3986810  43.0175980 123.3749008  14.3670753  42.9505912
 122.2218278  13.9377434  43.8326206 123.0105137  12.9687926  45.5846778
 123.8298026  13.4632005  45.6081615 123.2841945  12.0519894  45.5564345
 120.7755984  19.9406430  40.0346178 120.6410452  19.1806831  39.4684176
 120.3588046  20.6647330  39.5674967 123.9325110  20.8375747  40.2464621
 123.8157494  21.7821179  40.1443311 123.1117556  20.5349308  40.6350420
 130.7893443  14.3706908  51.7831115 131.6584603  14.5447560  51.4217750
 130.3100195  15.1901325  51.6606845 124.9579624  21.4904009  43.4620549
 125.8606870  21.5227619  43.7787044 124.7316994  20.5604460  43.4766885
 126.7133226  20.2434995  40.1230628 125.7628857  20.2436857  40.0095000
 127.0165712  19.4967730  39.6066662 142.4485919  26.0795534  41.1876390
 143.0864329  25.9602281  40.4839730 142.3306762  27.0276378  41.2464342
 139.2575625  26.0322962  41.1237915 138.9194137  25.9164026  40.2358450
 140.1265394  25.6314127  41.1038921 135.1162441  27.8858438  37.1134806
 134.5527306  27.7948375  36.3451093 135.0014836  27.0658343  37.5937298
 139.7395408  27.1857813  47.0824120 139.7284049  26.7910612  46.2104624
 139.9016048  26.4523886  47.6757892 132.6626873  29.3809630  39.9519026
 133.4548165  29.0400454  39.5365325 132.9023523  29.4904605  40.8721179
 140.6962000  31.5529406  32.4249271 140.0449980  32.1383486  32.0383284
 141.4906363  32.0835601  32.4844308 134.6217627  28.6418543  32.8236405
 135.3948503  28.0947530  32.6849281 134.9743026  29.5062792  33.0350866
 136.4602670  29.9694925  46.0303304 136.1692536  30.8740556  45.9149971
 137.0959654  30.0111453  46.7447374 137.3858876  27.3471774  42.6204664
 137.9822449  27.1227796  41.9061627 137.4433848  26.6056519  43.2230112
 136.9583905  24.8011209  30.4554855 137.2109425  24.2792730  29.6938318
 136.0208464  24.6377355  30.5581538 142.0027188  23.8046987  38.2629598
 142.7890277  23.3866411  37.9120015 142.2665892  24.7093080  38.4311246
 142.1737265  29.2419838  32.9618255 141.5383098  29.3154464  33.6739160
 141.8434671  29.8313437  32.2837334 147.4035615  23.7422221  39.1662577
 148.1360787  23.1721437  39.4000406 146.6474970  23.3543821  39.6069082
 136.6780194  26.7039315  32.6579230 136.5616452  26.0284218  33.3260314
 136.7882453  26.2171689  31.8411383 139.0211734  26.1649462  36.3625919
 138.6569942  25.6380083  37.0738841 139.8778850  25.7747931  36.1892404
 141.4192555  29.6556341  43.0253098 141.1193278  30.5581380  42.9168905
 141.0743614  29.3888524  43.8774251 134.8705036  26.1070138  39.0589802
 133.9455533  25.9746352  39.2667494 135.1189449  26.8864357  39.5559745
 144.8189698  22.1738881  40.7050535 143.9106576  22.1054289  40.4109296
 144.7677294  22.6510826  41.5332361 138.6406442  23.6497019  32.3433934
 138.5206068  24.0954070  33.1819415 137.9459031  23.9982337  31.7847473
 132.2313847  25.7503411  39.8933591 132.3606228  26.0037890  40.8073003
 131.5511298  26.3431119  39.5738246 136.4013334  36.4200661  35.9924066
 136.3237364  37.3708486  36.0712546 135.7974978  36.0746534  36.6498992
 138.8930564  23.5928527  48.6485433 138.1163898  24.1522447  48.6388297
 139.5321127  24.0785310  49.1700303 146.6851345  20.3755319  42.4828409
 146.0425725  20.6687853  41.8368204 146.1806273  20.2608240  43.2881606
 137.1476937  26.4013980  48.2103400 137.8891621  26.9399024  47.9338223
 136.4413922  27.0280269  48.3674951 142.6232276  28.5443120  46.8075561
 143.0315632  28.1025531  46.0630193 141.9009538  27.9695748  47.0609754
 138.9763346  23.4815727  44.1809118 139.8224541  23.9055141  44.3243767
 138.9161984  22.8249351  44.8747681 142.9461091  29.1044311  40.5627850
 142.3169953  29.2690025  39.8603918 142.5586753  29.5185921  41.3338814
 146.8250323  30.0398749  37.9172214 146.1401361  30.4197650  37.3669247
 146.9094172  30.6494076  38.6504161 142.1262792  21.1420096  45.8390292
 141.8823723  21.8962156  45.3024567 142.4022722  21.5205443  46.6737539
 144.0801254  27.6858708  44.5167557 144.2918150  28.3290468  43.8401938
 144.0331003  26.8521024  44.0489487 141.6827483  20.2976529  41.4204129
 140.8211962  20.5957782  41.7120867 141.7089918  20.5146927  40.4885162
 138.4989053  28.8418719  37.8277935 138.9627398  29.1206422  37.0382557
 138.2345851  27.9402164  37.6451026 135.3913134  28.3890201  40.7657698
 135.9614491  28.8177469  40.1275183 135.9821246  28.1072785  41.4641884
 137.4357939  24.9641871  34.6367500 138.1381982  25.4162915  35.1041426
 137.1038567  24.3225690  35.2647393 135.8838300  23.5553628  49.0118710
 135.2536961  24.2369909  49.2454106 135.7774388  23.4436710  48.0671848
 131.1783273  23.2225424  39.9384634 130.3882327  23.4782953  39.4624744
 131.6694520  24.0373762  40.0436674 145.1947082  30.5630663  42.6889915
 146.0164526  30.1610851  42.4072596 145.1909485  30.4598897  43.6406030
 133.1298018  23.5870003  36.8968110 132.3329181  23.6988698  37.4151606
 132.9023610  23.9256656  36.0309001 138.9603686  30.1114707  44.8450625
 139.0248118  30.5735114  45.6808797 138.2514610  29.4812072  44.9732935
 129.4620976  23.4755915  42.3699624 129.7129014  24.3602924  42.6357200
 129.9980524  23.2960516  41.5974716 138.6751703  31.7782814  34.7129605
 138.5397378  32.6234350  35.1414453 139.2161516  31.9802092  33.9495539
 135.1619043  17.8574394  51.3743961 134.7685989  17.3040592  52.0491605
 135.9785183  18.1684972  51.7650478 132.1281101  29.2958252  35.2857530
 132.6405621  30.0901502  35.4363095 132.7803814  28.5984543  35.2191132
 133.9375985  32.4124008  37.3680284 134.1142614  33.3341973  37.1801267
 134.7332819  32.0982428  37.7974663 138.0787004  19.2732273  48.9664217
 138.8196717  19.8739426  48.8868680 138.3104927  18.5309911  48.4082260
 133.2228342  24.4588640  47.2442447 133.1081857  23.5573898  47.5449546
 132.3672860  24.7052337  46.8927263 140.3020180  32.4006381  48.8429947
 139.8584034  31.6142759  48.5250852 140.9637393  32.5885531  48.1773838
 135.0607301  33.9302182  43.3690626 135.6114726  33.8019246  42.5967620
 134.2218777  34.2297071  43.0185519 142.4001418  32.6809181  46.8711349
 142.3819893  33.5018062  46.3791618 143.3221338  32.5563256  47.0961490
 138.8574472  30.1953310  47.7134857 139.3902809  29.4341598  47.4834165
 138.3288553  29.9026962  48.4559012 130.0930018  27.6246906  36.0617101
 130.9305240  28.0343915  35.8450809 130.2708285  26.6846349  36.0317295
 139.5741561  20.1371688  36.8086172 138.7183157  19.7478538  36.6291811
 139.9868512  20.2163649  35.9485958 141.1040707  17.6718031  41.2077732
 140.6005503  17.6348166  40.3945537 141.3971314  18.5810774  41.2674389
 137.3483593  17.7556761  40.2143914 138.2136590  17.5599570  39.8549803
 137.4161102  17.5267113  41.1413271 140.2227185  29.3239302  35.2253669
 139.6948546  28.5892062  34.9126907 139.7214687  30.1013979  34.9793637
 145.2020031  27.5188323  40.3420715 144.5443705  28.2087584  40.4300844
 146.0060430  27.9084755  40.6854702 134.9545912  19.9858969  37.5860281
 135.5289664  19.7634150  36.8533474 135.5416895  20.0547663  38.3388882
 144.0125489  25.8732696  38.3924657 144.5257371  26.5062688  38.8946367
 144.6626713  25.2733891  38.0268017 135.2815499  22.0163430  31.6056166
 134.4452812  22.3538116  31.9265441 135.1420269  21.8812410  30.6683303
 137.2568580  16.8600218  36.3135350 136.6032992  16.5449235  35.6891965
 137.2149054  16.2375958  37.0395173 141.2747864  35.8517020  31.1485328
 140.6009562  36.1548717  31.7570286 141.6613686  36.6546100  30.7990785
 140.4906320  23.3482151  40.6382998 139.5728882  23.5697098  40.4804686
 140.9066464  23.4228462  39.7794705 141.2741368  24.7473567  35.7685678
 142.0213187  25.2594964  35.4592800 141.5432958  24.4257620  36.6290071
 139.5468018  27.2432108  32.7512632 138.6379238  26.9591140  32.8485102
 139.5763102  27.6631186  31.8915939 144.7787286  30.8538697  36.5203800
 144.3249613  30.0129607  36.5768990 144.1481252  31.4900095  36.8578580
 143.7220205  21.7830683  37.7504467 142.9842962  21.2708069  38.0814710
 143.9746979  21.3431065  36.9387744 143.2220225  32.6915194  37.4553618
 143.5143199  33.2520251  36.7365984 143.7318846  32.9843755  38.2106777
 130.1156189  24.9637622  36.7327834 129.9180588  24.3706982  36.0078901
 129.5602853  24.6589832  37.4503773 138.0952912  24.8560728  38.8522428
 138.1501522  23.9034565  38.7764904 137.2844114  25.0120167  39.3363726
 139.2444106  28.7840851  30.0900711 138.8063536  28.0676710  29.6306348
 139.9854547  29.0116966  29.5285802 136.0345272  23.4737788  36.6112806
 135.2213138  23.7731959  37.0177999 136.5304266  23.0793477  37.3287289
 138.1853850  33.4695545  38.5447071 138.1430029  33.6956391  37.6155603
 139.1016549  33.2358919  38.6932872 141.6319484  23.9379612  45.4427700
 141.9868872  24.1651086  46.3022166 142.2791615  24.2697989  44.8204956
 135.5259347  21.0456143  42.2274041 136.1658726  20.9044903  41.5297005
 134.6936878  20.7590657  41.8512643 147.3886600  29.1274575  41.1588301
 147.8223107  29.0349864  42.0071355 148.1018181  29.1032076  40.5208317
 136.3019651  30.3458574  38.3409034 137.0960249  29.8508894  38.1391609
 135.5911343  29.8176437  37.9776739 141.1214495  32.7276669  42.6921401
 141.1751518  33.2967606  43.4599117 140.2529277  32.8978554  42.3275439
 132.6102414  24.4901656  34.4168787 131.6800002  24.4286111  34.6338749
 132.7059886  23.9677608  33.6205428 132.5287963  21.0156468  37.0047028
 132.7894781  21.9301802  36.8956189 133.3505136  20.5480911  37.1543641
 134.0012889  22.4294226  44.1745853 134.6735942  22.2211588  43.5258502
 133.1742675  22.2316312  43.7351085 148.2502150  29.1698276  43.6921186
 148.4438040  30.0744086  43.9380461 148.1502768  28.7105695  44.5259771
 139.9038461  19.0556167  46.1911514 139.2566376  19.7546116  46.0975990
 140.6739476  19.4892310  46.5587762 143.3117259  29.3205019  49.2662067
 143.1602765  29.0915570  48.3492151 143.3021938  30.2775620  49.2793412
 140.0802595  26.8936931  44.2508333 141.0094655  27.0448091  44.0777301
 139.6593625  26.9820952  43.3956980 138.8790927  30.9187596  42.0206871
 138.7402013  30.5506380  42.8932809 138.0905523  31.4335235  41.8490829
 139.4739079  36.0196692  33.3632407 139.6490835  35.5484736  34.1778030
 138.7871867  36.6462459  33.5913668 140.4296142  30.2969199  39.4095709
 140.0945975  30.2569969  40.3053359 139.9300088  29.6313915  38.9366119
 134.4040386  25.7036829  44.9348290 134.2660184  24.9717067  45.5359829
 135.3145309  25.6145729  44.6532478 137.0322687  25.4156788  44.4231970
 137.7422305  24.7749980  44.3818588 136.9891995  25.6669683  45.3458150
 145.0209465  32.3524141  47.3438549 144.9622012  31.6683361  46.6769132
 145.4228984  33.0943131  46.8919175 135.7451621  22.4022006  46.2427609
 135.2088978  21.9512744  46.8949205 135.1568329  22.5367915  45.4998073
 134.0400164  39.1686055  40.1372268 134.2796762  39.8004579  40.8151286
 133.1969361  38.8174095  40.4237627 145.0226873  30.3163725  45.5752528
 144.1353651  29.9789647  45.6978927 145.5925424  29.5846756  45.8121294
 126.6756020  26.6487817  38.8995580 127.3627060  26.3349547  38.3116595
 126.5204148  27.5529182  38.6262831 131.4790742  21.5378014  43.3280603
 131.3948931  20.9303683  42.5931013 130.6573448  22.0287032  43.3290100
 138.5528026  34.9765178  42.5413772 138.4798198  35.7820149  43.0533076
 138.1105419  35.1757143  41.7161793 138.3417806  34.2136948  36.0516593
 137.5585328  34.7558628  36.1454818 139.0410551  34.7310927  36.4510834
 141.6514456  20.0231577  38.6950799 142.1483155  19.2701539  38.3751869
 140.8801437  20.0595894  38.1294008 149.5044213  25.7271943  40.3369090
 149.4934089  26.6096658  39.9663023 148.6361593  25.3743493  40.1423627
 141.0126710  34.8752012  44.6971930 141.7254682  35.5099476  44.6247832
 140.5216738  34.9715878  43.8811932 142.7344236  28.7803264  36.2689222
 141.8000515  28.9004727  36.0993926 142.9120905  27.8775731  36.0049232
 138.2349425  22.1648960  38.4222483 137.8647212  21.6120000  39.1103389
 138.7308517  21.5607094  37.8697483 146.1216788  24.6220584  36.8039256
 146.5877240  25.4548575  36.7299559 146.5724288  24.1565565  37.5084515
 136.0638623  32.6246455  45.5177501 136.7648083  33.2582938  45.6706895
 135.5933738  32.9661187  44.7573140 144.1893019  30.9664405  33.8025408
 144.4652863  30.8520999  34.7119282 143.3197518  30.5681890  33.7637581
 143.8639909  25.1791063  43.3430051 143.2111359  25.4266970  42.6882504
 144.2420289  24.3655201  43.0092529 140.8247083  35.2150756  37.4458222
 141.0069477  34.3972412  37.9085974 141.6480069  35.4318448  37.0083112
 141.1589248  34.1418941  34.7073270 141.6877015  33.6311395  34.0943432
 141.4217468  33.8261471  35.5718803 139.9127482  25.9210874  49.8296089
 139.2368119  25.8205003  50.4998464 140.7355116  25.7650087  50.2932086
 131.6606341  32.1582810  42.4508604 132.2459778  31.4126498  42.5836508
 131.4631180  32.4686767  43.3345268 134.5144996  35.1934058  37.4671046
 133.8455372  35.6780185  36.9835086 134.3757866  35.4403278  38.3814425
 126.2523996  24.7288410  41.1713047 126.2908095  24.1952001  41.9650165
 125.7464289  24.2023616  40.5524024 138.6550265  37.2277801  44.0653705
 139.2068573  37.3909423  44.8302790 138.9956458  37.8182239  43.3933729
 133.6314758  19.5752951  44.6675589 133.6956085  20.4367782  44.2552987
 133.5681878  18.9626952  43.9347948 133.1067031  21.6476083  48.3148623
 133.7339070  21.2653161  48.9286148 132.2494950  21.4290285  48.6804316
 143.5061139  32.0539059  49.9202359 144.0501043  32.6669017  49.4257314
 142.9247984  32.6118637  50.4369372 129.8832573  23.4552512  34.2466978
 130.1786015  22.5463191  34.1934032 128.9820609  23.4340252  33.9247981
 141.7918652  35.1759777  41.0517387 141.6669792  34.3749516  40.5428332
 142.4497743  35.6705970  40.5631357 133.4126820  21.5308509  40.2294527
 132.6913406  22.1444477  40.0902000 134.2020076  22.0666274  40.1511173
 143.8553561  32.9768797  42.6796937 142.9083896  32.8574148  42.6075263
 144.2036334  32.0891295  42.7623198 136.2153134  18.8662936  46.5035179
 136.7387536  19.1125232  47.2661488 135.9965467  19.6982970  46.0838316
 131.6120415  21.1366610  34.3706303 131.2833121  20.2563989  34.1881409
 131.9659786  21.0814279  35.2582693 140.8599994  32.7721513  38.8801289
 140.7124956  31.8438220  39.0608859 141.6853487  32.7941604  38.3958364
 134.7262238  21.4239580  34.7381781 135.0658311  21.9525501  34.0160389
 135.1734359  21.7619986  35.5140348 144.4634116  33.5950072  39.9666162
 145.3880663  33.3892933  39.8290613 144.2949419  33.3466473  40.8755503
 137.4205679  19.8076631  44.1884849 137.0802499  19.0084444  44.5905529
 136.7144685  20.1078342  43.6161682 136.7130385  19.9214202  32.9375074
 137.4338748  20.2995454  32.4338791 136.0895689  20.6403078  33.0410052
 135.5960730  23.5845064  40.4504151 135.4505310  23.8985367  41.3428432
 135.1185933  24.2029964  39.8975049 137.4557112  20.5747612  40.4985040
 137.4418681  19.6788705  40.1617338 138.1729541  20.5818275  41.1323326
 139.3083243  21.0084952  42.5438168 139.0501021  21.9302023  42.5422498
 138.7768284  20.6115386  43.2338632 144.2529432  34.1135739  35.3228253
 144.4266309  33.5482162  34.5702106 144.7458323  34.9136634  35.1407743
 130.0706392  26.1250408  43.3891812 129.5259860  26.9010216  43.5212086
 130.9485742  26.4721213  43.2310933 136.8594008  19.4561992  35.7672611
 136.9809920  18.5278638  35.9663498 136.5696051  19.4700678  34.8550926
 145.2404604  33.4302503  32.4225151 145.9355509  34.0509196  32.6412466
 145.5827755  32.5797855  32.6977529 130.8572414  25.2520304  46.2821969
 130.1154150  25.4002940  46.8686599 130.5365158  25.5128570  45.4188718
 138.8016076  34.7936283  46.0802359 139.1103203  34.5485429  46.9525058
 139.5991558  34.9982921  45.5921229 138.8236688  36.9474192  38.3107735
 138.3841679  36.4550571  39.0040592 139.5744805  36.4047160  38.0699811
 131.3029027  33.1385733  38.3132363 132.1287047  32.8389505  37.9331007
 130.9523079  32.3693356  38.7622152 136.2710560  32.4912201  40.3830037
 135.6490570  31.8282906  40.0832265 136.9415427  32.5173333  39.7003685
 129.5037632  31.0572060  39.2721297 128.6669541  30.6294234  39.0905298
 129.4761278  31.2504503  40.2092088 136.3435088  20.9693989  49.9762543
 136.3923243  21.8456112  49.5940313 136.8857602  20.4271382  49.4034186
 146.8289934  31.5135113  49.2563680 146.0385477  31.4959251  48.7168180
 146.5923288  32.0523406  50.0112717 146.9487809  28.3627579  46.5696409
 146.9985814  28.1977586  47.5111932 146.8401732  27.4954838  46.1794290
 135.8324067  31.0416125  33.8588498 135.9812188  31.7251589  33.2055170
 136.6390511  31.0221215  34.3737953 144.2391571  24.3458507  47.8855715
 145.1401434  24.2064972  47.5939713 144.3139546  24.5112962  48.8253893
 138.5734376  21.7225362  46.7308902 137.7037686  22.0158928  46.4591490
 138.8093857  22.3065807  47.4516165 148.4506006  30.7824521  46.8138430
 148.1590814  31.1454501  47.6501891 147.8378137  30.0691529  46.6351762
 149.6501688  28.3477400  39.3341001 150.4848579  28.7867204  39.4978561
 149.7860817  27.8716053  38.5149246 146.6993194  25.9057135  45.2818488
 147.1747315  26.0984781  44.4737340 145.7758759  25.9616321  45.0361872
 133.5876700  27.0681302  34.8649567 133.3422742  26.1643632  35.0629777
 133.7572615  27.0698453  33.9229045 141.2773410  17.9404979  44.2474322
 141.7955354  18.6766006  43.9220811 140.9228543  18.2468972  45.0821081
 132.8572348  22.8009660  32.3635728 132.1641593  22.8754015  31.7075764
 132.6124100  22.0370004  32.8857245 139.3319473  33.5364255  31.3300245
 138.7593440  34.1554442  30.8770717 139.9052267  34.0863617  31.8640167
 145.3994863  22.7822895  43.5146794 146.3512286  22.8820993  43.5359018
 145.2298313  21.9901164  44.0244878 143.4209242  19.8678478  43.7006195
 142.8259174  20.1483491  43.0052683 143.1358939  20.3572379  44.4722936
 142.5516733  33.8201405  32.4608827 143.4847406  33.7546967  32.6641703
 142.4639946  34.6557672  32.0023360 147.8782941  26.0029015  42.6289094
 147.8459261  25.0645016  42.8148777 148.4883564  26.0813052  41.8954918
 148.0277429  22.7940058  42.6747377 147.5116478  22.0098515  42.4877306
 148.9117378  22.4658775  42.8393896 153.6959490  27.0645022  41.7695130
 154.4262879  26.8030310  42.3302834 153.0866436  26.3273744  41.8097198
 151.7774788  25.2052884  42.3669582 151.0507951  25.0708849  41.7586073
 151.3622074  25.5129713  43.1726300 139.6004964  28.9242814  50.1316955
 140.5207973  29.1021413  50.3257001 139.5654547  27.9798859  49.9796654
 128.8187129  24.1181408  39.0570229 128.4989913  23.2646716  38.7644603
 128.2720557  24.3329986  39.8128197 132.5967036  26.8343849  42.7739736
 132.8153046  27.7660956  42.7927770 133.0092810  26.4751823  43.5594540
 137.4694902  22.4077054  52.1642485 137.3691629  23.3571411  52.0954576
 137.2516444  22.0795293  51.2918555 128.6875389  27.7384319  41.0263351
 127.9938860  27.3238272  40.5133305 129.4348380  27.7804856  40.4296770
 137.3326172  25.8374193  50.9807546 136.8493254  26.6374553  51.1871435
 137.4187111  25.8482138  50.0274990 130.6012131  27.6702573  38.9029366
 130.5782820  27.7690260  37.9511249 130.9112768  28.5167724  39.2246532
 133.2599509  29.7278728  43.0175980 134.2142763  29.6962670  42.9505912
 133.0612033  29.2669352  43.8326206 133.8498891  28.2979844  45.5846778
 134.6691780  28.7923923  45.6081615 134.1235699  27.3811812  45.5564345
 131.6149738  35.2698347  40.0346178 131.4804206  34.5098748  39.4684176
 131.1981800  35.9939247  39.5674967 143.5806511  26.2045132  35.1625023
 143.5241713  26.6613684  34.3232656 144.1334854  25.4435817  34.9847866
 134.7718864  36.1667664  40.2464621 134.6551248  37.1113097  40.1443311
 133.9511310  35.8641226  40.6350420 129.1033806  22.6317978  46.2838975
 129.7492669  22.1216932  46.7726200 128.8950957  23.3686660  46.8582400
 141.6287198  29.6998825  51.7831115 142.4978358  29.8739478  51.4217750
 141.1493949  30.5193242  51.6606845 135.7973378  36.8195926  43.4620549
 136.7000625  36.8519537  43.7787044 135.5710748  35.8896377  43.4766885
 137.5526980  35.5726913  40.1230628 136.6022611  35.5728775  40.0095000
 137.8559466  34.8259647  39.6066662 133.4431297  19.7785595  50.3813989
 134.3062758  19.4222400  50.5917314 132.8696707  19.4399490  51.0689393
 153.2879674  41.4087451  41.1876390 153.9258084  41.2894199  40.4839730
 153.1700517  42.3568295  41.2464342 150.0969380  41.3614879  41.1237915
 149.7587891  41.2455944  40.2358450 150.9659148  40.9606045  41.1038921
 145.9556196  43.2150356  37.1134806 145.3921061  43.1240293  36.3451093
 145.8408591  42.3950260  37.5937298 150.5789163  42.5149731  47.0824120
 150.5677804  42.1202529  46.2104624 150.7409802  41.7815804  47.6757892
 143.5020628  44.7101547  39.9519026 144.2941919  44.3692372  39.5365325
 143.7417278  44.8196522  40.8721179 151.5355754  46.8821324  32.4249271
 150.8843734  47.4675404  32.0383284 152.3300117  47.4127518  32.4844308
 145.4611381  43.9710461  32.8236405 146.2342257  43.4239448  32.6849281
 145.8136780  44.8354710  33.0350866 147.2996424  45.2986843  46.0303304
 147.0086290  46.2032474  45.9149971 147.9353408  45.3403371  46.7447374
 148.2252631  42.6763691  42.6204664 148.8216203  42.4519714  41.9061627
 148.2827602  41.9348437  43.2230112 147.7977659  40.1303127  30.4554855
 148.0503180  39.6084648  29.6938318 146.8602218  39.9669272  30.5581538
 152.8420942  39.1338905  38.2629598 153.6284031  38.7158328  37.9120015
 153.1059646  40.0384997  38.4311246 153.0131019  44.5711755  32.9618255
 152.3776852  44.6446382  33.6739160 152.6828426  45.1605354  32.2837334
 158.2429369  39.0714138  39.1662577 158.9754541  38.5013355  39.4000406
 157.4868725  38.6835739  39.6069082 147.5173948  42.0331233  32.6579230
 147.4010206  41.3576136  33.3260314 147.6276208  41.5463607  31.8411383
 149.8605489  41.4941380  36.3625919 149.4963696  40.9672001  37.0738841
 150.7172605  41.1039849  36.1892404 155.7654790  32.7835712  43.6257185
 155.4338114  33.6531123  43.4018400 155.1700403  32.4671996  44.3051216
 152.2586309  44.9848258  43.0253098 151.9587032  45.8873297  42.9168905
 151.9137369  44.7180442  43.8774251 145.7098791  41.4362055  39.0589802
 144.7849287  41.3038269  39.2667494 145.9583204  42.2156275  39.5559745
 155.6583453  37.5030799  40.7050535 154.7500330  37.4346207  40.4109296
 155.6071049  37.9802744  41.5332361 149.4800197  38.9788937  32.3433934
 149.3599822  39.4245988  33.1819415 148.7852785  39.3274255  31.7847473
 143.0707602  41.0795329  39.8933591 143.1999983  41.3329808  40.8073003
 142.3905053  41.6723037  39.5738246 147.2407089  51.7492579  35.9924066
 147.1631119  52.7000404  36.0712546 146.6368733  51.4038451  36.6498992
 149.7324319  38.9220444  48.6485433 148.9557653  39.4814364  48.6388297
 150.3714882  39.4077227  49.1700303 157.5245099  35.7047237  42.4828409
 156.8819480  35.9979770  41.8368204 157.0200028  35.5900157  43.2881606
 147.9870691  41.7305898  48.2103400 148.7285375  42.2690942  47.9338223
 147.2807676  42.3572186  48.3674951 153.4626031  43.8735038  46.8075561
 153.8709387  43.4317449  46.0630193 152.7403292  43.2987666  47.0609754
 149.8157101  38.8107645  44.1809118 150.6618296  39.2347058  44.3243767
 149.7555738  38.1541269  44.8747681 153.7854845  44.4336229  40.5627850
 153.1563708  44.5981943  39.8603918 153.3980507  44.8477838  41.3338814
 157.6644077  45.3690667  37.9172214 156.9795115  45.7489568  37.3669247
 157.7487927  45.9785993  38.6504161 152.9656546  36.4712013  45.8390292
 152.7217478  37.2254074  45.3024567 153.2416477  36.8497361  46.6737539
 154.9195009  43.0150626  44.5167557 155.1311904  43.6582385  43.8401938
 154.8724757  42.1812942  44.0489487 152.5221238  35.6268446  41.4204129
 151.6605717  35.9249700  41.7120867 152.5483672  35.8438845  40.4885162
 149.3382807  44.1710637  37.8277935 149.8021153  44.4498340  37.0382557
 149.0739605  43.2694081  37.6451026 146.2306888  43.7182118  40.7657698
 146.8008245  44.1469387  40.1275183 146.8215000  43.4364703  41.4641884
 148.2751693  40.2933789  34.6367500 148.9775737  40.7454833  35.1041426
 147.9432322  39.6517608  35.2647393 146.7232055  38.8845546  49.0118710
 146.0930715  39.5661827  49.2454106 146.6168143  38.7728627  48.0671848
 142.0177027  38.5517342  39.9384634 141.2276081  38.8074870  39.4624744
 142.5088275  39.3665680  40.0436674 156.0340837  45.8922581  42.6889915
 156.8558280  45.4902768  42.4072596 156.0303240  45.7890815  43.6406030
 143.9691773  38.9161921  36.8968110 143.1722936  39.0280615  37.4151606
 143.7417365  39.2548573  36.0309001 149.7997440  45.4406624  44.8450625
 149.8641873  45.9027032  45.6808797 149.0908364  44.8103989  44.9732935
 140.3014730  38.8047832  42.3699624 140.5522769  39.6894842  42.6357200
 140.8374279  38.6252434  41.5974716 149.5145458  47.1074732  34.7129605
 149.3791133  47.9526267  35.1414453 150.0555270  47.3094009  33.9495539
 146.0012797  33.1866312  51.3743961 145.6079743  32.6332510  52.0491605
 146.8178938  33.4976890  51.7650478 142.9674855  44.6250170  35.2857530
 143.4799376  45.4193420  35.4363095 143.6197568  43.9276460  35.2191132
 144.7769740  47.7415926  37.3680284 144.9536368  48.6633891  37.1801267
 145.5726573  47.4274345  37.7974663 148.9180758  34.6024191  48.9664217
 149.6590472  35.2031344  48.8868680 149.1498681  33.8601829  48.4082260
 144.0622096  39.7880558  47.2442447 143.9475612  38.8865815  47.5449546
 143.2066614  40.0344255  46.8927263 151.1413934  47.7298298  48.8429947
 150.6977788  46.9434677  48.5250852 151.8031148  47.9177449  48.1773838
 145.9001055  49.2594100  43.3690626 146.4508481  49.1311163  42.5967620
 145.0612531  49.5588989  43.0185519 153.2395172  48.0101098  46.8711349
 153.2213648  48.8309979  46.3791618 154.1615092  47.8855173  47.0961490
 149.6968226  45.5245228  47.7134857 150.2296563  44.7633516  47.4834165
 149.1682308  45.2318880  48.4559012 152.8637921  30.6305294  43.2428499
 152.5202191  31.5206935  43.1667609 153.2316884  30.4406951  42.3798084
 140.9323772  42.9538824  36.0617101 141.7698994  43.3635832  35.8450809
 141.1102040  42.0138266  36.0317295 150.4135315  35.4663606  36.8086172
 149.5576912  35.0770456  36.6291811 150.8262267  35.5455566  35.9485958
 151.9434462  33.0009949  41.2077732 151.4399257  32.9640084  40.3945537
 152.2365069  33.9102692  41.2674389 148.1877348  33.0848679  40.2143914
 149.0530344  32.8891487  39.8549803 148.2554857  32.8559030  41.1413271
 151.0620939  44.6531220  35.2253669 150.5342301  43.9183980  34.9126907
 150.5608442  45.4305897  34.9793637 156.0413785  42.8480241  40.3420715
 155.3837460  43.5379502  40.4300844 156.8454184  43.2376673  40.6854702
 145.7939667  35.3150886  37.5860281 146.3683419  35.0926068  36.8533474
 146.3810649  35.3839581  38.3388882 154.8519244  41.2024613  38.3924657
 155.3651126  41.8354605  38.8946367 155.5020468  40.6025809  38.0268017
 146.1209254  37.3455347  31.6056166 145.2846566  37.6830034  31.9265441
 145.9814024  37.2104327  30.6683303 148.0962334  32.1892135  36.3135350
 147.4426747  31.8741153  35.6891965 148.0542809  31.5667876  37.0395173
 152.1141618  51.1808938  31.1485328 151.4403317  51.4840634  31.7570286
 152.5007440  51.9838018  30.7990785 151.3300075  38.6774069  40.6382998
 150.4122636  38.8989016  40.4804686 151.7460218  38.7520379  39.7794705
 152.1135123  40.0765485  35.7685678 152.8606942  40.5886882  35.4592800
 152.3826712  39.7549537  36.6290071 150.3861773  42.5724025  32.7512632
 149.4772992  42.2883058  32.8485102 150.4156857  42.9923104  31.8915939
 155.6181040  46.1830615  36.5203800 155.1643367  45.3421525  36.5768990
 154.9875007  46.8192013  36.8578580 154.5613960  37.1122601  37.7504467
 153.8236717  36.5999987  38.0814710 154.8140733  36.6722982  36.9387744
 154.0613979  48.0207111  37.4553618 154.3536954  48.5812169  36.7365984
 154.5712600  48.3135672  38.2106777 140.9549943  40.2929539  36.7327834
 140.7574343  39.6998900  36.0078901 140.3996607  39.9881750  37.4503773
 148.9346667  40.1852646  38.8522428 148.9895277  39.2326482  38.7764904
 148.1237869  40.3412085  39.3363726 150.0837861  44.1132769  30.0900711
 149.6457291  43.3968628  29.6306348 150.8248301  44.3408884  29.5285802
 146.8739027  38.8029706  36.6112806 146.0606892  39.1023876  37.0177999
 147.3698021  38.4085394  37.3287289 149.0247605  48.7987463  38.5447071
 148.9823783  49.0248309  37.6155603 149.9410303  48.5650837  38.6932872
 152.4713238  39.2671530  45.4427700 152.8262626  39.4943003  46.3022166
 153.1185370  39.5989907  44.8204956 146.3653101  36.3748061  42.2274041
 147.0052481  36.2336820  41.5297005 145.5330632  36.0882575  41.8512643
 158.2280355  44.4566493  41.1588301 158.6616862  44.3641782  42.0071355
 158.9411936  44.4323993  40.5208317 147.1413405  45.6750492  38.3409034
 147.9354004  45.1800812  38.1391609 146.4305098  45.1468355  37.9776739
 151.9608250  48.0568587  42.6921401 152.0145272  48.6259523  43.4599117
 151.0923031  48.2270472  42.3275439 143.4496169  39.8193573  34.4168787
 142.5193757  39.7578029  34.6338749 143.5453641  39.2969526  33.6205428
 143.3681718  36.3448386  37.0047028 143.6288535  37.2593719  36.8956189
 144.1898890  35.8772829  37.1543641 144.8406643  37.7586143  44.1745853
 145.5129697  37.5503505  43.5258502 144.0136430  37.5608229  43.7351085
 150.7432215  34.3848084  46.1911514 150.0960130  35.0838034  46.0975990
 151.5133231  34.8184228  46.5587762 154.1511013  44.6496936  49.2662067
 153.9996520  44.4207488  48.3492151 154.1415693  45.6067538  49.2793412
 150.9196350  42.2228849  44.2508333 151.8488410  42.3740009  44.0777301
 150.4987380  42.3112870  43.3956980 149.7184681  46.2479514  42.0206871
 149.5795767  45.8798298  42.8932809 148.9299278  46.7627153  41.8490829
 150.3132833  51.3488610  33.3632407 150.4884589  50.8776653  34.1778030
 149.6265621  51.9754376  33.5913668 151.2689897  45.6261116  39.4095709
 150.9339729  45.5861886  40.3053359 150.7693842  44.9605832  38.9366119
 145.2434141  41.0328746  44.9348290 145.1053938  40.3008985  45.5359829
 146.1539064  40.9437646  44.6532478 147.8716441  40.7448706  44.4231970
 148.5816060  40.1041898  44.3818588 147.8285749  40.9961600  45.3458150
 155.8603220  47.6816059  47.3438549 155.8015766  46.9975279  46.6769132
 156.2622738  48.4235049  46.8919175 146.5845375  37.7313924  46.2427609
 146.0482732  37.2804662  46.8949205 145.9962084  37.8659832  45.4998073
 144.8793919  54.4977973  40.1372268 145.1190517  55.1296497  40.8151286
 144.0363115  54.1466013  40.4237627 155.8620627  45.6455643  45.5752528
 154.9747406  45.3081565  45.6978927 156.4319178  44.9138674  45.8121294
 137.5149774  41.9779735  38.8995580 138.2020814  41.6641465  38.3116595
 137.3597903  42.8821099  38.6262831 142.3184496  36.8669931  43.3280603
 142.2342685  36.2595601  42.5931013 141.4967203  37.3578950  43.3290100
 149.3921781  50.3057095  42.5413772 149.3191952  51.1112067  43.0533076
 148.9499174  50.5049061  41.7161793 149.1811560  49.5428865  36.0516593
 148.3979082  50.0850545  36.1454818 149.8804305  50.0602845  36.4510834
 152.4908210  35.3523495  38.6950799 152.9876910  34.5993457  38.3751869
 151.7195192  35.3887811  38.1294008 151.8520464  50.2043929  44.6971930
 152.5648436  50.8391394  44.6247832 151.3610493  50.3007795  43.8811932
 153.5737991  44.1095182  36.2689222 152.6394270  44.2296644  36.0993926
 153.7514659  43.2067649  36.0049232 149.0743179  37.4940878  38.4222483
 148.7040967  36.9411918  39.1103389 149.5702271  36.8899011  37.8697483
 156.9610542  39.9512501  36.8039256 157.4270994  40.7840493  36.7299559
 157.4118043  39.4857483  37.5084515 146.9032378  47.9538373  45.5177501
 147.6041837  48.5874856  45.6706895 146.4327493  48.2953104  44.7573140
 155.0286773  46.2956323  33.8025408 155.3046617  46.1812917  34.7119282
 154.1591272  45.8973807  33.7637581 154.9327205  32.3193088  40.8430157
 154.0190285  32.5497315  41.0112364 155.3620307  32.4031532  41.6944190
 154.7033664  40.5082980  43.3430051 154.0505114  40.7558888  42.6882504
 155.0814043  39.6947118  43.0092529 151.6640837  50.5442673  37.4458222
 151.8463232  49.7264329  37.9085974 152.4873823  50.7610366  37.0083112
 151.9983003  49.4710859  34.7073270 152.5270769  48.9603313  34.0943432
 152.2611223  49.1553389  35.5718803 150.7521237  41.2502791  49.8296089
 150.0761874  41.1496921  50.4998464 151.5748870  41.0942005  50.2932086
 142.5000096  47.4874728  42.4508604 143.0853532  46.7418416  42.5836508
 142.3024934  47.7978685  43.3345268 145.3538751  50.5225975  37.4671046
 144.6849126  51.0072103  36.9835086 145.2151621  50.7695196  38.3814425
 137.0917750  40.0580328  41.1713047 137.1301850  39.5243919  41.9650165
 136.5858043  39.5315534  40.5524024 149.4944019  52.5569719  44.0653705
 150.0462327  52.7201340  44.8302790 149.8350213  53.1474157  43.3933729
 144.4708513  34.9044869  44.6675589 144.5349839  35.7659699  44.2552987
 144.4075633  34.2918870  43.9347948 143.9460785  36.9768001  48.3148623
 144.5732824  36.5945078  48.9286148 143.0888704  36.7582203  48.6804316
 154.3454894  47.3830976  49.9202359 154.8894798  47.9960934  49.4257314
 153.7641739  47.9410555  50.4369372 140.7226328  38.7844430  34.2466978
 141.0179769  37.8755109  34.1934032 139.8214364  38.7632170  33.9247981
 152.6312407  50.5051694  41.0517387 152.5063546  49.7041434  40.5428332
 153.2891498  50.9997888  40.5631357 144.2520575  36.8600427  40.2294527
 143.5307161  37.4736394  40.0902000 145.0413831  37.3958192  40.1511173
 154.6947315  48.3060714  42.6796937 153.7477651  48.1866066  42.6075263
 155.0430088  47.4183212  42.7623198 147.0546888  34.1954853  46.5035179
 147.5781290  34.4417150  47.2661488 146.8359222  35.0274888  46.0838316
 142.4514170  36.4658528  34.3706303 142.1226876  35.5855907  34.1881409
 142.8053540  36.4106197  35.2582693 151.6993748  48.1013431  38.8801289
 151.5518711  47.1730138  39.0608859 152.5247242  48.1233521  38.3958364
 145.5655993  36.7531498  34.7381781 145.9052065  37.2817419  34.0160389
 146.0128113  37.0911904  35.5140348 155.3027870  48.9241989  39.9666162
 156.2274418  48.7184851  39.8290613 155.1343174  48.6758390  40.8755503
 148.2599434  35.1368548  44.1884849 147.9196254  34.3376361  44.5905529
 147.5538440  35.4370259  43.6161682 148.9115905  32.2217861  42.6412172
 149.7341975  31.7478339  42.5191063 149.1553969  33.0008345  43.1410858
 147.5524140  35.2506119  32.9375074 148.2732502  35.6287372  32.4338791
 146.9289444  35.9694996  33.0410052 146.4354484  38.9136981  40.4504151
 146.2899065  39.2277284  41.3428432 145.9579688  39.5321882  39.8975049
 148.2950867  35.9039529  40.4985040 148.2812436  35.0080623  40.1617338
 149.0123295  35.9110193  41.1323326 150.1476998  36.3376870  42.5438168
 149.8894776  37.2593940  42.5422498 149.6162038  35.9407304  43.2338632
 155.0923186  49.4427657  35.3228253 155.2660064  48.8774079  34.5702106
 155.5852078  50.2428552  35.1407743 140.9100146  41.4542326  43.3891812
 140.3653614  42.2302134  43.5212086 141.7879496  41.8013130  43.2310933
 147.6987763  34.7853910  35.7672611 147.8203674  33.8570556  35.9663498
 147.4089805  34.7992596  34.8550926 150.5678953  32.4708820  38.9039330
 150.5900650  32.5348153  37.9491310 150.9847012  31.6313329  39.0979837
 156.0798359  48.7594421  32.4225151 156.7749264  49.3801114  32.6412466
 156.4221509  47.9089772  32.6977529 141.6966168  40.5812222  46.2821969
 140.9547904  40.7294857  46.8686599 141.3758912  40.8420488  45.4188718
 149.6409831  50.1228200  46.0802359 149.9496957  49.8777347  46.9525058
 150.4385313  50.3274839  45.5921229 149.6630443  52.2766110  38.3107735
 149.2235433  51.7842489  39.0040592 150.4138560  51.7339078  38.0699811
 142.1422782  48.4677651  38.3132363 142.9680802  48.1681423  37.9331007
 141.7916834  47.6985273  38.7622152 147.1104315  47.8204119  40.3830037
 146.4884324  47.1574824  40.0832265 147.7809182  47.8465251  39.7003685
 140.3431387  46.3863977  39.2721297 139.5063295  45.9586152  39.0905298
 140.3155032  46.5796421  40.2092088 147.1828842  36.2985907  49.9762543
 147.2316998  37.1748030  49.5940313 147.7251357  35.7563300  49.4034186
 157.6683688  46.8427030  49.2563680 156.8779232  46.8251169  48.7168180
 157.4317043  47.3815324  50.0112717 157.7881563  43.6919497  46.5696409
 157.8379568  43.5269504  47.5111932 157.6795487  42.8246756  46.1794290
 146.6717822  46.3708042  33.8588498 146.8205942  47.0543507  33.2055170
 147.4784265  46.3513132  34.3737953 155.0785326  39.6750425  47.8855715
 155.9795188  39.5356890  47.5939713 155.1533300  39.8404880  48.8253893
 149.4128131  37.0517279  46.7308902 148.5431440  37.3450846  46.4591490
 149.6487611  37.6357724  47.4516165 157.5386948  41.2349053  45.2818488
 158.0141070  41.4276699  44.4737340 156.6152514  41.2908239  45.0361872
 144.4270455  42.3973220  34.8649567 144.1816497  41.4935550  35.0629777
 144.5966369  42.3990370  33.9229045 152.1167165  33.2696896  44.2474322
 152.6349109  34.0057923  43.9220811 151.7622298  33.5760890  45.0821081
 143.6966102  38.1301578  32.3635728 143.0035347  38.2045933  31.7075764
 143.4517854  37.3661921  32.8857245 152.3679759  29.6897179  39.7675219
 152.6481513  29.0220368  40.3935645 153.1530366  29.8826275  39.2549883
 150.1713227  48.8656173  31.3300245 149.5987194  49.4846360  30.8770717
 150.7446021  49.4155534  31.8640167 156.2388617  38.1114813  43.5146794
 157.1906040  38.2112911  43.5359018 156.0692068  37.3193081  44.0244878
 154.2602997  35.1970396  43.7006195 153.6652929  35.4775409  43.0052683
 153.9752693  35.6864297  44.4722936 153.3910487  49.1493323  32.4608827
 154.3241160  49.0838885  32.6641703 153.3033700  49.9849590  32.0023360
 150.4398718  44.2534732  50.1316955 151.3601728  44.4313331  50.3257001
 150.4048301  43.3090777  49.9796654 139.6580883  39.4473325  39.0570229
 139.3383668  38.5938634  38.7644603 139.1114312  39.6621904  39.8128197
 143.4360791  42.1635766  42.7739736 143.6546801  43.0952874  42.7927770
 143.8486565  41.8043741  43.5594540 148.3088656  37.7368972  52.1642485
 148.2085383  38.6863329  52.0954576 148.0910198  37.4087211  51.2918555
 139.5269143  43.0676237  41.0263351 138.8332615  42.6530190  40.5133305
 140.2742134  43.1096773  40.4296770 148.1719926  41.1666111  50.9807546
 147.6887008  41.9666471  51.1871435 148.2580865  41.1774056  50.0274990
 141.4405886  42.9994491  38.9029366 141.4176574  43.0982178  37.9511249
 141.7506522  43.8459641  39.2246532 144.0993264  45.0570646  43.0175980
 145.0536517  45.0254588  42.9505912 143.9005787  44.5961269  43.8326206
 144.6892646  43.6271762  45.5846778 145.5085535  44.1215840  45.6081615
 144.9629454  42.7103730  45.5564345 142.4543493  50.5990265  40.0346178
 142.3197961  49.8390666  39.4684176 142.0375555  51.3231165  39.5674967
 154.4200266  41.5337050  35.1625023 154.3635467  41.9905601  34.3232656
 154.9728608  40.7727735  34.9847866 145.6112618  51.4959582  40.2464621
 145.4945003  52.4405015  40.1443311 144.7905065  51.1933144  40.6350420
 139.9427560  37.9609896  46.2838975 140.5886424  37.4508850  46.7726200
 139.7344711  38.6978577  46.8582400 152.4680952  45.0290743  51.7831115
 153.3372112  45.2031395  51.4217750 151.9887704  45.8485160  51.6606845
 146.6367133  52.1487844  43.4620549 147.5394379  52.1811454  43.7787044
 146.4104503  51.2188295  43.4766885 148.3920735  50.9018831  40.1230628
 147.4416366  50.9020692  40.0095000 148.6953221  50.1551565  39.6066662
 144.2825051  35.1077513  50.3813989 145.1456513  34.7514317  50.5917314
 143.7090462  34.7691407  51.0689393 156.7949950  58.5442274  37.1134806
 156.2314815  58.4532210  36.3451093 156.6802345  57.7242178  37.5937298
 154.3414382  60.0393465  39.9519026 155.1335674  59.6984290  39.5365325
 154.5811032  60.1488440  40.8721179 156.3005136  59.3002378  32.8236405
 157.0736012  58.7531365  32.6849281 156.6530535  60.1646628  33.0350866
 158.1390179  60.6278761  46.0303304 157.8480045  61.5324391  45.9149971
 158.7747163  60.6695288  46.7447374 158.6371414  55.4595044  30.4554855
 158.8896934  54.9376566  29.6938318 157.6995973  55.2961190  30.5581538
 158.3567703  57.3623150  32.6579230 158.2403961  56.6868054  33.3260314
 158.4669962  56.8755524  31.8411383 156.5492545  56.7653973  39.0589802
 155.6243042  56.6330187  39.2667494 156.7976958  57.5448192  39.5559745
 153.9101356  56.4087247  39.8933591 154.0393737  56.6621725  40.8073003
 153.2298807  57.0014955  39.5738246 158.0800843  67.0784496  35.9924066
 158.0024873  68.0292322  36.0712546 157.4762487  66.7330369  36.6498992
 157.0700643  59.0474036  40.7657698 157.6402000  59.4761304  40.1275183
 157.6608755  58.7656621  41.4641884 157.5625809  54.2137463  49.0118710
 156.9324470  54.8953744  49.2454106 157.4561897  54.1020545  48.0671848
 152.8570782  53.8809259  39.9384634 152.0669836  54.1366788  39.4624744
 153.3482029  54.6957597  40.0436674 154.8085527  54.2453839  36.8968110
 154.0116690  54.3572533  37.4151606 154.5811119  54.5840491  36.0309001
 151.1408485  54.1339750  42.3699624 151.3916523  55.0186760  42.6357200
 151.6768033  53.9544351  41.5974716 156.8406552  48.5158229  51.3743961
 156.4473498  47.9624428  52.0491605 157.6572692  48.8268808  51.7650478
 153.8068610  59.9542087  35.2857530 154.3193130  60.7485338  35.4363095
 154.4591323  59.2568378  35.2191132 155.6163494  63.0707844  37.3680284
 155.7930123  63.9925808  37.1801267 156.4120328  62.7566263  37.7974663
 154.9015851  55.1172476  47.2442447 154.7869366  54.2157733  47.5449546
 154.0460369  55.3636172  46.8927263 156.7394810  64.5886018  43.3690626
 157.2902235  64.4603081  42.5967620 155.9006286  64.8880907  43.0185519
 151.7717527  58.2830742  36.0617101 152.6092749  58.6927750  35.8450809
 151.9495794  57.3430184  36.0317295 156.6333421  50.6442804  37.5860281
 157.2077173  50.4217986  36.8533474 157.2204404  50.7131499  38.3388882
 156.9603008  52.6747265  31.6056166 156.1240321  53.0121952  31.9265441
 156.8207778  52.5396245  30.6683303 158.9356089  47.5184053  36.3135350
 158.2820501  47.2033070  35.6891965 158.8936563  46.8959793  37.0395173
 151.7943698  55.6221457  36.7327834 151.5968097  55.0290818  36.0078901
 151.2390362  55.3173667  37.4503773 157.7132781  54.1321623  36.6112806
 156.9000647  54.4315794  37.0177999 158.2091775  53.7377312  37.3287289
 157.2046856  51.7039979  42.2274041 157.8446235  51.5628738  41.5297005
 156.3724387  51.4174492  41.8512643 157.9807160  61.0042409  38.3409034
 158.7747758  60.5092729  38.1391609 157.2698852  60.4760272  37.9776739
 154.2889923  55.1485491  34.4168787 153.3587511  55.0869946  34.6338749
 154.3847395  54.6261444  33.6205428 154.2075472  51.6740304  37.0047028
 154.4682290  52.5885637  36.8956189 155.0292645  51.2064746  37.1543641
 155.6800398  53.0878061  44.1745853 156.3523451  52.8795423  43.5258502
 154.8530184  52.8900147  43.7351085 156.0827895  56.3620664  44.9348290
 155.9447693  55.6300903  45.5359829 156.9932818  56.2729564  44.6532478
 157.4239130  53.0605841  46.2427609 156.8876487  52.6096580  46.8949205
 156.8355838  53.1951750  45.4998073 155.7187673  69.8269890  40.1372268
 155.9584271  70.4588415  40.8151286 154.8756870  69.4757931  40.4237627
 148.3543529  57.3071652  38.8995580 149.0414569  56.9933382  38.3116595
 148.1991657  58.2113017  38.6262831 153.1578251  52.1961849  43.3280603
 153.0736440  51.5887518  42.5931013 152.3360957  52.6870867  43.3290100
 157.7426132  63.2830290  45.5177501 158.4435592  63.9166773  45.6706895
 157.2721247  63.6245022  44.7573140 153.3393850  62.8166645  42.4508604
 153.9247287  62.0710333  42.5836508 153.1418689  63.1270602  43.3345268
 156.1932505  65.8517893  37.4671046 155.5242881  66.3364020  36.9835086
 156.0545375  66.0987113  38.3814425 147.9311505  55.3872246  41.1713047
 147.9695604  54.8535836  41.9650165 147.4251798  54.8607451  40.5524024
 155.3102267  50.2336786  44.6675589 155.3743594  51.0951617  44.2552987
 155.2469387  49.6210788  43.9347948 154.7854540  52.3059919  48.3148623
 155.4126578  51.9236996  48.9286148 153.9282459  52.0874121  48.6804316
 151.5620082  54.1136348  34.2466978 151.8573524  53.2047026  34.1934032
 150.6608118  54.0924087  33.9247981 155.0914329  52.1892344  40.2294527
 154.3700915  52.8028312  40.0902000 155.8807585  52.7250109  40.1511173
 157.8940643  49.5246771  46.5035179 158.4175045  49.7709067  47.2661488
 157.6752976  50.3566806  46.0838316 153.2907924  51.7950445  34.3706303
 152.9620630  50.9147824  34.1881409 153.6447295  51.7398114  35.2582693
 156.4049747  52.0823415  34.7381781 156.7445820  52.6109337  34.0160389
 156.8521868  52.4203821  35.5140348 159.0993188  50.4660466  44.1884849
 158.7590008  49.6668279  44.5905529 158.3932194  50.7662177  43.6161682
 158.3917894  50.5798037  32.9375074 159.1126257  50.9579290  32.4338791
 157.7683198  51.2986914  33.0410052 157.2748239  54.2428899  40.4504151
 157.1292819  54.5569202  41.3428432 156.7973442  54.8613799  39.8975049
 151.7493901  56.7834243  43.3891812 151.2047369  57.5594051  43.5212086
 152.6273251  57.1305048  43.2310933 158.5381517  50.1145827  35.7672611
 158.6597429  49.1862474  35.9663498 158.2483560  50.1284513  34.8550926
 152.5359923  55.9104140  46.2821969 151.7941659  56.0586775  46.8686599
 152.2152667  56.1712405  45.4188718 152.9816536  63.7969568  38.3132363
 153.8074556  63.4973340  37.9331007 152.6310588  63.0277191  38.7622152
 157.9498069  63.1496037  40.3830037 157.3278079  62.4866742  40.0832265
 158.6202936  63.1757169  39.7003685 151.1825141  61.7155895  39.2721297
 150.3457050  61.2878069  39.0905298 151.1548787  61.9088338  40.2092088
 158.0222597  51.6277825  49.9762543 158.0710752  52.5039948  49.5940313
 158.5645111  51.0855218  49.4034186 157.5111576  61.6999960  33.8588498
 157.6599697  62.3835424  33.2055170 158.3178020  61.6805050  34.3737953
 155.2664209  57.7265138  34.8649567 155.0210251  56.8227468  35.0629777
 155.4360124  57.7282288  33.9229045 154.5359857  53.4593495  32.3635728
 153.8429102  53.5337850  31.7075764 154.2911609  52.6953839  32.8857245
 150.4974638  54.7765243  39.0570229 150.1777422  53.9230551  38.7644603
 149.9508066  54.9913821  39.8128197 154.2754545  57.4927684  42.7739736
 154.4940555  58.4244792  42.7927770 154.6880319  57.1335658  43.5594540
 159.1482411  53.0660890  52.1642485 159.0479138  54.0155247  52.0954576
 158.9303953  52.7379129  51.2918555 150.3662898  58.3968155  41.0263351
 149.6726369  57.9822107  40.5133305 151.1135889  58.4388691  40.4296770
 159.0113681  56.4958029  50.9807546 158.5280763  57.2958389  51.1871435
 159.0974620  56.5065973  50.0274990 152.2799640  58.3286408  38.9029366
 152.2570329  58.4274096  37.9511249 152.5900277  59.1751559  39.2246532
 154.9387018  60.3862563  43.0175980 155.8930272  60.3546506  42.9505912
 154.7399542  59.9253187  43.8326206 155.5286400  58.9563679  45.5846778
 156.3479289  59.4507758  45.6081615 155.8023208  58.0395648  45.5564345
 153.2937247  65.9282183  40.0346178 153.1591715  65.1682584  39.4684176
 152.8769309  66.6523083  39.5674967 156.4506373  66.8251500  40.2464621
 156.3338757  67.7696932  40.1443311 155.6298819  66.5225061  40.6350420
 150.7821315  53.2901813  46.2838975 151.4280178  52.7800767  46.7726200
 150.5738466  54.0270495  46.8582400 157.4760887  67.4779762  43.4620549
 158.3788134  67.5103372  43.7787044 157.2498257  66.5480213  43.4766885
 155.1218806  50.4369430  50.3813989 155.9850267  50.0806235  50.5917314
 154.5484216  50.0983325  51.0689393 158.7705259  70.7164163  41.1713047
 158.8089359  70.1827754  41.9650165 158.2645552  70.1899369  40.5524024
  10.6236936  77.5405166 138.6286814   9.9724916  78.1259246 138.2420828
  11.4181299  78.0711361 138.6881852   4.5492563  74.6294303 139.0273949
   5.3223439  74.0823290 138.8886825   4.9017962  75.4938552 139.2388410
   6.8858841  70.7886969 136.6592399   7.1384362  70.2668491 135.8975862
   5.9483400  70.6253115 136.7619082  12.1012201  75.2295598 139.1655799
  11.4658034  75.3030224 139.8776703  11.7709607  75.8189197 138.4874878
   6.6055130  72.6915075 138.8616774   6.4891388  72.0159979 139.5297858
   6.7157390  72.2047449 138.0448927   8.5892158  67.1815122 137.5624811
   8.7566560  68.0495358 137.9295282   8.3989327  67.3442404 136.6386101
   8.5681378  69.6372780 138.5471478   8.4481004  70.0829830 139.3856958
   7.8733967  69.9858097 137.9885016   6.3288271  82.4076421 142.1961609
   6.2512300  83.3584246 142.2750090   5.7249914  82.0622294 142.8536536
  14.2666445  70.1094253 139.3751812  15.1784301  70.3421639 139.1999510
  13.7576092  70.6931297 138.8126891  16.7525259  76.0274509 144.1209757
  16.0676297  76.4073410 143.5706791  16.8369108  76.6369836 144.8541705
   8.4263989  74.8294479 144.0315479   8.8902334  75.1082182 143.2420101
   8.1620787  73.9277924 143.8488569   7.3632875  70.9517632 140.8405044
   8.0656918  71.4038675 141.3078970   7.0313503  70.3101450 141.4684937
  23.2128011  72.8945172 145.2412430  22.4591720  72.3252570 145.0856434
  23.3475553  72.8607836 146.1883064   8.6026639  77.7658574 140.9167149
   8.4672314  78.6110110 141.3451997   9.1436452  77.9677852 140.1533083
   2.0556037  75.2834012 141.4895074   2.5680557  76.0777263 141.6400639
   2.7078750  74.5860303 141.4228676   3.8650922  78.3999769 143.5717827
   4.0417550  79.3217733 143.3838811   4.6607755  78.0858188 144.0012207
  11.9169386  71.2797747 137.9538478  11.4016009  72.0502352 138.1926865
  11.6446694  70.6062883 138.5771539  16.8903660  74.0330102 139.8891651
  16.1133103  73.6941261 139.4446813  17.5695141  74.0382725 139.2146616
  11.7055689  69.1524839 139.7798259  11.4005824  69.4670988 140.6308402
  12.6586131  69.2306259 139.8225592  10.1502121  75.3115063 141.4291213
   9.6223482  74.5767822 141.1164450   9.6489623  76.0889739 141.1831181
  15.1294967  73.5064083 146.5458259  14.4718641  74.1963345 146.6338388
  15.9335366  73.8960515 146.8892246  13.9400426  71.8608456 144.5962201
  14.4532307  72.4938448 145.0983911  14.5901649  71.2609651 144.2305561
   5.2090435  68.0039190 137.8093710   4.3727748  68.3413876 138.1302984
   5.0695205  67.8688170 136.8720847   8.2954721  73.1295273 134.4326186
   7.3881783  72.8984526 134.6317335   8.7925753  72.3332892 134.6200167
  11.2022800  81.8392780 137.3522872  10.5284499  82.1424477 137.9607830
  11.5888622  82.6421860 137.0028329  11.2016304  70.7349327 141.9723222
  11.9488123  71.2470724 141.6630344  11.4707894  70.4133380 142.8327615
   9.4742954  73.2307868 138.9550176   8.5654174  72.9466901 139.0522646
   9.5038038  73.6506946 138.0953483  14.7062222  76.8414457 142.7241344
  14.2524549  76.0005367 142.7806534  14.0756188  77.4775856 143.0616124
  13.1495161  78.6790954 143.6591162  13.4418135  79.2396011 142.9403527
  13.6593782  78.9719515 144.4144321   9.1719042  74.7716611 136.2938255
   8.7338472  74.0552470 135.8343892   9.9129483  74.9992726 135.7323346
   8.1128786  79.4571305 144.7484615   8.0704965  79.6832151 143.8193147
   9.0291485  79.2234680 144.8970416  17.2892157  73.0473808 142.3514573
  17.1510056  73.2375404 141.4235762  16.9328376  73.8093191 142.8082624
  17.3161537  75.1150335 147.3625845  17.7498043  75.0225625 148.2108899
  18.0293117  75.0907836 146.7245861   9.4014015  82.0072453 139.5669951
   9.5765771  81.5360496 140.3815574   8.7146803  82.6338219 139.7951212
  13.2930270  73.6300993 135.8870312  12.6759440  72.9047821 135.7903365
  12.8246758  74.3910353 135.5437386   5.0828816  67.8486417 135.0091616
   4.2058282  67.7275218 134.6453863   5.5586569  67.0572496 134.7570505
   8.2692742  80.2012708 142.2554137   7.4860264  80.7434388 142.3492361
   8.9685487  80.7186687 142.6548378  19.4319149  71.7147703 146.5406634
  19.4209025  72.5972418 146.1700567  18.5636529  71.3619254 146.3461171
  12.6619173  74.7679024 142.4726766  11.7275451  74.8880487 142.3031470
  12.8395841  73.8651491 142.2086776  16.0491724  70.6096344 143.0076800
  16.5152176  71.4424335 142.9337103  16.4999224  70.1441325 143.7122058
  14.1167955  76.9540165 140.0062952  14.3927799  76.8396760 140.9156826
  13.2472454  76.5557650 139.9675125  10.7522019  81.2026516 143.6495766
  10.9344414  80.3848172 144.1123518  11.5755005  81.4194208 143.2120656
  11.0864184  80.1294701 140.9110814  11.6151951  79.6187156 140.2980976
  11.3492404  79.8137231 141.7756347   4.4419932  81.1809818 143.6708590
   3.7730308  81.6655945 143.1872630   4.3032802  81.4279038 144.5851969
  11.7193588  81.1635537 147.2554931  11.5944728  80.3625277 146.7465876
  12.3772679  81.6581730 146.7668900  13.7828497  78.9644557 148.8834481
  12.8358832  78.8449908 148.8112807  14.1311270  78.0767055 148.9660742
  10.7874930  78.7597273 145.0838833  10.6399892  77.8313980 145.2646403
  11.6128423  78.7817364 144.5995908  14.3909052  79.5825832 146.1703706
  15.3155599  79.3768693 146.0328157  14.2224355  79.3342233 147.0793047
  10.7836444  66.6135111 140.0770950  11.0000059  67.4959749 139.7759778
  10.3030511  66.2221324 139.3476592  14.1804368  80.1011499 141.5265797
  14.3541246  79.5357922 140.7739649  14.6733259  80.9012394 141.3445287
  20.0343759  72.8647922 143.1456097  20.4774905  72.1155247 142.7475220
  19.1570269  72.8558058 142.7629829  15.1679541  79.4178264 138.6262695
  15.8630445  80.0384956 138.8450010  15.5102691  78.5673615 138.9015073
  17.0670964  76.8677969 140.1550026  17.5922288  77.2065242 139.4299346
  16.9793316  75.9324984 139.9713161   8.7511624  82.9349952 144.5145279
   8.3116615  82.4426331 145.2078136   9.5019741  82.3922920 144.2737354
   5.7599003  77.0291885 140.0626041   5.9087124  77.7127349 139.4092714
   6.5665447  77.0096975 140.5775497  19.5776624  74.3353160 145.5378544
  20.4123515  74.7742964 145.7016105  19.7135753  73.8591814 144.7186790
   9.2594409  79.5240015 137.5337789   8.6868376  80.1430202 137.0808261
   9.8327203  80.0739377 138.0677711  12.4791669  79.8077165 138.6646371
  13.4122342  79.7422727 138.8679247  12.3914882  80.6433432 138.2060904
  15.1079685  79.1243036 135.6250319  15.0293317  78.7902899 136.5186077
  15.9289352  79.6164804 135.6241791   9.6441207  70.8600828 134.8753841
  10.5900312  70.7307036 134.9442259   9.2655452  70.1215490 135.3523270
  23.6234426  73.0520782 147.9732674  24.3537815  72.7906070 148.5340377
  23.0141372  72.3149504 148.0134742   7.8284125  68.7850804 134.8108727
   6.9215580  68.4883917 134.8871440   8.1060106  68.4880622 133.9443013
   6.5982909  65.6437740 134.9520706   7.4602073  65.9692638 135.2116523
   6.7833253  64.8569236 134.4393772  13.5340424  66.6766356 141.1512277
  12.6466279  66.9616007 140.9332472  13.9494413  66.5160120 140.3039554
  12.6783637  76.4411031 135.2460297  13.3819487  76.6461034 135.8617953
  11.9546286  77.0087793 135.5109381  13.5081447  72.1920892 141.3662567
  13.4516649  72.6489444 140.5270200  14.0609790  71.4311577 141.1885410
  17.3186253  67.9810624 142.1912687  17.0623188  67.5807260 143.0220894
  16.6939121  68.6954418 142.0662826  21.6298591  70.7206698 144.6983978
  21.0698149  70.7899887 145.4715540  21.0242095  70.5447682 143.9783474
  14.5870335  76.8793560 137.2958757  15.4215939  76.4474759 137.1136232
  14.4254678  76.7075574 138.2235652  14.2416227  73.3825674 138.6615096
  14.1865031  73.2169945 137.7203541  13.6162282  74.0901707 138.8177286
   7.4801916  81.5602673 146.3268171   6.5297547  81.5604535 146.2132544
   7.7834402  80.8135408 145.8104206  23.2154610  87.3963211 147.3913934
  23.8533020  87.2769959 146.6877274  23.0975453  88.3444055 147.4501886
  20.0244316  87.3490640 147.3275459  19.6862828  87.2331704 146.4395993
  20.8934084  86.9481805 147.3076465  15.8831132  89.2026116 143.3172349
  15.3195997  89.1116053 142.5488637  15.7683527  88.3826020 143.7974842
  20.5064099  88.5025491 153.2861664  20.4952740  88.1078290 152.4142168
  20.6684738  87.7691564 153.8795436  13.4295564  90.6977308 146.1556570
  14.2216856  90.3568132 145.7402869  13.6692214  90.8072283 147.0758723
  21.4630690  92.8697084 138.6286814  20.8118670  93.4551164 138.2420828
  22.2575053  93.4003279 138.6881852  15.3886318  89.9586221 139.0273949
  16.1617194  89.4115208 138.8886825  15.7411716  90.8230470 139.2388410
  18.1527567  88.6639452 148.8242208  18.7491139  88.4395474 148.1099171
  18.2102538  87.9224197 149.4267656  17.7252595  86.1178887 136.6592399
  17.9778116  85.5960408 135.8975862  16.7877154  85.9545032 136.7619082
  22.7695878  85.1214665 144.4667142  23.5558967  84.7034088 144.1157559
  23.0334583  86.0260757 144.6348790  22.9405956  90.5587516 139.1655799
  22.3051789  90.6322142 139.8776703  22.6103362  91.1481114 138.4874878
  28.1704305  85.0589899 145.3700120  28.9029477  84.4889115 145.6037950
  27.4143661  84.6711499 145.8106626  17.4448884  88.0206993 138.8616774
  17.3285142  87.3451896 139.5297858  17.5551144  87.5339367 138.0448927
  19.7880425  87.4817140 142.5663463  19.4238632  86.9547761 143.2776384
  20.6447541  87.0915609 142.3929948  25.6929726  78.7711473 149.8294729
  25.3613050  79.6406884 149.6055944  25.0975339  78.4547757 150.5088759
  19.4285912  82.5107040 137.5624811  19.5960314  83.3787276 137.9295282
  19.2383081  82.6734321 136.6386101  22.1861245  90.9724019 149.2290642
  21.8861968  91.8749057 149.1206449  21.8412305  90.7056202 150.0811795
  15.6373727  87.4237815 145.2627346  14.7124223  87.2914030 145.4705038
  15.8858140  88.2032035 145.7597289  25.5858389  83.4906559 146.9088079
  24.6775266  83.4221967 146.6146840  25.5345985  83.9678504 147.7369905
  19.4075133  84.9664697 138.5471478  19.2874758  85.4121748 139.3856958
  18.7127721  85.3150015 137.9885016  12.9982538  87.0671089 146.0971135
  13.1274919  87.3205568 147.0110547  12.3179989  87.6598797 145.7775790
  17.1682025  97.7368339 142.1961609  17.0906055  98.6876164 142.2750090
  16.5643669  97.3914211 142.8536536  19.6599255  84.9096204 154.8522976
  18.8832589  85.4690125 154.8425841  20.2989818  85.3952987 155.3737846
  27.4520035  81.6922997 148.6865953  26.8094416  81.9855530 148.0405748
  26.9474964  81.5775918 149.4919150  25.1060199  85.4386170 139.3751812
  26.0178055  85.6713557 139.1999510  24.5969846  86.0223215 138.8126891
  23.3900967  89.8610798 153.0113105  23.7984323  89.4193209 152.2667737
  22.6678228  89.2863426 153.2647298  19.7432037  84.7983405 150.3846662
  20.5893232  85.2222819 150.5281311  19.6830674  84.1417029 151.0785225
  23.7129781  90.4211989 146.7665394  23.0838644  90.5857703 146.0641462
  23.3255443  90.8353598 147.5376358  27.5919013  91.3566427 144.1209757
  26.9070051  91.7365328 143.5706791  27.6762863  91.9661753 144.8541705
  22.8931482  82.4587773 152.0427835  22.6492414  83.2129834 151.5062111
  23.1691413  82.8373121 152.8775082  24.8469945  89.0026386 150.7205101
  25.0586840  89.6458146 150.0439482  24.7999693  88.1688702 150.2527031
  22.4496174  81.6144206 147.6241673  21.5880653  81.9125460 147.9158411
  22.4758608  81.8314605 146.6922706  19.2657743  90.1586397 144.0315479
  19.7296089  90.4374100 143.2420101  19.0014541  89.2569841 143.8488569
  16.1581824  89.7057878 146.9695242  16.7283181  90.1345147 146.3312727
  16.7489936  89.4240463 147.6679428  18.2026629  86.2809549 140.8405044
  18.9050673  86.7330593 141.3078970  17.8707258  85.6393368 141.4684937
  11.9451963  84.5393102 146.1422178  11.1551017  84.7950630 145.6662288
  12.4363211  85.3541440 146.2474218  25.9615773  91.8798341 148.8927458
  26.7833217  91.4778528 148.6110140  25.9578176  91.7766575 149.8443574
  13.8966709  84.9037681 143.1005654  13.0997872  85.0156375 143.6189150
  13.6692301  85.2424333 142.2346545  19.7272376  91.4282384 151.0488169
  19.7916809  91.8902792 151.8846341  19.0183300  90.7979749 151.1770479
  10.2289666  84.7923592 148.5737168  10.4797705  85.6770602 148.8394744
  10.7649215  84.6128194 147.8012260  34.0521766  88.2237090 145.2412430
  33.2985474  87.6544488 145.0856434  34.1869307  88.1899754 146.1883064
  19.4420394  93.0950492 140.9167149  19.3066069  93.9402028 141.3451997
  19.9830206  93.2969770 140.1533083  12.8949791  90.6125930 141.4895074
  13.4074312  91.4069180 141.6400639  13.5472504  89.9152220 141.4228676
  14.7044676  93.7291686 143.5717827  14.8811304  94.6509651 143.3838811
  15.5001510  93.4150105 144.0012207  23.1670108  93.9976858 153.0748893
  23.1488584  94.8185739 152.5829162  24.0890028  93.8730934 153.2999034
  22.7912857  76.6181054 149.4466043  22.4477127  77.5082695 149.3705153
  23.1591820  76.4282711 148.5835628  10.8598708  88.9414584 142.2654645
  11.6973930  89.3511593 142.0488352  11.0376976  88.0014026 142.2354839
  22.7563140  86.6089665 137.9538478  22.2409764  87.3794270 138.1926865
  22.4840449  85.9354801 138.5771539  20.3410251  81.4539366 143.0123716
  19.4851848  81.0646216 142.8329355  20.7537203  81.5331326 142.1523502
  21.8709398  78.9885709 147.4115276  21.3674193  78.9515844 146.5983081
  22.1640005  79.8978452 147.4711933  18.1152284  79.0724439 146.4181458
  18.9805281  78.8767247 146.0587347  18.1829793  78.8434790 147.3450814
  27.7297414  89.3622020 139.8891651  26.9526857  89.0233179 139.4446813
  28.4088895  89.3674643 139.2146616  22.5449443  84.4816757 139.7798259
  22.2399579  84.7962906 140.6308402  23.4979885  84.5598177 139.8225592
  20.9895875  90.6406980 141.4291213  20.4617237  89.9059740 141.1164450
  20.4883378  91.4181657 141.1831181  25.9688721  88.8356001 146.5458259
  25.3112396  89.5255262 146.6338388  26.7729120  89.2252433 146.8892246
  15.7214603  81.3026647 143.7897824  16.2958355  81.0801828 143.0571017
  16.3085585  81.3715341 144.5426426  24.7794180  87.1900373 144.5962201
  25.2926062  87.8230365 145.0983911  25.4295404  86.5901569 144.2305561
  16.0484190  83.3331108 137.8093710  15.2121502  83.6705794 138.1302984
  15.9088960  83.1980087 136.8720847  18.0237271  78.1767895 142.5172894
  17.3701683  77.8616913 141.8929509  17.9817745  77.5543636 143.2432717
  19.1348475  88.4587191 134.4326186  18.2275537  88.2276444 134.6317335
  19.6319507  87.6624810 134.6200167  22.0416554  97.1684698 137.3522872
  21.3678253  97.4716395 137.9607830  22.4282376  97.9713778 137.0028329
  21.2575011  84.6649829 146.8420541  20.3397572  84.8864776 146.6842230
  21.6735155  84.7396140 145.9832249  22.0410059  86.0641245 141.9723222
  22.7881878  86.5762642 141.6630344  22.3101648  85.7425297 142.8327615
  20.3136709  88.5599785 138.9550176  19.4047928  88.2758818 139.0522646
  20.3431793  88.9798864 138.0953483  25.5455976  92.1706375 142.7241344
  25.0918303  91.3297285 142.7806534  24.9149943  92.8067773 143.0616124
  24.4888896  83.0998361 143.9542011  23.7511653  82.5875747 144.2852254
  24.7415669  82.6598743 143.1425288  23.9888915  94.0082872 143.6591162
  24.2811890  94.5687929 142.9403527  24.4987536  94.3011433 144.4144321
  24.5900523  75.8774613 144.5483780  24.8959400  75.0171976 144.2609695
  25.3153128  76.4692233 144.3482774  10.8824879  86.2805300 142.9365378
  10.6849279  85.6874660 142.2116445  10.3271543  85.9757510 143.6541317
  18.8621603  86.1728406 145.0559971  18.9170213  85.2202242 144.9802448
  18.0512805  86.3287845 145.5401270  20.0112797  90.1008529 136.2938255
  19.5732227  89.3844388 135.8343892  20.7523238  90.3284644 135.7323346
  16.8013963  84.7905466 142.8150350  15.9881828  85.0899636 143.2215542
  17.2972957  84.3961155 143.5324832  18.9522541  94.7863223 144.7484615
  18.9098719  95.0124069 143.8193147  19.8685240  94.5526597 144.8970416
  22.3988174  85.2547290 151.6465244  22.7537562  85.4818763 152.5059710
  23.0460306  85.5865667 151.0242499  28.1285911  88.3765726 142.3514573
  27.9903810  88.5667322 141.4235762  27.7722130  89.1385109 142.8082624
  16.2928038  82.3623821 148.4311585  16.9327417  82.2212580 147.7334549
  15.4605568  82.0758335 148.0550187  28.1555291  90.4442253 147.3625845
  28.5891798  90.3517542 148.2108899  28.8686872  90.4199754 146.7245861
  17.0688341  91.6626252 144.5446578  17.8628940  91.1676572 144.3429153
  16.3580034  91.1344115 144.1814283  21.8883186  94.0444347 148.8958945
  21.9420208  94.6135284 149.6636661  21.0197967  94.2146232 148.5312982
  13.3771105  85.8069333 140.6206330  12.4468693  85.7453789 140.8376292
  13.4728577  85.2845286 139.8242972  13.2956654  82.3324146 143.2084572
  13.5563471  83.2469480 143.0993732  14.1173826  81.8648589 143.3581185
  14.7681579  83.7461903 150.3783397  15.4404633  83.5379266 149.7296045
  13.9411366  83.5483989 149.9388629  29.0170841  90.4865954 149.8958730
  29.2106731  91.3911764 150.1418005  28.9171459  90.0273373 150.7297315
  20.6707151  80.3723844 152.3949057  20.0235066  81.0713794 152.3013534
  21.4408167  80.8059988 152.7625306  24.0785949  90.6372697 155.4699611
  23.9271456  90.4083248 154.5529694  24.0690629  91.5943298 155.4830956
  20.8471286  88.2104609 150.4545877  21.7763346  88.3615769 150.2814844
  20.4262316  88.2988630 149.5994524  19.6459617  92.2355274 148.2244415
  19.5070703  91.8674058 149.0970353  18.8574214  92.7502913 148.0528373
  20.2407769  97.3364370 139.5669951  20.4159525  96.8652413 140.3815574
  19.5540557  97.9630136 139.7951212  21.1964833  91.6136876 145.6133253
  20.8614665  91.5737646 146.5090902  20.6968778  90.9481592 145.1403663
  15.1709077  87.0204506 151.1385834  15.0328875  86.2884745 151.7397373
  16.0814000  86.9313407 150.8570021  24.1324024  88.9592911 135.8870312
  23.5153195  88.2339739 135.7903365  23.6640513  89.7202271 135.5437386
  17.7991377  86.7324466 150.6269513  18.5090996  86.0917658 150.5856132
  17.7560685  86.9837361 151.5495694  25.7878156  93.6691819 153.5476093
  25.7290702  92.9851039 152.8806676  26.1897674  94.4110809 153.0956719
  15.9222570  83.1778335 135.0091616  15.0452036  83.0567136 134.6453863
  16.3980323  82.3864413 134.7570505  25.7895563  91.6331403 151.7790072
  24.9022342  91.2957325 151.9016471  26.3594114  90.9014434 152.0158838
  12.2459432  82.8545691 149.5318147  12.1617621  82.2471361 148.7968557
  11.4242139  83.3454710 149.5327644  19.3196717  96.2932855 148.7451315
  19.2466888  97.0987827 149.2570620  18.8774110  96.4924821 147.9199337
  19.1086496  95.5304625 142.2554137  18.3254018  96.0726306 142.3492361
  19.8079241  96.0478605 142.6548378  22.4183146  81.3399255 144.8988342
  22.9151846  80.5869217 144.5789413  21.6470128  81.3763572 144.3331552
  30.2712904  87.0439620 146.5406634  30.2602780  87.9264336 146.1700567
  29.4030283  86.6911171 146.3461171  21.7795400  96.1919689 150.9009474
  22.4923372  96.8267154 150.8285376  21.2885429  96.2883555 150.0849476
  23.5012927  90.0970942 142.4726766  22.5669206  90.2172405 142.3031470
  23.6789595  89.1943409 142.2086776  19.0018115  83.4816638 144.6260027
  18.6315903  82.9287678 145.3140933  19.4977208  82.8774771 144.0735027
  26.8885478  85.9388261 143.0076800  27.3545931  86.7716253 142.9337103
  27.3392979  85.4733243 143.7122058  24.9561709  92.2832083 140.0062952
  25.2321553  92.1688677 140.9156826  24.0866208  91.8849568 139.9675125
  24.8602141  78.3068848 147.0467701  23.9465221  78.5373075 147.2149908
  25.2895243  78.3907292 147.8981734  24.6308600  86.4958740 149.5467595
  23.9780050  86.7434648 148.8920048  25.0088979  85.6822879 149.2130073
  21.5915773  96.5318434 143.6495766  21.7738168  95.7140089 144.1123518
  22.4148759  96.7486126 143.2120656  21.9257939  95.4586619 140.9110814
  22.4545705  94.9479073 140.2980976  22.1886159  95.1429149 141.7756347
  15.2813687  96.5101735 143.6708590  14.6124062  96.9947863 143.1872630
  15.1426557  96.7570956 144.5851969  10.6501264  84.7720190 140.4504522
  10.9454705  83.8630869 140.3971576   9.7489300  84.7507930 140.1285524
  22.5587343  96.4927454 147.2554931  22.4338482  95.6917194 146.7465876
  23.2166434  96.9873648 146.7668900  14.1795511  82.8476187 146.4332071
  13.4582097  83.4612155 146.2939544  14.9688767  83.3833952 146.3548717
  24.6222251  94.2936474 148.8834481  23.6752587  94.1741826 148.8112807
  24.9705024  93.4058973 148.9660742  12.3789106  82.4534288 140.5743847
  12.0501812  81.5731667 140.3918953  12.7328476  82.3981957 141.4620237
  21.6268684  94.0889191 145.0838833  21.4793647  93.1605898 145.2646403
  22.4522178  94.1109281 144.5995908  15.4930929  82.7407258 140.9419325
  15.8327001  83.2693179 140.2197933  15.9403049  83.0787664 141.7177891
  25.2302806  94.9117749 146.1703706  26.1549354  94.7060611 146.0328157
  25.0618110  94.6634151 147.0793047  18.1874370  81.1244308 150.3922393
  17.8471190  80.3252122 150.7943073  17.4813376  81.4246019 149.8199226
  18.8390841  78.2093621 148.8449716  19.6616911  77.7354099 148.7228606
  19.0828905  78.9884105 149.3448402  17.4799076  81.2381879 139.1412618
  18.2007438  81.6163132 138.6376335  16.8564380  81.9570756 139.2447596
  21.6230199  81.9427028 140.0770950  21.8393813  82.8251666 139.7759778
  21.1424266  81.5513242 139.3476592  16.3629420  84.9012742 146.6541695
  16.2174001  85.2153045 147.5465976  15.8854624  85.5197642 146.1012593
  18.2225803  81.8915290 146.7022584  18.2087372  80.9956383 146.3654882
  18.9398231  81.8985953 147.3360870  20.0751934  82.3252630 148.7475712
  19.8169712  83.2469700 148.7460042  19.5436974  81.9283064 149.4376176
  25.0198123  95.4303417 141.5265797  25.1935000  94.8649839 140.7739649
  25.5127014  96.2304312 141.3445287  17.6262699  80.7729670 141.9710154
  17.7478610  79.8446316 142.1701042  17.3364741  80.7868356 141.0588470
  20.4953889  78.4584580 145.1076874  20.5175586  78.5223913 144.1528854
  20.9121948  77.6189089 145.3017380  30.8737514  88.1939840 143.1456097
  31.3168660  87.4447165 142.7475220  29.9964024  88.1849976 142.7629829
  26.0073295  94.7470181 138.6262695  26.7024200  95.3676874 138.8450010
  26.3496445  93.8965532 138.9015073  27.9064718  92.1969887 140.1550026
  28.4316042  92.5357160 139.4299346  27.8187071  91.2616902 139.9713161
  19.5905379  98.2641870 144.5145279  19.1510369  97.7718249 145.2078136
  20.3413496  97.7214838 144.2737354  12.0697718  94.4553411 144.5169907
  12.8955738  94.1557183 144.1368551  11.7191770  93.6861033 144.9659696
  17.0379251  93.8079879 146.5867581  16.4159260  93.1450584 146.2869809
  17.7084118  93.8341011 145.9041229  27.5958624  92.8302790 155.4601224
  26.8054168  92.8126929 154.9205723  27.3591979  93.3691084 156.2150261
  27.7156499  89.6795257 152.7733953  27.7654504  89.5145264 153.7149475
  27.6070423  88.8122516 152.3831833  16.5992758  92.3583803 140.0626041
  16.7480878  93.0419267 139.4092714  17.4059201  92.3388893 140.5775497
  25.0060262  85.6626185 154.0893259  25.9070124  85.5232650 153.7977257
  25.0808236  85.8280640 155.0291437  19.3403067  83.0393040 152.9346446
  18.4706376  83.3326606 152.6629034  19.5762547  83.6233485 153.6553709
  29.2174696  92.0992198 153.0175974  28.9259504  92.4622179 153.8539435
  28.6046827  91.3859207 152.8389306  30.4170378  89.6645078 145.5378544
  31.2517270  90.1034882 145.7016105  30.5529507  89.1883731 144.7186790
  27.4661884  87.2224813 151.4856032  27.9416006  87.4152459 150.6774883
  26.5427450  87.2783999 151.2399416  14.3545391  88.3848980 141.0687110
  14.1091433  87.4811310 141.2667321  14.5241305  88.3866131 140.1266588
  22.0442101  79.2572657 150.4511866  22.5624045  79.9933683 150.1258355
  21.6897234  79.5636650 151.2858625  13.6241038  84.1177338 138.5673272
  12.9310283  84.1921693 137.9113308  13.3792790  83.3537681 139.0894789
  22.2954695  75.6772939 145.9712763  22.5756449  75.0096128 146.5973189
  23.0805302  75.8702035 145.4587426  20.0988163  94.8531933 137.5337789
  19.5262131  95.4722120 137.0808261  20.6720957  95.4031295 138.0677711
  26.1663553  84.0990573 149.7184338  27.1180976  84.1988671 149.7396562
  25.9967004  83.3068842 150.2282422  24.1877933  81.1846156 149.9043739
  23.5927865  81.4651169 149.2090227  23.9027629  81.6740057 150.6760480
  23.3185423  95.1369083 138.6646371  24.2516096  95.0714645 138.8679247
  23.2308636  95.9725350 138.2060904  25.9473440  94.4534953 135.6250319
  25.8687071  94.1194817 136.5186077  26.7683107  94.9456721 135.6241791
  28.6451631  87.3196693 148.8326637  28.6127951  86.3812693 149.0186321
  29.2552255  87.3980729 148.0992462  20.4834962  86.1892746 134.8753841
  21.4294067  86.0598954 134.9442259  20.1049207  85.4507408 135.3523270
  28.7946120  84.1107736 148.8784921  28.2785168  83.3266193 148.6914849
  29.6786068  83.7826453 149.0431440  26.4556846  77.8548752 144.8380733
  26.2581668  77.5463840 145.7224065  27.0656552  78.5810391 144.9678663
  34.4628181  88.3812700 147.9732674  35.1931569  88.1197988 148.5340377
  33.8535126  87.6441422 148.0134742  32.5443478  86.5220562 148.5707125
  31.8176642  86.3876527 147.9623617  32.1290765  86.8297391 149.3763843
  18.6677879  84.1142722 134.8108727  17.7609334  83.8175835 134.8871440
  18.9453860  83.8172540 133.9443013   9.5855819  85.4349086 145.2607773
   9.2658604  84.5814394 144.9682147   9.0389248  85.6497664 146.0165740
  13.3635727  88.1511527 148.9777280  13.5821737  89.0828634 148.9965313
  13.7761501  87.7919501 149.7632083  20.2839945  78.6579612 140.9652968
  19.4740673  78.3126697 141.3408214  20.9724362  78.3487156 141.5540579
  22.2130493  77.7357659 142.5877265  22.7661532  78.1553112 143.2467288
  22.4500579  76.8093407 142.6300221  17.4376664  80.9729657 134.9520706
  18.2995828  81.2984556 135.2116523  17.6227008  80.1861153 134.4393772
  25.5909300  79.8458184 142.0955929  25.0107969  80.5042988 141.7133981
  25.3245233  79.0235528 141.6843346  24.0412867  79.2463241 144.2977249
  24.5412645  79.3579776 143.4891568  24.6848474  78.9424294 144.9378058
  11.3680822  88.9870251 145.1066909  11.3451510  89.0857938 144.1548793
  11.6781459  89.8335402 145.4284076  24.3734178  82.0058274 141.1512277
  23.4860033  82.2907925 140.9332472  24.7888167  81.8452038 140.3039554
  27.7248714  82.0304795 144.8666616  28.5009104  82.5201248 145.1391233
  26.9996849  82.4562849 145.3238486  30.1621273  82.7432414 145.9240557
  30.7565764  82.5028150 145.2133865  30.2347857  82.0239545 146.5514093
  23.5177392  91.7702949 135.2460297  24.2213242  91.9752951 135.8617953
  22.7940040  92.3379711 135.5109381  24.3475202  87.5212810 141.3662567
  24.2910403  87.9781362 140.5270200  24.9003544  86.7603495 141.1885410
  28.1580008  83.3102542 142.1912687  27.9016942  82.9099178 143.0220894
  27.5332876  84.0246336 142.0662826  32.4692346  86.0498615 144.6983978
  31.9091904  86.1191805 145.4715540  31.8635849  85.8739600 143.9783474
  25.4264089  92.2085478 137.2958757  26.2609693  91.7766677 137.1136232
  25.2648432  92.0367492 138.2235652  25.0809981  88.7117591 138.6615096
  25.0258785  88.5461863 137.7203541  24.4556037  89.4193624 138.8177286
  18.3906107  78.2125700 138.2400415  18.3784777  79.1567540 138.3968686
  19.2829529  78.0295846 137.9459876  18.3195671  96.8894591 146.3268171
  17.3691302  96.8896452 146.2132544  18.6228157  96.1427325 145.8104206
  22.2058226  74.8068477 142.4946352  21.4390622  74.2526964 142.6403034
  22.6168931  74.8790346 143.3560503  34.0548364 102.7255129 147.3913934
  34.6926774 102.6061876 146.6877274  33.9369207 103.6735973 147.4501886
  30.8638070 102.6782557 147.3275459  30.5256582 102.5623622 146.4395993
  31.7327839 102.2773722 147.3076465  26.7224886 104.5318034 143.3172349
  26.1589751 104.4407971 142.5488637  26.6077281 103.7117938 143.7974842
  31.3457853 103.8317409 153.2861664  31.3346494 103.4370207 152.4142168
  31.5078493 103.0983482 153.8795436  24.2689318 106.0269225 146.1556570
  25.0610610 105.6860050 145.7402869  24.5085968 106.1364200 147.0758723
  32.3024445 108.1989001 138.6286814  31.6512425 108.7843082 138.2420828
  33.0968808 108.7295196 138.6881852  26.2280072 105.2878139 139.0273949
  27.0010948 104.7407126 138.8886825  26.5805471 106.1522388 139.2388410
  28.9921321 103.9931369 148.8242208  29.5884894 103.7687392 148.1099171
  29.0496293 103.2516115 149.4267656  28.5646350 101.4470805 136.6592399
  28.8171871 100.9252326 135.8975862  27.6270909 101.2836950 136.7619082
  33.6089633 100.4506583 144.4667142  34.3952722 100.0326006 144.1157559
  33.8728337 101.3552675 144.6348790  33.7799710 105.8879433 139.1655799
  33.1445543 105.9614060 139.8776703  33.4497116 106.4773032 138.4874878
  39.0098060 100.3881816 145.3700120  39.7423232  99.8181033 145.6037950
  38.2537416 100.0003417 145.8106626  28.2842639 103.3498911 138.8616774
  28.1678897 102.6743814 139.5297858  28.3944898 102.8631285 138.0448927
  30.6274180 102.8109058 142.5663463  30.2632387 102.2839679 143.2776384
  31.4841295 102.4207527 142.3929948  36.5323480  94.1003390 149.8294729
  36.2006805  94.9698801 149.6055944  35.9369094  93.7839674 150.5088759
  30.2679667  97.8398957 137.5624811  30.4354069  98.7079194 137.9295282
  30.0776836  98.0026239 136.6386101  33.0255000 106.3015936 149.2290642
  32.7255723 107.2040975 149.1206449  32.6806059 106.0348119 150.0811795
  26.4767481 102.7529733 145.2627346  25.5517978 102.6205947 145.4705038
  26.7251894 103.5323952 145.7597289  36.4252143  98.8198476 146.9088079
  35.5169021  98.7513885 146.6146840  36.3739739  99.2970421 147.7369905
  30.2468887 100.2956615 138.5471478  30.1268513 100.7413666 139.3856958
  29.5521476 100.6441933 137.9885016  23.8376292 102.3963007 146.0971135
  23.9668673 102.6497486 147.0110547  23.1573744 102.9890715 145.7775790
  28.0075779 113.0660257 142.1961609  27.9299809 114.0168082 142.2750090
  27.4037423 112.7206129 142.8536536  30.4993009 100.2388122 154.8522976
  29.7226343 100.7982042 154.8425841  31.1383572 100.7244905 155.3737846
  38.2913790  97.0214915 148.6865953  37.6488170  97.3147448 148.0405748
  37.7868718  96.9067835 149.4919150  35.9453954 100.7678088 139.3751812
  36.8571810 101.0005475 139.1999510  35.4363601 101.3515132 138.8126891
  34.2294721 105.1902716 153.0113105  34.6378077 104.7485126 152.2667737
  33.5071983 104.6155343 153.2647298  30.5825791 100.1275323 150.3846662
  31.4286986 100.5514736 150.5281311  30.5224429  99.4708947 151.0785225
  34.5523536 105.7503907 146.7665394  33.9232398 105.9149621 146.0641462
  34.1649198 106.1645516 147.5376358  38.4312768 106.6858344 144.1209757
  37.7463806 107.0657246 143.5706791  38.5156617 107.2953671 144.8541705
  33.7325237  97.7879691 152.0427835  33.4886168  98.5421752 151.5062111
  34.0085167  98.1665039 152.8775082  35.6863699 104.3318303 150.7205101
  35.8980595 104.9750063 150.0439482  35.6393448 103.4980620 150.2527031
  33.2889928  96.9436124 147.6241673  32.4274407  97.2417378 147.9158411
  33.3152363  97.1606523 146.6922706  30.1051498 105.4878315 144.0315479
  30.5689843 105.7666018 143.2420101  29.8408296 104.5861759 143.8488569
  26.9975579 105.0349796 146.9695242  27.5676936 105.4637065 146.3312727
  27.5883691 104.7532381 147.6679428  29.0420384 101.6101467 140.8405044
  29.7444427 102.0622511 141.3078970  28.7101012 100.9685286 141.4684937
  22.7845718  99.8685020 146.1422178  21.9944772 100.1242548 145.6662288
  23.2756965 100.6833357 146.2474218  36.8009527 107.2090259 148.8927458
  37.6226971 106.8070446 148.6110140  36.7971930 107.1058493 149.8443574
  24.7360463 100.2329599 143.1005654  23.9391626 100.3448293 143.6189150
  24.5086055 100.5716251 142.2346545  30.5666131 106.7574302 151.0488169
  30.6310563 107.2194709 151.8846341  29.8577055 106.1271667 151.1770479
  21.0683421 100.1215510 148.5737168  21.3191459 101.0062520 148.8394744
  21.6042969  99.9420112 147.8012260  44.8915520 103.5529007 145.2412430
  44.1379229 102.9836405 145.0856434  45.0263062 103.5191672 146.1883064
  30.2814148 108.4242410 140.9167149  30.1459823 109.2693945 141.3451997
  30.8223961 108.6261687 140.1533083  23.7343546 105.9417848 141.4895074
  24.2468066 106.7361098 141.6400639  24.3866259 105.2444138 141.4228676
  25.5438430 109.0583604 143.5717827  25.7205059 109.9801569 143.3838811
  26.3395264 108.7442023 144.0012207  29.6849449  95.9191869 155.1701761
  30.4259162  96.5199022 155.0906223  29.9167372  95.1769506 154.6119804
  34.0063863 109.3268776 153.0748893  33.9882338 110.1477657 152.5829162
  34.9283783 109.2022851 153.2999034  33.6306612  91.9472971 149.4466043
  33.2870881  92.8374613 149.3705153  33.9985575  91.7574629 148.5835628
  21.6992463 104.2706502 142.2654645  22.5367685 104.6803510 142.0488352
  21.8770730 103.3305944 142.2354839  33.5956895 101.9381583 137.9538478
  33.0803518 102.7086187 138.1926865  33.3234203 101.2646719 138.5771539
  31.1804006  96.7831283 143.0123716  30.3245602  96.3938134 142.8329355
  31.5930957  96.8623244 142.1523502  32.7103152  94.3177627 147.4115276
  32.2067948  94.2807762 146.5983081  33.0033759  95.2270369 147.4711933
  28.9546038  94.4016356 146.4181458  29.8199035  94.2059165 146.0587347
  29.0223547  94.1726708 147.3450814  38.5691169 104.6913937 139.8891651
  37.7920612 104.3525097 139.4446813  39.2482650 104.6966560 139.2146616
  33.3843198  99.8108675 139.7798259  33.0793333 100.1254824 140.6308402
  34.3373640  99.8890095 139.8225592  31.8289630 105.9698898 141.4291213
  31.3010991 105.2351658 141.1164450  31.3277132 106.7473574 141.1831181
  36.8082476 104.1647918 146.5458259  36.1506150 104.8547180 146.6338388
  37.6122875 104.5544350 146.8892246  26.5608357  96.6318564 143.7897824
  27.1352109  96.4093746 143.0571017  27.1479340  96.7007259 144.5426426
  35.6187935 102.5192291 144.5962201  36.1319816 103.1522283 145.0983911
  36.2689158 101.9193487 144.2305561  26.8877944  98.6623025 137.8093710
  26.0515257  98.9997712 138.1302984  26.7482714  98.5272005 136.8720847
  28.8631025  93.5059813 142.5172894  28.2095437  93.1908830 141.8929509
  28.8211499  92.8835554 143.2432717  29.9742230 103.7879108 134.4326186
  29.0669292 103.5568362 134.6317335  30.4713262 102.9916728 134.6200167
  32.8810309 112.4976615 137.3522872  32.2072008 112.8008312 137.9607830
  33.2676131 113.3005696 137.0028329  32.0968765  99.9941747 146.8420541
  31.1791327 100.2156694 146.6842230  32.5128909 100.0688057 145.9832249
  32.8803813 101.3933162 141.9723222  33.6275632 101.9054560 141.6630344
  33.1495403 101.0717215 142.8327615  31.1530463 103.8891703 138.9550176
  30.2441683 103.6050736 139.0522646  31.1825547 104.3090782 138.0953483
  36.3849731 107.4998293 142.7241344  35.9312058 106.6589203 142.7806534
  35.7543697 108.1359691 143.0616124  35.3282650  98.4290279 143.9542011
  34.5905407  97.9167665 144.2852254  35.5809424  97.9890660 143.1425288
  34.8282670 109.3374789 143.6591162  35.1205644 109.8979846 142.9403527
  35.3381291 109.6303350 144.4144321  35.4294278  91.2066531 144.5483780
  35.7353154  90.3463894 144.2609695  36.1546882  91.7984151 144.3482774
  21.7218634 101.6097217 142.9365378  21.5243034 101.0166578 142.2116445
  21.1665298 101.3049427 143.6541317  29.7015357 101.5020324 145.0559971
  29.7563967 100.5494160 144.9802448  28.8906559 101.6579763 145.5401270
  30.8506551 105.4300447 136.2938255  30.4125981 104.7136306 135.8343892
  31.5916992 105.6576562 135.7323346  27.6407717 100.1197383 142.8150350
  26.8275583 100.4191554 143.2215542  28.1366711  99.7253072 143.5324832
  29.7916295 110.1155140 144.7484615  29.7492474 110.3415987 143.8193147
  30.7078994 109.8818515 144.8970416  33.2381929 100.5839208 151.6465244
  33.5931317 100.8110681 152.5059710  33.8854060 100.9157585 151.0242499
  38.9679666 103.7057644 142.3514573  38.8297565 103.8959240 141.4235762
  38.6115885 104.4677027 142.8082624  27.1321792  97.6915739 148.4311585
  27.7721171  97.5504498 147.7334549  26.2999323  97.4050252 148.0550187
  38.9949046 105.7734171 147.3625845  39.4285552 105.6809460 148.2108899
  39.7080626 105.7491671 146.7245861  27.9082096 106.9918169 144.5446578
  28.7022694 106.4968490 144.3429153  27.1973788 106.4636033 144.1814283
  32.7276940 109.3736265 148.8958945  32.7813963 109.9427201 149.6636661
  31.8591722 109.5438150 148.5312982  24.2164859 101.1361251 140.6206330
  23.2862448 101.0745707 140.8376292  24.3122331 100.6137204 139.8242972
  24.1350408  97.6616064 143.2084572  24.3957226  98.5761397 143.0993732
  24.9567581  97.1940507 143.3581185  25.6075334  99.0753821 150.3783397
  26.2798387  98.8671183 149.7296045  24.7805120  98.8775907 149.9388629
  39.8564595 105.8157871 149.8958730  40.0500485 106.7203682 150.1418005
  39.7565213 105.3565291 150.7297315  31.5100906  95.7015762 152.3949057
  30.8628821  96.4005712 152.3013534  32.2801921  96.1351906 152.7625306
  34.9179704 105.9664614 155.4699611  34.7665210 105.7375166 154.5529694
  34.9084383 106.9235216 155.4830956  31.6865040 103.5396527 150.4545877
  32.6157100 103.6907687 150.2814844  31.2656070 103.6280548 149.5994524
  30.4853372 107.5647191 148.2244415  30.3464458 107.1965976 149.0970353
  29.6967968 108.0794831 148.0528373  31.0801524 112.6656288 139.5669951
  31.2553280 112.1944331 140.3815574  30.3934312 113.2922054 139.7951212
  32.0358587 106.9428794 145.6133253  31.7008420 106.9029564 146.5090902
  31.5362533 106.2773510 145.1403663  26.0102831 102.3496424 151.1385834
  25.8722629 101.6176663 151.7397373  26.9207755 102.2605324 150.8570021
  34.9717779 104.2884828 135.8870312  34.3546949 103.5631657 135.7903365
  34.5034267 105.0494189 135.5437386  28.6385132 102.0616383 150.6269513
  29.3484750 101.4209576 150.5856132  28.5954440 102.3129278 151.5495694
  36.6271910 108.9983737 153.5476093  36.5684457 108.3142957 152.8806676
  37.0291429 109.7402727 153.0956719  27.3514066  99.0481601 152.4465153
  26.8151423  98.5972340 153.0986749  26.7630774  99.1827510 151.7035617
  26.7616325  98.5070253 135.0091616  25.8845791  98.3859054 134.6453863
  27.2374078  97.7156331 134.7570505  36.6289318 106.9623321 151.7790072
  35.7416096 106.6249243 151.9016471  37.1987869 106.2306352 152.0158838
  23.0853187  98.1837609 149.5318147  23.0011376  97.5763279 148.7968557
  22.2635893  98.6746627 149.5327644  30.1590471 111.6224773 148.7451315
  30.0860643 112.4279745 149.2570620  29.7167864 111.8216739 147.9199337
  29.9480251 110.8596543 142.2554137  29.1647773 111.4018223 142.3492361
  30.6472996 111.3770523 142.6548378  33.2576901  96.6691173 144.8988342
  33.7545600  95.9161135 144.5789413  32.4863882  96.7055489 144.3331552
  41.1106658 102.3731538 146.5406634  41.0996534 103.2556254 146.1700567
  40.2424038 102.0203089 146.3461171  32.6189155 111.5211607 150.9009474
  33.3317127 112.1559072 150.8285376  32.1279183 111.6175473 150.0849476
  34.3406681 105.4262860 142.4726766  33.4062960 105.5464322 142.3031470
  34.5183350 104.5235327 142.2086776  29.8411870  98.8108556 144.6260027
  29.4709657  98.2579596 145.3140933  30.3370962  98.2066689 144.0735027
  37.7279233 101.2680179 143.0076800  38.1939685 102.1008171 142.9337103
  38.1786733 100.8025161 143.7122058  35.7955464 107.6124000 140.0062952
  36.0715308 107.4980595 140.9156826  34.9259963 107.2141485 139.9675125
  35.6995896  93.6360766 147.0467701  34.7858975  93.8664993 147.2149908
  36.1288997  93.7199210 147.8981734  35.4702354 101.8250658 149.5467595
  34.8173804 102.0726565 148.8920048  35.8482734 101.0114796 149.2130073
  32.4309528 111.8610351 143.6495766  32.6131922 111.0432007 144.1123518
  33.2542514 112.0778043 143.2120656  32.7651693 110.7878536 140.9110814
  33.2939460 110.2770991 140.2980976  33.0279913 110.4721067 141.7756347
  26.1207441 111.8393653 143.6708590  25.4517817 112.3239781 143.1872630
  25.9820311 112.0862873 144.5851969  25.2377203  96.2212546 150.8713133
  25.3018530  97.0827377 150.4590531  25.1744323  95.6086548 150.1385492
  21.4895019 100.1012108 140.4504522  21.7848460  99.1922786 140.3971576
  20.5883054 100.0799847 140.1285524  33.3981097 111.8219372 147.2554931
  33.2732237 111.0209112 146.7465876  34.0560188 112.3165565 146.7668900
  25.0189266  98.1768105 146.4332071  24.2975851  98.7904072 146.2939544
  25.8082521  98.7125869 146.3548717  35.4616006 109.6228392 148.8834481
  34.5146341 109.5033743 148.8112807  35.8098779 108.7350890 148.9660742
  27.8215579  95.5122531 152.7072722  28.3449981  95.7584828 153.4699032
  27.6027912  96.3442566 152.2875860  23.2182860  97.7826206 140.5743847
  22.8895566  96.9023585 140.3918953  23.5722231  97.7273874 141.4620237
  32.4662439 109.4181108 145.0838833  32.3187401 108.4897816 145.2646403
  33.2915932 109.4401199 144.5995908  26.3324683  98.0699175 140.9419325
  26.6720756  98.5985097 140.2197933  26.7796804  98.4079582 141.7177891
  36.0696561 110.2409667 146.1703706  36.9943108 110.0352528 146.0328157
  35.9011864 109.9926068 147.0793047  29.0268124  96.4536226 150.3922393
  28.6864944  95.6544039 150.7943073  28.3207130  96.7537937 149.8199226
  29.6784596  93.5385539 148.8449716  30.5010665  93.0646017 148.7228606
  29.9222659  94.3176022 149.3448402  28.3192830  96.5673797 139.1412618
  29.0401193  96.9455050 138.6376335  27.6958135  97.2862674 139.2447596
  32.4623953  97.2718946 140.0770950  32.6787568  98.1543584 139.7759778
  31.9818020  96.8805159 139.3476592  27.2023175 100.2304659 146.6541695
  27.0567755 100.5444962 147.5465976  26.7248378 100.8489560 146.1012593
  29.0619558  97.2207207 146.7022584  29.0481126  96.3248301 146.3654882
  29.7791986  97.2277871 147.3360870  30.9145688  97.6544547 148.7475712
  30.6563466  98.5761618 148.7460042  30.3830729  97.2574982 149.4376176
  35.8591877 110.7595335 141.5265797  36.0328755 110.1941757 140.7739649
  36.3520768 111.5596229 141.3445287  28.4656453  96.1021587 141.9710154
  28.5872365  95.1738234 142.1701042  28.1758496  96.1160273 141.0588470
  31.3347644  93.7876498 145.1076874  31.3569341  93.8515831 144.1528854
  31.7515703  92.9481007 145.3017380  41.7131268 103.5231757 143.1456097
  42.1562414 102.7739083 142.7475220  40.8357778 103.5141894 142.7629829
  36.8467049 110.0762099 138.6262695  37.5417954 110.6968792 138.8450010
  37.1890200 109.2257450 138.9015073  38.7458473 107.5261804 140.1550026
  39.2709797 107.8649077 139.4299346  38.6580825 106.5908820 139.9713161
  30.4299133 113.5933788 144.5145279  29.9904124 113.1010166 145.2078136
  31.1807250 113.0506755 144.2737354  22.9091472 109.7845329 144.5169907
  23.7349492 109.4849100 144.1368551  22.5585524 109.0152951 144.9659696
  27.8773006 109.1371797 146.5867581  27.2553015 108.4742502 146.2869809
  28.5477872 109.1632929 145.9041229  27.9497533  97.6153585 156.1800087
  27.9985688  98.4915708 155.7977857  28.4920047  97.0730978 155.6071730
  38.4352379 108.1594708 155.4601224  37.6447922 108.1418847 154.9205723
  38.1985733 108.6983002 156.2150261  38.5550254 105.0087174 152.7733953
  38.6048259 104.8437182 153.7149475  38.4464177 104.1414434 152.3831833
  27.4386512 107.6875720 140.0626041  27.5874633 108.3711185 139.4092714
  28.2452956 107.6680810 140.5775497  35.8454016 100.9918103 154.0893259
  36.7463879 100.8524567 153.7977257  35.9201991 101.1572557 155.0291437
  30.1796821  98.3684957 152.9346446  29.3100131  98.6618523 152.6629034
  30.4156302  98.9525402 153.6553709  40.0568451 107.4284116 153.0175974
  39.7653259 107.7914097 153.8539435  39.4440582 106.7151124 152.8389306
  41.2564133 104.9936996 145.5378544  42.0911024 105.4326800 145.7016105
  41.3923262 104.5175649 144.7186790  38.3055639 102.5516731 151.4856032
  38.7809760 102.7444377 150.6774883  37.3821204 102.6075916 151.2399416
  25.1939145 103.7140898 141.0687110  24.9485187 102.8103228 141.2667321
  25.3635060 103.7158048 140.1266588  32.8835855  94.5864574 150.4511866
  33.4017799  95.3225601 150.1258355  32.5290988  94.8928567 151.2858625
  24.4634793  99.4469255 138.5673272  23.7704038  99.5213610 137.9113308
  24.2186545  98.6829599 139.0894789  33.1348449  91.0064857 145.9712763
  33.4150203  90.3388046 146.5973189  33.9199056  91.1993952 145.4587426
  30.9381918 110.1823851 137.5337789  30.3655885 110.8014038 137.0808261
  31.5114712 110.7323212 138.0677711  37.0057308  99.4282491 149.7184338
  37.9574731  99.5280588 149.7396562  36.8360758  98.6360759 150.2282422
  35.0271687  96.5138074 149.9043739  34.4321619  96.7943087 149.2090227
  34.7421384  97.0031975 150.6760480  34.1579178 110.4661001 138.6646371
  35.0909851 110.4006562 138.8679247  34.0702391 111.3017268 138.2060904
  36.7867194 109.7826871 135.6250319  36.7080826 109.4486735 136.5186077
  37.6076861 110.2748639 135.6241791  39.4845386 102.6488610 148.8326637
  39.4521706 101.7104611 149.0186321  40.0946009 102.7272647 148.0992462
  31.3228716 101.5184663 134.8753841  32.2687821 101.3890871 134.9442259
  30.9442961 100.7799325 135.3523270  39.6339874  99.4399654 148.8784921
  39.1178923  98.6558110 148.6914849  40.5179823  99.1118370 149.0431440
  37.2950601  93.1840669 144.8380733  37.0975422  92.8755758 145.7224065
  37.9050307  93.9102308 144.9678663  45.3021935 103.7104617 147.9732674
  46.0325324 103.4489905 148.5340377  44.6928881 102.9733339 148.0134742
  43.3837233 101.8512480 148.5707125  42.6570396 101.7168445 147.9623617
  42.9684519 102.1589308 149.3763843  29.5071634  99.4434640 134.8108727
  28.6003089  99.1467752 134.8871440  29.7847615  99.1464458 133.9443013
  20.4249574 100.7641003 145.2607773  20.1052358  99.9106311 144.9682147
  19.8783002 100.9789581 146.0165740  24.2029482 103.4803444 148.9777280
  24.4215491 104.4120552 148.9965313  24.6155255 103.1211419 149.7632083
  31.1233699  93.9871529 140.9652968  30.3134428  93.6418614 141.3408214
  31.8118116  93.6779073 141.5540579  33.0524248  93.0649576 142.5877265
  33.6055286  93.4845030 143.2467288  33.2894334  92.1385324 142.6300221
  28.2770418  96.3021575 134.9520706  29.1389582  96.6276473 135.2116523
  28.4620762  95.5153071 134.4393772  36.4303055  95.1750101 142.0955929
  35.8501724  95.8334905 141.7133981  36.1638987  94.3527446 141.6843346
  34.8806621  94.5755159 144.2977249  35.3806399  94.6871694 143.4891568
  35.5242229  94.2716212 144.9378058  22.2074577 104.3162168 145.1066909
  22.1845265 104.4149856 144.1548793  22.5175213 105.1627319 145.4284076
  35.2127933  97.3350192 141.1512277  34.3253788  97.6199842 140.9332472
  35.6281922  97.1743955 140.3039554  38.5642469  97.3596713 144.8666616
  39.3402859  97.8493165 145.1391233  37.8390603  97.7854767 145.3238486
  41.0015027  98.0724332 145.9240557  41.5959518  97.8320068 145.2133865
  41.0741611  97.3531463 146.5514093  34.3571146 107.0994866 135.2460297
  35.0606996 107.3044869 135.8617953  33.6333795 107.6671628 135.5109381
  35.1868956 102.8504728 141.3662567  35.1304158 103.3073279 140.5270200
  35.7397299 102.0895412 141.1885410  38.9973762  98.6394460 142.1912687
  38.7410697  98.2391095 143.0220894  38.3726630  99.3538254 142.0662826
  43.3086100 101.3790533 144.6983978  42.7485658 101.4483722 145.4715540
  42.7029604 101.2031517 143.9783474  36.2657844 107.5377396 137.2958757
  37.1003448 107.1058594 137.1136232  36.1042187 107.3659409 138.2235652
  35.9203736 104.0409509 138.6615096  35.8652540 103.8753780 137.7203541
  35.2949791 104.7485542 138.8177286  29.2299861  93.5417618 138.2400415
  29.2178531  94.4859458 138.3968686  30.1223283  93.3587763 137.9459876
  29.1589425 112.2186508 146.3268171  28.2085056 112.2188370 146.2132544
  29.4621911 111.4719243 145.8104206  33.0451981  90.1360395 142.4946352
  32.2784376  89.5818881 142.6403034  33.4562686  90.2082263 143.3560503
  44.8942119 118.0547047 147.3913934  45.5320529 117.9353794 146.6877274
  44.7762962 119.0027891 147.4501886  41.7031825 118.0074475 147.3275459
  41.3650336 117.8915540 146.4395993  42.5721593 117.6065640 147.3076465
  37.5618641 119.8609951 143.3172349  36.9983506 119.7699888 142.5488637
  37.4471036 119.0409856 143.7974842  42.1851608 119.1609327 153.2861664
  42.1740249 118.7662125 152.4142168  42.3472247 118.4275399 153.8795436
  35.1083073 121.3561143 146.1556570  35.9004365 121.0151968 145.7402869
  35.3479723 121.4656118 147.0758723  43.1418199 123.5280919 138.6286814
  42.4906179 124.1134999 138.2420828  43.9362562 124.0587114 138.6881852
  37.0673827 120.6170056 139.0273949  37.8404703 120.0699043 138.8886825
  37.4199225 121.4814306 139.2388410  39.8315076 119.3223287 148.8242208
  40.4278648 119.0979309 148.1099171  39.8890047 118.5808032 149.4267656
  39.4040104 116.7762722 136.6592399  39.6565625 116.2544244 135.8975862
  38.4664663 116.6128868 136.7619082  44.4483387 115.7798501 144.4667142
  45.2346476 115.3617924 144.1157559  44.7122091 116.6844593 144.6348790
  44.6193465 121.2171351 139.1655799  43.9839297 121.2905977 139.8776703
  44.2890871 121.8064950 138.4874878  49.8491814 115.7173734 145.3700120
  50.5816986 115.1472951 145.6037950  49.0931170 115.3295334 145.8106626
  39.1236393 118.6790828 138.8616774  39.0072651 118.0035732 139.5297858
  39.2338653 118.1923202 138.0448927  41.4667934 118.1400975 142.5663463
  41.1026141 117.6131596 143.2776384  42.3235050 117.7499444 142.3929948
  47.3717235 109.4295308 149.8294729  47.0400559 110.2990719 149.6055944
  46.7762848 109.1131592 150.5088759  41.1073421 113.1690875 137.5624811
  41.2747823 114.0371111 137.9295282  40.9170590 113.3318157 136.6386101
  43.8648754 121.6307854 149.2290642  43.5649477 122.5332893 149.1206449
  43.5199814 121.3640037 150.0811795  37.3161236 118.0821651 145.2627346
  36.3911732 117.9497865 145.4705038  37.5645649 118.8615870 145.7597289
  47.2645898 114.1490394 146.9088079  46.3562775 114.0805803 146.6146840
  47.2133494 114.6262339 147.7369905  41.0862642 115.6248533 138.5471478
  40.9662267 116.0705583 139.3856958  40.3915230 115.9733850 137.9885016
  34.6770047 117.7254924 146.0971135  34.8062428 117.9789403 147.0110547
  33.9967498 118.3182632 145.7775790  38.8469534 128.3952174 142.1961609
  38.7693564 129.3459999 142.2750090  38.2431178 128.0498047 142.8536536
  41.3386764 115.5680040 154.8522976  40.5620098 116.1273960 154.8425841
  41.9777327 116.0536823 155.3737846  49.1307544 112.3506833 148.6865953
  48.4881925 112.6439366 148.0405748  48.6262473 112.2359753 149.4919150
  46.7847708 116.0970006 139.3751812  47.6965564 116.3297392 139.1999510
  46.2757355 116.6807050 138.8126891  45.0688476 120.5194634 153.0113105
  45.4771832 120.0777044 152.2667737  44.3465737 119.9447261 153.2647298
  41.4219546 115.4567240 150.3846662  42.2680741 115.8806654 150.5281311
  41.3618183 114.8000865 151.0785225  45.3917290 121.0795824 146.7665394
  44.7626153 121.2441538 146.0641462  45.0042952 121.4937434 147.5376358
  49.2706522 122.0150262 144.1209757  48.5857560 122.3949163 143.5706791
  49.3550372 122.6245589 144.8541705  44.5718991 113.1171609 152.0427835
  44.3279923 113.8713669 151.5062111  44.8478922 113.4956956 152.8775082
  46.5257454 119.6610221 150.7205101  46.7374349 120.3041981 150.0439482
  46.4787202 118.8272538 150.2527031  44.1283683 112.2728042 147.6241673
  43.2668162 112.5709295 147.9158411  44.1546117 112.4898441 146.6922706
  40.9445252 120.8170232 144.0315479  41.4083598 121.0957935 143.2420101
  40.6802050 119.9153677 143.8488569  37.8369333 120.3641714 146.9695242
  38.4070690 120.7928982 146.3312727  38.4277445 120.0824299 147.6679428
  39.8814138 116.9393385 140.8405044  40.5838182 117.3914428 141.3078970
  39.5494767 116.2977204 141.4684937  33.6239472 115.1976937 146.1422178
  32.8338526 115.4534466 145.6662288  34.1150720 116.0125275 146.2474218
  47.6403282 122.5382176 148.8927458  48.4620726 122.1362364 148.6110140
  47.6365685 122.4350411 149.8443574  35.5754218 115.5621517 143.1005654
  34.7785381 115.6740211 143.6189150  35.3479810 115.9008169 142.2346545
  41.4059885 122.0866220 151.0488169  41.4704318 122.5486627 151.8846341
  40.6970809 121.4563585 151.1770479  31.9077175 115.4507428 148.5737168
  32.1585214 116.3354438 148.8394744  32.4436724 115.2712029 147.8012260
  55.7309275 118.8820925 145.2412430  54.9772983 118.3128323 145.0856434
  55.8656816 118.8483589 146.1883064  41.1207903 123.7534327 140.9167149
  40.9853578 124.5985863 141.3451997  41.6617715 123.9553605 140.1533083
  34.5737300 121.2709765 141.4895074  35.0861821 122.0653016 141.6400639
  35.2260013 120.5736056 141.4228676  36.3832185 124.3875522 143.5717827
  36.5598813 125.3093486 143.3838811  37.1789019 124.0733941 144.0012207
  40.5243204 111.2483786 155.1701761  41.2652917 111.8490939 155.0906223
  40.7561126 110.5061424 154.6119804  44.8457617 124.6560694 153.0748893
  44.8276093 125.4769575 152.5829162  45.7677537 124.5314769 153.2999034
  44.4700366 107.2764889 149.4466043  44.1264636 108.1666531 149.3705153
  44.8379329 107.0866547 148.5835628  32.5386217 119.5998420 142.2654645
  33.3761439 120.0095428 142.0488352  32.7164485 118.6597862 142.2354839
  44.4350649 117.2673500 137.9538478  43.9197273 118.0378105 138.1926865
  44.1627958 116.5938636 138.5771539  42.0197760 112.1123201 143.0123716
  41.1639357 111.7230051 142.8329355  42.4324712 112.1915162 142.1523502
  43.5496907 109.6469544 147.4115276  43.0461702 109.6099679 146.5983081
  43.8427514 110.5562287 147.4711933  39.7939793 109.7308274 146.4181458
  40.6592790 109.5351083 146.0587347  39.8617302 109.5018626 147.3450814
  49.4084923 120.0205855 139.8891651  48.6314366 119.6817014 139.4446813
  50.0876404 120.0258478 139.2146616  44.2236952 115.1400592 139.7798259
  43.9187088 115.4546742 140.6308402  45.1767394 115.2182012 139.8225592
  42.6683384 121.2990816 141.4291213  42.1404746 120.5643575 141.1164450
  42.1670887 122.0765492 141.1831181  47.6476230 119.4939836 146.5458259
  46.9899905 120.1839098 146.6338388  48.4516629 119.8836268 146.8892246
  37.4002112 111.9610482 143.7897824  37.9745864 111.7385663 143.0571017
  37.9873094 112.0299176 144.5426426  46.4581689 117.8484209 144.5962201
  46.9713571 118.4814201 145.0983911  47.1082913 117.2485404 144.2305561
  37.7271699 113.9914943 137.8093710  36.8909011 114.3289630 138.1302984
  37.5876469 113.8563923 136.8720847  39.7024780 108.8351731 142.5172894
  39.0489192 108.5200748 141.8929509  39.6605254 108.2127471 143.2432717
  40.8135984 119.1171026 134.4326186  39.9063046 118.8860279 134.6317335
  41.3107016 118.3208645 134.6200167  43.7204063 127.8268533 137.3522872
  43.0465762 128.1300230 137.9607830  44.1069885 128.6297613 137.0028329
  42.9362520 115.3233664 146.8420541  42.0185081 115.5448611 146.6842230
  43.3522664 115.3979975 145.9832249  43.7197568 116.7225080 141.9723222
  44.4669387 117.2346477 141.6630344  43.9889157 116.4009133 142.8327615
  41.9924218 119.2183621 138.9550176  41.0835437 118.9342654 139.0522646
  42.0219302 119.6382699 138.0953483  47.2243485 122.8290210 142.7241344
  46.7705812 121.9881120 142.7806534  46.5937452 123.4651609 143.0616124
  46.1676405 113.7582196 143.9542011  45.4299162 113.2459583 144.2852254
  46.4203178 113.3182578 143.1425288  45.6676424 124.6666707 143.6591162
  45.9599399 125.2271764 142.9403527  46.1775045 124.9595268 144.4144321
  46.2688032 106.5358448 144.5483780  46.5746909 105.6755812 144.2609695
  46.9940637 107.1276069 144.3482774  32.5612388 116.9389135 142.9365378
  32.3636788 116.3458496 142.2116445  32.0059052 116.6341345 143.6541317
  40.5409112 116.8312241 145.0559971  40.5957722 115.8786078 144.9802448
  39.7300314 116.9871680 145.5401270  41.6900306 120.7592364 136.2938255
  41.2519736 120.0428223 135.8343892  42.4310746 120.9868479 135.7323346
  38.4801472 115.4489301 142.8150350  37.6669337 115.7483472 143.2215542
  38.9760466 115.0544990 143.5324832  40.6310050 125.4447058 144.7484615
  40.5886228 125.6707904 143.8193147  41.5472749 125.2110433 144.8970416
  44.0775683 115.9131126 151.6465244  44.4325071 116.1402599 152.5059710
  44.7247815 116.2449502 151.0242499  49.8073420 119.0349562 142.3514573
  49.6691319 119.2251157 141.4235762  49.4509639 119.7968944 142.8082624
  37.9715547 113.0207657 148.4311585  38.6114926 112.8796416 147.7334549
  37.1393077 112.7342170 148.0550187  49.8342800 121.1026089 147.3625845
  50.2679307 121.0101378 148.2108899  50.5474381 121.0783589 146.7245861
  38.7475850 122.3210087 144.5446578  39.5416449 121.8260407 144.3429153
  38.0367543 121.7927950 144.1814283  43.5670695 124.7028183 148.8958945
  43.6207717 125.2719119 149.6636661  42.6985476 124.8730068 148.5312982
  35.0558614 116.4653169 140.6206330  34.1256202 116.4037624 140.8376292
  35.1516086 115.9429122 139.8242972  34.9744163 112.9907982 143.2084572
  35.2350980 113.9053315 143.0993732  35.7961335 112.5232424 143.3581185
  36.4469088 114.4045739 150.3783397  37.1192142 114.1963101 149.7296045
  35.6198875 114.2067825 149.9388629  50.6958350 121.1449789 149.8958730
  50.8894240 122.0495600 150.1418005  50.5958968 120.6857208 150.7297315
  42.3494660 111.0307680 152.3949057  41.7022575 111.7297629 152.3013534
  43.1195676 111.4643824 152.7625306  45.7573458 121.2956532 155.4699611
  45.6058965 121.0667084 154.5529694  45.7478138 122.2527133 155.4830956
  42.5258795 118.8688445 150.4545877  43.4550855 119.0199604 150.2814844
  42.1049825 118.9572465 149.5994524  41.3247126 122.8939109 148.2244415
  41.1858212 122.5257893 149.0970353  40.5361723 123.4086749 148.0528373
  41.9195278 127.9948206 139.5669951  42.0947034 127.5236249 140.3815574
  41.2328066 128.6213972 139.7951212  42.8752342 122.2720712 145.6133253
  42.5402174 122.2321482 146.5090902  42.3756287 121.6065428 145.1403663
  36.8496586 117.6788342 151.1385834  36.7116383 116.9468581 151.7397373
  37.7601509 117.5897242 150.8570021  45.8111533 119.6176746 135.8870312
  45.1940704 118.8923574 135.7903365  45.3428022 120.3786106 135.5437386
  39.4778886 117.3908301 150.6269513  40.1878505 116.7501493 150.5856132
  39.4348194 117.6421196 151.5495694  47.4665665 124.3275654 153.5476093
  47.4078211 123.6434875 152.8806676  47.8685183 125.0694644 153.0956719
  38.1907820 114.3773519 152.4465153  37.6545177 113.9264257 153.0986749
  37.6024529 114.5119428 151.7035617  37.6010079 113.8362170 135.0091616
  36.7239545 113.7150971 134.6453863  38.0767832 113.0448249 134.7570505
  47.4683072 122.2915238 151.7790072  46.5809851 121.9541160 151.9016471
  48.0381623 121.5598270 152.0158838  33.9246941 113.5129527 149.5318147
  33.8405130 112.9055196 148.7968557  33.1029648 114.0038545 149.5327644
  40.9984226 126.9516691 148.7451315  40.9254397 127.7571662 149.2570620
  40.5561619 127.1508657 147.9199337  40.7874005 126.1888461 142.2554137
  40.0041527 126.7310141 142.3492361  41.4866750 126.7062440 142.6548378
  44.0970655 111.9983090 144.8988342  44.5939355 111.2453053 144.5789413
  43.3257637 112.0347407 144.3331552  51.9500413 117.7023456 146.5406634
  51.9390289 118.5848171 146.1700567  51.0817792 117.3495007 146.3461171
  43.4582909 126.8503525 150.9009474  44.1710881 127.4850990 150.8285376
  42.9672938 126.9467391 150.0849476  45.1800436 120.7554777 142.4726766
  44.2456715 120.8756240 142.3031470  45.3577104 119.8527244 142.2086776
  40.6805624 114.1400473 144.6260027  40.3103412 113.5871514 145.3140933
  41.1764716 113.5358607 144.0735027  48.5672987 116.5972097 143.0076800
  49.0333440 117.4300088 142.9337103  49.0180488 116.1317078 143.7122058
  46.6349218 122.9415918 140.0062952  46.9109062 122.8272513 140.9156826
  45.7653717 122.5433403 139.9675125  46.5389650 108.9652684 147.0467701
  45.6252730 109.1956911 147.2149908  46.9682752 109.0491128 147.8981734
  46.3096109 117.1542576 149.5467595  45.6567559 117.4018483 148.8920048
  46.6876488 116.3406714 149.2130073  43.2703282 127.1902269 143.6495766
  43.4525677 126.3723925 144.1123518  44.0936268 127.4069961 143.2120656
  43.6045448 126.1170454 140.9110814  44.1333214 125.6062909 140.2980976
  43.8673668 125.8012984 141.7756347  36.9601196 127.1685571 143.6708590
  36.2911571 127.6531698 143.1872630  36.8214066 127.4154791 144.5851969
  36.0770958 111.5504464 150.8713133  36.1412284 112.4119295 150.4590531
  36.0138078 110.9378466 150.1385492  32.3288773 115.4304026 140.4504522
  32.6242214 114.5214704 140.3971576  31.4276809 115.4091765 140.1285524
  44.2374852 127.1511290 147.2554931  44.1125991 126.3501030 146.7465876
  44.8953943 127.6457483 146.7668900  35.8583020 113.5060022 146.4332071
  35.1369606 114.1195990 146.2939544  36.6476276 114.0417787 146.3548717
  46.3009760 124.9520310 148.8834481  45.3540096 124.8325661 148.8112807
  46.6492533 124.0642808 148.9660742  38.6609334 110.8414449 152.7072722
  39.1843735 111.0876745 153.4699032  38.4421667 111.6734484 152.2875860
  34.0576615 113.1118123 140.5743847  33.7289321 112.2315502 140.3918953
  34.4115985 113.0565792 141.4620237  43.3056193 124.7473026 145.0838833
  43.1581156 123.8189733 145.2646403  44.1309687 124.7693117 144.5995908
  37.1718438 113.3991093 140.9419325  37.5114510 113.9277014 140.2197933
  37.6190558 113.7371499 141.7177891  46.9090315 125.5701585 146.1703706
  47.8336863 125.3644446 146.0328157  46.7405619 125.3217986 147.0793047
  39.8661879 111.7828144 150.3922393  39.5258699 110.9835957 150.7943073
  39.1600885 112.0829855 149.8199226  40.5178350 108.8677456 148.8449716
  41.3404420 108.3937934 148.7228606  40.7616414 109.6467940 149.3448402
  39.1586585 111.8965715 139.1412618  39.8794947 112.2746967 138.6376335
  38.5351889 112.6154592 139.2447596  43.3017708 112.6010864 140.0770950
  43.5181322 113.4835502 139.7759778  42.8211775 112.2097077 139.3476592
  38.0416929 115.5596577 146.6541695  37.8961510 115.8736880 147.5465976
  37.5642133 116.1781477 146.1012593  39.9013312 112.5499125 146.7022584
  39.8874881 111.6540218 146.3654882  40.6185740 112.5569789 147.3360870
  41.7539443 112.9836465 148.7475712  41.4957221 113.9053536 148.7460042
  41.2224483 112.5866900 149.4376176  46.6985631 126.0887252 141.5265797
  46.8722509 125.5233675 140.7739649  47.1914523 126.8888147 141.3445287
  39.3050208 111.4313505 141.9710154  39.4266119 110.5030151 142.1701042
  39.0152250 111.4452191 141.0588470  42.1741398 109.1168416 145.1076874
  42.1963095 109.1807749 144.1528854  42.5909457 108.2772924 145.3017380
  52.5525023 118.8523675 143.1456097  52.9956169 118.1031000 142.7475220
  51.6751533 118.8433812 142.7629829  47.6860804 125.4054017 138.6262695
  48.3811709 126.0260709 138.8450010  48.0283954 124.5549368 138.9015073
  49.5852227 122.8553722 140.1550026  50.1103551 123.1940995 139.4299346
  49.4974580 121.9200737 139.9713161  41.2692888 128.9225705 144.5145279
  40.8297878 128.4302084 145.2078136  42.0201005 128.3798673 144.2737354
  33.7485227 125.1137246 144.5169907  34.5743247 124.8141018 144.1368551
  33.3979279 124.3444869 144.9659696  38.7166760 124.4663715 146.5867581
  38.0946769 123.8034420 146.2869809  39.3871627 124.4924846 145.9041229
  38.7891287 112.9445503 156.1800087  38.8379443 113.8207625 155.7977857
  39.3313802 112.4022896 155.6071730  49.2746133 123.4886626 155.4601224
  48.4841677 123.4710765 154.9205723  49.0379488 124.0274919 156.2150261
  49.3944008 120.3379092 152.7733953  49.4442013 120.1729100 153.7149475
  49.2857932 119.4706351 152.3831833  38.2780267 123.0167638 140.0626041
  38.4268387 123.7003102 139.4092714  39.0846710 122.9972728 140.5775497
  46.6847771 116.3210020 154.0893259  47.5857633 116.1816485 153.7977257
  46.7595745 116.4864475 155.0291437  41.0190576 113.6976875 152.9346446
  40.1493885 113.9910441 152.6629034  41.2550056 114.2817320 153.6553709
  50.8962205 122.7576034 153.0175974  50.6047013 123.1206014 153.8539435
  50.2834336 122.0443042 152.8389306  52.0957887 120.3228913 145.5378544
  52.9304779 120.7618718 145.7016105  52.2317016 119.8467567 144.7186790
  49.1449393 117.8808648 151.4856032  49.6203515 118.0736295 150.6774883
  48.2214959 117.9367834 151.2399416  36.0332900 119.0432815 141.0687110
  35.7878942 118.1395145 141.2667321  36.2028814 119.0449966 140.1266588
  43.7229610 109.9156492 150.4511866  44.2411554 110.6517519 150.1258355
  43.3684743 110.2220485 151.2858625  35.3028547 114.7761173 138.5673272
  34.6097792 114.8505528 137.9113308  35.0580299 114.0121517 139.0894789
  43.9742204 106.3356774 145.9712763  44.2543958 105.6679963 146.5973189
  44.7592811 106.5285870 145.4587426  41.7775672 125.5115768 137.5337789
  41.2049640 126.1305955 137.0808261  42.3508466 126.0615130 138.0677711
  47.8451062 114.7574408 149.7184338  48.7968485 114.8572506 149.7396562
  47.6754513 113.9652677 150.2282422  45.8665442 111.8429992 149.9043739
  45.2715374 112.1235004 149.2090227  45.5815138 112.3323893 150.6760480
  44.9972932 125.7952918 138.6646371  45.9303605 125.7298480 138.8679247
  44.9096145 126.6309185 138.2060904  47.6260949 125.1118789 135.6250319
  47.5474580 124.7778652 136.5186077  48.4470616 125.6040557 135.6241791
  50.3239140 117.9780528 148.8326637  50.2915460 117.0396529 149.0186321
  50.9339764 118.0564565 148.0992462  42.1622471 116.8476581 134.8753841
  43.1081576 116.7182789 134.9442259  41.7836716 116.1091243 135.3523270
  50.4733629 114.7691572 148.8784921  49.9572677 113.9850028 148.6914849
  51.3573577 114.4410288 149.0431440  48.1344355 108.5132587 144.8380733
  47.9369177 108.2047675 145.7224065  48.7444061 109.2394226 144.9678663
  56.1415690 119.0396535 147.9732674  56.8719078 118.7781823 148.5340377
  55.5322635 118.3025257 148.0134742  54.2230987 117.1804398 148.5707125
  53.4964151 117.0460362 147.9623617  53.8078274 117.4881226 149.3763843
  40.3465388 114.7726557 134.8108727  39.4396843 114.4759670 134.8871440
  40.6241369 114.4756376 133.9443013  31.2643328 116.0932921 145.2607773
  30.9446113 115.2398229 144.9682147  30.7176757 116.3081499 146.0165740
  35.0423236 118.8095362 148.9777280  35.2609246 119.7412470 148.9965313
  35.4549010 118.4503336 149.7632083  41.9627454 109.3163447 140.9652968
  41.1528182 108.9710532 141.3408214  42.6511871 109.0070991 141.5540579
  43.8918002 108.3941494 142.5877265  44.4449041 108.8136947 143.2467288
  44.1288088 107.4677242 142.6300221  39.1164173 111.6313493 134.9520706
  39.9783337 111.9568391 135.2116523  39.3014517 110.8444989 134.4393772
  47.2696809 110.5042019 142.0955929  46.6895478 111.1626823 141.7133981
  47.0032742 109.6819364 141.6843346  45.7200376 109.9047077 144.2977249
  46.2200154 110.0163611 143.4891568  46.3635983 109.6008130 144.9378058
  33.0468331 119.6454086 145.1066909  33.0239019 119.7441773 144.1548793
  33.3568967 120.4919237 145.4284076  46.0521687 112.6642110 141.1512277
  45.1647542 112.9491760 140.9332472  46.4675676 112.5035873 140.3039554
  49.4036223 112.6888630 144.8666616  50.1796613 113.1785083 145.1391233
  48.6784358 113.1146685 145.3238486  51.8408782 113.4016250 145.9240557
  52.4353273 113.1611986 145.2133865  51.9135366 112.6823380 146.5514093
  45.1964901 122.4286784 135.2460297  45.9000751 122.6336787 135.8617953
  44.4727549 122.9963546 135.5109381  46.0262711 118.1796645 141.3662567
  45.9697912 118.6365197 140.5270200  46.5791053 117.4187330 141.1885410
  49.8367517 113.9686377 142.1912687  49.5804451 113.5683013 143.0220894
  49.2120385 114.6830171 142.0662826  54.1479855 116.7082451 144.6983978
  53.5879413 116.7775640 145.4715540  53.5423358 116.5323435 143.9783474
  47.1051598 122.8669313 137.2958757  47.9397202 122.4350512 137.1136232
  46.9435941 122.6951327 138.2235652  46.7597490 119.3701427 138.6615096
  46.7046294 119.2045698 137.7203541  46.1343546 120.0777460 138.8177286
  40.0693616 108.8709536 138.2400415  40.0572286 109.8151376 138.3968686
  40.9617038 108.6879681 137.9459876  39.9983180 127.5478426 146.3268171
  39.0478811 127.5480288 146.2132544  40.3015666 126.8011161 145.8104206
  43.8845735 105.4652312 142.4946352  43.1178131 104.9110799 142.6403034
  44.2956440 105.5374181 143.3560503  55.7335873 133.3838964 147.3913934
  56.3714283 133.2645712 146.6877274  55.6156716 134.3319808 147.4501886
  52.5425579 133.3366393 147.3275459  52.2044091 133.2207457 146.4395993
  53.4115348 132.9357558 147.3076465  48.4012395 135.1901869 143.3172349
  47.8377260 135.0991806 142.5488637  48.2864790 134.3701773 143.7974842
  53.0245362 134.4901244 153.2861664  53.0134003 134.0954043 152.4142168
  53.1866002 133.7567317 153.8795436  45.9476827 136.6853061 146.1556570
  46.7398119 136.3443885 145.7402869  46.1873477 136.7948036 147.0758723
  53.9811954 138.8572837 138.6286814  53.3299934 139.4426917 138.2420828
  54.7756317 139.3879032 138.6881852  47.9067581 135.9461974 139.0273949
  48.6798457 135.3990961 138.8886825  48.2592980 136.8106223 139.2388410
  50.6708830 134.6515205 148.8242208  51.2672403 134.4271227 148.1099171
  50.7283802 133.9099950 149.4267656  50.2433859 132.1054640 136.6592399
  50.4959380 131.5836161 135.8975862  49.3058418 131.9420785 136.7619082
  55.2877142 131.1090418 144.4667142  56.0740231 130.6909842 144.1157559
  55.5515846 132.0136511 144.6348790  55.4587219 136.5463269 139.1655799
  54.8233052 136.6197895 139.8776703  55.1284625 137.1356867 138.4874878
  60.6885569 131.0465652 145.3700120  61.4210741 130.4764868 145.6037950
  59.9324924 130.6587252 145.8106626  49.9630148 134.0082746 138.8616774
  49.8466406 133.3327649 139.5297858  50.0732407 133.5215120 138.0448927
  52.3061689 133.4692893 142.5663463  51.9419896 132.9423514 143.2776384
  53.1628804 133.0791362 142.3929948  58.2110989 124.7587226 149.8294729
  57.8794314 125.6282637 149.6055944  57.6156603 124.4423510 150.5088759
  51.9467175 128.4982793 137.5624811  52.1141578 129.3663029 137.9295282
  51.7564345 128.6610074 136.6386101  54.7042509 136.9599772 149.2290642
  54.4043232 137.8624810 149.1206449  54.3593568 136.6931955 150.0811795
  48.1554990 133.4113568 145.2627346  47.2305487 133.2789783 145.4705038
  48.4039403 134.1907788 145.7597289  58.1039652 129.4782312 146.9088079
  57.1956530 129.4097720 146.6146840  58.0527248 129.9554257 147.7369905
  51.9256396 130.9540450 138.5471478  51.8056022 131.3997501 139.3856958
  51.2308985 131.3025768 137.9885016  45.5163801 133.0546842 146.0971135
  45.6456182 133.3081321 147.0110547  44.8361252 133.6474550 145.7775790
  49.6863288 143.7244092 142.1961609  49.6087318 144.6751917 142.2750090
  49.0824932 143.3789964 142.8536536  52.1780518 130.8971957 154.8522976
  51.4013852 131.4565878 154.8425841  52.8171081 131.3828740 155.3737846
  59.9701299 127.6798750 148.6865953  59.3275679 127.9731283 148.0405748
  59.4656227 127.5651671 149.4919150  57.6241463 131.4261923 139.3751812
  58.5359319 131.6589310 139.1999510  57.1151110 132.0098968 138.8126891
  55.9082230 135.8486551 153.0113105  56.3165586 135.4068962 152.2667737
  55.1859492 135.2739179 153.2647298  52.2613300 130.7859158 150.3846662
  53.1074495 131.2098572 150.5281311  52.2011938 130.1292782 151.0785225
  56.2311045 136.4087742 146.7665394  55.6019907 136.5733456 146.0641462
  55.8436707 136.8229351 147.5376358  60.1100277 137.3442180 144.1209757
  59.4251315 137.7241081 143.5706791  60.1944126 137.9537506 144.8541705
  55.4112746 128.4463526 152.0427835  55.1673677 129.2005587 151.5062111
  55.6872676 128.8248874 152.8775082  57.3651208 134.9902139 150.7205101
  57.5768104 135.6333899 150.0439482  57.3180957 134.1564455 150.2527031
  54.9677437 127.6019959 147.6241673  54.1061916 127.9001213 147.9158411
  54.9939872 127.8190358 146.6922706  51.7839007 136.1462150 144.0315479
  52.2477352 136.4249853 143.2420101  51.5195805 135.2445595 143.8488569
  48.6763088 135.6933631 146.9695242  49.2464445 136.1220900 146.3312727
  49.2671200 135.4116216 147.6679428  50.7207893 132.2685302 140.8405044
  51.4231936 132.7206346 141.3078970  50.3888521 131.6269121 141.4684937
  44.4633227 130.5268855 146.1422178  43.6732281 130.7826384 145.6662288
  44.9544474 131.3417193 146.2474218  58.4797036 137.8674094 148.8927458
  59.3014480 137.4654281 148.6110140  58.4759439 137.7642328 149.8443574
  46.4147972 130.8913434 143.1005654  45.6179135 131.0032128 143.6189150
  46.1873564 131.2300086 142.2346545  52.2453640 137.4158137 151.0488169
  52.3098072 137.8778545 151.8846341  51.5364564 136.7855502 151.1770479
  42.7470930 130.7799345 148.5737168  42.9978968 131.6646355 148.8394744
  43.2830478 130.6003947 147.8012260  66.5703029 134.2112843 145.2412430
  65.8166738 133.6420241 145.0856434  66.7050571 134.1775507 146.1883064
  51.9601657 139.0826245 140.9167149  51.8247332 139.9277781 141.3451997
  52.5011470 139.2845523 140.1533083  45.4131055 136.6001683 141.4895074
  45.9255575 137.3944933 141.6400639  46.0653768 135.9027973 141.4228676
  47.2225939 139.7167439 143.5717827  47.3992568 140.6385404 143.3838811
  48.0182773 139.4025858 144.0012207  51.3636958 126.5775704 155.1701761
  52.1046671 127.1782857 155.0906223  51.5954881 125.8353342 154.6119804
  55.3094121 122.6056807 149.4466043  54.9658390 123.4958449 149.3705153
  55.6773084 122.4158464 148.5835628  43.3779972 134.9290337 142.2654645
  44.2155194 135.3387346 142.0488352  43.5558239 133.9889779 142.2354839
  55.2744404 132.5965418 137.9538478  54.7591027 133.3670023 138.1926865
  55.0021712 131.9230554 138.5771539  52.8591515 127.4415119 143.0123716
  52.0033111 127.0521969 142.8329355  53.2718466 127.5207080 142.1523502
  54.3890661 124.9761462 147.4115276  53.8855457 124.9391597 146.5983081
  54.6821268 125.8854205 147.4711933  50.6333547 125.0600192 146.4181458
  51.4986544 124.8643000 146.0587347  50.7011056 124.8310543 147.3450814
  60.2478678 135.3497773 139.8891651  59.4708121 135.0108932 139.4446813
  60.9270159 135.3550396 139.2146616  55.0630707 130.4692510 139.7798259
  54.7580842 130.7838659 140.6308402  56.0161149 130.5473930 139.8225592
  53.5077139 136.6282733 141.4291213  52.9798500 135.8935493 141.1164450
  53.0064641 137.4057410 141.1831181  58.4869985 134.8231754 146.5458259
  57.8293659 135.5131015 146.6338388  59.2910384 135.2128186 146.8892246
  48.2395866 127.2902400 143.7897824  48.8139618 127.0677581 143.0571017
  48.8266849 127.3591094 144.5426426  57.2975444 133.1776127 144.5962201
  57.8107325 133.8106118 145.0983911  57.9476667 132.5777322 144.2305561
  48.5665453 129.3206861 137.8093710  47.7302766 129.6581547 138.1302984
  48.4270223 129.1855840 136.8720847  50.5418534 124.1643649 142.5172894
  49.8882946 123.8492666 141.8929509  50.4999008 123.5419389 143.2432717
  51.6529739 134.4462944 134.4326186  50.7456801 134.2152197 134.6317335
  52.1500771 133.6500563 134.6200167  54.5597818 143.1560451 137.3522872
  53.8859517 143.4592148 137.9607830  54.9463640 143.9589531 137.0028329
  53.7756274 130.6525582 146.8420541  52.8578836 130.8740529 146.6842230
  54.1916418 130.7271893 145.9832249  54.5591322 132.0516998 141.9723222
  55.3063141 132.5638395 141.6630344  54.8282912 131.7301050 142.8327615
  52.8317972 134.5475538 138.9550176  51.9229192 134.2634571 139.0522646
  52.8613056 134.9674617 138.0953483  58.0637240 138.1582128 142.7241344
  57.6099567 137.3173038 142.7806534  57.4331206 138.7943526 143.0616124
  57.0070159 129.0874114 143.9542011  56.2692916 128.5751500 144.2852254
  57.2596933 128.6474496 143.1425288  56.5070179 139.9958625 143.6591162
  56.7993153 140.5563682 142.9403527  57.0168800 140.2887186 144.4144321
  57.1081787 121.8650366 144.5483780  57.4140663 121.0047729 144.2609695
  57.8334391 122.4567986 144.3482774  43.4006143 132.2681053 142.9365378
  43.2030543 131.6750413 142.2116445  42.8452807 131.9633263 143.6541317
  51.3802866 132.1604159 145.0559971  51.4351476 131.2077995 144.9802448
  50.5694068 132.3163598 145.5401270  52.5294060 136.0884282 136.2938255
  52.0913490 135.3720141 135.8343892  53.2704501 136.3160397 135.7323346
  49.3195226 130.7781219 142.8150350  48.5063092 131.0775389 143.2215542
  49.8154220 130.3836908 143.5324832  51.4703804 140.7738976 144.7484615
  51.4279983 140.9999822 143.8193147  52.3866503 140.5402350 144.8970416
  54.9169438 131.2423043 151.6465244  55.2718826 131.4694516 152.5059710
  55.5641569 131.5741420 151.0242499  60.6467175 134.3641479 142.3514573
  60.5085073 134.5543075 141.4235762  60.2903394 135.1260862 142.8082624
  48.8109301 128.3499574 148.4311585  49.4508680 128.2088333 147.7334549
  47.9786832 128.0634088 148.0550187  60.6736554 136.4318006 147.3625845
  61.1073061 136.3393295 148.2108899  61.3868135 136.4075507 146.7245861
  49.5869605 137.6502005 144.5446578  50.3810203 137.1552325 144.3429153
  48.8761297 137.1219868 144.1814283  54.4064449 140.0320100 148.8958945
  54.4601472 140.6011037 149.6636661  53.5379231 140.2021985 148.5312982
  45.8952368 131.7945087 140.6206330  44.9649956 131.7329542 140.8376292
  45.9909840 131.2721039 139.8242972  45.8137917 128.3199899 143.2084572
  46.0744735 129.2345233 143.0993732  46.6355090 127.8524342 143.3581185
  47.2862843 129.7337657 150.3783397  47.9585896 129.5255019 149.7296045
  46.4592629 129.5359742 149.9388629  61.5352104 136.4741707 149.8958730
  61.7287994 137.3787517 150.1418005  61.4352722 136.0149126 150.7297315
  53.1888415 126.3599597 152.3949057  52.5416330 127.0589547 152.3013534
  53.9589430 126.7935741 152.7625306  53.3652549 134.1980362 150.4545877
  54.2944609 134.3491522 150.2814844  52.9443579 134.2864383 149.5994524
  52.1640881 138.2231027 148.2244415  52.0251967 137.8549811 149.0970353
  51.3755477 138.7378666 148.0528373  52.7589033 143.3240123 139.5669951
  52.9340789 142.8528166 140.3815574  52.0721821 143.9505889 139.7951212
  53.7146096 137.6012629 145.6133253  53.3795929 137.5613399 146.5090902
  53.2150042 136.9357345 145.1403663  47.6890340 133.0080259 151.1385834
  47.5510138 132.2760498 151.7397373  48.5995264 132.9189160 150.8570021
  56.6505288 134.9468664 135.8870312  56.0334458 134.2215492 135.7903365
  56.1821776 135.7078024 135.5437386  50.3172641 132.7200219 150.6269513
  51.0272259 132.0793411 150.5856132  50.2741949 132.9713114 151.5495694
  49.0301575 129.7065437 152.4465153  48.4938932 129.2556175 153.0986749
  48.4418283 129.8411346 151.7035617  48.4403834 129.1654088 135.0091616
  47.5633300 129.0442889 134.6453863  48.9161587 128.3740166 134.7570505
  58.3076827 137.6207156 151.7790072  57.4203605 137.2833078 151.9016471
  58.8775378 136.8890187 152.0158838  44.7640696 128.8421444 149.5318147
  44.6798885 128.2347114 148.7968557  43.9423402 129.3330463 149.5327644
  51.8377980 142.2808608 148.7451315  51.7648152 143.0863580 149.2570620
  51.3955373 142.4800574 147.9199337  51.6267760 141.5180378 142.2554137
  50.8435282 142.0602059 142.3492361  52.3260505 142.0354358 142.6548378
  54.9364410 127.3275008 144.8988342  55.4333109 126.5744970 144.5789413
  54.1651391 127.3639325 144.3331552  62.7894167 133.0315373 146.5406634
  62.7784043 133.9140089 146.1700567  61.9211547 132.6786924 146.3461171
  56.0194190 136.0846695 142.4726766  55.0850469 136.2048158 142.3031470
  56.1970859 135.1819162 142.2086776  51.5199379 129.4692391 144.6260027
  51.1497166 128.9163431 145.3140933  52.0158471 128.8650524 144.0735027
  59.4066742 131.9264014 143.0076800  59.8727194 132.7592006 142.9337103
  59.8574242 131.4608996 143.7122058  57.4742973 138.2707836 140.0062952
  57.7502817 138.1564430 140.9156826  56.6047472 137.8725321 139.9675125
  57.3783405 124.2944601 147.0467701  56.4646484 124.5248828 147.2149908
  57.8076506 124.3783045 147.8981734  57.1489863 132.4834493 149.5467595
  56.4961313 132.7310401 148.8920048  57.5270243 131.6698632 149.2130073
  54.1097037 142.5194187 143.6495766  54.2919431 141.7015842 144.1123518
  54.9330023 142.7361879 143.2120656  54.4439202 141.4462372 140.9110814
  54.9726969 140.9354826 140.2980976  54.7067422 141.1304902 141.7756347
  47.7994950 142.4977488 143.6708590  47.1305326 142.9823616 143.1872630
  47.6607820 142.7446709 144.5851969  46.9164712 126.8796382 150.8713133
  46.9806039 127.7411213 150.4590531  46.8531832 126.2670383 150.1385492
  43.1682527 130.7595943 140.4504522  43.4635969 129.8506622 140.3971576
  42.2670563 130.7383683 140.1285524  55.0768606 142.4803207 147.2554931
  54.9519746 141.6792947 146.7465876  55.7347697 142.9749401 146.7668900
  46.6976774 128.8351940 146.4332071  45.9763360 129.4487908 146.2939544
  47.4870030 129.3709705 146.3548717  57.1403515 140.2812227 148.8834481
  56.1933850 140.1617579 148.8112807  57.4886288 139.3934726 148.9660742
  49.5003088 126.1706366 152.7072722  50.0237490 126.4168663 153.4699032
  49.2815421 127.0026401 152.2875860  44.8970369 128.4410041 140.5743847
  44.5683075 127.5607420 140.3918953  45.2509740 128.3857710 141.4620237
  54.1449948 140.0764944 145.0838833  53.9974910 139.1481651 145.2646403
  54.9703441 140.0985034 144.5995908  48.0112192 128.7283011 140.9419325
  48.3508265 129.2568932 140.2197933  48.4584313 129.0663417 141.7177891
  57.7484070 140.8993502 146.1703706  58.6730617 140.6936364 146.0328157
  57.5799373 140.6509904 147.0793047  50.7055633 127.1120062 150.3922393
  50.3652453 126.3127875 150.7943073  49.9994639 127.4121772 149.8199226
  51.3572105 124.1969374 148.8449716  52.1798174 123.7229852 148.7228606
  51.6010168 124.9759858 149.3448402  49.9980339 127.2257632 139.1412618
  50.7188702 127.6038885 138.6376335  49.3745643 127.9446509 139.2447596
  54.1411462 127.9302781 140.0770950  54.3575077 128.8127419 139.7759778
  53.6605529 127.5388995 139.3476592  48.8810684 130.8888495 146.6541695
  48.7355264 131.2028798 147.5465976  48.4035887 131.5073395 146.1012593
  50.7407067 127.8791043 146.7022584  50.7268635 126.9832136 146.3654882
  51.4579495 127.8861706 147.3360870  52.5933197 128.3128383 148.7475712
  52.3350975 129.2345453 148.7460042  52.0618238 127.9158817 149.4376176
  57.5379386 141.4179170 141.5265797  57.7116264 140.8525592 140.7739649
  58.0308277 142.2180065 141.3445287  50.1443962 126.7605423 141.9710154
  50.2659874 125.8322069 142.1701042  49.8546005 126.7744109 141.0588470
  53.0135153 124.4460333 145.1076874  53.0356850 124.5099666 144.1528854
  53.4303212 123.6064842 145.3017380  63.3918777 134.1815593 143.1456097
  63.8349923 133.4322918 142.7475220  62.5145287 134.1725729 142.7629829
  58.5254558 140.7345934 138.6262695  59.2205463 141.3552627 138.8450010
  58.8677709 139.8841286 138.9015073  60.4245982 138.1845640 140.1550026
  60.9497306 138.5232913 139.4299346  60.3368334 137.2492655 139.9713161
  52.1086642 144.2517623 144.5145279  51.6691633 143.7594002 145.2078136
  52.8594759 143.7090591 144.2737354  44.5878981 140.4429164 144.5169907
  45.4137001 140.1432936 144.1368551  44.2373033 139.6736786 144.9659696
  49.5560514 139.7955632 146.5867581  48.9340524 139.1326337 146.2869809
  50.2265381 139.8216764 145.9041229  49.6285042 128.2737420 156.1800087
  49.6773197 129.1499543 155.7977857  50.1707556 127.7314813 155.6071730
  49.1174021 138.3459556 140.0626041  49.2662142 139.0295020 139.4092714
  49.9240465 138.3264646 140.5775497  57.5241525 131.6501938 154.0893259
  58.4251388 131.5108403 153.7977257  57.5989500 131.8156393 155.0291437
  51.8584330 129.0268793 152.9346446  50.9887640 129.3202359 152.6629034
  52.0943811 129.6109238 153.6553709  62.9351642 135.6520831 145.5378544
  63.7698533 136.0910635 145.7016105  63.0710771 135.1759484 144.7186790
  59.9843148 133.2100566 151.4856032  60.4597269 133.4028212 150.6774883
  59.0608713 133.2659752 151.2399416  46.8726654 134.3724733 141.0687110
  46.6272696 133.4687063 141.2667321  47.0422569 134.3741884 140.1266588
  54.5623364 125.2448410 150.4511866  55.0805308 125.9809436 150.1258355
  54.2078497 125.5512403 151.2858625  46.1422302 130.1053091 138.5673272
  45.4491547 130.1797446 137.9113308  45.8974054 129.3413434 139.0894789
  54.8135958 121.6648692 145.9712763  55.0937712 120.9971881 146.5973189
  55.5986565 121.8577788 145.4587426  52.6169427 140.8407686 137.5337789
  52.0443394 141.4597873 137.0808261  53.1902221 141.3907048 138.0677711
  58.6844817 130.0866326 149.7184338  59.6362240 130.1864424 149.7396562
  58.5148267 129.2944595 150.2282422  56.7059196 127.1721909 149.9043739
  56.1109128 127.4526922 149.2090227  56.4208893 127.6615810 150.6760480
  55.8366687 141.1244836 138.6646371  56.7697360 141.0590398 138.8679247
  55.7489900 141.9601103 138.2060904  58.4654703 140.4410706 135.6250319
  58.3868335 140.1070570 136.5186077  59.2864370 140.9332474 135.6241791
  61.1632895 133.3072446 148.8326637  61.1309215 132.3688446 149.0186321
  61.7733518 133.3856482 148.0992462  53.0016225 132.1768499 134.8753841
  53.9475330 132.0474707 134.9442259  52.6230470 131.4383161 135.3523270
  61.3127383 130.0983489 148.8784921  60.7966432 129.3141946 148.6914849
  62.1967332 129.7702206 149.0431440  58.9738110 123.8424505 144.8380733
  58.7762931 123.5339593 145.7224065  59.5837816 124.5686144 144.9678663
  66.9809444 134.3688453 147.9732674  67.7112833 134.1073741 148.5340377
  66.3716390 133.6317175 148.0134742  65.0624742 132.5096315 148.5707125
  64.3357905 132.3752280 147.9623617  64.6472028 132.8173144 149.3763843
  51.1859143 130.1018475 134.8108727  50.2790598 129.8051588 134.8871440
  51.4635124 129.8048293 133.9443013  42.1037083 131.4224839 145.2607773
  41.7839867 130.5690147 144.9682147  41.5570511 131.6373417 146.0165740
  45.8816991 134.1387280 148.9777280  46.1003000 135.0704387 148.9965313
  46.2942764 133.7795254 149.7632083  52.8021208 124.6455365 140.9652968
  51.9921937 124.3002450 141.3408214  53.4905625 124.3362909 141.5540579
  54.7311757 123.7233412 142.5877265  55.2842795 124.1428865 143.2467288
  54.9681843 122.7969160 142.6300221  49.9557927 126.9605410 134.9520706
  50.8177091 127.2860309 135.2116523  50.1408271 126.1736906 134.4393772
  58.1090564 125.8333937 142.0955929  57.5289233 126.4918741 141.7133981
  57.8426496 125.0111281 141.6843346  56.5594130 125.2338995 144.2977249
  57.0593908 125.3455529 143.4891568  57.2029738 124.9300047 144.9378058
  43.8862085 134.9746004 145.1066909  43.8632774 135.0733691 144.1548793
  44.1962722 135.8211155 145.4284076  56.8915442 127.9934027 141.1512277
  56.0041297 128.2783678 140.9332472  57.3069431 127.8327791 140.3039554
  60.2429978 128.0180548 144.8666616  61.0190368 128.5077001 145.1391233
  59.5178112 128.4438602 145.3238486  62.6802536 128.7308167 145.9240557
  63.2747027 128.4903903 145.2133865  62.7529120 128.0115298 146.5514093
  56.0358655 137.7578702 135.2460297  56.7394505 137.9628704 135.8617953
  55.3121304 138.3255464 135.5109381  56.8656465 133.5088563 141.3662567
  56.8091667 133.9657115 140.5270200  57.4184808 132.7479248 141.1885410
  60.6761271 129.2978295 142.1912687  60.4198206 128.8974931 143.0220894
  60.0514139 130.0122089 142.0662826  64.9873609 132.0374368 144.6983978
  64.4273167 132.1067558 145.4715540  64.3817113 131.8615353 143.9783474
  57.9445353 138.1961231 137.2958757  58.7790956 137.7642430 137.1136232
  57.7829695 138.0243245 138.2235652  57.5991245 134.6993344 138.6615096
  57.5440049 134.5337616 137.7203541  56.9737300 135.4069377 138.8177286
  50.9087370 124.2001453 138.2400415  50.8966040 125.1443293 138.3968686
  51.8010792 124.0171599 137.9459876  50.8376934 142.8770344 146.3268171
  49.8872565 142.8772205 146.2132544  51.1409420 142.1303078 145.8104206
  54.7239490 120.7944230 142.4946352  53.9571885 120.2402717 142.6403034
  55.1350195 120.8666099 143.3560503  59.2406150 150.5193787 143.3172349
  58.6771015 150.4283724 142.5488637  59.1258545 149.6993691 143.7974842
  64.8205708 154.1864754 138.6286814  64.1693688 154.7718835 138.2420828
  65.6150071 154.7170949 138.6881852  58.7461336 151.2753892 139.0273949
  59.5192212 150.7282879 138.8886825  59.0986734 152.1398141 139.2388410
  61.0827613 147.4346558 136.6592399  61.3353134 146.9128079 135.8975862
  60.1452172 147.2712703 136.7619082  66.2980973 151.8755186 139.1655799
  65.6626806 151.9489813 139.8776703  65.9678380 152.4648785 138.4874878
  60.8023902 149.3374664 138.8616774  60.6860160 148.6619567 139.5297858
  60.9126162 148.8507038 138.0448927  63.1455443 148.7984811 142.5663463
  62.7813650 148.2715432 143.2776384  64.0022559 148.4083280 142.3929948
  62.7860930 143.8274710 137.5624811  62.9535332 144.6954947 137.9295282
  62.5958099 143.9901992 136.6386101  62.7650151 146.2832368 138.5471478
  62.6449776 146.7289419 139.3856958  62.0702739 146.6317686 137.9885016
  68.4635217 146.7553841 139.3751812  69.3753073 146.9881228 139.1999510
  67.9544864 147.3390885 138.8126891  61.5601647 147.5977220 140.8405044
  62.2625691 148.0498264 141.3078970  61.2282276 146.9561039 141.4684937
  55.3026981 145.8560773 146.1422178  54.5126035 146.1118301 145.6662288
  55.7938229 146.6709111 146.2474218  57.2541727 146.2205352 143.1005654
  56.4572890 146.3324046 143.6189150  57.0267319 146.5592004 142.2346545
  56.2524809 151.9293601 141.4895074  56.7649330 152.7236851 141.6400639
  56.9047522 151.2319891 141.4228676  54.2173726 150.2582255 142.2654645
  55.0548948 150.6679263 142.0488352  54.3951994 149.3181697 142.2354839
  66.1138158 147.9257336 137.9538478  65.5984782 148.6961940 138.1926865
  65.8415467 147.2522472 138.5771539  63.6985269 142.7707036 143.0123716
  62.8426866 142.3813887 142.8329355  64.1112221 142.8498997 142.1523502
  61.4727302 140.3892109 146.4181458  62.3380298 140.1934918 146.0587347
  61.5404811 140.1602461 147.3450814  65.9024461 145.7984428 139.7798259
  65.5974597 146.1130577 140.6308402  66.8554903 145.8765848 139.8225592
  64.3470893 151.9574651 141.4291213  63.8192255 151.2227411 141.1164450
  63.8458396 152.7349327 141.1831181  59.0789621 142.6194317 143.7897824
  59.6533373 142.3969499 143.0571017  59.6660603 142.6883012 144.5426426
  59.4059208 144.6498778 137.8093710  58.5696520 144.9873465 138.1302984
  59.2663978 144.5147758 136.8720847  61.3812289 139.4935566 142.5172894
  60.7276701 139.1784583 141.8929509  61.3392763 138.8711307 143.2432717
  62.4923493 149.7754861 134.4326186  61.5850555 149.5444115 134.6317335
  62.9894525 148.9792481 134.6200167  65.3985077 147.3808915 141.9723222
  66.1456896 147.8930313 141.6630344  65.6676666 147.0592968 142.8327615
  63.6711727 149.8767456 138.9550176  62.7622946 149.5926489 139.0522646
  63.7006811 150.2966535 138.0953483  67.8463914 144.4166032 143.9542011
  67.1086671 143.9043418 144.2852254  68.0990687 143.9766413 143.1425288
  67.9475541 137.1942284 144.5483780  68.2534418 136.3339647 144.2609695
  68.6728146 137.7859904 144.3482774  54.2399897 147.5972970 142.9365378
  54.0424297 147.0042331 142.2116445  53.6846561 147.2925180 143.6541317
  63.3687815 151.4176200 136.2938255  62.9307245 150.7012059 135.8343892
  64.1098255 151.6452315 135.7323346  60.1588981 146.1073136 142.8150350
  59.3456846 146.4067307 143.2215542  60.6547975 145.7128825 143.5324832
  56.7346123 147.1237004 140.6206330  55.8043711 147.0621460 140.8376292
  56.8303595 146.6012957 139.8242972  56.6531672 143.6491817 143.2084572
  56.9138489 144.5637150 143.0993732  57.4748844 143.1816260 143.3581185
  67.4899042 150.2760581 135.8870312  66.8728213 149.5507410 135.7903365
  67.0215531 151.0369942 135.5437386  59.2797588 144.4946006 135.0091616
  58.4027054 144.3734807 134.6453863  59.7555341 143.7032084 134.7570505
  55.6034450 144.1713362 149.5318147  55.5192639 143.5639032 148.7968557
  54.7817157 144.6622380 149.5327644  65.7758164 142.6566926 144.8988342
  66.2726864 141.9036888 144.5789413  65.0045146 142.6931242 144.3331552
  62.3593133 144.7984309 144.6260027  61.9890921 144.2455349 145.3140933
  62.8552225 144.1942442 144.0735027  54.0076282 146.0887861 140.4504522
  54.3029723 145.1798539 140.3971576  53.1064318 146.0675600 140.1285524
  57.5370529 144.1643858 146.4332071  56.8157115 144.7779825 146.2939544
  58.3263785 144.7001622 146.3548717  55.7364124 143.7701959 140.5743847
  55.4076830 142.8899338 140.3918953  56.0903494 143.7149627 141.4620237
  58.8505947 144.0574928 140.9419325  59.1902019 144.5860850 140.2197933
  59.2978067 144.3955335 141.7177891  60.8374094 142.5549550 139.1412618
  61.5582456 142.9330803 138.6376335  60.2139398 143.2738427 139.2447596
  64.9805217 143.2594699 140.0770950  65.1968831 144.1419337 139.7759778
  64.4999284 142.8680912 139.3476592  61.5800821 143.2082960 146.7022584
  61.5662390 142.3124054 146.3654882  62.2973249 143.2153624 147.3360870
  60.9837717 142.0897341 141.9710154  61.1053628 141.1613987 142.1701042
  60.6939759 142.1036026 141.0588470  63.8528907 139.7752251 145.1076874
  63.8750604 139.8391584 144.1528854  64.2696966 138.9356760 145.3017380
  59.9567776 153.6751473 140.0626041  60.1055896 154.3586938 139.4092714
  60.7634219 153.6556563 140.5775497  57.7120409 149.7016651 141.0687110
  57.4666451 148.7978981 141.2667321  57.8816323 149.7033801 140.1266588
  56.9816056 145.4345008 138.5673272  56.2885301 145.5089363 137.9113308
  56.7367808 144.6705352 139.0894789  65.6529713 136.9940610 145.9712763
  65.9331467 136.3263799 146.5973189  66.4380320 137.1869705 145.4587426
  63.4563181 156.1699604 137.5337789  62.8837149 156.7889791 137.0808261
  64.0295975 156.7198965 138.0677711  69.3048458 155.7702624 135.6250319
  69.2262089 155.4362488 136.5186077  70.1258125 156.2624392 135.6241791
  63.8409980 147.5060416 134.8753841  64.7869085 147.3766625 134.9442259
  63.4624225 146.7675078 135.3523270  69.8131864 139.1716422 144.8380733
  69.6156686 138.8631511 145.7224065  70.4231570 139.8978061 144.9678663
  62.0252897 145.4310393 134.8108727  61.1184352 145.1343506 134.8871440
  62.3028878 145.1340211 133.9443013  52.9430837 146.7516756 145.2607773
  52.6233622 145.8982064 144.9682147  52.3964266 146.9665334 146.0165740
  63.6414963 139.9747283 140.9652968  62.8315691 139.6294367 141.3408214
  64.3299380 139.6654826 141.5540579  65.5705511 139.0525329 142.5877265
  66.1236550 139.4720783 143.2467288  65.8075597 138.1261077 142.6300221
  60.7951682 142.2897328 134.9520706  61.6570846 142.6152226 135.2116523
  60.9802026 141.5028824 134.4393772  68.9484318 141.1625854 142.0955929
  68.3682987 141.8210659 141.7133981  68.6820251 140.3403199 141.6843346
  67.3987885 140.5630912 144.2977249  67.8987663 140.6747447 143.4891568
  68.0423492 140.2591965 144.9378058  54.7255840 150.3037921 145.1066909
  54.7026528 150.4025609 144.1548793  55.0356476 151.1503072 145.4284076
  67.7309196 143.3225945 141.1512277  66.8435051 143.6075595 140.9332472
  68.1463185 143.1619708 140.3039554  66.8752410 153.0870620 135.2460297
  67.5788260 153.2920622 135.8617953  66.1515058 153.6547381 135.5109381
  67.7050220 148.8380481 141.3662567  67.6485421 149.2949032 140.5270200
  68.2578562 148.0771165 141.1885410  71.5155026 144.6270213 142.1912687
  71.2591960 144.2266848 143.0220894  70.8907894 145.3414007 142.0662826
  68.7839107 153.5253149 137.2958757  69.6184711 153.0934347 137.1136232
  68.6223450 153.3535162 138.2235652  68.4384999 150.0285262 138.6615096
  68.3833803 149.8629533 137.7203541  67.8131055 150.7361295 138.8177286
  61.7481125 139.5293371 138.2400415  61.7359795 140.4735211 138.3968686
  62.6404547 139.3463516 137.9459876  65.5633244 136.1236148 142.4946352
  64.7965640 135.5694634 142.6403034  65.9743949 136.1958016 143.3560503
  10.6236937  54.5467289 125.3532121   9.9724917  55.1321369 124.9666135
  11.4181300  55.0773484 125.4127159   4.5492564  51.6356426 125.7519255
   5.3223440  51.0885413 125.6132131   4.9017963  52.5000675 125.9633717
   6.8858842  47.7949092 123.3837705   7.1384363  47.2730613 122.6221168
   5.9483401  47.6315237 123.4864389  12.1012202  52.2357721 125.8901105
  11.4658035  52.3092347 126.6022010  11.7709609  52.8251319 125.2120185
   6.6055131  49.6977198 125.5862080   6.4891389  49.0222101 126.2543165
   6.7157391  49.2109572 124.7694233   8.5892159  44.1877245 124.2870118
   8.7566561  45.0557481 124.6540589   8.3989328  44.3504526 123.3631407
   8.5681380  46.6434902 125.2716785   8.4481005  47.0891953 126.1102265
   7.8733968  46.9920220 124.7130323   6.3288272  59.4138544 128.9206916
   6.2512301  60.3646369 128.9995397   5.7249915  59.0684416 129.5781842
  14.2666446  47.1156375 126.0997119  15.1784302  47.3483762 125.9244816
  13.7576093  47.6993420 125.5372197  16.7525260  53.0336632 130.8455064
  16.0676298  53.4135533 130.2952097  16.8369109  53.6431958 131.5787012
   8.4263990  51.8356602 130.7560785   8.8902336  52.1144305 129.9665408
   8.1620788  50.9340046 130.5733876   7.3632876  47.9579754 127.5650351
   8.0656919  48.4100798 128.0324277   7.0313505  47.3163573 128.1930244
  23.2128013  49.9007295 131.9657736  22.4591721  49.3314693 131.8101741
  23.3475554  49.8669959 132.9128371   8.6026641  54.7720697 127.6412456
   8.4672315  55.6172233 128.0697304   9.1436453  54.9739974 126.8778390
   2.0556038  52.2896135 128.2140381   2.5680559  53.0839385 128.3645946
   2.7078751  51.5922425 128.1473982   3.8650923  55.4061891 130.2963134
   4.0417551  56.3279856 130.1084118   4.6607756  55.0920310 130.7257514
  11.9169387  48.2859870 124.6783784  11.4016010  49.0564474 124.9172172
  11.6446695  47.6125006 125.3016846  16.8903661  51.0392224 126.6136958
  16.1133104  50.7003384 126.1692120  17.5695142  51.0444848 125.9391923
  11.7055690  46.1586962 126.5043566  11.4005826  46.4733111 127.3553709
  12.6586132  46.2368382 126.5470899  10.1502122  52.3177185 128.1536520
   9.6223484  51.5829945 127.8409757   9.6489625  53.0951862 127.9076488
  15.1294968  50.5126206 133.2703566  14.4718642  51.2025467 133.3583694
  15.9335367  50.9022638 133.6137552  13.9400427  48.8670578 131.3207508
  14.4532309  49.5000570 131.8229217  14.5901651  48.2671774 130.9550868
   5.2090437  45.0101313 124.5339016   4.3727749  45.3475999 124.8548291
   5.0695206  44.8750292 123.5966153   8.2954722  50.1357395 121.1571493
   7.3881784  49.9046649 121.3562642   8.7925754  49.3395015 121.3445474
  11.2022801  58.8454903 124.0768179  10.5284500  59.1486599 124.6853137
  11.5888623  59.6483983 123.7273636  11.2016305  47.7411450 128.6968528
  11.9488124  48.2532847 128.3875650  11.4707895  47.4195502 129.5572922
   9.4742956  50.2369990 125.6795483   8.5654175  49.9529023 125.7767952
   9.5038039  50.6569069 124.8198790  14.7062223  53.8476580 129.4486650
  14.2524550  53.0067490 129.5051841  14.0756190  54.4837978 129.7861430
  13.1495162  55.6853077 130.3836468  13.4418137  56.2458134 129.6648834
  13.6593783  55.9781638 131.1389627   9.1719043  51.7778734 123.0183561
   8.7338473  51.0614593 122.5589199   9.9129484  52.0054849 122.4568653
   8.1128787  56.4633428 131.4729922   8.0704966  56.6894274 130.5438454
   9.0291486  56.2296802 131.6215723  17.2892158  50.0535931 129.0759880
  17.1510057  50.2437527 128.1481069  16.9328377  50.8155314 129.5327931
  17.3161538  52.1212458 134.0871151  17.7498044  52.0287747 134.9354205
  18.0293118  52.0969959 133.4491167   9.4014016  59.0134575 126.2915258
   9.5765772  58.5422618 127.1060881   8.7146804  59.6400341 126.5196519
  13.2930271  50.6363116 122.6115619  12.6759442  49.9109944 122.5148671
  12.8246759  51.3972476 122.2682693   3.9675101  62.1623938 133.0655118
   4.2071700  62.7942462 133.7434137   3.1244298  61.8111978 133.3520477
   5.0828817  44.8548540 121.7336923   4.2058283  44.7337341 121.3699170
   5.5586570  44.0634618 121.4815812   8.2692743  57.2074830 128.9799444
   7.4860265  57.7496511 129.0737668   8.9685488  57.7248810 129.3793685
  19.4319150  48.7209825 133.2651940  19.4209027  49.6034541 132.8945874
  18.5636530  48.3681376 133.0706478  12.6619174  51.7741147 129.1972072
  11.7275452  51.8942609 129.0276777  12.8395842  50.8713614 128.9332082
  16.0491725  47.6158466 129.7322107  16.5152177  48.4486458 129.6582409
  16.4999226  47.1503448 130.4367365  14.1167956  53.9602288 126.7308259
  14.3927800  53.8458882 127.6402133  13.2472455  53.5619772 126.6920432
  10.7522020  58.2088638 130.3741072  10.9344415  57.3910294 130.8368825
  11.5755006  58.4256331 129.9365962  11.0864186  57.1356824 127.6356121
  11.6151952  56.6249278 127.0226283  11.3492405  56.8199354 128.5001654
   4.4419934  58.1871940 130.3953897   3.7730309  58.6718068 129.9117937
   4.3032803  58.4341161 131.3097275  11.7193590  58.1697659 133.9800237
  11.5944729  57.3687399 133.4711183  12.3772681  58.6643853 133.4914207
  13.7828498  55.9706679 135.6079787  12.8358833  55.8512031 135.5358114
  14.1311271  55.0829177 135.6906049  10.7874931  55.7659396 131.8084139
  10.6399894  54.8376103 131.9891709  11.6128425  55.7879486 131.3241215
  14.3909053  56.5887954 132.8949012  15.3155601  56.3830816 132.7573463
  14.2224356  56.3404355 133.8038354  10.7836446  43.6197233 126.8016257
  11.0000060  44.5021871 126.5005085  10.3030513  43.2283447 126.0721899
  14.1804369  57.1073622 128.2511104  14.3541247  56.5420044 127.4984956
  14.6733261  57.9074517 128.0690594  20.0343760  49.8710045 129.8701403
  20.4774906  49.1217370 129.4720527  19.1570271  49.8620181 129.4875135
  15.1679542  56.4240386 125.3508002  15.8630446  57.0447079 125.5695317
  15.5102692  55.5735737 125.6260380  17.0670965  53.8740092 126.8795333
  17.5922289  54.2127364 126.1544653  16.9793317  52.9387107 126.6958467
   8.7511626  59.9412075 131.2390586   8.3116616  59.4488454 131.9323443
   9.5019743  59.3985043 130.9982661   5.7599005  54.0354007 126.7871348
   5.9087125  54.7189472 126.1338021   6.5665448  54.0159097 127.3020804
  19.5776625  51.3415283 132.2623851  20.4123517  51.7805087 132.4261411
  19.7135754  50.8653936 131.4432097   9.2594410  56.5302138 124.2583096
   8.6868377  57.1492325 123.8053567   9.8327204  57.0801500 124.7923017
  12.4791670  56.8139288 125.3891678  13.4122343  56.7484850 125.5924553
  12.3914883  57.6495555 124.9306210  15.1079687  56.1305158 122.3495625
  15.0293318  55.7965022 123.2431383  15.9289353  56.6226926 122.3487098
   9.6441209  47.8662951 121.5999148  10.5900313  47.7369159 121.6687566
   9.2655454  47.1277613 122.0768576  23.6234428  50.0582904 134.6977981
  24.3537816  49.7968193 135.2585684  23.0141373  49.3211626 134.7380049
   7.8284126  45.7912927 121.5354033   6.9215581  45.4946040 121.6116747
   8.1060107  45.4942745 120.6688319   6.5982910  42.6499862 121.6766012
   7.4602074  42.9754761 121.9361830   6.7833255  41.8631358 121.1639078
  13.5340425  43.6828479 127.8757584  12.6466280  43.9678130 127.6577778
  13.9494414  43.5222242 127.0284861  12.6783638  53.4473154 121.9705604
  13.3819489  53.6523156 122.5863259  11.9546287  54.0149916 122.2354687
  13.5081449  49.1983015 128.0907874  13.4516650  49.6551566 127.2515506
  14.0609791  48.4373700 127.9130717  17.3186255  44.9872747 128.9157993
  17.0623189  44.5869383 129.7466201  16.6939123  45.7016541 128.7908133
  21.6298593  47.7268820 131.4229285  21.0698150  47.7962009 132.1960847
  21.0242096  47.5509805 130.7028781   4.6993801  59.1605547 133.1747471
   4.5826185  60.1050980 133.0726161   3.8786248  58.8579109 133.5633270
  14.5870336  53.8855683 124.0204064  15.4215940  53.4536881 123.8381539
  14.4254679  53.7137697 124.9480958  14.2416228  50.3887796 125.3860403
  14.1865032  50.2232068 124.4448847  13.6162283  51.0963829 125.5422593
   7.4801917  58.5664796 133.0513478   6.5297548  58.5666657 132.9377850
   7.7834404  57.8197530 132.5349513  23.2154611  64.4025334 134.1159240
  23.8533021  64.2832081 133.4122581  23.0975454  65.3506178 134.1747193
  20.0244317  64.3552762 134.0520765  19.6862829  64.2393827 133.1641300
  20.8934085  63.9543927 134.0321771  15.8831133  66.2088239 130.0417656
  15.3195998  66.1178176 129.2733944  15.7683528  65.3888143 130.5220149
  20.5064100  65.5087614 140.0106971  20.4952741  65.1140412 139.1387474
  20.6684740  64.7753687 140.6040742  13.4295565  67.7039430 132.8801877
  14.2216857  67.3630255 132.4648176  13.6692215  67.8134405 133.8004030
  21.4630692  69.8759206 125.3532121  20.8118671  70.4613287 124.9666135
  22.2575054  70.4065401 125.4127159  15.3886319  66.9648343 125.7519255
  16.1617195  66.4177331 125.6132131  15.7411718  67.8292593 125.9633717
  17.2271361  68.2924726 138.9586155  16.9361227  69.1970357 138.8432821
  17.8628346  68.3341253 139.6730224  18.1527568  65.6701574 135.5487514
  18.7491140  65.4457597 134.8344477  18.2102540  64.9286320 136.1512962
  17.7252597  63.1241010 123.3837705  17.9778117  62.6022531 122.6221168
  16.7877156  62.9607155 123.4864389  22.7695879  62.1276788 131.1912449
  23.5558969  61.7096211 130.8402866  23.0334584  63.0322880 131.3594097
  22.9405957  67.5649638 125.8901105  22.3051790  67.6384265 126.6022010
  22.6103363  68.1543237 125.2120185  28.1704307  62.0652021 132.0945427
  28.9029479  61.4951238 132.3283257  27.4143662  61.6773622 132.5351933
  17.4448885  65.0269116 125.5862080  17.3285143  64.3514019 126.2543165
  17.5551145  64.5401489 124.7694233  19.7880426  64.4879263 129.2908769
  19.4238634  63.9609884 130.0021691  20.6447542  64.0977732 129.1175255
  25.6929727  55.7773595 136.5540036  25.3613052  56.6469006 136.3301251
  25.0975340  55.4609879 137.2334066  19.4285913  59.5169162 124.2870118
  19.5960316  60.3849399 124.6540589  19.2383082  59.6796444 123.3631407
  22.1861246  67.9786141 135.9535948  21.8861970  68.8811180 135.8451756
  21.8412306  67.7118324 136.8057101  15.6373728  64.4299938 131.9872653
  14.7124224  64.2976152 132.1950345  15.8858141  65.2094157 132.4842595
  25.5858390  60.4968681 133.6333386  24.6775268  60.4284090 133.3392147
  25.5345986  60.9740626 134.4615211  19.4075134  61.9726820 125.2716785
  19.2874759  62.4183871 126.1102265  18.7127723  62.3212137 124.7130323
  12.9982539  64.0733212 132.8216442  13.1274920  64.3267691 133.7355854
  12.3179990  64.6660920 132.5021097  17.1682026  74.7430462 128.9206916
  17.0906056  75.6938287 128.9995397  16.5643670  74.3976334 129.5781842
  19.6599256  61.9158327 141.5768283  18.8832590  62.4752247 141.5671148
  20.2989819  62.4015110 142.0983153  27.4520037  58.6985120 135.4111260
  26.8094417  58.9917653 134.7651054  26.9474965  58.5838040 136.2164456
  25.1060200  62.4448293 126.0997119  26.0178056  62.6775680 125.9244816
  24.5969847  63.0285337 125.5372197  17.9145628  64.7243780 141.1386250
  18.6560313  65.2628824 140.8621074  17.2082614  65.3510069 141.2957802
  23.3900968  66.8672921 139.7358411  23.7984324  66.4255331 138.9913044
  22.6678229  66.2925548 139.9892604  19.7432038  61.8045528 137.1091968
  20.5893233  62.2284941 137.2526617  19.6830676  61.1479152 137.8030532
  23.7129783  67.4274111 133.4910700  23.0838645  67.5919826 132.7886768
  23.3255445  67.8415721 134.2621664  27.5919015  68.3628549 130.8455064
  26.9070053  68.7427451 130.2952097  27.6762864  68.9723876 131.5787012
  22.8931483  59.4649896 138.7673142  22.6492415  60.2191956 138.2307418
  23.1691414  59.8435244 139.6020389  24.8469946  66.0088508 137.4450408
  25.0586841  66.6520268 136.7684789  24.7999694  65.1750825 136.9772338
  22.4496175  58.6206329 134.3486980  21.5880654  58.9187583 134.6403717
  22.4758610  58.8376728 133.4168012  19.2657744  67.1648520 130.7560785
  19.7296090  67.4436223 129.9665408  19.0014543  66.2631964 130.5733876
  16.1581826  66.7120001 133.6940549  16.7283183  67.1407269 133.0558033
  16.7489937  66.4302586 134.3924734  18.2026631  63.2871672 127.5650351
  18.9050674  63.7392716 128.0324277  17.8707259  62.6455491 128.1930244
  11.9451965  61.5455225 132.8667484  11.1551018  61.8012753 132.3907595
  12.4363212  62.3603562 132.9719525  25.9615774  68.8860464 135.6172765
  26.7833218  68.4840651 135.3355447  25.9578177  68.7828698 136.5688881
  13.8966710  61.9099804 129.8250961  13.0997873  62.0218498 130.3434457
  13.6692302  62.2486456 128.9591851  19.7272378  68.4344507 137.7733475
  19.7916810  68.8964914 138.6091647  19.0183301  67.8041872 137.9015785
  10.2289667  61.7985715 135.2982475  10.4797706  62.6832725 135.5640051
  10.7649216  61.6190317 134.5257567  34.0521767  65.2299212 131.9657736
  33.2985476  64.6606610 131.8101741  34.1869308  65.1961877 132.9128371
  19.4420395  70.1012615 127.6412456  19.3066070  70.9464150 128.0697304
  19.9830208  70.3031892 126.8778390  12.8949793  67.6188053 128.2140381
  13.4074313  68.4131303 128.3645946  13.5472505  66.9214343 128.1473982
  14.7044677  70.7353809 130.2963134  14.8811306  71.6571774 130.1084118
  15.5001511  70.4212228 130.7257514  21.0688872  70.7236181 141.7712798
  20.6252726  69.9372560 141.4533702  21.7306085  70.9115332 141.1056689
  15.8275993  72.2531983 136.2973476  16.3783418  72.1249046 135.5250470
  14.9887469  72.5526872 135.9468369  23.1670110  71.0038981 139.7994199
  23.1488585  71.8247862 139.3074468  24.0890030  70.8793056 140.0244340
  19.6243164  68.5183110 140.6417708  20.1571501  67.7571399 140.4117015
  19.0957245  68.2256762 141.3841862  22.7912859  53.6243176 136.1711349
  22.4477128  54.5144818 136.0950460  23.1591821  53.4344834 135.3080934
  10.8598709  65.9476707 128.9899951  11.6973931  66.3573715 128.7733659
  11.0376977  65.0076149 128.9600145  22.7563141  63.6151787 124.6783784
  22.2409765  64.3856392 124.9172172  22.4840450  62.9416924 125.3016846
  20.3410252  58.4601488 129.7369023  19.4851849  58.0708339 129.5574661
  20.7537204  58.5393449 128.8768808  21.8709399  55.9947832 134.1360583
  21.3674195  55.9577967 133.3228388  22.1640006  56.9040574 134.1957239
  18.1152285  56.0786561 133.1426764  18.9805282  55.8829370 132.7832654
  18.1829794  55.8496913 134.0696121  27.7297416  66.3684142 126.6136958
  26.9526858  66.0295302 126.1692120  28.4088897  66.3736765 125.9391923
  22.5449445  61.4878880 126.5043566  22.2399580  61.8025029 127.3553709
  23.4979887  61.5660299 126.5470899  20.9895876  67.6469103 128.1536520
  20.4617238  66.9121862 127.8409757  20.4883379  68.4243779 127.9076488
  25.9688722  65.8418123 133.2703566  25.3112397  66.5317385 133.3583694
  26.7729122  66.2314555 133.6137552  15.7214604  58.3088769 130.5143131
  16.2958356  58.0863951 129.7816324  16.3085587  58.3777464 131.2671732
  24.7794181  64.1962496 131.3207508  25.2926063  64.8292488 131.8229217
  25.4295405  63.5963692 130.9550868  16.0484191  60.3393230 124.5339016
  15.2121503  60.6767917 124.8548291  15.9088961  60.2042210 123.5966153
  18.0237272  55.1830018 129.2418200  17.3701684  54.8679035 128.6174815
  17.9817746  54.5605759 129.9678023  19.1348477  65.4649313 121.1571493
  18.2275538  65.2338567 121.3562642  19.6319509  64.6686932 121.3445474
  22.0416556  74.1746820 124.0768179  21.3678254  74.4778517 124.6853137
  22.4282378  74.9775901 123.7273636  21.2575012  61.6711952 133.5665848
  20.3397574  61.8926899 133.4087536  21.6735156  61.7458262 132.7077555
  22.0410060  63.0703367 128.6968528  22.7881879  63.5824765 128.3875650
  22.3101649  62.7487420 129.5572922  20.3136710  65.5661908 125.6795483
  19.4047929  65.2820941 125.7767952  20.3431794  65.9860987 124.8198790
  25.5455978  69.1768498 129.4486650  25.0918305  68.3359407 129.5051841
  24.9149944  69.8129896 129.7861430  24.4888897  60.1060484 130.6787318
  23.7511654  59.5937870 131.0097560  24.7415671  59.6660865 129.8670595
  23.9888917  71.0144994 130.3836468  24.2811891  71.5750051 129.6648834
  24.4987537  71.3073555 131.1389627  24.5900524  52.8836736 131.2729087
  24.8959401  52.0234099 130.9855002  25.3153129  53.4754356 131.0728081
  10.8824880  63.2867422 129.6610685  10.6849280  62.6936783 128.9361751
  10.3271544  62.9819632 130.3786624  18.8621604  63.1790529 131.7805278
  18.9170214  62.2264365 131.7047755  18.0512806  63.3349968 132.2646576
  20.0112798  67.1070652 123.0183561  19.5732228  66.3906511 122.5589199
  20.7523239  67.3346767 122.4568653  16.8013964  61.7967588 129.5395657
  15.9881830  62.0961759 129.9460849  17.2972958  61.4023277 130.2570139
  18.9522542  71.7925345 131.4729922  18.9098721  72.0186192 130.5438454
  19.8685241  71.5588720 131.6215723  22.3988176  62.2609413 138.3710551
  22.7537563  62.4880886 139.2305017  23.0460307  62.5927790 137.7487806
  28.1285913  65.3827849 129.0759880  27.9903811  65.5729445 128.1481069
  27.7722131  66.1447232 129.5327931  16.2928039  59.3685944 135.1556892
  16.9327418  59.2274703 134.4579855  15.4605569  59.0820457 134.7795494
  28.1555292  67.4504376 134.0871151  28.5891799  67.3579665 134.9354205
  28.8686873  67.4261876 133.4491167  17.0688343  68.6688374 131.2691884
  17.8628941  68.1738694 131.0674459  16.3580035  68.1406237 130.9059590
  21.8883187  71.0506470 135.6204252  21.9420209  71.6197406 136.3881968
  21.0197969  71.2208355 135.2558289  13.3771106  62.8131456 127.3451637
  12.4468694  62.7515912 127.5621599  13.4728578  62.2907409 126.5488278
  13.2956655  59.3386269 129.9329879  13.5563473  60.2531602 129.8239039
  14.1173828  58.8710711 130.0826491  14.7681581  60.7524026 137.1028703
  15.4404634  60.5441388 136.4541352  13.9411367  60.5546112 136.6633935
  29.0170842  67.4928076 136.6204037  29.2106732  68.3973887 136.8663312
  28.9171460  67.0335495 137.4542622  20.6707153  57.3785967 139.1194364
  20.0235068  58.0775917 139.0258840  21.4408168  57.8122111 139.4870612
  24.0785951  67.6434819 142.1944917  23.9271457  67.4145371 141.2775001
  24.0690630  68.6005421 142.2076262  20.8471287  65.2166732 137.1791184
  21.7763347  65.3677892 137.0060151  20.4262317  65.3050753 136.3239830
  19.6459619  69.2417396 134.9489721  19.5070704  68.8736181 135.8215659
  18.8574215  69.7565036 134.7773679  20.2407771  74.3426493 126.2915258
  20.4159526  73.8714536 127.1060881  19.5540559  74.9692259 126.5196519
  21.1964834  68.6198999 132.3378559  20.8614666  68.5799769 133.2336209
  20.6968780  67.9543715 131.8648969  15.1709078  64.0266629 137.8631140
  15.0328876  63.2946868 138.4642679  16.0814001  63.9375529 137.5815328
  24.1324026  65.9655033 122.6115619  23.5153196  65.2401862 122.5148671
  23.6640514  66.7264394 122.2682693  17.7991378  63.7386588 137.3514820
  18.5090997  63.0979781 137.3101438  17.7560687  63.9899483 138.2741001
  25.7878157  70.6753942 140.2721399  25.7290703  69.9913162 139.6051982
  26.1897676  71.4172932 139.8202025  14.8068856  77.4915856 133.0655118
  15.0465454  78.1234380 133.7434137  13.9638052  77.1403896 133.3520477
  15.9222571  60.1840458 121.7336923  15.0452038  60.0629258 121.3699170
  16.3980324  59.3926536 121.4815812  25.7895564  68.6393526 138.5035379
  24.9022343  68.3019447 138.6261778  26.3594115  67.9076557 138.7404144
   7.4424712  64.9717617 131.8278430   8.1295751  64.6579347 131.2399446
   7.2872840  65.8758982 131.5545682  12.2459434  59.8607814 136.2563454
  12.1617622  59.2533484 135.5213864  11.4242140  60.3516832 136.2572950
  19.3196718  73.2994978 135.4696622  19.2466889  74.1049949 135.9815927
  18.8774111  73.4986944 134.6444643  19.1086497  72.5366748 128.9799444
  18.3254019  73.0788428 129.0737668  19.8079243  73.0540728 129.3793685
  22.4183148  58.3461377 131.6233649  22.9151847  57.5931340 131.3034719
  21.6470129  58.3825694 131.0576858  30.2712905  64.0501743 133.2651940
  30.2602781  64.9326458 132.8945874  29.4030284  63.6973294 133.0706478
  21.7795401  73.1981812 137.6254781  22.4923374  73.8329277 137.5530682
  21.2885430  73.2945678 136.8094783  23.5012928  67.1033065 129.1972072
  22.5669207  67.2234527 129.0276777  23.6789597  66.2005531 128.9332082
  19.0018116  60.4878760 131.3505334  18.6315904  59.9349801 132.0386239
  19.4977209  59.8836894 130.7980334  26.8885480  62.9450384 129.7322107
  27.3545932  63.7778376 129.6582409  27.3392980  62.4795366 130.4367365
  16.8307315  70.9476255 138.4460352  17.5316774  71.5812738 138.5989746
  16.3602430  71.2890987 137.6855991  24.9561711  69.2894205 126.7308259
  25.2321555  69.1750800 127.6402133  24.0866209  68.8911690 126.6920432
  24.8602142  55.3130971 133.7713008  23.9465222  55.5435198 133.9395215
  25.2895244  55.3969415 134.6227040  24.6308601  63.5020863 136.2712902
  23.9780051  63.7496770 135.6165355  25.0088981  62.6885001 135.9375379
  21.5915775  73.5380556 130.3741072  21.7738169  72.7202212 130.8368825
  22.4148761  73.7548248 129.9365962  21.9257940  72.4648741 127.6356121
  22.4545707  71.9541196 127.0226283  22.1886160  72.1491271 128.5001654
  12.4275033  70.4812611 135.3791454  13.0128470  69.7356298 135.5119358
  12.2299871  70.7916567 136.2628118  15.2813688  73.5163858 130.3953897
  14.6124063  74.0009986 129.9117937  15.1426558  73.7633078 131.3097275
   7.0192688  63.0518211 134.0995897   7.0576787  62.5181801 134.8933015
   6.5132981  62.5253416 133.4806875  19.4218957  75.5507601 136.9936555
  19.9737265  75.7139223 137.7585640  19.7625150  76.1412039 136.3216580
  24.2729831  70.3768859 142.8485209  24.8169735  70.9898817 142.3540164
  23.6916676  70.9348437 143.3652222  10.6501265  61.7782313 127.1749829
  10.9454706  60.8692991 127.1216882   9.7489301  61.7570052 126.8530831
  22.5587344  73.4989577 133.9800237  22.4338483  72.6979317 133.4711183
  23.2166435  73.9935770 133.4914207  14.1795512  59.8538309 133.1577377
  13.4582098  60.4674277 133.0184851  14.9688768  60.3896074 133.0794023
  24.6222252  71.2998597 135.6079787  23.6752588  71.1803948 135.5358114
  24.9705026  70.4121095 135.6906049  12.3789107  59.4596411 127.2989154
  12.0501813  58.5793789 127.1164260  12.7328478  59.4044079 128.1865543
  21.6268686  71.0951313 131.8084139  21.4793648  70.1668021 131.9891709
  22.4522179  71.1171404 131.3241215  15.4930930  59.7469380 127.6664632
  15.8327003  60.2755302 126.9443240  15.9403050  60.0849786 128.4423198
  25.2302808  71.9179872 132.8949012  26.1549355  71.7122733 132.7573463
  25.0618111  71.6696273 133.8038354  18.1874371  58.1306431 137.1167700
  17.8471191  57.3314244 137.5188380  17.4813377  58.4308142 136.5444533
  18.8390843  55.2155743 135.5695023  19.6616912  54.7416222 135.4473913
  19.0828906  55.9946227 136.0693709  17.4799077  58.2444002 125.8657924
  18.2007440  58.6225255 125.3621641  16.8564381  58.9632879 125.9692902
  21.6230200  58.9489151 126.8016257  21.8393814  59.8313789 126.5005085
  21.1424267  58.5575364 126.0721899  16.3629421  61.9074864 133.3787001
  16.2174002  62.2215167 134.2711283  15.8854625  62.5259764 132.8257900
  18.2225804  58.8977412 133.4267891  18.2087373  58.0018505 133.0900189
  18.9398232  58.9048076 134.0606177  20.0751935  59.3314752 135.4721018
  19.8169713  60.2531823 135.4705349  19.5436975  58.9345187 136.1621482
  25.0198124  72.4365539 128.2511104  25.1935001  71.8711962 127.4984956
  25.5127015  73.2366434 128.0690594  10.8375084  64.4480209 136.3174662
  10.2928552  65.2240017 136.4494937  11.7154433  64.7951013 136.1593784
  17.6262700  57.7791792 128.6955461  17.7478611  56.8508439 128.8946348
  17.3364743  57.7930478 127.7833776  20.4953891  55.4646703 131.8322181
  20.5175587  55.5286036 130.8774160  20.9121950  54.6251211 132.0262687
  30.8737515  65.2001962 129.8701403  31.3168661  64.4509288 129.4720527
  29.9964025  65.1912099 129.4875135  26.0073296  71.7532304 125.3508002
  26.7024201  72.3738997 125.5695317  26.3496446  70.9027655 125.6260380
  27.9064719  69.2032009 126.8795333  28.4316043  69.5419282 126.1544653
  27.8187072  68.2679025 126.6958467  19.5684768  73.1166083 139.0085209
  19.8771895  72.8715230 139.8807909  20.3660250  73.3212722 138.5204080
  19.5905380  75.2703993 131.2390586  19.1510370  74.7780371 131.9323443
  20.3413497  74.7276960 130.9982661  12.0697719  71.4615534 131.2415214
  12.8955739  71.1619305 130.8613857  11.7191771  70.6923156 131.6905003
  17.0379252  70.8142002 133.3112888  16.4159262  70.1512707 133.0115115
  17.7084119  70.8403134 132.6286535  10.2706324  69.3801860 132.2004148
   9.4338232  68.9524034 132.0188149  10.2429970  69.5734303 133.1374939
  27.5958625  69.8364913 142.1846531  26.8054169  69.8189052 141.6451030
  27.3591980  70.3753207 142.9395567  27.7156500  66.6857379 139.4979259
  27.7654505  66.5207387 140.4394782  27.6070424  65.8184638 139.1077140
  16.5992759  69.3645925 126.7871348  16.7480880  70.0481389 126.1338021
  17.4059203  69.3451015 127.3020804  25.0060263  62.6688307 140.8138566
  25.9070126  62.5294772 140.5222564  25.0808237  62.8342762 141.7536743
  19.3403068  60.0455162 139.6591752  18.4706378  60.3388728 139.3874341
  19.5762549  60.6295607 140.3799016  29.2174697  69.1054321 139.7421281
  28.9259506  69.4684301 140.5784742  28.6046829  68.3921329 139.5634613
  30.4170380  66.6707201 132.2623851  31.2517271  67.1097005 132.4261411
  30.5529508  66.1945854 131.4432097  27.4661886  64.2286936 138.2101339
  27.9416007  64.4214582 137.4020190  26.5427451  64.2846121 137.9644722
  14.3545392  65.3911103 127.7932417  14.1091434  64.4873433 127.9912627
  14.5241307  65.3928253 126.8511895  22.0442102  56.2634779 137.1757173
  22.5624046  56.9995806 136.8503661  21.6897235  56.5698772 138.0103932
  13.6241040  61.1239460 125.2918578  12.9310285  61.1983815 124.6358614
  13.3792792  60.3599804 125.8140095  22.2954696  52.6835062 132.6958069
  22.5756450  52.0158251 133.3218496  23.0805303  52.8764157 132.1832733
  20.0988165  71.8594056 124.2583096  19.5262132  72.4784243 123.8053567
  20.6720958  72.4093417 124.7923017  26.1663555  61.1052696 136.4429644
  27.1180977  61.2050793 136.4641868  25.9967005  60.3130964 136.9527729
  24.1877934  58.1908279 136.6289045  23.5927866  58.4713292 135.9335534
  23.9027631  58.6802180 137.4005786  23.3185424  72.1431206 125.3891678
  24.2516098  72.0776767 125.5924553  23.2308637  72.9787473 124.9306210
  25.9473441  71.4597076 122.3495625  25.8687073  71.1256940 123.2431383
  26.7683108  71.9518844 122.3487098  28.6451632  64.3258815 135.5571944
  28.6127952  63.3874816 135.7431628  29.2552256  64.4042852 134.8237769
  20.4834963  63.1954868 121.5999148  21.4294068  63.0661076 121.6687566
  20.1049208  62.4569530 122.0768576  28.7946121  61.1169859 135.6030227
  28.2785169  60.3328315 135.4160156  29.6786069  60.7888575 135.7676747
  26.4556848  54.8610874 131.5626040  26.2581669  54.5525963 132.4469372
  27.0656553  55.5872513 131.6923970  34.4628182  65.3874822 134.6977981
  35.1931571  65.1260110 135.2585684  33.8535128  64.6503544 134.7380049
  32.5443479  63.5282685 135.2952432  31.8176643  63.3938650 134.6868924
  32.1290766  63.8359513 136.1009150  20.3673656  67.2472614 143.0599805
  21.2876665  67.4251213 143.2539852  20.3323239  66.3028660 142.9079504
  18.6677880  61.1204845 121.5354033  17.7609336  60.8237957 121.6116747
  18.9453861  60.8234663 120.6688319   9.5855821  62.4411208 131.9853080
   9.2658605  61.5876516 131.6927454   9.0389249  62.6559786 132.7411047
  13.3635728  65.1573649 135.7022586  13.5821738  66.0890757 135.7210620
  13.7761502  64.7981623 136.4877390  20.2839946  55.6641734 127.6898275
  19.4740674  55.3188819 128.0653521  20.9724363  55.3549278 128.2785886
  22.2130494  54.7419781 129.3122571  22.7661533  55.1615235 129.9712594
  22.4500581  53.8155529 129.3545527  17.4376665  57.9791780 121.6766012
  18.2995829  58.3046678 121.9361830  17.6227009  57.1923276 121.1639078
   9.4544081  66.0614120 133.9546201   8.7607552  65.6468072 133.4416156
  10.2017072  66.1034656 133.3579620  25.5909301  56.8520306 128.8201235
  25.0107971  57.5105110 128.4379288  25.3245234  56.0297651 128.4088653
  24.0412868  56.2525364 131.0222556  24.5412646  56.3641899 130.2136875
  24.6848476  55.9486417 131.6623364  11.3680823  65.9932373 131.8312216
  11.3451511  66.0920061 130.8794099  11.6781460  66.8397524 132.1529382
  14.0268201  68.0508528 135.9458831  14.9811455  68.0192471 135.8788762
  13.8280725  67.5899152 136.7609056  14.6167583  66.6209644 138.5129628
  15.4360472  67.1153723 138.5364465  14.8904391  65.7041613 138.4847196
  24.3734179  59.0120397 127.8757584  23.4860035  59.2970047 127.6577778
  24.7888169  58.8514160 127.0284861  27.7248716  59.0366918 131.5911923
  28.5009106  59.5263370 131.8636540  26.9996850  59.4624972 132.0483792
  30.1621274  59.7494537 132.6485864  30.7565765  59.5090273 131.9379172
  30.2347858  59.0301668 133.2759400  12.3818430  73.5928148 132.9629028
  12.2472898  72.8328549 132.3967026  11.9650492  74.3169048 132.4957817
  23.5177393  68.7765071 121.9705604  24.2213243  68.9815074 122.5863259
  22.7940042  69.3441833 122.2354687  24.3475203  64.5274933 128.0907874
  24.2910405  64.9843484 127.2515506  24.9003546  63.7665617 127.9130717
  28.1580009  60.3164665 128.9157993  27.9016943  59.9161300 129.7466201
  27.5332877  61.0308458 128.7908133  32.4692347  63.0560738 131.4229285
  31.9091905  63.1253927 132.1960847  31.8635850  62.8801722 130.7028781
  15.5387556  74.4897465 133.1747471  15.4219940  75.4342897 133.0726161
  14.7180002  74.1871026 133.5633270  25.4264090  69.2147601 124.0204064
  26.2609694  68.7828799 123.8381539  25.2648433  69.0429614 124.9480958
  25.0809983  65.7179714 125.3860403  25.0258786  65.5523985 124.4448847
  24.4556038  66.4255747 125.5422593  22.3955890  68.0228626 144.7113966
  23.2647049  68.1969278 144.3500601  21.9162641  68.8423043 144.5889695
  18.3906108  55.2187823 124.9645721  18.3784778  56.1629663 125.1213992
  19.2829530  55.0357968 124.6705183  16.5642070  75.1425727 136.3903399
  17.4669317  75.1749337 136.7069894  16.3379440  74.2126178 136.4049735
  18.3195672  73.8956713 133.0513478  17.3691303  73.8958575 132.9377850
  18.6228158  73.1489448 132.5349513  22.2058227  51.8130600 129.2191658
  21.4390623  51.2589086 129.3648341  22.6168932  51.8852468 130.0805810
  34.0548365  79.7317252 134.1159240  34.6926775  79.6123999 133.4122581
  33.9369208  80.6798096 134.1747193  30.8638072  79.6844680 134.0520765
  30.5256583  79.5685745 133.1641300  31.7327840  79.2835845 134.0321771
  26.7224887  81.5380156 130.0417656  26.1589753  81.4470093 129.2733944
  26.6077282  80.7180061 130.5220149  31.3457855  80.8379532 140.0106971
  31.3346495  80.4432330 139.1387474  31.5078494  80.1045604 140.6040742
  24.2689319  83.0331348 132.8801877  25.0610611  82.6922172 132.4648176
  24.5085970  83.1426323 133.8004030  32.3024446  85.2051124 125.3532121
  31.6512426  85.7905204 124.9666135  33.0968809  85.7357319 125.4127159
  26.2280073  82.2940261 125.7519255  27.0010949  81.7469248 125.6132131
  26.5805472  83.1584510 125.9633717  28.0665116  83.6216643 138.9586155
  27.7754982  84.5262274 138.8432821  28.7022100  83.6633171 139.6730224
  28.9921323  80.9993492 135.5487514  29.5884895  80.7749514 134.8344477
  29.0496294  80.2578237 136.1512962  28.5646351  78.4532927 123.3837705
  28.8171872  77.9314448 122.6221168  27.6270910  78.2899073 123.4864389
  33.6089634  77.4568706 131.1912449  34.3952723  77.0388129 130.8402866
  33.8728338  78.3614798 131.3594097  33.7799711  82.8941556 125.8901105
  33.1445544  82.9676182 126.6022010  33.4497118  83.4835155 125.2120185
  39.0098061  77.3943939 132.0945427  39.7423233  76.8243156 132.3283257
  38.2537417  77.0065539 132.5351933  28.2842640  80.3561033 125.5862080
  28.1678898  79.6805937 126.2543165  28.3944900  79.8693407 124.7694233
  30.6274181  79.8171180 129.2908769  30.2632388  79.2901801 130.0021691
  31.4841297  79.4269649 129.1175255  36.5323481  71.1065513 136.5540036
  36.2006806  71.9760924 136.3301251  35.9369095  70.7901797 137.2334066
  30.2679668  74.8461080 124.2870118  30.4354070  75.7141316 124.6540589
  30.0776837  75.0088362 123.3631407  33.0255001  83.3078059 135.9535948
  32.7255724  84.2103098 135.8451756  32.6806060  83.0410242 136.8057101
  26.4767482  79.7591856 131.9872653  25.5517979  79.6268070 132.1950345
  26.7251896  80.5386075 132.4842595  36.4252145  75.8260599 133.6333386
  35.5169022  75.7576007 133.3392147  36.3739741  76.3032544 134.4615211
  30.2468889  77.3018737 125.2716785  30.1268514  77.7475788 126.1102265
  29.5521477  77.6504055 124.7130323  23.8376293  79.4025129 132.8216442
  23.9668675  79.6559608 133.7355854  23.1573745  79.9952837 132.5021097
  28.0075781  90.0722379 128.9206916  27.9299810  91.0230204 128.9995397
  27.4037424  89.7268252 129.5781842  30.4993011  77.2450245 141.5768283
  29.7226345  77.8044165 141.5671148  31.1383574  77.7307028 142.0983153
  38.2913791  74.0277037 135.4111260  37.6488171  74.3209571 134.7651054
  37.7868720  73.9129958 136.2164456  35.9453955  77.7740211 126.0997119
  36.8571811  78.0067597 125.9244816  35.4363602  78.3577255 125.5372197
  28.7539383  80.0535698 141.1386250  29.4954067  80.5920742 140.8621074
  28.0476368  80.6801987 141.2957802  34.2294722  82.1964838 139.7358411
  34.6378078  81.7547249 138.9913044  33.5071984  81.6217466 139.9892604
  30.5825793  77.1337445 137.1091968  31.4286988  77.5576859 137.2526617
  30.5224430  76.4771070 137.8030532  34.5523537  82.7566029 133.4910700
  33.9232400  82.9211743 132.7886768  34.1649199  83.1707639 134.2621664
  38.4312769  83.6920467 130.8455064  37.7463807  84.0719368 130.2952097
  38.5156618  84.3015794 131.5787012  33.7325238  74.7941814 138.7673142
  33.4886170  75.5483874 138.2307418  34.0085168  75.1727161 139.6020389
  35.6863701  81.3380426 137.4450408  35.8980596  81.9812186 136.7684789
  35.6393449  80.5042743 136.9772338  33.2889930  73.9498247 134.3486980
  32.4274409  74.2479500 134.6403717  33.3152364  74.1668646 133.4168012
  30.1051499  82.4940437 130.7560785  30.5689845  82.7728140 129.9665408
  29.8408297  81.5923882 130.5733876  26.9975580  82.0411919 133.6940549
  27.5676937  82.4699187 133.0558033  27.5883692  81.7594503 134.3924734
  29.0420385  78.6163590 127.5650351  29.7444428  79.0684633 128.0324277
  28.7101014  77.9747408 128.1930244  27.4900747  77.2075346 141.9401560
  26.8599407  77.8891627 142.1736957  27.3836834  77.0958428 140.9954698
  22.7845719  76.8747142 132.8667484  21.9944773  77.1304671 132.3907595
  23.2756966  77.6895480 132.9719525  36.8009529  84.2152381 135.6172765
  37.6226972  83.8132569 135.3355447  36.7971931  84.1120616 136.5688881
  24.7360464  77.2391721 129.8250961  23.9391628  77.3510416 130.3434457
  24.5086057  77.5778374 128.9591851  30.5666132  83.7636425 137.7733475
  30.6310565  84.2256832 138.6091647  29.8577056  83.1333790 137.9015785
  21.0683422  77.1277633 135.2982475  21.3191460  78.0124643 135.5640051
  21.6042970  76.9482234 134.5257567  44.8915522  80.5591130 131.9657736
  44.1379230  79.9898528 131.8101741  45.0263063  80.5253794 132.9128371
  30.2814150  85.4304532 127.6412456  30.1459824  86.2756068 128.0697304
  30.8223962  85.6323810 126.8778390  26.7681489  71.5096112 144.3026811
  26.3748435  70.9562311 144.9774455  27.5847630  71.8206691 144.6933329
  23.7343547  82.9479970 128.2140381  24.2468068  83.7423220 128.3645946
  24.3866260  82.2506261 128.1473982  25.5438432  86.0645727 130.2963134
  25.7205060  86.9863691 130.1084118  26.3395265  85.7504146 130.7257514
  29.6849450  72.9253991 141.8947068  30.4259164  73.5261144 141.8151530
  29.9167373  72.1831629 141.3365110  24.8290788  78.1110358 140.1725297
  24.7144303  77.2095616 140.4732396  23.9735306  78.3574055 139.8210114
  31.9082626  86.0528099 141.7712798  31.4646480  85.2664477 141.4533702
  32.5699840  86.2407249 141.1056689  26.6669747  87.5823900 136.2973476
  27.2177172  87.4540964 135.5250470  25.8281223  87.8818789 135.9468369
  34.0063864  86.3330899 139.7994199  33.9882339  87.1539780 139.3074468
  34.9283784  86.2084974 140.0244340  30.4636918  83.8475028 140.6417708
  30.9965255  83.0863316 140.4117015  29.9350999  83.5548680 141.3841862
  33.6306613  68.9535094 136.1711349  33.2870883  69.8436736 136.0950460
  33.9985576  68.7636752 135.3080934  21.6992464  81.2768625 128.9899951
  22.5367686  81.6865633 128.7733659  21.8770732  80.3368067 128.9600145
  33.5956896  78.9443705 124.6783784  33.0803519  79.7148310 124.9172172
  33.3234204  78.2708841 125.3016846  31.1804007  73.7893406 129.7369023
  30.3245603  73.4000256 129.5574661  31.5930959  73.8685367 128.8768808
  32.7103154  71.3239749 134.1360583  32.2067949  71.2869884 133.3228388
  33.0033760  72.2332492 134.1957239  28.9546039  71.4078479 133.1426764
  29.8199036  71.2121288 132.7832654  29.0223548  71.1788831 134.0696121
  38.5691170  81.6976060 126.6136958  37.7920613  81.3587219 126.1692120
  39.2482651  81.7028683 125.9391923  33.3843199  76.8170797 126.5043566
  33.0793335  77.1316946 127.3553709  34.3373641  76.8952217 126.5470899
  31.8289631  82.9761021 128.1536520  31.3010993  82.2413780 127.8409757
  31.3277134  83.7535697 127.9076488  36.8082477  81.1710041 133.2703566
  36.1506151  81.8609302 133.3583694  37.6122876  81.5606473 133.6137552
  26.5608359  73.6380687 130.5143131  27.1352110  73.4155868 129.7816324
  27.1479341  73.7069381 131.2671732  35.6187936  79.5254414 131.3207508
  36.1319818  80.1584406 131.8229217  36.2689160  78.9255609 130.9550868
  26.8877946  75.6685148 124.5339016  26.0515258  76.0059834 124.8548291
  26.7482715  75.5334128 123.5966153  28.8631026  70.5121936 129.2418200
  28.2095439  70.1970953 128.6174815  28.8211500  69.8897676 129.9678023
  29.9742231  80.7941231 121.1571493  29.0669293  80.5630484 121.3562642
  30.4713263  79.9978850 121.3445474  32.8810310  89.5038738 124.0768179
  32.2072009  89.8070435 124.6853137  33.2676132  90.3067818 123.7273636
  32.0968767  77.0003869 133.5665848  31.1791328  77.2218816 133.4087536
  32.5128910  77.0750180 132.7077555  32.8803814  78.3995285 128.6968528
  33.6275633  78.9116682 128.3875650  33.1495404  78.0779338 129.5572922
  31.1530465  80.8953826 125.6795483  30.2441684  80.6112859 125.7767952
  31.1825548  81.3152904 124.8198790  36.3849732  84.5060415 129.4486650
  35.9312059  83.6651325 129.5051841  35.7543699  85.1421814 129.7861430
  35.3282652  75.4352401 130.6787318  34.5905408  74.9229787 131.0097560
  35.5809425  74.9952783 129.8670595  34.8282671  86.3436912 130.3836468
  35.1205646  86.9041969 129.6648834  35.3381292  86.6365473 131.1389627
  35.4294279  68.2128653 131.2729087  35.7353156  67.3526017 130.9855002
  36.1546884  68.8046273 131.0728081  21.7218635  78.6159340 129.6610685
  21.5243035  78.0228701 128.9361751  21.1665299  78.3111550 130.3786624
  29.7015359  78.5082446 131.7805278  29.7563968  77.5556283 131.7047755
  28.8906561  78.6641885 132.2646576  30.8506552  82.4362569 123.0183561
  30.4125982  81.7198428 122.5589199  31.5916993  82.6638684 122.4568653
  27.6407719  77.1259506 129.5395657  26.8275584  77.4253677 129.9460849
  28.1366713  76.7315195 130.2570139  29.7916296  87.1217263 131.4729922
  29.7492475  87.3478109 130.5438454  30.7078995  86.8880638 131.6215723
  33.2381930  77.5901331 138.3710551  33.5931318  77.8172804 139.2305017
  33.8854061  77.9219707 137.7487806  38.9679667  80.7119766 129.0759880
  38.8297566  80.9021362 128.1481069  38.6115886  81.4739149 129.5327931
  27.1321793  74.6977862 135.1556892  27.7721173  74.5566621 134.4579855
  26.2999324  74.4112375 134.7795494  38.9949047  82.7796293 134.0871151
  39.4285553  82.6871583 134.9354205  39.7080627  82.7553794 133.4491167
  27.9082097  83.9980292 131.2691884  28.7022696  83.5030612 131.0674459
  27.1973790  83.4698155 130.9059590  32.7276942  86.3798388 135.6204252
  32.7813964  86.9489324 136.3881968  31.8591723  86.5500273 135.2558289
  24.2164861  78.1423374 127.3451637  23.2862449  78.0807829 127.5621599
  24.3122333  77.6199327 126.5488278  24.1350410  74.6678187 129.9329879
  24.3957227  75.5823520 129.8239039  24.9567582  74.2002629 130.0826491
  25.6075335  76.0815944 137.1028703  26.2798388  75.8733306 136.4541352
  24.7805122  75.8838030 136.6633935  39.8564596  82.8219994 136.6204037
  40.0500486  83.7265805 136.8663312  39.7565214  82.3627413 137.4542622
  31.5100907  72.7077885 139.1194364  30.8628822  73.4067834 139.0258840
  32.2801922  73.1414029 139.4870612  34.9179705  82.9726737 142.1944917
  34.7665211  82.7437289 141.2775001  34.9084384  83.9297338 142.2076262
  31.6865041  80.5458650 137.1791184  32.6157101  80.6969809 137.0060151
  31.2656071  80.6342670 136.3239830  30.4853373  84.5709314 134.9489721
  30.3464459  84.2028098 135.8215659  29.6967969  85.0856953 134.7773679
  31.0801525  89.6718410 126.2915258  31.2553281  89.2006454 127.1060881
  30.3934313  90.2984177 126.5196519  32.0358588  83.9490917 132.3378559
  31.7008421  83.9091687 133.2336209  31.5362534  83.2835633 131.8648969
  26.0102832  79.3558547 137.8631140  25.8722630  78.6238786 138.4642679
  26.9207756  79.2667447 137.5815328  34.9717780  81.2946951 122.6115619
  34.3546951  80.5693779 122.5148671  34.5034268  82.0556311 122.2682693
  28.6385133  79.0678506 137.3514820  29.3484752  78.4271698 137.3101438
  28.5954441  79.3191401 138.2741001  36.6271912  86.0045859 140.2721399
  36.5684458  85.3205080 139.6051982  37.0291430  86.7464849 139.8202025
  27.3514067  76.0543724 139.1710459  26.8151424  75.6034462 139.8232056
  26.7630775  76.1889633 138.4280924  25.6462610  92.8207773 133.0655118
  25.8859209  93.4526297 133.7434137  24.8031807  92.4695813 133.3520477
  26.7616326  75.5132375 121.7336923  25.8845792  75.3921176 121.3699170
  27.2374079  74.7218454 121.4815812  36.6289319  83.9685443 138.5035379
  35.7416098  83.6311365 138.6261778  37.1987870  83.2368475 138.7404144
  18.2818466  80.3009535 131.8278430  18.9689506  79.9871265 131.2399446
  18.1266595  81.2050900 131.5545682  23.0853188  75.1899732 136.2563454
  23.0011377  74.5825401 135.5213864  22.2635895  75.6808750 136.2572950
  30.1590472  88.6286896 135.4696622  30.0860644  89.4341867 135.9815927
  29.7167865  88.8278861 134.6444643  29.9480252  87.8658666 128.9799444
  29.1647774  88.4080346 129.0737668  30.6472997  88.3832645 129.3793685
  33.2576902  73.6753295 131.6233649  33.7545602  72.9223257 131.3034719
  32.4863884  73.7117612 131.0576858  41.1106659  79.3793661 133.2651940
  41.0996536  80.2618376 132.8945874  40.2424039  79.0265212 133.0706478
  32.6189156  88.5273730 137.6254781  33.3317128  89.1621195 137.5530682
  32.1279184  88.6237596 136.8094783  34.3406683  82.4324982 129.1972072
  33.4062961  82.5526445 129.0276777  34.5183351  81.5297449 128.9332082
  29.8411871  75.8170678 131.3505334  29.4709658  75.2641719 132.0386239
  30.3370963  75.2128812 130.7980334  37.7279234  78.2742302 129.7322107
  38.1939686  79.1070293 129.6582409  38.1786735  77.8087283 130.4367365
  27.6701069  86.2768173 138.4460352  28.3710529  86.9104656 138.5989746
  27.1996184  86.6182905 137.6855991  35.7955465  84.6186123 126.7308259
  36.0715309  84.5042718 127.6402133  34.9259964  84.2203608 126.6920432
  35.6995897  70.6422889 133.7713008  34.7858977  70.8727115 133.9395215
  36.1288998  70.7261333 134.6227040  35.4702355  78.8312781 136.2712902
  34.8173806  79.0788688 135.6165355  35.8482735  78.0176919 135.9375379
  32.4309529  88.8672474 130.3741072  32.6131924  88.0494130 130.8368825
  33.2542515  89.0840166 129.9365962  32.7651695  87.7940659 127.6356121
  33.2939461  87.2833114 127.0226283  33.0279914  87.4783189 128.5001654
  31.5189928  79.5732592 142.7578939  30.8430565  79.4726721 143.4281314
  32.3417562  79.4171805 143.2214936  23.2668787  85.8104528 135.3791454
  23.8522224  85.0648216 135.5119358  23.0693626  86.1208485 136.2628118
  26.1207443  88.8455776 130.3953897  25.4517818  89.3301903 129.9117937
  25.9820312  89.0924996 131.3097275  17.8586442  78.3810128 134.0995897
  17.8970542  77.8473719 134.8933015  17.3526735  77.8545334 133.4806875
  30.2612711  90.8799519 136.9936555  30.8131019  91.0431141 137.7585640
  30.6018905  91.4703957 136.3216580  25.2377204  73.2274669 137.5958440
  25.3018531  74.0889500 137.1835837  25.1744325  72.6148671 136.8630798
  24.7129477  75.2997801 141.2431474  25.3401516  74.9174879 141.8568998
  23.8557396  75.0812003 141.6087166  35.1123586  85.7060777 142.8485209
  35.6563490  86.3190735 142.3540164  34.5310430  86.2640355 143.3652222
  21.4895020  77.1074231 127.1749829  21.7848461  76.1984909 127.1216882
  20.5883056  77.0861970 126.8530831  33.3981099  88.8281495 133.9800237
  33.2732238  88.0271234 133.4711183  34.0560190  89.3227688 133.4914207
  25.0189267  75.1830227 133.1577377  24.2975853  75.7966195 133.0184851
  25.8082523  75.7187992 133.0794023  35.4616007  86.6290515 135.6079787
  34.5146342  86.5095866 135.5358114  35.8098780  85.7413013 135.6906049
  27.8215580  72.5184654 139.4318029  28.3449982  72.7646950 140.1944338
  27.6027914  73.3504688 139.0121166  23.2182861  74.7888328 127.2989154
  22.8895567  73.9085707 127.1164260  23.5722232  74.7335997 128.1865543
  32.4662440  86.4243231 131.8084139  32.3187403  85.4959938 131.9891709
  33.2915934  86.4463322 131.3241215  26.3324684  75.0761298 127.6664632
  26.6720757  75.6047219 126.9443240  26.7796805  75.4141704 128.4423198
  36.0696562  87.2471790 132.8949012  36.9943110  87.0414651 132.7573463
  35.9011865  86.9988191 133.8038354  29.0268125  73.4598349 137.1167700
  28.6864946  72.6606162 137.5188380  28.3207132  73.7600060 136.5444533
  29.6784597  70.5447661 135.5695023  30.5010666  70.0708139 135.4473913
  29.9222661  71.3238145 136.0693709  28.3192832  73.5735920 125.8657924
  29.0401194  73.9517172 125.3621641  27.6958136  74.2924796 125.9692902
  32.4623955  74.2781069 126.8016257  32.6787569  75.1605706 126.5005085
  31.9818022  73.8867282 126.0721899  27.2023176  77.2366782 133.3787001
  27.0567757  77.5507085 134.2711283  26.7248380  77.8551682 132.8257900
  29.0619559  74.2269330 133.4267891  29.0481128  73.3310423 133.0900189
  29.7791987  74.2339994 134.0606177  30.9145689  74.6606670 135.4721018
  30.6563467  75.5823741 135.4705349  30.3830730  74.2637105 136.1621482
  35.8591878  87.7657457 128.2511104  36.0328756  87.2003880 127.4984956
  36.3520769  88.5658352 128.0690594  21.6768838  79.7772126 136.3174662
  21.1322306  80.5531934 136.4494937  22.5548188  80.1242931 136.1593784
  28.4656455  73.1083710 128.6955461  28.5872366  72.1800356 128.8946348
  28.1758497  73.1222396 127.7833776  31.3347645  70.7938621 131.8322181
  31.3569342  70.8577954 130.8774160  31.7515704  69.9543129 132.0262687
  41.7131269  80.5293880 129.8701403  42.1562415  79.7801205 129.4720527
  40.8357780  80.5204016 129.4875135  36.8467051  87.0824222 125.3508002
  37.5417955  87.7030914 125.5695317  37.1890201  86.2319573 125.6260380
  22.4634860  78.9042022 139.2104819  21.7216596  79.0524658 139.7969450
  22.1427604  79.1650288 138.3471569  38.7458474  84.5323927 126.8795333
  39.2709798  84.8711200 126.1544653  38.6580826  83.5970942 126.6958467
  30.4078523  88.4458001 139.0085209  30.7165649  88.2007147 139.8807909
  31.2054005  88.6504639 138.5204080  30.4299135  90.5995910 131.2390586
  29.9904125  90.1072289 131.9323443  31.1807252  90.0568878 130.9982661
  22.9091474  86.7907451 131.2415214  23.7349494  86.4911223 130.8613857
  22.5585526  86.0215074 131.6905003  27.8773007  86.1433919 133.3112888
  27.2553016  85.4804624 133.0115115  28.5477874  86.1695051 132.6286535
  21.1100079  84.7093778 132.2004148  20.2731987  84.2815952 132.0188149
  21.0823724  84.9026221 133.1374939  27.9497534  74.6215707 142.9045394
  27.9985690  75.4977830 142.5223163  28.4920048  74.0793101 142.3317037
  38.4352380  85.1656831 142.1846531  37.6447924  85.1480970 141.6451030
  38.1985735  85.7045124 142.9395567  38.5550255  82.0149297 139.4979259
  38.6048260  81.8499305 140.4394782  38.4464178  81.1476556 139.1077140
  27.4386514  84.6937843 126.7871348  27.5874634  85.3773307 126.1338021
  28.2452957  84.6742933 127.3020804  35.8454017  77.9980225 140.8138566
  36.7463880  77.8586690 140.5222564  35.9201992  78.1634680 141.7536743
  30.1796823  75.3747080 139.6591752  29.3100132  75.6680646 139.3874341
  30.4156303  75.9587525 140.3799016  40.0568452  84.4346239 139.7421281
  39.7653260  84.7976219 140.5784742  39.4440583  83.7213247 139.5634613
  41.2564134  81.9999118 132.2623851  42.0911026  82.4388922 132.4261411
  41.3923263  81.5237772 131.4432097  38.3055640  79.5578853 138.2101339
  38.7809762  79.7506500 137.4020190  37.3821205  79.6138039 137.9644722
  25.1939147  80.7203020 127.7932417  24.9485189  79.8165350 127.9912627
  25.3635061  80.7220171 126.8511895  32.8835857  71.5926697 137.1757173
  33.4017800  72.3287724 136.8503661  32.5290989  71.8990690 138.0103932
  24.4634794  76.4531378 125.2918578  23.7704039  76.5275733 124.6358614
  24.2186546  75.6891722 125.8140095  33.1348451  68.0126979 132.6958069
  33.4150204  67.3450168 133.3218496  33.9199058  68.2056075 132.1832733
  30.9381919  87.1885973 124.2583096  30.3655886  87.8076160 123.8053567
  31.5114713  87.7385335 124.7923017  37.0057309  76.4344613 136.4429644
  37.9574732  76.5342711 136.4641868  36.8360759  75.6422882 136.9527729
  35.0271689  73.5200197 136.6289045  34.4321621  73.8005209 135.9335534
  34.7421385  74.0094097 137.4005786  34.1579179  87.4723123 125.3891678
  35.0909852  87.4068685 125.5924553  34.0702392  88.3079390 124.9306210
  36.7867196  86.7888994 122.3495625  36.7080827  86.4548857 123.2431383
  37.6076862  87.2810762 122.3487098  39.4845387  79.6550733 135.5571944
  39.4521707  78.7166734 135.7431628  40.0946010  79.7334770 134.8237769
  31.3228718  78.5246786 121.5999148  32.2687822  78.3952994 121.6687566
  30.9442963  77.7861448 122.0768576  39.6339875  76.4461776 135.6030227
  39.1178924  75.6620233 135.4160156  40.5179824  76.1180493 135.7676747
  37.2950602  70.1902792 131.5626040  37.0975423  69.8817880 132.4469372
  37.9050308  70.9164431 131.6923970  45.3021937  80.7166740 134.6977981
  46.0325325  80.4552028 135.2585684  44.6928882  79.9795462 134.7380049
  43.3837234  78.8574602 135.2952432  42.6570397  78.7230567 134.6868924
  42.9684521  79.1651431 136.1009150  31.2067410  82.5764532 143.0599805
  32.1270420  82.7543131 143.2539852  31.1716993  81.6320577 142.9079504
  29.5071635  76.4496762 121.5354033  28.6003090  76.1529875 121.6116747
  29.7847616  76.1526580 120.6688319  20.4249575  77.7703126 131.9853080
  20.1052360  76.9168434 131.6927454  19.8783003  77.9851704 132.7411047
  24.2029483  80.4865567 135.7022586  24.4215493  81.4182675 135.7210620
  24.6155257  80.1273541 136.4877390  31.1233701  70.9933652 127.6898275
  30.3134429  70.6480737 128.0653521  31.8118118  70.6841196 128.2785886
  33.0524249  70.0711699 129.3122571  33.6055287  70.4907152 129.9712594
  33.2894335  69.1447447 129.3545527  29.0757348  76.0598773 145.0925335
  28.9754075  77.0093129 145.0237426  28.8578890  75.7317011 144.2201405
  28.2770419  73.3083698 121.6766012  29.1389583  73.6338596 121.9361830
  28.4620764  72.5215193 121.1639078  20.2937835  81.3906037 133.9546201
  19.6001307  80.9759990 133.4416156  21.0410826  81.4326574 133.3579620
  36.4303056  72.1812224 128.8201235  35.8501725  72.8397028 128.4379288
  36.1638989  71.3589569 128.4088653  34.8806622  71.5817282 131.0222556
  35.3806401  71.6933816 130.2136875  35.5242230  71.2778335 131.6623364
  28.9388618  79.4895911 143.9090397  28.4555700  80.2896271 144.1154286
  29.0249557  79.5003856 142.9557841  22.2074578  81.3224291 131.8312216
  22.1845266  81.4211978 130.8794099  22.5175214  82.1689442 132.1529382
  24.8661956  83.3800446 135.9458831  25.8205209  83.3484388 135.8788762
  24.6674479  82.9191070 136.7609056  25.4561338  81.9501562 138.5129628
  26.2754227  82.4445641 138.5364465  25.7298145  81.0333530 138.4847196
  35.2127934  74.3412314 127.8757584  34.3253789  74.6261965 127.6577778
  35.6281923  74.1806078 127.0284861  38.5642470  74.3658835 131.5911923
  39.3402860  74.8555288 131.8636540  37.8390604  74.7916890 132.0483792
  41.0015029  75.0786455 132.6485864  41.5959520  74.8382191 131.9379172
  41.0741612  74.3593585 133.2759400  23.2212184  88.9220066 132.9629028
  23.0866652  88.1620466 132.3967026  22.8044247  89.6460965 132.4957817
  34.3571147  84.1056989 121.9705604  35.0606998  84.3106992 122.5863259
  33.6333796  84.6733751 122.2354687  35.1868958  79.8566850 128.0907874
  35.1304159  80.3135402 127.2515506  35.7397300  79.0957535 127.9130717
  38.9973764  75.6456582 128.9157993  38.7410698  75.2453218 129.7466201
  38.3726632  76.3600376 128.7908133  43.3086101  78.3852655 131.4229285
  42.7485659  78.4545845 132.1960847  42.7029605  78.2093640 130.7028781
  26.3781310  89.8189383 133.1747471  26.2613694  90.7634815 133.0726161
  25.5573757  89.5162944 133.5633270  36.2657845  84.5439518 124.0204064
  37.1003449  84.1120717 123.8381539  36.1042188  84.3721532 124.9480958
  35.9203737  81.0471632 125.3860403  35.8652541  80.8815903 124.4448847
  35.2949792  81.7547665 125.5422593  20.7096252  76.2839696 139.2121825
  21.3555116  75.7738650 139.7009050  20.5013403  77.0208378 139.7865251
  33.2349644  83.3520543 144.7113966  34.1040804  83.5261196 144.3500601
  32.7556396  84.1714960 144.5889695  29.2299862  70.5479741 124.9645721
  29.2178532  71.4921581 125.1213992  30.1223284  70.3649886 124.6705183
  27.4035824  90.4717644 136.3903399  28.3063071  90.5041255 136.7069894
  27.1773194  89.5418095 136.4049735  29.1589426  89.2248631 133.0513478
  28.2085057  89.2250493 132.9377850  29.4621913  88.4781366 132.5349513
  33.0451982  67.1422517 129.2191658  32.2784378  66.5881004 129.3648341
  33.4562687  67.2144386 130.0805810  25.0493743  73.4307313 143.3096839
  25.9125205  73.0744118 143.5200164  24.4759154  73.0921208 143.9972244
  44.8942120  95.0609169 134.1159240  45.5320530  94.9415917 133.4122581
  44.7762963  96.0090013 134.1747193  41.7031826  95.0136598 134.0520765
  41.3650338  94.8977662 133.1641300  42.5721594  94.6127763 134.0321771
  37.5618642  96.8672074 130.0417656  36.9983507  96.7762011 129.2733944
  37.4471037  96.0471978 130.5220149  42.1851609  96.1671449 140.0106971
  42.1740250  95.7724248 139.1387474  42.3472249  95.4337522 140.6040742
  35.1083074  98.3623266 132.8801877  35.9004366  98.0214090 132.4648176
  35.3479724  98.4718241 133.8004030  43.1418201 100.5343042 125.3532121
  42.4906180 101.1197122 124.9666135  43.9362563 101.0649237 125.4127159
  37.0673828  97.6232179 125.7519255  37.8404704  97.0761166 125.6132131
  37.4199227  98.4876428 125.9633717  38.9058870  98.9508561 138.9586155
  38.6148736  99.8554192 138.8432821  39.5415855  98.9925089 139.6730224
  39.8315077  96.3285410 135.5487514  40.4278649  96.1041432 134.8344477
  39.8890049  95.5870155 136.1512962  39.4040106  93.7824845 123.3837705
  39.6565626  93.2606366 122.6221168  38.4664665  93.6190990 123.4864389
  44.4483388  92.7860623 131.1912449  45.2346478  92.3680046 130.8402866
  44.7122093  93.6906715 131.3594097  44.6193466  98.2233474 125.8901105
  43.9839299  98.2968100 126.6022010  44.2890872  98.8127072 125.2120185
  49.8491816  92.7235856 132.0945427  50.5816987  92.1535073 132.3283257
  49.0931171  92.3357457 132.5351933  39.1236394  95.6852951 125.5862080
  39.0072652  95.0097854 126.2543165  39.2338654  95.1985325 124.7694233
  41.4667935  95.1463098 129.2908769  41.1026143  94.6193719 130.0021691
  42.3235051  94.7561567 129.1175255  47.3717236  86.4357431 136.5540036
  47.0400561  87.3052842 136.3301251  46.7762849  86.1193715 137.2334066
  41.1073422  90.1752998 124.2870118  41.2747825  91.0433234 124.6540589
  40.9170591  90.3380279 123.3631407  43.8648755  98.6369977 135.9535948
  43.5649479  99.5395015 135.8451756  43.5199815  98.3702160 136.8057101
  37.3161237  95.0883773 131.9872653  36.3911733  94.9559988 132.1950345
  37.5645650  95.8677993 132.4842595  47.2645899  91.1552517 133.6333386
  46.3562777  91.0867925 133.3392147  47.2133495  91.6324462 134.4615211
  41.0862643  92.6310655 125.2716785  40.9662268  93.0767706 126.1102265
  40.3915232  92.9795973 124.7130323  34.6770048  94.7317047 132.8216442
  34.8062429  94.9851526 133.7355854  33.9967499  95.3244755 132.5021097
  38.8469535 105.4014297 128.9206916  38.7693565 106.3522122 128.9995397
  38.2431179 105.0560169 129.5781842  41.3386765  92.5742162 141.5768283
  40.5620099  93.1336082 141.5671148  41.9777328  93.0598945 142.0983153
  49.1307546  89.3568955 135.4111260  48.4881926  89.6501488 134.7651054
  48.6262474  89.2421875 136.2164456  46.7847709  93.1032128 126.0997119
  47.6965565  93.3359515 125.9244816  46.2757356  93.6869173 125.5372197
  39.5933137  95.3827616 141.1386250  40.3347822  95.9212660 140.8621074
  38.8870123  96.0093904 141.2957802  45.0688477  97.5256756 139.7358411
  45.4771833  97.0839167 138.9913044  44.3465738  96.9509384 139.9892604
  41.4219547  92.4629363 137.1091968  42.2680742  92.8868776 137.2526617
  41.3618185  91.8062987 137.8030532  45.3917292  98.0857947 133.4910700
  44.7626154  98.2503661 132.7886768  45.0042954  98.4999556 134.2621664
  49.2706523  99.0212385 130.8455064  48.5857562  99.4011286 130.2952097
  49.3550373  99.6307711 131.5787012  44.5718992  90.1233731 138.7673142
  44.3279924  90.8775792 138.2307418  44.8478923  90.5019079 139.6020389
  46.5257455  96.6672344 137.4450408  46.7374350  97.3104104 136.7684789
  46.4787203  95.8334660 136.9772338  44.1283684  89.2790164 134.3486980
  43.2668163  89.5771418 134.6403717  44.1546119  89.4960563 133.4168012
  40.9445253  97.8232355 130.7560785  41.4083599  98.1020058 129.9665408
  40.6802052  96.9215799 130.5733876  37.8369335  97.3703836 133.6940549
  38.4070692  97.7991105 133.0558033  38.4277446  97.0886421 134.3924734
  39.8814140  93.9455507 127.5650351  40.5838183  94.3976551 128.0324277
  39.5494768  93.3039326 128.1930244  38.3294501  92.5367264 141.9401560
  37.6993162  93.2183545 142.1736957  38.2230589  92.4250345 140.9954698
  33.6239473  92.2039060 132.8667484  32.8338527  92.4596588 132.3907595
  34.1150721  93.0187398 132.9719525  47.6403283  99.5444299 135.6172765
  48.4620727  99.1424486 135.3355447  47.6365686  99.4412533 136.5688881
  35.5754219  92.5683639 129.8250961  34.7785382  92.6802333 130.3434457
  35.3479811  92.9070291 128.9591851  41.4059886  99.0928342 137.7733475
  41.4704319  99.5548750 138.6091647  40.6970810  98.4625707 137.9015785
  31.9077176  92.4569550 135.2982475  32.1585215  93.3416560 135.5640051
  32.4436725  92.2774152 134.5257567  55.7309276  95.8883048 131.9657736
  54.9772984  95.3190446 131.8101741  55.8656817  95.8545712 132.9128371
  41.1207904 100.7596450 127.6412456  40.9853579 101.6047986 128.0697304
  41.6617717 100.9615728 126.8778390  37.6075244  86.8388030 144.3026811
  37.2142189  86.2854228 144.9774455  38.4241384  87.1498608 144.6933329
  34.5737302  98.2771888 128.2140381  35.0861822  99.0715138 128.3645946
  35.2260014  97.5798178 128.1473982  36.3832186 101.3937644 130.2963134
  36.5598815 102.3155609 130.1084118  37.1789020 101.0796063 130.7257514
  40.5243205  88.2545909 141.8947068  41.2652918  88.8553062 141.8151530
  40.7561128  87.5123547 141.3365110  35.6684543  93.4402276 140.1725297
  35.5538058  92.5387533 140.4732396  34.8129061  93.6865973 139.8210114
  42.7476381 101.3820016 141.7712798  42.3040235 100.5956395 141.4533702
  43.4093594 101.5699167 141.1056689  37.5063502 102.9115818 136.2973476
  38.0570927 102.7832881 135.5250470  36.6674978 103.2110707 135.9468369
  44.8457619 101.6622816 139.7994199  44.8276094 102.4831697 139.3074468
  45.7677539 101.5376892 140.0244340  41.3030673  99.1766946 140.6417708
  41.8359010  98.4155234 140.4117015  40.7744754  98.8840598 141.3841862
  44.4700368  84.2827012 136.1711349  44.1264637  85.1728653 136.0950460
  44.8379330  84.0928669 135.3080934  32.5386218  96.6060542 128.9899951
  33.3761440  97.0157551 128.7733659  32.7164486  95.6659984 128.9600145
  44.4350650  94.2735623 124.6783784  43.9197274  95.0440227 124.9172172
  44.1627959  93.6000759 125.3016846  42.0197761  89.1185324 129.7369023
  41.1639358  88.7292174 129.5574661  42.4324713  89.1977284 128.8768808
  43.5496908  86.6531667 134.1360583  43.0461704  86.6161802 133.3228388
  43.8427515  87.5624410 134.1957239  39.7939794  86.7370397 133.1426764
  40.6592791  86.5413205 132.7832654  39.8617303  86.5080748 134.0696121
  49.4084925  97.0267978 126.6136958  48.6314367  96.6879137 126.1692120
  50.0876406  97.0320601 125.9391923  44.2236954  92.1462715 126.5043566
  43.9187089  92.4608864 127.3553709  45.1767396  92.2244135 126.5470899
  42.6683385  98.3052938 128.1536520  42.1404747  97.5705698 127.8409757
  42.1670888  99.0827615 127.9076488  47.6476231  96.5001959 133.2703566
  46.9899906  97.1901220 133.3583694  48.4516631  96.8898391 133.6137552
  37.4002113  88.9672605 130.5143131  37.9745865  88.7447786 129.7816324
  37.9873096  89.0361299 131.2671732  46.4581690  94.8546331 131.3207508
  46.9713572  95.4876323 131.8229217  47.1082914  94.2547527 130.9550868
  37.7271700  90.9977066 124.5339016  36.8909012  91.3351752 124.8548291
  37.5876470  90.8626045 123.5966153  39.7024781  85.8413853 129.2418200
  39.0489193  85.5262871 128.6174815  39.6605255  85.2189594 129.9678023
  40.8135986  96.1233149 121.1571493  39.9063047  95.8922402 121.3562642
  41.3107018  95.3270768 121.3445474  43.7204065 104.8330656 124.0768179
  43.0465763 105.1362352 124.6853137  44.1069886 105.6359736 123.7273636
  42.9362521  92.3295787 133.5665848  42.0185083  92.5510734 133.4087536
  43.3522665  92.4042097 132.7077555  43.7197569  93.7287203 128.6968528
  44.4669388  94.2408600 128.3875650  43.9889158  93.4071255 129.5572922
  41.9924219  96.2245743 125.6795483  41.0835438  95.9404776 125.7767952
  42.0219303  96.6444822 124.8198790  47.2243486  99.8352333 129.4486650
  46.7705814  98.9943243 129.5051841  46.5937453 100.4713731 129.7861430
  46.1676406  90.7644319 130.6787318  45.4299163  90.2521705 131.0097560
  46.4203180  90.3244701 129.8670595  45.6676426 101.6728830 130.3836468
  45.9599400 102.2333887 129.6648834  46.1775046 101.9657391 131.1389627
  46.2688033  83.5420571 131.2729087  46.5746910  82.6817934 130.9855002
  46.9940638  84.1338191 131.0728081  32.5612389  93.9451258 129.6610685
  32.3636789  93.3520618 128.9361751  32.0059053  93.6403468 130.3786624
  40.5409113  93.8374364 131.7805278  40.5957723  92.8848200 131.7047755
  39.7300315  93.9933803 132.2646576  41.6900307  97.7654487 123.0183561
  41.2519737  97.0490346 122.5589199  42.4310748  97.9930602 122.4568653
  38.4801473  92.4551424 129.5395657  37.6669339  92.7545594 129.9460849
  38.9760467  92.0607113 130.2570139  40.6310051 102.4509181 131.4729922
  40.5886230 102.6770027 130.5438454  41.5472750 102.2172555 131.6215723
  44.0775685  92.9193248 138.3710551  44.4325072  93.1464721 139.2305017
  44.7247816  93.2511625 137.7487806  49.8073422  96.0411684 129.0759880
  49.6691320  96.2313280 128.1481069  49.4509640  96.8031067 129.5327931
  37.9715548  90.0269779 135.1556892  38.6114927  89.8858538 134.4579855
  37.1393078  89.7404293 134.7795494  49.8342801  98.1088211 134.0871151
  50.2679308  98.0163500 134.9354205  50.5474382  98.0845712 133.4491167
  38.7475852  99.3272210 131.2691884  39.5416450  98.8322530 131.0674459
  38.0367544  98.7990073 130.9059590  43.5670696 101.7090305 135.6204252
  43.6207718 102.2781242 136.3881968  42.6985478 101.8792190 135.2558289
  35.0558615  93.4715291 127.3451637  34.1256203  93.4099747 127.5621599
  35.1516087  92.9491244 126.5488278  34.9744164  89.9970104 129.9329879
  35.2350982  90.9115438 129.8239039  35.7961337  89.5294547 130.0826491
  36.4469090  91.4107861 137.1028703  37.1192143  91.2025224 136.4541352
  35.6198876  91.2129947 136.6633935  50.6958351  98.1511912 136.6204037
  50.8894241  99.0557722 136.8663312  50.5958969  97.6919331 137.4542622
  42.3494662  88.0369802 139.1194364  41.7022577  88.7359752 139.0258840
  43.1195677  88.4705946 139.4870612  45.7573460  98.3018655 142.1944917
  45.6058966  98.0729206 141.2775001  45.7478139  99.2589256 142.2076262
  42.5258796  95.8750567 137.1791184  43.4550856  96.0261727 137.0060151
  42.1049826  95.9634588 136.3239830  41.3247128  99.9001232 134.9489721
  41.1858213  99.5320016 135.8215659  40.5361724 100.4148871 134.7773679
  41.9195280 105.0010328 126.2915258  42.0947035 104.5298371 127.1060881
  41.2328068 105.6276094 126.5196519  42.8752343  99.2782834 132.3378559
  42.5402175  99.2383604 133.2336209  42.3756289  98.6127550 131.8648969
  36.8496587  94.6850464 137.8631140  36.7116385  93.9530703 138.4642679
  37.7601510  94.5959365 137.5815328  45.8111534  96.6238869 122.6115619
  45.1940705  95.8985697 122.5148671  45.3428023  97.3848229 122.2682693
  39.4778887  94.3970424 137.3514820  40.1878506  93.7563616 137.3101438
  39.4348196  94.6483319 138.2741001  47.4665666 101.3337777 140.2721399
  47.4078212 100.6496997 139.6051982  47.8685185 102.0756767 139.8202025
  38.1907821  91.3835642 139.1710459  37.6545178  90.9326380 139.8232056
  37.6024530  91.5181550 138.4280924  36.4856365 108.1499691 133.0655118
  36.7252963 108.7818215 133.7434137  35.6425561 107.7987731 133.3520477
  37.6010080  90.8424293 121.7336923  36.7239547  90.7213094 121.3699170
  38.0767833  90.0510371 121.4815812  47.4683073  99.2977361 138.5035379
  46.5809852  98.9603283 138.6261778  48.0381624  98.5660392 138.7404144
  29.1212221  95.6301453 131.8278430  29.8083260  95.3163183 131.2399446
  28.9660349  96.5342817 131.5545682  33.9246943  90.5191649 136.2563454
  33.8405131  89.9117319 135.5213864  33.1029649  91.0100668 136.2572950
  40.9984227 103.9578813 135.4696622  40.9254398 104.7633785 135.9815927
  40.5561620 104.1570779 134.6444643  40.7874006 103.1950583 128.9799444
  40.0041528 103.7372264 129.0737668  41.4866752 103.7124563 129.3793685
  44.0970657  89.0045213 131.6233649  44.5939356  88.2515175 131.3034719
  43.3257638  89.0409529 131.0576858  51.9500414  94.7085578 133.2651940
  51.9390290  95.5910294 132.8945874  51.0817793  94.3557129 133.0706478
  43.4582910 103.8565647 137.6254781  44.1710883 104.4913112 137.5530682
  42.9672939 103.9529513 136.8094783  45.1800437  97.7616900 129.1972072
  44.2456716  97.8818363 129.0276777  45.3577106  96.8589367 128.9332082
  40.6805625  91.1462596 131.3505334  40.3103413  90.5933636 132.0386239
  41.1764718  90.5420729 130.7980334  48.5672989  93.6034219 129.7322107
  49.0333441  94.4362211 129.6582409  49.0180489  93.1379201 130.4367365
  38.5094824 101.6060091 138.4460352  39.2104283 102.2396574 138.5989746
  38.0389939 101.9474822 137.6855991  46.6349220  99.9478041 126.7308259
  46.9109064  99.8334635 127.6402133  45.7653718  99.5495525 126.6920432
  46.5389651  85.9714806 133.7713008  45.6252731  86.2019033 133.9395215
  46.9682753  86.0553250 134.6227040  46.3096110  94.1604698 136.2712902
  45.6567560  94.4080606 135.6165355  46.6876490  93.3468836 135.9375379
  43.2703284 104.1964391 130.3741072  43.4525678 103.3786047 130.8368825
  44.0936270 104.4132084 129.9365962  43.6045449 103.1232577 127.6356121
  44.1333216 102.6125031 127.0226283  43.8673669 102.8075107 128.5001654
  42.3583683  94.9024509 142.7578939  41.6824320  94.8018639 143.4281314
  43.1811317  94.7463723 143.2214936  34.1062542 101.1396446 135.3791454
  34.6915979 100.3940134 135.5119358  33.9087380 101.4500403 136.2628118
  36.9601197 104.1747693 130.3953897  36.2911572 104.6593821 129.9117937
  36.8214067 104.4216914 131.3097275  28.6980197  93.7102046 134.0995897
  28.7364296  93.1765637 134.8933015  28.1920489  93.1837252 133.4806875
  41.1006466 106.2091437 136.9936555  41.6524774 106.3723058 137.7585640
  41.4412659 106.7995875 136.3216580  36.0770959  88.5566587 137.5958440
  36.1412285  89.4181418 137.1835837  36.0138079  87.9440588 136.8630798
  35.5523231  90.6289719 141.2431474  36.1795270  90.2466796 141.8568998
  34.6951150  90.4103921 141.6087166  45.9517340 101.0352694 142.8485209
  46.4957244 101.6482653 142.3540164  45.3704185 101.5932273 143.3652222
  32.3288774  92.4366148 127.1749829  32.6242215  91.5276827 127.1216882
  31.4276810  92.4153888 126.8530831  44.2374853 104.1573412 133.9800237
  44.1125992 103.3563152 133.4711183  44.8953944 104.6519606 133.4914207
  35.8583021  90.5122145 133.1577377  35.1369607  91.1258113 133.0184851
  36.6476277  91.0479910 133.0794023  46.3009761 101.9582432 135.6079787
  45.3540097 101.8387784 135.5358114  46.6492535 101.0704930 135.6906049
  38.6609335  87.8476571 139.4318029  39.1843737  88.0938868 140.1944338
  38.4421668  88.6796606 139.0121166  34.0576616  90.1180246 127.2989154
  33.7289322  89.2377625 127.1164260  34.4115987  90.0627915 128.1865543
  43.3056195 101.7535149 131.8084139  43.1581157 100.8251856 131.9891709
  44.1309688 101.7755239 131.3241215  37.1718439  90.4053216 127.6664632
  37.5114511  90.9339137 126.9443240  37.6190559  90.7433622 128.4423198
  46.9090317 102.5763707 132.8949012  47.8336864 102.3706569 132.7573463
  46.7405620 102.3280109 133.8038354  39.8661880  88.7890266 137.1167700
  39.5258700  87.9898079 137.5188380  39.1600886  89.0891977 136.5444533
  40.5178352  85.8739579 135.5695023  41.3404421  85.4000057 135.4473913
  40.7616415  86.6530063 136.0693709  39.1586586  88.9027837 125.8657924
  39.8794949  89.2809090 125.3621641  38.5351890  89.6216714 125.9692902
  43.3017709  89.6072986 126.8016257  43.5181323  90.4897624 126.5005085
  42.8211776  89.2159200 126.0721899  38.0416930  92.5658700 133.3787001
  37.8961511  92.8799003 134.2711283  37.5642134  93.1843600 132.8257900
  39.9013313  89.5561247 133.4267891  39.8874882  88.6602341 133.0900189
  40.6185741  89.5631911 134.0606177  41.7539444  89.9898588 135.4721018
  41.4957222  90.9115658 135.4705349  41.2224484  89.5929022 136.1621482
  46.6985633 103.0949375 128.2511104  46.8722510 102.5295797 127.4984956
  47.1914524 103.8950270 128.0690594  32.5162593  95.1064044 136.3174662
  31.9716061  95.8823852 136.4494937  33.3941942  95.4534848 136.1593784
  39.3050209  88.4375628 128.6955461  39.4266120  87.5092274 128.8946348
  39.0152252  88.4514314 127.7833776  42.1741400  86.1230538 131.8322181
  42.1963096  86.1869871 130.8774160  42.5909459  85.2835047 132.0262687
  52.5525024  95.8585798 129.8701403  52.9956170  95.1093123 129.4720527
  51.6751534  95.8495934 129.4875135  47.6860805 102.4116139 125.3508002
  48.3811710 103.0322832 125.5695317  48.0283955 101.5611490 125.6260380
  33.3028614  94.2333940 139.2104819  32.5610350  94.3816576 139.7969450
  32.9821359  94.4942206 138.3471569  49.5852228  99.8615845 126.8795333
  50.1103552 100.2003118 126.1544653  49.4974581  98.9262860 126.6958467
  41.2472277 103.7749918 139.0085209  41.5559404 103.5299065 139.8807909
  42.0447759 103.9796557 138.5204080  41.2692889 105.9287828 131.2390586
  40.8297879 105.4364207 131.9323443  42.0201006 105.3860796 130.9982661
  33.7485228 102.1199369 131.2415214  34.5743248 101.8203141 130.8613857
  33.3979280 101.3506991 131.6905003  38.7166761 101.4725837 133.3112888
  38.0946771 100.8096542 133.0115115  39.3871628 101.4986969 132.6286535
  31.9493833 100.0385695 132.2004148  31.1125741  99.6107870 132.0188149
  31.9217479 100.2318139 133.1374939  38.7891289  89.9507625 142.9045394
  38.8379444  90.8269748 142.5223163  39.3313803  89.4085018 142.3317037
  49.2746134 100.4948748 142.1846531  48.4841678 100.4772887 141.6451030
  49.0379489 101.0337042 142.9395567  49.3944009  97.3441215 139.4979259
  49.4442014  97.1791222 140.4394782  49.2857933  96.4768474 139.1077140
  38.2780268 100.0229760 126.7871348  38.4268389 100.7065225 126.1338021
  39.0846712 100.0034851 127.3020804  46.6847772  93.3272143 140.8138566
  47.5857635  93.1878608 140.5222564  46.7595746  93.4926598 141.7536743
  41.0190577  90.7038998 139.6591752  40.1493887  90.9972564 139.3874341
  41.2550058  91.2879443 140.3799016  50.8962206  99.7638156 139.7421281
  50.6047015 100.1268137 140.5784742  50.2834338  99.0505165 139.5634613
  52.0957889  97.3291036 132.2623851  52.9304780  97.7680840 132.4261411
  52.2317017  96.8529689 131.4432097  49.1449395  94.8870771 138.2101339
  49.6203516  95.0798417 137.4020190  48.2214960  94.9429957 137.9644722
  36.0332901  96.0494938 127.7932417  35.7878943  95.1457268 127.9912627
  36.2028816  96.0512089 126.8511895  43.7229611  86.9218614 137.1757173
  44.2411555  87.6579641 136.8503661  43.3684744  87.2282608 138.0103932
  35.3028549  91.7823296 125.2918578  34.6097794  91.8567651 124.6358614
  35.0580301  91.0183639 125.8140095  43.9742205  83.3418897 132.6958069
  44.2543959  82.6742086 133.3218496  44.7592812  83.5347993 132.1832733
  41.7775674 102.5177891 124.2583096  41.2049641 103.1368078 123.8053567
  42.3508467 103.0677253 124.7923017  47.8451064  91.7636531 136.4429644
  48.7968486  91.8634629 136.4641868  47.6754514  90.9714800 136.9527729
  45.8665443  88.8492114 136.6289045  45.2715375  89.1297127 135.9335534
  45.5815140  89.3386015 137.4005786  44.9972933 102.8015041 125.3891678
  45.9303607 102.7360603 125.5924553  44.9096146 103.6371308 124.9306210
  47.6260950 102.1180911 122.3495625  47.5474582 101.7840775 123.2431383
  48.4470617 102.6102679 122.3487098  50.3239141  94.9842651 135.5571944
  50.2915461  94.0458651 135.7431628  50.9339765  95.0626687 134.8237769
  42.1622472  93.8538704 121.5999148  43.1081577  93.7244912 121.6687566
  41.7836717  93.1153366 122.0768576  50.4733630  91.7753694 135.6030227
  49.9572678  90.9912151 135.4160156  51.3573578  91.4472411 135.7676747
  48.1344357  85.5194710 131.5626040  47.9369178  85.2109798 132.4469372
  48.7444062  86.2456349 131.6923970  56.1415691  96.0458658 134.6977981
  56.8719080  95.7843946 135.2585684  55.5322637  95.3087379 134.7380049
  54.2230988  94.1866520 135.2952432  53.4964152  94.0522485 134.6868924
  53.8078275  94.4943349 136.1009150  42.0461165  97.9056450 143.0599805
  42.9664174  98.0835049 143.2539852  42.0110748  96.9612495 142.9079504
  40.3465389  91.7788680 121.5354033  39.4396845  91.4821793 121.6116747
  40.6241370  91.4818498 120.6688319  31.2643330  93.0995043 131.9853080
  30.9446114  92.2460352 131.6927454  30.7176758  93.3143622 132.7411047
  35.0423237  95.8157484 135.7022586  35.2609247  96.7474592 135.7210620
  35.4549011  95.4565459 136.4877390  41.9627455  86.3225570 127.6898275
  41.1528183  85.9772655 128.0653521  42.6511872  86.0133113 128.2785886
  43.8918003  85.4003617 129.3122571  44.4449042  85.8199070 129.9712594
  44.1288090  84.4739365 129.3545527  39.9151103  91.3890690 145.0925335
  39.8147829  92.3385047 145.0237426  39.6972645  91.0608929 144.2201405
  39.1164174  88.6375615 121.6766012  39.9783338  88.9630514 121.9361830
  39.3014518  87.8507111 121.1639078  31.1331590  96.7197955 133.9546201
  30.4395061  96.3051908 133.4416156  31.8804581  96.7618491 133.3579620
  47.2696810  87.5104142 128.8201235  46.6895479  88.1688946 128.4379288
  47.0032743  86.6881486 128.4088653  45.7200377  86.9109199 131.0222556
  46.2200155  87.0225734 130.2136875  46.3635985  86.6070252 131.6623364
  39.7782373  94.8187829 143.9090397  39.2949454  95.6188189 144.1154286
  39.8643312  94.8295774 142.9557841  33.0468332  96.6516209 131.8312216
  33.0239020  96.7503896 130.8794099  33.3568969  97.4981360 132.1529382
  35.7055710  98.7092364 135.9458831  36.6598964  98.6776306 135.8788762
  35.5068234  98.2482987 136.7609056  36.2955092  97.2793480 138.5129628
  37.1147981  97.7737558 138.5364465  36.5691900  96.3625448 138.4847196
  46.0521688  89.6704232 127.8757584  45.1647543  89.9553883 127.6577778
  46.4675678  89.5097995 127.0284861  49.4036225  89.6950753 131.5911923
  50.1796615  90.1847206 131.8636540  48.6784359  90.1208807 132.0483792
  51.8408783  90.4078372 132.6485864  52.4353274  90.1674108 131.9379172
  51.9135367  89.6885503 133.2759400  34.0605939 104.2511983 132.9629028
  33.9260407 103.4912384 132.3967026  33.6438001 104.9752883 132.4957817
  45.1964902  99.4348907 121.9705604  45.9000752  99.6398909 122.5863259
  44.4727551 100.0025669 122.2354687  46.0262712  95.1858768 128.0907874
  45.9697914  95.6427319 127.2515506  46.5791055  94.4249453 127.9130717
  49.8367518  90.9748500 128.9157993  49.5804452  90.5745136 129.7466201
  49.2120386  91.6892294 128.7908133  54.1479856  93.7144573 131.4229285
  53.5879414  93.7837762 132.1960847  53.5423359  93.5385558 130.7028781
  37.2175065 105.1481300 133.1747471  37.1007449 106.0926733 133.0726161
  36.3967511 104.8454862 133.5633270  47.1051599  99.8731436 124.0204064
  47.9397203  99.4412634 123.8381539  46.9435942  99.7013450 124.9480958
  46.7597492  96.3763549 125.3860403  46.7046295  96.2107821 124.4448847
  46.1343547  97.0839582 125.5422593  31.5490007  91.6131614 139.2121825
  32.1948870  91.1030568 139.7009050  31.3407158  92.3500295 139.7865251
  44.0743399  98.6812461 144.7113966  44.9434558  98.8553113 144.3500601
  43.5950150  99.5006878 144.5889695  40.0693617  85.8771658 124.9645721
  40.0572287  86.8213498 125.1213992  40.9617039  85.6941804 124.6705183
  38.2429579 105.8009562 136.3903399  39.1456826 105.8333172 136.7069894
  38.0166949 104.8710013 136.4049735  39.9983181 104.5540549 133.0513478
  39.0478812 104.5542410 132.9377850  40.3015667 103.8073283 132.5349513
  43.8845736  82.4714435 129.2191658  43.1178132  81.9172922 129.3648341
  44.2956441  82.5436304 130.0805810  35.8887497  88.7599231 143.3096839
  36.7518959  88.4036036 143.5200164  35.3152908  88.4213126 143.9972244
  55.7335874 110.3901087 134.1159240  56.3714284 110.2707834 133.4122581
  55.6156717 111.3381931 134.1747193  52.5425581 110.3428515 134.0520765
  52.2044092 110.2269580 133.1641300  53.4115349 109.9419680 134.0321771
  48.4012396 112.1963992 130.0417656  47.8377262 112.1053929 129.2733944
  48.2864791 111.3763896 130.5220149  53.0245364 111.4963367 140.0106971
  53.0134004 111.1016165 139.1387474  53.1866003 110.7629440 140.6040742
  45.9476828 113.6915183 132.8801877  46.7398120 113.3506008 132.4648176
  46.1873478 113.8010158 133.8004030  53.9811955 115.8634959 125.3532121
  53.3299935 116.4489040 124.9666135  54.7756318 116.3941154 125.4127159
  47.9067582 112.9524096 125.7519255  48.6798458 112.4053084 125.6132131
  48.2592981 113.8168346 125.9633717  49.7452625 114.2800479 138.9586155
  49.4542491 115.1846110 138.8432821  50.3809609 114.3217006 139.6730224
  50.6708832 111.6577327 135.5487514  51.2672404 111.4333350 134.8344477
  50.7283803 110.9162073 136.1512962  50.2433860 109.1116763 123.3837705
  50.4959381 108.5898284 122.6221168  49.3058419 108.9482908 123.4864389
  55.2877143 108.1152541 131.1912449  56.0740232 107.6971964 130.8402866
  55.5515847 109.0198633 131.3594097  55.4587220 113.5525391 125.8901105
  54.8233053 113.6260018 126.6022010  55.1284627 114.1418990 125.2120185
  60.6885570 108.0527774 132.0945427  61.4210742 107.4826991 132.3283257
  59.9324926 107.6649375 132.5351933  49.9630149 111.0144869 125.5862080
  49.8466407 110.3389772 126.2543165  50.0732409 110.5277242 124.7694233
  52.3061690 110.4755016 129.2908769  51.9419897 109.9485637 130.0021691
  53.1628806 110.0853485 129.1175255  58.2110990 101.7649348 136.5540036
  57.8794315 102.6344759 136.3301251  57.6156604 101.4485632 137.2334066
  51.9467177 105.5044915 124.2870118  52.1141579 106.3725152 124.6540589
  51.7564346 105.6672197 123.3631407  54.7042510 113.9661894 135.9535948
  54.4043233 114.8686933 135.8451756  54.3593569 113.6994077 136.8057101
  48.1554991 110.4175691 131.9872653  47.2305488 110.2851905 132.1950345
  48.4039405 111.1969910 132.4842595  58.1039654 106.4844434 133.6333386
  57.1956531 106.4159843 133.3392147  58.0527250 106.9616379 134.4615211
  51.9256398 107.9602573 125.2716785  51.8056023 108.4059624 126.1102265
  51.2308986 108.3087891 124.7130323  45.5163802 110.0608965 132.8216442
  45.6456184 110.3143444 133.7355854  44.8361254 110.6536673 132.5021097
  49.6863290 120.7306215 128.9206916  49.6087319 121.6814040 128.9995397
  49.0824933 120.3852087 129.5781842  52.1780519 107.9034080 141.5768283
  51.4013854 108.4628000 141.5671148  52.8171083 108.3890863 142.0983153
  59.9701300 104.6860873 135.4111260  59.3275680 104.9793406 134.7651054
  59.4656229 104.5713793 136.2164456  57.6241464 108.4324046 126.0997119
  58.5359320 108.6651433 125.9244816  57.1151111 109.0161090 125.5372197
  50.4326892 110.7119533 141.1386250  51.1741576 111.2504577 140.8621074
  49.7263877 111.3385822 141.2957802  55.9082231 112.8548674 139.7358411
  56.3165587 112.4131084 138.9913044  55.1859493 112.2801301 139.9892604
  52.2613301 107.7921281 137.1091968  53.1074497 108.2160694 137.2526617
  52.2011939 107.1354905 137.8030532  56.2311046 113.4149864 133.4910700
  55.6019909 113.5795579 132.7886768  55.8436708 113.8291474 134.2621664
  60.1100278 114.3504302 130.8455064  59.4251316 114.7303204 130.2952097
  60.1944127 114.9599629 131.5787012  55.4112747 105.4525649 138.7673142
  55.1673679 106.2067709 138.2307418  55.6872677 105.8310997 139.6020389
  57.3651210 111.9964261 137.4450408  57.5768105 112.6396021 136.7684789
  57.3180958 111.1626578 136.9772338  54.9677439 104.6082082 134.3486980
  54.1061918 104.9063336 134.6403717  54.9939873 104.8252481 133.4168012
  51.7839008 113.1524273 130.7560785  52.2477353 113.4311976 129.9665408
  51.5195806 112.2507717 130.5733876  48.6763089 112.6995754 133.6940549
  49.2464446 113.1283022 133.0558033  49.2671201 112.4178339 134.3924734
  50.7207894 109.2747425 127.5650351  51.4231937 109.7268469 128.0324277
  50.3888523 108.6331244 128.1930244  49.1688256 107.8659182 141.9401560
  48.5386916 108.5475462 142.1736957  49.0624343 107.7542263 140.9954698
  44.4633228 107.5330978 132.8667484  43.6732282 107.7888506 132.3907595
  44.9544475 108.3479315 132.9719525  58.4797038 114.8736217 135.6172765
  59.3014481 114.4716404 135.3355447  58.4759440 114.7704451 136.5688881
  46.4147973 107.8975557 129.8250961  45.6179137 108.0094251 130.3434457
  46.1873566 108.2362209 128.9591851  52.2453641 114.4220260 137.7733475
  52.3098073 114.8840667 138.6091647  51.5364565 113.7917625 137.9015785
  42.7470931 107.7861468 135.2982475  42.9978969 108.6708478 135.5640051
  43.2830479 107.6066070 134.5257567  66.5703031 111.2174965 131.9657736
  65.8166739 110.6482363 131.8101741  66.7050572 111.1837630 132.9128371
  51.9601659 116.0888368 127.6412456  51.8247333 116.9339903 128.0697304
  52.5011471 116.2907645 126.8778390  48.4468998 102.1679947 144.3026811
  48.0535944 101.6146146 144.9774455  49.2635139 102.4790526 144.6933329
  45.4131056 113.6063806 128.2140381  45.9255577 114.4007056 128.3645946
  46.0653769 112.9090096 128.1473982  47.2225941 116.7229562 130.2963134
  47.3992569 117.6447527 130.1084118  48.0182774 116.4087981 130.7257514
  51.3636959 103.5837826 141.8947068  52.1046673 104.1844980 141.8151530
  51.5954882 102.8415464 141.3365110  46.5078297 108.7694194 140.1725297
  46.3931812 107.8679451 140.4732396  45.6522815 109.0157891 139.8210114
  53.5870135 116.7111934 141.7712798  53.1433989 115.9248313 141.4533702
  54.2487349 116.8991085 141.1056689  48.3457256 118.2407736 136.2973476
  48.8964681 118.1124799 135.5250470  47.5068732 118.5402625 135.9468369
  55.6851373 116.9914734 139.7994199  55.6669848 117.8123615 139.3074468
  56.6071293 116.8668809 140.0244340  52.1424427 114.5058863 140.6417708
  52.6752764 113.7447152 140.4117015  51.6138508 114.2132515 141.3841862
  55.3094122  99.6118929 136.1711349  54.9658392 100.5020571 136.0950460
  55.6773085  99.4220587 135.3080934  43.3779973 111.9352460 128.9899951
  44.2155195 112.3449468 128.7733659  43.5558241 110.9951902 128.9600145
  55.2744405 109.6027541 124.6783784  54.7591028 110.3732145 124.9172172
  55.0021713 108.9292677 125.3016846  52.8591516 104.4477241 129.7369023
  52.0033112 104.0584092 129.5574661  53.2718468 104.5269202 128.8768808
  54.3890663 101.9823585 134.1360583  53.8855458 101.9453720 133.3228388
  54.6821269 102.8916327 134.1957239  50.6333548 102.0662314 133.1426764
  51.4986545 101.8705123 132.7832654  50.7011057 101.8372666 134.0696121
  60.2478679 112.3559895 126.6136958  59.4708122 112.0171055 126.1692120
  60.9270160 112.3612518 125.9391923  55.0630708 107.4754633 126.5043566
  54.7580844 107.7900782 127.3553709  56.0161150 107.5536053 126.5470899
  53.5077140 113.6344856 128.1536520  52.9798502 112.8997616 127.8409757
  53.0064643 114.4119532 127.9076488  58.4869986 111.8293876 133.2703566
  57.8293660 112.5193138 133.3583694  59.2910385 112.2190308 133.6137552
  48.2395868 104.2964522 130.5143131  48.8139619 104.0739704 129.7816324
  48.8266850 104.3653217 131.2671732  57.2975445 110.1838249 131.3207508
  57.8107327 110.8168241 131.8229217  57.9476669 109.5839445 130.9550868
  48.5665455 106.3268983 124.5339016  47.7302767 106.6643670 124.8548291
  48.4270224 106.1917963 123.5966153  50.5418535 101.1705771 129.2418200
  49.8882948 100.8554788 128.6174815  50.4999009 100.5481512 129.9678023
  51.6529740 111.4525066 121.1571493  50.7456802 111.2214320 121.3562642
  52.1500772 110.6562685 121.3445474  54.5597819 120.1622573 124.0768179
  53.8859518 120.4654270 124.6853137  54.9463641 120.9651654 123.7273636
  53.7756276 107.6587705 133.5665848  52.8578837 107.8802652 133.4087536
  54.1916419 107.7334015 132.7077555  54.5591323 109.0579120 128.6968528
  55.3063142 109.5700518 128.3875650  54.8282913 108.7363173 129.5572922
  52.8317974 111.5537661 125.6795483  51.9229193 111.2696694 125.7767952
  52.8613057 111.9736740 124.8198790  58.0637241 115.1644251 129.4486650
  57.6099568 114.3235160 129.5051841  57.4331208 115.8005649 129.7861430
  57.0070161 106.0936237 130.6787318  56.2692917 105.5813623 131.0097560
  57.2596934 105.6536618 129.8670595  56.5070180 117.0020747 130.3836468
  56.7993155 117.5625804 129.6648834  57.0168801 117.2949308 131.1389627
  57.1081788  98.8712489 131.2729087  57.4140665  98.0109852 130.9855002
  57.8334393  99.4630109 131.0728081  43.4006144 109.2743175 129.6610685
  43.2030544 108.6812536 128.9361751  42.8452808 108.9695385 130.3786624
  51.3802868 109.1666282 131.7805278  51.4351477 108.2140118 131.7047755
  50.5694070 109.3225721 132.2646576  52.5294061 113.0946405 123.0183561
  52.0913491 112.3782264 122.5589199  53.2704502 113.3222520 122.4568653
  49.3195228 107.7843341 129.5395657  48.5063093 108.0837512 129.9460849
  49.8154222 107.3899030 130.2570139  51.4703805 117.7801098 131.4729922
  51.4279984 118.0061945 130.5438454  52.3866504 117.5464473 131.6215723
  54.9169439 108.2485166 138.3710551  55.2718827 108.4756639 139.2305017
  55.5641570 108.5803543 137.7487806  60.6467176 111.3703602 129.0759880
  60.5085075 111.5605198 128.1481069  60.2903395 112.1322985 129.5327931
  48.8109302 105.3561697 135.1556892  49.4508682 105.2150456 134.4579855
  47.9786833 105.0696210 134.7795494  60.6736556 113.4380129 134.0871151
  61.1073062 113.3455418 134.9354205  61.3868136 113.4137629 133.4491167
  49.5869606 114.6564127 131.2691884  50.3810205 114.1614448 131.0674459
  48.8761299 114.1281990 130.9059590  54.4064451 117.0382223 135.6204252
  54.4601473 117.6073159 136.3881968  53.5379232 117.2084108 135.2558289
  45.8952370 108.8007209 127.3451637  44.9649958 108.7391665 127.5621599
  45.9909842 108.2783162 126.5488278  45.8137919 105.3262022 129.9329879
  46.0744736 106.2407355 129.8239039  46.6355091 104.8586464 130.0826491
  47.2862844 106.7399779 137.1028703  47.9585897 106.5317141 136.4541352
  46.4592631 106.5421865 136.6633935  61.5352105 113.4803829 136.6204037
  61.7287995 114.3849640 136.8663312  61.4352723 113.0211249 137.4542622
  53.1888416 103.3661720 139.1194364  52.5416331 104.0651670 139.0258840
  53.9589431 103.7997864 139.4870612  56.5967214 113.6310572 142.1944917
  56.4452720 113.4021124 141.2775001  56.5871893 114.5881174 142.2076262
  53.3652550 111.2042485 137.1791184  54.2944610 111.3553645 137.0060151
  52.9443580 111.2926506 136.3239830  52.1640882 115.2293149 134.9489721
  52.0251968 114.8611934 135.8215659  51.3755478 115.7440789 134.7773679
  52.7589034 120.3302246 126.2915258  52.9340790 119.8590289 127.1060881
  52.0721822 120.9568012 126.5196519  53.7146097 114.6074752 132.3378559
  53.3795930 114.5675522 133.2336209  53.2150043 113.9419468 131.8648969
  47.6890341 110.0142382 137.8631140  47.5510139 109.2822621 138.4642679
  48.5995265 109.9251282 137.5815328  56.6505289 111.9530786 122.6115619
  56.0334460 111.2277615 122.5148671  56.1821777 112.7140147 122.2682693
  50.3172642 109.7262341 137.3514820  51.0272260 109.0855534 137.3101438
  50.2741950 109.9775236 138.2741001  58.3059421 116.6629695 140.2721399
  58.2471967 115.9788915 139.6051982  58.7078939 117.4048685 139.8202025
  49.0301576 106.7127559 139.1710459  48.4938933 106.2618298 139.8232056
  48.4418284 106.8473468 138.4280924  47.3250119 123.4791609 133.0655118
  47.5646718 124.1110133 133.7434137  46.4819316 123.1279649 133.3520477
  48.4403835 106.1716211 121.7336923  47.5633301 106.0505011 121.3699170
  48.9161588 105.3802289 121.4815812  58.3076828 114.6269279 138.5035379
  57.4203607 114.2895200 138.6261778  58.8775379 113.8952310 138.7404144
  39.9605975 110.9593370 131.8278430  40.6477015 110.6455100 131.2399446
  39.8054104 111.8634735 131.5545682  44.7640697 105.8483567 136.2563454
  44.6798886 105.2409237 135.5213864  43.9423404 106.3392585 136.2572950
  51.8377981 119.2870731 135.4696622  51.7648153 120.0925703 135.9815927
  51.3955374 119.4862697 134.6444643  51.6267761 118.5242501 128.9799444
  50.8435283 119.0664181 129.0737668  52.3260506 119.0416481 129.3793685
  54.9364411 104.3337131 131.6233649  55.4333111 103.5807093 131.3034719
  54.1651393 104.3701447 131.0576858  62.7894168 110.0377496 133.2651940
  62.7784045 110.9202211 132.8945874  61.9211548 109.6849047 133.0706478
  54.2976665 119.1857565 137.6254781  55.0104637 119.8205030 137.5530682
  53.8066693 119.2821431 136.8094783  56.0194192 113.0908818 129.1972072
  55.0850470 113.2110280 129.0276777  56.1970860 112.1881285 128.9332082
  51.5199380 106.4754514 131.3505334  51.1497167 105.9225554 132.0386239
  52.0158472 105.8712647 130.7980334  59.4066743 108.9326137 129.7322107
  59.8727195 109.7654129 129.6582409  59.8574244 108.4671119 130.4367365
  49.3488578 116.9352009 138.4460352  50.0498038 117.5688491 138.5989746
  48.8783693 117.2766740 137.6855991  57.4742974 115.2769958 126.7308259
  57.7502818 115.1626553 127.6402133  56.6047473 114.8787443 126.6920432
  57.3783406 101.3006724 133.7713008  56.4646486 101.5310951 133.9395215
  57.8076507 101.3845168 134.6227040  57.1489864 109.4896616 136.2712902
  56.4961315 109.7372523 135.6165355  57.5270244 108.6760754 135.9375379
  54.1097038 119.5256309 130.3741072  54.2919433 118.7077965 130.8368825
  54.9330024 119.7424001 129.9365962  54.4439204 118.4524494 127.6356121
  54.9726970 117.9416949 127.0226283  54.7067423 118.1367024 128.5001654
  53.1977437 110.2316427 142.7578939  52.5218074 110.1310556 143.4281314
  54.0205071 110.0755641 143.2214936  44.9456296 116.4688364 135.3791454
  45.5309733 115.7232051 135.5119358  44.7481135 116.7792320 136.2628118
  47.7994952 119.5039611 130.3953897  47.1305327 119.9885739 129.9117937
  47.6607821 119.7508831 131.3097275  39.5373951 109.0393964 134.0995897
  39.5758051 108.5057554 134.8933015  39.0314244 108.5129169 133.4806875
  51.9400220 121.5383354 136.9936555  52.4918528 121.7014976 137.7585640
  52.2806414 122.1287792 136.3216580  46.9164713 103.8858504 137.5958440
  46.9806040 104.7473335 137.1835837  46.8531834 103.2732506 136.8630798
  46.3916986 105.9581637 141.2431474  47.0189025 105.5758714 141.8568998
  45.5344905 105.7395839 141.6087166  56.7911095 116.3644612 142.8485209
  57.3350999 116.9774570 142.3540164  56.2097939 116.9224190 143.3652222
  43.1682529 107.7658066 127.1749829  43.4635970 106.8568744 127.1216882
  42.2670564 107.7445805 126.8530831  55.0768607 119.4865330 133.9800237
  54.9519747 118.6855070 133.4711183  55.7347699 119.9811523 133.4914207
  46.6976776 105.8414063 133.1577377  45.9763361 106.4550030 133.0184851
  47.4870031 106.3771827 133.0794023  57.1403516 117.2874350 135.6079787
  56.1933851 117.1679701 135.5358114  57.4886289 116.3996848 135.6906049
  49.5003089 103.1768489 139.4318029  50.0237491 103.4230786 140.1944338
  49.2815423 104.0088524 139.0121166  44.8970370 105.4472164 127.2989154
  44.5683076 104.5669543 127.1164260  45.2509741 105.3919832 128.1865543
  54.1449949 117.0827066 131.8084139  53.9974912 116.1543774 131.9891709
  54.9703443 117.1047157 131.3241215  48.0112193 105.7345133 127.6664632
  48.3508266 106.2631055 126.9443240  48.4584314 106.0725540 128.4423198
  57.7484071 117.9055625 132.8949012  58.6730619 117.6998486 132.7573463
  57.5799374 117.6572026 133.8038354  50.7055634 104.1182184 137.1167700
  50.3652455 103.3189997 137.5188380  49.9994641 104.4183895 136.5444533
  51.3572106 101.2031497 135.5695023  52.1798175 100.7291975 135.4473913
  51.6010170 101.9821980 136.0693709  49.9980341 104.2319755 125.8657924
  50.7188703 104.6101008 125.3621641  49.3745645 104.9508632 125.9692902
  54.1411463 104.9364904 126.8016257  54.3575078 105.8189542 126.5005085
  53.6605531 104.5451117 126.0721899  48.8810685 107.8950617 133.3787001
  48.7355266 108.2090920 134.2711283  48.4035889 108.5135518 132.8257900
  50.7407068 104.8853165 133.4267891  50.7268637 103.9894258 133.0900189
  51.4579496 104.8923829 134.0606177  52.5933198 105.3190505 135.4721018
  52.3350976 106.2407576 135.4705349  52.0618239 104.9220940 136.1621482
  57.5379387 118.4241292 128.2511104  57.7116265 117.8587715 127.4984956
  58.0308278 119.2242187 128.0690594  43.3556347 110.4355962 136.3174662
  42.8109815 111.2115770 136.4494937  44.2335697 110.7826766 136.1593784
  50.1443964 103.7667545 128.6955461  50.2659875 102.8384192 128.8946348
  49.8546006 103.7806231 127.7833776  53.0135154 101.4522456 131.8322181
  53.0356851 101.5161789 130.8774160  53.4303213 100.6126965 132.0262687
  63.3918778 111.1877715 129.8701403  63.8349924 110.4385041 129.4720527
  62.5145289 111.1787852 129.4875135  58.5254560 117.7408057 125.3508002
  59.2205464 118.3614750 125.5695317  58.8677710 116.8903408 125.6260380
  44.1422369 109.5625858 139.2104819  43.4004105 109.7108493 139.7969450
  43.8215113 109.8234123 138.3471569  60.4245983 115.1907762 126.8795333
  60.9497307 115.5295035 126.1544653  60.3368335 114.2554778 126.6958467
  52.0866032 119.1041836 139.0085209  52.3953158 118.8590983 139.8807909
  52.8841514 119.3088475 138.5204080  52.1086644 121.2579746 131.2390586
  51.6691634 120.7656124 131.9323443  52.8594761 120.7152713 130.9982661
  44.5878983 117.4491287 131.2415214  45.4137002 117.1495058 130.8613857
  44.2373035 116.6798909 131.6905003  49.5560516 116.8017755 133.3112888
  48.9340525 116.1388460 133.0115115  50.2265383 116.8278887 132.6286535
  42.7887588 115.3677613 132.2004148  41.9519496 114.9399787 132.0188149
  42.7611233 115.5610056 133.1374939  49.6285043 105.2799543 142.9045394
  49.6773199 106.1561666 142.5223163  50.1707557 104.7376936 142.3317037
  60.1139889 115.8240666 142.1846531  59.3235433 115.8064805 141.6451030
  59.8773243 116.3628960 142.9395567  60.2337764 112.6733132 139.4979259
  60.2835769 112.5083140 140.4394782  60.1251687 111.8060391 139.1077140
  49.1174023 115.3521678 126.7871348  49.2662143 116.0357143 126.1338021
  49.9240466 115.3326768 127.3020804  57.5241526 108.6564060 140.8138566
  58.4251389 108.5170525 140.5222564  57.5989501 108.8218515 141.7536743
  51.8584332 106.0330915 139.6591752  50.9887641 106.3264481 139.3874341
  52.0943812 106.6171360 140.3799016  61.7355961 115.0930074 139.7421281
  61.4440769 115.4560055 140.5784742  61.1228092 114.3797082 139.5634613
  62.9351643 112.6582954 132.2623851  63.7698534 113.0972758 132.4261411
  63.0710772 112.1821607 131.4432097  59.9843149 110.2162689 138.2101339
  60.4597271 110.4090335 137.4020190  59.0608714 110.2721874 137.9644722
  46.8726656 111.3786856 127.7932417  46.6272698 110.4749186 127.9912627
  47.0422570 111.3804006 126.8511895  54.5623366 102.2510532 137.1757173
  55.0805309 102.9871559 136.8503661  54.2078498 102.5574525 138.0103932
  46.1422303 107.1115213 125.2918578  45.4491548 107.1859568 124.6358614
  45.8974055 106.3475557 125.8140095  54.8135960  98.6710815 132.6958069
  55.0937713  98.0034004 133.3218496  55.5986567  98.8639910 132.1832733
  52.6169428 117.8469809 124.2583096  52.0443395 118.4659996 123.8053567
  53.1902222 118.3969170 124.7923017  58.6844818 107.0928449 136.4429644
  59.6362241 107.1926546 136.4641868  58.5148268 106.3006717 136.9527729
  56.7059197 104.1784032 136.6289045  56.1109130 104.4589045 135.9335534
  56.4208894 104.6677933 137.4005786  55.8366688 118.1306959 125.3891678
  56.7697361 118.0652520 125.5924553  55.7489901 118.9663226 124.9306210
  58.4654705 117.4472829 122.3495625  58.3868336 117.1132693 123.2431383
  59.2864371 117.9394597 122.3487098  61.1632896 110.3134568 135.5571944
  61.1309216 109.3750569 135.7431628  61.7733519 110.3918605 134.8237769
  53.0016227 109.1830621 121.5999148  53.9475331 109.0536829 121.6687566
  52.6230472 108.4445283 122.0768576  61.3127384 107.1045612 135.6030227
  60.7966433 106.3204068 135.4160156  62.1967333 106.7764328 135.7676747
  58.9738111 100.8486627 131.5626040  58.7762932 100.5401716 132.4469372
  59.5837817 101.5748266 131.6923970  66.9809446 111.3750575 134.6977981
  67.7112834 111.1135863 135.2585684  66.3716391 110.6379297 134.7380049
  65.0624743 109.5158438 135.2952432  64.3357906 109.3814403 134.6868924
  64.6472030 109.8235266 136.1009150  52.8854919 113.2348367 143.0599805
  53.8057929 113.4126966 143.2539852  52.8504502 112.2904413 142.9079504
  51.1859144 107.1080598 121.5354033  50.2790599 106.8113710 121.6116747
  51.4635125 106.8110416 120.6688319  42.1037084 108.4286961 131.9853080
  41.7839869 107.5752269 131.6927454  41.5570512 108.6435539 132.7411047
  45.8816992 111.1449402 135.7022586  46.1003002 112.0766510 135.7210620
  46.2942766 110.7857377 136.4877390  52.8021210 101.6517487 127.6898275
  51.9921938 101.3064572 128.0653521  53.4905626 101.3425031 128.2785886
  54.7311758 100.7295534 129.3122571  55.2842796 101.1490988 129.9712594
  54.9681844  99.8031282 129.3545527  50.7544857 106.7182608 145.0925335
  50.6541584 107.6676965 145.0237426  50.5366399 106.3900847 144.2201405
  49.9557928 103.9667533 121.6766012  50.8177092 104.2922431 121.9361830
  50.1408273 103.1799029 121.1639078  41.9725344 112.0489873 133.9546201
  41.2788816 111.6343825 133.4416156  42.7198335 112.0910409 133.3579620
  58.1090565 102.8396059 128.8201235  57.5289234 103.4980863 128.4379288
  57.8426498 102.0173404 128.4088653  56.5594131 102.2401117 131.0222556
  57.0593910 102.3517652 130.2136875  57.2029739 101.9362170 131.6623364
  50.6176127 110.1479747 143.9090397  50.1343209 110.9480107 144.1154286
  50.7037066 110.1587692 142.9557841  43.8862087 111.9808126 131.8312216
  43.8632775 112.0795814 130.8794099  44.1962723 112.8273277 132.1529382
  46.5449465 114.0384281 135.9458831  47.4992718 114.0068224 135.8788762
  46.3461988 113.5774905 136.7609056  47.1348847 112.6085397 138.5129628
  47.9541736 113.1029476 138.5364465  47.4085654 111.6917366 138.4847196
  56.8915443 104.9996150 127.8757584  56.0041298 105.2845800 127.6577778
  57.3069432 104.8389913 127.0284861  60.2429979 105.0242671 131.5911923
  61.0190369 105.5139123 131.8636540  59.5178113 105.4500725 132.0483792
  62.6802538 105.7370290 132.6485864  63.2747029 105.4966026 131.9379172
  62.7529121 105.0177421 133.2759400  44.8999693 119.5803901 132.9629028
  44.7654161 118.8204302 132.3967026  44.4831756 120.3044801 132.4957817
  56.0358656 114.7640824 121.9705604  56.7394507 114.9690827 122.5863259
  55.3121305 115.3317586 122.2354687  56.8656467 110.5150686 128.0907874
  56.8091668 110.9719237 127.2515506  57.4184809 109.7541370 127.9130717
  60.6761273 106.3040418 128.9157993  60.4198207 105.9037053 129.7466201
  60.0514141 107.0184212 128.7908133  64.9873610 109.0436491 131.4229285
  64.4273168 109.1129680 132.1960847  64.3817114 108.8677475 130.7028781
  48.0568819 120.4773218 133.1747471  47.9401203 121.4218650 133.0726161
  47.2361266 120.1746779 133.5633270  57.9445354 115.2023354 124.0204064
  58.7790958 114.7704552 123.8381539  57.7829697 115.0305367 124.9480958
  57.5991246 111.7055467 125.3860403  57.5440050 111.5399738 124.4448847
  56.9737301 112.4131500 125.5422593  42.3883761 106.9423531 139.2121825
  43.0342625 106.4322485 139.7009050  42.1800912 107.6792213 139.7865251
  54.9137153 114.0104379 144.7113966  55.7828313 114.1845031 144.3500601
  54.4343905 114.8298796 144.5889695  50.9087371 101.2063576 124.9645721
  50.8966041 102.1505416 125.1213992  51.8010793 101.0233721 124.6705183
  49.0823333 121.1301480 136.3903399  49.9850580 121.1625090 136.7069894
  48.8560703 120.2001931 136.4049735  50.8376935 119.8832466 133.0513478
  49.8872566 119.8834328 132.9377850  51.1409422 119.1365201 132.5349513
  54.7239491  97.8006353 129.2191658  53.9571887  97.2464839 129.3648341
  55.1350196  97.8728221 130.0805810  46.7281252 104.0891148 143.3096839
  47.5912714 103.7327953 143.5200164  46.1546663 103.7505043 143.9972244
  66.5729629 125.7193005 134.1159240  67.2108039 125.5999752 133.4122581
  66.4550472 126.6673849 134.1747193  63.3819335 125.6720433 134.0520765
  63.0437847 125.5561498 133.1641300  64.2509103 125.2711598 134.0321771
  59.2406151 127.5255909 130.0417656  58.6771016 127.4345846 129.2733944
  59.1258546 126.7055814 130.5220149  63.8639118 126.8255285 140.0106971
  63.8527759 126.4308083 139.1387474  64.0259758 126.0921357 140.6040742
  56.7870583 129.0207101 132.8801877  57.5791875 128.6797926 132.4648176
  57.0267233 129.1302076 133.8004030  64.8205710 131.1926877 125.3532121
  64.1693689 131.7780957 124.9666135  65.6150072 131.7233072 125.4127159
  58.7461337 128.2816014 125.7519255  59.5192213 127.7345001 125.6132131
  59.0986736 129.1460263 125.9633717  60.5846379 129.6092396 138.9586155
  60.2936245 130.5138027 138.8432821  61.2203364 129.6508924 139.6730224
  61.5102586 126.9869245 135.5487514  62.1066158 126.7625267 134.8344477
  61.5677558 126.2453990 136.1512962  61.0827615 124.4408680 123.3837705
  61.3353135 123.9190202 122.6221168  60.1452174 124.2774826 123.4864389
  66.1270897 123.4444459 131.1912449  66.9133987 123.0263882 130.8402866
  66.3909602 124.3490551 131.3594097  66.2980975 128.8817309 125.8901105
  65.6626808 128.9551935 126.6022010  65.9678381 129.4710908 125.2120185
  71.5279325 123.3819692 132.0945427  72.2604496 122.8118909 132.3283257
  70.7718680 122.9941292 132.5351933  60.8023903 126.3436786 125.5862080
  60.6860161 125.6681690 126.2543165  60.9126163 125.8569160 124.7694233
  63.1455444 125.8046933 129.2908769  62.7813651 125.2777554 130.0021691
  64.0022560 125.4145402 129.1175255  69.0504745 117.0941266 136.5540036
  68.7188070 117.9636677 136.3301251  68.4550358 116.7777550 137.2334066
  62.7860931 120.8336833 124.2870118  62.9535334 121.7017069 124.6540589
  62.5958100 120.9964115 123.3631407  65.5436264 129.2953812 135.9535948
  65.2436988 130.1978851 135.8451756  65.1987324 129.0285995 136.8057101
  58.9948746 125.7467609 131.9872653  58.0699242 125.6143823 132.1950345
  59.2433159 126.5261828 132.4842595  68.9433408 121.8136352 133.6333386
  68.0350286 121.7451761 133.3392147  68.8921004 122.2908297 134.4615211
  62.7650152 123.2894491 125.2716785  62.6449777 123.7351541 126.1102265
  62.0702740 123.6379808 124.7130323  56.3557557 125.3900882 132.8216442
  56.4849938 125.6435361 133.7355854  55.6755008 125.9828590 132.5021097
  60.5257044 136.0598132 128.9206916  60.4481074 137.0105957 128.9995397
  59.9218688 135.7144005 129.5781842  63.0174274 123.2325998 141.5768283
  62.2407608 123.7919918 141.5671148  63.6564837 123.7182781 142.0983153
  70.8095055 120.0152790 135.4111260  70.1669435 120.3085324 134.7651054
  70.3049983 119.9005711 136.2164456  68.4635218 123.7615964 126.0997119
  69.3753074 123.9943350 125.9244816  67.9544865 124.3453008 125.5372197
  61.2720646 126.0411451 141.1386250  62.0135331 126.5796495 140.8621074
  60.5657632 126.6677740 141.2957802  66.7475986 128.1840592 139.7358411
  67.1559342 127.7423002 138.9913044  66.0253247 127.6093219 139.9892604
  63.1007056 123.1213198 137.1091968  63.9468251 123.5452612 137.2526617
  63.0405694 122.4646823 137.8030532  67.0704801 128.7441782 133.4910700
  66.4413663 128.9087496 132.7886768  66.6830463 129.1583392 134.2621664
  70.9494032 129.6796220 130.8455064  70.2645071 130.0595121 130.2952097
  71.0337882 130.2891547 131.5787012  66.2506501 120.7817567 138.7673142
  66.0067433 121.5359627 138.2307418  66.5266432 121.1602914 139.6020389
  68.2044964 127.3256179 137.4450408  68.4161859 127.9687939 136.7684789
  68.1574712 126.4918496 136.9772338  65.8071193 119.9374000 134.3486980
  64.9455672 120.2355253 134.6403717  65.8333628 120.1544399 133.4168012
  62.6232762 128.4816190 130.7560785  63.0871108 128.7603893 129.9665408
  62.3589561 127.5799635 130.5733876  59.5156844 128.0287672 133.6940549
  60.0858201 128.4574940 133.0558033  60.1064955 127.7470256 134.3924734
  61.5601649 124.6039343 127.5650351  62.2625692 125.0560386 128.0324277
  61.2282277 123.9623161 128.1930244  60.0082010 123.1951099 141.9401560
  59.3780671 123.8767380 142.1736957  59.9018098 123.0834181 140.9954698
  55.3026982 122.8622895 132.8667484  54.5126036 123.1180424 132.3907595
  55.7938230 123.6771233 132.9719525  69.3190792 130.2028134 135.6172765
  70.1408236 129.8008322 135.3355447  69.3153195 130.0996369 136.5688881
  57.2541728 123.2267475 129.8250961  56.4572891 123.3386169 130.3434457
  57.0267320 123.5654127 128.9591851  63.0847395 129.7512178 137.7733475
  63.1491828 130.2132585 138.6091647  62.3758319 129.1209543 137.9015785
  53.5864685 123.1153386 135.2982475  53.8372724 124.0000396 135.5640051
  54.1224234 122.9357987 134.5257567  77.4096785 126.5466883 131.9657736
  76.6560493 125.9774281 131.8101741  77.5444326 126.5129547 132.9128371
  62.7995413 131.4180285 127.6412456  62.6641088 132.2631821 128.0697304
  63.3405226 131.6199563 126.8778390  59.2862753 117.4971865 144.3026811
  58.8929698 116.9438064 144.9774455  60.1028893 117.8082444 144.6933329
  56.2524811 128.9355723 128.2140381  56.7649331 129.7298974 128.3645946
  56.9047523 128.2382014 128.1473982  58.0619695 132.0521480 130.2963134
  58.2386324 132.9739444 130.1084118  58.8576529 131.7379899 130.7257514
  62.2030714 118.9129744 141.8947068  62.9440427 119.5136897 141.8151530
  62.4348637 118.1707382 141.3365110  57.3472052 124.0986111 140.1725297
  57.2325567 123.1971369 140.4732396  56.4916570 124.3449808 139.8210114
  64.4263890 132.0403852 141.7712798  63.9827744 131.2540230 141.4533702
  65.0881103 132.2283002 141.1056689  59.1851011 133.5699653 136.2973476
  59.7358436 133.4416717 135.5250470  58.3462487 133.8694542 135.9468369
  66.5245128 132.3206652 139.7994199  66.5063603 133.1415533 139.3074468
  67.4465048 132.1960727 140.0244340  62.9818182 129.8350781 140.6417708
  63.5146519 129.0739069 140.4117015  62.4532263 129.5424433 141.3841862
  66.1487877 114.9410847 136.1711349  65.8052146 115.8312489 136.0950460
  66.5166839 114.7512505 135.3080934  54.2173727 127.2644378 128.9899951
  55.0548949 127.6741386 128.7733659  54.3951995 126.3243820 128.9600145
  66.1138159 124.9319458 124.6783784  65.5984783 125.7024063 124.9172172
  65.8415468 124.2584594 125.3016846  63.6985270 119.7769159 129.7369023
  62.8426867 119.3876009 129.5574661  64.1112222 119.8561120 128.8768808
  65.2284417 117.3115502 134.1360583  64.7249213 117.2745637 133.3228388
  65.5215024 118.2208245 134.1957239  61.4727303 117.3954232 133.1426764
  62.3380300 117.1997041 132.7832654  61.5404812 117.1664584 134.0696121
  71.0872434 127.6851813 126.6136958  70.3101876 127.3462972 126.1692120
  71.7663915 127.6904436 125.9391923  65.9024463 122.8046550 126.5043566
  65.5974598 123.1192699 127.3553709  66.8554905 122.8827970 126.5470899
  64.3470894 128.9636774 128.1536520  63.8192256 128.2289533 127.8409757
  63.8458397 129.7411450 127.9076488  69.3263740 127.1585794 133.2703566
  68.6687415 127.8485055 133.3583694  70.1304140 127.5482226 133.6137552
  59.0789622 119.6256440 130.5143131  59.6533374 119.4031621 129.7816324
  59.6660604 119.6945134 131.2671732  68.1369199 125.5130167 131.3207508
  68.6501081 126.1460159 131.8229217  68.7870423 124.9131362 130.9550868
  59.4059209 121.6560901 124.5339016  58.5696521 121.9935587 124.8548291
  59.2663979 121.5209881 123.5966153  61.3812290 116.4997689 129.2418200
  60.7276702 116.1846706 128.6174815  61.3392764 115.8773429 129.9678023
  62.4923495 126.7816984 121.1571493  61.5850556 126.5506237 121.3562642
  62.9894527 125.9854603 121.3445474  65.3991573 135.4914491 124.0768179
  64.7253272 135.7946188 124.6853137  65.7857395 136.2943571 123.7273636
  64.6150030 122.9879622 133.5665848  63.6972591 123.2094569 133.4087536
  65.0310174 123.0625933 132.7077555  65.3985078 124.3871038 128.6968528
  66.1456897 124.8992435 128.3875650  65.6676667 124.0655091 129.5572922
  63.6711728 126.8829579 125.6795483  62.7622947 126.5988612 125.7767952
  63.7006812 127.3028657 124.8198790  68.9030995 130.4936168 129.4486650
  68.4493323 129.6527078 129.5051841  68.2724962 131.1297567 129.7861430
  67.8463915 121.4228154 130.6787318  67.1086672 120.9105540 131.0097560
  68.0990689 120.9828536 129.8670595  67.3463935 132.3312665 130.3836468
  67.6386909 132.8917722 129.6648834  67.8562555 132.6241226 131.1389627
  67.9475542 114.2004406 131.2729087  68.2534419 113.3401770 130.9855002
  68.6728147 114.7922026 131.0728081  54.2399898 124.6035093 129.6610685
  54.0424298 124.0104454 128.9361751  53.6846562 124.2987303 130.3786624
  62.2196622 124.4958199 131.7805278  62.2745232 123.5432036 131.7047755
  61.4087824 124.6517638 132.2646576  63.3687816 128.4238322 123.0183561
  62.9307246 127.7074181 122.5589199  64.1098257 128.6514437 122.4568653
  60.1588982 123.1135259 129.5395657  59.3456848 123.4129430 129.9460849
  60.6547976 122.7190948 130.2570139  62.3097560 133.1093016 131.4729922
  62.2673739 133.3353862 130.5438454  63.2260259 132.8756391 131.6215723
  65.7563194 123.5777084 138.3710551  66.1112581 123.8048557 139.2305017
  66.4035325 123.9095460 137.7487806  71.4860931 126.6995519 129.0759880
  71.3478829 126.8897115 128.1481069  71.1297149 127.4614902 129.5327931
  59.6503057 120.6853615 135.1556892  60.2902436 120.5442374 134.4579855
  58.8180587 120.3988128 134.7795494  71.5130310 128.7672046 134.0871151
  71.9466817 128.6747336 134.9354205  72.2261891 128.7429547 133.4491167
  60.4263361 129.9856045 131.2691884  61.2203959 129.4906365 131.0674459
  59.7155053 129.4573908 130.9059590  65.2458205 132.3674141 135.6204252
  65.2995227 132.9365077 136.3881968  64.3772987 132.5376026 135.2558289
  56.7346124 124.1299127 127.3451637  55.8043712 124.0683582 127.5621599
  56.8303596 123.6075080 126.5488278  56.6531673 120.6553940 129.9329879
  56.9138490 121.5699273 129.8239039  57.4748846 120.1878382 130.0826491
  58.1256599 122.0691697 137.1028703  58.7979652 121.8609059 136.4541352
  57.2986385 121.8713783 136.6633935  72.3745860 128.8095747 136.6204037
  72.5681750 129.7141558 136.8663312  72.2746478 128.3503166 137.4542622
  64.0282171 118.6953638 139.1194364  63.3810086 119.3943587 139.0258840
  64.7983186 119.1289782 139.4870612  67.4360968 128.9602490 142.1944917
  67.2846475 128.7313042 141.2775001  67.4265648 129.9173091 142.2076262
  64.2046305 126.5334403 137.1791184  65.1338365 126.6845562 137.0060151
  63.7837335 126.6218423 136.3239830  63.0034637 130.5585067 134.9489721
  62.8645722 130.1903851 135.8215659  62.2149233 131.0732706 134.7773679
  63.5982789 135.6594163 126.2915258  63.7734544 135.1882207 127.1060881
  62.9115577 136.2859930 126.5196519  64.5539852 129.9366670 132.3378559
  64.2189684 129.8967440 133.2336209  64.0543798 129.2711386 131.8648969
  58.5284096 125.3434300 137.8631140  58.3903894 124.6114539 138.4642679
  59.4389019 125.2543200 137.5815328  67.4899043 127.2822704 122.6115619
  66.8728214 126.5569532 122.5148671  67.0215532 128.0432064 122.2682693
  61.1566396 125.0554259 137.3514820  61.8666015 124.4147451 137.3101438
  61.1135705 125.3067154 138.2741001  69.1453175 131.9921612 140.2721399
  69.0865721 131.3080833 139.6051982  69.5472694 132.7340602 139.8202025
  59.8695330 122.0419477 139.1710459  59.3332687 121.5910215 139.8232056
  59.2812039 122.1765386 138.4280924  58.1643874 138.8083526 133.0655118
  58.4040472 139.4402050 133.7434137  57.3213070 138.4571566 133.3520477
  59.2797589 121.5008128 121.7336923  58.4027056 121.3796929 121.3699170
  59.7555342 120.7094207 121.4815812  69.1470582 129.9561196 138.5035379
  68.2597361 129.6187118 138.6261778  69.7169133 129.2244228 138.7404144
  50.7999730 126.2885288 131.8278430  51.4870769 125.9747018 131.2399446
  50.6447858 127.1926653 131.5545682  55.6034452 121.1775485 136.2563454
  55.5192640 120.5701154 135.5213864  54.7817158 121.6684503 136.2572950
  62.6771736 134.6162649 135.4696622  62.6041907 135.4217620 135.9815927
  62.2349129 134.8154615 134.6444643  62.4661515 133.8534419 128.9799444
  61.6829037 134.3956099 129.0737668  63.1654261 134.3708398 129.3793685
  65.7758166 119.6629048 131.6233649  66.2726865 118.9099011 131.3034719
  65.0045147 119.6993365 131.0576858  73.6287923 125.3669414 133.2651940
  73.6177799 126.2494129 132.8945874  72.7605302 125.0140965 133.0706478
  65.1370419 134.5149483 137.6254781  65.8498392 135.1496948 137.5530682
  64.6460448 134.6113349 136.8094783  66.8587946 128.4200735 129.1972072
  65.9244225 128.5402198 129.0276777  67.0364615 127.5173202 128.9332082
  62.3593134 121.8046431 131.3505334  61.9890922 121.2517472 132.0386239
  62.8552227 121.2004565 130.7980334  70.2460498 124.2618055 129.7322107
  70.7120950 125.0946046 129.6582409  70.6967998 123.7963036 130.4367365
  60.1882333 132.2643926 138.4460352  60.8891792 132.8980409 138.5989746
  59.7177448 132.6058658 137.6855991  68.3136729 130.6061876 126.7308259
  68.5896573 130.4918471 127.6402133  67.4441227 130.2079361 126.6920432
  68.2177160 116.6298642 133.7713008  67.3040240 116.8602869 133.9395215
  68.6470262 116.7137086 134.6227040  67.9883619 124.8188534 136.2712902
  67.3355069 125.0664441 135.6165355  68.3663999 124.0052672 135.9375379
  64.9490793 134.8548227 130.3741072  65.1313187 134.0369883 130.8368825
  65.7723779 135.0715919 129.9365962  65.2832958 133.7816412 127.6356121
  65.8120725 133.2708867 127.0226283  65.5461178 133.4658942 128.5001654
  64.0371192 125.5608345 142.7578939  63.3611829 125.4602474 143.4281314
  64.8598826 125.4047558 143.2214936  55.7850051 131.7980281 135.3791454
  56.3703488 131.0523969 135.5119358  55.5874889 132.1084238 136.2628118
  58.6388706 134.8331529 130.3953897  57.9699081 135.3177656 129.9117937
  58.5001576 135.0800749 131.3097275  50.3767706 124.3685881 134.0995897
  50.4151805 123.8349472 134.8933015  49.8707998 123.8421087 133.4806875
  62.7793975 136.8675272 136.9936555  63.3312283 137.0306894 137.7585640
  63.1200168 137.4579710 136.3216580  57.7558468 119.2150422 137.5958440
  57.8199794 120.0765253 137.1835837  57.6925588 118.6024424 136.8630798
  57.2310740 121.2873554 141.2431474  57.8582779 120.9050632 141.8568998
  56.3738659 121.0687756 141.6087166  67.6304849 131.6936530 142.8485209
  68.1744753 132.3066488 142.3540164  67.0491694 132.2516108 143.3652222
  54.0076283 123.0949984 127.1749829  54.3029724 122.1860662 127.1216882
  53.1064319 123.0737723 126.8530831  65.9162362 134.8157248 133.9800237
  65.7913501 134.0146988 133.4711183  66.5741453 135.3103441 133.4914207
  57.5370530 121.1705980 133.1577377  56.8157116 121.7841948 133.0184851
  58.3263786 121.7063745 133.0794023  67.9797270 132.6166268 135.6079787
  67.0327606 132.4971619 135.5358114  68.3280043 131.7288766 135.6906049
  60.3396844 118.5060407 139.4318029  60.8631246 118.7522703 140.1944338
  60.1209177 119.3380441 139.0121166  55.7364125 120.7764081 127.2989154
  55.4076831 119.8961460 127.1164260  56.0903495 120.7211750 128.1865543
  64.9843704 132.4118984 131.8084139  64.8368666 131.4835691 131.9891709
  65.8097197 132.4339075 131.3241215  58.8505948 121.0637051 127.6664632
  59.1902020 121.5922972 126.9443240  59.2978068 121.4017457 128.4423198
  68.5877826 133.2347543 132.8949012  69.5124373 133.0290404 132.7573463
  68.4193129 132.9863944 133.8038354  61.5449389 119.4474102 137.1167700
  61.2046209 118.6481915 137.5188380  60.8388395 119.7475813 136.5444533
  62.1965861 116.5323414 135.5695023  63.0191930 116.0583892 135.4473913
  62.4403924 117.3113898 136.0693709  60.8374095 119.5611673 125.8657924
  61.5582458 119.9392925 125.3621641  60.2139399 120.2800549 125.9692902
  64.9805218 120.2656822 126.8016257  65.1968832 121.1481460 126.5005085
  64.4999285 119.8743035 126.0721899  59.7204439 123.2242535 133.3787001
  59.5749020 123.5382838 134.2711283  59.2429643 123.8427435 132.8257900
  61.5800822 120.2145083 133.4267891  61.5662391 119.3186176 133.0900189
  62.2973250 120.2215747 134.0606177  63.4326953 120.6482423 135.4721018
  63.1744731 121.5699494 135.4705349  62.9011993 120.2512858 136.1621482
  68.3773142 133.7533210 128.2511104  68.5510019 133.1879633 127.4984956
  68.8702033 134.5534105 128.0690594  54.1950102 125.7647879 136.3174662
  53.6503570 126.5407687 136.4494937  55.0729451 126.1118684 136.1593784
  60.9837718 119.0959463 128.6955461  61.1053629 118.1676109 128.8946348
  60.6939761 119.1098149 127.7833776  63.8528909 116.7814374 131.8322181
  63.8750605 116.8453707 130.8774160  64.2696968 115.9418882 132.0262687
  74.2312533 126.5169633 129.8701403  74.6743679 125.7676958 129.4720527
  73.3539043 126.5079769 129.4875135  69.3648314 133.0699975 125.3508002
  70.0599219 133.6906667 125.5695317  69.7071464 132.2195326 125.6260380
  54.9816123 124.8917776 139.2104819  54.2397859 125.0400411 139.7969450
  54.6608868 125.1526041 138.3471569  71.2639737 130.5199680 126.8795333
  71.7891061 130.8586953 126.1544653  71.1762090 129.5846695 126.6958467
  62.9259786 134.4333754 139.0085209  63.2346912 134.1882901 139.8807909
  63.7235268 134.6380392 138.5204080  62.9480398 136.5871663 131.2390586
  62.5085388 136.0948042 131.9323443  63.6988515 136.0444631 130.9982661
  55.4272737 132.7783204 131.2415214  56.2530757 132.4786976 130.8613857
  55.0766789 132.0090827 131.6905003  60.3954270 132.1309672 133.3112888
  59.7734280 131.4680377 133.0115115  61.0659137 132.1570804 132.6286535
  53.6281342 130.6969531 132.2004148  52.7913250 130.2691705 132.0188149
  53.6004988 130.8901974 133.1374939  60.4678798 120.6091460 142.9045394
  60.5166953 121.4853583 142.5223163  61.0101312 120.0668854 142.3317037
  70.9533643 131.1532584 142.1846531  70.1629187 131.1356723 141.6451030
  70.7166998 131.6920877 142.9395567  71.0731518 128.0025050 139.4979259
  71.1229523 127.8375058 140.4394782  70.9645442 127.1352309 139.1077140
  59.9567777 130.6813596 126.7871348  60.1055898 131.3649060 126.1338021
  60.7634221 130.6618686 127.3020804  68.3635281 123.9855978 140.8138566
  69.2645144 123.8462443 140.5222564  68.4383255 124.1510433 141.7536743
  62.6978086 121.3622833 139.6591752  61.8281396 121.6556399 139.3874341
  62.9337567 121.9463278 140.3799016  72.5749715 130.4221992 139.7421281
  72.2834524 130.7851972 140.5784742  71.9621847 129.7089000 139.5634613
  73.7745398 127.9874871 132.2623851  74.6092289 128.4264675 132.4261411
  73.9104526 127.5113525 131.4432097  70.8236904 125.5454606 138.2101339
  71.2991025 125.7382253 137.4020190  69.9002469 125.6013792 137.9644722
  57.7120410 126.7078773 127.7932417  57.4666452 125.8041103 127.9912627
  57.8816325 126.7095924 126.8511895  65.4017120 117.5802450 137.1757173
  65.9199064 118.3163477 136.8503661  65.0472253 117.8866443 138.0103932
  56.9816058 122.4407131 125.2918578  56.2885303 122.5151486 124.6358614
  56.7367810 121.6767475 125.8140095  65.6529714 114.0002732 132.6958069
  65.9331468 113.3325921 133.3218496  66.4380321 114.1931828 132.1832733
  63.4563183 133.1761726 124.2583096  62.8837150 133.7951913 123.8053567
  64.0295976 133.7261088 124.7923017  69.5238573 122.4220366 136.4429644
  70.4755995 122.5218464 136.4641868  69.3542023 121.6298635 136.9527729
  67.5452952 119.5075950 136.6289045  66.9502884 119.7880962 135.9335534
  67.2602649 119.9969850 137.4005786  66.6760442 133.4598876 125.3891678
  67.6091116 133.3944438 125.5924553  66.5883655 134.2955143 124.9306210
  69.3048459 132.7764747 122.3495625  69.2262091 132.4424610 123.2431383
  70.1258126 133.2686515 122.3487098  72.0026650 125.6426486 135.5571944
  71.9702970 124.7042487 135.7431628  72.6127274 125.7210523 134.8237769
  63.8409981 124.5122539 121.5999148  64.7869086 124.3828747 121.6687566
  63.4624226 123.7737201 122.0768576  72.1521139 122.4337529 135.6030227
  71.6360187 121.6495986 135.4160156  73.0361087 122.1056246 135.7676747
  69.8131866 116.1778545 131.5626040  69.6156687 115.8693633 132.4469372
  70.4231571 116.9040184 131.6923970  77.8203200 126.7042493 134.6977981
  78.5506589 126.4427781 135.2585684  77.2110146 125.9671215 134.7380049
  75.9018497 124.8450355 135.2952432  75.1751661 124.7106320 134.6868924
  75.4865784 125.1527184 136.1009150  63.7248674 128.5640285 143.0599805
  64.6451683 128.7418884 143.2539852  63.6898257 127.6196330 142.9079504
  62.0252898 122.4372515 121.5354033  61.1184354 122.1405628 121.6116747
  62.3028879 122.1402333 120.6688319  52.9430839 123.7578879 131.9853080
  52.6233623 122.9044187 131.6927454  52.3964267 123.9727457 132.7411047
  56.7210746 126.4741320 135.7022586  56.9396756 127.4058428 135.7210620
  57.1336520 126.1149294 136.4877390  63.6414964 116.9809405 127.6898275
  62.8315692 116.6356490 128.0653521  64.3299381 116.6716949 128.2785886
  65.5705512 116.0587452 129.3122571  66.1236551 116.4782905 129.9712594
  65.8075599 115.1323200 129.3545527  61.5938612 122.0474526 145.0925335
  61.4935338 122.9968883 145.0237426  61.3760154 121.7192764 144.2201405
  60.7951683 119.2959451 121.6766012  61.6570847 119.6214349 121.9361830
  60.9802027 118.5090947 121.1639078  52.8119099 127.3781790 133.9546201
  52.1182570 126.9635743 133.4416156  53.5592090 127.4202327 133.3579620
  68.9484319 118.1687977 128.8201235  68.3682988 118.8272781 128.4379288
  68.6820252 117.3465322 128.4088653  67.3987886 117.5693035 131.0222556
  67.8987664 117.6809569 130.2136875  68.0423494 117.2654088 131.6623364
  61.4569882 125.4771664 143.9090397  60.9736963 126.2772025 144.1154286
  61.5430821 125.4879609 142.9557841  54.7255841 127.3100044 131.8312216
  54.7026529 127.4087731 130.8794099  55.0356478 128.1565195 132.1529382
  57.3843219 129.3676199 135.9458831  58.3386473 129.3360141 135.8788762
  57.1855743 128.9066823 136.7609056  57.9742601 127.9377315 138.5129628
  58.7935490 128.4321394 138.5364465  58.2479409 127.0209283 138.4847196
  67.7309197 120.3288067 127.8757584  66.8435052 120.6137718 127.6577778
  68.1463187 120.1681831 127.0284861  71.0823734 120.3534588 131.5911923
  71.8584124 120.8431041 131.8636540  70.3571868 120.7792643 132.0483792
  73.5196292 121.0662208 132.6485864  74.1140783 120.8257944 131.9379172
  73.5922876 120.3469338 133.2759400  55.7393448 134.9095819 132.9629028
  55.6047916 134.1496219 132.3967026  55.3225510 135.6336718 132.4957817
  66.8752411 130.0932742 121.9705604  67.5788261 130.2982745 122.5863259
  66.1515060 130.6609504 122.2354687  67.7050221 125.8442603 128.0907874
  67.6485423 126.3011155 127.2515506  68.2578564 125.0833288 127.9130717
  71.5155027 121.6332335 128.9157993  71.2591961 121.2328971 129.7466201
  70.8907895 122.3476129 128.7908133  75.8267365 124.3728408 131.4229285
  75.2666923 124.4421598 132.1960847  75.2210868 124.1969393 130.7028781
  58.8962574 135.8065136 133.1747471  58.7794958 136.7510568 133.0726161
  58.0755020 135.5038697 133.5633270  68.7839108 130.5315271 124.0204064
  69.6184712 130.0996470 123.8381539  68.6223451 130.3597285 124.9480958
  68.4385001 127.0347385 125.3860403  68.3833804 126.8691656 124.4448847
  67.8131056 127.7423418 125.5422593  53.2277515 122.2715449 139.2121825
  53.8736379 121.7614403 139.7009050  53.0194667 123.0084131 139.7865251
  65.7530908 129.3396296 144.7113966  66.6222067 129.5136949 144.3500601
  65.2737659 130.1590713 144.5889695  61.7481126 116.5355494 124.9645721
  61.7359796 117.4797334 125.1213992  62.6404548 116.3525639 124.6705183
  59.9217088 136.4593397 136.3903399  60.8244335 136.4917008 136.7069894
  59.6954458 135.5293848 136.4049735  61.6770690 135.2124384 133.0513478
  60.7266321 135.2126246 132.9377850  61.9803176 134.4657119 132.5349513
  65.5633245 113.1298270 129.2191658  64.7965641 112.5756757 129.3648341
  65.9743950 113.2020139 130.0805810  57.5675006 119.4183066 143.3096839
  58.4306468 119.0619871 143.5200164  56.9940417 119.0796961 143.9972244
  77.4123383 141.0484922 134.1159240  78.0501793 140.9291670 133.4122581
  77.2944226 141.9965766 134.1747193  74.2213090 141.0012351 134.0520765
  73.8831601 140.8853415 133.1641300  75.0902858 140.6003516 134.0321771
  70.0799905 142.8547827 130.0417656  69.5164771 142.7637764 129.2733944
  69.9652300 142.0347731 130.5220149  74.7032873 142.1547202 140.0106971
  74.6921513 141.7600001 139.1387474  74.8653512 141.4213275 140.6040742
  67.6264337 144.3499019 132.8801877  68.4185629 144.0089843 132.4648176
  67.8660987 144.4593994 133.8004030  75.6599464 146.5218795 125.3532121
  75.0087444 147.1072875 124.9666135  76.4543827 147.0524990 125.4127159
  69.5855091 143.6107932 125.7519255  70.3585967 143.0636919 125.6132131
  69.9380490 144.4752181 125.9633717  71.4240134 144.9384314 138.9586155
  71.1330000 145.8429945 138.8432821  72.0597118 144.9800842 139.6730224
  72.3496341 142.3161163 135.5487514  72.9459913 142.0917185 134.8344477
  72.4071312 141.5745908 136.1512962  71.9221369 139.7700598 123.3837705
  72.1746890 139.2482119 122.6221168  70.9845928 139.6066743 123.4864389
  76.9664652 138.7736376 131.1912449  77.7527741 138.3555799 130.8402866
  77.2303356 139.6782468 131.3594097  77.1374729 144.2109227 125.8901105
  76.5020562 144.2843853 126.6022010  76.8072136 144.8002825 125.2120185
  82.3673079 138.7111609 132.0945427  83.0998251 138.1410826 132.3283257
  81.6112435 138.3233210 132.5351933  71.6417658 141.6728704 125.5862080
  71.5253916 140.9973607 126.2543165  71.7519918 141.1861078 124.7694233
  73.9849199 141.1338851 129.2908769  73.6207406 140.6069472 130.0021691
  74.8416315 140.7437320 129.1175255  79.8898499 132.4233184 136.5540036
  79.5581824 133.2928595 136.3301251  79.2944113 132.1069468 137.2334066
  73.6254686 136.1628751 124.2870118  73.7929088 137.0308987 124.6540589
  73.4351855 136.3256032 123.3631407  76.3830019 144.6245730 135.9535948
  76.0830742 145.5270768 135.8451756  76.0381078 144.3577913 136.8057101
  69.8342500 141.0759526 131.9872653  68.9092997 140.9435741 132.1950345
  70.0826914 141.8553746 132.4842595  79.7827163 137.1428270 133.6333386
  78.8744040 137.0743678 133.3392147  79.7314758 137.6200215 134.4615211
  73.6043907 138.6186408 125.2716785  73.4843532 139.0643459 126.1102265
  72.9096495 138.9671726 124.7130323  67.1951311 140.7192800 132.8216442
  67.3243693 140.9727279 133.7355854  66.5148763 141.3120508 132.5021097
  71.3650799 151.3890050 128.9206916  71.2874828 152.3397875 128.9995397
  70.7612442 151.0435922 129.5781842  73.8568028 138.5617915 141.5768283
  73.0801363 139.1211835 141.5671148  74.4958592 139.0474698 142.0983153
  81.6488809 135.3444708 135.4111260  81.0063189 135.6377241 134.7651054
  81.1443738 135.2297629 136.2164456  79.3028973 139.0907881 126.0997119
  80.2146829 139.3235268 125.9244816  78.7938620 139.6744926 125.5372197
  72.1114401 141.3703369 141.1386250  72.8529085 141.9088413 140.8621074
  71.4051386 141.9969657 141.2957802  77.5869740 143.5132509 139.7358411
  77.9953096 143.0714920 138.9913044  76.8647002 142.9385137 139.9892604
  73.9400810 138.4505116 137.1091968  74.7862006 138.8744530 137.2526617
  73.8799448 137.7938740 137.8030532  77.9098555 144.0733700 133.4910700
  77.2807418 144.2379414 132.7886768  77.5224217 144.4875309 134.2621664
  81.7887787 145.0088138 130.8455064  81.1038825 145.3887039 130.2952097
  81.8731636 145.6183464 131.5787012  77.0900256 136.1109484 138.7673142
  76.8461188 136.8651545 138.2307418  77.3660186 136.4894832 139.6020389
  79.0438719 142.6548097 137.4450408  79.2555614 143.2979857 136.7684789
  78.9968467 141.8210413 136.9772338  76.6464948 135.2665917 134.3486980
  75.7849427 135.5647171 134.6403717  76.6727382 135.4836316 133.4168012
  73.4626517 143.8108108 130.7560785  73.9264862 144.0895811 129.9665408
  73.1983315 142.9091552 130.5733876  70.3550598 143.3579589 133.6940549
  70.9251955 143.7866858 133.0558033  70.9458710 143.0762174 134.3924734
  72.3995403 139.9331260 127.5650351  73.1019446 140.3852304 128.0324277
  72.0676031 139.2915079 128.1930244  70.8475765 138.5243017 141.9401560
  70.2174425 139.2059298 142.1736957  70.7411852 138.4126099 140.9954698
  66.1420737 138.1914813 132.8667484  65.3519791 138.4472341 132.3907595
  66.6331984 139.0063151 132.9719525  80.1584547 145.5320052 135.6172765
  80.9801990 145.1300239 135.3355447  80.1546949 145.4288286 136.5688881
  68.0935482 138.5559392 129.8250961  67.2966646 138.6678086 130.3434457
  67.8661075 138.8946044 128.9591851  73.9241150 145.0804095 137.7733475
  73.9885582 145.5424503 138.6091647  73.2152074 144.4501460 137.9015785
  64.4258440 138.4445303 135.2982475  64.6766478 139.3292313 135.5640051
  64.9617988 138.2649905 134.5257567  88.2490540 141.8758801 131.9657736
  87.4954248 141.3066199 131.8101741  88.3838081 141.8421465 132.9128371
  73.6389168 146.7472203 127.6412456  73.5034842 147.5923739 128.0697304
  74.1798980 146.9491481 126.8778390  70.1256507 132.8263783 144.3026811
  69.7323453 132.2729981 144.9774455  70.9422648 133.1374361 144.6933329
  67.0918565 144.2647641 128.2140381  67.6043086 145.0590891 128.3645946
  67.7441278 143.5673931 128.1473982  68.9013450 147.3813397 130.2963134
  69.0780078 148.3031362 130.1084118  69.6970283 147.0671816 130.7257514
  73.0424468 134.2421662 141.8947068  73.7834182 134.8428815 141.8151530
  73.2742391 133.4999300 141.3365110  68.1865806 139.4278029 140.1725297
  68.0719321 138.5263286 140.4732396  67.3310324 139.6741726 139.8210114
  70.0244765 148.8991571 136.2973476  70.5752190 148.7708634 135.5250470
  69.1856241 149.1986460 135.9468369  73.8211936 145.1642699 140.6417708
  74.3540273 144.4030987 140.4117015  73.2926017 144.8716351 141.3841862
  76.9881631 130.2702765 136.1711349  76.6445901 131.1604406 136.0950460
  77.3560594 130.0804422 135.3080934  65.0567482 142.5936295 128.9899951
  65.8942704 143.0033304 128.7733659  65.2345749 141.6535737 128.9600145
  76.9531914 140.2611376 124.6783784  76.4378537 141.0315981 124.9172172
  76.6809222 139.5876512 125.3016846  74.5379025 135.1061077 129.7369023
  73.6820621 134.7167927 129.5574661  74.9505977 135.1853037 128.8768808
  76.0678172 132.6407420 134.1360583  75.5642967 132.6037555 133.3228388
  76.3608778 133.5500163 134.1957239  72.3121057 132.7246150 133.1426764
  73.1774054 132.5288958 132.7832654  72.3798566 132.4956501 134.0696121
  81.9266188 143.0143731 126.6136958  81.1495631 142.6754890 126.1692120
  82.6057669 143.0196354 125.9391923  76.7418217 138.1338468 126.5043566
  76.4368353 138.4484617 127.3553709  77.6948659 138.2119888 126.5470899
  75.1864649 144.2928691 128.1536520  74.6586010 143.5581451 127.8409757
  74.6852152 145.0703368 127.9076488  80.1657495 142.4877712 133.2703566
  79.5081169 143.1776973 133.3583694  80.9697894 142.8774144 133.6137552
  69.9183377 134.9548358 130.5143131  70.4927128 134.7323539 129.7816324
  70.5054359 135.0237052 131.2671732  78.9762954 140.8422084 131.3207508
  79.4894835 141.4752076 131.8229217  79.6264178 140.2423280 130.9550868
  70.2452964 136.9852819 124.5339016  69.4090276 137.3227505 124.8548291
  70.1057733 136.8501798 123.5966153  72.2206044 131.8289606 129.2418200
  71.5670457 131.5138624 128.6174815  72.1786518 131.2065347 129.9678023
  73.3317249 142.1108902 121.1571493  72.4244311 141.8798155 121.3562642
  73.8288281 141.3146521 121.3445474  76.2385328 150.8206409 124.0768179
  75.5647027 151.1238105 124.6853137  76.6251150 151.6235489 123.7273636
  75.4543785 138.3171540 133.5665848  74.5366346 138.5386487 133.4087536
  75.8703928 138.3917850 132.7077555  76.2378832 139.7162956 128.6968528
  76.9850651 140.2284353 128.3875650  76.5070422 139.3947008 129.5572922
  74.5105483 142.2121496 125.6795483  73.6016702 141.9280529 125.7767952
  74.5400566 142.6320575 124.8198790  79.7424750 145.8228086 129.4486650
  79.2887077 144.9818996 129.5051841  79.1118717 146.4589484 129.7861430
  78.6857670 136.7520072 130.6787318  77.9480426 136.2397458 131.0097560
  78.9384443 136.3120454 129.8670595  78.1857689 147.6604583 130.3836468
  78.4780664 148.2209640 129.6648834  78.6956310 147.9533144 131.1389627
  78.7869297 129.5296324 131.2729087  79.0928174 128.6693687 130.9855002
  79.5121902 130.1213944 131.0728081  65.0793653 139.9327011 129.6610685
  64.8818053 139.3396371 128.9361751  64.5240317 139.6279221 130.3786624
  73.0590377 139.8250117 131.7805278  73.1138986 138.8723953 131.7047755
  72.2481579 139.9809556 132.2646576  74.2081570 143.7530240 123.0183561
  73.7701000 143.0366099 122.5589199  74.9492011 143.9806355 122.4568653
  70.9982737 138.4427177 129.5395657  70.1850602 138.7421347 129.9460849
  71.4941731 138.0482866 130.2570139  73.1491314 148.4384934 131.4729922
  73.1067493 148.6645780 130.5438454  74.0654013 148.2048308 131.6215723
  76.5956948 138.9069001 138.3710551  76.9506336 139.1340474 139.2305017
  77.2429079 139.2387378 137.7487806  82.3254685 142.0287437 129.0759880
  82.1872584 142.2189033 128.1481069  81.9690904 142.7906820 129.5327931
  70.4896811 136.0145532 135.1556892  71.1296191 135.8734291 134.4579855
  69.6574342 135.7280046 134.7795494  82.3524065 144.0963964 134.0871151
  82.7860571 144.0039253 134.9354205  83.0655645 144.0721465 133.4491167
  71.2657115 145.3147963 131.2691884  72.0597714 144.8198283 131.0674459
  70.5548808 144.7865826 130.9059590  76.0851960 147.6966058 135.6204252
  76.1388982 148.2656995 136.3881968  75.2166741 147.8667943 135.2558289
  67.5739879 139.4591044 127.3451637  66.6437467 139.3975500 127.5621599
  67.6697351 138.9366997 126.5488278  67.4925428 135.9845857 129.9329879
  67.7532245 136.8991191 129.8239039  68.3142600 135.5170300 130.0826491
  68.9650353 137.3983614 137.1028703  69.6373406 137.1900977 136.4541352
  68.1380140 137.2005700 136.6633935  83.2139614 144.1387665 136.6204037
  83.4075504 145.0433475 136.8663312  83.1140232 143.6795084 137.4542622
  74.8675925 134.0245555 139.1194364  74.2203840 134.7235505 139.0258840
  75.6376940 134.4581699 139.4870612  75.0440059 141.8626320 137.1791184
  75.9732119 142.0137480 137.0060151  74.6231089 141.9510341 136.3239830
  73.8428391 145.8876985 134.9489721  73.7039477 145.5195769 135.8215659
  73.0542987 146.4024624 134.7773679  74.4376543 150.9886081 126.2915258
  74.6128299 150.5174124 127.1060881  73.7509331 151.6151847 126.5196519
  75.3933606 145.2658587 132.3378559  75.0583439 145.2259357 133.2336209
  74.8937552 144.6003303 131.8648969  69.3677850 140.6726217 137.8631140
  69.2297648 139.9406456 138.4642679  70.2782774 140.5835118 137.5815328
  78.3292798 142.6114622 122.6115619  77.7121969 141.8861450 122.5148671
  77.8609286 143.3723982 122.2682693  71.9960151 140.3846177 137.3514820
  72.7059769 139.7439369 137.3101438  71.9529459 140.6359072 138.2741001
  70.7089085 137.3711395 139.1710459  70.1726442 136.9202133 139.8232056
  70.1205793 137.5057303 138.4280924  69.0037628 154.1375444 133.0655118
  69.2434227 154.7693968 133.7434137  68.1606825 153.7863484 133.3520477
  70.1191344 136.8300046 121.7336923  69.2420810 136.7088847 121.3699170
  70.5949097 136.0386124 121.4815812  79.9864337 145.2853114 138.5035379
  79.0991116 144.9479036 138.6261778  80.5562888 144.5536145 138.7404144
  61.6393484 141.6177206 131.8278430  62.3264524 141.3038936 131.2399446
  61.4841613 142.5218570 131.5545682  66.4428206 136.5067402 136.2563454
  66.3586395 135.8993072 135.5213864  65.6210913 136.9976421 136.2572950
  73.5165490 149.9454566 135.4696622  73.4435662 150.7509538 135.9815927
  73.0742883 150.1446532 134.6444643  73.3055270 149.1826336 128.9799444
  72.5222792 149.7248017 129.0737668  74.0048015 149.7000316 129.3793685
  76.6151920 134.9920966 131.6233649  77.1120620 134.2390928 131.3034719
  75.8438902 135.0285283 131.0576858  84.4681677 140.6961331 133.2651940
  84.4571554 141.5786047 132.8945874  83.5999057 140.3432882 133.0706478
  77.6981701 143.7492653 129.1972072  76.7637979 143.8694116 129.0276777
  77.8758369 142.8465120 128.9332082  73.1986889 137.1338349 131.3505334
  72.8284676 136.5809389 132.0386239  73.6945981 136.5296482 130.7980334
  81.0854252 139.5909972 129.7322107  81.5514704 140.4237964 129.6582409
  81.5361753 139.1254954 130.4367365  71.0276087 147.5935844 138.4460352
  71.7285547 148.2272327 138.5989746  70.5571202 147.9350575 137.6855991
  79.1530483 145.9353794 126.7308259  79.4290327 145.8210388 127.6402133
  78.2834982 145.5371279 126.6920432  79.0570915 131.9590559 133.7713008
  78.1433995 132.1894786 133.9395215  79.4864016 132.0429003 134.6227040
  78.8277373 140.1480451 136.2712902  78.1748824 140.3956359 135.6165355
  79.2057753 139.3344590 135.9375379  75.7884547 150.1840145 130.3741072
  75.9706942 149.3661800 130.8368825  76.6117533 150.4007837 129.9365962
  76.1226713 149.1108330 127.6356121  76.6514479 148.6000784 127.0226283
  76.3854932 148.7950860 128.5001654  74.8764946 140.8900262 142.7578939
  74.2005583 140.7894392 143.4281314  75.6992580 140.7339476 143.2214936
  66.6243805 147.1272199 135.3791454  67.2097242 146.3815887 135.5119358
  66.4268644 147.4376156 136.2628118  69.4782461 150.1623446 130.3953897
  68.8092836 150.6469574 129.9117937  69.3395330 150.4092667 131.3097275
  61.2161460 139.6977799 134.0995897  61.2545560 139.1641390 134.8933015
  60.7101753 139.1713005 133.4806875  68.5952222 134.5442340 137.5958440
  68.6593549 135.4057171 137.1835837  68.5319343 133.9316341 136.8630798
  68.0704495 136.6165472 141.2431474  68.6976534 136.2342549 141.8568998
  67.2132414 136.3979674 141.6087166  64.8470038 138.4241901 127.1749829
  65.1423479 137.5152580 127.1216882  63.9458073 138.4029641 126.8530831
  76.7556116 150.1449165 133.9800237  76.6307256 149.3438905 133.4711183
  77.4135208 150.6395359 133.4914207  68.3764285 136.4997898 133.1577377
  67.6550870 137.1133866 133.0184851  69.1657540 137.0355663 133.0794023
  78.8191025 147.9458185 135.6079787  77.8721360 147.8263537 135.5358114
  79.1673798 147.0580683 135.6906049  71.1790598 133.8352324 139.4318029
  71.7025000 134.0814621 140.1944338  70.9602932 134.6672359 139.0121166
  66.5757879 136.1055999 127.2989154  66.2470585 135.2253378 127.1164260
  66.9297250 136.0503668 128.1865543  75.8237458 147.7410902 131.8084139
  75.6762421 146.8127609 131.9891709  76.6490952 147.7630992 131.3241215
  69.6899702 136.3928969 127.6664632  70.0295775 136.9214890 126.9443240
  70.1371823 136.7309375 128.4423198  79.4271580 148.5639460 132.8949012
  80.3518127 148.3582322 132.7573463  79.2586883 148.3155862 133.8038354
  72.3843143 134.7766019 137.1167700  72.0439964 133.9773833 137.5188380
  71.6782150 135.0767730 136.5444533  73.0359615 131.8615332 135.5695023
  73.8585684 131.3875810 135.4473913  73.2797679 132.6405816 136.0693709
  71.6767850 134.8903590 125.8657924  72.3976212 135.2684843 125.3621641
  71.0533154 135.6092467 125.9692902  75.8198972 135.5948739 126.8016257
  76.0362587 136.4773377 126.5005085  75.3393040 135.2034953 126.0721899
  70.5598194 138.5534453 133.3787001  70.4142775 138.8674756 134.2711283
  70.0823397 139.1719353 132.8257900  72.4194577 135.5437001 133.4267891
  72.4056146 134.6478094 133.0900189  73.1367005 135.5507664 134.0606177
  74.2720707 135.9774341 135.4721018  74.0138485 136.8991411 135.4705349
  73.7405748 135.5804775 136.1621482  79.2166896 149.0825128 128.2511104
  79.3903774 148.5171550 127.4984956  79.7095787 149.8826023 128.0690594
  65.0343856 141.0939797 136.3174662  64.4897324 141.8699605 136.4494937
  65.9123206 141.4410601 136.1593784  71.8231473 134.4251381 128.6955461
  71.9447384 133.4968027 128.8946348  71.5333515 134.4390067 127.7833776
  74.6922663 132.1106291 131.8322181  74.7144360 132.1745624 130.8774160
  75.1090722 131.2710800 132.0262687  85.0706287 141.8461551 129.8701403
  85.5137433 141.0968876 129.4720527  84.1932798 141.8371687 129.4875135
  80.2042069 148.3991892 125.3508002  80.8992973 149.0198585 125.5695317
  80.5465219 147.5487243 125.6260380  65.8209878 140.2209693 139.2104819
  65.0791614 140.3692329 139.7969450  65.5002622 140.4817959 138.3471569
  82.1033492 145.8491598 126.8795333  82.6284816 146.1878871 126.1544653
  82.0155844 144.9138613 126.6958467  73.7874153 151.9163581 131.2390586
  73.3479143 151.4239960 131.9323443  74.5382270 151.3736549 130.9982661
  66.2666492 148.1075122 131.2415214  67.0924511 147.8078894 130.8613857
  65.9160544 147.3382744 131.6905003  71.2348025 147.4601590 133.3112888
  70.6128034 146.7972295 133.0115115  71.9052892 147.4862722 132.6286535
  64.4675097 146.0261448 132.2004148  63.6307005 145.5983623 132.0188149
  64.4398742 146.2193892 133.1374939  71.3072552 135.9383378 142.9045394
  71.3560708 136.8145501 142.5223163  71.8495066 135.3960771 142.3317037
  70.7961532 146.0105513 126.7871348  70.9449652 146.6940978 126.1338021
  71.6027975 145.9910604 127.3020804  79.2029035 139.3147896 140.8138566
  80.1038898 139.1754361 140.5222564  79.2777010 139.4802351 141.7536743
  73.5371841 136.6914751 139.6591752  72.6675150 136.9848317 139.3874341
  73.7731321 137.2755196 140.3799016  84.6139152 143.3166789 132.2623851
  85.4486043 143.7556593 132.4261411  84.7498281 142.8405442 131.4432097
  81.6630658 140.8746524 138.2101339  82.1384780 141.0674170 137.4020190
  80.7396223 140.9305710 137.9644722  68.5514165 142.0370691 127.7932417
  68.3060207 141.1333021 127.9912627  68.7210079 142.0387842 126.8511895
  76.2410874 132.9094367 137.1757173  76.7592818 133.6455394 136.8503661
  75.8866007 133.2158361 138.0103932  67.8209812 137.7699049 125.2918578
  67.1279057 137.8443404 124.6358614  67.5761564 137.0059392 125.8140095
  76.4923469 129.3294650 132.6958069  76.7725222 128.6617839 133.3218496
  77.2774076 129.5223746 132.1832733  74.2956937 148.5053644 124.2583096
  73.7230904 149.1243831 123.8053567  74.8689731 149.0553006 124.7923017
  80.3632327 137.7512284 136.4429644  81.3149750 137.8510382 136.4641868
  80.1935777 136.9590553 136.9527729  78.3846706 134.8367867 136.6289045
  77.7896639 135.1172880 135.9335534  78.0996403 135.3261768 137.4005786
  77.5154197 148.7890794 125.3891678  78.4484870 148.7236356 125.5924553
  77.4277410 149.6247061 124.9306210  80.1442214 148.1056664 122.3495625
  80.0655845 147.7716528 123.2431383  80.9651880 148.5978432 122.3487098
  82.8420405 140.9718404 135.5571944  82.8096725 140.0334404 135.7431628
  83.4521028 141.0502440 134.8237769  74.6803736 139.8414457 121.5999148
  75.6262840 139.7120665 121.6687566  74.3017981 139.1029119 122.0768576
  82.9914893 137.7629447 135.6030227  82.4753942 136.9787904 135.4160156
  83.8754842 137.4348164 135.7676747  80.6525620 131.5070463 131.5626040
  80.4550441 131.1985551 132.4469372  81.2625326 132.2332102 131.6923970
  88.6596955 142.0334411 134.6977981  89.3900343 141.7719699 135.2585684
  88.0503900 141.2963132 134.7380049  86.7412252 140.1742273 135.2952432
  86.0145415 140.0398238 134.6868924  86.3259539 140.4819102 136.1009150
  72.8646653 137.7664433 121.5354033  71.9578108 137.4697546 121.6116747
  73.1422634 137.4694251 120.6688319  63.7824593 139.0870796 131.9853080
  63.4627378 138.2336105 131.6927454  63.2358021 139.3019375 132.7411047
  67.5604501 141.8033237 135.7022586  67.7790511 142.7350345 135.7210620
  67.9730275 141.4441212 136.4877390  74.4808719 132.3101323 127.6898275
  73.6709447 131.9648408 128.0653521  75.1693135 132.0008867 128.2785886
  76.4099267 131.3879370 129.3122571  76.9630305 131.8074823 129.9712594
  76.6469353 130.4615118 129.3545527  72.4332366 137.3766443 145.0925335
  72.3329093 138.3260800 145.0237426  72.2153908 137.0484682 144.2201405
  71.6345437 134.6251368 121.6766012  72.4964601 134.9506267 121.9361830
  71.8195782 133.8382864 121.1639078  63.6512853 142.7073708 133.9546201
  62.9576325 142.2927661 133.4416156  64.3985844 142.7494244 133.3579620
  79.7878074 133.4979895 128.8201235  79.2076743 134.1564699 128.4379288
  79.5214007 132.6757239 128.4088653  78.2381640 132.8984952 131.0222556
  78.7381419 133.0101487 130.2136875  78.8817248 132.5946005 131.6623364
  72.2963636 140.8063582 143.9090397  71.8130718 141.6063942 144.1154286
  72.3824575 140.8171527 142.9557841  65.5649596 142.6391962 131.8312216
  65.5420284 142.7379649 130.8794099  65.8750232 143.4857113 132.1529382
  68.2236974 144.6968117 135.9458831  69.1780227 144.6652059 135.8788762
  68.0249497 144.2358741 136.7609056  68.8136356 143.2669233 138.5129628
  69.6329245 143.7613311 138.5364465  69.0873163 142.3501201 138.4847196
  78.5702952 135.6579985 127.8757584  77.6828807 135.9429636 127.6577778
  78.9856941 135.4973749 127.0284861  81.9217488 135.6826506 131.5911923
  82.6977878 136.1722959 131.8636540  81.1965622 136.1084560 132.0483792
  84.3590047 136.3954125 132.6485864  84.9534537 136.1549861 131.9379172
  84.4316630 135.6761256 133.2759400  66.5787202 150.2387736 132.9629028
  66.4441670 149.4788137 132.3967026  66.1619265 150.9628636 132.4957817
  77.7146165 145.4224660 121.9705604  78.4182016 145.6274662 122.5863259
  76.9908814 145.9901422 122.2354687  78.5443976 141.1734521 128.0907874
  78.4879177 141.6303072 127.2515506  79.0972318 140.4125206 127.9130717
  82.3548782 136.9624253 128.9157993  82.0985716 136.5620889 129.7466201
  81.7301650 137.6768047 128.7908133  86.6661119 139.7020326 131.4229285
  86.1060677 139.7713515 132.1960847  86.0604623 139.5261311 130.7028781
  69.7356328 151.1357053 133.1747471  69.6188712 152.0802486 133.0726161
  68.9148775 150.8330615 133.5633270  79.6232863 145.8607189 124.0204064
  80.4578467 145.4288387 123.8381539  79.4617206 145.6889203 124.9480958
  79.2778755 142.3639302 125.3860403  79.2227559 142.1983574 124.4448847
  78.6524810 143.0715335 125.5422593  64.0671270 137.6007367 139.2121825
  64.7130134 137.0906321 139.7009050  63.8588421 138.3376048 139.7865251
  72.5874880 131.8647411 124.9645721  72.5753550 132.8089251 125.1213992
  73.4798302 131.6817557 124.6705183  70.7610842 151.7885315 136.3903399
  71.6638089 151.8208925 136.7069894  70.5348212 150.8585766 136.4049735
  72.5164444 150.5416302 133.0513478  71.5660075 150.5418163 132.9377850
  72.8196931 149.7949036 132.5349513  76.4027000 128.4590188 129.2191658
  75.6359396 127.9048675 129.3648341  76.8137705 128.5312057 130.0805810
  68.4068761 134.7474984 143.3096839  69.2700223 134.3911789 143.5200164
  67.8334172 134.4088879 143.9972244  80.9193660 158.1839745 130.0417656
  80.3558525 158.0929682 129.2733944  80.8046055 157.3639649 130.5220149
  86.4993219 161.8510712 125.3532121  85.8481198 162.4364793 124.9666135
  87.2937581 162.3816907 125.4127159  80.4248846 158.9399849 125.7519255
  81.1979722 158.3928837 125.6132131  80.7774245 159.8044099 125.9633717
  82.7615124 155.0992516 123.3837705  83.0140644 154.5774037 122.6221168
  81.8239683 154.9358661 123.4864389  87.9768484 159.5401144 125.8901105
  87.3414317 159.6135771 126.6022010  87.6465890 160.1294743 125.2120185
  82.4811412 157.0020622 125.5862080  82.3647670 156.3265525 126.2543165
  82.5913672 156.5152995 124.7694233  84.8242953 156.4630769 129.2908769
  84.4601160 155.9361390 130.0021691  85.6810069 156.0729238 129.1175255
  84.4648440 151.4920668 124.2870118  84.6322843 152.3600905 124.6540589
  84.2745609 151.6547950 123.3631407  84.4437661 153.9478326 125.2716785
  84.3237286 154.3935377 126.1102265  83.7490249 154.2963644 124.7130323
  90.1422727 154.4199799 126.0997119  91.0540583 154.6527186 125.9244816
  89.6332374 155.0036843 125.5372197  83.2389157 155.2623178 127.5650351
  83.9413201 155.7144222 128.0324277  82.9069786 154.6206997 128.1930244
  76.9814491 153.5206731 132.8667484  76.1913545 153.7764259 132.3907595
  77.4725739 154.3355068 132.9719525  78.9329237 153.8851310 129.8250961
  78.1360400 153.9970004 130.3434457  78.7054829 154.2237962 128.9591851
  77.9312320 159.5939559 128.2140381  78.4436840 160.3882809 128.3645946
  78.5835032 158.8965849 128.1473982  75.8961236 157.9228213 128.9899951
  76.7336458 158.3325221 128.7733659  76.0739504 156.9827655 128.9600145
  87.7925668 155.5903294 124.6783784  87.2772292 156.3607898 124.9172172
  87.5202977 154.9168430 125.3016846  85.3772779 150.4352994 129.7369023
  84.5214376 150.0459845 129.5574661  85.7899731 150.5144955 128.8768808
  83.1514812 148.0538067 133.1426764  84.0167809 147.8580876 132.7832654
  83.2192321 147.8248419 134.0696121  87.5811972 153.4630386 126.5043566
  87.2762107 153.7776535 127.3553709  88.5342414 153.5411806 126.5470899
  86.0258403 159.6220609 128.1536520  85.4979765 158.8873369 127.8409757
  85.5245906 160.3995285 127.9076488  80.7577131 150.2840275 130.5143131
  81.3320883 150.0615457 129.7816324  81.3448113 150.3528970 131.2671732
  81.0846718 152.3144736 124.5339016  80.2484030 152.6519423 124.8548291
  80.9451488 152.1793716 123.5966153  83.0599799 147.1581524 129.2418200
  82.4064211 146.8430541 128.6174815  83.0180273 146.5357265 129.9678023
  84.1711004 157.4400819 121.1571493  83.2638065 157.2090073 121.3562642
  84.6682036 156.6438438 121.3445474  87.0772587 155.0454873 128.6968528
  87.8244406 155.5576271 128.3875650  87.3464176 154.7238926 129.5572922
  85.3499237 157.5413414 125.6795483  84.4410456 157.2572447 125.7767952
  85.3794321 157.9612493 124.8198790  89.5251424 152.0811990 130.6787318
  88.7874181 151.5689376 131.0097560  89.7778198 151.6412371 129.8670595
  89.6263051 144.8588242 131.2729087  89.9321928 143.9985605 130.9855002
  90.3515656 145.4505862 131.0728081  75.9187407 155.2618928 129.6610685
  75.7211807 154.6688289 128.9361751  75.3634071 154.9571138 130.3786624
  85.0475325 159.0822158 123.0183561  84.6094755 158.3658017 122.5589199
  85.7885766 159.3098273 122.4568653  81.8376491 153.7719094 129.5395657
  81.0244357 154.0713265 129.9460849  82.3335485 153.3774783 130.2570139
  78.4133633 154.7882962 127.3451637  77.4831221 154.7267418 127.5621599
  78.5091105 154.2658915 126.5488278  78.3319182 151.3137775 129.9329879
  78.5925999 152.2283108 129.8239039  79.1536355 150.8462218 130.0826491
  89.1686552 157.9406539 122.6115619  88.5515723 157.2153368 122.5148671
  88.7003041 158.7015900 122.2682693  80.9585098 152.1591964 121.7336923
  80.0814565 152.0380765 121.3699170  81.4342851 151.3678042 121.4815812
  72.4787238 156.9469123 131.8278430  73.1658278 156.6330853 131.2399446
  72.3235367 157.8510488 131.5545682  77.2821961 151.8359320 136.2563454
  77.1980149 151.2284990 135.5213864  76.4604667 152.3268338 136.2572950
  87.4545675 150.3212884 131.6233649  87.9514374 149.5682846 131.3034719
  86.6832656 150.3577200 131.0576858  84.0380643 152.4630267 131.3505334
  83.6678431 151.9101307 132.0386239  84.5339736 151.8588400 130.7980334
  72.0555215 155.0269717 134.0995897  72.0939314 154.4933307 134.8933015
  71.5495507 154.5004922 133.4806875  75.6863792 153.7533819 127.1749829
  75.9817233 152.8444497 127.1216882  74.7851828 153.7321558 126.8530831
  79.2158039 151.8289816 133.1577377  78.4944625 152.4425783 133.0184851
  80.0051295 152.3647580 133.0794023  77.4151634 151.4347917 127.2989154
  77.0864340 150.5545296 127.1164260  77.7691004 151.3795585 128.1865543
  80.5293457 151.7220886 127.6664632  80.8689529 152.2506808 126.9443240
  80.9765577 152.0601293 128.4423198  82.5161604 150.2195508 125.8657924
  83.2369967 150.5976761 125.3621641  81.8926908 150.9384385 125.9692902
  86.6592727 150.9240657 126.8016257  86.8756341 151.8065295 126.5005085
  86.1786794 150.5326870 126.0721899  83.2588331 150.8728918 133.4267891
  83.2449900 149.9770011 133.0900189  83.9760759 150.8799582 134.0606177
  82.6625227 149.7543298 128.6955461  82.7841138 148.8259945 128.8946348
  82.3727270 149.7681984 127.7833776  85.5316418 147.4398209 131.8322181
  85.5538114 147.5037542 130.8774160  85.9484477 146.6002718 132.0262687
  81.6355286 161.3397431 126.7871348  81.7843406 162.0232896 126.1338021
  82.4421730 161.3202521 127.3020804  79.3907919 157.3662609 127.7932417
  79.1453961 156.4624939 127.9912627  79.5603834 157.3679759 126.8511895
  78.6603567 153.0990966 125.2918578  77.9672812 153.1735321 124.6358614
  78.4155319 152.3351310 125.8140095  87.3317223 144.6586568 132.6958069
  87.6118977 143.9909757 133.3218496  88.1167830 144.8515663 132.1832733
  85.1350692 163.8345562 124.2583096  84.5624659 164.4535749 123.8053567
  85.7083485 164.3844923 124.7923017  90.9835968 163.4348582 122.3495625
  90.9049600 163.1008446 123.2431383  91.8045635 163.9270350 122.3487098
  85.5197490 155.1706374 121.5999148  86.4656595 155.0412582 121.6687566
  85.1411735 154.4321036 122.0768576  91.4919375 146.8362380 131.5626040
  91.2944196 146.5277469 132.4469372  92.1019080 147.5624019 131.6923970
  83.7040407 153.0956351 121.5354033  82.7971863 152.7989463 121.6116747
  83.9816388 152.7986169 120.6688319  74.6218348 154.4162714 131.9853080
  74.3021132 153.5628022 131.6927454  74.0751776 154.6311292 132.7411047
  85.3202473 147.6393240 127.6898275  84.5103201 147.2940325 128.0653521
  86.0086890 147.3300784 128.2785886  87.2493021 146.7171287 129.3122571
  87.8024060 147.1366741 129.9712594  87.4863108 145.7907035 129.3545527
  82.4739192 149.9543286 121.6766012  83.3358356 150.2798184 121.9361830
  82.6589536 149.1674782 121.1639078  90.6271828 148.8271812 128.8201235
  90.0470497 149.4856616 128.4379288  90.3607761 148.0049157 128.4088653
  89.0775395 148.2276870 131.0222556  89.5775173 148.3393405 130.2136875
  89.7211003 147.9237923 131.6623364  76.4043350 157.9683879 131.8312216
  76.3814038 158.0671567 130.8794099  76.7143987 158.8149030 132.1529382
  89.4096706 150.9871903 127.8757584  88.5222561 151.2721553 127.6577778
  89.8250695 150.8265666 127.0284861  88.5539920 160.7516577 121.9705604
  89.2575770 160.9566580 122.5863259  87.8302569 161.3193339 122.2354687
  89.3837730 156.5026439 128.0907874  89.3272932 156.9594990 127.2515506
  89.9366073 155.7417123 127.9130717  93.1942536 152.2916171 128.9157993
  92.9379470 151.8912806 129.7466201  92.5695404 153.0059965 128.7908133
  90.4626617 161.1899107 124.0204064  91.2972221 160.7580305 123.8381539
  90.3010960 161.0181120 124.9480958  90.1172509 157.6931220 125.3860403
  90.0621313 157.5275491 124.4448847  89.4918565 158.4007253 125.5422593
  83.4268635 147.1939329 124.9645721  83.4147305 148.1381169 125.1213992
  84.3192057 147.0109474 124.6705183  87.2420754 143.7882106 129.2191658
  86.4753150 143.2340592 129.3648341  87.6531459 143.8603974 130.0805810
  10.6236938  31.5529411 112.0777428   9.9724918  32.1383492 111.6911441
  11.4181301  32.0835606 112.1372465   4.5492566  28.6418548 112.4764562
   5.3223442  28.0947535 112.3377438   4.9017964  29.5062798 112.6879023
   6.8858843  24.8011214 110.1083012   7.1384364  24.2792736 109.3466475
   5.9483402  24.6377360 110.2109696  12.1012204  29.2419843 112.6146412
  11.4658037  29.3154470 113.3267317  11.7709610  29.8313442 111.9365491
   6.6055132  26.7039320 112.3107387   6.4891390  26.0284224 112.9788471
   6.7157392  26.2171694 111.4939540   8.5892160  21.1939367 111.0115425
   8.7566562  22.0619604 111.3785896   8.3989329  21.3566649 110.0876714
   8.5681381  23.6497025 111.9962091   8.4481006  24.0954075 112.8347572
   7.8733969  23.9982342 111.4375630   6.3288273  36.4200666 115.6452223
   6.2512303  37.3708492 115.7240703   5.7249917  36.0746539 116.3027149
  14.2666447  24.1218498 112.8242426  15.1784303  24.3545885 112.6490123
  13.7576094  24.7055542 112.2617504  16.7525261  30.0398754 117.5700371
  16.0676299  30.4197656 117.0197404  16.8369111  30.6494081 118.3032318
   8.4263991  28.8418724 117.4806092   8.8902337  29.1206427 116.6910715
   8.1620789  27.9402169 117.2979183   7.3632877  24.9641877 114.2895657
   8.0656921  25.4162920 114.7569584   7.0313506  24.3225696 114.9175550
  23.2128014  26.9069417 118.6903043  22.4591722  26.3376815 118.5347048
  23.3475555  26.8732082 119.6373678   8.6026642  31.7782819 114.3657762
   8.4672317  32.6234355 114.7942610   9.1436454  31.9802097 113.6023696
   2.0556039  29.2958257 114.9385688   2.5680560  30.0901508 115.0891252
   2.7078752  28.5984548 114.8719289   3.8650924  32.4124014 117.0208441
   4.0417552  33.3341978 116.8329425   4.6607758  32.0982433 117.4502820
  11.9169388  25.2921992 111.4029091  11.4016012  26.0626597 111.6417478
  11.6446697  24.6187129 112.0262152  16.8903662  28.0454347 113.3382264
  16.1133105  27.7065507 112.8937427  17.5695143  28.0506970 112.6637230
  11.7055691  23.1649085 113.2288872  11.4005827  23.4795234 114.0799015
  12.6586134  23.2430504 113.2716205  10.1502123  29.3239308 114.8781826
   9.6223485  28.5892067 114.5655064   9.6489626  30.1013984 114.6321795
  15.1294969  27.5188328 119.9948872  14.4718644  28.2087590 120.0829001
  15.9335368  27.9084760 120.3382859  13.9400428  25.8732701 118.0452814
  14.4532310  26.5062693 118.5474524  14.5901652  25.2733897 117.6796174
   5.2090438  22.0163435 111.2584323   4.3727750  22.3538122 111.5793598
   5.0695208  21.8812415 110.3211460   8.2954723  27.1419518 107.8816799
   7.3881785  26.9108772 108.0807948   8.7925755  26.3457137 108.0690781
  11.2022802  35.8517025 110.8013485  10.5284501  36.1548722 111.4098443
  11.5888624  36.6546106 110.4518942  11.2016307  24.7473572 115.4213835
  11.9488126  25.2594969 115.1120957  11.4707896  24.4257625 116.2818229
   9.4742957  27.2432113 112.4040789   8.5654176  26.9591146 112.5013259
   9.5038041  27.6631192 111.5444096  14.7062224  30.8538702 116.1731957
  14.2524551  30.0129612 116.2297147  14.0756191  31.4900101 116.5106737
  13.1495164  32.6915199 117.1081775  13.4418138  33.2520256 116.3894141
  13.6593784  32.9843760 117.8634934   9.1719045  28.7840857 109.7428868
   8.7338475  28.0676716 109.2834505   9.9129486  29.0116971 109.1813959
   8.1128789  33.4695550 118.1975228   8.0704968  33.6956397 117.2683760
   9.0291488  33.2358925 118.3461029  17.2892159  27.0598054 115.8005186
  17.1510058  27.2499650 114.8726376  16.9328378  27.8217436 116.2573238
  17.3161539  29.1274581 120.8116458  17.7498046  29.0349870 121.6599512
  18.0293120  29.1032081 120.1736474   9.4014017  36.0196698 113.0160565
   9.5765773  35.5484741 113.8306187   8.7146805  36.6462464 113.2441825
  13.2930272  27.6425238 109.3360925  12.6759443  26.9172066 109.2393978
  12.8246761  28.4034599 108.9928000   3.9675103  39.1686060 119.7900425
   4.2071701  39.8004585 120.4679443   3.1244299  38.8174100 120.0765784
   5.0828818  21.8610663 108.4582230   4.2058285  21.7399463 108.0944476
   5.5586571  21.0696741 108.2061118   8.2692744  34.2136953 115.7044750
   7.4860266  34.7558633 115.7982975   8.9685489  34.7310933 116.1038991
  19.4319152  25.7271948 119.9897247  19.4209028  26.6096663 119.6191180
  18.5636531  25.3743499 119.7951784  12.6619175  28.7803270 115.9217379
  11.7275454  28.9004732 115.7522083  12.8395843  27.8775736 115.6577389
  16.0491726  24.6220589 116.4567413  16.5152179  25.4548580 116.3827716
  16.4999227  24.1565570 117.1612672  14.1167957  30.9664410 113.4553565
  14.3927801  30.8521005 114.3647439  13.2472456  30.5681895 113.4165738
  10.7522021  35.2150761 117.0986379  10.9344416  34.3972417 117.5614131
  11.5755008  35.4318453 116.6611269  11.0864187  34.1418946 114.3601427
  11.6151953  33.6311401 113.7471589  11.3492407  33.8261476 115.2246960
   4.4419935  35.1934063 117.1199203   3.7730310  35.6780190 116.6363243
   4.3032805  35.4403283 118.0342582  11.7193591  35.1759782 120.7045544
  11.5944730  34.3749522 120.1956489  12.3772682  35.6705975 120.2159514
  13.7828499  32.9768802 122.3325094  12.8358835  32.8574153 122.2603421
  14.1311272  32.0891300 122.4151355  10.7874932  32.7721518 118.5329446
  10.6399895  31.8438226 118.7137016  11.6128426  32.7941609 118.0486521
  14.3909054  33.5950077 119.6194319  15.3155602  33.3892938 119.4818770
  14.2224358  33.3466478 120.5283660  10.7836447  20.6259356 113.5261563
  11.0000061  21.5083994 113.2250391  10.3030514  20.2345569 112.7967205
  14.1804371  34.1135744 114.9756410  14.3541248  33.5482167 114.2230263
  14.6733262  34.9136639 114.7935900  20.0343762  26.8772167 116.5946710
  20.4774908  26.1279493 116.1965833  19.1570272  26.8682304 116.2120442
  15.1679543  33.4302509 112.0753309  15.8630448  34.0509201 112.2940623
  15.5102693  32.5797860 112.3505686  17.0670966  30.8802214 113.6040639
  17.5922290  31.2189487 112.8789959  16.9793319  29.9449230 113.4203774
   8.7511627  36.9474198 117.9635893   8.3116617  36.4550576 118.6568749
   9.5019744  36.4047165 117.7227968   5.7599006  31.0416130 113.5116655
   5.9087126  31.7251594 112.8583327   6.5665449  31.0221220 114.0266110
  19.5776626  28.3477406 118.9869158  20.4123518  28.7867210 119.1506718
  19.7135755  27.8716059 118.1677403   9.2594411  33.5364260 110.9828402
   8.6868379  34.1554448 110.5298874   9.8327205  34.0863622 111.5168324
  12.4791671  33.8201411 112.1136984  13.4122344  33.7546972 112.3169860
  12.3914884  34.6557677 111.6551517  15.1079688  33.1367281 109.0740932
  15.0293319  32.8027145 109.9676690  15.9289355  33.6289049 109.0732404
   9.6441210  24.8725073 108.3244455  10.5900315  24.7431281 108.3932873
   9.2655455  24.1339735 108.8013883  23.6234429  27.0645027 121.4223287
  24.3537817  26.8030315 121.9830991  23.0141374  26.3273749 121.4625355
   7.8284127  22.7975050 108.2599340   6.9215583  22.5008162 108.3362053
   8.1060108  22.5004868 107.3933626  13.5340426  20.6890602 114.6002890
  12.6466281  20.9740252 114.3823085  13.9494415  20.5284365 113.7530167
  12.6783640  30.4535276 108.6950910  13.3819490  30.6585279 109.3108566
  11.9546288  31.0212038 108.9599994  13.5081450  26.2045138 114.8153180
  13.4516651  26.6613689 113.9760813  14.0609792  25.4435822 114.6376023
  17.3186256  21.9934869 115.6403300  17.0623190  21.5931505 116.4711508
  16.6939124  22.7078663 115.5153439  21.6298594  24.7330943 118.1474591
  21.0698152  24.8024132 118.9206153  21.0242097  24.5571927 117.4274088
   4.6993803  36.1667670 119.8992778   4.5826187  37.1113102 119.7971468
   3.8786249  35.8641231 120.2878577  14.5870337  30.8917806 110.7449370
  15.4215941  30.4599004 110.5626845  14.4254680  30.7199819 111.6726265
  14.2416229  27.3949919 112.1105710  14.1865033  27.2294190 111.1694154
  13.6162285  28.1025952 112.2667899   7.4801919  35.5726918 119.7758785
   6.5297550  35.5728780 119.6623157   7.7834405  34.8259653 119.2594819
  23.2154612  41.4087457 120.8404547  23.8533022  41.2894204 120.1367887
  23.0975455  42.3568301 120.8992499  20.0244318  41.3614885 120.7766072
  19.6862830  41.2455949 119.8886607  20.8934087  40.9606050 120.7567078
  15.8831134  43.2150361 116.7662963  15.3195999  43.1240298 115.9979251
  15.7683529  42.3950266 117.2465455  20.5064101  42.5149736 126.7352277
  20.4952742  42.1202535 125.8632781  20.6684741  41.7815809 127.3286049
  13.4295566  44.7101553 119.6047183  14.2216858  44.3692377 119.1893483
  13.6692216  44.8196528 120.5249337  21.4630693  46.8821329 112.0777428
  20.8118673  47.4675409 111.6911441  22.2575056  47.4127524 112.1372465
  15.3886320  43.9710466 112.4764562  16.1617196  43.4239453 112.3377438
  15.7411719  44.8354715 112.6879023  17.2271363  45.2986848 125.6831461
  16.9361229  46.2032479 125.5678128  17.8628347  45.3403376 126.3975531
  18.1527569  42.6763697 122.2732821  18.7491142  42.4519719 121.5589784
  18.2102541  41.9348442 122.8758269  17.7252598  40.1303132 110.1083012
  17.9778119  39.6084653 109.3466475  16.7877157  39.9669278 110.2109696
  22.7695881  39.1338910 117.9157755  23.5558970  38.7158334 117.5648172
  23.0334585  40.0385003 118.0839404  22.9405958  44.5711761 112.6146412
  22.3051791  44.6446387 113.3267317  22.6103364  45.1605360 111.9365491
  28.1704308  39.0714144 118.8190734  28.9029480  38.5013361 119.0528563
  27.4143664  38.6835744 119.2597239  17.4448887  42.0331238 112.3107387
  17.3285145  41.3576141 112.9788471  17.5551147  41.5463612 111.4939540
  19.7880428  41.4941385 116.0154076  19.4238635  40.9672006 116.7266998
  20.6447543  41.1039854 115.8420562  25.6929728  32.7835718 123.2785342
  25.3613053  33.6531129 123.0546557  25.0975342  32.4672002 123.9579373
  19.4285915  36.5231285 111.0115425  19.5960317  37.3911521 111.3785896
  19.2383084  36.6858567 110.0876714  22.1861248  44.9848264 122.6781255
  21.8861971  45.8873303 122.5697062  21.8412307  44.7180447 123.5302408
  15.6373729  41.4362061 118.7117959  14.7124226  41.3038275 118.9195651
  15.8858142  42.2156280 119.2087902  25.5858392  37.5030804 120.3578692
  24.6775269  37.4346212 120.0637453  25.5345987  37.9802749 121.1860518
  19.4075135  38.9788942 111.9962091  19.2874761  39.4245993 112.8347572
  18.7127724  39.3274260 111.4375630  12.9982540  41.0795334 119.5461749
  13.1274921  41.3329813 120.4601160  12.3179992  41.6723042 119.2266404
  17.1682028  51.7492584 115.6452223  17.0906057  52.7000409 115.7240703
  16.5643671  51.4038457 116.3027149  19.6599257  38.9220450 128.3013590
  18.8832591  39.4814370 128.2916454  20.2989820  39.4077233 128.8228460
  27.4520038  35.7047242 122.1356566  26.8094418  35.9979776 121.4896361
  26.9474966  35.5900163 122.9409763  25.1060202  39.4510416 112.8242426
  26.0178058  39.6837802 112.6490123  24.5969849  40.0347460 112.2617504
  17.9145630  41.7305903 127.8631557  18.6560314  42.2690947 127.5866380
  17.2082615  42.3572192 128.0203108  23.3900969  43.8735043 126.4603718
  23.7984325  43.4317454 125.7158350  22.6678231  43.2987671 126.7137911
  19.7432039  38.8107650 123.8337275  20.5893234  39.2347064 123.9771924
  19.6830677  38.1541274 124.5275838  23.7129784  44.4336234 120.2156007
  23.0838646  44.5981948 119.5132075  23.3255446  44.8477844 120.9866971
  27.5919016  45.3690672 117.5700371  26.9070054  45.7489573 117.0197404
  27.6762865  45.9785999 118.3032318  22.8931485  36.4712019 125.4918449
  22.6492416  37.2254079 124.9552724  23.1691415  36.8497366 126.3265696
  24.8469947  43.0150631 124.1695714  25.0586843  43.6582391 123.4930095
  24.7999696  42.1812947 123.7017644  22.4496176  35.6268452 121.0732286
  21.5880655  35.9249705 121.3649024  22.4758611  35.8438850 120.1413319
  19.2657746  44.1710642 117.4806092  19.7296091  44.4498345 116.6910715
  19.0014544  43.2694087 117.2979183  16.1581827  43.7182124 120.4185855
  16.7283184  44.1469392 119.7803340  16.7489939  43.4364708 121.1170041
  18.2026632  40.2933794 114.2895657  18.9050675  40.7454838 114.7569584
  17.8707260  39.6517613 114.9175550  11.9451966  38.5517347 119.5912791
  11.1551020  38.8074876 119.1152901  12.4363213  39.3665685 119.6964831
  25.9615775  45.8922586 122.3418072  26.7833219  45.4902774 122.0600753
  25.9578178  45.7890820 123.2934187  13.8966711  38.9161926 116.5496267
  13.0997874  39.0280621 117.0679763  13.6692303  39.2548579 115.6837158
  19.7272379  45.4406630 124.4978782  19.7916811  45.9027037 125.3336954
  19.0183303  44.8103995 124.6261092  10.2289669  38.8047838 122.0227782
  10.4797707  39.6894848 122.2885358  10.7649217  38.6252439 121.2502873
  34.0521768  42.2361335 118.6903043  33.2985477  41.6668733 118.5347048
  34.1869310  42.2023999 119.6373678  19.4420396  47.1074737 114.3657762
  19.3066071  47.9526273 114.7942610  19.9830209  47.3094015 113.6023696
  12.8949794  44.6250175 114.9385688  13.4074314  45.4193425 115.0891252
  13.5472507  43.9276466 114.8719289  14.7044679  47.7415931 117.0208441
  14.8811307  48.6633896 116.8329425  15.5001512  47.4274351 117.4502820
  21.0688873  47.7298304 128.4958105  20.6252727  46.9434682 128.1779009
  21.7306086  47.9177454 127.8301995  15.8275994  49.2594105 123.0218783
  16.3783419  49.1311169 122.2495777  14.9887470  49.5588994 122.6713676
  23.1670111  48.0101104 126.5239506  23.1488586  48.8309985 126.0319775
  24.0890031  47.8855179 126.7489647  19.6243165  45.5245233 127.3663014
  20.1571502  44.7633521 127.1362322  19.0957246  45.2318885 128.1087169
  22.7912860  30.6305299 122.8956656  22.4477129  31.5206941 122.8195766
  23.1591823  30.4406957 122.0326241  10.8598711  42.9538829 115.7145258
  11.6973933  43.3635838 115.4978966  11.0376978  42.0138272 115.6845452
  22.7563143  40.6213910 111.4029091  22.2409766  41.3918515 111.6417478
  22.4840451  39.9479046 112.0262152  20.3410254  35.4663611 116.4614329
  19.4851850  35.0770461 116.2819968  20.7537206  35.5455572 115.6014115
  21.8709400  33.0009954 120.8605889  21.3674196  32.9640089 120.0473694
  22.1640007  33.9102697 120.9202546  18.1152286  33.0848684 119.8672071
  18.9805283  32.8891493 119.5077960  18.1829795  32.8559036 120.7941428
  27.7297417  43.3746265 113.3382264  26.9526860  43.0357424 112.8937427
  28.4088898  43.3798888 112.6637230  22.5449446  38.4941002 113.2288872
  22.2399581  38.8087151 114.0799015  23.4979888  38.5722422 113.2716205
  20.9895878  44.6531226 114.8781826  20.4617239  43.9183985 114.5655064
  20.4883380  45.4305902 114.6321795  25.9688724  42.8480246 119.9948872
  25.3112398  43.5379507 120.0829001  26.7729123  43.2376678 120.3382859
  15.7214605  35.3150892 117.2388438  16.2958357  35.0926073 116.5061631
  16.3085588  35.3839586 117.9917039  24.7794183  41.2024619 118.0452814
  25.2926064  41.8354611 118.5474524  25.4295406  40.6025814 117.6796174
  16.0484192  37.3455353 111.2584323  15.2121505  37.6830039 111.5793598
  15.9088962  37.2104333 110.3211460  18.0237273  32.1892141 115.9663507
  17.3701685  31.8741158 115.3420122  17.9817747  31.5667881 116.6923330
  19.1348478  42.4711436 107.8816799  18.2275540  42.2400689 108.0807948
  19.6319510  41.6749055 108.0690781  22.0416557  51.1808943 110.8013485
  21.3678256  51.4840640 111.4098443  22.4282379  51.9838023 110.4518942
  21.2575013  38.6774074 120.2911155  20.3397575  38.8989021 120.1332843
  21.6735157  38.7520385 119.4322862  22.0410061  40.0765490 115.4213835
  22.7881880  40.5886887 115.1120957  22.3101651  39.7549543 116.2818229
  20.3136711  42.5724031 112.4040789  19.4047931  42.2883063 112.5013259
  20.3431795  42.9923109 111.5444096  25.5455979  46.1830620 116.1731957
  25.0918306  45.3421530 116.2297147  24.9149945  46.8192019 116.5106737
  24.4888898  37.1122606 117.4032624  23.7511655  36.5999992 117.7342867
  24.7415672  36.6722988 116.5915901  23.9888918  48.0207117 117.1081775
  24.2811892  48.5812174 116.3894141  24.4987539  48.3135678 117.8634934
  24.5900526  29.8898858 117.9974394  24.8959402  29.0296222 117.7100309
  25.3153130  30.4816478 117.7973387  10.8824882  40.2929545 116.3855992
  10.6849282  39.6998905 115.6607058  10.3271546  39.9881755 117.1031930
  18.8621605  40.1852651 118.5050585  18.9170215  39.2326488 118.4293061
  18.0512807  40.3412090 118.9891883  20.0112799  44.1132774 109.7428868
  19.5732229  43.3968633 109.2834505  20.7523240  44.3408889 109.1813959
  16.8013965  38.8029711 116.2640964  15.9881831  39.1023882 116.6706156
  17.2972959  38.4085400 116.9815446  18.9522543  48.7987468 118.1975228
  18.9098722  49.0248314 117.2683760  19.8685242  48.5650843 118.3461029
  22.3988177  39.2671535 125.0955857  22.7537565  39.4943009 125.9550323
  23.0460308  39.5989912 124.4733113  28.1285914  42.3889971 115.8005186
  27.9903813  42.5791567 114.8726376  27.7722133  43.1509354 116.2573238
  16.2928040  36.3748067 121.8802198  16.9327419  36.2336826 121.1825162
  15.4605571  36.0882580 121.5040800  28.1555294  44.4566498 120.8116458
  28.5891800  44.3641787 121.6599512  28.8686874  44.4323999 120.1736474
  17.0688344  45.6750497 117.9937191  17.8628942  45.1800817 117.7919766
  16.3580036  45.1468360 117.6304896  21.8883188  48.0568592 122.3449559
  21.9420211  48.6259529 123.1127274  21.0197970  48.2270477 121.9803596
  13.3771107  39.8193579 114.0696944  12.4468696  39.7578034 114.2866906
  13.4728579  39.2969531 113.2733585  13.2956656  36.3448391 116.6575185
  13.5563474  37.2593725 116.5484346  14.1173829  35.8772834 116.8071798
  14.7681582  37.7586149 123.8274010  15.4404635  37.5503511 123.1786659
  13.9411368  37.5608235 123.3879242  29.0170843  44.4990199 123.3449343
  29.2106733  45.4036010 123.5908618  28.9171461  44.0397618 124.1787928
  20.6707154  34.3848090 125.8439671  20.0235069  35.0838039 125.7504147
  21.4408169  34.8184234 126.2115919  24.0785952  44.6496942 128.9190224
  23.9271458  44.4207493 128.0020308  24.0690631  45.6067543 128.9321569
  20.8471288  42.2228854 123.9036490  21.7763348  42.3740014 123.7305458
  20.4262318  42.3112875 123.0485137  19.6459620  46.2479519 121.6735028
  19.5070706  45.8798303 122.5460966  18.8574216  46.7627158 121.5018986
  20.2407772  51.3488615 113.0160565  20.4159528  50.8776659 113.8306187
  19.5540560  51.9754382 113.2441825  21.1964835  45.6261122 119.0623866
  20.8614668  45.5861892 119.9581516  20.6968781  44.9605838 118.5894276
  15.1709079  41.0328752 124.5876447  15.0328877  40.3008990 125.1887986
  16.0814003  40.9437652 124.3060635  24.1324027  42.9717156 109.3360925
  23.5153197  42.2463984 109.2393978  23.6640515  43.7326516 108.9928000
  17.7991380  40.7448711 124.0760127  18.5090998  40.1041903 124.0346745
  17.7560688  40.9961606 124.9986307  25.7878158  47.6816064 126.9966706
  25.7290705  46.9975284 126.3297289  26.1897677  48.4235054 126.5447332
  14.8068857  54.4977978 119.7900425  15.0465455  55.1296502 120.4679443
  13.9638054  54.1466018 120.0765784  15.9222573  37.1902580 108.4582230
  15.0452039  37.0691381 108.0944476  16.3980326  36.3988659 108.2061118
  25.7895566  45.6455648 125.2280685  24.9022344  45.3081570 125.3507084
  26.3594117  44.9138679 125.4649451   7.4424713  41.9779740 118.5523737
   8.1295753  41.6641470 117.9644752   7.2872842  42.8821105 118.2790988
  12.2459435  36.8669937 122.9808761  12.1617624  36.2595606 122.2459171
  11.4242141  37.3578955 122.9818257  19.3196719  50.3057101 122.1941929
  19.2466891  51.1112072 122.7061233  18.8774112  50.5049066 121.3689950
  19.1086499  49.5428871 115.7044750  18.3254021  50.0850551 115.7982975
  19.8079244  50.0602850 116.1038991  22.4183149  35.3523500 118.3478956
  22.9151848  34.5993462 118.0280026  21.6470130  35.3887817 117.7822165
  30.2712906  41.0563866 119.9897247  30.2602782  41.9388581 119.6191180
  29.4030286  40.7035416 119.7951784  21.7795403  50.2043935 124.3500087
  22.4923375  50.8391399 124.2775989  21.2885431  50.3007801 123.5340089
  23.5012930  44.1095187 115.9217379  22.5669208  44.2296650 115.7522083
  23.6789598  43.2067654 115.6577389  19.0018118  37.4940883 118.0750640
  18.6315905  36.9411923 118.7631546  19.4977210  36.8899017 117.5225640
  26.8885481  39.9512507 116.4567413  27.3545933  40.7840498 116.3827716
  27.3392981  39.4857488 117.1612672  16.8307316  47.9538378 125.1705658
  17.5316776  48.5874861 125.3235052  16.3602431  48.2953110 124.4101297
  24.9561712  46.2956328 113.4553565  25.2321556  46.1812922 114.3647439
  24.0866211  45.8973813 113.4165738  24.8602144  32.3193094 120.4958314
  23.9465223  32.5497320 120.6640521  25.2895245  32.4031538 121.3472347
  24.6308602  40.5082986 122.9958209  23.9780052  40.7558893 122.3410661
  25.0088982  39.6947124 122.6620686  21.5915776  50.5442679 117.0986379
  21.7738171  49.7264335 117.5614131  22.4148762  50.7610371 116.6611269
  21.9257941  49.4710864 114.3601427  22.4545708  48.9603318 113.7471589
  22.1886161  49.1553394 115.2246960  12.4275034  47.4874733 122.1036761
  13.0128471  46.7418421 122.2364665  12.2299873  47.7978690 122.9873425
  15.2813689  50.5225981 117.1199203  14.6124065  51.0072108 116.6363243
  15.1426559  50.7695201 118.0342582   7.0192689  40.0580333 120.8241204
   7.0576788  39.5243924 121.6178322   6.5132982  39.5315539 120.2052181
  19.4218958  52.5569724 123.7181862  19.9737266  52.7201346 124.4830947
  19.7625151  53.1474162 123.0461886  24.2729832  47.3830982 129.5730516
  24.8169736  47.9960940 129.0785471  23.6916677  47.9410560 130.0897529
  10.6501267  38.7844436 113.8995135  10.9454708  37.8755114 113.8462189
   9.7489302  38.7632175 113.5776138  22.5587345  50.5051700 120.7045544
  22.4338485  49.7041439 120.1956489  23.2166436  50.9997893 120.2159514
  14.1795514  36.8600432 119.8822684  13.4582099  37.4736400 119.7430157
  14.9688769  37.3958197 119.8039330  24.6222254  48.3060720 122.3325094
  23.6752589  48.1866071 122.2603421  24.9705027  47.4183218 122.4151355
  12.3789108  36.4658533 114.0234461  12.0501814  35.5855912 113.8409566
  12.7328479  36.4106202 114.9110850  21.6268687  48.1013436 118.5329446
  21.4793649  47.1730143 118.7137016  22.4522180  48.1233527 118.0486521
  15.4930931  36.7531503 114.3909938  15.8327004  37.2817424 113.6688547
  15.9403052  37.0911909 115.1668505  25.2302809  48.9241995 119.6194319
  26.1549356  48.7184856 119.4818770  25.0618112  48.6758396 120.5283660
  18.1874372  35.1368554 123.8413006  17.8471192  34.3376367 124.2433686
  17.4813378  35.4370265 123.2689839  18.8390844  32.2217866 122.2940329
  19.6616913  31.7478344 122.1719220  19.0828907  33.0008350 122.7939016
  17.4799078  35.2506125 112.5903231  18.2007441  35.6287377 112.0866948
  16.8564383  35.9695001 112.6938209  21.6230201  35.9551274 113.5261563
  21.8393816  36.8375911 113.2250391  21.1424268  35.5637487 112.7967205
  16.3629423  38.9136987 120.1032308  16.2174003  39.2277290 120.9956589
  15.8854626  39.5321887 119.5503207  18.2225806  35.9039535 120.1513197
  18.2087374  35.0080628 119.8145495  18.9398234  35.9110198 120.7851484
  20.0751936  36.3376875 122.1966325  19.8169714  37.2593946 122.1950655
  19.5436977  35.9407309 122.8866789  25.0198125  49.4427662 114.9756410
  25.1935003  48.8774085 114.2230263  25.5127016  50.2428557 114.7935900
  10.8375085  41.4542331 123.0419969  10.2928553  42.2302139 123.1740243
  11.7154435  41.8013136 122.8839091  17.6262701  34.7853915 115.4200768
  17.7478613  33.8570561 115.6191655  17.3364744  34.7992601 114.5079083
  20.4953892  32.4708825 118.5567487  20.5175589  32.5348159 117.6019467
  20.9121951  31.6313334 118.7507994  30.8737516  42.2064085 116.5946710
  31.3168662  41.4571410 116.1965833  29.9964026  42.1974221 116.2120442
  26.0073298  48.7594426 112.0753309  26.7024202  49.3801119 112.2940623
  26.3496448  47.9089778 112.3505686  27.9064721  46.2094132 113.6040639
  28.4316045  46.5481405 112.8789959  27.8187073  45.2741147 113.4203774
  19.5684769  50.1228206 125.7330516  19.8771896  49.8777352 126.6053216
  20.3660251  50.3274844 125.2449386  19.5905381  52.2766115 117.9635893
  19.1510372  51.7842494 118.6568749  20.3413498  51.7339083 117.7227968
  12.0697720  48.4677656 117.9660521  12.8955740  48.1681428 117.5859164
  11.7191772  47.6985279 118.4150309  17.0379254  47.8204124 120.0358194
  16.4159263  47.1574829 119.7360422  17.7084120  47.8465256 119.3531842
  10.2706325  46.3863983 118.9249454   9.4338234  45.9586157 118.7433455
  10.2429971  46.5796426 119.8620245  27.5958627  46.8427036 128.9091837
  26.8054170  46.8251174 128.3696337  27.3591981  47.3815329 129.6640874
  27.7156502  43.6919502 126.2224566  27.7654507  43.5269509 127.1640089
  27.6070425  42.8246761 125.8322447  16.5992760  46.3708048 113.5116655
  16.7480881  47.0543512 112.8583327  17.4059204  46.3513138 114.0266110
  25.0060264  39.6750430 127.5383873  25.9070127  39.5356895 127.2467870
  25.0808239  39.8404885 128.4782050  19.3403069  37.0517285 126.3837059
  18.4706379  37.3450851 126.1119647  19.5762550  37.6357730 127.1044322
  29.2174699  46.1116444 126.4666587  28.9259507  46.4746424 127.3030048
  28.6046830  45.3983452 126.2879919  30.4170381  43.6769323 118.9869158
  31.2517272  44.1159127 119.1506718  30.5529510  43.2007977 118.1677403
  27.4661887  41.2349058 124.9346645  27.9416008  41.4276704 124.1265497
  26.5427452  41.2908244 124.6890029  14.3545393  42.3973225 114.5177724
  14.1091435  41.4935555 114.7157934  14.5241308  42.3990376 113.5757202
  22.0442103  33.2696902 123.9002479  22.5624047  34.0057929 123.5748968
  21.6897236  33.5760895 124.7349238  13.6241041  38.1301583 112.0163885
  12.9310286  38.2045938 111.3603921  13.3792793  37.3661927 112.5385402
  22.2954697  29.6897184 119.4203376  22.5756451  29.0220373 120.0463802
  23.0805304  29.8826280 118.9078040  20.0988166  48.8656178 110.9828402
  19.5262133  49.4846365 110.5298874  20.6720960  49.4155540 111.5168324
  26.1663556  38.1114818 123.1674951  27.1180979  38.2112916 123.1887175
  25.9967006  37.3193087 123.6773035  24.1877935  35.1970401 123.3534352
  23.5927867  35.4775414 122.6580841  23.9027632  35.6864302 124.1251093
  23.3185426  49.1493328 112.1136984  24.2516099  49.0838890 112.3169860
  23.2308639  49.9849595 111.6551517  25.9473442  48.4659199 109.0740932
  25.8687074  48.1319062 109.9676690  26.7683109  48.9580967 109.0732404
  28.6451634  41.3320938 122.2817251  28.6127954  40.3936939 122.4676934
  29.2552257  41.4104975 121.5483075  20.4834964  40.2016991 108.3244455
  21.4294069  40.0723199 108.3932873  20.1049209  39.4631653 108.8013883
  28.7946122  38.1231981 122.3275534  28.2785171  37.3390438 122.1405463
  29.6786071  37.7950698 122.4922053  26.4556849  31.8672997 118.2871346
  26.2581670  31.5588085 119.1714678  27.0656555  32.5934636 118.4169276
  34.4628183  42.3936945 121.4223287  35.1931572  42.1322233 121.9830991
  33.8535129  41.6565667 121.4625355  32.5443481  40.5344807 122.0197739
  31.8176644  40.4000772 121.4114230  32.1290767  40.8421636 122.8254457
  20.3673657  44.2534737 129.7845112  21.2876666  44.4313336 129.9785158
  20.3323240  43.3090782 129.6324811  18.6677882  38.1266967 108.2599340
  17.7609337  37.8300080 108.3362053  18.9453863  37.8296785 107.3933626
   9.5855822  39.4473331 118.7098386   9.2658606  38.5938639 118.4172760
   9.0389250  39.6621909 119.4656354  13.3635730  42.1635772 122.4267893
  13.5821739  43.0952879 122.4455927  13.7761503  41.8043746 123.2122697
  20.2839947  32.6703857 114.4143581  19.4740676  32.3250942 114.7898827
  20.9724364  32.3611401 115.0031193  22.2130496  31.7481904 116.0367878
  22.7661534  32.1677357 116.6957901  22.4500582  30.8217652 116.0790834
  17.4376666  34.9853903 108.4011319  18.2995830  35.3108801 108.6607136
  17.6227010  34.1985398 107.8884385   9.4544082  43.0676242 120.6791508
   8.7607553  42.6530195 120.1661462  10.2017073  43.1096779 120.0824927
  25.5909303  33.8582429 115.5446542  25.0107972  34.5167233 115.1624594
  25.3245235  33.0359774 115.1333960  24.0412869  33.2587487 117.7467862
  24.5412647  33.3704021 116.9382181  24.6848477  32.9548540 118.3868671
  11.3680825  42.9994496 118.5557523  11.3451513  43.0982183 117.6039406
  11.6781461  43.8459647 118.8774689  14.0268202  45.0570651 122.6704137
  14.9811456  45.0254593 122.6034069  13.8280726  44.5961275 123.4854363
  14.6167585  43.6271767 125.2374935  15.4360474  44.1215846 125.2609772
  14.8904392  42.7103735 125.2092502  24.3734181  36.0182519 114.6002890
  23.4860036  36.3032170 114.3823085  24.7888170  35.8576283 113.7530167
  27.7248717  36.0429040 118.3157230  28.5009107  36.5325493 118.5881846
  26.9996851  36.4687095 118.7729099  30.1621275  36.7556660 119.3731170
  30.7565766  36.5152396 118.6624478  30.2347859  36.0363790 120.0004706
  12.3818431  50.5990270 119.6874335  12.2472899  49.8390671 119.1212333
  11.9650493  51.3231170 119.2203124  23.5177394  45.7827194 108.6950910
  24.2213244  45.9877197 109.3108566  22.7940043  46.3503956 108.9599994
  24.3475204  41.5337055 114.8153180  24.2910406  41.9905607 113.9760813
  24.9003547  40.7727740 114.6376023  28.1580010  37.3226787 115.6403300
  27.9016945  36.9223423 116.4711508  27.5332878  38.0370581 115.5153439
  32.4692348  40.0622860 118.1474591  31.9091906  40.1316050 118.9206153
  31.8635852  39.8863845 117.4274088  15.5387557  51.4959588 119.8992778
  15.4219941  52.4405020 119.7971468  14.7180003  51.1933149 120.2878577
  25.4264092  46.2209723 110.7449370  26.2609696  45.7890922 110.5626845
  25.2648435  46.0491737 111.6726265  25.0809984  42.7241837 112.1105710
  25.0258788  42.5586108 111.1694154  24.4556039  43.4317869 112.2667899
  22.3955891  45.0290748 131.4359272  23.2647051  45.2031401 131.0745907
  21.9162642  45.8485165 131.3135002  18.3906109  32.2249946 111.6891028
  18.3784779  33.1691785 111.8459299  19.2829531  32.0420091 111.3950489
  16.5642071  52.1487849 123.1148706  17.4669318  52.1811460 123.4315201
  16.3379441  51.2188300 123.1295042  18.3195673  50.9018836 119.7758785
  17.3691304  50.9020698 119.6623157  18.6228159  50.1551571 119.2594819
  22.2058229  28.8192722 115.9436965  21.4390625  28.2651209 116.0893647
  22.6168934  28.8914591 116.8051116  34.0548367  56.7379374 120.8404547
  34.6926777  56.6186122 120.1367887  33.9369210  57.6860218 120.8992499
  30.8638073  56.6906802 120.7766072  30.5256585  56.5747867 119.8886607
  31.7327841  56.2897968 120.7567078  26.7224889  58.5442279 116.7662963
  26.1589754  58.4532216 115.9979251  26.6077284  57.7242183 117.2465455
  31.3457856  57.8441654 126.7352277  31.3346497  57.4494452 125.8632781
  31.5078495  57.1107727 127.3286049  24.2689321  60.0393470 119.6047183
  25.0610613  59.6984295 119.1893483  24.5085971  60.1488445 120.5249337
  32.3024447  62.2113247 112.0777428  31.6512427  62.7967327 111.6911441
  33.0968810  62.7419441 112.1372465  26.2280075  59.3002384 112.4764562
  27.0010951  58.7531371 112.3377438  26.5805473  60.1646633 112.6879023
  28.0665117  60.6278766 125.6831461  27.7754983  61.5324397 125.5678128
  28.7022101  60.6695294 126.3975531  28.9921324  58.0055614 122.2732821
  29.5884896  57.7811637 121.5589784  29.0496296  57.2640360 122.8758269
  28.5646352  55.4595050 110.1083012  28.8171873  54.9376571 109.3466475
  27.6270911  55.2961195 110.2109696  33.6089635  54.4630828 117.9157755
  34.3952724  54.0450251 117.5648172  33.8728340  55.3676920 118.0839404
  33.7799713  59.9003678 112.6146412  33.1445546  59.9738305 113.3267317
  33.4497119  60.4897277 111.9365491  39.0098062  54.4006061 118.8190734
  39.7423234  53.8305278 119.0528563  38.2537418  54.0127662 119.2597239
  28.2842641  57.3623156 112.3107387  28.1678899  56.6868059 112.9788471
  28.3944901  56.8755530 111.4939540  30.6274182  56.8233303 116.0154076
  30.2632389  56.2963924 116.7266998  31.4841298  56.4331772 115.8420562
  36.5323483  48.1127635 123.2785342  36.2006807  48.9823046 123.0546557
  35.9369096  47.7963919 123.9579373  30.2679669  51.8523203 111.0115425
  30.4354071  52.7203439 111.3785896  30.0776838  52.0150484 110.0876714
  33.0255002  60.3140181 122.6781255  32.7255725  61.2165220 122.5697062
  32.6806062  60.0472365 123.5302408  26.4767484  56.7653978 118.7117959
  25.5517980  56.6330192 118.9195651  26.7251897  57.5448198 119.2087902
  36.4252146  52.8322722 120.3578692  35.5169023  52.7638130 120.0637453
  36.3739742  53.3094667 121.1860518  30.2468890  54.3080860 111.9962091
  30.1268515  54.7537911 112.8347572  29.5521478  54.6566178 111.4375630
  23.8376295  56.4087252 119.5461749  23.9668676  56.6621731 120.4601160
  23.1573746  57.0014960 119.2266404  28.0075782  67.0784502 115.6452223
  27.9299812  68.0292327 115.7240703  27.4037426  66.7330374 116.3027149
  30.4993012  54.2512367 128.3013590  29.7226346  54.8106287 128.2916454
  31.1383575  54.7369150 128.8228460  38.2913792  51.0339160 122.1356566
  37.6488173  51.3271693 121.4896361  37.7868721  50.9192080 122.9409763
  35.9453956  54.7802333 112.8242426  36.8571812  55.0129720 112.6490123
  35.4363603  55.3639377 112.2617504  28.7539384  57.0597821 127.8631557
  29.4954068  57.5982865 127.5866380  28.0476370  57.6864109 128.0203108
  34.2294724  59.2026961 126.4603718  34.6378080  58.7609372 125.7158350
  33.5071985  58.6279589 126.7137911  30.5825794  54.1399568 123.8337275
  31.4286989  54.5638981 123.9771924  30.5224431  53.4833192 124.5275838
  34.5523538  59.7628152 120.2156007  33.9232401  59.9273866 119.5132075
  34.1649200  60.1769761 120.9866971  38.4312770  60.6982590 117.5700371
  37.7463808  61.0781491 117.0197404  38.5156620  61.3077916 118.3032318
  33.7325239  51.8003936 125.4918449  33.4886171  52.5545997 124.9552724
  34.0085170  52.1789284 126.3265696  35.6863702  58.3442549 124.1695714
  35.8980597  58.9874308 123.4930095  35.6393450  57.5104865 123.7017644
  33.2889931  50.9560369 121.0732286  32.4274410  51.2541623 121.3649024
  33.3152365  51.1730768 120.1413319  30.1051500  59.5002560 117.4806092
  30.5689846  59.7790263 116.6910715  29.8408298  58.5986004 117.2979183
  26.9975581  59.0474041 120.4185855  27.5676938  59.4761310 119.7803340
  27.5883693  58.7656626 121.1170041  29.0420386  55.6225712 114.2895657
  29.7444430  56.0746756 114.7569584  28.7101015  54.9809531 114.9175550
  27.4900748  54.2137469 128.6646867  26.8599408  54.8953750 128.8982263
  27.3836836  54.1020550 127.7200005  22.7845720  53.8809265 119.5912791
  21.9944774  54.1366793 119.1152901  23.2756968  54.6957603 119.6964831
  36.8009530  61.2214504 122.3418072  37.6226974  60.8194691 122.0600753
  36.7971933  61.1182738 123.2934187  24.7360466  54.2453844 116.5496267
  23.9391629  54.3572538 117.0679763  24.5086058  54.5840496 115.6837158
  30.5666133  60.7698547 124.4978782  30.6310566  61.2318955 125.3336954
  29.8577057  60.1395912 124.6261092  21.0683423  54.1339755 122.0227782
  21.3191462  55.0186765 122.2885358  21.6042972  53.9544357 121.2502873
  44.8915523  57.5653252 118.6903043  44.1379231  56.9960651 118.5347048
  45.0263064  57.5315917 119.6373678  30.2814151  62.4366655 114.3657762
  30.1459826  63.2818191 114.7942610  30.8223963  62.6385932 113.6023696
  26.7681491  48.5158235 131.0272118  26.3748436  47.9624433 131.7019762
  27.5847631  48.8268813 131.4178635  23.7343548  59.9542093 114.9385688
  24.2468069  60.7485343 115.0891252  24.3866261  59.2568383 114.8719289
  25.5438433  63.0707849 117.0208441  25.7205061  63.9925814 116.8329425
  26.3395267  62.7566268 117.4502820  29.6849452  49.9316114 128.6192374
  30.4259165  50.5323267 128.5396837  29.9167374  49.1893752 128.0610417
  24.8290790  55.1172481 126.8970604  24.7144305  54.2157738 127.1977703
  23.9735307  55.3636178 126.5455420  31.9082627  63.0590221 128.4958105
  31.4646481  62.2726600 128.1779009  32.5699841  63.2469372 127.8301995
  26.6669748  64.5886023 123.0218783  27.2177174  64.4603086 122.2495777
  25.8281224  64.8880912 122.6713676  34.0063865  63.3393021 126.5239506
  33.9882341  64.1601902 126.0319775  34.9283785  63.2147096 126.7489647
  30.4636920  60.8537151 127.3663014  30.9965256  60.0925439 127.1362322
  29.9351001  60.5610803 128.1087169  33.6306614  45.9597217 122.8956656
  33.2870884  46.8498858 122.8195766  33.9985577  45.7698874 122.0326241
  21.6992465  58.2830747 115.7145258  22.5367687  58.6927755 115.4978966
  21.8770733  57.3430189 115.6845452  33.5956897  55.9505828 111.4029091
  33.0803521  56.7210432 111.6417478  33.3234206  55.2770964 112.0262152
  31.1804008  50.7955529 116.4614329  30.3245605  50.4062379 116.2819968
  31.5930960  50.8747489 115.6014115  32.7103155  48.3301872 120.8605889
  32.2067950  48.2932007 120.0473694  33.0033762  49.2394615 120.9202546
  28.9546041  48.4140602 119.8672071  29.8199038  48.2183410 119.5077960
  29.0223550  48.1850953 120.7941428  38.5691171  58.7038182 113.3382264
  37.7920614  58.3649342 112.8937427  39.2482652  58.7090806 112.6637230
  33.3843200  53.8232920 113.2288872  33.0793336  54.1379069 114.0799015
  34.3373643  53.9014340 113.2716205  31.8289632  59.9823143 114.8781826
  31.3010994  59.2475903 114.5655064  31.3277135  60.7597820 114.6321795
  36.8082478  58.1772164 119.9948872  36.1506153  58.8671425 120.0829001
  37.6122877  58.5668596 120.3382859  26.5608360  50.6442809 117.2388438
  27.1352112  50.4217991 116.5061631  27.1479342  50.7131504 117.9917039
  35.6187937  56.5316536 118.0452814  36.1319819  57.1646528 118.5474524
  36.2689161  55.9317732 117.6796174  26.8877947  52.6747270 111.2584323
  26.0515259  53.0121957 111.5793598  26.7482717  52.5396250 110.3211460
  28.8631028  47.5184058 115.9663507  28.2095440  47.2033076 115.3420122
  28.8211502  46.8959799 116.6923330  29.9742232  57.8003353 107.8816799
  29.0669294  57.5692607 108.0807948  30.4713264  57.0040973 108.0690781
  32.8810311  66.5100861 110.8013485  32.2072010  66.8132557 111.4098443
  33.2676133  67.3129941 110.4518942  32.0968768  54.0065992 120.2911155
  31.1791329  54.2280939 120.1332843  32.5128912  54.0812302 119.4322862
  32.8803816  55.4057408 115.4213835  33.6275635  55.9178805 115.1120957
  33.1495405  55.0841460 116.2818229  31.1530466  57.9015948 112.4040789
  30.2441685  57.6174981 112.5013259  31.1825550  58.3215027 111.5444096
  36.3849733  61.5122538 116.1731957  35.9312060  60.6713448 116.2297147
  35.7543700  62.1483936 116.5106737  35.3282653  52.4414524 117.4032624
  34.5905410  51.9291910 117.7342867  35.5809426  52.0014905 116.5915901
  34.8282673  63.3499035 117.1081775  35.1205647  63.9104092 116.3894141
  35.3381293  63.6427596 117.8634934  35.4294280  45.2190776 117.9974394
  35.7353157  44.3588139 117.7100309  36.1546885  45.8108396 117.7973387
  21.7218636  55.6221462 116.3855992  21.5243036  55.0290823 115.6607058
  21.1665300  55.3173673 117.1031930  29.7015360  55.5144569 118.5050585
  29.7563970  54.5618405 118.4293061  28.8906562  55.6704008 118.9891883
  30.8506554  59.4424692 109.7428868  30.4125984  58.7260551 109.2834505
  31.5916995  59.6700807 109.1813959  27.6407720  54.1321629 116.2640964
  26.8275585  54.4315799 116.6706156  28.1366714  53.7377317 116.9815446
  29.7916298  64.1279386 118.1975228  29.7492476  64.3540232 117.2683760
  30.7078997  63.8942760 118.3461029  33.2381931  54.5963453 125.0955857
  33.5931319  54.8234926 125.9550323  33.8854063  54.9281830 124.4733113
  38.9679668  57.7181889 115.8005186  38.8297567  57.9083485 114.8726376
  38.6115887  58.4801272 116.2573238  27.1321795  51.7039984 121.8802198
  27.7721174  51.5628743 121.1825162  26.2999325  51.4174498 121.5040800
  38.9949048  59.7858416 120.8116458  39.4285555  59.6933705 121.6599512
  39.7080629  59.7615916 120.1736474  27.9082098  61.0042415 117.9937191
  28.7022697  60.5092735 117.7919766  27.1973791  60.4760278 117.6304896
  32.7276943  63.3860510 122.3449559  32.7813965  63.9551446 123.1127274
  31.8591724  63.5562395 121.9803596  24.2164862  55.1485496 114.0696944
  23.2862450  55.0869952 114.2866906  24.3122334  54.6261449 113.2733585
  24.1350411  51.6740309 116.6575185  24.3957228  52.5885642 116.5484346
  24.9567583  51.2064752 116.8071798  25.6075336  53.0878066 123.8274010
  26.2798390  52.8795428 123.1786659  24.7805123  52.8900152 123.3879242
  39.8564598  59.8282117 123.3449343  40.0500488  60.7327927 123.5908618
  39.7565216  59.3689536 124.1787928  31.5100908  49.7140007 125.8439671
  30.8628823  50.4129957 125.7504147  32.2801924  50.1476151 126.2115919
  34.9179706  59.9788859 128.9190224  34.7665213  59.7499411 128.0020308
  34.9084386  60.9359461 128.9321569  31.6865043  57.5520772 123.9036490
  32.6157103  57.7031932 123.7305458  31.2656073  57.6404793 123.0485137
  30.4853374  61.5771437 121.6735028  30.3464460  61.2090221 122.5460966
  29.6967971  62.0919076 121.5018986  31.0801526  66.6780533 113.0160565
  31.2553282  66.2068576 113.8306187  30.3934314  67.3046299 113.2441825
  32.0358590  60.9553039 119.0623866  31.7008422  60.9153809 119.9581516
  31.5362535  60.2897755 118.5894276  26.0102834  56.3620669 124.5876447
  25.8722632  55.6300908 125.1887986  26.9207757  56.2729569 124.3060635
  34.9717781  58.3009074 109.3360925  34.3546952  57.5755902 109.2393978
  34.5034270  59.0618434 108.9928000  28.6385134  56.0740629 124.0760127
  29.3484753  55.4333821 124.0346745  28.5954442  56.3253523 124.9986307
  36.6271913  63.0107982 126.9966706  36.5684459  62.3267202 126.3297289
  37.0291431  63.7526972 126.5447332  27.3514068  53.0605847 125.8955766
  26.8151425  52.6096585 126.5477362  26.7630777  53.1951755 125.1526230
  25.6462612  69.8269896 119.7900425  25.8859210  70.4588420 120.4679443
  24.8031808  69.4757936 120.0765784  26.7616327  52.5194498 108.4582230
  25.8845793  52.3983299 108.0944476  27.2374080  51.7280576 108.2061118
  36.6289320  60.9747566 125.2280685  35.7416099  60.6373488 125.3507084
  37.1987871  60.2430597 125.4649451  18.2818467  57.3071658 118.5523737
  18.9689507  56.9933388 117.9644752  18.1266596  58.2113022 118.2790988
  23.0853189  52.1961854 122.9808761  23.0011378  51.5887524 122.2459171
  22.2635896  52.6870873 122.9818257  30.1590474  65.6349018 122.1941929
  30.0860645  66.4403990 122.7061233  29.7167867  65.8340984 121.3689950
  29.9480253  64.8720788 115.7044750  29.1647775  65.4142468 115.7982975
  30.6472998  65.3894768 116.1038991  33.2576903  50.6815418 118.3478956
  33.7545603  49.9285380 118.0280026  32.4863885  50.7179734 117.7822165
  41.1106661  56.3855783 119.9897247  41.0996537  57.2680499 119.6191180
  40.2424040  56.0327334 119.7951784  32.6189157  65.5335852 124.3500087
  33.3317129  66.1683317 124.2775989  32.1279186  65.6299718 123.5340089
  34.3406684  59.4387105 115.9217379  33.4062963  59.5588567 115.7522083
  34.5183352  58.5359572 115.6577389  29.8411872  52.8232801 118.0750640
  29.4709660  52.2703841 118.7631546  30.3370965  52.2190934 117.5225640
  37.7279235  55.2804424 116.4567413  38.1939688  56.1132416 116.3827716
  38.1786736  54.8149406 117.1612672  27.6701071  63.2830296 125.1705658
  28.3710530  63.9166779 125.3235052  27.1996186  63.6245027 124.4101297
  35.7955466  61.6248246 113.4553565  36.0715310  61.5104840 114.3647439
  34.9259965  61.2265730 113.4165738  35.6995898  47.6485011 120.4958314
  34.7858978  47.8789238 120.6640521  36.1289000  47.7323455 121.3472347
  35.4702357  55.8374903 122.9958209  34.8173807  56.0850811 122.3410661
  35.8482737  55.0239041 122.6620686  32.4309530  65.8734596 117.0986379
  32.6131925  65.0556252 117.5614131  33.2542516  66.0902289 116.6611269
  32.7651696  64.8002782 114.3601427  33.2939462  64.2895236 113.7471589
  33.0279916  64.4845312 115.2246960  31.5189930  56.5794714 129.4824246
  30.8430567  56.4788844 130.1526621  32.3417564  56.4233928 129.9460243
  23.2668789  62.8166651 122.1036761  23.8522226  62.0710339 122.2364665
  23.0693627  63.1270608 122.9873425  26.1207444  65.8517898 117.1199203
  25.4517819  66.3364026 116.6363243  25.9820314  66.0987119 118.0342582
  17.8586443  55.3872251 120.8241204  17.8970543  54.8535842 121.6178322
  17.3526736  54.8607457 120.2052181  30.2612713  67.8861642 123.7181862
  30.8131021  68.0493263 124.4830947  30.6018906  68.4766080 123.0461886
  25.2377206  50.2336792 124.3203746  25.3018532  51.0951622 123.9081144
  25.1744326  49.6210793 123.5876105  24.7129478  52.3059924 127.9676781
  25.3401517  51.9237001 128.5814305  23.8557397  52.0874126 128.3332473
  35.1123587  62.7122899 129.5730516  35.6563491  63.3252858 129.0785471
  34.5310432  63.2702478 130.0897529  21.4895021  54.1136353 113.8995135
  21.7848462  53.2047032 113.8462189  20.5883057  54.0924093 113.5776138
  33.3981100  65.8343617 120.7045544  33.2732239  65.0333357 120.1956489
  34.0560191  66.3289811 120.2159514  25.0189268  52.1892350 119.8822684
  24.2975854  52.8028317 119.7430157  25.8082524  52.7250115 119.8039330
  35.4616008  63.6352637 122.3325094  34.5146344  63.5157989 122.2603421
  35.8098781  62.7475135 122.4151355  27.8215582  49.5246776 126.1563336
  28.3449983  49.7709073 126.9189645  27.6027915  50.3566811 125.7366473
  23.2182863  51.7950451 114.0234461  22.8895569  50.9147830 113.8409566
  23.5722233  51.7398120 114.9110850  32.4662441  63.4305354 118.5329446
  32.3187404  62.5022061 118.7137016  33.2915935  63.4525444 118.0486521
  26.3324686  52.0823421 114.3909938  26.6720758  52.6109342 113.6688547
  26.7796806  52.4203827 115.1668505  36.0696563  64.2533912 119.6194319
  36.9943111  64.0476774 119.4818770  35.9011867  64.0050313 120.5283660
  29.0268127  50.4660471 123.8413006  28.6864947  49.6668284 124.2433686
  28.3207133  50.7662182 123.2689839  29.6784598  47.5509784 122.2940329
  30.5010668  47.0770262 122.1719220  29.9222662  48.3300268 122.7939016
  28.3192833  50.5798042 112.5903231  29.0401195  50.9579295 112.0866948
  27.6958137  51.2986919 112.6938209  32.4623956  51.2843191 113.5261563
  32.6787570  52.1667829 113.2250391  31.9818023  50.8929405 112.7967205
  27.2023177  54.2428904 120.1032308  27.0567758  54.5569207 120.9956589
  26.7248381  54.8613805 119.5503207  29.0619560  51.2331452 120.1513197
  29.0481129  50.3372546 119.8145495  29.7791988  51.2402116 120.7851484
  30.9145691  51.6668793 122.1966325  30.6563469  52.5885863 122.1950655
  30.3830731  51.2699227 122.8866789  35.8591880  64.7719580 114.9756410
  36.0328757  64.2066002 114.2230263  36.3520771  65.5720475 114.7935900
  21.6768839  56.7834249 123.0419969  21.1322307  57.5594057 123.1740243
  22.5548189  57.1305053 122.8839091  28.4656456  50.1145833 115.4200768
  28.5872367  49.1862479 115.6191655  28.1758498  50.1284519 114.5079083
  31.3347646  47.8000743 118.5567487  31.3569343  47.8640076 117.6019467
  31.7515705  46.9605252 118.7507994  41.7131271  57.5356003 116.5946710
  42.1562417  56.7863328 116.1965833  40.8357781  57.5266139 116.2120442
  36.8467052  64.0886344 112.0753309  37.5417957  64.7093037 112.2940623
  37.1890202  63.2381695 112.3505686  22.4634861  55.9104145 125.9350126
  21.7216597  56.0586780 126.5214756  22.1427605  56.1712411 125.0716875
  38.7458475  61.5386050 113.6040639  39.2709799  61.8773322 112.8789959
  38.6580828  60.6033065 113.4203774  30.4078524  65.4520123 125.7330516
  30.7165650  65.2069270 126.6053216  31.2054006  65.6566762 125.2449386
  30.4299136  67.6058033 117.9635893  29.9904126  67.1134412 118.6568749
  31.1807253  67.0631001 117.7227968  22.9091475  63.7969574 117.9660521
  23.7349495  63.4973346 117.5859164  22.5585527  63.0277196 118.4150309
  27.8773008  63.1496042 120.0358194  27.2553017  62.4866747 119.7360422
  28.5477875  63.1757174 119.3531842  21.1100080  61.7155900 118.9249454
  20.2731988  61.2878075 118.7433455  21.0823725  61.9088344 119.8620245
  27.9497536  51.6277830 129.6290700  27.9985691  52.5039953 129.2468470
  28.4920050  51.0855223 129.0562343  38.4352381  62.1718953 128.9091837
  37.6447925  62.1543092 128.3696337  38.1985736  62.7107247 129.6640874
  38.5550256  59.0211420 126.2224566  38.6048261  58.8561427 127.1640089
  38.4464180  58.1538679 125.8322447  27.4386515  61.6999965 113.5116655
  27.5874635  62.3835430 112.8583327  28.2452958  61.6805055 114.0266110
  35.8454019  55.0042348 127.5383873  36.7463881  54.8648813 127.2467870
  35.9201993  55.1696803 128.4782050  30.1796824  52.3809202 126.3837059
  29.3100133  52.6742769 126.1119647  30.4156304  52.9649647 127.1044322
  40.0568453  61.4408361 126.4666587  39.7653261  61.8038342 127.3030048
  39.4440584  60.7275369 126.2879919  41.2564135  59.0061241 118.9869158
  42.0911027  59.4451045 119.1506718  41.3923264  58.5299894 118.1677403
  38.3055641  56.5640976 124.9346645  38.7809763  56.7568622 124.1265497
  37.3821207  56.6200162 124.6890029  25.1939148  57.7265143 114.5177724
  24.9485190  56.8227473 114.7157934  25.3635062  57.7282293 113.5757202
  32.8835858  48.5988819 123.9002479  33.4017802  49.3349846 123.5748968
  32.5290991  48.9052813 124.7349238  24.4634795  53.4593501 112.0163885
  23.7704040  53.5337856 111.3603921  24.2186547  52.6953844 112.5385402
  33.1348452  45.0189102 119.4203376  33.4150206  44.3512291 120.0463802
  33.9199059  45.2118198 118.9078040  30.9381920  64.1948096 110.9828402
  30.3655888  64.8138283 110.5298874  31.5114714  64.7447458 111.5168324
  37.0057310  53.4406736 123.1674951  37.9574733  53.5404834 123.1887175
  36.8360761  52.6485004 123.6773035  35.0271690  50.5262319 123.3534352
  34.4321622  50.8067332 122.6580841  34.7421386  51.0156220 124.1251093
  34.1579180  64.4785246 112.1136984  35.0909853  64.4130808 112.3169860
  34.0702393  65.3141513 111.6551517  36.7867197  63.7951116 109.0740932
  36.7080828  63.4610980 109.9676690  37.6076864  64.2872884 109.0732404
  39.4845388  56.6612856 122.2817251  39.4521708  55.7228856 122.4676934
  40.0946012  56.7396892 121.5483075  31.3228719  55.5308909 108.3244455
  32.2687824  55.4015117 108.3932873  30.9442964  54.7923570 108.8013883
  39.6339877  53.4523899 122.3275534  39.1178925  52.6682356 122.1405463
  40.5179825  53.1242616 122.4922053  37.2950603  47.1964915 118.2871346
  37.0975425  46.8880003 119.1714678  37.9050309  47.9226554 118.4169276
  45.3021938  57.7228862 121.4223287  46.0325326  57.4614151 121.9830991
  44.6928883  56.9857584 121.4625355  43.3837235  55.8636725 122.0197739
  42.6570399  55.7292690 121.4114230  42.9684522  56.1713554 122.8254457
  31.2067411  59.5826655 129.7845112  32.1270421  59.7605254 129.9785158
  31.1716995  58.6382700 129.6324811  29.5071636  53.4558885 108.2599340
  28.6003092  53.1591998 108.3362053  29.7847617  53.1588703 107.3933626
  20.4249576  54.7765248 118.7098386  20.1052361  53.9230557 118.4172760
  19.8783005  54.9913827 119.4656354  24.2029484  57.4927689 122.4267893
  24.4215494  58.4244797 122.4455927  24.6155258  57.1335664 123.2122697
  31.1233702  47.9995775 114.4143581  30.3134430  47.6542860 114.7898827
  31.8118119  47.6903318 115.0031193  33.0524250  47.0773821 116.0367878
  33.6055289  47.4969275 116.6957901  33.2894336  46.1509570 116.0790834
  29.0757349  53.0660895 131.8170642  28.9754076  54.0155252 131.7482733
  28.8578891  52.7379134 130.9446712  28.2770421  50.3145820 108.4011319
  29.1389585  50.6400718 108.6607136  28.4620765  49.5277316 107.8884385
  20.2937836  58.3968160 120.6791508  19.6001308  57.9822113 120.1661462
  21.0410827  58.4388696 120.0824927  36.4303057  49.1874347 115.5446542
  35.8501726  49.8459151 115.1624594  36.1638990  48.3651691 115.1333960
  34.8806624  48.5879404 117.7467862  35.3806402  48.6995939 116.9382181
  35.5242232  48.2840457 118.3868671  28.9388619  56.4958034 130.6335703
  28.4555701  57.2958394 130.8399592  29.0249558  56.5065979 129.6803147
  22.2074579  58.3286414 118.5557523  22.1845267  58.4274101 117.6039406
  22.5175216  59.1751564 118.8774689  24.8661957  60.3862569 122.6704137
  25.8205210  60.3546511 122.6034069  24.6674480  59.9253192 123.4854363
  25.4561339  58.9563685 125.2374935  26.2754228  59.4507763 125.2609772
  25.7298147  58.0395653 125.2092502  35.2127935  51.3474437 114.6002890
  34.3253790  51.6324088 114.3823085  35.6281924  51.1868200 113.7530167
  38.5642471  51.3720958 118.3157230  39.3402861  51.8617410 118.5881846
  37.8390606  51.7979012 118.7729099  41.0015030  52.0848577 119.3731170
  41.5959521  51.8444313 118.6624478  41.0741614  51.3655708 120.0004706
  23.2212186  65.9282188 119.6874335  23.0866654  65.1682589 119.1212333
  22.8044248  66.6523088 119.2203124  34.3571149  61.1119112 108.6950910
  35.0606999  61.3169114 109.3108566  33.6333797  61.6795874 108.9599994
  35.1868959  56.8628973 114.8153180  35.1304160  57.3197524 113.9760813
  35.7397301  56.1019658 114.6376023  38.9973765  52.6518705 115.6403300
  38.7410699  52.2515340 116.4711508  38.3726633  53.3662499 115.5153439
  43.3086103  55.3914778 118.1474591  42.7485661  55.4607967 118.9206153
  42.7029606  55.2155763 117.4274088  26.3781312  66.8251505 119.8992778
  26.2613696  67.7696938 119.7971468  25.5573758  66.5225067 120.2878577
  36.2657846  61.5501641 110.7449370  37.1003450  61.1182839 110.5626845
  36.1042189  61.3783655 111.6726265  35.9203738  58.0533754 112.1105710
  35.8652542  57.8878026 111.1694154  35.2949794  58.7609787 112.2667899
  20.7096253  53.2901819 125.9367132  21.3555117  52.7800773 126.4254357
  20.5013404  54.0270500 126.5110557  33.2349645  60.3582666 131.4359272
  34.1040805  60.5323318 131.0745907  32.7556397  61.1777083 131.3135002
  29.2299864  47.5541863 111.6891028  29.2178534  48.4983703 111.8459299
  30.1223286  47.3712009 111.3950489  27.4035826  67.4779767 123.1148706
  28.3063072  67.5103377 123.4315201  27.1773196  66.5480218 123.1295042
  29.1589428  66.2310754 119.7758785  28.2085059  66.2312615 119.6623157
  29.4621914  65.4843488 119.2594819  33.0451983  44.1484640 115.9436965
  32.2784379  43.5943127 116.0893647  33.4562688  44.2206509 116.8051116
  25.0493744  50.4369436 130.0342146  25.9125206  50.0806241 130.2445471
  24.4759155  50.0983330 130.7217550  44.8942121  72.0671292 120.8404547
  45.5320531  71.9478039 120.1367887  44.7762964  73.0152136 120.8992499
  41.7031827  72.0198720 120.7766072  41.3650339  71.9039785 119.8886607
  42.5721596  71.6189885 120.7567078  37.5618643  73.8734197 116.7662963
  36.9983508  73.7824133 115.9979251  37.4471038  73.0534101 117.2465455
  42.1851610  73.1733572 126.7352277  42.1740251  72.7786370 125.8632781
  42.3472250  72.4399644 127.3286049  35.1083075  75.3685388 119.6047183
  35.9004367  75.0276213 119.1893483  35.3479725  75.4780363 120.5249337
  43.1418202  77.5405164 112.0777428  42.4906182  78.1259245 111.6911441
  43.9362565  78.0711359 112.1372465  37.0673829  74.6294301 112.4764562
  37.8404705  74.0823288 112.3377438  37.4199228  75.4938551 112.6879023
  38.9058872  75.9570684 125.6831461  38.6148738  76.8616314 125.5678128
  39.5415856  75.9987211 126.3975531  39.8315078  73.3347532 122.2732821
  40.4278651  73.1103555 121.5589784  39.8890050  72.5932278 122.8758269
  39.4040107  70.7886967 110.1083012  39.6565628  70.2668489 109.3466475
  38.4664666  70.6253113 110.2109696  44.4483390  69.7922746 117.9157755
  45.2346479  69.3742169 117.5648172  44.7122094  70.6968838 118.0839404
  44.6193467  75.2295596 112.6146412  43.9839300  75.3030223 113.3267317
  44.2890873  75.8189195 111.9365491  49.8491817  69.7297979 118.8190734
  50.5816989  69.1597196 119.0528563  49.0931173  69.3419580 119.2597239
  39.1236396  72.6915073 112.3107387  39.0072654  72.0159977 112.9788471
  39.2338655  72.2047447 111.4939540  41.4667937  72.1525221 116.0154076
  41.1026144  71.6255842 116.7266998  42.3235052  71.7623690 115.8420562
  47.3717237  63.4419553 123.2785342  47.0400562  64.3114964 123.0546557
  46.7762851  63.1255837 123.9579373  41.1073424  67.1815120 111.0115425
  41.2747826  68.0495357 111.3785896  40.9170593  67.3442402 110.0876714
  43.8648757  75.6432099 122.6781255  43.5649480  76.5457138 122.5697062
  43.5199816  75.3764282 123.5302408  37.3161238  72.0945896 118.7117959
  36.3911735  71.9622110 118.9195651  37.5645651  72.8740115 119.2087902
  47.2645900  68.1614639 120.3578692  46.3562778  68.0930048 120.0637453
  47.2133496  68.6386584 121.1860518  41.0862644  69.6372778 111.9962091
  40.9662270  70.0829829 112.8347572  40.3915233  69.9858095 111.4375630
  34.6770049  71.7379170 119.5461749  34.8062430  71.9913648 120.4601160
  33.9967501  72.3306878 119.2266404  38.8469536  82.4076420 115.6452223
  38.7693566  83.3584245 115.7240703  38.2431180  82.0622292 116.3027149
  41.3386766  69.5804285 128.3013590  40.5620100  70.1398205 128.2916454
  41.9777329  70.0661068 128.8228460  49.1307547  66.3631078 122.1356566
  48.4881927  66.6563611 121.4896361  48.6262475  66.2483998 122.9409763
  39.5933139  72.3889738 127.8631557  40.3347823  72.9274782 127.5866380
  38.8870124  73.0156027 128.0203108  45.0688478  74.5318879 126.4603718
  45.4771834  74.0901289 125.7158350  44.3465740  73.9571506 126.7137911
  41.4219548  69.4691486 123.8337275  42.2680743  69.8930899 123.9771924
  41.3618186  68.8125110 124.5275838  45.3917293  75.0920069 120.2156007
  44.7626155  75.2565784 119.5132075  45.0042955  75.5061679 120.9866971
  49.2706525  76.0274507 117.5700371  48.5857563  76.4073409 117.0197404
  49.3550374  76.6369834 118.3032318  44.5718994  67.1295854 125.4918449
  44.3279925  67.8837914 124.9552724  44.8478924  67.5081201 126.3265696
  46.5257456  73.6734466 124.1695714  46.7374352  74.3166226 123.4930095
  46.4787205  72.8396783 123.7017644  44.1283685  66.2852287 121.0732286
  43.2668164  66.5833540 121.3649024  44.1546120  66.5022686 120.1413319
  40.9445255  74.8294477 117.4806092  41.4083600  75.1082180 116.6910715
  40.6802053  73.9277922 117.2979183  37.8369336  74.3765959 120.4185855
  38.4070693  74.8053227 119.7803340  38.4277448  74.0948544 121.1170041
  39.8814141  70.9517630 114.2895657  40.5838184  71.4038674 114.7569584
  39.5494769  70.3101449 114.9175550  38.3294502  69.5429386 128.6646867
  37.6993163  70.2245667 128.8982263  38.2230590  69.4312468 127.7200005
  33.6239475  69.2101182 119.5912791  32.8338529  69.4658711 119.1152901
  34.1150722  70.0249520 119.6964831  47.6403284  76.5506422 122.3418072
  48.4620728  76.1486609 122.0600753  47.6365687  76.4474656 123.2934187
  35.5754220  69.5745762 116.5496267  34.7785383  69.6864456 117.0679763
  35.3479812  69.9132414 115.6837158  41.4059888  76.0990465 124.4978782
  41.4704320  76.5610872 125.3336954  40.6970812  75.4687830 124.6261092
  31.9077178  69.4631673 122.0227782  32.1585216  70.3478683 122.2885358
  32.4436726  69.2836274 121.2502873  55.7309277  72.8945170 118.6903043
  54.9772986  72.3252568 118.5347048  55.8656819  72.8607835 119.6373678
  41.1207905  77.7658572 114.3657762  40.9853580  78.6110108 114.7942610
  41.6617718  77.9677850 113.6023696  37.6075245  63.8450152 131.0272118
  37.2142191  63.2916351 131.7019762  38.4241385  64.1560731 131.4178635
  34.5737303  75.2834010 114.9385688  35.0861823  76.0777261 115.0891252
  35.2260016  74.5860301 114.8719289  36.3832188  78.3999767 117.0208441
  36.5598816  79.3217731 116.8329425  37.1789021  78.0858186 117.4502820
  40.5243206  65.2608031 128.6192374  41.2652919  65.8615185 128.5396837
  40.7561129  64.5185669 128.0610417  35.6684544  70.4464399 126.8970604
  35.5538059  69.5449656 127.1977703  34.8129062  70.6928095 126.5455420
  42.7476382  78.3882139 128.4958105  42.3040236  77.6018518 128.1779009
  43.4093595  78.5761289 127.8301995  37.5063503  79.9177941 123.0218783
  38.0570928  79.7895004 122.2495777  36.6674979  80.2172830 122.6713676
  44.8457620  78.6684939 126.5239506  44.8276095  79.4893820 126.0319775
  45.7677540  78.5439014 126.7489647  41.3030674  76.1829068 127.3663014
  41.8359011  75.4217357 127.1362322  40.7744755  75.8902720 128.1087169
  44.4700369  61.2889134 122.8956656  44.1264638  62.1790776 122.8195766
  44.8379332  61.0990792 122.0326241  32.5386220  73.6122665 115.7145258
  33.3761442  74.0219673 115.4978966  32.7164487  72.6722107 115.6845452
  42.0197763  66.1247446 116.4614329  41.1639359  65.7354297 116.2819968
  42.4324714  66.2039407 115.6014115  43.5496909  63.6593789 120.8605889
  43.0461705  63.6223925 120.0473694  43.8427516  64.5686532 120.9202546
  39.7939795  63.7432519 119.8672071  40.6592792  63.5475328 119.5077960
  39.8617304  63.5142871 120.7941428  49.4084926  74.0330100 113.3382264
  48.6314369  73.6941260 112.8937427  50.0876407  74.0382723 112.6637230
  42.6683387  75.3115061 114.8781826  42.1404748  74.5767820 114.5655064
  42.1670889  76.0889737 114.6321795  47.6476233  73.5064081 119.9948872
  46.9899907  74.1963343 120.0829001  48.4516632  73.8960513 120.3382859
  37.4002114  65.9734727 117.2388438  37.9745866  65.7509909 116.5061631
  37.9873097  66.0423422 117.9917039  46.4581692  71.8608454 118.0452814
  46.9713573  72.4938446 118.5474524  47.1082915  71.2609650 117.6796174
  37.7271701  68.0039188 111.2584323  36.8909014  68.3413875 111.5793598
  37.5876471  67.8688168 110.3211460  39.7024782  62.8475976 115.9663507
  39.0489194  62.5324993 115.3420122  39.6605256  62.2251717 116.6923330
  40.8135987  73.1295271 107.8816799  39.9063049  72.8984525 108.0807948
  41.3107019  72.3332890 108.0690781  43.7204066  81.8392778 110.8013485
  43.0465765  82.1424475 111.4098443  44.1069888  82.6421859 110.4518942
  42.9362522  69.3357910 120.2911155  42.0185084  69.5572857 120.1332843
  43.3522666  69.4104220 119.4322862  43.7197570  70.7349325 115.4213835
  44.4669389  71.2470722 115.1120957  43.9889160  70.4133378 116.2818229
  41.9924220  73.2307866 112.4040789  41.0835440  72.9466899 112.5013259
  42.0219304  73.6506945 111.5444096  47.2243488  76.8414455 116.1731957
  46.7705815  76.0005365 116.2297147  46.5937454  77.4775854 116.5106737
  46.1676407  67.7706442 117.4032624  45.4299164  67.2583828 117.7342867
  46.4203181  67.3306823 116.5915901  45.6676427  78.6790952 117.1081775
  45.9599401  79.2396009 116.3894141  46.1775048  78.9719513 117.8634934
  46.2688035  60.5482694 117.9974394  46.5746911  59.6880057 117.7100309
  46.9940639  61.1400314 117.7973387  32.5612391  70.9513380 116.3855992
  32.3636791  70.3582741 115.6607058  32.0059055  70.6465590 117.1031930
  40.5409114  70.8436487 118.5050585  40.5957724  69.8910323 118.4293061
  39.7300316  70.9995926 118.9891883  41.6900308  74.7716610 109.7428868
  41.2519738  74.0552469 109.2834505  42.4310749  74.9992724 109.1813959
  38.4801474  69.4613546 116.2640964  37.6669340  69.7607717 116.6706156
  38.9760468  69.0669235 116.9815446  40.6310052  79.4571303 118.1975228
  40.5886231  79.6832150 117.2683760  41.5472751  79.2234678 118.3461029
  44.0775686  69.9255371 125.0955857  44.4325074  70.1526844 125.9550323
  44.7247817  70.2573748 124.4733113  49.8073423  73.0473807 115.8005186
  49.6691322  73.2375403 114.8726376  49.4509642  73.8093190 116.2573238
  37.9715549  67.0331902 121.8802198  38.6114928  66.8920661 121.1825162
  37.1393080  66.7466415 121.5040800  49.8342803  75.1150334 120.8116458
  50.2679309  75.0225623 121.6599512  50.5474383  75.0907834 120.1736474
  38.7475853  76.3334332 117.9937191  39.5416451  75.8384652 117.7919766
  38.0367545  75.8052195 117.6304896  43.5670697  78.7152428 122.3449559
  43.6207720  79.2843364 123.1127274  42.6985479  78.8854313 121.9803596
  35.0558616  70.4777414 114.0696944  34.1256205  70.4161870 114.2866906
  35.1516088  69.9553367 113.2733585  34.9744165  67.0032227 116.6575185
  35.2350983  67.9177560 116.5484346  35.7961338  66.5356669 116.8071798
  36.4469091  68.4169984 123.8274010  37.1192144  68.2087346 123.1786659
  35.6198877  68.2192070 123.3879242  50.6958352  75.1574034 123.3449343
  50.8894242  76.0619845 123.5908618  50.5958970  74.6981453 124.1787928
  42.3494663  65.0431925 125.8439671  41.7022578  65.7421875 125.7504147
  43.1195678  65.4768069 126.2115919  45.7573461  75.3080777 128.9190224
  45.6058967  75.0791329 128.0020308  45.7478140  76.2651379 128.9321569
  42.5258797  72.8812690 123.9036490  43.4550857  73.0323849 123.7305458
  42.1049827  72.9696711 123.0485137  41.3247129  76.9063354 121.6735028
  41.1858215  76.5382139 122.5460966  40.5361725  77.4210994 121.5018986
  41.9195281  82.0072451 113.0160565  42.0947037  81.5360494 113.8306187
  41.2328069  82.6338217 113.2441825  42.8752344  76.2844957 119.0623866
  42.5402177  76.2445727 119.9581516  42.3756290  75.6189673 118.5894276
  36.8496588  71.6912587 124.5876447  36.7116386  70.9592826 125.1887986
  37.7601512  71.6021487 124.3060635  45.8111536  73.6300991 109.3360925
  45.1940706  72.9047819 109.2393978  45.3428024  74.3910352 108.9928000
  39.4778889  71.4032546 124.0760127  40.1878507  70.7625739 124.0346745
  39.4348197  71.6545441 124.9986307  47.4665667  78.3399900 126.9966706
  47.4078214  77.6559120 126.3297289  47.8685186  79.0818890 126.5447332
  38.1907823  68.3897764 125.8955766  37.6545180  67.9388503 126.5477362
  37.6024531  68.5243673 125.1526230  36.4856366  85.1561814 119.7900425
  36.7252964  85.7880338 120.4679443  35.6425563  84.8049854 120.0765784
  37.6010082  67.8486416 108.4582230  36.7239548  67.7275216 108.0944476
  38.0767835  67.0572494 108.2061118  47.4683075  76.3039484 125.2280685
  46.5809853  75.9665405 125.3507084  48.0381626  75.5722515 125.4649451
  29.1212222  72.6363575 118.5523737  29.8083262  72.3225305 117.9644752
  28.9660350  73.5404940 118.2790988  33.9246944  67.5253772 122.9808761
  33.8405133  66.9179441 122.2459171  33.1029650  68.0162790 122.9818257
  40.9984228  80.9640936 122.1941929  40.9254400  81.7695907 122.7061233
  40.5561621  81.1632902 121.3689950  40.7874008  80.2012706 115.7044750
  40.0041530  80.7434386 115.7982975  41.4866753  80.7186686 116.1038991
  44.0970658  66.0107335 118.3478956  44.5939357  65.2577298 118.0280026
  43.3257639  66.0471652 117.7822165  51.9500415  71.7147701 119.9897247
  51.9390291  72.5972416 119.6191180  51.0817795  71.3619252 119.7951784
  43.4582912  80.8627770 124.3500087  44.1710884  81.4975235 124.2775989
  42.9672940  80.9591636 123.5340089  45.1800438  74.7679023 115.9217379
  44.2456717  74.8880485 115.7522083  45.3577107  73.8651489 115.6577389
  40.6805627  68.1524718 118.0750640  40.3103414  67.5995759 118.7631546
  41.1764719  67.5482852 117.5225640  48.5672990  70.6096342 116.4567413
  49.0333442  71.4424334 116.3827716  49.0180490  70.1441324 117.1612672
  38.5094825  78.6122213 125.1705658  39.2104285  79.2458696 125.3235052
  38.0389940  78.9536945 124.4101297  46.6349221  76.9540163 113.4553565
  46.9109065  76.8396758 114.3647439  45.7653720  76.5557648 113.4165738
  46.5389653  62.9776929 120.4958314  45.6252732  63.2081156 120.6640521
  46.9682754  63.0615373 121.3472347  46.3096111  71.1666821 122.9958209
  45.6567561  71.4142728 122.3410661  46.6876491  70.3530959 122.6620686
  43.2703285  81.2026514 117.0986379  43.4525680  80.3848170 117.5614131
  44.0936271  81.4194206 116.6611269  43.6045450  80.1294699 114.3601427
  44.1333217  79.6187154 113.7471589  43.8673670  79.8137229 115.2246960
  42.3583684  71.9086632 129.4824246  41.6824321  71.8080761 130.1526621
  43.1811318  71.7525846 129.9460243  34.1062543  78.1458568 122.1036761
  34.6915980  77.4002256 122.2364665  33.9087382  78.4562525 122.9873425
  36.9601198  81.1809816 117.1199203  36.2911574  81.6655944 116.6363243
  36.8214068  81.4279036 118.0342582  28.6980198  70.7164169 120.8241204
  28.7364297  70.1827759 121.6178322  28.1920491  70.1899374 120.2052181
  41.1006467  83.2153559 123.7181862  41.6524775  83.3785181 124.4830947
  41.4412660  83.8057997 123.0461886  36.0770960  65.5628709 124.3203746
  36.1412287  66.4243540 123.9081144  36.0138080  64.9502711 123.5876105
  35.5523233  67.6351842 127.9676781  36.1795272  67.2528919 128.5814305
  34.6951152  67.4166044 128.3332473  45.9517341  78.0414817 129.5730516
  46.4957245  78.6544775 129.0785471  45.3704186  78.5994395 130.0897529
  32.3288776  69.4428271 113.8995135  32.6242217  68.5338949 113.8462189
  31.4276811  69.4216010 113.5776138  44.2374854  81.1635535 120.7045544
  44.1125994  80.3625275 120.1956489  44.8953945  81.6581728 120.2159514
  35.8583023  67.5184267 119.8822684  35.1369608  68.1320235 119.7430157
  36.6476278  68.0542032 119.8039330  46.3009763  78.9644555 122.3325094
  45.3540098  78.8449906 122.2603421  46.6492536  78.0767053 122.4151355
  38.6609336  64.8538694 126.1563336  39.1843738  65.1000990 126.9189645
  38.4421669  65.6858729 125.7366473  34.0576617  67.1242369 114.0234461
  33.7289323  66.2439747 113.8409566  34.4115988  67.0690037 114.9110850
  43.3056196  78.7597271 118.5329446  43.1581158  77.8313979 118.7137016
  44.1309689  78.7817362 118.0486521  37.1718440  67.4115338 114.3909938
  37.5114513  67.9401260 113.6688547  37.6190561  67.7495744 115.1668505
  46.9090318  79.5825830 119.6194319  47.8336865  79.3768691 119.4818770
  46.7405621  79.3342231 120.5283660  39.8661881  65.7952389 123.8413006
  39.5258701  64.9960202 124.2433686  39.1600887  66.0954100 123.2689839
  40.5178353  62.8801701 122.2940329  41.3404422  62.4062180 122.1719220
  40.7616416  63.6592185 122.7939016  39.1586587  65.9089960 112.5903231
  39.8794950  66.2871213 112.0866948  38.5351892  66.6278837 112.6938209
  43.3017710  66.6135109 113.5261563  43.5181325  67.4959747 113.2250391
  42.8211777  66.2221322 112.7967205  38.0416932  69.5720822 120.1032308
  37.8961512  69.8861125 120.9956589  37.5642135  70.1905722 119.5503207
  39.9013315  66.5623370 120.1513197  39.8874883  65.6664463 119.8145495
  40.6185743  66.5694034 120.7851484  41.7539445  66.9960710 122.1966325
  41.4957223  67.9177781 122.1950655  41.2224486  66.5991145 122.8866789
  46.6985634  80.1011497 114.9756410  46.8722512  79.5357920 114.2230263
  47.1914525  80.9012392 114.7935900  32.5162594  72.1126166 123.0419969
  31.9716062  72.8885974 123.1740243  33.3941944  72.4596971 122.8839091
  39.3050210  65.4437750 115.4200768  39.4266122  64.5154397 115.6191655
  39.0152253  65.4576436 114.5079083  42.1741401  63.1292661 118.5567487
  42.1963098  63.1931994 117.6019467  42.5909460  62.2897169 118.7507994
  52.5525025  72.8647920 116.5946710  52.9956171  72.1155246 116.1965833
  51.6751535  72.8558057 116.2120442  47.6860806  79.4178262 112.0753309
  48.3811711  80.0384954 112.2940623  48.0283957  78.5673613 112.3505686
  33.3028616  71.2396063 125.9350126  32.5610352  71.3878698 126.5214756
  32.9821360  71.5004328 125.0716875  49.5852230  76.8677967 113.6040639
  50.1103554  77.2065240 112.8789959  49.4974582  75.9324983 113.4203774
  41.2472278  80.7812041 125.7330516  41.5559405  80.5361188 126.6053216
  42.0447760  80.9858679 125.2449386  41.2692890  82.9349951 117.9635893
  40.8297881  82.4426329 118.6568749  42.0201007  82.3922918 117.7227968
  33.7485229  79.1261491 117.9660521  34.5743249  78.8265263 117.5859164
  33.3979281  78.3569114 118.4150309  38.7166763  78.4787960 120.0358194
  38.0946772  77.8158665 119.7360422  39.3871629  78.5049092 119.3531842
  31.9493834  77.0447818 118.9249454  31.1125743  76.6169992 118.7433455
  31.9217480  77.2380261 119.8620245  38.7891290  66.9569748 129.6290700
  38.8379445  67.8331871 129.2468470  39.3313804  66.4147141 129.0562343
  49.2746136  77.5010871 128.9091837  48.4841679  77.4835010 128.3696337
  49.0379490  78.0399165 129.6640874  49.3944011  74.3503337 126.2224566
  49.4442016  74.1853345 127.1640089  49.2857934  73.4830596 125.8322447
  38.2780269  77.0291883 113.5116655  38.4268390  77.7127347 112.8583327
  39.0846713  77.0096973 114.0266110  46.6847773  70.3334265 127.5383873
  47.5857636  70.1940730 127.2467870  46.7595748  70.4988720 128.4782050
  41.0190578  67.7101120 126.3837059  40.1493888  68.0034686 126.1119647
  41.2550059  68.2941565 127.1044322  50.8962208  76.7700279 126.4666587
  50.6047016  77.1330259 127.3030048  50.2834339  76.0567287 126.2879919
  52.0957890  74.3353159 118.9869158  52.9304781  74.7742963 119.1506718
  52.2317019  73.8591812 118.1677403  49.1449396  71.8932893 124.9346645
  49.6203517  72.0860540 124.1265497  48.2214961  71.9492079 124.6890029
  36.0332902  73.0557061 114.5177724  35.7878944  72.1519391 114.7157934
  36.2028817  73.0574211 113.5757202  43.7229612  63.9280737 123.9002479
  44.2411556  64.6641764 123.5748968  43.3684745  64.2344730 124.7349238
  35.3028550  68.7885418 112.0163885  34.6097795  68.8629773 111.3603921
  35.0580302  68.0245762 112.5385402  43.9742206  60.3481020 119.4203376
  44.2543960  59.6804209 120.0463802  44.7592813  60.5410115 118.9078040
  41.7775675  79.5240013 110.9828402  41.2049642  80.1430201 110.5298874
  42.3508469  80.0739375 111.5168324  47.8451065  68.7698654 123.1674951
  48.7968488  68.8696751 123.1887175  47.6754515  67.9776922 123.6773035
  45.8665444  65.8554237 123.3534352  45.2715376  66.1359250 122.6580841
  45.5815141  66.3448138 124.1251093  44.9972935  79.8077164 112.1136984
  45.9303608  79.7422725 112.3169860  44.9096148  80.6433430 111.6551517
  47.6260951  79.1243034 109.0740932  47.5474583  78.7902898 109.9676690
  48.4470618  79.6164802 109.0732404  50.3239143  71.9904773 122.2817251
  50.2915463  71.0520774 122.4676934  50.9339766  72.0688810 121.5483075
  42.1622473  70.8600826 108.3244455  43.1081578  70.7307034 108.3932873
  41.7836718  70.1215488 108.8013883  50.4733631  68.7815817 122.3275534
  49.9572680  67.9974273 122.1405463  51.3573580  68.4534533 122.4922053
  48.1344358  62.5256832 118.2871346  47.9369179  62.2171920 119.1714678
  48.7444064  63.2518471 118.4169276  56.1415692  73.0520780 121.4223287
  56.8719081  72.7906068 121.9830991  55.5322638  72.3149502 121.4625355
  54.2230990  71.1928643 122.0197739  53.4964153  71.0584608 121.4114230
  53.8078276  71.5005471 122.8254457  42.0461166  74.9118572 129.7845112
  42.9664175  75.0897171 129.9785158  42.0110749  73.9674618 129.6324811
  40.3465391  68.7850803 108.2599340  39.4396846  68.4883915 108.3362053
  40.6241372  68.4880621 107.3933626  31.2643331  70.1057166 118.7098386
  30.9446115  69.2522474 118.4172760  30.7176759  70.3205744 119.4656354
  35.0423239  72.8219607 122.4267893  35.2609248  73.7536715 122.4455927
  35.4549012  72.4627581 123.2122697  41.9627456  63.3287692 114.4143581
  41.1528185  62.9834777 114.7898827  42.6511873  63.0195236 115.0031193
  43.8918005  62.4065739 116.0367878  44.4449043  62.8261193 116.6957901
  44.1288091  61.4801487 116.0790834  39.9151104  68.3952813 131.8170642
  39.8147831  69.3447170 131.7482733  39.6972646  68.0671052 130.9446712
  39.1164175  65.6437738 108.4011319  39.9783339  65.9692636 108.6607136
  39.3014519  64.8569234 107.8884385  31.1331591  73.7260078 120.6791508
  30.4395062  73.3114030 120.1661462  31.8804582  73.7680614 120.0824927
  47.2696812  64.5166264 115.5446542  46.6895481  65.1751068 115.1624594
  47.0032744  63.6943609 115.1333960  45.7200378  63.9171322 117.7467862
  46.2200156  64.0287857 116.9382181  46.3635986  63.6132375 118.3868671
  39.7782374  71.8249952 130.6335703  39.2949456  72.6250312 130.8399592
  39.8643313  71.8357897 129.6803147  33.0468334  73.6578331 118.5557523
  33.0239022  73.7566019 117.6039406  33.3568970  74.5043482 118.8774689
  35.7055711  75.7154486 122.6704137  36.6598965  75.6838429 122.6034069
  35.5068235  75.2545110 123.4854363  36.2955094  74.2855602 125.2374935
  37.1147983  74.7799681 125.2609772  36.5691901  73.3687571 125.2092502
  46.0521690  66.6766355 114.6002890  45.1647545  66.9616005 114.3823085
  46.4675679  66.5160118 113.7530167  49.4036226  66.7012876 118.3157230
  50.1796616  67.1909328 118.5881846  48.6784360  67.1270930 118.7729099
  51.8408784  67.4140495 119.3731170  52.4353275  67.1736231 118.6624478
  51.9135368  66.6947625 120.0004706  34.0605940  81.2574106 119.6874335
  33.9260408  80.4974507 119.1212333  33.6438002  81.9815006 119.2203124
  45.1964903  76.4411029 108.6950910  45.9000753  76.6461032 109.3108566
  44.4727552  77.0087791 108.9599994  46.0262713  72.1920891 114.8153180
  45.9697915  72.6489442 113.9760813  46.5791056  71.4311575 114.6376023
  49.8367519  67.9810622 115.6403300  49.5804454  67.5807258 116.4711508
  49.2120387  68.6954416 115.5153439  54.1479857  70.7206696 118.1474591
  53.5879415  70.7899885 118.9206153  53.5423361  70.5447680 117.4274088
  37.2175066  82.1543423 119.8992778  37.1007450  83.0988855 119.7971468
  36.3967512  81.8516984 120.2878577  47.1051601  76.8793559 110.7449370
  47.9397205  76.4474757 110.5626845  46.9435944  76.7075572 111.6726265
  46.7597493  73.3825672 112.1105710  46.7046297  73.2169943 111.1694154
  46.1343548  74.0901705 112.2667899  31.5490008  68.6193736 125.9367132
  32.1948871  68.1092690 126.4254357  31.3407159  69.3562418 126.5110557
  44.0743400  75.6874584 131.4359272  44.9434560  75.8615236 131.0745907
  43.5950151  76.5069001 131.3135002  40.0693618  62.8833781 111.6891028
  40.0572288  63.8275621 111.8459299  40.9617040  62.7003926 111.3950489
  38.2429580  82.8071685 123.1148706  39.1456827  82.8395295 123.4315201
  38.0166950  81.8772136 123.1295042  39.9983182  81.5602671 119.7758785
  39.0478813  81.5604533 119.6623157  40.3015668  80.8135406 119.2594819
  43.8845738  59.4776558 115.9436965  43.1178133  58.9235044 116.0893647
  44.2956443  59.5498426 116.8051116  35.8887499  65.7661353 130.0342146
  36.7518960  65.4098158 130.2445471  35.3152909  65.4275248 130.7217550
  55.7335876  87.3963210 120.8404547  56.3714286  87.2769957 120.1367887
  55.6156719  88.3444054 120.8992499  52.5425582  87.3490638 120.7766072
  52.2044093  87.2331702 119.8886607  53.4115350  86.9481803 120.7567078
  48.4012398  89.2026114 116.7662963  47.8377263  89.1116051 115.9979251
  48.2864793  88.3826019 117.2465455  53.0245365  88.5025490 126.7352277
  53.0134006  88.1078288 125.8632781  53.1866004  87.7691562 127.3286049
  45.9476830  90.6977306 119.6047183  46.7398122  90.3568130 119.1893483
  46.1873480  90.8072281 120.5249337  53.9811956  92.8697082 112.0777428
  53.3299936  93.4551162 111.6911441  54.7756319  93.4003277 112.1372465
  47.9067584  89.9586219 112.4764562  48.6798460  89.4115206 112.3377438
  48.2592982  90.8230468 112.6879023  49.7452626  91.2862601 125.6831461
  49.4542492  92.1908232 125.5678128  50.3809610  91.3279129 126.3975531
  50.6708833  88.6639450 122.2732821  51.2672405  88.4395472 121.5589784
  50.7283804  87.9224195 122.8758269  50.2433861  86.1178885 110.1083012
  50.4959382  85.5960406 109.3466475  49.3058420  85.9545031 110.2109696
  55.2877144  85.1214664 117.9157755  56.0740233  84.7034087 117.5648172
  55.5515848  86.0260756 118.0839404  55.4587222  90.5587514 112.6146412
  54.8233055  90.6322140 113.3267317  55.1284628  91.1481113 111.9365491
  60.6885571  85.0589897 118.8190734  61.4210743  84.4889114 119.0528563
  59.9324927  84.6711497 119.2597239  49.9630150  88.0206991 112.3107387
  49.8466408  87.3451895 112.9788471  50.0732410  87.5339365 111.4939540
  52.3061691  87.4817138 116.0154076  51.9419898  86.9547759 116.7266998
  53.1628807  87.0915607 115.8420562  58.2110992  78.7711471 123.2785342
  57.8794316  79.6406882 123.0546557  57.6156605  78.4547755 123.9579373
  51.9467178  82.5107038 111.0115425  52.1141580  83.3787274 111.3785896
  51.7564347  82.6734320 110.0876714  54.7042511  90.9724017 122.6781255
  54.4043234  91.8749056 122.5697062  54.3593571  90.7056200 123.5302408
  48.1554993  87.4237814 118.7117959  47.2305489  87.2914028 118.9195651
  48.4039406  88.2032033 119.2087902  58.1039655  83.4906557 120.3578692
  57.1956532  83.4221965 120.0637453  58.0527251  83.9678502 121.1860518
  51.9256399  84.9664695 111.9962091  51.8056024  85.4121746 112.8347572
  51.2308987  85.3150013 111.4375630  45.5163804  87.0671087 119.5461749
  45.6456185  87.3205566 120.4601160  44.8361255  87.6598795 119.2266404
  49.6863291  97.7368337 115.6452223  49.6087321  98.6876162 115.7240703
  49.0824935  97.3914210 116.3027149  52.1780521  84.9096203 128.3013590
  51.4013855  85.4690123 128.2916454  52.8171084  85.3952986 128.8228460
  59.9701301  81.6922995 122.1356566  59.3275682  81.9855529 121.4896361
  59.4656230  81.5775916 122.9409763  57.6241465  85.4386169 112.8242426
  58.5359321  85.6713555 112.6490123  57.1151112  86.0223213 112.2617504
  50.4326893  87.7181656 127.8631557  51.1741577  88.2566700 127.5866380
  49.7263879  88.3447945 128.0203108  55.9082233  89.8610796 126.4603718
  56.3165589  89.4193207 125.7158350  55.1859494  89.2863424 126.7137911
  52.2613303  84.7983403 123.8337275  53.1074498  85.2222817 123.9771924
  52.2011940  84.1417028 124.5275838  56.2311047  90.4211987 120.2156007
  55.6019910  90.5857701 119.5132075  55.8436709  90.8353597 120.9866971
  60.1100279  91.3566425 117.5700371  59.4251317  91.7365326 117.0197404
  60.1944129  91.9661752 118.3032318  55.4112748  82.4587772 125.4918449
  55.1673680  83.2129832 124.9552724  55.6872679  82.8373119 126.3265696
  57.3651211  89.0026384 124.1695714  57.5768106  89.6458144 123.4930095
  57.3180959  88.1688700 123.7017644  54.9677440  81.6144205 121.0732286
  54.1061919  81.9125458 121.3649024  54.9939874  81.8314603 120.1413319
  51.7839009  90.1586395 117.4806092  52.2477355  90.4374098 116.6910715
  51.5195807  89.2569840 117.2979183  48.6763090  89.7057877 120.4185855
  49.2464447  90.1345145 119.7803340  49.2671202  89.4240461 121.1170041
  50.7207895  86.2809548 114.2895657  51.4231939  86.7330591 114.7569584
  50.3888524  85.6393366 114.9175550  49.1688257  84.8721304 128.6646867
  48.5386917  85.5537585 128.8982263  49.0624345  84.7604386 127.7200005
  44.4633229  84.5393100 119.5912791  43.6732283  84.7950629 119.1152901
  44.9544477  85.3541438 119.6964831  58.4797039  91.8798339 122.3418072
  59.3014483  91.4778527 122.0600753  58.4759442  91.7766574 123.2934187
  46.4147975  84.9037679 116.5496267  45.6179138  85.0156374 117.0679763
  46.1873567  85.2424332 115.6837158  52.2453642  91.4282383 124.4978782
  52.3098075  91.8902790 125.3336954  51.5364566  90.7979748 124.6261092
  42.7470932  84.7923591 122.0227782  42.9978971  85.6770601 122.2885358
  43.2830481  84.6128192 121.2502873  66.5703032  88.2237088 118.6903043
  65.8166740  87.6544486 118.5347048  66.7050573  88.1899752 119.6373678
  51.9601660  93.0950490 114.3657762  51.8247335  93.9402026 114.7942610
  52.5011472  93.2969768 113.6023696  48.4469000  79.1742070 131.0272118
  48.0535945  78.6208269 131.7019762  49.2635140  79.4852648 131.4178635
  45.4131057  90.6125928 114.9385688  45.9255578  91.4069178 115.0891252
  46.0653770  89.9152219 114.8719289  47.2225942  93.7291684 117.0208441
  47.3992570  94.6509649 116.8329425  48.0182776  93.4150104 117.4502820
  51.3636961  80.5899949 128.6192374  52.1046674  81.1907102 128.5396837
  51.5954883  79.8477587 128.0610417  46.5078299  85.7756316 126.8970604
  46.3931814  84.8741574 127.1977703  45.6522816  86.0220013 126.5455420
  53.5870136  93.7174057 128.4958105  53.1433990  92.9310435 128.1779009
  54.2487350  93.9053207 127.8301995  48.3457257  95.2469858 123.0218783
  48.8964683  95.1186922 122.2495777  47.5068733  95.5464747 122.6713676
  55.6851374  93.9976857 126.5239506  55.6669850  94.8185738 126.0319775
  56.6071294  93.8730932 126.7489647  52.1424429  91.5120986 127.3663014
  52.6752765  90.7509274 127.1362322  51.6138510  91.2194638 128.1087169
  55.3094123  76.6181052 122.8956656  54.9658393  77.5082694 122.8195766
  55.6773086  76.4282710 122.0326241  43.3779974  88.9414582 115.7145258
  44.2155196  89.3511591 115.4978966  43.5558242  88.0014025 115.6845452
  55.2744406  86.6089663 111.4029091  54.7591030  87.3794268 111.6417478
  55.0021715  85.9354799 112.0262152  52.8591517  81.4539364 116.4614329
  52.0033114  81.0646214 116.2819968  53.2718469  81.5331325 115.6014115
  54.3890664  78.9885707 120.8605889  53.8855459  78.9515842 120.0473694
  54.6821271  79.8978450 120.9202546  50.6333550  79.0724437 119.8672071
  51.4986547  78.8767246 119.5077960  50.7011059  78.8434789 120.7941428
  60.2478680  89.3622018 113.3382264  59.4708123  89.0233177 112.8937427
  60.9270161  89.3674641 112.6637230  55.0630709  84.4816755 113.2288872
  54.7580845  84.7962904 114.0799015  56.0161151  84.5598175 113.2716205
  53.5077141  90.6406979 114.8781826  52.9798503  89.9059738 114.5655064
  53.0064644  91.4181655 114.6321795  58.4869987  88.8355999 119.9948872
  57.8293662  89.5255260 120.0829001  59.2910386  89.2252431 120.3382859
  48.2395869  81.3026645 117.2388438  48.8139621  81.0801826 116.5061631
  48.8266851  81.3715339 117.9917039  57.2975446  87.1900372 118.0452814
  57.8107328  87.8230364 118.5474524  57.9476670  86.5901567 117.6796174
  48.5665456  83.3331106 111.2584323  47.7302768  83.6705792 111.5793598
  48.4270226  83.1980086 110.3211460  50.5418537  78.1767894 115.9663507
  49.8882949  77.8616911 115.3420122  50.4999011  77.5543634 116.6923330
  51.6529741  88.4587189 107.8816799  50.7456803  88.2276442 108.0807948
  52.1500773  87.6624808 108.0690781  54.5597820  97.1684696 110.8013485
  53.8859519  97.4716393 111.4098443  54.9463642  97.9713776 110.4518942
  53.7756277  84.6649827 120.2911155  52.8578838  84.8864774 120.1332843
  54.1916421  84.7396138 119.4322862  54.5591325  86.0641243 115.4213835
  55.3063144  86.5762640 115.1120957  54.8282914  85.7425296 116.2818229
  52.8317975  88.5599784 112.4040789  51.9229194  88.2758816 112.5013259
  52.8613059  88.9798862 111.5444096  58.0637242  92.1706373 116.1731957
  57.6099569  91.3297283 116.2297147  57.4331209  92.8067772 116.5106737
  57.0070162  83.0998359 117.4032624  56.2692919  82.5875745 117.7342867
  57.2596935  82.6598741 116.5915901  56.5070181  94.0082870 117.1081775
  56.7993156  94.5687927 116.3894141  57.0168802  94.3011431 117.8634934
  57.1081789  75.8774611 117.9974394  57.4140666  75.0171975 117.7100309
  57.8334394  76.4692231 117.7973387  43.4006145  86.2805298 116.3855992
  43.2030545  85.6874658 115.6607058  42.8452809  85.9757508 117.1031930
  51.3802869  86.1728404 118.5050585  51.4351479  85.2202241 118.4293061
  50.5694071  86.3287843 118.9891883  52.5294063  90.1008527 109.7428868
  52.0913493  89.3844386 109.2834505  53.2704503  90.3284642 109.1813959
  49.3195229  84.7905464 116.2640964  48.5063094  85.0899635 116.6706156
  49.8154223  84.3961153 116.9815446  51.4703807  94.7863221 118.1975228
  51.4279985  95.0124067 117.2683760  52.3866506  94.5526596 118.3461029
  54.9169440  85.2547288 125.0955857  55.2718828  85.4818762 125.9550323
  55.5641572  85.5865665 124.4733113  60.6467177  88.3765724 115.8005186
  60.5085076  88.5667320 114.8726376  60.2903396  89.1385107 116.2573238
  48.8109304  82.3623820 121.8802198  49.4508683  82.2212579 121.1825162
  47.9786834  82.0758333 121.5040800  60.6736557  90.4442251 120.8116458
  61.1073064  90.3517540 121.6599512  61.3868138  90.4199752 120.1736474
  49.5869607  91.6626250 117.9937191  50.3810206  91.1676570 117.7919766
  48.8761300  91.1344113 117.6304896  54.4064452  94.0444345 122.3449559
  54.4601474  94.6135282 123.1127274  53.5379233  94.2146231 121.9803596
  45.8952371  85.8069332 114.0696944  44.9649959  85.7453787 114.2866906
  45.9909843  85.2845284 113.2733585  45.8137920  82.3324145 116.6575185
  46.0744737  83.2469478 116.5484346  46.6355092  81.8648587 116.8071798
  47.2862845  83.7461902 123.8274010  47.9585899  83.5379264 123.1786659
  46.4592632  83.5483988 123.3879242  61.5352107  90.4865952 123.3449343
  61.7287997  91.3911763 123.5908618  61.4352725  90.0273371 124.1787928
  53.1888417  80.3723843 125.8439671  52.5416332  81.0713792 125.7504147
  53.9589433  80.8059987 126.2115919  56.5967215  90.6372695 128.9190224
  56.4452722  90.4083246 128.0020308  56.5871895  91.5943296 128.9321569
  53.3652552  88.2104608 123.9036490  54.2944612  88.3615767 123.7305458
  52.9443582  88.2988628 123.0485137  52.1640883  92.2355272 121.6735028
  52.0251969  91.8674056 122.5460966  51.3755480  92.7502911 121.5018986
  52.7589035  97.3364368 113.0160565  52.9340791  96.8652412 113.8306187
  52.0721823  97.9630135 113.2441825  53.7146099  91.6136875 119.0623866
  53.3795931  91.5737645 119.9581516  53.2150044  90.9481591 118.5894276
  47.6890343  87.0204505 124.5876447  47.5510140  86.2884743 125.1887986
  48.5995266  86.9313405 124.3060635  56.6505290  88.9592909 109.3360925
  56.0334461  88.2339737 109.2393978  56.1821779  89.7202269 108.9928000
  50.3172643  86.7324464 124.0760127  51.0272262  86.0917656 124.0346745
  50.2741951  86.9837359 124.9986307  58.3059422  93.6691817 126.9966706
  58.2471968  92.9851037 126.3297289  58.7078940  94.4110807 126.5447332
  49.0301577  83.7189682 125.8955766  48.4938934  83.2680420 126.5477362
  48.4418286  83.8535591 125.1526230  47.3250121 100.4853731 119.7900425
  47.5646719 101.1172255 120.4679443  46.4819317 100.1341771 120.0765784
  48.4403836  83.1778333 108.4582230  47.5633302  83.0567134 108.0944476
  48.9161589  82.3864412 108.2061118  58.3076829  91.6331401 125.2280685
  57.4203608  91.2957323 125.3507084  58.8775380  90.9014433 125.4649451
  39.9605976  87.9655493 118.5523737  40.6477016  87.6517223 117.9644752
  39.8054105  88.8696858 118.2790988  44.7640698  82.8545690 122.9808761
  44.6798887  82.2471359 122.2459171  43.9423405  83.3454708 122.9818257
  51.8377983  96.2932854 122.1941929  51.7648154  97.0987825 122.7061233
  51.3955376  96.4924819 121.3689950  51.6267762  95.5304624 115.7044750
  50.8435284  96.0726304 115.7982975  52.3260507  96.0478603 116.1038991
  54.9364412  81.3399253 118.3478956  55.4333112  80.5869215 118.0280026
  54.1651394  81.3763570 117.7822165  62.7894170  87.0439619 119.9897247
  62.7784046  87.9264334 119.6191180  61.9211549  86.6911169 119.7951784
  54.2976666  96.1919688 124.3500087  55.0104638  96.8267152 124.2775989
  53.8066695  96.2883554 123.5340089  56.0194193  90.0970940 115.9217379
  55.0850472  90.2172403 115.7522083  56.1970861  89.1943407 115.6577389
  51.5199381  83.4816636 118.0750640  51.1497169  82.9287676 118.7631546
  52.0158474  82.8774770 117.5225640  59.4066744  85.9388260 116.4567413
  59.8727197  86.7716251 116.3827716  59.8574245  85.4733241 117.1612672
  49.3488580  93.9414131 125.1705658  50.0498039  94.5750614 125.3235052
  48.8783695  94.2828863 124.4101297  57.4742975  92.2832081 113.4553565
  57.7502819  92.1688675 114.3647439  56.6047474  91.8849566 113.4165738
  57.3783407  78.3068847 120.4958314  56.4646487  78.5373073 120.6640521
  57.8076509  78.3907291 121.3472347  57.1489866  86.4958739 122.9958209
  56.4961316  86.7434646 122.3410661  57.5270245  85.6822877 122.6620686
  54.1097039  96.5318432 117.0986379  54.2919434  95.7140088 117.5614131
  54.9330025  96.7486124 116.6611269  54.4439205  95.4586617 114.3601427
  54.9726971  94.9479071 113.7471589  54.7067425  95.1429147 115.2246960
  53.1977439  87.2378550 129.4824246  52.5218076  87.1372679 130.1526621
  54.0205072  87.0817763 129.9460243  44.9456298  93.4750486 122.1036761
  45.5309734  92.7294174 122.2364665  44.7481136  93.7854443 122.9873425
  47.7994953  96.5101734 117.1199203  47.1305328  96.9947861 116.6363243
  47.6607823  96.7570954 118.0342582  39.5373952  86.0456086 120.8241204
  39.5758052  85.5119677 121.6178322  39.0314245  85.5191292 120.2052181
  51.9400221  98.5445477 123.7181862  52.4918530  98.7077099 124.4830947
  52.2806415  99.1349915 123.0461886  46.9164715  80.8920627 124.3203746
  46.9806041  81.7535458 123.9081144  46.8531835  80.2794629 123.5876105
  46.3916987  82.9643759 127.9676781  47.0189026  82.5820837 128.5814305
  45.5344906  82.7457961 128.3332473  56.7911096  93.3706735 129.5730516
  57.3351000  93.9836693 129.0785471  56.2097941  93.9286313 130.0897529
  43.1682530  84.7720189 113.8995135  43.4635971  83.8630867 113.8462189
  42.2670566  84.7507928 113.5776138  55.0768609  96.4927453 120.7045544
  54.9519748  95.6917192 120.1956489  55.7347700  96.9873646 120.2159514
  46.6976777  82.8476185 119.8822684  45.9763363  83.4612153 119.7430157
  47.4870033  83.3833950 119.8039330  57.1403517  94.2936473 122.3325094
  56.1933853  94.1741824 122.2603421  57.4886290  93.4058971 122.4151355
  49.5003091  80.1830612 126.1563336  50.0237492  80.4292908 126.9189645
  49.2815424  81.0150646 125.7366473  44.8970372  82.4534286 114.0234461
  44.5683078  81.5731665 113.8409566  45.2509742  82.3981955 114.9110850
  54.1449950  94.0889189 118.5329446  53.9974913  93.1605896 118.7137016
  54.9703444  94.1109280 118.0486521  48.0112195  82.7407256 114.3909938
  48.3508267  83.2693177 113.6688547  48.4584315  83.0787662 115.1668505
  57.7484072  94.9117748 119.6194319  58.6730620  94.7060609 119.4818770
  57.5799376  94.6634149 120.5283660  50.7055636  81.1244307 123.8413006
  50.3652456  80.3252120 124.2433686  49.9994642  81.4246018 123.2689839
  51.3572107  78.2093619 122.2940329  52.1798177  77.7354097 122.1719220
  51.6010171  78.9884103 122.7939016  49.9980342  81.2381878 112.5903231
  50.7188704  81.6163130 112.0866948  49.3745646  81.9570754 112.6938209
  54.1411465  81.9427027 113.5261563  54.3575079  82.8251664 113.2250391
  53.6605532  81.5513240 112.7967205  48.8810686  84.9012740 120.1032308
  48.7355267  85.2153043 120.9956589  48.4035890  85.5197640 119.5503207
  50.7407069  81.8915288 120.1513197  50.7268638  80.9956381 119.8145495
  51.4579497  81.8985952 120.7851484  52.5933200  82.3252628 122.1966325
  52.3350978  83.2469699 122.1950655  52.0618240  81.9283062 122.8866789
  57.5379389  95.4303415 114.9756410  57.7116266  94.8649838 114.2230263
  58.0308280  96.2304310 114.7935900  43.3556348  87.4418084 123.0419969
  42.8109816  88.2177892 123.1740243  44.2335698  87.7888889 122.8839091
  50.1443965  80.7729668 115.4200768  50.2659876  79.8446314 115.6191655
  49.8546007  80.7868354 114.5079083  53.0135155  78.4584578 118.5567487
  53.0356852  78.5223912 117.6019467  53.4303214  77.6189087 118.7507994
  63.3918780  88.1939838 116.5946710  63.8349926  87.4447163 116.1965833
  62.5145290  88.1849974 116.2120442  58.5254561  94.7470179 112.0753309
  59.2205466  95.3676872 112.2940623  58.8677711  93.8965531 112.3505686
  44.1422370  86.5687980 125.9350126  43.4004106  86.7170616 126.5214756
  43.8215114  86.8296246 125.0716875  60.4245984  92.1969885 113.6040639
  60.9497308  92.5357158 112.8789959  60.3368337  91.2616900 113.4203774
  52.0866033  96.1103959 125.7330516  52.3953159  95.8653105 126.6053216
  52.8841515  96.3150597 125.2449386  52.1086645  98.2641868 117.9635893
  51.6691635  97.7718247 118.6568749  52.8594762  97.7214836 117.7227968
  44.5878984  94.4553409 117.9660521  45.4137004  94.1557181 117.5859164
  44.2373036  93.6861032 118.4150309  49.5560517  93.8079877 120.0358194
  48.9340526  93.1450582 119.7360422  50.2265384  93.8341009 119.3531842
  42.7887589  92.3739736 118.9249454  41.9519497  91.9461910 118.7433455
  42.7611234  92.5672179 119.8620245  49.6285045  82.2861665 129.6290700
  49.6773200  83.1623788 129.2468470  50.1707559  81.7439058 129.0562343
  60.1139890  92.8302789 128.9091837  59.3235434  92.8126928 128.3696337
  59.8773245  93.3691082 129.6640874  60.2337765  89.6795255 126.2224566
  60.2835770  89.5145262 127.1640089  60.1251689  88.8122514 125.8322447
  49.1174024  92.3583801 113.5116655  49.2662144  93.0419265 112.8583327
  49.9240467  92.3388891 114.0266110  57.5241528  85.6626183 127.5383873
  58.4251390  85.5232648 127.2467870  57.5989502  85.8280638 128.4782050
  51.8584333  83.0393038 126.3837059  50.9887642  83.3326604 126.1119647
  52.0943813  83.6233483 127.1044322  61.7355962  92.0992197 126.4666587
  61.4440770  92.4622177 127.3030048  61.1228093  91.3859205 126.2879919
  62.9351644  89.6645076 118.9869158  63.7698536  90.1034880 119.1506718
  63.0710773  89.1883730 118.1677403  59.9843150  87.2224811 124.9346645
  60.4597272  87.4152457 124.1265497  59.0608716  87.2783997 124.6890029
  46.8726657  88.3848978 114.5177724  46.6272699  87.4811308 114.7157934
  47.0422571  88.3866129 113.5757202  54.5623367  79.2572655 123.9002479
  55.0805311  79.9933682 123.5748968  54.2078500  79.5636648 124.7349238
  46.1422304  84.1177336 112.0163885  45.4491549  84.1921691 111.3603921
  45.8974056  83.3537680 112.5385402  54.8135961  75.6772937 119.4203376
  55.0937715  75.0096126 120.0463802  55.5986568  75.8702033 118.9078040
  52.6169429  94.8531931 110.9828402  52.0443397  95.4722118 110.5298874
  53.1902223  95.4031293 111.5168324  58.6844819  84.0990571 123.1674951
  59.6362242  84.1988669 123.1887175  58.5148270  83.3068840 123.6773035
  56.7059199  81.1846154 123.3534352  56.1109131  81.4651167 122.6580841
  56.4208895  81.6740055 124.1251093  55.8366689  95.1369081 112.1136984
  56.7697362  95.0714643 112.3169860  55.7489902  95.9725348 111.6551517
  58.4654706  94.4534952 109.0740932  58.3868337  94.1194815 109.9676690
  59.2864373  94.9456720 109.0732404  61.1632897  87.3196691 122.2817251
  61.1309217  86.3812692 122.4676934  61.7733521  87.3980728 121.5483075
  53.0016228  86.1892744 108.3244455  53.9475333  86.0598952 108.3932873
  52.6230473  85.4507406 108.8013883  61.3127386  84.1107734 122.3275534
  60.7966434  83.3266191 122.1405463  62.1967334  83.7826451 122.4922053
  58.9738112  77.8548750 118.2871346  58.7762934  77.5463838 119.1714678
  59.5837818  78.5810389 118.4169276  66.9809447  88.3812698 121.4223287
  67.7112835  88.1197986 121.9830991  66.3716392  87.6441420 121.4625355
  65.0624744  86.5220560 122.0197739  64.3357908  86.3876525 121.4114230
  64.6472031  86.8297389 122.8254457  52.8854920  90.2410490 129.7845112
  53.8057930  90.4189089 129.9785158  52.8504504  89.2966535 129.6324811
  51.1859145  84.1142720 108.2599340  50.2790600  83.8175833 108.3362053
  51.4635126  83.8172538 107.3933626  42.1037085  85.4349084 118.7098386
  41.7839870  84.5814392 118.4172760  41.5570514  85.6497662 119.4656354
  45.8816993  88.1511525 122.4267893  46.1003003  89.0828633 122.4455927
  46.2942767  87.7919499 123.2122697  52.8021211  78.6579610 114.4143581
  51.9921939  78.3126695 114.7898827  53.4905628  78.3487154 115.0031193
  54.7311759  77.7357657 116.0367878  55.2842798  78.1553110 116.6957901
  54.9681845  76.8093405 116.0790834  50.7544858  83.7244730 131.8170642
  50.6541585  84.6739087 131.7482733  50.5366400  83.3962969 130.9446712
  49.9557930  80.9729656 108.4011319  50.8177094  81.2984554 108.6607136
  50.1408274  80.1861151 107.8884385  41.9725345  89.0551995 120.6791508
  41.2788817  88.6405948 120.1661462  42.7198336  89.0972532 120.0824927
  58.1090566  79.8458182 115.5446542  57.5289235  80.5042986 115.1624594
  57.8426499  79.0235527 115.1333960  56.5594133  79.2463240 117.7467862
  57.0593911  79.3579774 116.9382181  57.2029740  78.9424293 118.3868671
  50.6176128  87.1541869 130.6335703  50.1343210  87.9542229 130.8399592
  50.7037067  87.1649814 129.6803147  43.8862088  88.9870249 118.5557523
  43.8632776  89.0857936 117.6039406  44.1962724  89.8335400 118.8774689
  46.5449466  91.0446404 122.6704137  47.4992719  91.0130346 122.6034069
  46.3461989  90.5837028 123.4854363  47.1348848  89.6147520 125.2374935
  47.9541737  90.1091599 125.2609772  47.4085656  88.6979488 125.2092502
  56.8915444  82.0058272 114.6002890  56.0041299  82.2907923 114.3823085
  57.3069433  81.8452036 113.7530167  60.2429980  82.0304793 118.3157230
  61.0190370  82.5201246 118.5881846  59.5178115  82.4562848 118.7729099
  62.6802539  82.7432413 119.3731170  63.2747030  82.5028149 118.6624478
  62.7529123  82.0239543 120.0004706  44.8999695  96.5866024 119.6874335
  44.7654163  95.8266424 119.1212333  44.4831757  97.3106923 119.2203124
  56.0358658  91.7702947 108.6950910  56.7394508  91.9752950 109.3108566
  55.3121306  92.3379709 108.9599994  56.8656468  87.5212808 114.8153180
  56.8091669  87.9781360 113.9760813  57.4184810  86.7603493 114.6376023
  60.6761274  83.3102540 115.6403300  60.4198208  82.9099176 116.4711508
  60.0514142  84.0246334 115.5153439  64.9873612  86.0498613 118.1474591
  64.4273170  86.1191803 118.9206153  64.3817115  85.8739598 117.4274088
  48.0568821  97.4835341 119.8992778  47.9401205  98.4280773 119.7971468
  47.2361267  97.1808902 120.2878577  57.9445355  92.2085476 110.7449370
  58.7790959  91.7766675 110.5626845  57.7829698  92.0367490 111.6726265
  57.5991247  88.7117590 112.1105710  57.5440051  88.5461861 111.1694154
  56.9737303  89.4193622 112.2667899  42.3883762  83.9485654 125.9367132
  43.0342626  83.4384608 126.4254357  42.1800913  84.6854336 126.5110557
  54.9137154  91.0166501 131.4359272  55.7828314  91.1907154 131.0745907
  54.4343906  91.8360918 131.3135002  50.9087373  78.2125699 111.6891028
  50.8966043  79.1567538 111.8459299  51.8010795  78.0295844 111.3950489
  49.0823335  98.1363602 123.1148706  49.9850581  98.1687213 123.4315201
  48.8560705  97.2064053 123.1295042  50.8376937  96.8894589 119.7758785
  49.8872568  96.8896451 119.6623157  51.1409423  96.1427324 119.2594819
  54.7239492  74.8068475 115.9436965  53.9571888  74.2526962 116.0893647
  55.1350197  74.8790344 116.8051116  46.7281253  81.0953271 130.0342146
  47.5912715  80.7390076 130.2445471  46.1546664  80.7567166 130.7217550
  66.5729630 102.7255127 120.8404547  67.2108040 102.6061875 120.1367887
  66.4550473 103.6735971 120.8992499  63.3819336 102.6782555 120.7766072
  63.0437848 102.5623620 119.8886607  64.2509105 102.2773721 120.7567078
  59.2406152 104.5318032 116.7662963  58.6771017 104.4407969 115.9979251
  59.1258547 103.7117936 117.2465455  63.8639119 103.8317407 126.7352277
  63.8527760 103.4370205 125.8632781  64.0259759 103.0983480 127.3286049
  56.7870584 106.0269223 119.6047183  57.5791876 105.6860048 119.1893483
  57.0267234 106.1364199 120.5249337  64.8205711 108.1989000 112.0777428
  64.1693691 108.7843080 111.6911441  65.6150074 108.7295194 112.1372465
  58.7461338 105.2878137 112.4764562  59.5192214 104.7407124 112.3377438
  59.0986737 106.1522386 112.6879023  60.5846381 106.6154519 125.6831461
  60.2936247 107.5200150 125.5678128  61.2203365 106.6571047 126.3975531
  61.5102587 103.9931368 122.2732821  62.1066160 103.7687390 121.5589784
  61.5677559 103.2516113 122.8758269  61.0827616 101.4470803 110.1083012
  61.3353137 100.9252324 109.3466475  60.1452175 101.2836948 110.2109696
  66.1270899 100.4506581 117.9157755  66.9133988 100.0326004 117.5648172
  66.3909603 101.3552673 118.0839404  66.2980976 105.8879432 112.6146412
  65.6626809 105.9614058 113.3267317  65.9678382 106.4773030 111.9365491
  71.5279326 100.3881814 118.8190734  72.2604498  99.8181031 119.0528563
  70.7718681 100.0003415 119.2597239  60.8023905 103.3498909 112.3107387
  60.6860163 102.6743812 112.9788471  60.9126164 102.8631283 111.4939540
  63.1455446 102.8109056 116.0154076  62.7813653 102.2839677 116.7266998
  64.0022561 102.4207525 115.8420562  69.0504746  94.1003389 123.2785342
  68.7188071  94.9698799 123.0546557  68.4550360  93.7839673 123.9579373
  62.7860932  97.8398956 111.0115425  62.9535335  98.7079192 111.3785896
  62.5958102  98.0026237 110.0876714  65.5436266 106.3015935 122.6781255
  65.2436989 107.2040973 122.5697062  65.1987325 106.0348118 123.5302408
  58.9948747 102.7529731 118.7117959  58.0699244 102.6205945 118.9195651
  59.2433160 103.5323951 119.2087902  68.9433409  98.8198475 120.3578692
  68.0350287  98.7513883 120.0637453  68.8921005  99.2970420 121.1860518
  62.7650153 100.2956613 111.9962091  62.6449779 100.7413664 112.8347572
  62.0702742 100.6441931 111.4375630  56.3557558 102.3963005 119.5461749
  56.4849939 102.6497484 120.4601160  55.6755009 102.9890713 119.2266404
  60.5257045 113.0660255 115.6452223  60.4481075 114.0168080 115.7240703
  59.9218689 112.7206127 116.3027149  63.0174275 100.2388120 128.3013590
  62.2407609 100.7982040 128.2916454  63.6564838 100.7244903 128.8228460
  70.8095056  97.0214913 122.1356566  70.1669436  97.3147446 121.4896361
  70.3049984  96.9067833 122.9409763  68.4635220 100.7678086 112.8242426
  69.3753076 101.0005473 112.6490123  67.9544867 101.3515130 112.2617504
  61.2720648 103.0473574 127.8631557  62.0135332 103.5858618 127.5866380
  60.5657633 103.6739862 128.0203108  66.7475987 105.1902714 126.4603718
  67.1559343 104.7485125 125.7158350  66.0253249 104.6155342 126.7137911
  63.1007057 100.1275321 123.8337275  63.9468252 100.5514734 123.9771924
  63.0405695  99.4708945 124.5275838  67.0704802 105.7503905 120.2156007
  66.4413664 105.9149619 119.5132075  66.6830464 106.1645514 120.9866971
  70.9494034 106.6858343 117.5700371  70.2645072 107.0657244 117.0197404
  71.0337883 107.2953669 118.3032318  66.2506503  97.7879689 125.4918449
  66.0067434  98.5421750 124.9552724  66.5266433  98.1665037 126.3265696
  68.2044965 104.3318302 124.1695714  68.4161861 104.9750061 123.4930095
  68.1574714 103.4980618 123.7017644  65.8071194  96.9436122 121.0732286
  64.9455673  97.2417376 121.3649024  65.8333629  97.1606521 120.1413319
  62.6232764 105.4878313 117.4806092  63.0871109 105.7666016 116.6910715
  62.3589562 104.5861757 117.2979183  59.5156845 105.0349794 120.4185855
  60.0858202 105.4637063 119.7803340  60.1064957 104.7532379 121.1170041
  61.5601650 101.6101465 114.2895657  62.2625693 102.0622509 114.7569584
  61.2282278 100.9685284 114.9175550  60.0082011 100.2013222 128.6646867
  59.3780672 100.8829503 128.8982263  59.9018099 100.0896303 127.7200005
  55.3026984  99.8685018 119.5912791  54.5126038 100.1242546 119.1152901
  55.7938231 100.6833356 119.6964831  69.3190793 107.2090257 122.3418072
  70.1408237 106.8070444 122.0600753  69.3153196 107.1058491 123.2934187
  57.2541729 100.2329597 116.5496267  56.4572892 100.3448291 117.0679763
  57.0267321 100.5716249 115.6837158  63.0847397 106.7574300 124.4978782
  63.1491829 107.2194708 125.3336954  62.3758321 106.1271665 124.6261092
  53.5864687 100.1215508 122.0227782  53.8372725 101.0062518 122.2885358
  54.1224235  99.9420110 121.2502873  77.4096786 103.5529006 118.6903043
  76.6560495 102.9836404 118.5347048  77.5444328 103.5191670 119.6373678
  62.7995414 108.4242408 114.3657762  62.6641089 109.2693944 114.7942610
  63.3405227 108.6261685 113.6023696  59.2862754  94.5033988 131.0272118
  58.8929700  93.9500186 131.7019762  60.1028894  94.8144566 131.4178635
  56.2524812 105.9417846 114.9385688  56.7649332 106.7361096 115.0891252
  56.9047525 105.2444136 114.8719289  58.0619696 109.0583602 117.0208441
  58.2386325 109.9801567 116.8329425  58.8576530 108.7442021 117.4502820
  62.2030715  95.9191867 128.6192374  62.9440428  96.5199020 128.5396837
  62.4348638  95.1769505 128.0610417  57.3472053 101.1048234 126.8970604
  57.2325568 100.2033491 127.1977703  56.4916571 101.3511931 126.5455420
  64.4263891 109.0465974 128.4958105  63.9827745 108.2602353 128.1779009
  65.0881104 109.2345125 127.8301995  59.1851012 110.5761776 123.0218783
  59.7358437 110.4478839 122.2495777  58.3462488 110.8756665 122.6713676
  66.5245129 109.3268774 126.5239506  66.5063604 110.1477655 126.0319775
  67.4465049 109.2022849 126.7489647  62.9818183 106.8412904 127.3663014
  63.5146520 106.0801192 127.1362322  62.4532264 106.5486556 128.1087169
  66.1487878  91.9472970 122.8956656  65.8052147  92.8374611 122.8195766
  66.5166841  91.7574627 122.0326241  54.2173729 104.2706500 115.7145258
  55.0548951 104.6803509 115.4978966  54.3951996 103.3305942 115.6845452
  66.1138161 101.9381581 111.4029091  65.5984784 102.7086185 111.6417478
  65.8415469 101.2646717 112.0262152  63.6985272  96.7831282 116.4614329
  62.8426868  96.3938132 116.2819968  64.1112223  96.8623242 115.6014115
  65.2284418  94.3177625 120.8605889  64.7249214  94.2807760 120.0473694
  65.5215025  95.2270368 120.9202546  61.4727304  94.4016355 119.8672071
  62.3380301  94.2059163 119.5077960  61.5404813  94.1726706 120.7941428
  71.0872435 104.6913935 113.3382264  70.3101878 104.3525095 112.8937427
  71.7663916 104.6966559 112.6637230  65.9024464  99.8108673 113.2288872
  65.5974599 100.1254822 114.0799015  66.8554906  99.8890093 113.2716205
  64.3470896 105.9698896 114.8781826  63.8192257 105.2351656 114.5655064
  63.8458398 106.7473573 114.6321795  69.3263742 104.1647917 119.9948872
  68.6687416 104.8547178 120.0829001  70.1304141 104.5544349 120.3382859
  59.0789623  96.6318562 117.2388438  59.6533375  96.4093744 116.5061631
  59.6660606  96.7007257 117.9917039  68.1369201 102.5192289 118.0452814
  68.6501082 103.1522281 118.5474524  68.7870424 101.9193485 117.6796174
  59.4059210  98.6623024 111.2584323  58.5696523  98.9997710 111.5793598
  59.2663980  98.5272003 110.3211460  61.3812291  93.5059811 115.9663507
  60.7276703  93.1908829 115.3420122  61.3392765  92.8835552 116.6923330
  62.4923496 103.7879106 107.8816799  61.5850558 103.5568360 108.0807948
  62.9894528 102.9916726 108.0690781  65.3991575 112.4976614 110.8013485
  64.7253274 112.8008310 111.4098443  65.7857397 113.3005694 110.4518942
  64.6150031  99.9941745 120.2911155  63.6972593 100.2156692 120.1332843
  65.0310175 100.0688055 119.4322862  65.3985079 101.3933161 115.4213835
  66.1456898 101.9054558 115.1120957  65.6676669 101.0717213 116.2818229
  63.6711729 103.8891701 112.4040789  62.7622949 103.6050734 112.5013259
  63.7006813 104.3090780 111.5444096  68.9030997 107.4998291 116.1731957
  68.4493324 106.6589201 116.2297147  68.2724963 108.1359689 116.5106737
  67.8463916  98.4290277 117.4032624  67.1086673  97.9167663 117.7342867
  68.0990690  97.9890658 116.5915901  67.3463936 109.3374788 117.1081775
  67.6386910 109.8979845 116.3894141  67.8562557 109.6303349 117.8634934
  67.9475544  91.2066529 117.9974394  68.2534420  90.3463892 117.7100309
  68.6728148  91.7984149 117.7973387  54.2399900 101.6097215 116.3855992
  54.0424300 101.0166576 115.6607058  53.6846564 101.3049426 117.1031930
  62.2196623 101.5020322 118.5050585  62.2745233 100.5494158 118.4293061
  61.4087825 101.6579761 118.9891883  63.3687817 105.4300445 109.7428868
  62.9307247 104.7136304 109.2834505  64.1098258 105.6576560 109.1813959
  60.1588983 100.1197382 116.2640964  59.3456849 100.4191552 116.6706156
  60.6547977  99.7253070 116.9815446  62.3097561 110.1155139 118.1975228
  62.2673740 110.3415985 117.2683760  63.2260260 109.8818513 118.3461029
  65.7563195 100.5839206 125.0955857  66.1112583 100.8110679 125.9550323
  66.4035326 100.9157583 124.4733113  71.4860932 103.7057642 115.8005186
  71.3478830 103.8959238 114.8726376  71.1297151 104.4677025 116.2573238
  59.6503058  97.6915737 121.8802198  60.2902437  97.5504496 121.1825162
  58.8180589  97.4050251 121.5040800  71.5130312 105.7734169 120.8116458
  71.9466818 105.6809458 121.6599512  72.2261892 105.7491670 120.1736474
  60.4263362 106.9918168 117.9937191  61.2203960 106.4968488 117.7919766
  59.7155054 106.4636031 117.6304896  65.2458206 109.3736263 122.3449559
  65.2995229 109.9427199 123.1127274  64.3772988 109.5438148 121.9803596
  56.7346125 101.1361249 114.0696944  55.8043714 101.0745705 114.2866906
  56.8303597 100.6137202 113.2733585  56.6531674  97.6616062 116.6575185
  56.9138492  98.5761395 116.5484346  57.4748847  97.1940505 116.8071798
  58.1256600  99.0753819 123.8274010  58.7979653  98.8671182 123.1786659
  57.2986386  98.8775905 123.3879242  72.3745861 105.8157870 123.3449343
  72.5681751 106.7203680 123.5908618  72.2746479 105.3565289 124.1787928
  64.0282172  95.7015760 125.8439671  63.3810087  96.4005710 125.7504147
  64.7983187  96.1351904 126.2115919  67.4360970 105.9664612 128.9190224
  67.2846476 105.7375164 128.0020308  67.4265649 106.9235214 128.9321569
  64.2046306 103.5396525 123.9036490  65.1338366 103.6907685 123.7305458
  63.7837336 103.6280546 123.0485137  63.0034638 107.5647190 121.6735028
  62.8645724 107.1965974 122.5460966  62.2149234 108.0794829 121.5018986
  63.5982790 112.6656286 113.0160565  63.7734546 112.1944329 113.8306187
  62.9115578 113.2922052 113.2441825  64.5539853 106.9428792 119.0623866
  64.2189686 106.9029562 119.9581516  64.0543799 106.2773508 118.5894276
  58.5284097 102.3496422 124.5876447  58.3903895 101.6176661 125.1887986
  59.4389021 102.2605322 124.3060635  67.4899045 104.2884827 109.3360925
  66.8728215 103.5631655 109.2393978  67.0215533 105.0494187 108.9928000
  61.1566398 102.0616382 124.0760127  61.8666016 101.4209574 124.0346745
  61.1135706 102.3129277 124.9986307  69.1453176 108.9983735 126.9966706
  69.0865723 108.3142955 126.3297289  69.5472695 109.7402725 126.5447332
  59.8695332  99.0481600 125.8955766  59.3332689  98.5972338 126.5477362
  59.2812040  99.1827508 125.1526230  58.1643875 115.8145649 119.7900425
  58.4040473 116.4464173 120.4679443  57.3213072 115.4633689 120.0765784
  59.2797591  98.5070251 108.4582230  58.4027057  98.3859052 108.0944476
  59.7555344  97.7156329 108.2061118  69.1470584 106.9623319 125.2280685
  68.2597362 106.6249241 125.3507084  69.7169135 106.2306350 125.4649451
  50.7999731 103.2947411 118.5523737  51.4870771 102.9809141 117.9644752
  50.6447859 104.1988775 118.2790988  55.6034453  98.1837607 122.9808761
  55.5192642  97.5763277 122.2459171  54.7817159  98.6746626 122.9818257
  62.6771737 111.6224771 122.1941929  62.6041909 112.4279743 122.7061233
  62.2349130 111.8216737 121.3689950  62.4661517 110.8596541 115.7044750
  61.6829039 111.4018222 115.7982975  63.1654262 111.3770521 116.1038991
  65.7758167  96.6691171 118.3478956  66.2726866  95.9161133 118.0280026
  65.0045148  96.7055487 117.7822165  73.6287924 102.3731536 119.9897247
  73.6177800 103.2556252 119.6191180  72.7605304 102.0203087 119.7951784
  65.1370421 111.5211605 124.3500087  65.8498393 112.1559070 124.2775989
  64.6460449 111.6175471 123.5340089  66.8587947 105.4262858 115.9217379
  65.9244226 105.5464320 115.7522083  67.0364616 104.5235325 115.6577389
  62.3593136  98.8108554 118.0750640  61.9890923  98.2579594 118.7631546
  62.8552228  98.2066687 117.5225640  70.2460499 101.2680177 116.4567413
  70.7120951 102.1008169 116.3827716  70.6967999 100.8025159 117.1612672
  60.1882334 109.2706049 125.1705658  60.8891794 109.9042532 125.3235052
  59.7177449 109.6120780 124.4101297  68.3136730 107.6123999 113.4553565
  68.5896574 107.4980593 114.3647439  67.4441229 107.2141483 113.4165738
  68.2177162  93.6360764 120.4958314  67.3040241  93.8664991 120.6640521
  68.6470263  93.7199208 121.3472347  67.9883620 101.8250656 122.9958209
  67.3355070 102.0726564 122.3410661  68.3664000 101.0114794 122.6620686
  64.9490794 111.8610349 117.0986379  65.1313188 111.0432005 117.5614131
  65.7723780 112.0778042 116.6611269  65.2832959 110.7878535 114.3601427
  65.8120726 110.2770989 113.7471589  65.5461179 110.4721065 115.2246960
  64.0371193 102.5670467 129.4824246  63.3611830 102.4664597 130.1526621
  64.8598827 102.4109681 129.9460243  55.7850052 108.8042404 122.1036761
  56.3703489 108.0586092 122.2364665  55.5874891 109.1146361 122.9873425
  58.6388707 111.8393651 117.1199203  57.9699083 112.3239779 116.6363243
  58.5001577 112.0862872 118.0342582  50.3767707 101.3748004 120.8241204
  50.4151806 100.8411595 121.6178322  49.8708000 100.8483210 120.2052181
  62.7793976 113.8737395 123.7181862  63.3312284 114.0369016 124.4830947
  63.1200169 114.4641833 123.0461886  57.7558469  96.2212545 124.3203746
  57.8199796  97.0827375 123.9081144  57.6925589  95.6086546 123.5876105
  57.2310742  98.2935677 127.9676781  57.8582781  97.9112754 128.5814305
  56.3738661  98.0749879 128.3332473  67.6304850 108.6998652 129.5730516
  68.1744754 109.3128611 129.0785471  67.0491695 109.2578231 130.0897529
  54.0076284 100.1012106 113.8995135  54.3029726  99.1922785 113.8462189
  53.1064320 100.0799846 113.5776138  65.9162363 111.8219370 120.7045544
  65.7913503 111.0209110 120.1956489  66.5741454 112.3165564 120.2159514
  57.5370531  98.1768103 119.8822684  56.8157117  98.7904070 119.7430157
  58.3263787  98.7125868 119.8039330  67.9797272 109.6228390 122.3325094
  67.0327607 109.5033742 122.2603421  68.3280045 108.7350888 122.4151355
  60.3396845  95.5122529 126.1563336  60.8631247  95.7584826 126.9189645
  60.1209178  96.3442564 125.7366473  55.7364126  97.7826204 114.0234461
  55.4076832  96.9023583 113.8409566  56.0903497  97.7273873 114.9110850
  64.9843705 109.4181107 118.5329446  64.8368667 108.4897814 118.7137016
  65.8097198 109.4401197 118.0486521  58.8505949  98.0699174 114.3909938
  59.1902022  98.5985095 113.6688547  59.2978070  98.4079580 115.1668505
  68.5877827 110.2409665 119.6194319  69.5124374 110.0352527 119.4818770
  68.4193130 109.9926066 120.5283660  61.5449390  96.4536224 123.8413006
  61.2046210  95.6544037 124.2433686  60.8388396  96.7537935 123.2689839
  62.1965862  93.5385537 122.2940329  63.0191931  93.0646015 122.1719220
  62.4403925  94.3176021 122.7939016  60.8374096  96.5673795 112.5903231
  61.5582459  96.9455048 112.0866948  60.2139400  97.2862672 112.6938209
  64.9805219  97.2718944 113.5261563  65.1968834  98.1543582 113.2250391
  64.4999286  96.8805158 112.7967205  59.7204441 100.2304657 120.1032308
  59.5749021 100.5444961 120.9956589  59.2429644 100.8489558 119.5503207
  61.5800824  97.2207205 120.1513197  61.5662392  96.3248299 119.8145495
  62.2973252  97.2277869 120.7851484  63.4326954  97.6544546 122.1966325
  63.1744732  98.5761616 122.1950655  62.9011995  97.2574980 122.8866789
  68.3773143 110.7595333 114.9756410  68.5510021 110.1941755 114.2230263
  68.8702034 111.5596228 114.7935900  54.1950103 102.7710002 123.0419969
  53.6503571 103.5469810 123.1740243  55.0729453 103.1180806 122.8839091
  60.9837719  96.1021586 115.4200768  61.1053631  95.1738232 115.6191655
  60.6939762  96.1160272 114.5079083  63.8528910  93.7876496 118.5567487
  63.8750607  93.8515829 117.6019467  64.2696969  92.9481005 118.7507994
  74.2312534 103.5231756 116.5946710  74.6743680 102.7739081 116.1965833
  73.3539044 103.5141892 116.2120442  69.3648315 110.0762097 112.0753309
  70.0599220 110.6968790 112.2940623  69.7071466 109.2257448 112.3505686
  54.9816125 101.8979898 125.9350126  54.2397861 102.0462533 126.5214756
  54.6608869 102.1588164 125.0716875  71.2639739 107.5261803 113.6040639
  71.7891063 107.8649075 112.8789959  71.1762091 106.5908818 113.4203774
  62.9259787 111.4395876 125.7330516  63.2346914 111.1945023 126.6053216
  63.7235269 111.6442515 125.2449386  62.9480399 113.5933786 117.9635893
  62.5085390 113.1010165 118.6568749  63.6988516 113.0506754 117.7227968
  55.4272738 109.7845327 117.9660521  56.2530758 109.4849099 117.5859164
  55.0766790 109.0152949 118.4150309  60.3954271 109.1371795 120.0358194
  59.7734281 108.4742500 119.7360422  61.0659138 109.1632927 119.3531842
  53.6281343 107.7031653 118.9249454  52.7913252 107.2753828 118.7433455
  53.6004989 107.8964097 119.8620245  60.4678799  97.6153583 129.6290700
  60.5166954  98.4915706 129.2468470  61.0101313  97.0730976 129.0562343
  70.9533645 108.1594706 128.9091837  70.1629188 108.1418845 128.3696337
  70.7166999 108.6983000 129.6640874  71.0731520 105.0087173 126.2224566
  71.1229525 104.8437180 127.1640089  70.9645443 104.1414432 125.8322447
  59.9567778 107.6875718 113.5116655  60.1055899 108.3711183 112.8583327
  60.7634222 107.6680808 114.0266110  68.3635282 100.9918101 127.5383873
  69.2645145 100.8524566 127.2467870  68.4383257 101.1572556 128.4782050
  62.6978087  98.3684955 126.3837059  61.8281397  98.6618522 126.1119647
  62.9337568  98.9525400 127.1044322  72.5749717 107.4284114 126.4666587
  72.2834525 107.7914095 127.3030048  71.9621848 106.7151123 126.2879919
  73.7745399 104.9936994 118.9869158  74.6092290 105.4326798 119.1506718
  73.9104528 104.5175647 118.1677403  70.8236905 102.5516729 124.9346645
  71.2991026 102.7444375 124.1265497  69.9002470 102.6075915 124.6890029
  57.7120411 103.7140896 114.5177724  57.4666453 102.8103226 114.7157934
  57.8816326 103.7158046 113.5757202  65.4017121  94.5864572 123.9002479
  65.9199065  95.3225599 123.5748968  65.0472254  94.8928566 124.7349238
  56.9816059  99.4469254 112.0163885  56.2885304  99.5213609 111.3603921
  56.7367811  98.6829597 112.5385402  65.6529715  91.0064855 119.4203376
  65.9331469  90.3388044 120.0463802  66.4380322  91.1993951 118.9078040
  63.4563184 110.1823849 110.9828402  62.8837151 110.8014036 110.5298874
  64.0295978 110.7323211 111.5168324  69.5238574  99.4282489 123.1674951
  70.4755997  99.5280587 123.1887175  69.3542024  98.6360757 123.6773035
  67.5452953  96.5138072 123.3534352  66.9502885  96.7943085 122.6580841
  67.2602650  97.0031973 124.1251093  66.6760444 110.4660999 112.1136984
  67.6091117 110.4006561 112.3169860  66.5883657 111.3017266 111.6551517
  69.3048460 109.7826869 109.0740932  69.2262092 109.4486733 109.9676690
  70.1258127 110.2748637 109.0732404  72.0026652 102.6488609 122.2817251
  71.9702972 101.7104609 122.4676934  72.6127275 102.7272645 121.5483075
  63.8409982 101.5184662 108.3244455  64.7869087 101.3890870 108.3932873
  63.4624227 100.7799324 108.8013883  72.1521140  99.4399652 122.3275534
  71.6360189  98.6558109 122.1405463  73.0361089  99.1118369 122.4922053
  69.8131867  93.1840668 118.2871346  69.6156688  92.8755756 119.1714678
  70.4231573  93.9102307 118.4169276  77.8203201 103.7104615 121.4223287
  78.5506590 103.4489904 121.9830991  77.2110147 102.9733337 121.4625355
  75.9018499 101.8512478 122.0197739  75.1751662 101.7168443 121.4114230
  75.4865785 102.1589307 122.8254457  63.7248675 105.5702408 129.7845112
  64.6451684 105.7481007 129.9785158  63.6898258 104.6258453 129.6324811
  62.0252900  99.4434638 108.2599340  61.1184355  99.1467751 108.3362053
  62.3028881  99.1464456 107.3933626  52.9430840 100.7641001 118.7098386
  52.6233624  99.9106310 118.4172760  52.3964268 100.9789580 119.4656354
  56.7210748 103.4803442 122.4267893  56.9396757 104.4120550 122.4455927
  57.1336521 103.1211417 123.2122697  63.6414965  93.9871528 114.4143581
  62.8315694  93.6418613 114.7898827  64.3299382  93.6779071 115.0031193
  65.5705514  93.0649575 116.0367878  66.1236552  93.4845028 116.6957901
  65.8075600  92.1385323 116.0790834  61.5938613  99.0536648 131.8170642
  61.4935340 100.0031005 131.7482733  61.3760155  98.7254887 130.9446712
  60.7951684  96.3021573 108.4011319  61.6570848  96.6276472 108.6607136
  60.9802028  95.5153069 107.8884385  52.8119100 104.3843913 120.6791508
  52.1182571 103.9697866 120.1661462  53.5592091 104.4264449 120.0824927
  68.9484321  95.1750100 115.5446542  68.3682990  95.8334904 115.1624594
  68.6820253  94.3527444 115.1333960  67.3987887  94.5755157 117.7467862
  67.8987665  94.6871692 116.9382181  68.0423495  94.2716210 118.3868671
  61.4569883 102.4833787 130.6335703  60.9736965 103.2834147 130.8399592
  61.5430822 102.4941732 129.6803147  54.7255842 104.3162167 118.5557523
  54.7026531 104.4149854 117.6039406  55.0356479 105.1627317 118.8774689
  57.3843220 106.3738322 122.6704137  58.3386474 106.3422264 122.6034069
  57.1855744 105.9128945 123.4854363  57.9742602 104.9439438 125.2374935
  58.7935491 105.4383516 125.2609772  58.2479410 104.0271406 125.2092502
  67.7309199  97.3350190 114.6002890  66.8435054  97.6199841 114.3823085
  68.1463188  97.1743953 113.7530167  71.0823735  97.3596711 118.3157230
  71.8584125  97.8493163 118.5881846  70.3571869  97.7854765 118.7729099
  73.5196293  98.0724330 119.3731170  74.1140784  97.8320066 118.6624478
  73.5922877  97.3531461 120.0004706  55.7393449 111.9157941 119.6874335
  55.6047917 111.1558342 119.1212333  55.3225511 112.6398841 119.2203124
  66.8752412 107.0994865 108.6950910  67.5788262 107.3044867 109.3108566
  66.1515061 107.6671627 108.9599994  67.7050222 102.8504726 114.8153180
  67.6485424 103.3073277 113.9760813  68.2578565 102.0895411 114.6376023
  71.5155028  98.6394458 115.6403300  71.2591963  98.2391094 116.4711508
  70.8907896  99.3538252 115.5153439  75.8267366 101.3790531 118.1474591
  75.2666924 101.4483720 118.9206153  75.2210870 101.2031516 117.4274088
  58.8962575 112.8127258 119.8992778  58.7794959 113.7572691 119.7971468
  58.0755021 112.5100820 120.2878577  68.7839110 107.5377394 110.7449370
  69.6184714 107.1058592 110.5626845  68.6223452 107.3659408 111.6726265
  68.4385002 104.0409507 112.1105710  68.3833806 103.8753779 111.1694154
  67.8131057 104.7485540 112.2667899  53.2277517  99.2777572 125.9367132
  53.8736380  98.7676526 126.4254357  53.0194668 100.0146253 126.5110557
  65.7530909 106.3458419 131.4359272  66.6222069 106.5199071 131.0745907
  65.2737660 107.1652836 131.3135002  61.7481127  93.5417616 111.6891028
  61.7359797  94.4859456 111.8459299  62.6404549  93.3587762 111.3950489
  59.9217089 113.4655520 123.1148706  60.8244336 113.4979130 123.4315201
  59.6954459 112.5355971 123.1295042  61.6770691 112.2186507 119.7758785
  60.7266322 112.2188368 119.6623157  61.9803177 111.4719241 119.2594819
  65.5633247  90.1360393 115.9436965  64.7965642  89.5818880 116.0893647
  65.9743952  90.2082262 116.8051116  57.5675008  96.4245189 130.0342146
  58.4306469  96.0681994 130.2445471  56.9940418  96.0859084 130.7217550
  77.4123385 118.0547045 120.8404547  78.0501795 117.9353792 120.1367887
  77.2944228 119.0027889 120.8992499  74.2213091 118.0074473 120.7766072
  73.8831602 117.8915538 119.8886607  75.0902859 117.6065638 120.7567078
  70.0799907 119.8609950 116.7662963  69.5164772 119.7699886 115.9979251
  69.9652302 119.0409854 117.2465455  74.7032874 119.1609325 126.7352277
  74.6921515 118.7662123 125.8632781  74.8653513 118.4275397 127.3286049
  67.6264339 121.3561141 119.6047183  68.4185630 121.0151966 119.1893483
  67.8660989 121.4656116 120.5249337  75.6599465 123.5280917 112.0777428
  75.0087445 124.1134998 111.6911441  76.4543828 124.0587112 112.1372465
  69.5855093 120.6170054 112.4764562  70.3585969 120.0699041 112.3377438
  69.9380491 121.4814304 112.6879023  71.4240135 121.9446437 125.6831461
  71.1330001 122.8492068 125.5678128  72.0597119 121.9862964 126.3975531
  72.3496342 119.3223285 122.2732821  72.9459914 119.0979308 121.5589784
  72.4071313 118.5808031 122.8758269  71.9221370 116.7762721 110.1083012
  72.1746891 116.2544242 109.3466475  70.9845929 116.6128866 110.2109696
  76.9664653 115.7798499 117.9157755  77.7527742 115.3617922 117.5648172
  77.2303357 116.6844591 118.0839404  77.1374731 121.2171349 112.6146412
  76.5020563 121.2905976 113.3267317  76.8072137 121.8064948 111.9365491
  71.6417659 118.6790826 112.3107387  71.5253917 118.0035730 112.9788471
  71.7519919 118.1923200 111.4939540  73.9849200 118.1400974 116.0154076
  73.6207407 117.6131595 116.7266998  74.8416316 117.7499443 115.8420562
  79.8898501 109.4295306 123.2785342  79.5581825 110.2990717 123.0546557
  79.2944114 109.1131590 123.9579373  73.6254687 113.1690873 111.0115425
  73.7929089 114.0371110 111.3785896  73.4351856 113.3318155 110.0876714
  76.3830020 121.6307852 122.6781255  76.0830743 122.5332891 122.5697062
  76.0381080 121.3640035 123.5302408  69.8342502 118.0821649 118.7117959
  68.9092998 117.9497863 118.9195651  70.0826915 118.8615868 119.2087902
  79.7827164 114.1490392 120.3578692  78.8744041 114.0805801 120.0637453
  79.7314760 114.6262337 121.1860518  73.6043908 115.6248531 111.9962091
  73.4843533 116.0705582 112.8347572  72.9096496 115.9733848 111.4375630
  67.1951313 117.7254923 119.5461749  67.3243694 117.9789402 120.4601160
  66.5148764 118.3182631 119.2266404  71.3650800 128.3952173 115.6452223
  71.2874830 129.3459998 115.7240703  70.7612444 128.0498045 116.3027149
  73.8568030 115.5680038 128.3013590  73.0801364 116.1273958 128.2916454
  74.4958593 116.0536821 128.8228460  72.1114402 118.3765491 127.8631557
  72.8529086 118.9150535 127.5866380  71.4051388 119.0031780 128.0203108
  77.5869742 120.5194632 126.4603718  77.9953098 120.0777042 125.7158350
  76.8647003 119.9447259 126.7137911  73.9400812 115.4567239 123.8337275
  74.7862007 115.8806652 123.9771924  73.8799449 114.8000863 124.5275838
  77.9098556 121.0795822 120.2156007  77.2807419 121.2441537 119.5132075
  77.5224218 121.4937432 120.9866971  81.7887788 122.0150260 117.5700371
  81.1038826 122.3949162 117.0197404  81.8731638 122.6245587 118.3032318
  77.0900257 113.1171607 125.4918449  76.8461189 113.8713667 124.9552724
  77.3660188 113.4956955 126.3265696  79.0438720 119.6610219 124.1695714
  79.2555615 120.3041979 123.4930095  78.9968468 118.8272536 123.7017644
  76.6464949 112.2728040 121.0732286  75.7849428 112.5709293 121.3649024
  76.6727383 112.4898439 120.1413319  73.4626518 120.8170230 117.4806092
  73.9264864 121.0957933 116.6910715  73.1983316 119.9153675 117.2979183
  70.3550599 120.3641712 120.4185855  70.9251956 120.7928980 119.7803340
  70.9458711 120.0824297 121.1170041  72.3995404 116.9393383 114.2895657
  73.1019448 117.3914427 114.7569584  72.0676033 116.2977202 114.9175550
  70.8475766 115.5305139 128.6646867  70.2174426 116.2121420 128.8982263
  70.7411854 115.4188221 127.7200005  66.1420738 115.1976936 119.5912791
  65.3519792 115.4534464 119.1152901  66.6331986 116.0125273 119.6964831
  80.1584548 122.5382175 122.3418072  80.9801992 122.1362362 122.0600753
  80.1546951 122.4350409 123.2934187  68.0935484 115.5621515 116.5496267
  67.2966647 115.6740209 117.0679763  67.8661076 115.9008167 115.6837158
  73.9241151 122.0866218 124.4978782  73.9885584 122.5486625 125.3336954
  73.2152075 121.4563583 124.6261092  64.4258441 115.4507426 122.0227782
  64.6766480 116.3354436 122.2885358  64.9617990 115.2712028 121.2502873
  73.6389169 123.7534325 114.3657762  73.5034844 124.5985861 114.7942610
  74.1798981 123.9553603 113.6023696  70.1256509 109.8325905 131.0272118
  69.7323454 109.2792104 131.7019762  70.9422649 110.1436484 131.4178635
  67.0918566 121.2709764 114.9385688  67.6043087 122.0653014 115.0891252
  67.7441279 120.5736054 114.8719289  68.9013451 124.3875520 117.0208441
  69.0780079 125.3093485 116.8329425  69.6970284 124.0733939 117.4502820
  73.0424470 111.2483784 128.6192374  73.7834183 111.8490938 128.5396837
  73.2742392 110.5061422 128.0610417  68.1865808 116.4340152 126.8970604
  68.0719323 115.5325409 127.1977703  67.3310325 116.6803848 126.5455420
  75.2657645 124.3757892 128.4958105  74.8221499 123.5894271 128.1779009
  75.9274859 124.5637043 127.8301995  70.0244766 125.9053694 123.0218783
  70.5752192 125.7770757 122.2495777  69.1856242 126.2048583 122.6713676
  77.3638883 124.6560692 126.5239506  77.3457359 125.4769573 126.0319775
  78.2858803 124.5314767 126.7489647  73.8211937 122.1704821 127.3663014
  74.3540274 121.4093110 127.1362322  73.2926019 121.8778473 128.1087169
  76.9881632 107.2764887 122.8956656  76.6445902 108.1666529 122.8195766
  77.3560595 107.0866545 122.0326241  65.0567483 119.5998418 115.7145258
  65.8942705 120.0095426 115.4978966  65.2345751 118.6597860 115.6845452
  76.9531915 117.2673498 111.4029091  76.4378539 118.0378103 111.6417478
  76.6809224 116.5938635 112.0262152  74.5379026 112.1123199 116.4614329
  73.6820623 111.7230050 116.2819968  74.9505978 112.1915160 115.6014115
  76.0678173 109.6469543 120.8605889  75.5642968 109.6099678 120.0473694
  76.3608780 110.5562285 120.9202546  72.3121059 109.7308272 119.8672071
  73.1774055 109.5351081 119.5077960  72.3798568 109.5018624 120.7941428
  76.7418218 115.1400591 113.2288872  76.4368354 115.4546740 114.0799015
  77.6948660 115.2182010 113.2716205  75.1864650 121.2990814 114.8781826
  74.6586012 120.5643573 114.5655064  74.6852153 122.0765490 114.6321795
  80.1657496 119.4939834 119.9948872  79.5081171 120.1839096 120.0829001
  80.9697895 119.8836266 120.3382859  69.9183378 111.9610480 117.2388438
  70.4927130 111.7385662 116.5061631  70.5054360 112.0299175 117.9917039
  78.9762955 117.8484207 118.0452814  79.4894837 118.4814199 118.5474524
  79.6264179 117.2485403 117.6796174  70.2452965 113.9914941 111.2584323
  69.4090277 114.3289628 111.5793598  70.1057735 113.8563921 110.3211460
  72.2206046 108.8351729 115.9663507  71.5670458 108.5200746 115.3420122
  72.1786520 108.2127470 116.6923330  73.3317250 119.1171024 107.8816799
  72.4244312 118.8860278 108.0807948  73.8288282 118.3208643 108.0690781
  76.2385329 127.8268531 110.8013485  75.5647028 128.1300228 111.4098443
  76.6251151 128.6297612 110.4518942  75.4543786 115.3233663 120.2911155
  74.5366347 115.5448610 120.1332843  75.8703929 115.3979973 119.4322862
  76.2378834 116.7225078 115.4213835  76.9850653 117.2346476 115.1120957
  76.5070423 116.4009131 116.2818229  74.5105484 119.2183619 112.4040789
  73.6016703 118.9342652 112.5013259  74.5400568 119.6382698 111.5444096
  79.7424751 122.8290209 116.1731957  79.2887078 121.9881118 116.2297147
  79.1118718 123.4651607 116.5106737  78.6857671 113.7582195 117.4032624
  77.9480428 113.2459581 117.7342867  78.9384444 113.3182576 116.5915901
  78.1857690 124.6666705 117.1081775  78.4780665 125.2271762 116.3894141
  78.6956311 124.9595266 117.8634934  78.7869298 106.5358447 117.9974394
  79.0928175 105.6755810 117.7100309  79.5121903 107.1276067 117.7973387
  65.0793654 116.9389133 116.3855992  64.8818054 116.3458494 115.6607058
  64.5240318 116.6341343 117.1031930  73.0590378 116.8312240 118.5050585
  73.1138988 115.8786076 118.4293061  72.2481580 116.9871679 118.9891883
  74.2081572 120.7592363 109.7428868  73.7701002 120.0428222 109.2834505
  74.9492012 120.9868478 109.1813959  70.9982738 115.4489299 116.2640964
  70.1850603 115.7483470 116.6706156  71.4941732 115.0544988 116.9815446
  73.1491316 125.4447056 118.1975228  73.1067494 125.6707903 117.2683760
  74.0654015 125.2110431 118.3461029  76.5956949 115.9131124 125.0955857
  76.9506337 116.1402597 125.9550323  77.2429081 116.2449501 124.4733113
  70.4896813 113.0207655 121.8802198  71.1296192 112.8796414 121.1825162
  69.6574343 112.7342168 121.5040800  82.3524066 121.1026087 120.8116458
  82.7860573 121.0101376 121.6599512  83.0655647 121.0783587 120.1736474
  71.2657116 122.3210085 117.9937191  72.0597715 121.8260405 117.7919766
  70.5548809 121.7927948 117.6304896  76.0851961 124.7028181 122.3449559
  76.1388983 125.2719117 123.1127274  75.2166742 124.8730066 121.9803596
  67.5739880 116.4653167 114.0696944  66.6437468 116.4037623 114.2866906
  67.6697352 115.9429120 113.2733585  67.4925429 112.9907980 116.6575185
  67.7532246 113.9053313 116.5484346  68.3142601 112.5232422 116.8071798
  68.9650354 114.4045737 123.8274010  69.6373408 114.1963099 123.1786659
  68.1380141 114.2067823 123.3879242  83.2139616 121.1449787 123.3449343
  83.4075506 122.0495598 123.5908618  83.1140234 120.6857206 124.1787928
  74.8675926 111.0307678 125.8439671  74.2203841 111.7297628 125.7504147
  75.6376942 111.4643822 126.2115919  78.2754724 121.2956530 128.9190224
  78.1240231 121.0667082 128.0020308  78.2659404 122.2527132 128.9321569
  75.0440061 118.8688443 123.9036490  75.9732121 119.0199602 123.7305458
  74.6231091 118.9572464 123.0485137  73.8428392 122.8939107 121.6735028
  73.7039478 122.5257892 122.5460966  73.0542989 123.4086747 121.5018986
  74.4376544 127.9948204 113.0160565  74.6128300 127.5236247 113.8306187
  73.7509332 128.6213970 113.2441825  75.3933608 122.2720710 119.0623866
  75.0583440 122.2321480 119.9581516  74.8937553 121.6065426 118.5894276
  69.3677852 117.6788340 124.5876447  69.2297649 116.9468579 125.1887986
  70.2782775 117.5897240 124.3060635  71.9960152 117.3908299 124.0760127
  72.7059771 116.7501492 124.0346745  71.9529460 117.6421194 124.9986307
  79.9846931 124.3275653 126.9966706  79.9259477 123.6434873 126.3297289
  80.3866449 125.0694643 126.5447332  70.7089086 114.3773517 125.8955766
  70.1726443 113.9264256 126.5477362  70.1205795 114.5119426 125.1526230
  69.0037630 131.1437567 119.7900425  69.2434228 131.7756091 120.4679443
  68.1606826 130.7925607 120.0765784  70.1191345 113.8362169 108.4582230
  69.2420811 113.7150969 108.0944476  70.5949098 113.0448247 108.2061118
  79.9864338 122.2915237 125.2280685  79.0991117 121.9541158 125.3507084
  80.5562889 121.5598268 125.4649451  61.6393485 118.6239328 118.5523737
  62.3264525 118.3101058 117.9644752  61.4841614 119.5280693 118.2790988
  66.4428207 113.5129525 122.9808761  66.3586396 112.9055194 122.2459171
  65.6210914 114.0038543 122.9818257  73.5165492 126.9516689 122.1941929
  73.4435663 127.7571660 122.7061233  73.0742885 127.1508655 121.3689950
  73.3055271 126.1888459 115.7044750  72.5222793 126.7310139 115.7982975
  74.0048016 126.7062439 116.1038991  76.6151921 111.9983088 118.3478956
  77.1120621 111.2453051 118.0280026  75.8438903 112.0347405 117.7822165
  75.9764175 126.8503523 124.3500087  76.6892147 127.4850988 124.2775989
  75.4854204 126.9467389 123.5340089  77.6981702 120.7554776 115.9217379
  76.7637981 120.8756238 115.7522083  77.8758370 119.8527242 115.6577389
  73.1986890 114.1400471 118.0750640  72.8284678 113.5871512 118.7631546
  73.6945982 113.5358605 117.5225640  81.0854253 116.5972095 116.4567413
  81.5514706 117.4300087 116.3827716  81.5361754 116.1317077 117.1612672
  71.0276089 124.5997966 125.1705658  71.7285548 125.2334449 125.3235052
  70.5571204 124.9412698 124.4101297  79.1530484 122.9415916 113.4553565
  79.4290328 122.8272511 114.3647439  78.2834983 122.5433401 113.4165738
  79.0570916 108.9652682 120.4958314  78.1433996 109.1956909 120.6640521
  79.4864018 109.0491126 121.3472347  78.8277375 117.1542574 122.9958209
  78.1748825 117.4018481 122.3410661  79.2057754 116.3406712 122.6620686
  75.7884548 127.1902267 117.0986379  75.9706943 126.3723923 117.5614131
  76.6117534 127.4069959 116.6611269  76.1226714 126.1170452 114.3601427
  76.6514480 125.6062907 113.7471589  76.3854934 125.8012982 115.2246960
  74.8764948 117.8962385 129.4824246  74.2005585 117.7956514 130.1526621
  75.6992581 117.7401599 129.9460243  66.6243807 124.1334322 122.1036761
  67.2097243 123.3878009 122.2364665  66.4268645 124.4438278 122.9873425
  69.4782462 127.1685569 117.1199203  68.8092837 127.6531697 116.6363243
  69.3395332 127.4154789 118.0342582  61.2161461 116.7039922 120.8241204
  61.2545561 116.1703512 121.6178322  60.7101754 116.1775127 120.2052181
  73.6187730 129.2029312 123.7181862  74.1706038 129.3660934 124.4830947
  73.9593924 129.7933750 123.0461886  68.5952224 111.5504462 124.3203746
  68.6593550 112.4119293 123.9081144  68.5319344 110.9378464 123.5876105
  68.0704496 113.6227595 127.9676781  68.6976535 113.2404672 128.5814305
  67.2132415 113.4041797 128.3332473  78.4698605 124.0290570 129.5730516
  79.0138509 124.6420528 129.0785471  77.8885450 124.5870148 130.0897529
  64.8470039 115.4304024 113.8995135  65.1423480 114.5214702 113.8462189
  63.9458075 115.4091763 113.5776138  76.7556118 127.1511288 120.7045544
  76.6307257 126.3501028 120.1956489  77.4135209 127.6457481 120.2159514
  68.3764286 113.5060020 119.8822684  67.6550872 114.1195988 119.7430157
  69.1657542 114.0417785 119.8039330  78.8191026 124.9520308 122.3325094
  77.8721362 124.8325659 122.2603421  79.1673799 124.0642806 122.4151355
  71.1790599 110.8414447 126.1563336  71.7025001 111.0876743 126.9189645
  70.9602933 111.6734482 125.7366473  66.5757881 113.1118122 114.0234461
  66.2470587 112.2315500 113.8409566  66.9297251 113.0565790 114.9110850
  75.8237459 124.7473024 118.5329446  75.6762422 123.8189732 118.7137016
  76.6490953 124.7693115 118.0486521  69.6899704 113.3991091 114.3909938
  70.0295776 113.9277013 113.6688547  70.1371824 113.7371497 115.1668505
  79.4271581 125.5701583 119.6194319  80.3518129 125.3644444 119.4818770
  79.2586885 125.3217984 120.5283660  72.3843145 111.7828142 123.8413006
  72.0439965 110.9835955 124.2433686  71.6782151 112.0829853 123.2689839
  73.0359616 108.8677454 122.2940329  73.8585686 108.3937933 122.1719220
  73.2797680 109.6467938 122.7939016  71.6767851 111.8965713 112.5903231
  72.3976213 112.2746966 112.0866948  71.0533155 112.6154590 112.6938209
  75.8198974 112.6010862 113.5261563  76.0362588 113.4835500 113.2250391
  75.3393041 112.2097075 112.7967205  70.5598195 115.5596575 120.1032308
  70.4142776 115.8736878 120.9956589  70.0823399 116.1781475 119.5503207
  72.4194578 112.5499123 120.1513197  72.4056147 111.6540216 119.8145495
  73.1367006 112.5569787 120.7851484  74.2720709 112.9836463 122.1966325
  74.0138487 113.9053534 122.1950655  73.7405749 112.5866898 122.8866789
  79.2166897 126.0887250 114.9756410  79.3903775 125.5233673 114.2230263
  79.7095789 126.8888145 114.7935900  65.0343857 118.1001920 123.0419969
  64.4897325 118.8761727 123.1740243  65.9123207 118.4472724 122.8839091
  71.8231474 111.4313503 115.4200768  71.9447385 110.5030150 115.6191655
  71.5333516 111.4452189 114.5079083  74.6922664 109.1168414 118.5567487
  74.7144361 109.1807747 117.6019467  75.1090723 108.2772922 118.7507994
  80.2042070 125.4054015 112.0753309  80.8992975 126.0260708 112.2940623
  80.5465220 124.5549366 112.3505686  65.8209879 117.2271816 125.9350126
  65.0791615 117.3754451 126.5214756  65.5002623 117.4880081 125.0716875
  82.1033493 122.8553720 113.6040639  82.6284817 123.1940993 112.8789959
  82.0155846 121.9200736 113.4203774  73.7653542 126.7687794 125.7330516
  74.0740668 126.5236941 126.6053216  74.5629024 126.9734432 125.2449386
  73.7874154 128.9225704 117.9635893  73.3479144 128.4302082 118.6568749
  74.5382271 128.3798671 117.7227968  66.2666493 125.1137245 117.9660521
  67.0924513 124.8141016 117.5859164  65.9160545 124.3444867 118.4150309
  71.2348026 124.4663713 120.0358194  70.6128035 123.8034418 119.7360422
  71.9052893 124.4924845 119.3531842  64.4675098 123.0323571 118.9249454
  63.6307006 122.6045745 118.7433455  64.4398743 123.2256014 119.8620245
  71.3072553 112.9445501 129.6290700  71.3560709 113.8207624 129.2468470
  71.8495068 112.4022894 129.0562343  81.7927399 123.4886624 128.9091837
  81.0022943 123.4710763 128.3696337  81.5560754 124.0274918 129.6640874
  81.9125274 120.3379090 126.2224566  81.9623279 120.1729098 127.1640089
  81.8039198 119.4706349 125.8322447  70.7961533 123.0167636 113.5116655
  70.9449653 123.7003100 112.8583327  71.6027976 122.9972726 114.0266110
  79.2029037 116.3210018 127.5383873  80.1038899 116.1816483 127.2467870
  79.2777011 116.4864473 128.4782050  73.5371842 113.6976873 126.3837059
  72.6675151 113.9910439 126.1119647  73.7731322 114.2817318 127.1044322
  83.4143471 122.7576032 126.4666587  83.1228279 123.1206012 127.3030048
  82.8015602 122.0443040 126.2879919  81.6630659 117.8808647 124.9346645
  82.1384781 118.0736293 124.1265497  80.7396225 117.9367832 124.6890029
  68.5514166 119.0432814 114.5177724  68.3060208 118.1395144 114.7157934
  68.7210080 119.0449964 113.5757202  76.2410876 109.9156490 123.9002479
  76.7592820 110.6517517 123.5748968  75.8866009 110.2220483 124.7349238
  67.8209813 114.7761171 112.0163885  67.1279058 114.8505526 111.3603921
  67.5761565 114.0121515 112.5385402  76.4923470 106.3356773 119.4203376
  76.7725224 105.6679962 120.0463802  77.2774077 106.5285868 118.9078040
  74.2956938 125.5115767 110.9828402  73.7230906 126.1305954 110.5298874
  74.8689732 126.0615128 111.5168324  80.3632328 114.7574407 123.1674951
  81.3149751 114.8572504 123.1887175  80.1935779 113.9652675 123.6773035
  78.3846708 111.8429990 123.3534352  77.7896640 112.1235003 122.6580841
  78.0996404 112.3323891 124.1251093  77.5154198 125.7952917 112.1136984
  78.4484871 125.7298478 112.3169860  77.4277411 126.6309184 111.6551517
  80.1442215 125.1118787 109.0740932  80.0655846 124.7778651 109.9676690
  80.9651882 125.6040555 109.0732404  82.8420406 117.9780526 122.2817251
  82.8096726 117.0396527 122.4676934  83.4521030 118.0564563 121.5483075
  74.6803737 116.8476579 108.3244455  75.6262842 116.7182787 108.3932873
  74.3017982 116.1091241 108.8013883  80.6525621 108.5132585 118.2871346
  80.4550443 108.2047673 119.1714678  81.2625327 109.2394224 118.4169276
  74.5642429 120.8994325 129.7845112  75.4845439 121.0772924 129.9785158
  74.5292012 119.9550371 129.6324811  72.8646654 114.7726556 108.2599340
  71.9578109 114.4759668 108.3362053  73.1422635 114.4756374 107.3933626
  63.7824594 116.0932919 118.7098386  63.4627379 115.2398227 118.4172760
  63.2358023 116.3081497 119.4656354  67.5604502 118.8095360 122.4267893
  67.7790512 119.7412468 122.4455927  67.9730276 118.4503334 123.2122697
  74.4808720 109.3163445 114.4143581  73.6709448 108.9710530 114.7898827
  75.1693137 109.0070989 115.0031193  76.4099268 108.3941492 116.0367878
  76.9630307 108.8136946 116.6957901  76.6469354 107.4677240 116.0790834
  72.4332367 114.3828566 131.8170642  72.3329094 115.3322923 131.7482733
  72.2153909 114.0546805 130.9446712  71.6345439 111.6313491 108.4011319
  72.4964603 111.9568389 108.6607136  71.8195783 110.8444987 107.8884385
  63.6512854 119.7135831 120.6791508  62.9576326 119.2989783 120.1661462
  64.3985845 119.7556367 120.0824927  79.7878075 110.5042017 115.5446542
  79.2076744 111.1626821 115.1624594  79.5214008 109.6819362 115.1333960
  78.2381642 109.9047075 117.7467862  78.7381420 110.0163610 116.9382181
  78.8817249 109.6008128 118.3868671  72.2963637 117.8125705 130.6335703
  71.8130719 118.6126065 130.8399592  72.3824576 117.8233650 129.6803147
  65.5649597 119.6454084 118.5557523  65.5420285 119.7441772 117.6039406
  65.8750233 120.4919235 118.8774689  68.2236975 121.7030239 122.6704137
  69.1780228 121.6714182 122.6034069  68.0249498 121.2420863 123.4854363
  68.8136357 120.2731355 125.2374935  69.6329246 120.7675434 125.2609772
  69.0873165 119.3563324 125.2092502  78.5702953 112.6642108 114.6002890
  77.6828808 112.9491758 114.3823085  78.9856942 112.5035871 113.7530167
  66.5787204 127.2449859 119.6874335  66.4441672 126.4850260 119.1212333
  66.1619266 127.9690759 119.2203124  77.7146167 122.4286782 108.6950910
  78.4182017 122.6336785 109.3108566  76.9908815 122.9963544 108.9599994
  78.5443977 118.1796644 114.8153180  78.4879178 118.6365195 113.9760813
  79.0972319 117.4187328 114.6376023  69.7356330 128.1419176 119.8992778
  69.6188714 129.0864608 119.7971468  68.9148776 127.8392737 120.2878577
  79.6232864 122.8669312 110.7449370  80.4578468 122.4350510 110.5626845
  79.4617207 122.6951325 111.6726265  79.2778756 119.3701425 112.1105710
  79.2227560 119.2045696 111.1694154  78.6524812 120.0777458 112.2667899
  64.0671271 114.6069489 125.9367132  64.7130135 114.0968443 126.4254357
  63.8588422 115.3438171 126.5110557  76.5924663 121.6750337 131.4359272
  77.4615823 121.8490989 131.0745907  76.1131415 122.4944754 131.3135002
  72.5874882 108.8709534 111.6891028  72.5753552 109.8151374 111.8459299
  73.4798304 108.6879679 111.3950489  70.7610844 128.7947438 123.1148706
  71.6638090 128.8271048 123.4315201  70.5348214 127.8647889 123.1295042
  72.5164446 127.5478424 119.7758785  71.5660077 127.5480286 119.6623157
  72.8196932 126.8011159 119.2594819  68.4068762 111.7537106 130.0342146
  69.2700224 111.3973911 130.2445471  67.8334173 111.4151001 130.7217550
  88.2517139 133.3838963 120.8404547  88.8895549 133.2645710 120.1367887
  88.1337982 134.3319807 120.8992499  85.0606845 133.3366391 120.7766072
  84.7225357 133.2207456 119.8886607  85.9296614 132.9357556 120.7567078
  80.9193661 135.1901867 116.7662963  80.3558526 135.0991804 115.9979251
  80.8046056 134.3701772 117.2465455  85.5426628 134.4901243 126.7352277
  85.5315269 134.0954041 125.8632781  85.7047268 133.7567315 127.3286049
  78.4658093 136.6853059 119.6047183  79.2579385 136.3443883 119.1893483
  78.7054743 136.7948034 120.5249337  80.4248847 135.9461972 112.4764562
  81.1979723 135.3990959 112.3377438  80.7774246 136.8106221 112.6879023
  82.2633890 137.2738354 125.6831461  81.9723756 138.1783985 125.5678128
  82.8990874 137.3154882 126.3975531  83.1890096 134.6515203 122.2732821
  83.7853669 134.4271225 121.5589784  83.2465068 133.9099948 122.8758269
  82.4811414 134.0082744 112.3107387  82.3647672 133.3327648 112.9788471
  82.5913673 133.5215118 111.4939540  84.8242954 133.4692891 116.0154076
  84.4601162 132.9423512 116.7266998  85.6810070 133.0791360 115.8420562
  90.7292255 124.7587224 123.2785342  90.3975580 125.6282635 123.0546557
  90.1337869 124.4423508 123.9579373  80.6736256 133.4113567 118.7117959
  79.7486753 133.2789781 118.9195651  80.9220669 134.1907786 119.2087902
  90.6220918 129.4782310 120.3578692  89.7137796 129.4097718 120.0637453
  90.5708514 129.9554255 121.1860518  84.4437662 130.9540448 111.9962091
  84.3237288 131.3997499 112.8347572  83.7490251 131.3025766 111.4375630
  78.0345067 133.0546840 119.5461749  78.1637448 133.3081319 120.4601160
  77.3542518 133.6474548 119.2266404  82.2044554 143.7244090 115.6452223
  82.1268584 144.6751915 115.7240703  81.6006198 143.3789963 116.3027149
  84.6961784 130.8971956 128.3013590  83.9195118 131.4565876 128.2916454
  85.3352347 131.3828739 128.8228460  92.4882565 127.6798748 122.1356566
  91.8456945 127.9731282 121.4896361  91.9837493 127.5651669 122.9409763
  82.9508157 133.7057409 127.8631557  83.6922841 134.2442453 127.5866380
  82.2445142 134.3323698 128.0203108  88.4263496 135.8486549 126.4603718
  88.8346852 135.4068960 125.7158350  87.7040758 135.2739177 126.7137911
  84.7794566 130.7859156 123.8337275  85.6255761 131.2098570 123.9771924
  84.7193204 130.1292781 124.5275838  87.9294012 128.4463525 125.4918449
  87.6854943 129.2005585 124.9552724  88.2053942 128.8248872 126.3265696
  89.8832474 134.9902137 124.1695714  90.0949370 135.6333897 123.4930095
  89.8362223 134.1564454 123.7017644  87.4858703 127.6019958 121.0732286
  86.6243182 127.9001211 121.3649024  87.5121138 127.8190357 120.1413319
  84.3020273 136.1462148 117.4806092  84.7658618 136.4249851 116.6910715
  84.0377071 135.2445593 117.2979183  81.1944354 135.6933630 120.4185855
  81.7645711 136.1220898 119.7803340  81.7852466 135.4116214 121.1170041
  83.2389159 132.2685301 114.2895657  83.9413202 132.7206344 114.7569584
  82.9069787 131.6269119 114.9175550  81.6869520 130.8597057 128.6646867
  81.0568181 131.5413338 128.8982263  81.5805608 130.7480139 127.7200005
  76.9814493 130.5268853 119.5912791  76.1913547 130.7826382 119.1152901
  77.4725740 131.3417191 119.6964831  78.9329238 130.8913432 116.5496267
  78.1360401 131.0032127 117.0679763  78.7054830 131.2300085 115.6837158
  84.7634906 137.4158136 124.4978782  84.8279338 137.8778543 125.3336954
  84.0545830 136.7855501 124.6261092  75.2652196 130.7799344 122.0227782
  75.5160234 131.6646354 122.2885358  75.8011744 130.6003945 121.2502873
  99.0884295 134.2112841 118.6903043  98.3348004 133.6420239 118.5347048
  99.2231837 134.1775505 119.6373678  84.4782923 139.0826243 114.3657762
  84.3428598 139.9277779 114.7942610  85.0192736 139.2845521 113.6023696
  80.9650263 125.1617823 131.0272118  80.5717209 124.6084022 131.7019762
  81.7816403 125.4728401 131.4178635  77.9312321 136.6001681 114.9385688
  78.4436841 137.3944931 115.0891252  78.5835034 135.9027972 114.8719289
  79.7407205 139.7167437 117.0208441  79.9173834 140.6385402 116.8329425
  80.5364039 139.4025857 117.4502820  83.8818224 126.5775702 128.6192374
  84.6227937 127.1782855 128.5396837  84.1136147 125.8353340 128.0610417
  79.0259562 131.7632069 126.8970604  78.9113077 130.8617327 127.1977703
  78.1704080 132.0095766 126.5455420  86.1051400 139.7049810 128.4958105
  85.6615254 138.9186188 128.1779009  86.7668613 139.8928960 127.8301995
  80.8638521 141.2345611 123.0218783  81.4145946 141.1062675 122.2495777
  80.0249997 141.5340500 122.6713676  88.2032638 139.9852610 126.5239506
  88.1851113 140.8061491 126.0319775  89.1252558 139.8606685 126.7489647
  84.6605692 137.4996739 127.3663014  85.1934029 136.7385027 127.1362322
  84.1319773 137.2070391 128.1087169  87.8275387 122.6056805 122.8956656
  87.4839656 123.4958447 122.8195766  88.1954350 122.4158463 122.0326241
  75.8961238 134.9290336 115.7145258  76.7336460 135.3387344 115.4978966
  76.0739505 133.9889778 115.6845452  85.3772781 127.4415117 116.4614329
  84.5214377 127.0521967 116.2819968  85.7899732 127.5207078 115.6014115
  86.9071927 124.9761460 120.8605889  86.4036723 124.9391595 120.0473694
  87.2002534 125.8854203 120.9202546  83.1514813 125.0600190 119.8672071
  84.0167810 124.8642999 119.5077960  83.2192322 124.8310542 120.7941428
  86.0258405 136.6282732 114.8781826  85.4979766 135.8935491 114.5655064
  85.5245907 137.4057408 114.6321795  80.7577132 127.2902398 117.2388438
  81.3320884 127.0677579 116.5061631  81.3448115 127.3591092 117.9917039
  81.0846719 129.3206859 111.2584323  80.2484032 129.6581545 111.5793598
  80.9451489 129.1855839 110.3211460  83.0599800 124.1643647 115.9663507
  82.4064212 123.8492664 115.3420122  83.0180274 123.5419387 116.6923330
  87.0779084 143.1560449 110.8013485  86.4040782 143.4592146 111.4098443
  87.4644906 143.9589529 110.4518942  86.2937540 130.6525580 120.2911155
  85.3760102 130.8740527 120.1332843  86.7097684 130.7271891 119.4322862
  75.9187409 132.2681051 116.3855992  75.7211808 131.6750412 115.6607058
  75.3634073 131.9633261 117.1031930  83.8984132 132.1604157 118.5050585
  83.9532742 131.2077994 118.4293061  83.0875334 132.3163596 118.9891883
  81.8376492 130.7781217 116.2640964  81.0244358 131.0775388 116.6706156
  82.3335486 130.3836906 116.9815446  83.9885070 140.7738974 118.1975228
  83.9461249 140.9999820 117.2683760  84.9047769 140.5402349 118.3461029
  87.4350704 131.2423042 125.0955857  87.7900092 131.4694515 125.9550323
  88.0822835 131.5741418 124.4733113  81.3290567 128.3499573 121.8802198
  81.9689946 128.2088332 121.1825162  80.4968098 128.0634086 121.5040800
  82.1050871 137.6502003 117.9937191  82.8991469 137.1552323 117.7919766
  81.3942563 137.1219866 117.6304896  78.4133634 131.7945085 114.0696944
  77.4831222 131.7329540 114.2866906  78.5091106 131.2721037 113.2733585
  78.3319183 128.3199898 116.6575185  78.5926001 129.2345231 116.5484346
  79.1536356 127.8524340 116.8071798  79.8044109 129.7337655 123.8274010
  80.4767162 129.5255017 123.1786659  78.9773895 129.5359741 123.3879242
  85.7069681 126.3599596 125.8439671  85.0597596 127.0589545 125.7504147
  86.4770696 126.7935740 126.2115919  89.1148479 136.6248448 128.9190224
  88.9633985 136.3959000 128.0020308  89.1053158 137.5819049 128.9321569
  85.8833815 134.1980361 123.9036490  86.8125875 134.3491520 123.7305458
  85.4624845 134.2864381 123.0485137  84.6822147 138.2231025 121.6735028
  84.5433233 137.8549809 122.5460966  83.8936743 138.7378664 121.5018986
  85.2770299 143.3240121 113.0160565  85.4522055 142.8528165 113.8306187
  84.5903087 143.9505888 113.2441825  80.2071606 133.0080258 124.5876447
  80.0691404 132.2760497 125.1887986  81.1176529 132.9189158 124.3060635
  82.8353907 132.7200217 124.0760127  83.5453525 132.0793409 124.0346745
  82.7923215 132.9713112 124.9986307  90.8240685 139.6567570 126.9966706
  90.7653232 138.9726790 126.3297289  91.2260204 140.3986560 126.5447332
  81.5482841 129.7065435 125.8955766  81.0120198 129.2556173 126.5477362
  80.9599549 129.8411344 125.1526230  79.8431384 146.4729484 119.7900425
  80.0827982 147.1048008 120.4679443  79.0000581 146.1217524 120.0765784
  80.9585100 129.1654086 108.4582230  80.0814566 129.0442887 108.0944476
  81.4342853 128.3740165 108.2061118  90.8258093 137.6207154 125.2280685
  89.9384871 137.2833076 125.3507084  91.3956644 136.8890186 125.4649451
  72.4787240 133.9531246 118.5523737  73.1658280 133.6392976 117.9644752
  72.3235368 134.8572611 118.2790988  77.2821962 128.8421443 122.9808761
  77.1980151 128.2347112 122.2459171  76.4604668 129.3330461 122.9818257
  84.3559246 142.2808607 122.1941929  84.2829418 143.0863578 122.7061233
  83.9136639 142.4800572 121.3689950  84.1449026 141.5180377 115.7044750
  83.3616548 142.0602057 115.7982975  84.8441771 142.0354356 116.1038991
  87.4545676 127.3275006 118.3478956  87.9514375 126.5744968 118.0280026
  86.6832657 127.3639323 117.7822165  84.0380645 129.4692389 118.0750640
  83.6678432 128.9163430 118.7631546  84.5339737 128.8650523 117.5225640
  81.8669843 139.9289884 125.1705658  82.5679303 140.5626367 125.3235052
  81.3964958 140.2704616 124.4101297  89.8964671 124.2944600 120.4958314
  88.9827750 124.5248826 120.6640521  90.3257772 124.3783044 121.3472347
  89.6671129 132.4834492 122.9958209  89.0142579 132.7310399 122.3410661
  90.0451509 131.6698630 122.6620686  86.6278303 142.5194185 117.0986379
  86.8100697 141.7015841 117.5614131  87.4511289 142.7361877 116.6611269
  86.9620468 141.4462370 114.3601427  87.4908235 140.9354824 113.7471589
  87.2248688 141.1304900 115.2246960  85.7158702 133.2254303 129.4824246
  85.0399339 133.1248432 130.1526621  86.5386336 133.0693516 129.9460243
  77.4637561 139.4626239 122.1036761  78.0490998 138.7169927 122.2364665
  77.2662400 139.7730196 122.9873425  80.3176216 142.4977487 117.1199203
  79.6486592 142.9823614 116.6363243  80.1789086 142.7446707 118.0342582
  72.0555216 132.0331839 120.8241204  72.0939315 131.4995430 121.6178322
  71.5495509 131.5067045 120.2052181  84.4581485 144.5321230 123.7181862
  85.0099793 144.6952852 124.4830947  84.7987678 145.1225668 123.0461886
  79.4345978 126.8796380 124.3203746  79.4987305 127.7411211 123.9081144
  79.3713098 126.2670382 123.5876105  78.9098251 128.9519512 127.9676781
  79.5370290 128.5696590 128.5814305  78.0526170 128.7333714 128.3332473
  89.3092359 139.3582488 129.5730516  89.8532263 139.9712446 129.0785471
  88.7279204 139.9162066 130.0897529  75.6863793 130.7595942 113.8995135
  75.9817235 129.8506620 113.8462189  74.7851829 130.7383681 113.5776138
  79.2158040 128.8351938 119.8822684  78.4944626 129.4487906 119.7430157
  80.0051296 129.3709703 119.8039330  82.0184354 126.1706365 126.1563336
  82.5418756 126.4168661 126.9189645  81.7996687 127.0026399 125.7366473
  77.4151635 128.4410039 114.0234461  77.0864341 127.5607418 113.8409566
  77.7691006 128.3857708 114.9110850  80.5293458 128.7283009 114.3909938
  80.8689531 129.2568930 113.6688547  80.9765579 129.0663415 115.1668505
  83.2236899 127.1120060 123.8413006  82.8833719 126.3127873 124.2433686
  82.5175905 127.4121771 123.2689839  83.8753371 124.1969372 122.2940329
  84.6979440 123.7229850 122.1719220  84.1191434 124.9759856 122.7939016
  82.5161605 127.2257631 112.5903231  83.2369968 127.6038883 112.0866948
  81.8926909 127.9446507 112.6938209  81.3991950 130.8888493 120.1032308
  81.2536530 131.2028796 120.9956589  80.9217153 131.5073393 119.5503207
  83.2588332 127.8791041 120.1513197  83.2449901 126.9832134 119.8145495
  83.9760761 127.8861705 120.7851484  85.1114463 128.3128381 122.1966325
  84.8532241 129.2345452 122.1950655  84.5799504 127.9158816 122.8866789
  90.0560652 141.4179168 114.9756410  90.2297530 140.8525591 114.2230263
  90.5489543 142.2180063 114.7935900  75.8737612 133.4293837 123.0419969
  75.3291080 134.2053645 123.1740243  76.7516962 133.7764642 122.8839091
  82.6625228 126.7605421 115.4200768  82.7841140 125.8322067 115.6191655
  82.3727271 126.7744107 114.5079083  85.5316419 124.4460332 118.5567487
  85.5538116 124.5099665 117.6019467  85.9484478 123.6064840 118.7507994
  91.0435824 140.7345933 112.0753309  91.7386729 141.3552625 112.2940623
  91.3858975 139.8841284 112.3505686  76.6603634 132.5563733 125.9350126
  75.9185370 132.7046369 126.5214756  76.3396378 132.8171999 125.0716875
  84.6047296 142.0979712 125.7330516  84.9134423 141.8528858 126.6053216
  85.4022778 142.3026350 125.2449386  84.6267908 144.2517621 117.9635893
  84.1872899 143.7594000 118.6568749  85.3776025 143.7090589 117.7227968
  77.1060247 140.4429162 117.9660521  77.9318267 140.1432934 117.5859164
  76.7554299 139.6736785 118.4150309  82.0741780 139.7955630 120.0358194
  81.4521790 139.1326335 119.7360422  82.7446647 139.8216762 119.3531842
  75.3068852 138.3615489 118.9249454  74.4700761 137.9337663 118.7433455
  75.2792498 138.5547932 119.8620245  82.1466308 128.2737418 129.6290700
  82.1954463 129.1499541 129.2468470  82.6888822 127.7314811 129.0562343
  92.6321154 138.8178542 128.9091837  91.8416697 138.8002681 128.3696337
  92.3954508 139.3566835 129.6640874  92.7519029 135.6671008 126.2224566
  92.8017034 135.5021016 127.1640089  92.6432952 134.7998267 125.8322447
  81.6355287 138.3459554 113.5116655  81.7843408 139.0295018 112.8583327
  82.4421731 138.3264644 114.0266110  90.0422791 131.6501936 127.5383873
  90.9432654 131.5108401 127.2467870  90.1170766 131.8156391 128.4782050
  84.3765596 129.0268791 126.3837059  83.5068906 129.3202357 126.1119647
  84.6125077 129.6109236 127.1044322  94.2537226 138.0867950 126.4666587
  93.9622034 138.4497930 127.3030048  93.6409357 137.3734958 126.2879919
  92.5024414 133.2100564 124.9346645  92.9778535 133.4028211 124.1265497
  91.5789979 133.2659750 124.6890029  79.3907920 134.3724731 114.5177724
  79.1453962 133.4687061 114.7157934  79.5603835 134.3741882 113.5757202
  87.0804630 125.2448408 123.9002479  87.5986574 125.9809435 123.5748968
  86.7259763 125.5512401 124.7349238  78.6603568 130.1053089 112.0163885
  77.9672813 130.1797444 111.3603921  78.4155320 129.3413433 112.5385402
  85.1350693 140.8407684 110.9828402  84.5624660 141.4597871 110.5298874
  85.7083487 141.3907046 111.5168324  91.2026083 130.0866324 123.1674951
  92.1543506 130.1864422 123.1887175  91.0329533 129.2944593 123.6773035
  89.2240462 127.1721908 123.3534352  88.6290394 127.4526920 122.6580841
  88.9390159 127.6615808 124.1251093  88.3547953 141.1244834 112.1136984
  89.2878626 141.0590396 112.3169860  88.2671166 141.9601101 111.6551517
  90.9835969 140.4410705 109.0740932  90.9049601 140.1070568 109.9676690
  91.8045636 140.9332473 109.0732404  93.8308649 130.0983487 122.3275534
  93.3147698 129.3141944 122.1405463  94.7148598 129.7702204 122.4922053
  91.4919376 123.8424503 118.2871346  91.2944197 123.5339591 119.1714678
  92.1019082 124.5686142 118.4169276  99.4990710 134.3688451 121.4223287
 100.2294099 134.1073739 121.9830991  98.8897656 133.6317173 121.4625355
  97.5806008 132.5096313 122.0197739  96.8539171 132.3752278 121.4114230
  97.1653294 132.8173142 122.8254457  85.4036184 136.2286243 129.7845112
  86.3239193 136.4064842 129.9785158  85.3685767 135.2842288 129.6324811
  74.6218349 131.4224837 118.7098386  74.3021133 130.5690145 118.4172760
  74.0751777 131.6373415 119.4656354  78.3998256 134.1387278 122.4267893
  78.6184266 135.0704386 122.4455927  78.8124030 133.7795252 123.2122697
  83.2726122 129.7120484 131.8170642  83.1722849 130.6614840 131.7482733
  83.0547664 129.3838722 130.9446712  74.4906609 135.0427748 120.6791508
  73.7970080 134.6281701 120.1661462  75.2379600 135.0848285 120.0824927
  83.1357392 133.1417622 130.6335703  82.6524474 133.9417982 130.8399592
  83.2218331 133.1525567 129.6803147  76.4043351 134.9746002 118.5557523
  76.3814040 135.0733689 117.6039406  76.7143988 135.8211153 118.8774689
  79.0630729 137.0322157 122.6704137  80.0173983 137.0006099 122.6034069
  78.8643253 136.5712781 123.4854363  79.6530111 135.6023273 125.2374935
  80.4723000 136.0967352 125.2609772  79.9266919 134.6855241 125.2092502
  77.4180958 142.5741777 119.6874335  77.2835426 141.8142177 119.1212333
  77.0013020 143.2982676 119.2203124  80.5750084 143.4711094 119.8992778
  80.4582468 144.4156526 119.7971468  79.7542530 143.1684655 120.2878577
  74.9065026 129.9361407 125.9367132  75.5523889 129.4260361 126.4254357
  74.6982177 130.6730089 126.5110557  87.4318418 137.0042254 131.4359272
  88.3009578 137.1782907 131.0745907  86.9525169 137.8236671 131.3135002
  81.6004598 144.1239355 123.1148706  82.5031845 144.1562966 123.4315201
  81.3741968 143.1939806 123.1295042  83.3558200 142.8770342 119.7758785
  82.4053831 142.8772204 119.6623157  83.6590686 142.1303077 119.2594819
  79.2462517 127.0829024 130.0342146  80.1093978 126.7265829 130.2445471
  78.6727927 126.7442919 130.7217550  99.0910894 148.7130880 120.8404547
  99.7289304 148.5937628 120.1367887  98.9731737 149.6611724 120.8992499
  95.9000600 148.6658308 120.7766072  95.5619111 148.5499373 119.8886607
  96.7690368 148.2649474 120.7567078  91.7587416 150.5193785 116.7662963
  91.1952281 150.4283722 115.9979251  91.6439811 149.6993689 117.2465455
  96.3820383 149.8193160 126.7352277  96.3709024 149.4245958 125.8632781
  96.5441022 149.0859233 127.3286049  89.3051848 152.0144977 119.6047183
  90.0973139 151.6735801 119.1893483  89.5448498 152.1239952 120.5249337
  97.3386974 154.1864753 112.0777428  96.6874954 154.7718833 111.6911441
  98.1331337 154.7170948 112.1372465  91.2642601 151.2753890 112.4764562
  92.0373477 150.7282877 112.3377438  91.6168000 152.1398139 112.6879023
  93.1027644 152.6030272 125.6831461  92.8117510 153.5075903 125.5678128
  93.7384628 152.6446800 126.3975531  94.0283851 149.9807121 122.2732821
  94.6247423 149.7563143 121.5589784  94.0858822 149.2391866 122.8758269
  93.6008879 147.4346556 110.1083012  93.8534400 146.9128077 109.3466475
  92.6633438 147.2712701 110.2109696  98.6452162 146.4382334 117.9157755
  99.4315251 146.0201757 117.5648172  98.9090866 147.3428426 118.0839404
  98.8162239 151.8755185 112.6146412  98.1808072 151.9489811 113.3267317
  98.4859646 152.4648783 111.9365491 104.0460589 146.3757567 118.8190734
 104.7785761 145.8056784 119.0528563 103.2899945 145.9879168 119.2597239
  93.3205168 149.3374662 112.3107387  93.2041426 148.6619565 112.9788471
  93.4307428 148.8507036 111.4939540  95.6636709 148.7984809 116.0154076
  95.2994916 148.2715430 116.7266998  96.5203825 148.4083278 115.8420562
 101.5686010 140.0879142 123.2785342 101.2369334 140.9574553 123.0546557
 100.9731623 139.7715426 123.9579373  95.3042196 143.8274709 111.0115425
  95.4716598 144.6954945 111.3785896  95.1139365 143.9901990 110.0876714
  98.0617529 152.2891688 122.6781255  97.7618252 153.1916726 122.5697062
  97.7168589 152.0223871 123.5302408  91.5130011 148.7405484 118.7117959
  90.5880507 148.6081698 118.9195651  91.7614424 149.5199704 119.2087902
 101.4614673 144.8074228 120.3578692 100.5531550 144.7389636 120.0637453
 101.4102269 145.2846173 121.1860518  95.2831417 146.2832366 111.9962091
  95.1631042 146.7289417 112.8347572  94.5884005 146.6317684 111.4375630
  88.8738822 148.3838758 119.5461749  89.0031203 148.6373237 120.4601160
  88.1936273 148.9766466 119.2266404  93.0438309 159.0536008 115.6452223
  92.9662339 160.0043833 115.7240703  92.4399953 158.7081880 116.3027149
  95.5355539 146.2263873 128.3013590  94.7588873 146.7857793 128.2916454
  96.1746102 146.7120656 128.8228460 103.3276319 143.0090666 122.1356566
 102.6850700 143.3023199 121.4896361 102.8231248 142.8943586 122.9409763
 100.9816483 146.7553839 112.8242426 101.8934339 146.9881226 112.6490123
 100.4726130 147.3390884 112.2617504  93.7901911 149.0349327 127.8631557
  94.5316595 149.5734371 127.5866380  93.0838896 149.6615615 128.0203108
  99.2657251 151.1778467 126.4603718  99.6740607 150.7360878 125.7158350
  98.5434512 150.6031095 126.7137911  95.6188321 146.1151074 123.8337275
  96.4649516 146.5390487 123.9771924  95.5586958 145.4584698 124.5275838
  99.5886065 151.7379658 120.2156007  98.9594928 151.9025372 119.5132075
  99.2011727 152.1521267 120.9866971 103.4675297 152.6734096 117.5700371
 102.7826335 153.0532997 117.0197404 103.5519147 153.2829422 118.3032318
  98.7687766 143.7755442 125.4918449  98.5248698 144.5297503 124.9552724
  99.0447697 144.1540790 126.3265696 100.7226229 150.3194055 124.1695714
 100.9343124 150.9625815 123.4930095 100.6755977 149.4856371 123.7017644
  98.3252458 142.9311875 121.0732286  97.4636937 143.2293129 121.3649024
  98.3514892 143.1482274 120.1413319  95.1414027 151.4754066 117.4806092
  95.6052373 151.7541769 116.6910715  94.8770825 150.5737510 117.2979183
  92.0338108 151.0225547 120.4185855  92.6039465 151.4512816 119.7803340
  92.6246220 150.7408132 121.1170041  94.0782913 147.5977218 114.2895657
  94.7806957 148.0498262 114.7569584  93.7463542 146.9561037 114.9175550
  92.5263275 146.1888975 128.6646867  91.8961935 146.8705256 128.8982263
  92.4199363 146.0772056 127.7200005  87.8208247 145.8560771 119.5912791
  87.0307301 146.1118299 119.1152901  88.3119495 146.6709109 119.6964831
 101.8372057 153.1966010 122.3418072 102.6589500 152.7946197 122.0600753
 101.8334460 153.0934244 123.2934187  89.7722993 146.2205350 116.5496267
  88.9754156 146.3324044 117.0679763  89.5448585 146.5592002 115.6837158
  95.6028660 152.7450053 124.4978782  95.6673093 153.2070461 125.3336954
  94.8939584 152.1147418 124.6261092  86.1045950 146.1091261 122.0227782
  86.3553989 146.9938271 122.2885358  86.6405499 145.9295863 121.2502873
 109.9278050 149.5404759 118.6903043 109.1741758 148.9712157 118.5347048
 110.0625591 149.5067423 119.6373678  95.3176678 154.4118161 114.3657762
  95.1822353 155.2569697 114.7942610  95.8586490 154.6137438 113.6023696
  91.8044017 140.4909741 131.0272118  91.4110963 139.9375939 131.7019762
  92.6210158 140.8020319 131.4178635  88.7706075 151.9293599 114.9385688
  89.2830596 152.7236849 115.0891252  89.4228788 151.2319889 114.8719289
  90.5800960 155.0459355 117.0208441  90.7567588 155.9677320 116.8329425
  91.3757793 154.7317774 117.4502820  94.7211978 141.9067620 128.6192374
  95.4621692 142.5074773 128.5396837  94.9529901 141.1645258 128.0610417
  89.8653316 147.0923987 126.8970604  89.7506832 146.1909244 127.1977703
  89.0097834 147.3387684 126.5455420  91.7032275 156.5637529 123.0218783
  92.2539701 156.4354592 122.2495777  90.8643751 156.8632418 122.6713676
  95.4999446 152.8288657 127.3663014  96.0327783 152.0676945 127.1362322
  94.9713528 152.5362309 128.1087169  98.6669141 137.9348723 122.8956656
  98.3233411 138.8250364 122.8195766  99.0348104 137.7450380 122.0326241
  86.7354992 150.2582253 115.7145258  87.5730214 150.6679262 115.4978966
  86.9133260 149.3181695 115.6845452  98.6319424 147.9257334 111.4029091
  98.1166048 148.6961938 111.6417478  98.3596733 147.2522470 112.0262152
  97.7465682 140.3053378 120.8605889  97.2430477 140.2683513 120.0473694
  98.0396289 141.2146121 120.9202546 103.6053698 150.6789688 113.3382264
 102.8283141 150.3400848 112.8937427 104.2845179 150.6842312 112.6637230
  98.4205727 145.7984426 113.2288872  98.1155863 146.1130575 114.0799015
  99.3736169 145.8765846 113.2716205  96.8652159 151.9574649 114.8781826
  96.3373521 151.2227409 114.5655064  96.3639662 152.7349326 114.6321795
 101.8445005 150.1523670 119.9948872 101.1868680 150.8422931 120.0829001
 102.6485404 150.5420102 120.3382859  91.5970887 142.6194316 117.2388438
  92.1714639 142.3969497 116.5061631  92.1841869 142.6883010 117.9917039
 100.6550464 148.5068042 118.0452814 101.1682346 149.1398034 118.5474524
 101.3051688 147.9069238 117.6796174  91.9240474 144.6498777 111.2584323
  91.0877786 144.9873463 111.5793598  91.7845244 144.5147756 110.3211460
  95.0104759 149.7754860 107.8816799  94.1031821 149.5444113 108.0807948
  95.5075791 148.9792479 108.0690781  97.9172838 158.4852367 110.8013485
  97.2434537 158.7884063 111.4098443  98.3038660 159.2881447 110.4518942
  97.1331295 145.9817498 120.2911155  96.2153856 146.2032445 120.1332843
  97.5491438 146.0563808 119.4322862  97.9166343 147.3808914 115.4213835
  98.6638162 147.8930311 115.1120957  98.1857932 147.0592966 116.2818229
  96.1892993 149.8767454 112.4040789  95.2804212 149.5926487 112.5013259
  96.2188077 150.2966533 111.5444096 101.4212260 153.4874044 116.1731957
 100.9674587 152.6464954 116.2297147 100.7906227 154.1235442 116.5106737
 100.3645180 144.4166030 117.4032624  99.6267937 143.9043416 117.7342867
 100.6171953 143.9766412 116.5915901  99.8645199 155.3250541 117.1081775
 100.1568174 155.8855598 116.3894141 100.3743820 155.6179102 117.8634934
 100.4656807 137.1942282 117.9974394 100.7715684 136.3339645 117.7100309
 101.1909412 137.7859902 117.7973387  86.7581163 147.5972968 116.3855992
  86.5605563 147.0042329 115.6607058  86.2027827 147.2925179 117.1031930
  94.7377887 147.4896075 118.5050585  94.7926497 146.5369911 118.4293061
  93.9269089 147.6455514 118.9891883  95.8869081 151.4176198 109.7428868
  95.4488511 150.7012057 109.2834505  96.6279521 151.6452313 109.1813959
  92.6770247 146.1073135 116.2640964  91.8638112 146.4067305 116.6706156
  93.1729241 145.7128823 116.9815446  94.8278825 156.1030892 118.1975228
  94.7855003 156.3291738 117.2683760  95.7441523 155.8694266 118.3461029
  98.2744458 146.5714959 125.0955857  98.6293846 146.7986432 125.9550323
  98.9216590 146.9033336 124.4733113 104.0042195 149.6933395 115.8005186
 103.8660094 149.8834991 114.8726376 103.6478414 150.4552778 116.2573238
  92.1684322 143.6791490 121.8802198  92.8083701 143.5380249 121.1825162
  91.3361852 143.3926004 121.5040800 104.0311575 151.7609922 120.8116458
 104.4648082 151.6685211 121.6599512 104.7443156 151.7367423 120.1736474
  92.9444625 152.9793921 117.9937191  93.7385224 152.4844241 117.7919766
  92.2336318 152.4511784 117.6304896  97.7639470 155.3612016 122.3449559
  97.8176492 155.9302953 123.1127274  96.8954251 155.5313901 121.9803596
  89.2527389 147.1237002 114.0696944  88.3224977 147.0621458 114.2866906
  89.3484861 146.6012955 113.2733585  89.1712938 143.6491815 116.6575185
  89.4319755 144.5637148 116.5484346  89.9930110 143.1816258 116.8071798
  90.6437863 145.0629572 123.8274010  91.3160917 144.8546935 123.1786659
  89.8167650 144.8651658 123.3879242 104.8927125 151.8033623 123.3449343
 105.0863015 152.7079433 123.5908618 104.7927743 151.3441042 124.1787928
  96.5463435 141.6891513 125.8439671  95.8991350 142.3881463 125.7504147
  97.3164451 142.1227657 126.2115919  96.7227570 149.5272278 123.9036490
  97.6519630 149.6783438 123.7305458  96.3018600 149.6156299 123.0485137
  95.5215901 153.5522943 121.6735028  95.3826987 153.1841727 122.5460966
  94.7330498 154.0670582 121.5018986  96.1164053 158.6532039 113.0160565
  96.2915809 158.1820082 113.8306187  95.4296841 159.2797805 113.2441825
  97.0721117 152.9304545 119.0623866  96.7370949 152.8905315 119.9581516
  96.5725062 152.2649261 118.5894276  91.0465361 148.3372175 124.5876447
  90.9085158 147.6052414 125.1887986  91.9570284 148.2481075 124.3060635
 100.0080308 150.2760580 109.3360925  99.3909479 149.5507408 109.2393978
  99.5396797 151.0369940 108.9928000  93.6747661 148.0492135 124.0760127
  94.3847280 147.4085327 124.0346745  93.6316969 148.3005030 124.9986307
  92.3876595 145.0357353 125.8955766  91.8513952 144.5848091 126.5477362
  91.7993304 145.1703261 125.1526230  90.6825139 161.8021402 119.7900425
  90.9221737 162.4339926 120.4679443  89.8394335 161.4509442 120.0765784
  91.7978854 144.4946004 108.4582230  90.9208320 144.3734805 108.0944476
  92.2736607 143.7032082 108.2061118 101.6651847 152.9499072 125.2280685
 100.7778626 152.6124994 125.3507084 102.2350398 152.2182103 125.4649451
  83.3180994 149.2823164 118.5523737  84.0052034 148.9684894 117.9644752
  83.1629123 150.1864528 118.2790988  95.1953001 157.6100524 122.1941929
  95.1223172 158.4155496 122.7061233  94.7530394 157.8092490 121.3689950
  94.9842780 156.8472294 115.7044750  94.2010302 157.3893975 115.7982975
  95.6835525 157.3646274 116.1038991  98.2939430 142.6566924 118.3478956
  98.7908130 141.9036886 118.0280026  97.5226412 142.6931240 117.7822165
 106.1469188 148.3607289 119.9897247 106.1359064 149.2432005 119.6191180
 105.2786567 148.0078840 119.7951784  99.3769211 151.4138611 115.9217379
  98.4425490 151.5340073 115.7522083  99.5545879 150.5111078 115.6577389
  94.8774399 144.7984307 118.0750640  94.5072187 144.2455347 118.7631546
  95.3733491 144.1942440 117.5225640 102.7641762 147.2555930 116.4567413
 103.2302215 148.0883922 116.3827716 103.2149263 146.7900912 117.1612672
  92.7063598 155.2581802 125.1705658  93.4073057 155.8918285 125.3235052
  92.2358713 155.5996533 124.4101297 100.8317993 153.5999752 113.4553565
 101.1077837 153.4856346 114.3647439  99.9622492 153.2017236 113.4165738
 100.7358425 139.6236517 120.4958314  99.8221505 139.8540744 120.6640521
 101.1651527 139.7074961 121.3472347 100.5064884 147.8126409 122.9958209
  99.8536334 148.0602317 122.3410661 100.8845263 146.9990547 122.6620686
  97.4672057 157.8486102 117.0986379  97.6494452 157.0307758 117.5614131
  98.2905043 158.0653795 116.6611269  97.8014223 156.7754288 114.3601427
  98.3301989 156.2646742 113.7471589  98.0642443 156.4596818 115.2246960
  96.5552457 148.5546220 129.4824246  95.8793094 148.4540350 130.1526621
  97.3780090 148.3985434 129.9460243  88.3031316 154.7918157 122.1036761
  88.8884752 154.0461845 122.2364665  88.1056154 155.1022114 122.9873425
  91.1569971 157.8269404 117.1199203  90.4880346 158.3115532 116.6363243
  91.0182841 158.0738625 118.0342582  82.8948970 147.3623757 120.8241204
  82.9333070 146.8287348 121.6178322  82.3889263 146.8358963 120.2052181
  89.7492005 144.2811430 127.9676781  90.3764044 143.8988507 128.5814305
  88.8919924 144.0625632 128.3332473  86.5257548 146.0887859 113.8995135
  86.8210989 145.1798538 113.8462189  85.6245584 146.0675599 113.5776138
  98.4343627 157.8095123 120.7045544  98.3094766 157.0084863 120.1956489
  99.0922718 158.3041317 120.2159514 100.4978535 155.6104143 122.3325094
  99.5508871 155.4909495 122.2603421 100.8461308 154.7226641 122.4151355
  92.8578108 141.4998282 126.1563336  93.3812510 141.7460579 126.9189645
  92.6390442 142.3318317 125.7366473  88.2545390 143.7701957 114.0234461
  87.9258096 142.8899336 113.8409566  88.6084760 143.7149626 114.9110850
  97.5024968 155.4056860 118.5329446  97.3549931 154.4773567 118.7137016
  98.3278462 155.4276950 118.0486521  91.3687213 144.0574927 114.3909938
  91.7083285 144.5860848 113.6688547  91.8159333 144.3955333 115.1668505
 101.1059090 156.2285418 119.6194319 102.0305638 156.0228280 119.4818770
 100.9374394 155.9801820 120.5283660  94.0630654 142.4411977 123.8413006
  93.7227474 141.6419790 124.2433686  93.3569660 142.7413688 123.2689839
  93.3555360 142.5549548 112.5903231  94.0763722 142.9330801 112.0866948
  92.7320664 143.2738425 112.6938209  97.4986483 143.2594697 113.5261563
  97.7150097 144.1419335 113.2250391  97.0180550 142.8680911 112.7967205
  92.2385704 146.2180410 120.1032308  92.0930285 146.5320714 120.9956589
  91.7610908 146.8365311 119.5503207  94.0982087 143.2082958 120.1513197
  94.0843656 142.3124052 119.8145495  94.8154515 143.2153622 120.7851484
  95.9508218 143.6420299 122.1966325  95.6925996 144.5637369 122.1950655
  95.4193258 143.2450733 122.8866789 100.8954406 156.7471086 114.9756410
 101.0691284 156.1817508 114.2230263 101.3883298 157.5471981 114.7935900
  86.7131366 148.7585755 123.0419969  86.1684834 149.5345563 123.1740243
  87.5910716 149.1056559 122.8839091  93.5018983 142.0897339 115.4200768
  93.6234894 141.1613985 115.6191655  93.2121025 142.1036025 114.5079083
 106.7493798 149.5107509 116.5946710 107.1924944 148.7614834 116.1965833
 105.8720308 149.5017645 116.2120442 101.8829579 156.0637850 112.0753309
 102.5780484 156.6844543 112.2940623 102.2252729 155.2133201 112.3505686
  87.4997388 147.8855651 125.9350126  86.7579124 148.0338286 126.5214756
  87.1790132 148.1463917 125.0716875 103.7821002 153.5137556 113.6040639
 104.3072326 153.8524828 112.8789959 103.6943355 152.5784571 113.4203774
  95.4661663 159.5809539 117.9635893  95.0266653 159.0885918 118.6568749
  96.2169780 159.0382507 117.7227968  87.9454002 155.7721080 117.9660521
  88.7712022 155.4724852 117.5859164  87.5948054 155.0028702 118.4150309
  92.9135535 155.1247548 120.0358194  92.2915544 154.4618253 119.7360422
  93.5840402 155.1508680 119.3531842  86.1462607 153.6907406 118.9249454
  85.3094515 153.2629581 118.7433455  86.1186252 153.8839850 119.8620245
  92.9860062 143.6029336 129.6290700  93.0348218 144.4791459 129.2468470
  93.5282577 143.0606729 129.0562343  92.4749042 153.6751471 113.5116655
  92.6237162 154.3586936 112.8583327  93.2815485 153.6556561 114.0266110
 100.8816546 146.9793854 127.5383873 101.7826408 146.8400319 127.2467870
 100.9564520 147.1448309 128.4782050  95.2159351 144.3560709 126.3837059
  94.3462660 144.6494275 126.1119647  95.4518831 144.9401154 127.1044322
 106.2926662 150.9812747 118.9869158 107.1273554 151.4202551 119.1506718
 106.4285791 150.5051400 118.1677403 103.3418168 148.5392482 124.9346645
 103.8172290 148.7320128 124.1265497 102.4183734 148.5951668 124.6890029
  90.2301675 149.7016649 114.5177724  89.9847717 148.7978979 114.7157934
  90.3997589 149.7033800 113.5757202  97.9198385 140.5740325 123.9002479
  98.4380329 141.3101352 123.5748968  97.5653518 140.8804319 124.7349238
  89.4997322 145.4345007 112.0163885  88.8066567 145.5089362 111.3603921
  89.2549074 144.6705350 112.5385402  95.9744447 156.1699602 110.9828402
  95.4018414 156.7889789 110.5298874  96.5477241 156.7198964 111.5168324
 102.0419837 145.4158242 123.1674951 102.9937260 145.5156340 123.1887175
 101.8723288 144.6236511 123.6773035 100.0634217 142.5013825 123.3534352
  99.4684149 142.7818838 122.6580841  99.7783913 142.9907726 124.1251093
  99.1941707 156.4536752 112.1136984 100.1272380 156.3882314 112.3169860
  99.1064920 157.2893019 111.6551517 101.8229724 155.7702622 109.0740932
 101.7443355 155.4362486 109.9676690 102.6439391 156.2624390 109.0732404
 104.5207915 148.6364362 122.2817251 104.4884235 147.6980362 122.4676934
 105.1308539 148.7148398 121.5483075  96.3591246 147.5060415 108.3244455
  97.3050351 147.3766623 108.3932873  95.9805491 146.7675077 108.8013883
 104.6702404 145.4275405 122.3275534 104.1541452 144.6433862 122.1405463
 105.5542352 145.0994122 122.4922053 102.3313130 139.1716421 118.2871346
 102.1337952 138.8631509 119.1714678 102.9412836 139.8978060 118.4169276
 110.3384465 149.6980368 121.4223287 111.0687853 149.4365657 121.9830991
 109.7291410 148.9609090 121.4625355 108.4199762 147.8388231 122.0197739
 107.6932926 147.7044196 121.4114230 108.0047049 148.1465060 122.8254457
  94.5434163 145.4310391 108.2599340  93.6365618 145.1343504 108.3362053
  94.8210144 145.1340209 107.3933626  85.4612103 146.7516754 118.7098386
  85.1414888 145.8982063 118.4172760  84.9145532 146.9665333 119.4656354
  89.2392011 149.4679195 122.4267893  89.4578021 150.3996303 122.4455927
  89.6517785 149.1087170 123.2122697  94.1119876 145.0412401 131.8170642
  94.0116603 145.9906758 131.7482733  93.8941418 144.7130640 130.9446712
  93.3132948 142.2897326 108.4011319  94.1752112 142.6152225 108.6607136
  93.4983292 141.5028822 107.8884385  85.3300363 150.3719666 120.6791508
  84.6363835 149.9573619 120.1661462  86.0773354 150.4140202 120.0824927
 101.4665584 141.1625853 115.5446542 100.8864253 141.8210657 115.1624594
 101.2001517 140.3403197 115.1333960  99.9169151 140.5630910 117.7467862
 100.4168929 140.6747445 116.9382181 100.5604758 140.2591963 118.3868671
  93.9751146 148.4709540 130.6335703  93.4918228 149.2709900 130.8399592
  94.0612085 148.4817485 129.6803147  87.2437106 150.3037920 118.5557523
  87.2207794 150.4025607 117.6039406  87.5537742 151.1503070 118.8774689
  89.9024484 152.3614075 122.6704137  90.8567737 152.3298017 122.6034069
  89.7037007 151.9004698 123.4854363  90.4923866 150.9315191 125.2374935
  91.3116755 151.4259269 125.2609772  90.7660674 150.0147159 125.2092502
 100.2490462 143.3225943 114.6002890  99.3616317 143.6075594 114.3823085
 100.6644451 143.1619706 113.7530167 103.6004998 143.3472464 118.3157230
 104.3765388 143.8368917 118.5881846 102.8753132 143.7730518 118.7729099
 106.0377557 144.0600083 119.3731170 106.6322048 143.8195819 118.6624478
 106.1104141 143.3407214 120.0004706  88.2574713 157.9033694 119.6874335
  88.1229181 157.1434095 119.1212333  87.8406775 158.6274594 119.2203124
  99.3933676 153.0870618 108.6950910 100.0969526 153.2920620 109.3108566
  98.6696324 153.6547380 108.9599994 100.2231486 148.8380479 114.8153180
 100.1666687 149.2949030 113.9760813 100.7759828 148.0771164 114.6376023
 104.0336292 144.6270211 115.6403300 103.7773226 144.2266847 116.4711508
 103.4089160 145.3414005 115.5153439 108.3448630 147.3666284 118.1474591
 107.7848188 147.4359473 118.9206153 107.7392133 147.1907269 117.4274088
  91.4143839 158.8003011 119.8992778  91.2976223 159.7448444 119.7971468
  90.5936285 158.4976573 120.2878577 101.3020373 153.5253147 110.7449370
 102.1365977 153.0934345 110.5626845 101.1404716 153.3535161 111.6726265
 100.9566265 150.0285260 112.1105710 100.9015069 149.8629532 111.1694154
 100.3312320 150.7361293 112.2667899  85.7458780 145.2653325 125.9367132
  86.3917644 144.7552279 126.4254357  85.5375931 146.0022006 126.5110557
  92.4398353 159.4531273 123.1148706  93.3425599 159.4854883 123.4315201
  92.2135723 158.5231724 123.1295042  94.1951955 158.2062260 119.7758785
  93.2447586 158.2064121 119.6623157  94.4984441 157.4594994 119.2594819
  90.0856271 142.4120942 130.0342146  90.9487733 142.0557747 130.2445471
  89.5121682 142.0734837 130.7217550 102.5981170 165.8485703 116.7662963
 102.0346035 165.7575640 115.9979251 102.4833565 165.0285607 117.2465455
 108.1780729 169.5156670 112.0777428 107.5268709 170.1010751 111.6911441
 108.9725092 170.0462865 112.1372465 102.1036356 166.6045807 112.4764562
 102.8767232 166.0574795 112.3377438 102.4561755 167.4690057 112.6879023
 104.4402634 162.7638474 110.1083012 104.6928154 162.2419995 109.3466475
 103.5027193 162.6004619 110.2109696 109.6555994 167.2047102 112.6146412
 109.0201827 167.2781729 113.3267317 109.3253400 167.7940701 111.9365491
 104.1598923 164.6666580 112.3107387 104.0435181 163.9911483 112.9788471
 104.2701182 164.1798953 111.4939540 106.5030463 164.1276727 116.0154076
 106.1388671 163.6007348 116.7266998 107.3597579 163.7375196 115.8420562
 106.1435950 159.1566626 111.0115425 106.3110353 160.0246863 111.3785896
 105.9533120 159.3193908 110.0876714 106.1225171 161.6124284 111.9962091
 106.0024797 162.0581335 112.8347572 105.4277760 161.9609601 111.4375630
 111.8210237 162.0845757 112.8242426 112.7328094 162.3173144 112.6490123
 111.3119885 162.6682801 112.2617504 104.9176668 162.9269136 114.2895657
 105.6200711 163.3790180 114.7569584 104.5857296 162.2852955 114.9175550
  98.6602002 161.1852689 119.5912791  97.8701056 161.4410217 119.1152901
  99.1513249 162.0001026 119.6964831 100.6116747 161.5497268 116.5496267
  99.8147910 161.6615962 117.0679763 100.3842339 161.8883920 115.6837158
  99.6099830 167.2585517 114.9385688 100.1224350 168.0528767 115.0891252
 100.2622543 166.5611807 114.8719289  97.5748747 165.5874171 115.7145258
  98.4123969 165.9971179 115.4978966  97.7527014 164.6473613 115.6845452
 109.4713179 163.2549252 111.4029091 108.9559802 164.0253856 111.6417478
 109.1990487 162.5814388 112.0262152 107.0560290 158.0998952 116.4614329
 106.2001886 157.7105803 116.2819968 107.4687241 158.1790913 115.6014115
 104.8302322 155.7184025 119.8672071 105.6955319 155.5226834 119.5077960
 104.8979831 155.4894377 120.7941428 109.2599482 161.1276344 113.2288872
 108.9549617 161.4422493 114.0799015 110.2129924 161.2057763 113.2716205
 107.7045914 167.2866567 114.8781826 107.1767275 166.5519326 114.5655064
 107.2033416 168.0641243 114.6321795 102.4364641 157.9486233 117.2388438
 103.0108393 157.7261415 116.5061631 103.0235624 158.0174928 117.9917039
 102.7634228 159.9790694 111.2584323 101.9271541 160.3165381 111.5793598
 102.6238998 159.8439674 110.3211460 104.7387309 154.8227482 115.9663507
 104.0851721 154.5076499 115.3420122 104.6967783 154.2003223 116.6923330
 105.8498514 165.1046777 107.8816799 104.9425576 164.8736031 108.0807948
 106.3469546 164.3084396 108.0690781 108.7560097 162.7100831 115.4213835
 109.5031916 163.2222229 115.1120957 109.0251687 162.3884884 116.2818229
 107.0286747 165.2059372 112.4040789 106.1197967 164.9218405 112.5013259
 107.0581831 165.6258451 111.5444096 111.2038934 159.7457948 117.4032624
 110.4661691 159.2335334 117.7342867 111.4565708 159.3058329 116.5915901
 111.3050562 152.5234200 117.9974394 111.6109438 151.6631563 117.7100309
 112.0303166 153.1151820 117.7973387  97.5974918 162.9264886 116.3855992
  97.3999317 162.3334247 115.6607058  97.0421582 162.6217096 117.1031930
 106.7262835 166.7468116 109.7428868 106.2882265 166.0303975 109.2834505
 107.4673276 166.9744231 109.1813959 103.5164001 161.4365052 116.2640964
 102.7031867 161.7359223 116.6706156 104.0122995 161.0420741 116.9815446
 100.0921143 162.4528920 114.0696944  99.1618731 162.3913376 114.2866906
 100.1878615 161.9304873 113.2733585 100.0106692 158.9783733 116.6575185
 100.2713510 159.8929066 116.5484346 100.8323865 158.5108175 116.8071798
 110.8474063 165.6052497 109.3360925 110.2303233 164.8799326 109.2393978
 110.3790551 166.3661858 108.9928000 102.6372609 159.8237922 108.4582230
 101.7602075 159.7026722 108.0944476 103.1130362 159.0324000 108.2061118
  94.1574749 164.6115081 118.5523737  94.8445789 164.2976811 117.9644752
  94.0022877 165.5156446 118.2790988  98.9609471 159.5005278 122.9808761
  98.8767660 158.8930948 122.2459171  98.1392177 159.9914296 122.9818257
 109.1333185 157.9858841 118.3478956 109.6301884 157.2328804 118.0280026
 108.3620166 158.0223158 117.7822165 105.7168154 160.1276224 118.0750640
 105.3465941 159.5747265 118.7631546 106.2127246 159.5234358 117.5225640
  93.7342725 162.6915675 120.8241204  93.7726824 162.1579265 121.6178322
  93.2283018 162.1650880 120.2052181  97.3651302 161.4179777 113.8995135
  97.6604744 160.5090455 113.8462189  96.4639338 161.3967516 113.5776138
 100.8945549 159.4935773 119.8822684 100.1732135 160.1071741 119.7430157
 101.6838805 160.0293538 119.8039330  99.0939144 159.0993875 114.0234461
  98.7651850 158.2191253 113.8409566  99.4478515 159.0441543 114.9110850
 102.2080967 159.3866844 114.3909938 102.5477040 159.9152766 113.6688547
 102.6553088 159.7247250 115.1668505 104.1949114 157.8841466 112.5903231
 104.9157477 158.2622719 112.0866948 103.5714418 158.6030343 112.6938209
 108.3380237 158.5886615 113.5261563 108.5543852 159.4711253 113.2250391
 107.8574304 158.1972828 112.7967205 104.9375841 158.5374876 120.1513197
 104.9237410 157.6415969 119.8145495 105.6548270 158.5445540 120.7851484
 104.3412737 157.4189256 115.4200768 104.4628649 156.4905903 115.6191655
 104.0514780 157.4327942 114.5079083 107.2103928 155.1044167 118.5567487
 107.2325625 155.1683500 117.6019467 107.6271987 154.2648675 118.7507994
 103.3142796 169.0043389 113.5116655 103.4630917 169.6878853 112.8583327
 104.1209240 168.9848479 114.0266110 101.0695429 165.0308567 114.5177724
 100.8241471 164.1270897 114.7157934 101.2391344 165.0325717 113.5757202
 100.3391077 160.7636924 112.0163885  99.6460322 160.8381279 111.3603921
 100.0942829 159.9997268 112.5385402 109.0104733 152.3232526 119.4203376
 109.2906487 151.6555715 120.0463802 109.7955340 152.5161621 118.9078040
 106.8138202 171.4991520 110.9828402 106.2412169 172.1181707 110.5298874
 107.3870996 172.0490881 111.5168324 107.1985000 162.8352332 108.3244455
 108.1444105 162.7058540 108.3932873 106.8199245 162.0966994 108.8013883
 113.1706885 154.5008338 118.2871346 112.9731706 154.1923427 119.1714678
 113.7806591 155.2269977 118.4169276 105.3827918 160.7602309 108.2599340
 104.4759373 160.4635421 108.3362053 105.6603899 160.4632127 107.3933626
  96.3005858 162.0808672 118.7098386  95.9808642 161.2273980 118.4172760
  95.7539286 162.2957250 119.4656354 106.9989983 155.3039198 114.4143581
 106.1890712 154.9586283 114.7898827 107.6874400 154.9946742 115.0031193
 108.9280532 154.3817245 116.0367878 109.4811570 154.8012699 116.6957901
 109.1650618 153.4552993 116.0790834 104.1526702 157.6189244 108.4011319
 105.0145866 157.9444142 108.6607136 104.3377046 156.8320740 107.8884385
 112.3059339 156.4917770 115.5446542 111.7258008 157.1502574 115.1624594
 112.0395271 155.6695115 115.1333960 110.7562905 155.8922828 117.7467862
 111.2562683 156.0039363 116.9382181 111.3998513 155.5883881 118.3868671
  98.0830860 165.6329837 118.5557523  98.0601549 165.7317525 117.6039406
  98.3931497 166.4794988 118.8774689 111.0884217 158.6517861 114.6002890
 110.2010072 158.9367511 114.3823085 111.5038206 158.4911624 113.7530167
 110.2327430 168.4162535 108.6950910 110.9363280 168.6212538 109.3108566
 109.5090079 168.9839297 108.9599994 111.0625240 164.1672397 114.8153180
 111.0060442 164.6240948 113.9760813 111.6153583 163.4063081 114.6376023
 114.8730046 159.9562129 115.6403300 114.6166981 159.5558764 116.4711508
 114.2482914 160.6705922 115.5153439 112.1414128 168.8545065 110.7449370
 112.9759731 168.4226263 110.5626845 111.9798470 168.6827078 111.6726265
 111.7960020 165.3577178 112.1105710 111.7408824 165.1921449 111.1694154
 111.1706075 166.0653211 112.2667899 105.1056145 154.8585287 111.6891028
 105.0934815 155.8027127 111.8459299 105.9979567 154.6755432 111.3950489
 108.9208265 151.4528064 115.9436965 108.1540660 150.8986550 116.0893647
 109.3318970 151.5249932 116.8051116  23.2154613  18.4149579 107.5649854
  23.8533023  18.2956327 106.8613194  23.0975456  19.3630423 107.6237806
  20.0244320  18.3677007 107.5011378  19.6862831  18.2518072 106.6131913
  20.8934088  17.9668172 107.4812385  15.8831135  20.2212484 103.4908269
  15.3196001  20.1302421 102.7224557  15.7683530  19.4012388 103.9710762
  20.5064103  19.5211859 113.4597584  20.4952744  19.1264657 112.5878088
  20.6684742  18.7877932 114.0531355  13.4295567  21.7163675 106.3292490
  14.2216859  21.3754500 105.9138789  13.6692218  21.8258650 107.2494643
  21.4630694  23.8883451  98.8022734  20.8118674  24.4737532  98.4156748
  22.2575057  24.4189646  98.8617772  15.3886321  20.9772589  99.2009869
  16.1617197  20.4301576  99.0622744  15.7411720  21.8416838  99.4124330
  17.2271364  22.3048971 112.4076768  16.9361230  23.2094602 112.2923434
  17.8628348  22.3465498 113.1220838  18.1527571  19.6825819 108.9978128
  18.7491143  19.4581842 108.2835091  18.2102542  18.9410565 109.6003575
  17.7252599  17.1365255  96.8328319  17.9778120  16.6146776  96.0711782
  16.7877158  16.9731400  96.9355002  22.7695882  16.1401033 104.6403062
  23.5558971  15.7220456 104.2893479  23.0334586  17.0447125 104.8084710
  22.9405959  21.5773883  99.3391719  22.3051792  21.6508510 100.0512623
  22.6103366  22.1667482  98.6610798  28.1704309  16.0776266 105.5436040
  28.9029481  15.5075483 105.7773870  27.4143665  15.6897867 105.9842546
  17.4448888  19.0393361  99.0352694  17.3285146  18.3638264  99.7033778
  17.5551148  18.5525735  98.2184847  19.7880429  18.5003508 102.7399383
  19.4238636  17.9734129 103.4512304  20.6447545  18.1101977 102.5665868
  25.6929729   9.7897840 110.0030649  25.3613054  10.6593251 109.7791864
  25.0975343   9.4734124 110.6824679  19.4285916  13.5293407  97.7360731
  19.5960318  14.3973644  98.1031202  19.2383085  13.6920689  96.8122021
  22.1861249  21.9910386 109.4026562  21.8861972  22.8935425 109.2942369
  21.8412308  21.7242570 110.2547715  15.6373730  18.4424183 105.4363266
  14.7124227  18.3100397 105.6440958  15.8858144  19.2218402 105.9333208
  25.5858393  14.5092927 107.0823999  24.6775270  14.4408335 106.7882760
  25.5345989  14.9864872 107.9105824  19.4075137  15.9851065  98.7207398
  19.2874762  16.4308116  99.5592878  18.7127725  16.3336383  98.1620936
  12.9982541  18.0857457 106.2707055  13.1274923  18.3391936 107.1846467
  12.3179993  18.6785165 105.9511710  17.1682029  28.7554707 102.3697529
  17.0906058  29.7062532 102.4486010  16.5643672  28.4100579 103.0272456
  19.6599259  15.9282572 115.0258896  18.8832593  16.4876492 115.0161761
  20.2989822  16.4139355 115.5473766  27.4520039  12.7109365 108.8601873
  26.8094419  13.0041898 108.2141667  26.9474968  12.5962285 109.6655070
  25.1060203  16.4572538  99.5487732  26.0178059  16.6899925  99.3735430
  24.5969850  17.0409582  98.9862811  17.9145631  18.7368026 114.5876863
  18.6560315  19.2753069 114.3111687  17.2082616  19.3634314 114.7448415
  23.3900970  20.8797166 113.1849025  23.7984327  20.4379577 112.4403657
  22.6678232  20.3049794 113.4383218  19.7432041  15.8169773 110.5582582
  20.5893236  16.2409186 110.7017231  19.6830678  15.1603397 111.2521145
  23.7129785  21.4398357 106.9401314  23.0838648  21.6044071 106.2377381
  23.3255447  21.8539966 107.7112278  27.5919017  22.3752794 104.2945677
  26.9070055  22.7551696 103.7442711  27.6762866  22.9848121 105.0277625
  22.8931486  13.4774141 112.2163755  22.6492418  14.2316202 111.6798031
  23.1691416  13.8559489 113.0511002  24.8469949  20.0212753 110.8941021
  25.0586844  20.6644513 110.2175402  24.7999697  19.1875070 110.4262951
  22.4496178  12.6330574 107.7977593  21.5880657  12.9311828 108.0894331
  22.4758612  12.8500973 106.8658626  19.2657747  21.1772765 104.2051399
  19.7296093  21.4560468 103.4156021  19.0014545  20.2756209 104.0224489
  16.1581828  20.7244246 107.1431162  16.7283185  21.1531515 106.5048646
  16.7489940  20.4426831 107.8415348  18.2026633  17.2995917 101.0140964
  18.9050676  17.7516961 101.4814890  17.8707262  16.6579736 101.6420857
  25.9615777  22.8984709 109.0663378  26.7833220  22.4964896 108.7846060
  25.9578179  22.7952943 110.0179494  13.8966712  15.9224049 103.2741574
  13.0997876  16.0342743 103.7925070  13.6692305  16.2610701 102.4082465
  19.7272380  22.4468752 111.2224089  19.7916813  22.9089159 112.0582261
  19.0183304  21.8166117 111.3506399  34.0521770  19.2423457 105.4148350
  33.2985478  18.6730855 105.2592354  34.1869311  19.2086122 106.3618984
  19.4420398  24.1136860 101.0903069  19.3066072  24.9588395 101.5187917
  19.9830210  24.3156137 100.3269003  12.8949795  21.6312298 101.6630994
  13.4074316  22.4255548 101.8136559  13.5472508  20.9338588 101.5964596
  14.7044680  24.7478054 103.7453747  14.8811308  25.6696019 103.5574731
  15.5001513  24.4336473 104.1748127  21.0688874  24.7360426 115.2203411
  20.6252728  23.9496805 114.9024316  21.7306088  24.9239577 114.5547302
  15.8275995  26.2656228 109.7464090  16.3783420  26.1373291 108.9741084
  14.9887471  26.5651117 109.3958982  23.1670112  25.0163226 113.2484812
  23.1488587  25.8372107 112.7565082  24.0890032  24.8917301 113.4734954
  19.6243166  22.5307356 114.0908321  20.1571503  21.7695644 113.8607629
  19.0957247  22.2381007 114.8332475  10.8598712  19.9600952 102.4390565
  11.6973934  20.3697960 102.2224272  11.0376980  19.0200394 102.4090759
  22.7563144  17.6276033  98.1274398  22.2409767  18.3980637  98.3662785
  22.4840452  16.9541169  98.7507459  20.3410255  12.4725733 103.1859636
  19.4851851  12.0832584 103.0065275  20.7537207  12.5517694 102.3259422
  21.8709402  10.0072077 107.5851196  21.3674197   9.9702212 106.7719001
  22.1640009  10.9164819 107.6447852  27.7297418  20.3808387 100.0627571
  26.9526861  20.0419547  99.6182733  28.4088899  20.3861010  99.3882536
  22.5449447  15.5003125  99.9534179  22.2399583  15.8149274 100.8044322
  23.4979889  15.5784545  99.9961512  20.9895879  21.6593348 101.6027133
  20.4617241  20.9246108 101.2900370  20.4883382  22.4368024 101.3567101
  25.9688725  19.8542369 106.7194179  25.3112399  20.5441630 106.8074308
  26.7729124  20.2438801 107.0628165  24.7794184  18.2086741 104.7698121
  25.2926066  18.8416733 105.2719831  25.4295408  17.6087937 104.4041481
  16.0484194  14.3517475  97.9829630  15.2121506  14.6892162  98.3038904
  15.9088963  14.2166455  97.0456767  19.1348479  19.4773558  94.6062106
  18.2275541  19.2462812  94.8053255  19.6319511  18.6811178  94.7936087
  22.0416558  28.1871066  97.5258792  21.3678257  28.4902762  98.1343750
  22.4282380  28.9900146  97.1764249  21.2575015  15.6836197 107.0156461
  20.3397576  15.9051144 106.8578149  21.6735158  15.7582507 106.1568169
  22.0410062  17.0827613 102.1459142  22.7881881  17.5949010 101.8366264
  22.3101652  16.7611665 103.0063535  20.3136713  19.5786153  99.1286096
  19.4047932  19.2945186  99.2258566  20.3431796  19.9985232  98.2689403
  25.5455980  23.1892743 102.8977263  25.0918307  22.3483653 102.9542454
  24.9149947  23.8254141 103.2352044  24.4888900  14.1184729 104.1277931
  23.7511656  13.6062115 104.4588174  24.7415673  13.6785110 103.3161208
  23.9888919  25.0269239 103.8327082  24.2811894  25.5874297 103.1139447
  24.4987540  25.3197800 104.5880241  10.8824883  17.2991667 103.1101298
  10.6849283  16.7061028 102.3852365  10.3271547  16.9943878 103.8277237
  18.8621607  17.1914774 105.2295891  18.9170216  16.2388610 105.1538368
  18.0512809  17.3474213 105.7137190  20.0112800  21.1194897  96.4674175
  19.5732230  20.4030756  96.0079812  20.7523241  21.3471012  95.9059266
  16.8013967  15.8091834 102.9886270  15.9881832  16.1086004 103.3951462
  17.2972961  15.4147522 103.7060752  18.9522544  25.8049591 104.9220535
  18.9098723  26.0310437 103.9929067  19.8685243  25.5712965 105.0706336
  22.3988178  16.2733658 111.8201164  22.7537566  16.5005131 112.6795630
  23.0460309  16.6052035 111.1978419  28.1285915  19.3952094 102.5250493
  27.9903814  19.5853690 101.5971682  27.7722134  20.1571477 102.9818544
  28.1555295  21.4628621 107.5361765  28.5891801  21.3703910 108.3844819
  28.8686875  21.4386121 106.8981781  17.0688345  22.6812620 104.7182498
  17.8628944  22.1862940 104.5165073  16.3580038  22.1530483 104.3550203
  21.8883190  25.0630715 109.0694865  21.9420212  25.6321651 109.8372581
  21.0197971  25.2332600 108.7048902  13.3771109  16.8255701 100.7942250
  12.4468697  16.7640157 101.0112212  13.4728581  16.3031654  99.9978892
  14.7681583  14.7648271 110.5519316  15.4404637  14.5565633 109.9031965
  13.9411370  14.5670357 110.1124549  29.0170844  21.5052322 110.0694650
  29.2106734  22.4098132 110.3153925  28.9171463  21.0459741 110.9033235
  20.6707155  11.3910212 112.5684977  20.0235070  12.0900162 112.4749454
  21.4408170  11.8246356 112.9361226  24.0785953  21.6559064 115.6435531
  23.9271459  21.4269616 114.7265614  24.0690633  22.6129666 115.6566876
  20.8471289  19.2290977 110.6281797  21.7763349  19.3802137 110.4550764
  20.4262319  19.3174998 109.7730444  19.6459621  23.2541642 108.3980335
  19.5070707  22.8860426 109.2706273  18.8574217  23.7689281 108.2264292
  20.2407773  28.3550738  99.7405871  20.4159529  27.8838781 100.5551494
  19.5540561  28.9816504  99.9687132  21.1964836  22.6323244 105.7869172
  20.8614669  22.5924014 106.6826822  20.6968782  21.9667960 105.3139583
  15.1709080  18.0390874 111.3121754  15.0328878  17.3071113 111.9133293
  16.0814004  17.9499774 111.0305941  24.1324028  19.9779279  96.0606232
  23.5153199  19.2526107  95.9639285  23.6640516  20.7388639  95.7173306
  17.7991381  17.7510834 110.8005433  18.5091000  17.1104026 110.7592052
  17.7560689  18.0023728 111.7231614  25.7878160  24.6878187 113.7212012
  25.7290706  24.0037407 113.0542595  26.1897678  25.4297177 113.2692638
  14.8068858  31.5040101 106.5145731  15.0465457  32.1358625 107.1924750
  13.9638055  31.1528141 106.8011091  15.9222574  14.1964703  95.1827536
  15.0452040  14.0753504  94.8189783  16.3980327  13.4050781  94.9306425
  25.7895567  22.6517771 111.9525992  24.9022346  22.3143693 112.0752391
  26.3594118  21.9200802 112.1894758   7.4424714  18.9841863 105.2769044
   8.1295754  18.6703593 104.6890059   7.2872843  19.8883227 105.0036295
  19.3196720  27.3119223 108.9187235  19.2466892  28.1174195 109.4306540
  18.8774113  27.5111189 108.0935257  19.1086500  26.5490993 102.4290057
  18.3254022  27.0912673 102.5228281  19.8079245  27.0664973 102.8284298
  22.4183150  12.3585623 105.0724262  22.9151850  11.6055585 104.7525333
  21.6470132  12.3949939 104.5067472  30.2712907  18.0625988 106.7142554
  30.2602784  18.9450704 106.3436487  29.4030287  17.7097539 106.5197091
  21.7795404  27.2106057 111.0745394  22.4923376  27.8453522 111.0021295
  21.2885433  27.3069923 110.2585396  23.5012931  21.1157310 102.6462686
  22.5669210  21.2358772 102.4767390  23.6789599  20.2129777 102.3822696
  19.0018119  14.5003006 104.7995947  18.6315906  13.9474046 105.4876852
  19.4977211  13.8961139 104.2470947  26.8885482  16.9574629 103.1812720
  27.3545934  17.7902621 103.1073022  27.3392983  16.4919611 103.8857978
  16.8307317  24.9600501 111.8950965  17.5316777  25.5936984 112.0480359
  16.3602432  25.3015232 111.1346604  24.9561713  23.3018450 100.1798872
  25.2321557  23.1875045 101.0892746  24.0866212  22.9035935 100.1411045
  24.8602145   9.3255216 107.2203621  23.9465225   9.5559443 107.3885828
  25.2895246   9.4093660 108.0717654  24.6308603  17.5145108 109.7203515
  23.9780054  17.7621016 109.0655968  25.0088983  16.7009246 109.3865992
  21.5915777  27.5504801 103.8231685  21.7738172  26.7326457 104.2859438
  22.4148763  27.7672494 103.3856575  21.9257943  26.4772986 101.0846734
  22.4545709  25.9665441 100.4716896  22.1886162  26.1615517 101.9492267
  12.4275035  24.4936856 108.8282067  13.0128472  23.7480544 108.9609972
  12.2299874  24.8040812 109.7118731  15.2813691  27.5288103 103.8444510
  14.6124066  28.0134231 103.3608550  15.1426560  27.7757324 104.7587888
  19.4218959  29.5631847 110.4427168  19.9737267  29.7263468 111.2076253
  19.7625153  30.1536284 109.7707193  24.2729834  24.3893104 116.2975823
  24.8169738  25.0023062 115.8030777  23.6916678  24.9472683 116.8142836
  22.5587347  27.5113822 107.4290850  22.4338486  26.7103562 106.9201796
  23.2166438  28.0060016 106.9404820  24.6222255  25.3122842 109.0570400
  23.6752590  25.1928193 108.9848727  24.9705028  24.4245340 109.1396662
  21.6268688  25.1075558 105.2574753  21.4793651  24.1792266 105.4382323
  22.4522182  25.1295649 104.7731828  15.4930933  13.7593626 101.1155245
  15.8327005  14.2879547 100.3933853  15.9403053  14.0974032 101.8913811
  25.2302810  25.9304117 106.3439625  26.1549358  25.7246979 106.2064077
  25.0618113  25.6820518 107.2528967  17.4799080  12.2568247  99.3148538
  18.2007442  12.6349500  98.8112254  16.8564384  12.9757124  99.4183516
  21.6230203  12.9613396 100.2506870  21.8393817  13.8438034  99.9495698
  21.1424270  12.5699610  99.5212512  16.3629424  15.9199109 106.8277615
  16.2174005  16.2339412 107.7201896  15.8854628  16.5384010 106.2748513
  18.2225807  12.9101657 106.8758504  18.2087376  12.0142751 106.5390802
  18.9398235  12.9172321 107.5096790  20.0751938  13.3438998 108.9211632
  19.8169715  14.2656068 108.9195962  19.5436978  12.9469432 109.6112096
  25.0198126  26.4489785 101.7001717  25.1935004  25.8836207 100.9475569
  25.5127018  27.2490680 101.5181207  10.8375086  18.4604454 109.7665276
  10.2928554  19.2364262 109.8985550  11.7154436  18.8075258 109.6084397
  30.8737517  19.2126208 103.3192017  31.3168663  18.4633533 102.9211140
  29.9964028  19.2036344 102.9365749  26.0073299  25.7656549  98.7998615
  26.7024203  26.3863242  99.0185930  26.3496449  24.9151900  99.0750993
  27.9064722  23.2156255 100.3285946  28.4316046  23.5543527  99.6035266
  27.8187074  22.2803270 100.1449081  19.5684771  27.1290328 112.4575823
  19.8771897  26.8839475 113.3298522  20.3660253  27.3336967 111.9694693
  19.5905383  29.2828238 104.6881199  19.1510373  28.7904617 105.3814056
  20.3413500  28.7401206 104.4473274  12.0697722  25.4739779 104.6905827
  12.8955742  25.1743551 104.3104471  11.7191774  24.7047401 105.1395616
  17.0379255  24.8266247 106.7603501  16.4159264  24.1636952 106.4605729
  17.7084122  24.8527379 106.0777149  10.2706327  23.3926105 105.6494761
   9.4338235  22.9648280 105.4678762  10.2429972  23.5858549 106.5865552
  27.5958628  23.8489158 115.6337144  26.8054172  23.8313297 115.0941643
  27.3591983  24.3877452 116.3886181  27.7156503  20.6981625 112.9469872
  27.7654508  20.5331632 113.8885395  27.6070426  19.8308884 112.5567753
  16.5992762  23.3770170 100.2361961  16.7480882  24.0605635  99.5828634
  17.4059205  23.3575260 100.7511417  25.0060265  16.6812553 114.2629179
  25.9070128  16.5419017 113.9713177  25.0808240  16.8467007 115.2027357
  19.3403071  14.0579407 113.1082365  18.4706380  14.3512973 112.8364954
  19.5762551  14.6419852 113.8289629  29.2174700  23.1178566 113.1911894
  28.9259508  23.4808547 114.0275355  28.6046831  22.4045574 113.0125226
  30.4170382  20.6831446 105.7114464  31.2517274  21.1221250 105.8752025
  30.5529511  20.2070099 104.8922710  27.4661888  18.2411181 111.6591952
  27.9416010  18.4338827 110.8510803  26.5427453  18.2970367 111.4135336
  14.3545395  19.4035348 101.2423030  14.1091437  18.4997678 101.4403240
  14.5241309  19.4052498 100.3002508  22.0442105  10.2759024 110.6247786
  22.5624048  11.0120051 110.2994274  21.6897237  10.5823018 111.4594545
  20.0988167  25.8718301  97.7073709  19.5262134  26.4908488  97.2544181
  20.6720961  26.4217662  98.2413631  26.1663557  15.1176941 109.8920258
  27.1180980  15.2175038 109.9132482  25.9967007  14.3255209 110.4018342
  24.1877937  12.2032524 110.0779659  23.5927869  12.4837537 109.3826147
  23.9027633  12.6926425 110.8496400  23.3185427  26.1555451  98.8382291
  24.2516100  26.0901013  99.0415167  23.2308640  26.9911718  98.3796824
  25.9473444  25.4721321  95.7986239  25.8687075  25.1381185  96.6921997
  26.7683110  25.9643089  95.7977711  28.6451635  18.3383061 109.0062557
  28.6127955  17.3999061 109.1922241  29.2552259  18.4167097 108.2728382
  20.4834966  17.2079113  95.0489761  21.4294070  17.0785322  95.1178179
  20.1049211  16.4693775  95.5259189  28.7946123  15.1294104 109.0520840
  28.2785172  14.3452561 108.8650769  29.6786072  14.8012821 109.2167360
  26.4556850   8.8735120 105.0116653  26.2581671   8.5650208 105.8959985
  27.0656556   9.5996758 105.1414583  34.4628185  19.3999067 108.1468594
  35.1931573  19.1384355 108.7076297  33.8535130  18.6627789 108.1870662
  32.5443482  17.5406930 108.7443045  31.8176645  17.4062895 108.1359537
  32.1290769  17.8483759 109.5499763  20.3673658  21.2596860 116.5090418
  21.2876668  21.4375459 116.7030465  20.3323241  20.3152905 116.3570118
  18.6677883  15.1329090  94.9844647  17.7609338  14.8362203  95.0607360
  18.9453864  14.8358908  94.1178933  13.3635731  19.1697894 109.1513199
  13.5821741  20.1015002 109.1701233  13.7761505  18.8105869 109.9368003
   9.4544083  20.0738365 107.4036814   8.7607555  19.6592318 106.8906769
  10.2017074  20.1158901 106.8070233  25.5909304  10.8644552 102.2691849
  25.0107973  11.5229356 101.8869901  25.3245237  10.0421896 101.8579266
  24.0412870  10.2649609 104.4713169  24.5412649  10.3766144 103.6627488
  24.6848478   9.9610662 105.1113977  11.3680826  20.0056619 105.2802829
  11.3451514  20.1044306 104.3284712  11.6781462  20.8521769 105.6019996
  14.0268204  22.0632774 109.3949444  14.9811457  22.0316716 109.3279375
  13.8280727  21.6023397 110.2099670  14.6167586  20.6333890 111.9620241
  15.4360475  21.1277968 111.9855079  14.8904394  19.7165858 111.9337809
  24.3734182  13.0244642 101.3248197  23.4860037  13.3094293 101.1068392
  24.7888171  12.8638405 100.4775474  27.7248718  13.0491163 105.0402536
  28.5009108  13.5387615 105.3127153  26.9996852  13.4749217 105.4974406
  30.1621277  13.7618782 106.0976477  30.7565768  13.5214518 105.3869785
  30.2347860  13.0425913 106.7250013  12.3818432  27.6052393 106.4119642
  12.2472900  26.8452794 105.8457640  11.9650495  28.3293293 105.9448431
  23.5177395  22.7889317  95.4196217  24.2213246  22.9939319  96.0353873
  22.7940044  23.3566079  95.6845300  24.3475206  18.5399178 101.5398487
  24.2910407  18.9967729 100.7006120  24.9003548  17.7789862 101.3621330
  28.1580012  14.3288910 102.3648607  27.9016946  13.9285545 103.1956814
  27.5332880  15.0432704 102.2398746  32.4692350  17.0684983 104.8719898
  31.9091907  17.1378172 105.6451460  31.8635853  16.8925968 104.1519394
  15.5387558  28.5021710 106.6238084  15.4219942  29.4467143 106.5216775
  14.7180005  28.1995272 107.0123884  25.4264093  23.2271846  97.4694677
  26.2609697  22.7953044  97.2872152  25.2648436  23.0553860  98.3971571
  25.0809985  19.7303959  98.8351016  25.0258789  19.5648231  97.8939460
  24.4556040  20.4379992  98.9913206  22.3955892  22.0352871 118.1604579
  23.2647052  22.2093523 117.7991214  21.9162644  22.8547288 118.0380308
  16.5642072  29.1549972 109.8394013  17.4669319  29.1873582 110.1560508
  16.3379443  28.2250423 109.8540349  18.3195674  27.9080959 106.5004091
  17.3691305  27.9082820 106.3868464  18.6228161  27.1613693 105.9840126
  34.0548368  33.7441497 107.5649854  34.6926778  33.6248244 106.8613194
  33.9369211  34.6922341 107.6237806  30.8638074  33.6968925 107.5011378
  30.5256586  33.5809990 106.6131913  31.7327842  33.2960090 107.4812385
  26.7224890  35.5504401 103.4908269  26.1589755  35.4594338 102.7224557
  26.6077285  34.7304306 103.9710762  31.3457857  34.8503777 113.4597584
  31.3346498  34.4556575 112.5878088  31.5078497  34.1169849 114.0531355
  24.2689322  37.0455593 106.3292490  25.0610614  36.7046418 105.9138789
  24.5085972  37.1550568 107.2494643  32.3024449  39.2175369  98.8022734
  31.6512428  39.8029450  98.4156748  33.0968811  39.7481564  98.8617772
  26.2280076  36.3064506  99.2009869  27.0010952  35.7593493  99.0622744
  26.5805475  37.1708756  99.4124330  28.0665118  37.6340889 112.4076768
  27.7754984  38.5386519 112.2923434  28.7022103  37.6757416 113.1220838
  28.9921325  35.0117737 108.9978128  29.5884897  34.7873759 108.2835091
  29.0496297  34.2702483 109.6003575  28.5646354  32.4657172  96.8328319
  28.8171874  31.9438694  96.0711782  27.6270913  32.3023318  96.9355002
  33.6089636  31.4692951 104.6403062  34.3952726  31.0512374 104.2893479
  33.8728341  32.3739043 104.8084710  33.7799714  36.9065801  99.3391719
  33.1445547  36.9800428 100.0512623  33.4497120  37.4959400  98.6610798
  39.0098064  31.4068184 105.5436040  39.7423236  30.8367401 105.7773870
  38.2537419  31.0189784 105.9842546  28.2842642  34.3685278  99.0352694
  28.1678900  33.6930182  99.7033778  28.3944902  33.8817652  98.2184847
  30.6274183  33.8295425 102.7399383  30.2632391  33.3026046 103.4512304
  31.4841299  33.4393895 102.5665868  36.5323484  25.1189758 110.0030649
  36.2006809  25.9885169 109.7791864  35.9369097  24.8026042 110.6824679
  30.2679670  28.8585325  97.7360731  30.4354073  29.7265562  98.1031202
  30.0776839  29.0212607  96.8122021  33.0255003  37.3202304 109.4026562
  32.7255727  38.2227343 109.2942369  32.6806063  37.0534487 110.2547715
  26.4767485  33.7716101 105.4363266  25.5517981  33.6392315 105.6440958
  26.7251898  34.5510320 105.9333208  36.4252147  29.8384844 107.0823999
  35.5169025  29.7700253 106.7882760  36.3739743  30.3156789 107.9105824
  30.2468891  31.3142983  98.7207398  30.1268516  31.7600033  99.5592878
  29.5521480  31.6628300  98.1620936  23.8376296  33.4149374 106.2707055
  23.9668677  33.6683853 107.1846467  23.1573747  34.0077082 105.9511710
  28.0075783  44.0846624 102.3697529  27.9299813  45.0354450 102.4486010
  27.4037427  43.7392497 103.0272456  30.4993013  31.2574490 115.0258896
  29.7226347  31.8168410 115.0161761  31.1383576  31.7431273 115.5473766
  38.2913794  28.0401283 108.8601873  37.6488174  28.3333816 108.2141667
  37.7868722  27.9254203 109.6655070  35.9453957  31.7864456  99.5487732
  36.8571813  32.0191843  99.3735430  35.4363604  32.3701500  98.9862811
  28.7539385  34.0659943 114.5876863  29.4954070  34.6044987 114.3111687
  28.0476371  34.6926232 114.7448415  34.2294725  36.2089084 113.1849025
  34.6378081  35.7671494 112.4403657  33.5071986  35.6341711 113.4383218
  30.5825795  31.1461690 110.5582582  31.4286990  31.5701104 110.7017231
  30.5224433  30.4895315 111.2521145  34.5523540  36.7690274 106.9401314
  33.9232402  36.9335988 106.2377381  34.1649202  37.1831884 107.7112278
  38.4312772  37.7044712 104.2945677  37.7463810  38.0843614 103.7442711
  38.5156621  38.3140039 105.0277625  33.7325240  28.8066059 112.2163755
  33.4886172  29.5608119 111.6798031  34.0085171  29.1851406 113.0511002
  35.6863703  35.3504671 110.8941021  35.8980598  35.9936431 110.2175402
  35.6393451  34.5166988 110.4262951  33.2889932  27.9622492 107.7977593
  32.4274411  28.2603745 108.0894331  33.3152367  28.1792891 106.8658626
  30.1051501  36.5064682 104.2051399  30.5689847  36.7852385 103.4156021
  29.8408300  35.6048127 104.0224489  26.9975583  36.0536164 107.1431162
  27.5676940  36.4823432 106.5048646  27.5883694  35.7718749 107.8415348
  29.0420388  32.6287835 101.0140964  29.7444431  33.0808878 101.4814890
  28.7101016  31.9871654 101.6420857  27.4900749  31.2199591 115.3892173
  26.8599410  31.9015872 115.6227570  27.3836837  31.1082673 114.4445311
  22.7845722  30.8871387 106.3158097  21.9944775  31.1428916 105.8398208
  23.2756969  31.7019725 106.4210138  36.8009531  38.2276627 109.0663378
  37.6226975  37.8256814 108.7846060  36.7971934  38.1244861 110.0179494
  24.7360467  31.2515967 103.2741574  23.9391630  31.3634661 103.7925070
  24.5086059  31.5902619 102.4082465  30.5666135  37.7760670 111.2224089
  30.6310567  38.2381077 112.0582261  29.8577058  37.1458035 111.3506399
  21.0683424  31.1401878 108.7473088  21.3191463  32.0248888 109.0130664
  21.6042973  30.9606479 107.9748180  44.8915524  34.5715375 105.4148350
  44.1379233  34.0022773 105.2592354  45.0263065  34.5378040 106.3618984
  30.2814152  39.4428777 101.0903069  30.1459827  40.2880313 101.5187917
  30.8223965  39.6448055 100.3269003  26.7681492  25.5220357 117.7517424
  26.3748437  24.9686556 118.4265069  27.5847632  25.8330936 118.1423942
  23.7343550  36.9604215 101.6630994  24.2468070  37.7547466 101.8136559
  24.3866262  36.2630506 101.5964596  25.5438434  40.0769972 103.7453747
  25.7205063  40.9987936 103.5574731  26.3395268  39.7628391 104.1748127
  29.6849453  26.9378236 115.3437681  30.4259166  27.5385389 115.2642143
  29.9167376  26.1955874 114.7855723  24.8290791  32.1234604 113.6215911
  24.7144306  31.2219861 113.9223009  23.9735309  32.3698300 113.2700727
  31.9082629  40.0652344 115.2203411  31.4646483  39.2788722 114.9024316
  32.5699842  40.2531494 114.5547302  26.6669750  41.5948145 109.7464090
  27.2177175  41.4665209 108.9741084  25.8281226  41.8943034 109.3958982
  34.0063867  40.3455144 113.2484812  33.9882342  41.1664025 112.7565082
  34.9283787  40.2209219 113.4734954  30.4636921  37.8599273 114.0908321
  30.9965258  37.0987561 113.8607629  29.9351002  37.5672925 114.8332475
  33.6306616  22.9659339 109.6201963  33.2870885  23.8560981 109.5441073
  33.9985578  22.7760997 108.7571548  21.6992466  35.2892870 102.4390565
  22.5367688  35.6989878 102.2224272  21.8770734  34.3492312 102.4090759
  33.5956898  32.9567950  98.1274398  33.0803522  33.7272555  98.3662785
  33.3234207  32.2833087  98.7507459  31.1804009  27.8017651 103.1859636
  30.3245606  27.4124502 103.0065275  31.5930961  27.8809612 102.3259422
  32.7103156  25.3363994 107.5851196  32.2067952  25.2994130 106.7719001
  33.0033763  26.2456737 107.6447852  28.9546042  25.4202724 106.5917378
  29.8199039  25.2245533 106.2323267  29.0223551  25.1913076 107.5186734
  38.5691173  35.7100305 100.0627571  37.7920615  35.3711465  99.6182733
  39.2482654  35.7152928  99.3882536  33.3843202  30.8295042  99.9534179
  33.0793337  31.1441192 100.8044322  34.3373644  30.9076462  99.9961512
  31.8289633  36.9885266 101.6027133  31.3010995  36.2538025 101.2900370
  31.3277136  37.7659942 101.3567101  36.8082480  35.1834286 106.7194179
  36.1506154  35.8733548 106.8074308  37.6122879  35.5730718 107.0628165
  26.5608361  27.6504932 103.9633744  27.1352113  27.4280114 103.2306937
  27.1479344  27.7193627 104.7162346  35.6187938  33.5378659 104.7698121
  36.1319820  34.1708651 105.2719831  36.2689162  32.9379854 104.4041481
  26.8877948  29.6809393  97.9829630  26.0515260  30.0184080  98.3038904
  26.7482718  29.5458373  97.0456767  28.8631029  24.5246181 102.6908814
  28.2095441  24.2095198 102.0665429  28.8211503  23.9021921 103.4168637
  29.9742234  34.8065476  94.6062106  29.0669295  34.5754729  94.8053255
  30.4713266  34.0103095  94.7936087  32.8810313  43.5162983  97.5258792
  32.2072011  43.8194680  98.1343750  33.2676135  44.3192064  97.1764249
  32.0968769  31.0128115 107.0156461  31.1791331  31.2343062 106.8578149
  32.5128913  31.0874425 106.1568169  32.8803817  32.4119530 102.1459142
  33.6275636  32.9240927 101.8366264  33.1495406  32.0903583 103.0063535
  31.1530467  34.9078071  99.1286096  30.2441686  34.6237104  99.2258566
  31.1825551  35.3277149  98.2689403  36.3849735  38.5184660 102.8977263
  35.9312062  37.6775570 102.9542454  35.7543701  39.1546059 103.2352044
  35.3282654  29.4476646 104.1277931  34.5905411  28.9354033 104.4588174
  35.5809428  29.0077028 103.3161208  34.8282674  40.3561157 103.8327082
  35.1205648  40.9166214 103.1139447  35.3381294  40.6489718 104.5880241
  35.4294281  22.2252898 104.7219700  35.7353158  21.3650262 104.4345615
  36.1546886  22.8170519 104.5218694  21.7218637  32.6283585 103.1101298
  21.5243037  32.0352946 102.3852365  21.1665301  32.3235795 103.8277237
  29.7015361  32.5206692 105.2295891  29.7563971  31.5680528 105.1538368
  28.8906563  32.6766131 105.7137190  30.8506555  36.4486815  96.4674175
  30.4125985  35.7322674  96.0079812  31.5916996  36.6762929  95.9059266
  27.6407721  31.1383751 102.9886270  26.8275587  31.4377922 103.3951462
  28.1366715  30.7439440 103.7060752  29.7916299  41.1341508 104.9220535
  29.7492478  41.3602354 103.9929067  30.7078998  40.9004883 105.0706336
  33.2381933  31.6025576 111.8201164  33.5931320  31.8297049 112.6795630
  33.8854064  31.9343953 111.1978419  38.9679670  34.7244012 102.5250493
  38.8297568  34.9145608 101.5971682  38.6115888  35.4863394 102.9818544
  27.1321796  28.7102107 108.6047505  27.7721175  28.5690866 107.9070468
  26.2999326  28.4236620 108.2286107  38.9949049  36.7920539 107.5361765
  39.4285556  36.6995828 108.3844819  39.7080630  36.7678039 106.8981781
  27.9082100  38.0104537 104.7182498  28.7022698  37.5154857 104.5165073
  27.1973792  37.4822400 104.3550203  32.7276944  40.3922633 109.0694865
  32.7813966  40.9613569 109.8372581  31.8591726  40.5624518 108.7048902
  24.2164863  32.1547619 100.7942250  23.2862451  32.0932074 101.0112212
  24.3122335  31.6323572  99.9978892  24.1350412  28.6802432 103.3820492
  24.3957230  29.5947765 103.2729652  24.9567585  28.2126874 103.5317105
  25.6075338  30.0940189 110.5519316  26.2798391  29.8857551 109.9031965
  24.7805124  29.8962275 110.1124549  39.8564599  36.8344239 110.0694650
  40.0500489  37.7390050 110.3153925  39.7565217  36.3751658 110.9033235
  31.5100910  26.7202130 112.5684977  30.8628825  27.4192080 112.4749454
  32.2801925  27.1538274 112.9361226  34.9179708  36.9850982 115.6435531
  34.7665214  36.7561534 114.7265614  34.9084387  37.9421583 115.6566876
  31.6865044  34.5582895 110.6281797  32.6157104  34.7094054 110.4550764
  31.2656074  34.6466916 109.7730444  30.4853376  38.5833559 108.3980335
  30.3464461  38.2152344 109.2706273  29.6967972  39.0981199 108.2264292
  31.0801528  43.6842656  99.7405871  31.2553283  43.2130699 100.5551494
  30.3934316  44.3108422  99.9687132  32.0358591  37.9615162 105.7869172
  31.7008423  37.9215932 106.6826822  31.5362537  37.2959878 105.3139583
  26.0102835  33.3682792 111.3121754  25.8722633  32.6363031 111.9133293
  26.9207758  33.2791692 111.0305941  34.9717783  35.3071196  96.0606232
  34.3546953  34.5818024  95.9639285  34.5034271  36.0680557  95.7173306
  28.6385135  33.0802751 110.8005433  29.3484754  32.4395943 110.7592052
  28.5954444  33.3315646 111.7231614  36.6271914  40.0170105 113.7212012
  36.5684460  39.3329325 113.0542595  37.0291433  40.7589095 113.2692638
  27.3514069  30.0667969 112.6201073  26.8151426  29.6158708 113.2722669
  26.7630778  30.2013878 111.8771537  25.6462613  46.8332018 106.5145731
  25.8859211  47.4650543 107.1924750  24.8031809  46.4820058 106.8011091
  26.7616328  29.5256621  95.1827536  25.8845795  29.4045421  94.8189783
  27.2374081  28.7342699  94.9306425  36.6289321  37.9809689 111.9525992
  35.7416100  37.6435610 112.0752391  37.1987873  37.2492720 112.1894758
  18.2818469  34.3133780 105.2769044  18.9689508  33.9995510 104.6890059
  18.1266597  35.2175145 105.0036295  23.0853191  29.2023977 109.7054067
  23.0011379  28.5949646 108.9704477  22.2635897  29.6932995 109.7063564
  30.1590475  42.6411141 108.9187235  30.0860646  43.4466112 109.4306540
  29.7167868  42.8403107 108.0935257  29.9480254  41.8782911 102.4290057
  29.1647776  42.4204591 102.5228281  30.6473000  42.3956891 102.8284298
  33.2576905  27.6877540 105.0724262  33.7545604  26.9347503 104.7525333
  32.4863886  27.7241857 104.5067472  41.1106662  33.3917906 106.7142554
  41.0996538  34.2742621 106.3436487  40.2424041  33.0389457 106.5197091
  32.6189158  42.5397975 111.0745394  33.3317131  43.1745440 111.0021295
  32.1279187  42.6361841 110.2585396  34.3406685  36.4449228 102.6462686
  33.4062964  36.5650690 102.4767390  34.5183354  35.5421694 102.3822696
  29.8411873  29.8294923 104.7995947  29.4709661  29.2765964 105.4876852
  30.3370966  29.2253057 104.2470947  37.7279237  32.2866547 103.1812720
  38.1939689  33.1194538 103.1073022  38.1786737  31.8211528 103.8857978
  27.6701072  40.2892418 111.8950965  28.3710531  40.9228901 112.0480359
  27.1996187  40.6307150 111.1346604  35.7955468  38.6310368 100.1798872
  36.0715312  38.5166963 101.0892746  34.9259966  38.2327853 100.1411045
  35.6995899  24.6547134 107.2203621  34.7858979  24.8851361 107.3885828
  36.1289001  24.7385578 108.0717654  35.4702358  32.8437026 109.7203515
  34.8173808  33.0912933 109.0655968  35.8482738  32.0301164 109.3865992
  32.4309532  42.8796719 103.8231685  32.6131926  42.0618375 104.2859438
  33.2542518  43.0964411 103.3856575  32.7651697  41.8064904 101.0846734
  33.2939464  41.2957359 100.4716896  33.0279917  41.4907434 101.9492267
  31.5189931  33.5856837 116.2069552  30.8430568  33.4850966 116.8771927
  32.3417565  33.4296051 116.6705549  23.2668790  39.8228773 108.8282067
  23.8522227  39.0772461 108.9609972  23.0693628  40.1332730 109.7118731
  26.1207445  42.8580021 103.8444510  25.4517820  43.3426148 103.3608550
  25.9820315  43.1049241 104.7587888  17.8586445  32.3934374 107.5486511
  17.8970544  31.8597964 108.3423629  17.3526738  31.8669579 106.9297488
  30.2612714  44.8923764 110.4427168  30.8131022  45.0555386 111.2076253
  30.6018907  45.4828202 109.7707193  25.2377207  27.2398914 111.0449053
  25.3018533  28.1013745 110.6326451  25.1744327  26.6272916 110.3121411
  24.7129480  29.3122047 114.6922087  25.3401518  28.9299124 115.3059612
  23.8557398  29.0936249 115.0577780  35.1123588  39.7185022 116.2975823
  35.6563492  40.3314980 115.8030777  34.5310433  40.2764600 116.8142836
  21.4895022  31.1198476 100.6240442  21.7848463  30.2109154 100.5707496
  20.5883058  31.0986215 100.3021444  33.3981101  42.8405740 107.4290850
  33.2732240  42.0395480 106.9201796  34.0560192  43.3351933 106.9404820
  25.0189269  29.1954472 106.6067991  24.2975855  29.8090440 106.4675464
  25.8082525  29.7312237 106.5284637  35.4616009  40.6414760 109.0570400
  34.5146345  40.5220111 108.9848727  35.8098783  39.7537258 109.1396662
  27.8215583  26.5308899 112.8808642  28.3449985  26.7771195 113.6434952
  27.6027916  27.3628934 112.4611780  23.2182864  28.8012573 100.7479767
  22.8895570  27.9209952 100.5654873  23.5722235  28.7460242 101.6356156
  32.4662443  40.4367476 105.2574753  32.3187405  39.5084184 105.4382323
  33.2915936  40.4587567 104.7731828  26.3324687  29.0885543 101.1155245
  26.6720760  29.6171464 100.3933853  26.7796807  29.4265949 101.8913811
  36.0696565  41.2596035 106.3439625  36.9943112  41.0538896 106.2064077
  35.9011868  41.0112436 107.2528967  29.0268128  27.4722594 110.5658313
  28.6864948  26.6730407 110.9678993  28.3207134  27.7724305 109.9935146
  29.6784600  24.5571906 109.0185636  30.5010669  24.0832385 108.8964526
  29.9222663  25.3362390 109.5184322  28.3192834  27.5860165  99.3148538
  29.0401197  27.9641418  98.8112254  27.6958138  28.3049042  99.4183516
  32.4623957  28.2905314 100.2506870  32.6787571  29.1729952  99.9495698
  31.9818024  27.8991527  99.5212512  27.2023178  31.2491027 106.8277615
  27.0567759  31.5631330 107.7201896  26.7248382  31.8675927 106.2748513
  29.0619561  28.2393575 106.8758504  29.0481130  27.3434668 106.5390802
  29.7791989  28.2464239 107.5096790  30.9145692  28.6730915 108.9211632
  30.6563470  29.5947986 108.9195962  30.3830732  28.2761350 109.6112096
  35.8591881  41.7781702 101.7001717  36.0328758  41.2128125 100.9475569
  36.3520772  42.5782597 101.5181207  21.6768841  33.7896371 109.7665276
  21.1322309  34.5656179 109.8985550  22.5548190  34.1367176 109.6084397
  28.4656457  27.1207955 102.1446074  28.5872368  26.1924601 102.3436962
  28.1758500  27.1346641 101.2324390  31.3347648  24.8062866 105.2812794
  31.3569344  24.8702199 104.3264774  31.7515707  23.9667374 105.4753300
  41.7131272  34.5418125 103.3192017  42.1562418  33.7925450 102.9211140
  40.8357782  34.5328262 102.9365749  36.8467053  41.0948467  98.7998615
  37.5417958  41.7155159  99.0185930  37.1890203  40.2443818  99.0750993
  22.4634862  32.9166268 112.6595433  21.7216598  33.0648903 113.2460063
  22.1427607  33.1774533 111.7962182  38.7458476  38.5448172 100.3285946
  39.2709800  38.8835445  99.6035266  38.6580829  37.6095188 100.1449081
  30.4078525  42.4582246 112.4575823  30.7165652  42.2131393 113.3298522
  31.2054007  42.6628884 111.9694693  30.4299137  44.6120156 104.6881199
  29.9904127  44.1196534 105.3814056  31.1807254  44.0693123 104.4473274
  22.9091476  40.8031696 104.6905827  23.7349496  40.5035468 104.3104471
  22.5585528  40.0339319 105.1395616  27.8773009  40.1558165 106.7603501
  27.2553019  39.4928870 106.4605729  28.5477876  40.1819297 106.0777149
  21.1100081  38.7218023 105.6494761  20.2731989  38.2940197 105.4678762
  21.0823727  38.9150466 106.5865552  27.9497537  28.6339953 116.3536007
  27.9985692  29.5102075 115.9713776  28.4920051  28.0917346 115.7807650
  38.4352382  39.1781076 115.6337144  37.6447926  39.1605215 115.0941643
  38.1985737  39.7169370 116.3886181  38.5550257  36.0273542 112.9469872
  38.6048262  35.8623550 113.8885395  38.4464181  35.1600801 112.5567753
  27.4386516  38.7062088 100.2361961  27.5874637  39.3897552  99.5828634
  28.2452960  38.6867178 100.7511417  35.8454020  32.0104470 114.2629179
  36.7463883  31.8710935 113.9713177  35.9201994  32.1758925 115.2027357
  30.1796825  29.3871325 113.1082365  29.3100135  29.6804891 112.8364954
  30.4156306  29.9711770 113.8289629  40.0568454  38.4470484 113.1911894
  39.7653263  38.8100464 114.0275355  39.4440586  37.7337492 113.0125226
  41.2564137  36.0123364 105.7114464  42.0911028  36.4513168 105.8752025
  41.3923265  35.5362017 104.8922710  38.3055643  33.5703098 111.6591952
  38.7809764  33.7630745 110.8510803  37.3821208  33.6262284 111.4135336
  25.1939149  34.7327266 101.2423030  24.9485191  33.8289596 101.4403240
  25.3635064  34.7344416 100.3002508  32.8835859  25.6050942 110.6247786
  33.4017803  26.3411969 110.2994274  32.5290992  25.9114935 111.4594545
  24.4634797  30.4655623  98.7409192  23.7704042  30.5399978  98.0849228
  24.2186549  29.7015967  99.2630709  33.1348453  22.0251225 106.1448682
  33.4150207  21.3574414 106.7709109  33.9199060  22.2180320 105.6323346
  30.9381922  41.2010218  97.7073709  30.3655889  41.8200406  97.2544181
  31.5114715  41.7509580  98.2413631  37.0057312  30.4468859 109.8920258
  37.9574734  30.5466956 109.9132482  36.8360762  29.6547127 110.4018342
  35.0271691  27.5324442 110.0779659  34.4321623  27.8129454 109.3826147
  34.7421388  28.0218343 110.8496400  34.1579181  41.4847369  98.8382291
  35.0909855  41.4192930  99.0415167  34.0702394  42.3203635  98.3796824
  36.7867198  40.8013239  95.7986239  36.7080830  40.4673102  96.6921997
  37.6076865  41.2935007  95.7977711  39.4845389  33.6674978 109.0062557
  39.4521709  32.7290979 109.1922241  40.0946013  33.7459015 108.2728382
  31.3228720  32.5371031  95.0489761  32.2687825  32.4077239  95.1178179
  30.9442965  31.7985693  95.5259189  39.6339878  30.4586022 109.0520840
  39.1178926  29.6744478 108.8650769  40.5179826  30.1304738 109.2167360
  37.2950605  24.2027037 105.0116653  37.0975426  23.8942125 105.8959985
  37.9050310  24.9288676 105.1414583  45.3021939  34.7290985 108.1468594
  46.0325328  34.4676273 108.7076297  44.6928885  33.9919707 108.1870662
  43.3837236  32.8698848 108.7443045  42.6570400  32.7354813 108.1359537
  42.9684523  33.1775676 109.5499763  31.2067413  36.5888777 116.5090418
  32.1270422  36.7667376 116.7030465  31.1716996  35.6444823 116.3570118
  29.5071637  30.4621008  94.9844647  28.6003093  30.1654120  95.0607360
  29.7847618  30.1650826  94.1178933  20.4249578  31.7827371 105.4343693
  20.1052362  30.9292679 105.1418067  19.8783006  31.9975949 106.1901660
  24.2029485  34.4989812 109.1513199  24.4215495  35.4306920 109.1701233
  24.6155259  34.1397786 109.9368003  31.1233703  25.0057897 101.1388888
  30.3134431  24.6604982 101.5144134  31.8118120  24.6965441 101.7276499
  33.0524251  24.0835944 102.7613184  33.6055290  24.5031397 103.4203208
  33.2894338  23.1571692 102.8036140  29.0757351  30.0723018 118.5415948
  28.9754078  31.0217375 118.4728039  28.8578893  29.7441257 117.6692018
  28.2770422  27.3207943  95.1256626  29.1389586  27.6462841  95.3852443
  28.4620766  26.5339439  94.6129692  20.2937838  35.4030282 107.4036814
  19.6001309  34.9884235 106.8906769  21.0410829  35.4450819 106.8070233
  36.4303058  26.1936469 102.2691849  35.8501728  26.8521273 101.8869901
  36.1638991  25.3713814 101.8579266  34.8806625  25.5941527 104.4713169
  35.3806403  25.7058061 103.6627488  35.5242233  25.2902580 105.1113977
  28.9388621  33.5020157 117.3581010  28.4555702  34.3020517 117.5644899
  29.0249560  33.5128101 116.4048454  22.2074580  35.3348536 105.2802829
  22.1845268  35.4336224 104.3284712  22.5175217  36.1813687 105.6019996
  24.8661958  37.3924691 109.3949444  25.8205212  37.3608634 109.3279375
  24.6674482  36.9315315 110.2099670  25.4561340  35.9625807 111.9620241
  26.2754229  36.4569886 111.9855079  25.7298148  35.0457775 111.9337809
  35.2127936  28.3536560 101.3248197  34.3253792  28.6386210 101.1068392
  35.6281926  28.1930323 100.4775474  38.5642473  28.3783081 105.0402536
  39.3402863  28.8679533 105.3127153  37.8390607  28.8041135 105.4974406
  41.0015031  29.0910700 106.0976477  41.5959522  28.8506436 105.3869785
  41.0741615  28.3717830 106.7250013  23.2212187  42.9344311 106.4119642
  23.0866655  42.1744712 105.8457640  22.8044249  43.6585211 105.9448431
  34.3571150  38.1181234  95.4196217  35.0607000  38.3231237  96.0353873
  33.6333799  38.6857996  95.6845300  35.1868960  33.8691096 101.5398487
  35.1304162  34.3259647 100.7006120  35.7397303  33.1081780 101.3621330
  38.9973766  29.6580827 102.3648607  38.7410700  29.2577463 103.1956814
  38.3726634  30.3724621 102.2398746  43.3086104  32.3976901 104.8719898
  42.7485662  32.4670090 105.6451460  42.7029607  32.2217885 104.1519394
  26.3781313  43.8313628 106.6238084  26.2613697  44.7759060 106.5216775
  25.5573759  43.5287189 107.0123884  36.2657847  38.5563763  97.4694677
  37.1003451  38.1244962  97.2872152  36.1042190  38.3845777  98.3971571
  35.9203740  35.0595877  98.8351016  35.8652543  34.8940148  97.8939460
  35.2949795  35.7671910  98.9913206  20.7096255  30.2963941 112.6612439
  21.3555118  29.7862895 113.1499664  20.5013406  31.0332623 113.2355864
  33.2349647  37.3644789 118.1604579  34.1040806  37.5385441 117.7991214
  32.7556398  38.1839205 118.0380308  29.2299865  24.5603986  98.4136335
  29.2178535  25.5045826  98.5704606  30.1223287  24.3774131  98.1195796
  27.4035827  44.4841890 109.8394013  28.3063074  44.5165500 110.1560508
  27.1773197  43.5542341 109.8540349  29.1589429  43.2372876 106.5004091
  28.2085060  43.2374738 106.3868464  29.4621915  42.4905611 105.9840126
  33.0451984  21.1546762 102.6682272  32.2784380  20.6005249 102.8138954
  33.4562689  21.2268631 103.5296423  25.0493746  27.4431558 116.7587453
  25.9125207  27.0868363 116.9690777  24.4759156  27.1045453 117.4462857
  44.8942122  49.0733415 107.5649854  45.5320532  48.9540162 106.8613194
  44.7762965  50.0214259 107.6237806  41.7031829  49.0260843 107.5011378
  41.3650340  48.9101907 106.6131913  42.5721597  48.6252008 107.4812385
  37.5618644  50.8796319 103.4908269  36.9983510  50.7886256 102.7224557
  37.4471039  50.0596224 103.9710762  42.1851612  50.1795694 113.4597584
  42.1740252  49.7848493 112.5878088  42.3472251  49.4461767 114.0531355
  35.1083076  52.3747511 106.3292490  35.9004368  52.0338335 105.9138789
  35.3479727  52.4842486 107.2494643  43.1418203  54.5467287  98.8022734
  42.4906183  55.1321367  98.4156748  43.9362566  55.0773482  98.8617772
  37.0673830  51.6356424  99.2009869  37.8404706  51.0885411  99.0622744
  37.4199229  52.5000673  99.4124330  38.9058873  52.9632806 112.4076768
  38.6148739  53.8678437 112.2923434  39.5415857  53.0049334 113.1220838
  39.8315080  50.3409655 108.9978128  40.4278652  50.1165677 108.2835091
  39.8890051  49.5994400 109.6003575  39.4040108  47.7949090  96.8328319
  39.6565629  47.2730611  96.0711782  38.4664667  47.6315236  96.9355002
  44.4483391  46.7984868 104.6403062  45.2346480  46.3804292 104.2893479
  44.7122095  47.7030961 104.8084710  44.6193468  52.2357719  99.3391719
  43.9839301  52.3092345 100.0512623  44.2890875  52.8251318  98.6610798
  49.8491818  46.7360102 105.5436040  50.5816990  46.1659318 105.7773870
  49.0931174  46.3481702 105.9842546  39.1236397  49.6977196  99.0352694
  39.0072655  49.0222099  99.7033778  39.2338657  49.2109570  98.2184847
  41.4667938  49.1587343 102.7399383  41.1026145  48.6317964 103.4512304
  42.3235054  48.7685812 102.5665868  47.3717238  40.4481676 110.0030649
  47.0400563  41.3177087 109.7791864  46.7762852  40.1317960 110.6824679
  41.1073425  44.1877243  97.7360731  41.2747827  45.0557479  98.1031202
  40.9170594  44.3504525  96.8122021  43.8648758  52.6494222 109.4026562
  43.5649481  53.5519261 109.2942369  43.5199817  52.3826405 110.2547715
  37.3161239  49.1008019 105.4363266  36.3911736  48.9684233 105.6440958
  37.5645653  49.8802238 105.9333208  47.2645902  45.1676762 107.0823999
  46.3562779  45.0992170 106.7882760  47.2133498  45.6448707 107.9105824
  41.0862646  46.6434900  98.7207398  40.9662271  47.0891951  99.5592878
  40.3915234  46.9920218  98.1620936  34.6770050  48.7441292 106.2707055
  34.8062432  48.9975771 107.1846467  33.9967502  49.3369000 105.9511710
  38.8469538  59.4138542 102.3697529  38.7693567  60.3646367 102.4486010
  38.2431181  59.0684415 103.0272456  41.3386768  46.5866408 115.0258896
  40.5620102  47.1460328 115.0161761  41.9777331  47.0723191 115.5473766
  49.1307548  43.3693200 108.8601873  48.4881928  43.6625733 108.2141667
  48.6262477  43.2546121 109.6655070  46.7847712  47.1156374  99.5487732
  47.6965568  47.3483760  99.3735430  46.2757359  47.6993418  98.9862811
  39.5933140  49.3951861 114.5876863  40.3347824  49.9336905 114.3111687
  38.8870125  50.0218150 114.7448415  45.0688479  51.5381001 113.1849025
  45.4771835  51.0963412 112.4403657  44.3465741  50.9633629 113.4383218
  41.4219550  46.4753608 110.5582582  42.2680745  46.8993022 110.7017231
  41.3618187  45.8187232 111.2521145  45.3917294  52.0982192 106.9401314
  44.7626157  52.2627906 106.2377381  45.0042956  52.5123802 107.7112278
  49.2706526  53.0336630 104.2945677  48.5857564  53.4135531 103.7442711
  49.3550375  53.6431956 105.0277625  44.5718995  44.1357976 112.2163755
  44.3279927  44.8900037 111.6798031  44.8478925  44.5143324 113.0511002
  46.5257458  50.6796589 110.8941021  46.7374353  51.3228349 110.2175402
  46.4787206  49.8458905 110.4262951  44.1283687  43.2914409 107.7977593
  43.2668166  43.5895663 108.0894331  44.1546121  43.5084808 106.8658626
  40.9445256  51.8356600 104.2051399  41.4083602  52.1144303 103.4156021
  40.6802054  50.9340045 104.0224489  37.8369337  51.3828082 107.1431162
  38.4070694  51.8115350 106.5048646  38.4277449  51.1010666 107.8415348
  39.8814142  47.9579752 101.0140964  40.5838185  48.4100796 101.4814890
  39.5494771  47.3163571 101.6420857  38.3294504  46.5491509 115.3892173
  37.6993164  47.2307790 115.6227570  38.2230591  46.4374591 114.4445311
  33.6239476  46.2163305 106.3158097  32.8338530  46.4720834 105.8398208
  34.1150723  47.0311643 106.4210138  47.6403286  53.5568544 109.0663378
  48.4620729  53.1548732 108.7846060  47.6365688  53.4536778 110.0179494
  35.5754221  46.5807884 103.2741574  34.7785385  46.6926579 103.7925070
  35.3479814  46.9194537 102.4082465  41.4059889  53.1052588 111.2224089
  41.4704322  53.5672995 112.0582261  40.6970813  52.4749952 111.3506399
  31.9077179  46.4693796 108.7473088  32.1585217  47.3540805 109.0130664
  32.4436727  46.2898397 107.9748180  55.7309279  49.9007293 105.4148350
  54.9772987  49.3314691 105.2592354  55.8656820  49.8669957 106.3618984
  41.1207907  54.7720695 101.0903069  40.9853581  55.6172231 101.5187917
  41.6617719  54.9739973 100.3269003  37.6075246  40.8512275 117.7517424
  37.2142192  40.2978473 118.4265069  38.4241387  41.1622853 118.1423942
  34.5737304  52.2896133 101.6630994  35.0861825  53.0839383 101.8136559
  35.2260017  51.5922424 101.5964596  36.3832189  55.4061889 103.7453747
  36.5598817  56.3279854 103.5574731  37.1789022  55.0920309 104.1748127
  40.5243207  42.2670154 115.3437681  41.2652921  42.8677307 115.2642143
  40.7561130  41.5247792 114.7855723  35.6684545  47.4526521 113.6215911
  35.5538060  46.5511778 113.9223009  34.8129063  47.6990218 113.2700727
  42.7476383  55.3944262 115.2203411  42.3040237  54.6080640 114.9024316
  43.4093597  55.5823412 114.5547302  37.5063504  56.9240063 109.7464090
  38.0570929  56.7957127 108.9741084  36.6674980  57.2234952 109.3958982
  44.8457621  55.6747061 113.2484812  44.8276096  56.4955943 112.7565082
  45.7677541  55.5501137 113.4734954  41.3030675  53.1891191 114.0908321
  41.8359012  52.4279479 113.8607629  40.7744756  52.8964843 114.8332475
  44.4700370  38.2951257 109.6201963  44.1264640  39.1852899 109.5441073
  44.8379333  38.1052915 108.7571548  32.5386221  50.6184787 102.4390565
  33.3761443  51.0281796 102.2224272  32.7164489  49.6784230 102.4090759
  44.4350653  48.2859868  98.1274398  43.9197276  49.0564473  98.3662785
  44.1627961  47.6125004  98.7507459  42.0197764  43.1309569 103.1859636
  41.1639360  42.7416419 103.0065275  42.4324716  43.2101530 102.3259422
  43.5496911  40.6655912 107.5851196  43.0461706  40.6286047 106.7719001
  43.8427517  41.5748655 107.6447852  39.7939797  40.7494642 106.5917378
  40.6592793  40.5537450 106.2323267  39.8617305  40.5204994 107.5186734
  49.4084927  51.0392223 100.0627571  48.6314370  50.7003382  99.6182733
  50.0876408  51.0444846  99.3882536  44.2236956  46.1586960  99.9534179
  43.9187092  46.4733109 100.8044322  45.1767398  46.2368380  99.9961512
  42.6683388  52.3177183 101.6027133  42.1404750  51.5829943 101.2900370
  42.1670891  53.0951860 101.3567101  47.6476234  50.5126204 106.7194179
  46.9899908  51.2025465 106.8074308  48.4516633  50.9022636 107.0628165
  37.4002116  42.9796850 103.9633744  37.9745867  42.7572031 103.2306937
  37.9873098  43.0485544 104.7162346  46.4581693  48.8670577 104.7698121
  46.9713575  49.5000568 105.2719831  47.1082917  48.2671772 104.4041481
  37.7271703  45.0101311  97.9829630  36.8909015  45.3475997  98.3038904
  37.5876472  44.8750291  97.0456767  39.7024783  39.8538099 102.6908814
  39.0489196  39.5387116 102.0665429  39.6605257  39.2313839 103.4168637
  42.9362524  46.3420032 107.0156461  42.0185085  46.5634979 106.8578149
  43.3522667  46.4166343 106.1568169  43.7197571  47.7411448 102.1459142
  44.4669390  48.2532845 101.8366264  43.9889161  47.4195501 103.0063535
  41.9924222  50.2369989  99.1286096  41.0835441  49.9529021  99.2258566
  42.0219305  50.6569067  98.2689403  47.2243489  53.8476578 102.8977263
  46.7705816  53.0067488 102.9542454  46.5937456  54.4837976 103.2352044
  46.1676409  44.7768564 104.1277931  45.4299165  44.2645950 104.4588174
  46.4203182  44.3368946 103.3161208  45.6676428  55.6853075 103.8327082
  45.9599403  56.2458132 103.1139447  46.1775049  55.9781636 104.5880241
  46.2688036  37.5544816 104.7219700  46.5746913  36.6942180 104.4345615
  46.9940641  38.1462436 104.5218694  32.5612392  47.9575503 103.1101298
  32.3636792  47.3644863 102.3852365  32.0059056  47.6527713 103.8277237
  40.5409116  47.8498609 105.2295891  40.5957725  46.8972446 105.1538368
  39.7300318  48.0058048 105.7137190  38.4801476  46.4675669 102.9886270
  37.6669341  46.7669839 103.3951462  38.9760470  46.0731358 103.7060752
  40.6310053  56.4633426 104.9220535  40.5886232  56.6894272 103.9929067
  41.5472752  56.2296800 105.0706336  44.0775687  46.9317493 111.8201164
  44.4325075  47.1588967 112.6795630  44.7247818  47.2635870 111.1978419
  49.8073424  50.0535929 102.5250493  49.6691323  50.2437525 101.5971682
  49.4509643  50.8155312 102.9818544  37.9715550  44.0394024 108.6047505
  38.6114930  43.8982784 107.9070468  37.1393081  43.7528538 108.2286107
  49.8342804  52.1212456 107.5361765  50.2679310  52.0287745 108.3844819
  50.5474384  52.0969957 106.8981781  38.7475854  53.3396455 104.7182498
  39.5416453  52.8446775 104.5165073  38.0367547  52.8114318 104.3550203
  43.5670699  55.7214550 109.0694865  43.6207721  56.2905487 109.8372581
  42.6985480  55.8916435 108.7048902  35.0558618  47.4839537 100.7942250
  34.1256206  47.4223992 101.0112212  35.1516090  46.9615489  99.9978892
  34.9744167  44.0094349 103.3820492  35.2350984  44.9239683 103.2729652
  35.7961339  43.5418792 103.5317105  36.4469092  45.4232107 110.5519316
  37.1192145  45.2149469 109.9031965  35.6198879  45.2254193 110.1124549
  50.6958353  52.1636157 110.0694650  50.8894243  53.0681967 110.3153925
  50.5958972  51.7043576 110.9033235  42.3494664  42.0494048 112.5684977
  41.7022579  42.7483997 112.4749454  43.1195679  42.4830191 112.9361226
  45.7573462  52.3142900 115.6435531  45.6058968  52.0853451 114.7265614
  45.7478141  53.2713501 115.6566876  42.5258798  49.8874812 110.6281797
  43.4550858  50.0385972 110.4550764  42.1049828  49.9758833 109.7730444
  41.3247130  53.9125477 108.3980335  41.1858216  53.5444261 109.2706273
  40.5361726  54.4273116 108.2264292  41.9195282  59.0134573  99.7405871
  42.0947038  58.5422617 100.5551494  41.2328070  59.6400340  99.9687132
  42.8752345  53.2907080 105.7869172  42.5402178  53.2507850 106.6826822
  42.3756291  52.6251795 105.3139583  36.8496589  48.6974710 111.3121754
  36.7116387  47.9654948 111.9133293  37.7601513  48.6083610 111.0305941
  45.8111537  50.6363114  96.0606232  45.1940708  49.9109942  95.9639285
  45.3428025  51.3972474  95.7173306  39.4778890  48.4094669 110.8005433
  40.1878509  47.7687861 110.7592052  39.4348198  48.6607564 111.7231614
  47.4665669  55.3462022 113.7212012  47.4078215  54.6621242 113.0542595
  47.8685187  56.0881012 113.2692638  38.1907824  45.3959887 112.6201073
  37.6545181  44.9450625 113.2722669  37.6024532  45.5305796 111.8771537
  36.4856367  62.1623936 106.5145731  36.7252966  62.7942460 107.1924750
  35.6425564  61.8111976 106.8011091  37.6010083  44.8548538  95.1827536
  36.7239549  44.7337339  94.8189783  38.0767836  44.0634617  94.9306425
  47.4683076  53.3101606 111.9525992  46.5809855  52.9727528 112.0752391
  48.0381627  52.5784637 112.1894758  29.1212223  49.6425698 105.2769044
  29.8083263  49.3287428 104.6890059  28.9660352  50.5467063 105.0036295
  33.9246945  44.5315894 109.7054067  33.8405134  43.9241564 108.9704477
  33.1029652  45.0224913 109.7063564  40.9984229  57.9703059 108.9187235
  40.9254401  58.7758030 109.4306540  40.5561622  58.1695024 108.0935257
  40.7874009  57.2074829 102.4290057  40.0041531  57.7496509 102.5228281
  41.4866754  57.7248808 102.8284298  44.0970659  43.0169458 105.0724262
  44.5939359  42.2639420 104.7525333  43.3257641  43.0533775 104.5067472
  51.9500416  48.7209824 106.7142554  51.9390293  49.6034539 106.3436487
  51.0817796  48.3681374 106.5197091  43.4582913  57.8689893 111.0745394
  44.1710885  58.5037357 111.0021295  42.9672941  57.9653759 110.2585396
  45.1800440  51.7741145 102.6462686  44.2456718  51.8942608 102.4767390
  45.3577108  50.8713612 102.3822696  40.6805628  45.1586841 104.7995947
  40.3103415  44.6057881 105.4876852  41.1764720  44.5544974 104.2470947
  48.5672991  47.6158465 103.1812720  49.0333443  48.4486456 103.1073022
  49.0180492  47.1503446 103.8857978  38.5094826  55.6184336 111.8950965
  39.2104286  56.2520819 112.0480359  38.0389941  55.9599068 111.1346604
  46.6349222  53.9602286 100.1798872  46.9109066  53.8458880 101.0892746
  45.7653721  53.5619771 100.1411045  46.5389654  39.9839052 107.2203621
  45.6252734  40.2143278 107.3885828  46.9682755  40.0677496 108.0717654
  46.3096112  48.1728943 109.7203515  45.6567563  48.4204851 109.0655968
  46.6876492  47.3593082 109.3865992  43.2703286  58.2088637 103.8231685
  43.4525681  57.3910293 104.2859438  44.0936272  58.4256329 103.3856575
  43.6045452  57.1356822 101.0846734  44.1333218  56.6249276 100.4716896
  43.8673671  56.8199352 101.9492267  42.3583685  48.9148755 116.2069552
  41.6824322  48.8142884 116.8771927  43.1811319  48.7587968 116.6705549
  34.1062544  55.1520691 108.8282067  34.6915981  54.4064379 108.9609972
  33.9087383  55.4624648 109.7118731  36.9601200  58.1871938 103.8444510
  36.2911575  58.6718066 103.3608550  36.8214069  58.4341159 104.7587888
  28.6980199  47.7226291 107.5486511  28.7364299  47.1889882 108.3423629
  28.1920492  47.1961497 106.9297488  41.1006468  60.2215682 110.4427168
  41.6524776  60.3847303 111.2076253  41.4412662  60.8120120 109.7707193
  36.0770961  42.5690832 111.0449053  36.1412288  43.4305663 110.6326451
  36.0138082  41.9564833 110.3121411  35.5523234  44.6413964 114.6922087
  36.1795273  44.2591042 115.3059612  34.6951153  44.4228166 115.0577780
  45.9517343  55.0476940 116.2975823  46.4957247  55.6606898 115.8030777
  45.3704187  55.6056518 116.8142836  32.3288777  46.4490393 100.6240442
  32.6242218  45.5401072 100.5707496  31.4276813  46.4278133 100.3021444
  44.2374856  58.1697658 107.4290850  44.1125995  57.3687397 106.9201796
  44.8953947  58.6643851 106.9404820  35.8583024  44.5246390 106.6067991
  35.1369610  45.1382358 106.4675464  36.6476280  45.0604155 106.5284637
  46.3009764  55.9706678 109.0570400  45.3540099  55.8512029 108.9848727
  46.6492537  55.0829176 109.1396662  38.6609337  41.8600817 112.8808642
  39.1843739  42.1063113 113.6434952  38.4421671  42.6920851 112.4611780
  34.0576618  44.1304491 100.7479767  33.7289324  43.2501870 100.5654873
  34.4115989  44.0752160 101.6356156  43.3056197  55.7659394 105.2574753
  43.1581160  54.8376101 105.4382323  44.1309691  55.7879485 104.7731828
  37.1718442  44.4177461 101.1155245  37.5114514  44.9463382 100.3933853
  37.6190562  44.7557867 101.8913811  46.9090319  56.5887953 106.3439625
  47.8336867  56.3830814 106.2064077  46.7405622  56.3404354 107.2528967
  39.8661882  42.8014512 110.5658313  39.5258703  42.0022325 110.9678993
  39.1600889  43.1016222 109.9935146  40.5178354  39.8863824 109.0185636
  41.3404423  39.4124302 108.8964526  40.7616418  40.6654308 109.5184322
  39.1586589  42.9152082  99.3148538  39.8794951  43.2933335  98.8112254
  38.5351893  43.6340959  99.4183516  43.3017712  43.6197231 100.2506870
  43.5181326  44.5021869  99.9495698  42.8211779  43.2283445  99.5212512
  38.0416933  46.5782945 106.8277615  37.8961514  46.8923248 107.7201896
  37.5642137  47.1967845 106.2748513  39.9013316  43.5685493 106.8758504
  39.8874885  42.6726586 106.5390802  40.6185744  43.5756156 107.5096790
  41.7539447  44.0022833 108.9211632  41.4957224  44.9239904 108.9195962
  41.2224487  43.6053267 109.6112096  46.6985635  57.1073620 101.7001717
  46.8722513  56.5420042 100.9475569  47.1914526  57.9074515 101.5181207
  32.5162595  49.1188289 109.7665276  31.9716063  49.8948097 109.8985550
  33.3941945  49.4659094 109.6084397  39.3050212  42.4499873 102.1446074
  39.4266123  41.5216519 102.3436962  39.0152254  42.4638559 101.2324390
  42.1741402  40.1354783 105.2812794  42.1963099  40.1994116 104.3264774
  42.5909461  39.2959292 105.4753300  52.5525026  49.8710043 103.3192017
  52.9956172  49.1217368 102.9211140  51.6751537  49.8620179 102.9365749
  47.6860808  56.4240384  98.7998615  48.3811712  57.0447077  99.0185930
  48.0283958  55.5735736  99.0750993  33.3028617  48.2458185 112.6595433
  32.5610353  48.3940821 113.2460063  32.9821361  48.5066451 111.7962182
  41.2472280  57.7874164 112.4575823  41.5559406  57.5423310 113.3298522
  42.0447762  57.9920802 111.9694693  41.2692892  59.9412073 104.6881199
  40.8297882  59.4488452 105.3814056  42.0201009  59.3985041 104.4473274
  33.7485231  56.1323614 104.6905827  34.5743251  55.8327386 104.3104471
  33.3979283  55.3631237 105.1395616  38.7166764  55.4850082 106.7603501
  38.0946773  54.8220787 106.4605729  39.3871631  55.5111214 106.0777149
  31.9493836  54.0509941 105.6494761  31.1125744  53.6232115 105.4678762
  31.9217481  54.2442384 106.5865552  38.7891291  43.9631870 116.3536007
  38.8379447  44.8393993 115.9713776  39.3313805  43.4209263 115.7807650
  49.2746137  54.5072994 115.6337144  48.4841681  54.4897132 115.0941643
  49.0379492  55.0461287 116.3886181  49.3944012  51.3565460 112.9469872
  49.4442017  51.1915467 113.8885395  49.2857935  50.4892719 112.5567753
  38.2780271  54.0354006 100.2361961  38.4268391  54.7189470  99.5828634
  39.0846714  54.0159096 100.7511417  46.6847774  47.3396388 114.2629179
  47.5857637  47.2002853 113.9713177  46.7595749  47.5050843 115.2027357
  41.0190580  44.7163243 113.1082365  40.1493889  45.0096809 112.8364954
  41.2550060  45.3003688 113.8289629  50.8962209  53.7762401 113.1911894
  50.6047017  54.1392382 114.0275355  50.2834340  53.0629410 113.0125226
  52.0957891  51.3415281 105.7114464  52.9304783  51.7805085 105.8752025
  52.2317020  50.8653934 104.8922710  49.1449397  48.8995016 111.6591952
  49.6203519  49.0922662 110.8510803  48.2214962  48.9554202 111.4135336
  36.0332904  50.0619183 101.2423030  35.7878946  49.1581513 101.4403240
  36.2028818  50.0636334 100.3002508  43.7229614  40.9342860 110.6247786
  44.2411557  41.6703887 110.2994274  43.3684746  41.2406853 111.4594545
  35.3028551  45.7947541  98.7409192  34.6097796  45.8691896  98.0849228
  35.0580303  45.0307884  99.2630709  43.9742208  37.3543142 106.1448682
  44.2543961  36.6866331 106.7709109  44.7592815  37.5472238 105.6323346
  41.7775676  56.5302136  97.7073709  41.2049643  57.1492323  97.2544181
  42.3508470  57.0801498  98.2413631  47.8451066  45.7760776 109.8920258
  48.7968489  45.8758874 109.9132482  47.6754516  44.9839045 110.4018342
  45.8665446  42.8616359 110.0779659  45.2715378  43.1421372 109.3826147
  45.5815142  43.3510260 110.8496400  44.9972936  56.8139286  98.8382291
  45.9303609  56.7484848  99.0415167  44.9096149  57.6495553  98.3796824
  50.3239144  48.9966896 109.0062557  50.2915464  48.0582897 109.1922241
  50.9339767  49.0750933 108.2728382  42.1622475  47.8662949  95.0489761
  43.1081579  47.7369157  95.1178179  41.7836720  47.1277611  95.5259189
  50.4733632  45.7877939 109.0520840  49.9572681  45.0036396 108.8650769
  51.3573581  45.4596656 109.2167360  48.1344359  39.5318955 105.0116653
  47.9369180  39.2234043 105.8959985  48.7444065  40.2580594 105.1414583
  54.2230991  48.1990765 108.7443045  53.4964154  48.0646730 108.1359537
  53.8078278  48.5067594 109.5499763  42.0461167  51.9180695 116.5090418
  42.9664177  52.0959294 116.7030465  42.0110750  50.9736740 116.3570118
  40.3465392  45.7912925  94.9844647  39.4396847  45.4946038  95.0607360
  40.6241373  45.4942743  94.1178933  31.2643332  47.1119289 105.4343693
  30.9446117  46.2584597 105.1418067  30.7176760  47.3267867 106.1901660
  35.0423240  49.8281730 109.1513199  35.2609250  50.7598837 109.1701233
  35.4549014  49.4689704 109.9368003  41.9627458  40.3349815 101.1388888
  41.1528186  39.9896900 101.5144134  42.6511875  40.0257359 101.7276499
  43.8918006  39.4127862 102.7613184  44.4449044  39.8323315 103.4203208
  44.1288092  38.4863610 102.8036140  39.9151105  45.4014935 118.5415948
  39.8147832  46.3509292 118.4728039  39.6972647  45.0733174 117.6692018
  39.1164176  42.6499860  95.1256626  39.9783340  42.9754759  95.3852443
  39.3014521  41.8631356  94.6129692  31.1331592  50.7322200 107.4036814
  30.4395064  50.3176153 106.8906769  31.8804583  50.7742737 106.8070233
  47.2696813  41.5228387 102.2691849  46.6895482  42.1813191 101.8869901
  47.0032746  40.7005732 101.8579266  45.7200379  40.9233445 104.4713169
  46.2200158  41.0349979 103.6627488  46.3635987  40.6194497 105.1113977
  39.7782375  48.8312074 117.3581010  39.2949457  49.6312434 117.5644899
  39.8643314  48.8420019 116.4048454  33.0468335  50.6640454 105.2802829
  33.0239023  50.7628141 104.3284712  33.3568971  51.5105605 105.6019996
  35.7055713  52.7216609 109.3949444  36.6598966  52.6900551 109.3279375
  35.5068236  52.2607233 110.2099670  36.2955095  51.2917725 111.9620241
  37.1147984  51.7861804 111.9855079  36.5691902  50.3749693 111.9337809
  46.0521691  43.6828477 101.3248197  45.1647546  43.9678128 101.1068392
  46.4675680  43.5222241 100.4775474  49.4036227  43.7074998 105.0402536
  50.1796617  44.1971451 105.3127153  48.6784361  44.1333052 105.4974406
  51.8408786  44.4202617 106.0976477  52.4353277  44.1798353 105.3869785
  51.9135369  43.7009748 106.7250013  34.0605941  58.2636228 106.4119642
  33.9260409  57.5036629 105.8457640  33.6438004  58.9877128 105.9448431
  46.0262715  49.1983013 101.5398487  45.9697916  49.6551565 100.7006120
  46.5791057  48.4373698 101.3621330  49.8367521  44.9872745 102.3648607
  49.5804455  44.5869381 103.1956814  49.2120389  45.7016539 102.2398746
  54.1479858  47.7268818 104.8719898  53.5879416  47.7962008 105.6451460
  53.5423362  47.5509803 104.1519394  37.2175067  59.1605545 106.6238084
  37.1007451  60.1050978 106.5216775  36.3967514  58.8579107 107.0123884
  47.1051602  53.8855681  97.4694677  47.9397206  53.4536880  97.2872152
  46.9435945  53.7137695  98.3971571  46.7597494  50.3887794  98.8351016
  46.7046298  50.2232066  97.8939460  46.1343549  51.0963827  98.9913206
  31.5490009  45.6255859 112.6612439  32.1948873  45.1154813 113.1499664
  31.3407160  46.3624540 113.2355864  44.0743401  52.6936706 118.1604579
  44.9434561  52.8677359 117.7991214  43.5950153  53.5131123 118.0380308
  40.0693619  39.8895903  98.4136335  40.0572289  40.8337743  98.5704606
  40.9617041  39.7066049  98.1195796  38.2429581  59.8133807 109.8394013
  39.1456828  59.8457418 110.1560508  38.0166951  58.8834258 109.8540349
  39.9983183  58.5664794 106.5004091  39.0478814  58.5666655 106.3868464
  40.3015670  57.8197528 105.9840126  43.8845739  36.4838680 102.6682272
  43.1178135  35.9297167 102.8138954  44.2956444  36.5560549 103.5296423
  35.8887500  42.7723476 116.7587453  36.7518962  42.4160281 116.9690777
  35.3152911  42.4337371 117.4462857  49.7452627  68.2924724 112.4076768
  49.4542493  69.1970355 112.2923434  50.3809612  68.3341252 113.1220838
  45.5163805  64.0733210 106.2707055  45.6456186  64.3267689 107.1846467
  44.8361256  64.6660918 105.9511710  49.6863292  74.7430460 102.3697529
  49.6087322  75.6938285 102.4486010  49.0824936  74.3976332 103.0272456
  52.1780522  61.9158325 115.0258896  51.4013856  62.4752245 115.0161761
  52.8171085  62.4015108 115.5473766  50.4326894  64.7243779 114.5876863
  51.1741579  65.2628823 114.3111687  49.7263880  65.3510067 114.7448415
  55.4112749  59.4649894 112.2163755  55.1673681  60.2191955 111.6798031
  55.6872680  59.8435242 113.0511002  49.1688258  61.8783427 115.3892173
  48.5386919  62.5599708 115.6227570  49.0624346  61.7666508 114.4445311
  44.4633230  61.5455223 106.3158097  43.6732284  61.8012751 105.8398208
  44.9544478  62.3603561 106.4210138  42.7470933  61.7985713 108.7473088
  42.9978972  62.6832723 109.0130664  43.2830482  61.6190315 107.9748180
  48.4469001  56.1804193 117.7517424  48.0535946  55.6270391 118.4265069
  49.2635141  56.4914771 118.1423942  51.3636962  57.5962072 115.3437681
  52.1046675  58.1969225 115.2642143  51.5954885  56.8539709 114.7855723
  46.5078300  62.7818439 113.6215911  46.3931815  61.8803696 113.9223009
  45.6522818  63.0282136 113.2700727  53.5870138  70.7236179 115.2203411
  53.1433992  69.9372558 114.9024316  54.2487351  70.9115330 114.5547302
  55.6851376  71.0038979 113.2484812  55.6669851  71.8247860 112.7565082
  56.6071296  70.8793054 113.4734954  52.1424430  68.5183109 114.0908321
  52.6752767  67.7571397 113.8607629  51.6138511  68.2256760 114.8332475
  50.6333551  56.0786559 106.5917378  51.4986548  55.8829368 106.2323267
  50.7011060  55.8496911 107.5186734  48.2395870  58.3088767 103.9633744
  48.8139622  58.0863949 103.2306937  48.8266853  58.3777462 104.7162346
  50.5418538  55.1830016 102.6908814  49.8882950  54.8679033 102.0665429
  50.4999012  54.5605757 103.4168637  43.4006146  63.2867420 103.1101298
  43.2030546  62.6936781 102.3852365  42.8452810  62.9819631 103.8277237
  51.4703808  71.7925344 104.9220535  51.4279987  72.0186190 103.9929067
  52.3866507  71.5588718 105.0706336  48.8109305  59.3685942 108.6047505
  49.4508684  59.2274701 107.9070468  47.9786835  59.0820456 108.2286107
  45.8952372  62.8131454 100.7942250  44.9649960  62.7515910 101.0112212
  45.9909844  62.2907407  99.9978892  45.8137921  59.3386267 103.3820492
  46.0744739  60.2531600 103.2729652  46.6355094  58.8710710 103.5317105
  47.2862847  60.7524024 110.5519316  47.9585900  60.5441386 109.9031965
  46.4592633  60.5546110 110.1124549  53.1888419  57.3785965 112.5684977
  52.5416334  58.0775915 112.4749454  53.9589434  57.8122109 112.9361226
  47.6890344  64.0266627 111.3121754  47.5510142  63.2946866 111.9133293
  48.5995267  63.9375527 111.0305941  50.3172644  63.7386587 110.8005433
  51.0272263  63.0979779 110.7592052  50.2741953  63.9899481 111.7231614
  58.3059423  70.6753940 113.7212012  58.2471969  69.9913160 113.0542595
  58.7078942  71.4172930 113.2692638  49.0301578  60.7251804 112.6201073
  48.4938935  60.2742543 113.2722669  48.4418287  60.8597713 111.8771537
  47.3250122  77.4915854 106.5145731  47.5646720  78.1234378 107.1924750
  46.4819318  77.1403894 106.8011091  39.9605978  64.9717616 105.2769044
  40.6477017  64.6579346 104.6890059  39.8054106  65.8758980 105.0036295
  44.7640700  59.8607812 109.7054067  44.6798888  59.2533482 108.9704477
  43.9423406  60.3516830 109.7063564  51.8377984  73.2994976 108.9187235
  51.7648155  74.1049948 109.4306540  51.3955377  73.4986942 108.0935257
  51.6267763  72.5366746 102.4290057  50.8435285  73.0788426 102.5228281
  52.3260509  73.0540726 102.8284298  54.2976667  73.1981810 111.0745394
  55.0104640  73.8329275 111.0021295  53.8066696  73.2945676 110.2585396
  49.3488581  70.9476254 111.8950965  50.0498040  71.5812737 112.0480359
  48.8783696  71.2890985 111.1346604  53.1977440  64.2440672 116.2069552
  52.5218077  64.1434802 116.8771927  54.0205074  64.0879886 116.6705549
  47.7994954  73.5163856 103.8444510  47.1305329  74.0009984 103.3608550
  47.6607824  73.7633077 104.7587888  39.5373954  63.0518209 107.5486511
  39.5758053  62.5181800 108.3423629  39.0314246  62.5253414 106.9297488
  51.9400223  75.5507600 110.4427168  52.4918531  75.7139221 111.2076253
  52.2806416  76.1412037 109.7707193  46.9164716  57.8982749 111.0449053
  46.9806042  58.7597580 110.6326451  46.8531836  57.2856751 110.3121411
  46.3916988  59.9705882 114.6922087  47.0189027  59.5882959 115.3059612
  45.5344907  59.7520084 115.0577780  56.7911097  70.3768857 116.2975823
  57.3351001  70.9898815 115.8030777  56.2097942  70.9348436 116.8142836
  46.6976778  59.8538308 106.6067991  45.9763364  60.4674275 106.4675464
  47.4870034  60.3896073 106.5284637  49.5003092  57.1892734 112.8808642
  50.0237494  57.4355031 113.6434952  49.2815425  58.0212769 112.4611780
  44.8970373  59.4596409 100.7479767  44.5683079  58.5793788 100.5654873
  45.2509744  59.4044077 101.6356156  48.0112196  59.7469379 101.1155245
  48.3508268  60.2755300 100.3933853  48.4584316  60.0849785 101.8913811
  50.7055637  58.1306429 110.5658313  50.3652457  57.3314242 110.9678993
  49.9994643  58.4308140 109.9935146  51.3572109  55.2155742 109.0185636
  52.1798178  54.7416220 108.8964526  51.6010172  55.9946225 109.5184322
  48.8810687  61.9074862 106.8277615  48.7355268  62.2215165 107.7201896
  48.4035891  62.5259763 106.2748513  43.3556350  64.4480207 109.7665276
  42.8109818  65.2240015 109.8985550  44.2335699  64.7951011 109.6084397
  50.1443966  57.7791791 102.1446074  50.2659877  56.8508437 102.3436962
  49.8546009  57.7930477 101.2324390  44.1422371  63.5750103 112.6595433
  43.4004107  63.7232738 113.2460063  43.8215116  63.8358369 111.7962182
  52.0866034  73.1166081 112.4575823  52.3953161  72.8715228 113.3298522
  52.8841516  73.3212720 111.9694693  52.1086646  75.2703991 104.6881199
  51.6691636  74.7780370 105.3814056  52.8594763  74.7276959 104.4473274
  44.5878985  71.4615532 104.6905827  45.4137005  71.1619304 104.3104471
  44.2373037  70.6923154 105.1395616  42.7887590  69.3801858 105.6494761
  41.9519498  68.9524033 105.4678762  42.7611236  69.5734302 106.5865552
  49.6285046  59.2923788 116.3536007  49.6773201  60.1685911 115.9713776
  50.1707560  58.7501181 115.7807650  60.1139891  69.8364911 115.6337144
  59.3235435  69.8189050 115.0941643  59.8773246  70.3753205 116.3886181
  51.8584334  60.0455160 113.1082365  50.9887644  60.3388726 112.8364954
  52.0943815  60.6295605 113.8289629  61.7355963  69.1054319 113.1911894
  61.4440772  69.4684300 114.0275355  61.1228095  68.3921327 113.0125226
  54.5623368  56.2634777 110.6247786  55.0805312  56.9995804 110.2994274
  54.2078501  56.5698771 111.4594545  54.8135962  52.6835060 106.1448682
  55.0937716  52.0158249 106.7709109  55.5986569  52.8764155 105.6323346
  66.9809448  65.3874820 108.1468594  67.7112837  65.1260109 108.7076297
  66.3716394  64.6503542 108.1870662  52.8854922  67.2472613 116.5090418
  53.8057931  67.4251212 116.7030465  52.8504505  66.3028658 116.3570118
  42.1037087  62.4411206 105.4343693  41.7839871  61.5876515 105.1418067
  41.5570515  62.6559784 106.1901660  50.7544860  60.7306853 118.5415948
  50.6541586  61.6801210 118.4728039  50.5366402  60.4025092 117.6692018
  41.9725347  66.0614118 107.4036814  41.2788818  65.6468071 106.8906769
  42.7198338  66.1034654 106.8070233  50.6176130  64.1603992 117.3581010
  50.1343211  64.9604352 117.5644899  50.7037069  64.1711937 116.4048454
  44.8999696  73.5928146 106.4119642  44.7654164  72.8328547 105.8457640
  44.4831758  74.3169046 105.9448431  48.0568822  74.4897463 106.6238084
  47.9401206  75.4342896 106.5216775  47.2361268  74.1871025 107.0123884
  42.3883764  60.9547777 112.6612439  43.0342627  60.4446731 113.1499664
  42.1800915  61.6916458 113.2355864  54.9137156  68.0228624 118.1604579
  55.7828315  68.1969276 117.7991214  54.4343907  68.8423041 118.0380308
  49.0823336  75.1425725 109.8394013  49.9850583  75.1749335 110.1560508
  48.8560706  74.2126176 109.8540349  50.8376938  73.8956712 106.5004091
  49.8872569  73.8958573 106.3868464  51.1409424  73.1489446 105.9840126
  46.7281255  58.1015394 116.7587453  47.5912716  57.7452198 116.9690777
  46.1546665  57.7629288 117.4462857  66.5729631  79.7317250 107.5649854
  67.2108041  79.6123997 106.8613194  66.4550474  80.6798094 107.6237806
  63.3819338  79.6844678 107.5011378  63.0437849  79.5685743 106.6131913
  64.2509106  79.2835843 107.4812385  59.2406153  81.5380154 103.4908269
  58.6771019  81.4470091 102.7224557  59.1258548  80.7180059 103.9710762
  63.8639121  80.8379530 113.4597584  63.8527761  80.4432328 112.5878088
  64.0259760  80.1045602 114.0531355  56.7870585  83.0331346 106.3292490
  57.5791877  82.6922171 105.9138789  57.0267236  83.1426321 107.2494643
  64.8205712  85.2051122  98.8022734  64.1693692  85.7905203  98.4156748
  65.6150075  85.7357317  98.8617772  58.7461339  82.2940259  99.2009869
  59.5192215  81.7469246  99.0622744  59.0986738  83.1584509  99.4124330
  60.5846382  83.6216642 112.4076768  60.2936248  84.5262272 112.2923434
  61.2203366  83.6633169 113.1220838  61.5102589  80.9993490 108.9978128
  62.1066161  80.7749513 108.2835091  61.5677560  80.2578236 109.6003575
  61.0827617  78.4532925  96.8328319  61.3353138  77.9314447  96.0711782
  60.1452176  78.2899071  96.9355002  66.1270900  77.4568704 104.6403062
  66.9133989  77.0388127 104.2893479  66.3909604  78.3614796 104.8084710
  66.2980977  82.8941554  99.3391719  65.6626810  82.9676181 100.0512623
  65.9678384  83.4835153  98.6610798  71.5279327  77.3943937 105.5436040
  72.2604499  76.8243154 105.7773870  70.7718683  77.0065537 105.9842546
  60.8023906  80.3561031  99.0352694  60.6860164  79.6805935  99.7033778
  60.9126166  79.8693405  98.2184847  63.1455447  79.8171179 102.7399383
  62.7813654  79.2901799 103.4512304  64.0022563  79.4269648 102.5665868
  69.0504747  71.1065511 110.0030649  68.7188072  71.9760922 109.7791864
  68.4550361  70.7901795 110.6824679  65.5436267  83.3078057 109.4026562
  65.2436990  84.2103096 109.2942369  65.1987326  83.0410240 110.2547715
  58.9948748  79.7591854 105.4363266  58.0699245  79.6268068 105.6440958
  59.2433162  80.5386073 105.9333208  62.7650155  77.3018736  98.7207398
  62.6449780  77.7475786  99.5592878  62.0702743  77.6504053  98.1620936
  56.3557559  79.4025127 106.2707055  56.4849941  79.6559606 107.1846467
  55.6755011  79.9952835 105.9511710  60.5257047  90.0722377 102.3697529
  60.4481076  91.0230203 102.4486010  59.9218690  89.7268250 103.0272456
  63.0174276  77.2450243 115.0258896  62.2407611  77.8044163 115.0161761
  63.6564840  77.7307026 115.5473766  61.2720649  80.0535696 114.5876863
  62.0135333  80.5920740 114.3111687  60.5657634  80.6801985 114.7448415
  66.7475988  82.1964837 113.1849025  67.1559344  81.7547247 112.4403657
  66.0253250  81.6217464 113.4383218  63.1007058  77.1337443 110.5582582
  63.9468254  77.5576857 110.7017231  63.0405696  76.4771068 111.2521145
  67.0704803  82.7566027 106.9401314  66.4413666  82.9211741 106.2377381
  66.6830465  83.1707637 107.7112278  70.9494035  83.6920465 104.2945677
  70.2645073  84.0719367 103.7442711  71.0337884  84.3015792 105.0277625
  66.2506504  74.7941812 112.2163755  66.0067436  75.5483872 111.6798031
  66.5266434  75.1727159 113.0511002  68.2044967  81.3380424 110.8941021
  68.4161862  81.9812184 110.2175402  68.1574715  80.5042741 110.4262951
  62.6232765  82.4940435 104.2051399  63.0871110  82.7728138 103.4156021
  62.3589563  81.5923880 104.0224489  59.5156846  82.0411917 107.1431162
  60.0858203  82.4699185 106.5048646  60.1064958  81.7594502 107.8415348
  61.5601651  78.6163588 101.0140964  62.2625694  79.0684631 101.4814890
  61.2282280  77.9747407 101.6420857  60.0082013  77.2075344 115.3892173
  59.3780673  77.8891625 115.6227570  59.9018100  77.0958426 114.4445311
  55.3026985  76.8747140 106.3158097  54.5126039  77.1304669 105.8398208
  55.7938232  77.6895478 106.4210138  69.3190795  84.2152380 109.0663378
  70.1408238  83.8132567 108.7846060  69.3153197  84.1120614 110.0179494
  63.0847398  83.7636423 111.2224089  63.1491831  84.2256830 112.0582261
  62.3758322  83.1333788 111.3506399  53.5864688  77.1277631 108.7473088
  53.8372726  78.0124641 109.0130664  54.1224236  76.9482232 107.9748180
  62.7995416  85.4304530 101.0903069  62.6641090  86.2756066 101.5187917
  63.3405228  85.6323808 100.3269003  59.2862755  71.5096110 117.7517424
  58.8929701  70.9562309 118.4265069  60.1028896  71.8206689 118.1423942
  56.2524813  82.9479968 101.6630994  56.7649334  83.7423219 101.8136559
  56.9047526  82.2506259 101.5964596  58.0619698  86.0645725 103.7453747
  58.2386326  86.9863689 103.5574731  58.8576531  85.7504144 104.1748127
  62.2030716  72.9253989 115.3437681  62.9440430  73.5261142 115.2642143
  62.4348639  72.1831627 114.7855723  57.3472054  78.1110357 113.6215911
  57.2325569  77.2095614 113.9223009  56.4916572  78.3574053 113.2700727
  64.4263892  86.0528097 115.2203411  63.9827746  85.2664475 114.9024316
  65.0881106  86.2407247 114.5547302  59.1851013  87.5823899 109.7464090
  59.7358438  87.4540962 108.9741084  58.3462489  87.8818788 109.3958982
  66.5245130  86.3330897 113.2484812  66.5063605  87.1539778 112.7565082
  67.4465050  86.2084972 113.4734954  62.9818184  83.8475026 114.0908321
  63.5146521  83.0863315 113.8607629  62.4532265  83.5548678 114.8332475
  66.1487879  68.9535092 109.6201963  65.8052149  69.8436734 109.5441073
  66.5166842  68.7636750 108.7571548  54.2173730  81.2768623 102.4390565
  55.0548952  81.6865631 102.2224272  54.3951998  80.3368065 102.4090759
  65.2284420  71.3239747 107.5851196  64.7249215  71.2869883 106.7719001
  65.5215026  72.2332490 107.6447852  64.3470897  82.9761019 101.6027133
  63.8192259  82.2413778 101.2900370  63.8458400  83.7535695 101.3567101
  69.3263743  81.1710039 106.7194179  68.6687417  81.8609301 106.8074308
  70.1304142  81.5606471 107.0628165  68.1369202  79.5254412 104.7698121
  68.6501084  80.1584404 105.2719831  68.7870426  78.9255607 104.4041481
  62.4923497  80.7941229  94.6062106  61.5850559  80.5630483  94.8053255
  62.9894529  79.9978848  94.7936087  65.3991576  89.5038736  97.5258792
  64.7253275  89.8070433  98.1343750  65.7857398  90.3067817  97.1764249
  64.6150033  77.0003868 107.0156461  63.6972594  77.2218815 106.8578149
  65.0310176  77.0750178 106.1568169  65.3985080  78.3995283 102.1459142
  66.1456899  78.9116680 101.8366264  65.6676670  78.0779336 103.0063535
  63.6711731  80.8953824  99.1286096  62.7622950  80.6112857  99.2258566
  63.7006814  81.3152903  98.2689403  68.9030998  84.5060413 102.8977263
  68.4493325  83.6651323 102.9542454  68.2724965  85.1421812 103.2352044
  67.3463937  86.3436910 103.8327082  67.6386912  86.9041967 103.1139447
  67.8562558  86.6365471 104.5880241  67.9475545  68.2128651 104.7219700
  68.2534422  67.3526015 104.4345615  68.6728150  68.8046272 104.5218694
  54.2399901  78.6159338 103.1101298  54.0424301  78.0228699 102.3852365
  53.6846565  78.3111548 103.8277237  62.2196625  78.5082445 105.2295891
  62.2745234  77.5556281 105.1538368  61.4087827  78.6641884 105.7137190
  63.3687818  82.4362568  96.4674175  62.9307248  81.7198427  96.0079812
  64.1098259  82.6638682  95.9059266  60.1588985  77.1259504 102.9886270
  59.3456850  77.4253675 103.3951462  60.6547979  76.7315193 103.7060752
  62.3097562  87.1217261 104.9220535  62.2673741  87.3478108 103.9929067
  63.2260261  86.8880636 105.0706336  65.7563196  77.5901329 111.8201164
  66.1112584  77.8172802 112.6795630  66.4035327  77.9219706 111.1978419
  59.6503059  74.6977860 108.6047505  60.2902439  74.5566619 107.9070468
  58.8180590  74.4112373 108.2286107  71.5130313  82.7796292 107.5361765
  71.9466819  82.6871581 108.3844819  72.2261893  82.7553792 106.8981781
  60.4263363  83.9980290 104.7182498  61.2203962  83.5030610 104.5165073
  59.7155056  83.4698153 104.3550203  65.2458208  86.3798386 109.0694865
  65.2995230  86.9489322 109.8372581  64.3772989  86.5500271 108.7048902
  56.7346127  78.1423372 100.7942250  55.8043715  78.0807827 101.0112212
  56.8303599  77.6199325  99.9978892  58.1256601  76.0815942 110.5519316
  58.7979654  75.8733304 109.9031965  57.2986388  75.8838028 110.1124549
  72.3745862  82.8219992 110.0694650  72.5681752  83.7265803 110.3153925
  72.2746480  82.3627411 110.9033235  64.0282173  72.7077883 112.5684977
  63.3810088  73.4067833 112.4749454  64.7983188  73.1414027 112.9361226
  67.4360971  82.9726735 115.6435531  67.2846477  82.7437287 114.7265614
  67.4265650  83.9297336 115.6566876  64.2046307  80.5458648 110.6281797
  65.1338367  80.6969807 110.4550764  63.7837337  80.6342669 109.7730444
  63.0034639  84.5709312 108.3980335  62.8645725  84.2028097 109.2706273
  62.2149235  85.0856952 108.2264292  63.5982791  89.6718409  99.7405871
  63.7734547  89.2006452 100.5551494  62.9115579  90.2984175  99.9687132
  64.5539854  83.9490915 105.7869172  64.2189687  83.9091685 106.6826822
  64.0543800  83.2835631 105.3139583  58.5284098  79.3558545 111.3121754
  58.3903896  78.6238784 111.9133293  59.4389022  79.2667445 111.0305941
  61.1566399  79.0678504 110.8005433  61.8666017  78.4271696 110.7592052
  61.1135707  79.3191399 111.7231614  69.1453178  86.0045858 113.7212012
  69.0865724  85.3205078 113.0542595  69.5472696  86.7464848 113.2692638
  59.8695333  76.0543722 112.6201073  59.3332690  75.6034461 113.2722669
  59.2812041  76.1889631 111.8771537  58.1643876  92.8207771 106.5145731
  58.4040475  93.4526296 107.1924750  57.3213073  92.4695811 106.8011091
  69.1470585  83.9685442 111.9525992  68.2597364  83.6311363 112.0752391
  69.7169136  83.2368473 112.1894758  50.7999732  80.3009533 105.2769044
  51.4870772  79.9871263 104.6890059  50.6447861  81.2050898 105.0036295
  55.6034454  75.1899730 109.7054067  55.5192643  74.5825399 108.9704477
  54.7817161  75.6808748 109.7063564  62.6771738  88.6286894 108.9187235
  62.6041910  89.4341865 109.4306540  62.2349131  88.8278860 108.0935257
  62.4661518  87.8658664 102.4290057  61.6829040  88.4080344 102.5228281
  63.1654263  88.3832644 102.8284298  73.6287925  79.3793659 106.7142554
  73.6177802  80.2618374 106.3436487  72.7605305  79.0265210 106.5197091
  65.1370422  88.5273728 111.0745394  65.8498394  89.1621193 111.0021295
  64.6460450  88.6237594 110.2585396  66.8587949  82.4324981 102.6462686
  65.9244227  82.5526443 102.4767390  67.0364617  81.5297447 102.3822696
  62.3593137  75.8170676 104.7995947  61.9890924  75.2641717 105.4876852
  62.8552229  75.2128810 104.2470947  60.1882335  86.2768171 111.8950965
  60.8891795  86.9104654 112.0480359  59.7177450  86.6182903 111.1346604
  68.3136731  84.6186121 100.1798872  68.5896575  84.5042716 101.0892746
  67.4441230  84.2203606 100.1411045  67.9883621  78.8312779 109.7203515
  67.3355072  79.0788686 109.0655968  68.3664001  78.0176917 109.3865992
  64.9490795  88.8672472 103.8231685  65.1313190  88.0494128 104.2859438
  65.7723781  89.0840164 103.3856575  65.2832961  87.7940657 101.0846734
  65.8120727  87.2833112 100.4716896  65.5461180  87.4783187 101.9492267
  64.0371194  79.5732590 116.2069552  63.3611831  79.4726719 116.8771927
  64.8598828  79.4171804 116.6705549  55.7850053  85.8104526 108.8282067
  56.3703490  85.0648214 108.9609972  55.5874892  86.1208483 109.7118731
  58.6388709  88.8455774 103.8444510  57.9699084  89.3301901 103.3608550
  58.5001578  89.0924994 104.7587888  50.3767708  78.3810127 107.5486511
  50.4151808  77.8473717 108.3423629  49.8708001  77.8545332 106.9297488
  62.7793977  90.8799517 110.4427168  63.3312285  91.0431139 111.2076253
  63.1200171  91.4703955 109.7707193  57.7558470  73.2274667 111.0449053
  57.8199797  74.0889498 110.6326451  57.6925591  72.6148669 110.3121411
  57.2310743  75.2997800 114.6922087  57.8582782  74.9174877 115.3059612
  56.3738662  75.0812002 115.0577780  67.6304852  85.7060775 116.2975823
  68.1744756  86.3190733 115.8030777  67.0491696  86.2640353 116.8142836
  65.9162365  88.8281493 107.4290850  65.7913504  88.0271233 106.9201796
  66.5741456  89.3227686 106.9404820  57.5370533  75.1830225 106.6067991
  56.8157118  75.7966193 106.4675464  58.3263789  75.7187990 106.5284637
  67.9797273  86.6290513 109.0570400  67.0327608  86.5095864 108.9848727
  68.3280046  85.7413011 109.1396662  60.3396846  72.5184652 112.8808642
  60.8631248  72.7646948 113.6434952  60.1209180  73.3504687 112.4611780
  64.9843706  86.4243229 105.2574753  64.8368669  85.4959937 105.4382323
  65.8097200  86.4463320 104.7731828  68.5877828  87.2471788 106.3439625
  69.5124376  87.0414649 106.2064077  68.4193131  86.9988189 107.2528967
  61.5449391  73.4598347 110.5658313  61.2046212  72.6606160 110.9678993
  60.8388398  73.7600058 109.9935146  59.7204442  77.2366780 106.8277615
  59.5749023  77.5507083 107.7201896  59.2429646  77.8551680 106.2748513
  61.5800825  74.2269328 106.8758504  61.5662394  73.3310421 106.5390802
  62.2973253  74.2339992 107.5096790  63.4326955  74.6606668 108.9211632
  63.1744733  75.5823739 108.9195962  62.9011996  74.2637103 109.6112096
  68.3773144  87.7657455 101.7001717  68.5510022  87.2003878 100.9475569
  68.8702035  88.5658350 101.5181207  54.1950104  79.7772124 109.7665276
  53.6503572  80.5531932 109.8985550  55.0729454  80.1242929 109.6084397
  54.9816126  78.9042021 112.6595433  54.2397862  79.0524656 113.2460063
  54.6608870  79.1650286 111.7962182  62.9259789  88.4457999 112.4575823
  63.2346915  88.2007146 113.3298522  63.7235271  88.6504637 111.9694693
  62.9480401  90.5995909 104.6881199  62.5085391  90.1072287 105.3814056
  63.6988518  90.0568876 104.4473274  55.4272740  86.7907449 104.6905827
  56.2530759  86.4911221 104.3104471  55.0766792  86.0215072 105.1395616
  60.3954273  86.1433918 106.7603501  59.7734282  85.4804623 106.4605729
  61.0659140  86.1695050 106.0777149  53.6281345  84.7093776 105.6494761
  52.7913253  84.2815950 105.4678762  53.6004990  84.9026219 106.5865552
  60.4678800  74.6215706 116.3536007  60.5166956  75.4977828 115.9713776
  61.0101314  74.0793099 115.7807650  70.9533646  85.1656829 115.6337144
  70.1629190  85.1480968 115.0941643  70.7167000  85.7045123 116.3886181
  71.0731521  82.0149295 112.9469872  71.1229526  81.8499303 113.8885395
  70.9645444  81.1476554 112.5567753  59.9567780  84.6937841 100.2361961
  60.1055900  85.3773305  99.5828634  60.7634223  84.6742931 100.7511417
  68.3635283  77.9980223 114.2629179  69.2645146  77.8586688 113.9713177
  68.4383258  78.1634678 115.2027357  62.6978089  75.3747078 113.1082365
  61.8281398  75.6680644 112.8364954  62.9337569  75.9587523 113.8289629
  72.5749718  84.4346237 113.1911894  72.2834526  84.7976217 114.0275355
  71.9621849  83.7213245 113.0125226  70.8236906  79.5578851 111.6591952
  71.2991028  79.7506498 110.8510803  69.9002471  79.6138037 111.4135336
  57.7120413  80.7203019 101.2423030  57.4666455  79.8165349 101.4403240
  57.8816327  80.7220169 100.3002508  65.4017123  71.5926695 110.6247786
  65.9199066  72.3287722 110.2994274  65.0472255  71.8990688 111.4594545
  65.6529717  68.0126978 106.1448682  65.9331470  67.3450167 106.7709109
  66.4380324  68.2056073 105.6323346  63.4563185  87.1885971  97.7073709
  62.8837152  87.8076159  97.2544181  64.0295979  87.7385333  98.2413631
  69.5238575  76.4344612 109.8920258  70.4755998  76.5342709 109.9132482
  69.3542025  75.6422880 110.4018342  67.5452955  73.5200195 110.0779659
  66.9502887  73.8005207 109.3826147  67.2602651  74.0094096 110.8496400
  66.6760445  87.4723122  98.8382291  67.6091118  87.4068683  99.0415167
  66.5883658  88.3079388  98.3796824  72.0026653  79.6550731 109.0062557
  71.9702973  78.7166732 109.1922241  72.6127276  79.7334768 108.2728382
  72.1521141  76.4461775 109.0520840  71.6360190  75.6620231 108.8650769
  73.0361090  76.1180491 109.2167360  69.8131868  70.1902790 105.0116653
  69.6156689  69.8817878 105.8959985  70.4231574  70.9164429 105.1414583
  77.8203203  80.7166738 108.1468594  78.5506591  80.4552026 108.7076297
  77.2110148  79.9795460 108.1870662  75.9018500  78.8574601 108.7443045
  75.1751663  78.7230566 108.1359537  75.4865787  79.1651429 109.5499763
  63.7248676  82.5764530 116.5090418  64.6451686  82.7543129 116.7030465
  63.6898259  81.6320576 116.3570118  52.9430841  77.7703124 105.4343693
  52.6233626  76.9168432 105.1418067  52.3964269  77.9851702 106.1901660
  56.7210749  80.4865565 109.1513199  56.9396759  81.4182673 109.1701233
  57.1336523  80.1273539 109.9368003  61.5938614  76.0598771 118.5415948
  61.4935341  77.0093128 118.4728039  61.3760156  75.7317010 117.6692018
  52.8119101  81.3906035 107.4036814  52.1182573  80.9759988 106.8906769
  53.5592092  81.4326572 106.8070233  61.4569884  79.4895910 117.3581010
  60.9736966  80.2896270 117.5644899  61.5430823  79.5003854 116.4048454
  54.7255844  81.3224289 105.2802829  54.7026532  81.4211977 104.3284712
  55.0356480  82.1689440 105.6019996  57.3843222  83.3800444 109.3949444
  58.3386475  83.3484387 109.3279375  57.1855745  82.9191068 110.2099670
  57.9742604  81.9501560 111.9620241  58.7935493  82.4445639 111.9855079
  58.2479411  81.0333528 111.9337809  55.7393450  88.9220064 106.4119642
  55.6047918  88.1620465 105.8457640  55.3225513  89.6460964 105.9448431
  66.8752413  84.1056987  95.4196217  67.5788264  84.3106990  96.0353873
  66.1515062  84.6733749  95.6845300  58.8962576  89.8189381 106.6238084
  58.7794960  90.7634813 106.5216775  58.0755023  89.5162942 107.0123884
  68.7839111  84.5439517  97.4694677  69.6184715  84.1120715  97.2872152
  68.6223454  84.3721530  98.3971571  53.2277518  76.2839694 112.6612439
  53.8736382  75.7738648 113.1499664  53.0194669  77.0208376 113.2355864
  65.7530910  83.3520542 118.1604579  66.6222070  83.5261194 117.7991214
  65.2737662  84.1714959 118.0380308  59.9217090  90.4717643 109.8394013
  60.8244337  90.5041253 110.1560508  59.6954460  89.5418094 109.8540349
  61.6770692  89.2248629 106.5004091  60.7266323  89.2250491 106.3868464
  61.9803179  88.4781364 105.9840126  57.5675009  73.4307311 116.7587453
  58.4306471  73.0744116 116.9690777  56.9940420  73.0921206 117.4462857
  74.2213092  95.0136596 107.5011378  73.8831604  94.8977660 106.6131913
  75.0902860  94.6127761 107.4812385  70.0799908  96.8672072 103.4908269
  69.5164773  96.7762009 102.7224557  69.9652303  96.0471977 103.9710762
  74.7032875  96.1671447 113.4597584  74.6921516  95.7724246 112.5878088
  74.8653515  95.4337520 114.0531355  67.6264340  98.3623264 106.3292490
  68.4185632  98.0214088 105.9138789  67.8660990  98.4718239 107.2494643
  71.4240136  98.9508559 112.4076768  71.1330002  99.8554190 112.2923434
  72.0597121  98.9925087 113.1220838  72.3496343  96.3285408 108.9978128
  72.9459915  96.1041430 108.2835091  72.4071315  95.5870153 109.6003575
  71.9221372  93.7824843  96.8328319  72.1746892  93.2606364  96.0711782
  70.9845931  93.6190989  96.9355002  76.9664654  92.7860621 104.6403062
  77.7527744  92.3680045 104.2893479  77.2303359  93.6906714 104.8084710
  73.9849201  95.1463096 102.7399383  73.6207408  94.6193717 103.4512304
  74.8416317  94.7561565 102.5665868  79.8898502  86.4357429 110.0030649
  79.5581827  87.3052840 109.7791864  79.2944115  86.1193713 110.6824679
  69.8342503  95.0883772 105.4363266  68.9092999  94.9559986 105.6440958
  70.0826916  95.8677991 105.9333208  79.7827165  91.1552515 107.0823999
  78.8744043  91.0867923 106.7882760  79.7314761  91.6324460 107.9105824
  73.6043909  92.6310653  98.7207398  73.4843534  93.0767704  99.5592878
  72.9096497  92.9795971  98.1620936  67.1951314  94.7317045 106.2707055
  67.3243695  94.9851524 107.1846467  66.5148765  95.3244753 105.9511710
  71.3650801 105.4014295 102.3697529  71.2874831 106.3522120 102.4486010
  70.7612445 105.0560168 103.0272456  73.8568031  92.5742161 115.0258896
  73.0801365  93.1336081 115.0161761  74.4958594  93.0598944 115.5473766
  81.6488812  89.3568953 108.8601873  81.0063192  89.6501487 108.2141667
  81.1443740  89.2421874 109.6655070  72.1114403  95.3827614 114.5876863
  72.8529088  95.9212658 114.3111687  71.4051389  96.0093903 114.7448415
  73.9400813  92.4629361 110.5582582  74.7862008  92.8868775 110.7017231
  73.8799451  91.8062985 111.2521145  77.0900258  90.1233730 112.2163755
  76.8461190  90.8775790 111.6798031  77.3660189  90.5019077 113.0511002
  76.6464950  89.2790163 107.7977593  75.7849429  89.5771416 108.0894331
  76.6727385  89.4960561 106.8658626  73.4626519  97.8232353 104.2051399
  73.9264865  98.1020056 103.4156021  73.1983318  96.9215798 104.0224489
  70.3550601  97.3703835 107.1431162  70.9251958  97.7991103 106.5048646
  70.9458712  97.0886419 107.8415348  72.3995406  93.9455505 101.0140964
  73.1019449  94.3976549 101.4814890  72.0676034  93.3039324 101.6420857
  70.8475767  92.5367262 115.3892173  70.2174428  93.2183543 115.6227570
  70.7411855  92.4250344 114.4445311  66.1420739  92.2039058 106.3158097
  65.3519793  92.4596587 105.8398208  66.6331987  93.0187396 106.4210138
  68.0935485  92.5683637 103.2741574  67.2966648  92.6802332 103.7925070
  67.8661077  92.9070290 102.4082465  73.9241152  99.0928341 111.2224089
  73.9885585  99.5548748 112.0582261  73.2152076  98.4625706 111.3506399
  64.4258442  92.4569549 108.7473088  64.6766481  93.3416558 109.0130664
  64.9617991  92.2774150 107.9748180  70.1256510  86.8388028 117.7517424
  69.7323455  86.2854226 118.4265069  70.9422650  87.1498606 118.1423942
  67.0918568  98.2771886 101.6630994  67.6043088  99.0715136 101.8136559
  67.7441280  97.5798177 101.5964596  68.9013452 101.3937642 103.7453747
  69.0780081 102.3155607 103.5574731  69.6970286 101.0796062 104.1748127
  73.0424471  88.2545907 115.3437681  73.7834184  88.8553060 115.2642143
  73.2742394  87.5123545 114.7855723  68.1865809  93.4402274 113.6215911
  68.0719324  92.5387532 113.9223009  67.3310327  93.6865971 113.2700727
  70.0244768 102.9115816 109.7464090  70.5752193 102.7832880 108.9741084
  69.1856244 103.2110705 109.3958982  73.8211939  99.1766944 114.0908321
  74.3540276  98.4155232 113.8607629  73.2926020  98.8840596 114.8332475
  76.9881634  84.2827010 109.6201963  76.6445903  85.1728652 109.5441073
  77.3560596  84.0928668 108.7571548  65.0567484  96.6060540 102.4390565
  65.8942706  97.0157549 102.2224272  65.2345752  95.6659983 102.4090759
  74.5379027  89.1185322 103.1859636  73.6820624  88.7292172 103.0065275
  74.9505979  89.1977283 102.3259422  76.0678174  86.6531665 107.5851196
  75.5642970  86.6161800 106.7719001  76.3608781  87.5624408 107.6447852
  72.3121060  86.7370395 106.5917378  73.1774057  86.5413204 106.2323267
  72.3798569  86.5080747 107.5186734  75.1864651  98.3052936 101.6027133
  74.6586013  97.5705696 101.2900370  74.6852154  99.0827613 101.3567101
  69.9183379  88.9672603 103.9633744  70.4927131  88.7447784 103.2306937
  70.5054361  89.0361297 104.7162346  72.2206047  85.8413852 102.6908814
  71.5670459  85.5262869 102.0665429  72.1786521  85.2189592 103.4168637
  75.4543787  92.3295785 107.0156461  74.5366348  92.5510732 106.8578149
  75.8703931  92.4042096 106.1568169  78.6857672  90.7644317 104.1277931
  77.9480429  90.2521703 104.4588174  78.9384446  90.3244699 103.3161208
  78.7869299  83.5420569 104.7219700  79.0928176  82.6817933 104.4345615
  79.5121904  84.1338189 104.5218694  65.0793655  93.9451256 103.1101298
  64.8818055  93.3520616 102.3852365  64.5240319  93.6403466 103.8277237
  73.0590379  93.8374362 105.2295891  73.1138989  92.8848199 105.1538368
  72.2481581  93.9933801 105.7137190  70.9982739  92.4551422 102.9886270
  70.1850605  92.7545593 103.3951462  71.4941733  92.0607111 103.7060752
  73.1491317 102.4509179 104.9220535  73.1067496 102.6770025 103.9929067
  74.0654016 102.2172553 105.0706336  76.5956951  92.9193246 111.8201164
  76.9506338  93.1464720 112.6795630  77.2429082  93.2511623 111.1978419
  70.4896814  90.0269777 108.6047505  71.1296193  89.8858537 107.9070468
  69.6574344  89.7404291 108.2286107  71.2657118  99.3272208 104.7182498
  72.0597716  98.8322528 104.5165073  70.5548810  98.7990071 104.3550203
  67.5739881  93.4715290 100.7942250  66.6437469  93.4099745 101.0112212
  67.6697353  92.9491242  99.9978892  67.4925430  89.9970102 103.3820492
  67.7532248  90.9115436 103.2729652  68.3142603  89.5294545 103.5317105
  68.9650356  91.4107860 110.5519316  69.6373409  91.2025222 109.9031965
  68.1380142  91.2129946 110.1124549  74.8675928  88.0369801 112.5684977
  74.2203843  88.7359750 112.4749454  75.6376943  88.4705944 112.9361226
  78.2754725  98.3018653 115.6435531  78.1240232  98.0729204 114.7265614
  78.2659405  99.2589254 115.6566876  69.3677853  94.6850463 111.3121754
  69.2297651  93.9530701 111.9133293  70.2782776  94.5959363 111.0305941
  71.9960153  94.3970422 110.8005433  72.7059772  93.7563614 110.7592052
  71.9529462  94.6483317 111.7231614  70.7089087  91.3835640 112.6201073
  70.1726444  90.9326378 113.2722669  70.1205796  91.5181549 111.8771537
  69.0037631 108.1499689 106.5145731  69.2434229 108.7818213 107.1924750
  68.1606827 107.7987729 106.8011091  61.6393487  95.6301451 105.2769044
  62.3264526  95.3163181 104.6890059  61.4841615  96.5342816 105.0036295
  66.4428209  90.5191648 109.7054067  66.3586397  89.9117317 108.9704477
  65.6210915  91.0100666 109.7063564  73.5165493 103.9578812 108.9187235
  73.4435664 104.7633783 109.4306540  73.0742886 104.1570777 108.0935257
  73.3055272 103.1950582 102.4290057  72.5222794 103.7372262 102.5228281
  74.0048018 103.7124561 102.8284298  76.6151923  89.0045211 105.0724262
  77.1120622  88.2515173 104.7525333  75.8438904  89.0409528 104.5067472
  77.6981703  97.7616898 102.6462686  76.7637982  97.8818361 102.4767390
  77.8758372  96.8589365 102.3822696  73.1986891  91.1462594 104.7995947
  72.8284679  90.5933634 105.4876852  73.6945984  90.5420728 104.2470947
  71.0276090 101.6060089 111.8950965  71.7285549 102.2396572 112.0480359
  70.5571205 101.9474821 111.1346604  79.0570917  85.9714805 107.2203621
  78.1433997  86.2019031 107.3885828  79.4864019  86.0553249 108.0717654
  74.8764949  94.9024508 116.2069552  74.2005586  94.8018637 116.8771927
  75.6992583  94.7463721 116.6705549  66.6243808 101.1396444 108.8282067
  67.2097245 100.3940132 108.9609972  66.4268646 101.4500401 109.7118731
  69.4782463 104.1747692 103.8444510  68.8092838 104.6593819 103.3608550
  69.3395333 104.4216912 104.7587888  61.2161463  93.7102044 107.5486511
  61.2545562  93.1765635 108.3423629  60.7101755  93.1837250 106.9297488
  73.6187732 106.2091435 110.4427168  74.1706040 106.3723057 111.2076253
  73.9593925 106.7995873 109.7707193  68.5952225  88.5566585 111.0449053
  68.6593551  89.4181416 110.6326451  68.5319345  87.9440586 110.3121411
  68.0704497  90.6289717 114.6922087  68.6976536  90.2466795 115.3059612
  67.2132416  90.4103919 115.0577780  78.4698606 101.0352693 116.2975823
  79.0138510 101.6482651 115.8030777  77.8885451 101.5932271 116.8142836
  64.8470040  92.4366146 100.6240442  65.1423481  91.5276825 100.5707496
  63.9458076  92.4153886 100.3021444  68.3764287  90.5122143 106.6067991
  67.6550873  91.1258111 106.4675464  69.1657543  91.0479908 106.5284637
  71.1790601  87.8476570 112.8808642  71.7025003  88.0938866 113.6434952
  70.9602934  88.6796604 112.4611780  66.5757882  90.1180244 100.7479767
  66.2470588  89.2377623 100.5654873  66.9297253  90.0627913 101.6356156
  75.8237461 101.7535147 105.2574753  75.6762423 100.8251854 105.4382323
  76.6490954 101.7755238 104.7731828  69.6899705  90.4053214 101.1155245
  70.0295777  90.9339135 100.3933853  70.1371825  90.7433620 101.8913811
  72.3843146  88.7890265 110.5658313  72.0439966  87.9898078 110.9678993
  71.6782152  89.0891975 109.9935146  73.0359618  85.8739577 109.0185636
  73.8585687  85.4000055 108.8964526  73.2797681  86.6530061 109.5184322
  70.5598196  92.5658698 106.8277615  70.4142777  92.8799001 107.7201896
  70.0823400  93.1843598 106.2748513  72.4194579  89.5561246 106.8758504
  72.4056148  88.6602339 106.5390802  73.1367007  89.5631909 107.5096790
  74.2720710  89.9898586 108.9211632  74.0138488  90.9115657 108.9195962
  73.7405750  89.5929020 109.6112096  65.0343859  95.1064042 109.7665276
  64.4897327  95.8823850 109.8985550  65.9123208  95.4534847 109.6084397
  71.8231475  88.4375626 102.1446074  71.9447386  87.5092272 102.3436962
  71.5333518  88.4514312 101.2324390  74.6922666  86.1230536 105.2812794
  74.7144362  86.1869870 104.3264774  75.1090725  85.2835045 105.4753300
  65.8209880  94.2333938 112.6595433  65.0791616  94.3816574 113.2460063
  65.5002625  94.4942204 111.7962182  73.7874155 105.9287826 104.6881199
  73.3479145 105.4364205 105.3814056  74.5382272 105.3860794 104.4473274
  66.2666494 102.1199367 104.6905827  67.0924514 101.8203139 104.3104471
  65.9160546 101.3506990 105.1395616  71.2348027 101.4725835 106.7603501
  70.6128037 100.8096540 106.4605729  71.9052894 101.4986967 106.0777149
  64.4675099 100.0385694 105.6494761  63.6307007  99.6107868 105.4678762
  64.4398745 100.2318137 106.5865552  71.3072555  89.9507623 116.3536007
  71.3560710  90.8269746 115.9713776  71.8495069  89.4085016 115.7807650
  81.7927400 100.4948747 115.6337144  81.0022944 100.4772885 115.0941643
  81.5560755 101.0337040 116.3886181  79.2029038  93.3272141 114.2629179
  80.1038901  93.1878606 113.9713177  79.2777012  93.4926596 115.2027357
  73.5371843  90.7038996 113.1082365  72.6675153  90.9972562 112.8364954
  73.7731324  91.2879441 113.8289629  68.5514167  96.0494936 101.2423030
  68.3060209  95.1457266 101.4403240  68.7210082  96.0512087 100.3002508
  76.2410877  86.9218613 110.6247786  76.7592821  87.6579640 110.2994274
  75.8866010  87.2282606 111.4594545  67.8209815  91.7823294  98.7409192
  67.1279060  91.8567649  98.0849228  67.5761567  91.0183638  99.2630709
  76.4923471  83.3418895 106.1448682  76.7725225  82.6742084 106.7709109
  77.2774078  83.5347991 105.6323346  80.3632330  91.7636529 109.8920258
  81.3149752  91.8634627 109.9132482  80.1935780  90.9714798 110.4018342
  78.3846709  88.8492112 110.0779659  77.7896641  89.1297125 109.3826147
  78.0996406  89.3386013 110.8496400  82.9914896  91.7753692 109.0520840
  82.4753944  90.9912149 108.8650769  83.8754844  91.4472409 109.2167360
  80.6525623  85.5194708 105.0116653  80.4550444  85.2109796 105.8959985
  81.2625328  86.2456347 105.1414583  74.5642431  97.9056448 116.5090418
  75.4845440  98.0835047 116.7030465  74.5292014  96.9612493 116.3570118
  63.7824596  93.0995042 105.4343693  63.4627380  92.2460350 105.1418067
  63.2358024  93.3143620 106.1901660  67.5604503  95.8157483 109.1513199
  67.7790513  96.7474590 109.1701233  67.9730277  95.4565457 109.9368003
  72.4332369  91.3890688 118.5415948  72.3329095  92.3385045 118.4728039
  72.2153911  91.0608927 117.6692018  63.6512856  96.7197953 107.4036814
  62.9576327  96.3051906 106.8906769  64.3985847  96.7618490 106.8070233
  79.7878076  87.5104140 102.2691849  79.2076745  88.1688944 101.8869901
  79.5214009  86.6881485 101.8579266  78.2381643  86.9109198 104.4713169
  78.7381421  87.0225732 103.6627488  78.8817251  86.6070250 105.1113977
  72.2963639  94.8187827 117.3581010  71.8130720  95.6188187 117.5644899
  72.3824578  94.8295772 116.4048454  65.5649598  96.6516207 105.2802829
  65.5420286  96.7503894 104.3284712  65.8750235  97.4981358 105.6019996
  68.2236976  98.7092362 109.3949444  69.1780230  98.6776304 109.3279375
  68.0249500  98.2482986 110.2099670  68.8136358  97.2793478 111.9620241
  69.6329247  97.7737557 111.9855079  69.0873166  96.3625446 111.9337809
  81.9217491  89.6950751 105.0402536  82.6977881  90.1847204 105.3127153
  81.1965625  90.1208805 105.4974406  84.3590049  90.4078371 106.0976477
  84.9534540  90.1674106 105.3869785  84.4316633  89.6885501 106.7250013
  66.5787205 104.2511981 106.4119642  66.4441673 103.4912382 105.8457640
  66.1619267 104.9752881 105.9448431  69.7356331 105.1481298 106.6238084
  69.6188715 106.0926731 106.5216775  68.9148777 104.8454860 107.0123884
  64.0671272  91.6131612 112.6612439  64.7130136  91.1030566 113.1499664
  63.8588424  92.3500294 113.2355864  76.5924665  98.6812459 118.1604579
  77.4615824  98.8553112 117.7991214  76.1131416  99.5006876 118.0380308
  70.7610845 105.8009560 109.8394013  71.6638092 105.8333171 110.1560508
  70.5348215 104.8710011 109.8540349  72.5164447 104.5540547 106.5004091
  71.5660078 104.5542409 106.3868464  72.8196933 103.8073281 105.9840126
  68.4068763  88.7599229 116.7587453  69.2700225  88.4036034 116.9690777
  67.8334174  88.4213124 117.4462857  81.6869522 107.8659180 115.3892173
  81.0568182 108.5475461 115.6227570  81.5805609 107.7542261 114.4445311
  75.2652197 107.7861466 108.7473088  75.5160235 108.6708476 109.0130664
  75.8011745 107.6066068 107.9748180  80.9650264 102.1679946 117.7517424
  80.5717210 101.6146144 118.4265069  81.7816405 102.4790524 118.1423942
  79.0259563 108.7694192 113.6215911  78.9113078 107.8679449 113.9223009
  78.1704081 109.0157889 113.2700727  72.4787241 110.9593369 105.2769044
  73.1658281 110.6455099 104.6890059  72.3235370 111.8634733 105.0036295
  77.4637562 116.4688362 108.8282067  78.0490999 115.7232050 108.9609972
  77.2662401 116.7792318 109.7118731  72.0555217 109.0393962 107.5486511
  72.0939317 108.5057553 108.3423629  71.5495510 108.5129168 106.9297488
  76.6603635 109.5625856 112.6595433  75.9185371 109.7108491 113.2460063
  76.3396379 109.8234122 111.7962182  77.1060249 117.4491285 104.6905827
  77.9318268 117.1495057 104.3104471  76.7554301 116.6798907 105.1395616
  75.3068854 115.3677611 105.6494761  74.4700762 114.9399786 105.4678762
  75.2792499 115.5610055 106.5865552  82.1466309 105.2799541 116.3536007
  82.1954465 106.1561664 115.9713776  82.6888823 104.7376934 115.7807650
  74.6218350 108.4286959 105.4343693  74.3021135 107.5752268 105.1418067
  74.0751778 108.6435537 106.1901660  83.2726123 106.7182606 118.5415948
  83.1722850 107.6676963 118.4728039  83.0547665 106.3900845 117.6692018
  74.4906610 112.0489871 107.4036814  73.7970082 111.6343824 106.8906769
  75.2379601 112.0910407 106.8070233  76.4043353 111.9808125 105.2802829
  76.3814041 112.0795812 104.3284712  76.7143989 112.8273275 105.6019996
  79.2462518 104.0891147 116.7587453  80.1093980 103.7327951 116.9690777
  78.6727929 103.7505041 117.4462857  93.0438310 136.0598130 102.3697529
  92.9662340 137.0105956 102.4486010  92.4399954 135.7144003 103.0272456
  95.5355540 123.2325996 115.0258896  94.7588874 123.7919916 115.0161761
  96.1746103 123.7182779 115.5473766 109.9278051 126.5466881 105.4148350
 109.1741759 125.9774279 105.2592354 110.0625592 126.5129546 106.3618984
  97.9172839 135.4914489  97.5258792  97.2434538 135.7946186  98.1343750
  98.3038661 136.2943570  97.1764249 104.0311576 128.7672045 107.5361765
 104.4648083 128.6747334 108.3844819 104.7443157 128.7429545 106.8981781
 104.8927126 128.8095745 110.0694650 105.0863016 129.7141556 110.3153925
 104.7927744 128.3503164 110.9033235  99.9542234 128.9602488 115.6435531
  99.8027741 128.7313040 114.7265614  99.9446914 129.9173090 115.6566876
  96.1164055 135.6594162  99.7405871  96.2915810 135.1882205 100.5551494
  95.4296843 136.2859928  99.9687132 101.6634441 131.9921611 113.7212012
 101.6046987 131.3080831 113.0542595 102.0653959 132.7340601 113.2692638
  90.6825140 138.8083524 106.5145731  90.9221738 139.4402049 107.1924750
  89.8394336 138.4571564 106.8011091 106.1469189 125.3669412 106.7142554
 106.1359065 126.2494127 106.3436487 105.2786568 125.0140963 106.5197091
  96.5552458 125.5608343 116.2069552  95.8793095 125.4602472 116.8771927
  97.3780092 125.4047557 116.6705549 100.1486115 131.6936528 116.2975823
 100.6926019 132.3066486 115.8030777  99.5672960 132.2516106 116.8142836
 101.1059092 133.2347541 106.3439625 102.0305639 133.0290402 106.2064077
 100.9374395 132.9863942 107.2528967 106.7493799 126.5169631 103.3192017
 107.1924945 125.7676957 102.9211140 105.8720309 126.5079768 102.9365749
 101.8829580 133.0699973  98.7998615 102.5780485 133.6906665  99.0185930
 102.2252730 132.2195324  99.0750993 103.4714909 131.1532582 115.6337144
 102.6810453 131.1356721 115.0941643 103.2348264 131.6920876 116.3886181
 103.5912784 128.0025048 112.9469872 103.6410789 127.8375056 113.8885395
 103.4826708 127.1352307 112.5567753 105.0930981 130.4221990 113.1911894
 104.8015790 130.7851970 114.0275355 104.4803113 129.7088998 113.0125226
 106.2926664 127.9874870 105.7114464 107.1273555 128.4264674 105.8752025
 106.4285792 127.5113523 104.8922710 104.5207916 125.6426484 109.0062557
 104.4884236 124.7042485 109.1922241 105.1308540 125.7210521 108.2728382
 104.6702405 122.4337528 109.0520840 104.1541453 121.6495984 108.8650769
 105.5542353 122.1056244 109.2167360 110.3384466 126.7042491 108.1468594
 111.0687855 126.4427779 108.7076297 109.7291412 125.9671213 108.1870662
 108.4199763 124.8450354 108.7443045 107.6932927 124.7106319 108.1359537
 108.0047050 125.1527182 109.5499763  94.1119878 122.0474524 118.5415948
  94.0116604 122.9968881 118.4728039  93.8941420 121.7192763 117.6692018
  93.9751148 125.4771663 117.3581010  93.4918229 126.2772023 117.5644899
  94.0612087 125.4879607 116.4048454 108.3448631 124.3728407 104.8719898
 107.7848189 124.4421596 105.6451460 107.7392134 124.1969391 104.1519394
  98.2712174 129.3396295 118.1604579  99.1403333 129.5136947 117.7991214
  97.7918925 130.1590712 118.0380308 109.9304649 141.0484921 107.5649854
 110.5683059 140.9291668 106.8613194 109.8125492 141.9965765 107.6237806
 106.7394356 141.0012349 107.5011378 106.4012867 140.8853413 106.6131913
 107.6084124 140.6003514 107.4812385 102.5981171 142.8547825 103.4908269
 102.0346037 142.7637762 102.7224557 102.4833566 142.0347730 103.9710762
 107.2214139 142.1547200 113.4597584 107.2102779 141.7599999 112.5878088
 107.3834778 141.4213273 114.0531355 100.1445603 144.3499017 106.3292490
 100.9366895 144.0089841 105.9138789 100.3842253 144.4593992 107.2494643
 108.1780730 146.5218793  98.8022734 107.5268710 147.1072873  98.4156748
 108.9725093 147.0524988  98.8617772 102.1036357 143.6107930  99.2009869
 102.8767233 143.0636917  99.0622744 102.4561756 144.4752179  99.4124330
 103.9421400 144.9384312 112.4076768 103.6511266 145.8429943 112.2923434
 104.5778384 144.9800840 113.1220838 104.8677607 142.3161161 108.9978128
 105.4641179 142.0917183 108.2835091 104.9252578 141.5745906 109.6003575
 104.4402635 139.7700596  96.8328319 104.6928156 139.2482117  96.0711782
 103.5027194 139.6066742  96.9355002 109.4845918 138.7736375 104.6403062
 110.2709007 138.3555798 104.2893479 109.7484622 139.6782467 104.8084710
 109.6555995 144.2109225  99.3391719 109.0201828 144.2843851 100.0512623
 109.3253402 144.8002824  98.6610798 114.8854345 138.7111608 105.5436040
 115.6179517 138.1410825 105.7773870 114.1293701 138.3233208 105.9842546
 104.1598924 141.6728702  99.0352694 104.0435182 140.9973605  99.7033778
 104.2701184 141.1861076  98.2184847 106.5030465 141.1338849 102.7399383
 106.1388672 140.6069470 103.4512304 107.3597581 140.7437318 102.5665868
 112.4079765 132.4233182 110.0030649 112.0763090 133.2928593 109.7791864
 111.8125379 132.1069466 110.6824679 106.1435952 136.1628749  97.7360731
 106.3110354 137.0308985  98.1031202 105.9533121 136.3256031  96.8122021
 108.9011285 144.6245728 109.4026562 108.6012008 145.5270767 109.2942369
 108.5562344 144.3577911 110.2547715 102.3523766 141.0759525 105.4363266
 101.4274263 140.9435739 105.6440958 102.6008180 141.8553744 105.9333208
 112.3008429 137.1428268 107.0823999 111.3925306 137.0743676 106.7882760
 112.2496024 137.6200213 107.9105824 106.1225173 138.6186406  98.7207398
 106.0024798 139.0643457  99.5592878 105.4277761 138.9671724  98.1620936
  99.7132577 140.7192798 106.2707055  99.8424959 140.9727277 107.1846467
  99.0330029 141.3120506 105.9511710 103.8832065 151.3890048 102.3697529
 103.8056094 152.3397873 102.4486010 103.2793708 151.0435921 103.0272456
 106.3749294 138.5617914 115.0258896 105.5982629 139.1211834 115.0161761
 107.0139858 139.0474697 115.5473766 114.1670075 135.3444706 108.8601873
 113.5244455 135.6377240 108.2141667 113.6625004 135.2297627 109.6655070
 111.8210239 139.0907880  99.5487732 112.7328095 139.3235266  99.3735430
 111.3119886 139.6744924  98.9862811 104.6295667 141.3703367 114.5876863
 105.3710351 141.9088411 114.3111687 103.9232652 141.9969656 114.7448415
 110.1051006 143.5132507 113.1849025 110.5134362 143.0714918 112.4403657
 109.3828268 142.9385135 113.4383218 106.4582076 138.4505114 110.5582582
 107.3043272 138.8744528 110.7017231 106.3980714 137.7938738 111.2521145
 110.4279821 144.0733698 106.9401314 109.7988683 144.2379412 106.2377381
 110.0405483 144.4875308 107.7112278 114.3069053 145.0088136 104.2945677
 113.6220091 145.3887037 103.7442711 114.3912902 145.6183463 105.0277625
 109.6081522 136.1109483 112.2163755 109.3642454 136.8651543 111.6798031
 109.8841452 136.4894830 113.0511002 111.5619985 142.6548095 110.8941021
 111.7736880 143.2979855 110.2175402 111.5149733 141.8210411 110.4262951
 109.1646214 135.2665916 107.7977593 108.3030693 135.5647169 108.0894331
 109.1908648 135.4836314 106.8658626 105.9807783 143.8108106 104.2051399
 106.4446128 144.0895809 103.4156021 105.7164581 142.9091551 104.0224489
 102.8731864 143.3579588 107.1431162 103.4433221 143.7866856 106.5048646
 103.4639976 143.0762172 107.8415348 104.9176669 139.9331258 101.0140964
 105.6200712 140.3852302 101.4814890 104.5857297 139.2915077 101.6420857
 103.3657031 138.5243015 115.3892173 102.7355691 139.2059296 115.6227570
 103.2593118 138.4126097 114.4445311  98.6602003 138.1914811 106.3158097
  97.8701057 138.4472340 105.8398208  99.1513250 139.0063149 106.4210138
 112.6765813 145.5320050 109.0663378 113.4983256 145.1300238 108.7846060
 112.6728215 145.4288284 110.0179494 100.6116748 138.5559390 103.2741574
  99.8147912 138.6678085 103.7925070 100.3842341 138.8946043 102.4082465
 106.4422416 145.0804094 111.2224089 106.5066848 145.5424501 112.0582261
 105.7333340 144.4501459 111.3506399 120.7671806 141.8758799 105.4148350
 120.0135514 141.3066197 105.2592354 120.9019347 141.8421463 106.3618984
 106.1570434 146.7472201 101.0903069 106.0216108 147.5923737 101.5187917
 106.6980246 146.9491479 100.3269003 102.6437773 132.8263781 117.7517424
 102.2504719 132.2729980 118.4265069 103.4603914 133.1374359 118.1423942
  99.6099831 144.2647639 101.6630994 100.1224352 145.0590889 101.8136559
 100.2622544 143.5673930 101.5964596 101.4194716 147.3813395 103.7453747
 101.5961344 148.3031360 103.5574731 102.2151549 147.0671815 104.1748127
 105.5605734 134.2421660 115.3437681 106.3015448 134.8428813 115.2642143
 105.7923657 133.4999298 114.7855723 100.7047072 139.4278027 113.6215911
 100.5900587 138.5263285 113.9223009  99.8491590 139.6741724 113.2700727
 107.7838910 147.3695768 115.2203411 107.3402764 146.5832146 114.9024316
 108.4456124 147.5574918 114.5547302 102.5426031 148.8991569 109.7464090
 103.0933456 148.7708633 108.9741084 101.7037507 149.1986458 109.3958982
 109.8820148 147.6498568 113.2484812 109.8638623 148.4707449 112.7565082
 110.8040068 147.5252643 113.4734954 106.3393202 145.1642697 114.0908321
 106.8721539 144.4030985 113.8607629 105.8107283 144.8716349 114.8332475
 109.5062897 130.2702763 109.6201963 109.1627167 131.1604405 109.5441073
 109.8741860 130.0804421 108.7571548  97.5748748 142.5936293 102.4390565
  98.4123970 143.0033302 102.2224272  97.7527015 141.6535736 102.4090759
 109.4713180 140.2611374  98.1274398 108.9559803 141.0315979  98.3662785
 109.1990488 139.5876510  98.7507459 107.0560291 135.1061075 103.1859636
 106.2001887 134.7167925 103.0065275 107.4687243 135.1853036 102.3259422
 108.5859438 132.6407418 107.5851196 108.0824233 132.6037553 106.7719001
 108.8790044 133.5500161 107.6447852 104.8302323 132.7246148 106.5917378
 105.6955320 132.5288957 106.2323267 104.8979832 132.4956500 107.5186734
 114.4447454 143.0143729 100.0627571 113.6676897 142.6754888  99.6182733
 115.1238935 143.0196352  99.3882536 109.2599483 138.1338466  99.9534179
 108.9549619 138.4484615 100.8044322 110.2129925 138.2119886  99.9961512
 107.7045915 144.2928690 101.6027133 107.1767276 143.5581449 101.2900370
 107.2033418 145.0703366 101.3567101 112.6838761 142.4877710 106.7194179
 112.0262435 143.1776971 106.8074308 113.4879160 142.8774142 107.0628165
 102.4364643 134.9548356 103.9633744 103.0108394 134.7323537 103.2306937
 103.0235625 135.0237050 104.7162346 111.4944220 140.8422083 104.7698121
 112.0076101 141.4752075 105.2719831 112.1445444 140.2423278 104.4041481
 102.7634230 136.9852817  97.9829630 101.9271542 137.3227503  98.3038904
 102.6238999 136.8501797  97.0456767 104.7387310 131.8289605 102.6908814
 104.0851723 131.5138622 102.0665429 104.6967784 131.2065345 103.4168637
 105.8498515 142.1108900  94.6062106 104.9425577 141.8798153  94.8053255
 106.3469547 141.3146519  94.7936087 108.7566594 150.8206407  97.5258792
 108.0828293 151.1238104  98.1343750 109.1432416 151.6235487  97.1764249
 107.9725051 138.3171538 107.0156461 107.0547612 138.5386485 106.8578149
 108.3885194 138.3917849 106.1568169 108.7560098 139.7162954 102.1459142
 109.5031917 140.2284351 101.8366264 109.0251688 139.3947007 103.0063535
 107.0286749 142.2121495  99.1286096 106.1197968 141.9280527  99.2258566
 107.0581832 142.6320573  98.2689403 112.2606016 145.8228084 102.8977263
 111.8068343 144.9818994 102.9542454 111.6299983 146.4589483 103.2352044
 111.2038936 136.7520070 104.1277931 110.4661692 136.2397456 104.4588174
 111.4565709 136.3120452 103.3161208 110.7038955 147.6604581 103.8327082
 110.9961930 148.2209638 103.1139447 111.2137576 147.9533142 104.5880241
 111.3050563 129.5296322 104.7219700 111.6109440 128.6693686 104.4345615
 112.0303168 130.1213942 104.5218694  97.5974919 139.9327009 103.1101298
  97.3999319 139.3396369 102.3852365  97.0421583 139.6279219 103.8277237
 105.5771643 139.8250115 105.2295891 105.6320252 138.8723952 105.1538368
 104.7662845 139.9809554 105.7137190 106.7262836 143.7530238  96.4674175
 106.2882266 143.0366097  96.0079812 107.4673277 143.9806353  95.9059266
 103.5164002 138.4427175 102.9886270 102.7031868 138.7421346 103.3951462
 104.0122997 138.0482864 103.7060752 105.6672580 148.4384932 104.9220535
 105.6248759 148.6645778 103.9929067 106.5835279 148.2048307 105.0706336
 109.1138214 138.9068999 111.8201164 109.4687602 139.1340473 112.6795630
 109.7610345 139.2387376 111.1978419 114.8435951 142.0287435 102.5250493
 114.7053850 142.2189031 101.5971682 114.4872170 142.7906818 102.9818544
 103.0078077 136.0145531 108.6047505 103.6477457 135.8734290 107.9070468
 102.1755608 135.7280044 108.2286107 114.8705331 144.0963962 107.5361765
 115.3041837 144.0039251 108.3844819 115.5836911 144.0721463 106.8981781
 103.7838381 145.3147961 104.7182498 104.5778980 144.8198281 104.5165073
 103.0730074 144.7865824 104.3550203 108.6033226 147.6966056 109.0694865
 108.6570248 148.2656993 109.8372581 107.7348007 147.8667942 108.7048902
 100.0921145 139.4591043 100.7942250  99.1618733 139.3975498 101.0112212
 100.1878617 138.9366995  99.9978892 100.0106694 135.9845856 103.3820492
 100.2713511 136.8991189 103.2729652 100.8323866 135.5170298 103.5317105
 101.4831619 137.3983613 110.5519316 102.1554672 137.1900975 109.9031965
 100.6561406 137.2005699 110.1124549 115.7320880 144.1387663 110.0694650
 115.9256770 145.0433474 110.3153925 115.6321498 143.6795082 110.9033235
 107.3857191 134.0245554 112.5684977 106.7385106 134.7235503 112.4749454
 108.1558206 134.4581698 112.9361226 110.7935989 144.2894406 115.6435531
 110.6421495 144.0604957 114.7265614 110.7840668 145.2465007 115.6566876
 107.5621325 141.8626319 110.6281797 108.4913385 142.0137478 110.4550764
 107.1412355 141.9510339 109.7730444 106.3609657 145.8876983 108.3980335
 106.2220743 145.5195767 109.2706273 105.5724253 146.4024622 108.2264292
 106.9557809 150.9886079  99.7405871 107.1309565 150.5174123 100.5551494
 106.2690597 151.6151846  99.9687132 107.9114872 145.2658586 105.7869172
 107.5764705 145.2259356 106.6826822 107.4118818 144.6003302 105.3139583
 101.8859116 140.6726216 111.3121754 101.7478914 139.9406454 111.9133293
 102.7964040 140.5835116 111.0305941 110.8474064 142.6114620  96.0606232
 110.2303235 141.8861448  95.9639285 110.3790552 143.3723980  95.7173306
 104.5141417 140.3846175 110.8005433 105.2241035 139.7439367 110.7592052
 104.4710725 140.6359070 111.7231614 112.5028196 147.3213528 113.7212012
 112.4440742 146.6372748 113.0542595 112.9047714 148.0632518 113.2692638
 103.2270351 137.3711393 112.6201073 102.6907708 136.9202131 113.2722669
 102.6387059 137.5057302 111.8771537 101.5218894 154.1375442 106.5145731
 101.7615493 154.7693966 107.1924750 100.6788091 153.7863482 106.8011091
 102.6372610 136.8300044  95.1827536 101.7602076 136.7088845  94.8189783
 103.1130363 136.0386123  94.9306425 112.5045603 145.2853112 111.9525992
 111.6172382 144.9479034 112.0752391 113.0744154 144.5536143 112.1894758
  94.1574750 141.6177204 105.2769044  94.8445790 141.3038934 104.6890059
  94.0022879 142.5218569 105.0036295 106.0346756 149.9454565 108.9187235
 105.9616928 150.7509536 109.4306540 105.5924149 150.1446530 108.0935257
 105.8236536 149.1826335 102.4290057 105.0404058 149.7248015 102.5228281
 106.5229281 149.7000314 102.8284298 109.1333186 134.9920964 105.0724262
 109.6301886 134.2390926 104.7525333 108.3620168 135.0285281 104.5067472
 116.9862943 140.6961330 106.7142554 116.9752820 141.5786045 106.3436487
 116.1180323 140.3432880 106.5197091 108.4945440 149.8441399 111.0745394
 109.2073412 150.4788863 111.0021295 108.0035468 149.9405265 110.2585396
 110.2162967 143.7492651 102.6462686 109.2819245 143.8694114 102.4767390
 110.3939635 142.8465118 102.3822696 105.7168155 137.1338347 104.7995947
 105.3465942 136.5809387 105.4876852 106.2127247 136.5296481 104.2470947
 113.6035518 139.5909971 103.1812720 114.0695970 140.4237962 103.1073022
 114.0543019 139.1254952 103.8857978 103.5457353 147.5935842 111.8950965
 104.2466813 148.2272325 112.0480359 103.0752468 147.9350574 111.1346604
 111.6711749 145.9353792 100.1798872 111.9471593 145.8210386 101.0892746
 110.8016248 145.5371277 100.1411045 111.5752181 131.9590558 107.2203621
 110.6615261 132.1894784 107.3885828 112.0045282 132.0429002 108.0717654
 111.3458639 140.1480450 109.7203515 110.6930090 140.3956357 109.0655968
 111.7239019 139.3344588 109.3865992 108.3065813 150.1840143 103.8231685
 108.4888208 149.3661799 104.2859438 109.1298799 150.4007835 103.3856575
 108.6407979 149.1108328 101.0846734 109.1695745 148.6000782 100.4716896
 108.9036198 148.7950858 101.9492267 107.3946212 140.8900261 116.2069552
 106.7186849 140.7894390 116.8771927 108.2173846 140.7339474 116.6705549
  99.1425071 147.1272197 108.8282067  99.7278508 146.3815885 108.9609972
  98.9449910 147.4376154 109.7118731 101.9963727 150.1623445 103.8444510
 101.3274102 150.6469572 103.3608550 101.8576596 150.4092665 104.7587888
 106.1368995 152.1967188 110.4427168 106.6887303 152.3598810 111.2076253
 106.4775189 152.7871626 109.7707193 101.1133488 134.5442338 111.0449053
 101.1774815 135.4057169 110.6326451 101.0500609 133.9316340 110.3121411
 100.5885761 136.6165470 114.6922087 101.2157800 136.2342548 115.3059612
  99.7313680 136.3979672 115.0577780 110.9879870 147.0228446 116.2975823
 111.5319773 147.6358404 115.8030777 110.4066714 147.5808024 116.8142836
  97.3651304 138.4241900 100.6240442  97.6604745 137.5152578 100.5707496
  96.4639339 138.4029639 100.3021444 109.2737382 150.1449164 107.4290850
 109.1488522 149.3438903 106.9201796 109.9316474 150.6395357 106.9404820
 100.8945551 136.4997896 106.6067991 100.1732136 137.1133864 106.4675464
 101.6838806 137.0355661 106.5284637 111.3372291 147.9458184 109.0570400
 110.3902626 147.8263535 108.9848727 111.6855064 147.0580682 109.1396662
 103.6971864 133.8352323 112.8808642 104.2206266 134.0814619 113.6434952
 103.4784197 134.6672357 112.4611780  99.0939145 136.1055997 100.7479767
  98.7651851 135.2253376 100.5654873  99.4478516 136.0503666 101.6356156
 108.3418724 147.7410900 105.2574753 108.1943687 146.8127607 105.4382323
 109.1672218 147.7630991 104.7731828 102.2080968 136.3928967 101.1155245
 102.5477041 136.9214888 100.3933853 102.6553089 136.7309373 101.8913811
 111.9452846 148.5639459 106.3439625 112.8699393 148.3582320 106.2064077
 111.7768149 148.3155860 107.2528967 104.9024409 134.7766018 110.5658313
 104.5621230 133.9773831 110.9678993 104.1963416 135.0767729 109.9935146
 105.5540881 131.8615330 109.0185636 106.3766950 131.3875808 108.8964526
 105.7978945 132.6405814 109.5184322 104.1949116 134.8903589  99.3148538
 104.9157478 135.2684841  98.8112254 103.5714420 135.6092465  99.4183516
 108.3380238 135.5948738 100.2506870 108.5543853 136.4773375  99.9495698
 107.8574306 135.2034951  99.5212512 103.0779460 138.5534451 106.8277615
 102.9324041 138.8674754 107.7201896 102.6004663 139.1719351 106.2748513
 104.9375843 135.5436999 106.8758504 104.9237411 134.6478092 106.5390802
 105.6548271 135.5507662 107.5096790 106.7901973 135.9774339 108.9211632
 106.5319751 136.8991410 108.9195962 106.2587014 135.5804773 109.6112096
 111.7348162 149.0825126 101.7001717 111.9085040 148.5171549 100.9475569
 112.2277053 149.8826021 101.5181207 104.3412739 134.4251379 102.1446074
 104.4628650 133.4968025 102.3436962 104.0514781 134.4390065 101.2324390
 107.2103929 132.1106289 105.2812794 107.2325626 132.1745623 104.3264774
 107.6271988 131.2710798 105.4753300 117.5887553 141.8461549 103.3192017
 118.0318699 141.0968874 102.9211140 116.7114064 141.8371685 102.9365749
 112.7223335 148.3991890  98.7998615 113.4174239 149.0198583  99.0185930
 113.0646485 147.5487242  99.0750993  98.3391144 140.2209691 112.6595433
  97.5972880 140.3692327 113.2460063  98.0183888 140.4817957 111.7962182
 114.6214758 145.8491596 100.3285946 115.1466082 146.1878869  99.6035266
 114.5337110 144.9138611 100.1449081 106.2834807 149.7625670 112.4575823
 106.5921933 149.5174816 113.3298522 107.0810289 149.9672308 111.9694693
 106.3055419 151.9163579 104.6881199 105.8660409 151.4239958 105.3814056
 107.0563536 151.3736547 104.4473274  98.7847758 148.1075120 104.6905827
  99.6105777 147.8078892 104.3104471  98.4341810 147.3382743 105.1395616
 103.7529291 147.4601588 106.7603501 103.1309300 146.7972293 106.4605729
 104.4234158 147.4862720 106.0777149  96.9856363 146.0261447 105.6494761
  96.1488271 145.5983621 105.4678762  96.9580008 146.2193890 106.5865552
 103.8253818 135.9383376 116.3536007 103.8741974 136.8145499 115.9713776
 104.3676332 135.3960769 115.7807650 114.3108664 146.4824500 115.6337144
 113.5204208 146.4648638 115.0941643 114.0742018 147.0212793 116.3886181
 114.4306539 143.3316966 112.9469872 114.4804544 143.1666973 113.8885395
 114.3220462 142.4644225 112.5567753 103.3142798 146.0105512 100.2361961
 103.4630918 146.6940976  99.5828634 104.1209241 145.9910602 100.7511417
 111.7210301 139.3147894 114.2629179 112.6220164 139.1754359 113.9713177
 111.7958276 139.4802349 115.2027357 106.0553107 136.6914749 113.1082365
 105.1856416 136.9848315 112.8364954 106.2912587 137.2755194 113.8289629
 115.9324736 145.7513908 113.1911894 115.6409544 146.1143888 114.0275355
 115.3196867 145.0380916 113.0125226 117.1320418 143.3166787 105.7114464
 117.9667309 143.7556591 105.8752025 117.2679547 142.8405441 104.8922710
 114.1811924 140.8746522 111.6591952 114.6566046 141.0674168 110.8510803
 113.2577489 140.9305708 111.4135336 101.0695431 142.0370689 101.2423030
 100.8241473 141.1333019 101.4403240 101.2391345 142.0387840 100.3002508
 108.7592140 132.9094366 110.6247786 109.2774084 133.6455393 110.2994274
 108.4047273 133.2158359 111.4594545 100.3391078 137.7699047  98.7409192
  99.6460323 137.8443402  98.0849228 100.0942830 137.0059391  99.2630709
 109.0104735 129.3294648 106.1448682 109.2906488 128.6617837 106.7709109
 109.7955342 129.5223744 105.6323346 106.8138203 148.5053642  97.7073709
 106.2412170 149.1243829  97.2544181 107.3870997 149.0553004  98.2413631
 112.8813593 137.7512282 109.8920258 113.8331016 137.8510380 109.9132482
 112.7117043 136.9590551 110.4018342 110.9027972 134.8367865 110.0779659
 110.3077905 135.1172878 109.3826147 110.6177669 135.3261766 110.8496400
 110.0335463 148.7890792  98.8382291 110.9666136 148.7236354  99.0415167
 109.9458676 149.6247059  98.3796824 112.6623480 148.1056663  95.7986239
 112.5837111 147.7716526  96.6921997 113.4833146 148.5978431  95.7977711
 115.3601671 140.9718402 109.0062557 115.3277991 140.0334403 109.1922241
 115.9702294 141.0502439 108.2728382 107.1985002 139.8414455  95.0489761
 108.1444106 139.7120663  95.1178179 106.8199247 139.1029117  95.5259189
 115.5096159 137.7629445 109.0520840 114.9935208 136.9787902 108.8650769
 116.3936108 137.4348162 109.2167360 113.1706886 131.5070461 105.0116653
 112.9731707 131.1985549 105.8959985 113.7806592 132.2332100 105.1414583
 121.1778221 142.0334409 108.1468594 121.9081609 141.7719697 108.7076297
 120.5685166 141.2963131 108.1870662 119.2593518 140.1742271 108.7443045
 118.5326681 140.0398236 108.1359537 118.8440805 140.4819100 109.5499763
 107.0823694 143.8932201 116.5090418 108.0026704 144.0710800 116.7030465
 107.0473277 142.9488246 116.3570118 105.3827919 137.7664431  94.9844647
 104.4759374 137.4697544  95.0607360 105.6603900 137.4694249  94.1178933
 100.0785767 141.8033236 109.1513199 100.2971777 142.7350344 109.1701233
 100.4911541 141.4441210 109.9368003 106.9989985 132.3101321 101.1388888
 106.1890713 131.9648406 101.5144134 107.6874401 132.0008865 101.7276499
 108.9280533 131.3879368 102.7613184 109.4811571 131.8074821 103.4203208
 109.1650619 130.4615116 102.8036140 104.9513632 137.3766441 118.5415948
 104.8510359 138.3260798 118.4728039 104.7335174 137.0484680 117.6692018
 104.1526703 134.6251367  95.1256626 105.0145867 134.9506265  95.3852443
 104.3377048 133.8382862  94.6129692  96.1694119 142.7073706 107.4036814
  95.4757591 142.2927659 106.8906769  96.9167110 142.7494243 106.8070233
 112.3059340 133.4979893 102.2691849 111.7258009 134.1564697 101.8869901
 112.0395273 132.6757238 101.8579266 110.7562906 132.8984951 104.4713169
 111.2562685 133.0101485 103.6627488 111.3998514 132.5946004 105.1113977
 104.8144902 140.8063580 117.3581010 104.3311984 141.6063940 117.5644899
 104.9005841 140.8171525 116.4048454  98.0830862 142.6391960 105.2802829
  98.0601550 142.7379647 104.3284712  98.3931498 143.4857111 105.6019996
 100.7418240 144.6968115 109.3949444 101.6961493 144.6652057 109.3279375
 100.5430763 144.2358739 110.2099670 101.3317622 143.2669231 111.9620241
 102.1510511 143.7613310 111.9855079 101.6054429 142.3501199 111.9337809
 111.0884218 135.6579983 101.3248197 110.2010073 135.9429634 101.1068392
 111.5038207 135.4973747 100.4775474 114.4398754 135.6826504 105.0402536
 115.2159144 136.1722957 105.3127153 113.7146888 136.1084559 105.4974406
 116.8771313 136.3954124 106.0976477 117.4715803 136.1549860 105.3869785
 116.9497896 135.6761254 106.7250013  99.0968468 150.2387734 106.4119642
  98.9622936 149.4788135 105.8457640  98.6800531 150.9628634 105.9448431
 110.2327431 145.4224658  95.4196217 110.9363282 145.6274661  96.0353873
 109.5090080 145.9901420  95.6845300 111.0625242 141.1734519 101.5398487
 111.0060443 141.6303071 100.7006120 111.6153584 140.4125204 101.3621330
 114.8730048 136.9624251 102.3648607 114.6166982 136.5620887 103.1956814
 114.2482916 137.6768045 102.2398746 119.1842385 139.7020324 104.8719898
 118.6241943 139.7713514 105.6451460 118.5785889 139.5261309 104.1519394
 102.2537594 151.1357052 106.6238084 102.1369978 152.0802484 106.5216775
 101.4330041 150.8330613 107.0123884 112.1414129 145.8607187  97.4694677
 112.9759733 145.4288386  97.2872152 111.9798472 145.6889201  98.3971571
 111.7960021 142.3639301  98.8351016 111.7408825 142.1983572  97.8939460
 111.1706076 143.0715333  98.9913206 109.1105928 144.6688212 118.1604579
 109.9797088 144.8428865 117.7991214 108.6312680 145.4882629 118.0380308
 105.1056146 131.8647410  98.4136335 105.0934816 132.8089249  98.5704606
 105.9979568 131.6817555  98.1195796 103.2792108 151.7885313 109.8394013
 104.1819355 151.8208924 110.1560508 103.0529478 150.8585764 109.8540349
 105.0345710 150.5416300 106.5004091 104.0841341 150.5418162 106.3868464
 105.3378197 149.7949035 105.9840126 108.9208266 128.4590186 102.6682272
 108.1540662 127.9048673 102.8138954 109.3318971 128.5312055 103.5296423
 100.9250027 134.7474982 116.7587453 101.7881489 134.3911787 116.9690777
 100.3515438 134.4088877 117.4462857 120.7698404 156.3776838 107.5649854
 121.4076814 156.2583586 106.8613194 120.6519247 157.3257682 107.6237806
 117.5788110 156.3304266 107.5011378 117.2406622 156.2145331 106.6131913
 118.4477878 155.9295432 107.4812385 113.4374926 158.1839743 103.4908269
 112.8739791 158.0929680 102.7224557 113.3227321 157.3639647 103.9710762
 118.0607893 157.4839118 113.4597584 118.0496534 157.0891916 112.5878088
 118.2228533 156.7505191 114.0531355 110.9839358 159.6790934 106.3292490
 111.7760650 159.3381759 105.9138789 111.2236008 159.7885910 107.2494643
 119.0174485 161.8510711  98.8022734 118.3662464 162.4364791  98.4156748
 119.8118847 162.3816905  98.8617772 112.9430112 158.9399848  99.2009869
 113.7160988 158.3928835  99.0622744 113.2955511 159.8044097  99.4124330
 114.7815154 160.2676230 112.4076768 114.4905020 161.1721861 112.2923434
 115.4172139 160.3092758 113.1220838 115.7071361 157.6453078 108.9978128
 116.3034933 157.4209101 108.2835091 115.7646333 156.9037824 109.6003575
 115.2796390 155.0992514  96.8328319 115.5321910 154.5774035  96.0711782
 114.3420949 154.9358659  96.9355002 120.3239672 154.1028292 104.6403062
 121.1102762 153.6847715 104.2893479 120.5878377 155.0074384 104.8084710
 120.4949750 159.5401142  99.3391719 119.8595583 159.6135769 100.0512623
 120.1647156 160.1294741  98.6610798 125.7248100 154.0403525 105.5436040
 126.4573271 153.4702742 105.7773870 124.9687455 153.6525126 105.9842546
 114.9992678 157.0020620  99.0352694 114.8828936 156.3265523  99.7033778
 115.1094938 156.5152994  98.2184847 117.3424219 156.4630767 102.7399383
 116.9782426 155.9361388 103.4512304 118.1991335 156.0729236 102.5665868
 123.2473520 147.7525099 110.0030649 122.9156845 148.6220510 109.7791864
 122.6519133 147.4361383 110.6824679 116.9829706 151.4920667  97.7360731
 117.1504109 152.3600903  98.1031202 116.7926875 151.6547948  96.8122021
 119.7405039 159.9537645 109.4026562 119.4405762 160.8562684 109.2942369
 119.3956099 159.6869829 110.2547715 113.1917521 156.4051442 105.4363266
 112.2668017 156.2727656 105.6440958 113.4401934 157.1845662 105.9333208
 123.1402183 152.4720186 107.0823999 122.2319061 152.4035594 106.7882760
 123.0889779 152.9492131 107.9105824 116.9618927 153.9478324  98.7207398
 116.8418552 154.3935375  99.5592878 116.2671515 154.2963642  98.1620936
 110.5526332 156.0484716 106.2707055 110.6818713 156.3019195 107.1846467
 109.8723783 156.6412424 105.9511710 117.2143049 153.8909831 115.0258896
 116.4376383 154.4503751 115.0161761 117.8533612 154.3766614 115.5473766
 125.0063830 150.6736624 108.8601873 124.3638210 150.9669157 108.2141667
 124.5018758 150.5589544 109.6655070 122.6603993 154.4199797  99.5487732
 123.5721849 154.6527184  99.3735430 122.1513640 155.0036841  98.9862811
 115.4689421 156.6995285 114.5876863 116.2104106 157.2380329 114.3111687
 114.7626407 157.3261573 114.7448415 120.9444761 158.8424425 113.1849025
 121.3528117 158.4006836 112.4403657 120.2222022 158.2677053 113.4383218
 117.2975831 153.7797032 110.5582582 118.1437026 154.2036445 110.7017231
 117.2374469 153.1230656 111.2521145 121.2673576 159.4025616 106.9401314
 120.6382438 159.5671330 106.2377381 120.8799238 159.8167225 107.7112278
 120.4475276 151.4401400 112.2163755 120.2036208 152.1943461 111.6798031
 120.7235207 151.8186748 113.0511002 122.4013739 157.9840013 110.8941021
 122.6130634 158.6271772 110.2175402 122.3543487 157.1502329 110.4262951
 120.0039968 150.5957833 107.7977593 119.1424447 150.8939087 108.0894331
 120.0302403 150.8128232 106.8658626 116.8201537 159.1400024 104.2051399
 117.2839883 159.4187727 103.4156021 116.5558336 158.2383468 104.0224489
 113.7125618 158.6871505 107.1431162 114.2826976 159.1158774 106.5048646
 114.3033730 158.4054090 107.8415348 115.7570423 155.2623176 101.0140964
 116.4594467 155.7144220 101.4814890 115.4251052 154.6206995 101.6420857
 114.2050785 153.8534933 115.3892173 113.5749446 154.5351214 115.6227570
 114.0986873 153.7418014 114.4445311 109.4995757 153.5206729 106.3158097
 108.7094811 153.7764257 105.8398208 109.9907005 154.3355067 106.4210138
 123.5159567 160.8611968 109.0663378 124.3377011 160.4592155 108.7846060
 123.5121970 160.7580202 110.0179494 111.4510503 153.8851308 103.2741574
 110.6541666 153.9970002 103.7925070 111.2236095 154.2237960 102.4082465
 117.2816170 160.4096011 111.2224089 117.3460603 160.8716419 112.0582261
 116.5727094 159.7793376 111.3506399 107.7833460 153.7737219 108.7473088
 108.0341499 154.6584229 109.0130664 108.3193009 153.5941821 107.9748180
 116.9964188 162.0764119 101.0903069 116.8609863 162.9215655 101.5187917
 117.5374001 162.2783396 100.3269003 113.4831528 148.1555699 117.7517424
 113.0898473 147.6021897 118.4265069 114.2997668 148.4666277 118.1423942
 110.4493585 159.5939557 101.6630994 110.9618106 160.3882807 101.8136559
 111.1016298 158.8965847 101.5964596 112.2588470 162.7105313 103.7453747
 112.4355099 163.6323278 103.5574731 113.0545304 162.3963732 104.1748127
 116.3999489 149.5713578 115.3437681 117.1409202 150.1720731 115.2642143
 116.6317412 148.8291216 114.7855723 111.5440827 154.7569945 113.6215911
 111.4294342 153.8555202 113.9223009 110.6885344 155.0033642 113.2700727
 113.3819786 164.2283487 109.7464090 113.9327211 164.1000550 108.9741084
 112.5431262 164.5278376 109.3958982 117.1786957 160.4934615 114.0908321
 117.7115293 159.7322903 113.8607629 116.6501038 160.2008267 114.8332475
 120.3456652 145.5994681 109.6201963 120.0020921 146.4896322 109.5441073
 120.7135614 145.4096338 108.7571548 108.4142502 157.9228211 102.4390565
 109.2517724 158.3325219 102.2224272 108.5920770 156.9827653 102.4090759
 120.3106934 155.5903292  98.1274398 119.7953558 156.3607896  98.3662785
 120.0384243 154.9168428  98.7507459 117.8954045 150.4352993 103.1859636
 117.0395642 150.0459843 103.0065275 118.3080997 150.5144953 102.3259422
 119.4253192 147.9699336 107.5851196 118.9217988 147.9329471 106.7719001
 119.7183799 148.8792079 107.6447852 115.6696078 148.0538066 106.5917378
 116.5349075 147.8580874 106.2323267 115.7373587 147.8248417 107.5186734
 125.2841209 158.3435646 100.0627571 124.5070651 158.0046806  99.6182733
 125.9632689 158.3488270  99.3882536 120.0993238 153.4630384  99.9534179
 119.7943373 153.7776533 100.8044322 121.0523680 153.5411804  99.9961512
 118.5439669 159.6220607 101.6027133 118.0161031 158.8873367 101.2900370
 118.0427172 160.3995284 101.3567101 123.5232515 157.8169628 106.7194179
 122.8656190 158.5068889 106.8074308 124.3272915 158.2066060 107.0628165
 113.2758397 150.2840273 103.9633744 113.8502149 150.0615455 103.2306937
 113.8629379 150.3528968 104.7162346 122.3337974 156.1714000 104.7698121
 122.8469856 156.8043992 105.2719831 122.9839198 155.5715196 104.4041481
 113.6027984 152.3144735  97.9829630 112.7665296 152.6519421  98.3038904
 113.4632754 152.1793714  97.0456767 115.5781065 147.1581522 102.6908814
 114.9245477 146.8430540 102.0665429 115.5361539 146.5357263 103.4168637
 116.6892270 157.4400817  94.6062106 115.7819331 157.2090071  94.8053255
 117.1863302 156.6438437  94.7936087 118.8118805 153.6463456 107.0156461
 117.8941366 153.8678403 106.8578149 119.2278949 153.7209766 106.1568169
 119.5953853 155.0454872 102.1459142 120.3425672 155.5576269 101.8366264
 119.8645442 154.7238924 103.0063535 117.8680503 157.5413412  99.1286096
 116.9591722 157.2572445  99.2258566 117.8975587 157.9612491  98.2689403
 123.0999770 161.1520002 102.8977263 122.6462098 160.3110912 102.9542454
 122.4693737 161.7881400 103.2352044 122.0432690 152.0811988 104.1277931
 121.3055447 151.5689374 104.4588174 122.2959464 151.6412369 103.3161208
 122.1444317 144.8588240 104.7219700 122.4503194 143.9985603 104.4345615
 122.8696922 145.4505860 104.5218694 108.4368673 155.2618926 103.1101298
 108.2393073 154.6688287 102.3852365 107.8815337 154.9571137 103.8277237
 116.4165397 155.1542033 105.2295891 116.4714007 154.2015869 105.1538368
 115.6056599 155.3101472 105.7137190 117.5656591 159.0822156  96.4674175
 117.1276021 158.3658015  96.0079812 118.3067032 159.3098271  95.9059266
 114.3557757 153.7719093 102.9886270 113.5425623 154.0713263 103.3951462
 114.8516751 153.3774781 103.7060752 116.5066335 163.7676850 104.9220535
 116.4642514 163.9937696 103.9929067 117.4229034 163.5340224 105.0706336
 119.9531969 154.2360917 111.8201164 120.3081356 154.4632390 112.6795630
 120.6004100 154.5679294 111.1978419 125.6829706 157.3579353 102.5250493
 125.5447604 157.5480949 101.5971682 125.3265924 158.1198736 102.9818544
 113.8471832 151.3437448 108.6047505 114.4871211 151.2026207 107.9070468
 113.0149362 151.0571962 108.2286107 114.6232136 160.6439879 104.7182498
 115.4172734 160.1490199 104.5165073 113.9123828 160.1157742 104.3550203
 119.4426980 163.0257974 109.0694865 119.4964002 163.5948910 109.8372581
 118.5741761 163.1959859 108.7048902 110.9314899 154.7882960 100.7942250
 110.0012487 154.7267416 101.0112212 111.0272371 154.2658913  99.9978892
 110.8500448 151.3137773 103.3820492 111.1107265 152.2283106 103.2729652
 111.6717620 150.8462216 103.5317105 112.3225373 152.7275530 110.5519316
 112.9948427 152.5192892 109.9031965 111.4955160 152.5297616 110.1124549
 118.2250946 149.3537471 112.5684977 117.5778861 150.0527421 112.4749454
 118.9951961 149.7873615 112.9361226 118.4015080 157.1918236 110.6281797
 119.3307140 157.3429396 110.4550764 117.9806110 157.2802257 109.7730444
 117.2003412 161.2168901 108.3980335 117.0614497 160.8487685 109.2706273
 116.4118008 161.7316540 108.2264292 118.7508627 160.5950503 105.7869172
 118.4158459 160.5551273 106.6826822 118.2512572 159.9295219 105.3139583
 112.7252871 156.0018133 111.3121754 112.5872669 155.2698372 111.9133293
 113.6357794 155.9127033 111.0305941 121.6867818 157.9406538  96.0606232
 121.0696989 157.2153366  95.9639285 121.2184307 158.7015898  95.7173306
 115.3535171 155.7138093 110.8005433 116.0634790 155.0731285 110.7592052
 115.3104480 155.9650987 111.7231614 114.0664105 152.7003311 112.6201073
 113.5301462 152.2494049 113.2722669 113.4780814 152.8349219 111.8771537
 113.4766364 152.1591962  95.1827536 112.5995831 152.0380763  94.8189783
 113.9524117 151.3678040  94.9306425 123.3439357 160.6145030 111.9525992
 122.4566136 160.2770952 112.0752391 123.9137908 159.8828061 112.1894758
 104.9968504 156.9469122 105.2769044 105.6839544 156.6330852 104.6890059
 104.8416633 157.8510486 105.0036295 109.8003227 151.8359318 109.7054067
 109.7161415 151.2284988 108.9704477 108.9785933 152.3268337 109.7063564
 116.6630290 164.5118252 102.4290057 115.8797812 165.0539932 102.5228281
 117.3623036 165.0292232 102.8284298 119.9726940 150.3212882 105.0724262
 120.4695640 149.5682844 104.7525333 119.2013922 150.3577198 104.5067472
 127.8256698 156.0253247 106.7142554 127.8146574 156.9077963 106.3436487
 126.9574077 155.6724798 106.5197091 121.0556721 159.0784569 102.6462686
 120.1213000 159.1986031 102.4767390 121.2333390 158.1757036 102.3822696
 116.5561909 152.4630265 104.7995947 116.1859697 151.9101305 105.4876852
 117.0521002 151.8588398 104.2470947 124.4429273 154.9201888 103.1812720
 124.9089725 155.7529880 103.1073022 124.8936773 154.4546870 103.8857978
 114.3851108 162.9227760 111.8950965 115.0860567 163.5564243 112.0480359
 113.9146223 163.2642491 111.1346604 122.5105504 161.2645710 100.1798872
 122.7865348 161.1502304 101.0892746 121.6410002 160.8663194 100.1411045
 122.4145935 147.2882475 107.2203621 121.5009015 147.5186702 107.3885828
 122.8439037 147.3720919 108.0717654 122.1852394 155.4772367 109.7203515
 121.5323844 155.7248275 109.0655968 122.5632774 154.6636505 109.3865992
 118.2339967 156.2192178 116.2069552 117.5580604 156.1186308 116.8771927
 119.0567601 156.0631392 116.6705549 109.9818826 162.4564115 108.8282067
 110.5672263 161.7107803 108.9609972 109.7843664 162.7668072 109.7118731
 112.8357481 165.4915362 103.8444510 112.1667856 165.9761490 103.3608550
 112.6970351 165.7384583 104.7587888 104.5736481 155.0269715 107.5486511
 104.6120580 154.4933306 108.3423629 104.0676773 154.5004921 106.9297488
 111.9527243 149.8734256 111.0449053 112.0168569 150.7349086 110.6326451
 111.8894363 149.2608257 110.3121411 111.4279515 151.9457388 114.6922087
 112.0551554 151.5634465 115.3059612 110.5707434 151.7271590 115.0577780
 108.2045058 153.7533817 100.6240442 108.4998499 152.8444496 100.5707496
 107.3033094 153.7321557 100.3021444 111.7339305 151.8289814 106.6067991
 111.0125891 152.4425781 106.4675464 112.5232561 152.3647579 106.5284637
 114.5365619 149.1644240 112.8808642 115.0600021 149.4106537 113.6434952
 114.3177952 149.9964275 112.4611780 109.9332900 151.4347915 100.7479767
 109.6045606 150.5545294 100.5654873 110.2872270 151.3795584 101.6356156
 119.1812479 163.0702818 105.2574753 119.0337441 162.1419525 105.4382323
 120.0065972 163.0922908 104.7731828 113.0474723 151.7220885 101.1155245
 113.3870795 152.2506806 100.3933853 113.4946843 152.0601291 101.8913811
 115.7418164 150.1057935 110.5658313 115.4014984 149.3065748 110.9678993
 115.0357170 150.4059646 109.9935146 116.3934636 147.1907248 109.0185636
 117.2160705 146.7167726 108.8964526 116.6372699 147.9697732 109.5184322
 115.0342870 150.2195506  99.3148538 115.7551233 150.5976759  98.8112254
 114.4108174 150.9384383  99.4183516 119.1773993 150.9240655 100.2506870
 119.3937607 151.8065293  99.9495698 118.6968060 150.5326869  99.5212512
 113.9173214 153.8826368 106.8277615 113.7717795 154.1966671 107.7201896
 113.4398418 154.5011269 106.2748513 115.7769597 150.8728916 106.8758504
 115.7631166 149.9770010 106.5390802 116.4942025 150.8799580 107.5096790
 117.6295728 151.3066257 108.9211632 117.3713506 152.2283327 108.9195962
 117.0980768 150.9096691 109.6112096 108.3918876 156.4231713 109.7665276
 107.8472345 157.1991521 109.8985550 109.2698226 156.7702517 109.6084397
 115.1806493 149.7543297 102.1446074 115.3022404 148.8259943 102.3436962
 114.8908536 149.7681983 101.2324390 118.0497684 147.4398207 105.2812794
 118.0719380 147.5037540 104.3264774 118.4665743 146.6002716 105.4753300
 128.4281308 157.1753467 103.3192017 128.8712454 156.4260792 102.9211140
 127.5507818 157.1663603 102.9365749 109.1784898 155.5501609 112.6595433
 108.4366634 155.6984244 113.2460063 108.8577643 155.8109875 111.7962182
 109.6241512 163.4367038 104.6905827 110.4499532 163.1370810 104.3104471
 109.2735564 162.6674660 105.1395616 114.5923045 162.7893506 106.7603501
 113.9703054 162.1264211 106.4605729 115.2627912 162.8154638 106.0777149
 107.8250117 161.3553364 105.6494761 106.9882025 160.9275539 105.4678762
 107.7973763 161.5485808 106.5865552 114.6647573 151.2675294 116.3536007
 114.7135728 152.1437417 115.9713776 115.2070087 150.7252687 115.7807650
 114.1536552 161.3397429 100.2361961 114.3024672 162.0232894  99.5828634
 114.9602996 161.3202519 100.7511417 122.5604056 154.6439812 114.2629179
 123.4613919 154.5046277 113.9713177 122.6352030 154.8094267 115.2027357
 116.8946861 152.0206666 113.1082365 116.0250171 152.3140233 112.8364954
 117.1306341 152.6047111 113.8289629 125.0205678 156.2038440 111.6591952
 125.4959800 156.3966086 110.8510803 124.0971244 156.2597626 111.4135336
 111.9089185 157.3662607 101.2423030 111.6635227 156.4624937 101.4403240
 112.0785100 157.3679757 100.3002508 119.5985895 148.2386283 110.6247786
 120.1167839 148.9747310 110.2994274 119.2441028 148.5450277 111.4594545
 111.1784833 153.0990965  98.7409192 110.4854078 153.1735320  98.0849228
 110.9336585 152.3351308  99.2630709 119.8498489 144.6586566 106.1448682
 120.1300243 143.9909755 106.7709109 120.6349096 144.8515662 105.6323346
 117.6531958 163.8345560  97.7073709 117.0805925 164.4535747  97.2544181
 118.2264751 164.3844922  98.2413631 123.7207347 153.0804200 109.8920258
 124.6724770 153.1802298 109.9132482 123.5510798 152.2882468 110.4018342
 121.7421727 150.1659783 110.0779659 121.1471659 150.4464796 109.3826147
 121.4571424 150.6553684 110.8496400 126.1995425 156.3010320 109.0062557
 126.1671745 155.3626320 109.1922241 126.8096049 156.3794356 108.2728382
 118.0378756 155.1706373  95.0489761 118.9837861 155.0412581  95.1178179
 117.6593001 154.4321034  95.5259189 126.3489914 153.0921363 109.0520840
 125.8328962 152.3079820 108.8650769 127.2329862 152.7640080 109.2167360
 124.0100641 146.8362379 105.0116653 123.8125462 146.5277467 105.8959985
 124.6200346 147.5624018 105.1414583 130.0987272 155.5034189 108.7443045
 129.3720436 155.3690154 108.1359537 129.6834559 155.8111018 109.5499763
 116.2221673 153.0956349  94.9844647 115.3153129 152.7989462  95.0607360
 116.4997654 152.7986167  94.1178933 107.1399614 154.4162712 105.4343693
 106.8202398 153.5628021 105.1418067 106.5933042 154.6311291 106.1901660
 110.9179521 157.1325153 109.1513199 111.1365531 158.0642261 109.1701233
 111.3305295 156.7733128 109.9368003 117.8383739 147.6393239 101.1388888
 117.0284467 147.2940324 101.5144134 118.5268156 147.3300782 101.7276499
 119.7674287 146.7171285 102.7613184 120.3205326 147.1366739 103.4203208
 120.0044374 145.7907034 102.8036140 115.7907387 152.7058359 118.5415948
 115.6904113 153.6552716 118.4728039 115.5728929 152.3776598 117.6692018
 114.9920458 149.9543284  95.1256626 115.8539622 150.2798183  95.3852443
 115.1770802 149.1674780  94.6129692 107.0087874 158.0365624 107.4036814
 106.3151345 157.6219577 106.8906769 107.7560865 158.0786160 106.8070233
 123.1453094 148.8271811 102.2691849 122.5651763 149.4856615 101.8869901
 122.8789027 148.0049155 101.8579266 121.5956661 148.2276868 104.4713169
 122.0956439 148.3393403 103.6627488 122.2392269 147.9237921 105.1113977
 115.6538657 156.1355498 117.3581010 115.1705738 156.9355858 117.5644899
 115.7399596 156.1463443 116.4048454 108.9224616 157.9683878 105.2802829
 108.8995304 158.0671565 104.3284712 109.2325253 158.8149028 105.6019996
 111.5811994 160.0260033 109.3949444 112.5355248 159.9943975 109.3279375
 111.3824518 159.5650656 110.2099670 112.1711376 158.5961149 111.9620241
 112.9904265 159.0905227 111.9855079 112.4448184 157.6793117 111.9337809
 121.9277972 150.9871901 101.3248197 121.0403827 151.2721552 101.1068392
 122.3431961 150.8265664 100.4775474 125.2792509 151.0118422 105.0402536
 126.0552899 151.5014874 105.3127153 124.5540643 151.4376476 105.4974406
 127.7165067 151.7246041 106.0976477 128.3109558 151.4841777 105.3869785
 127.7891651 151.0053172 106.7250013 109.9362223 165.5679652 106.4119642
 109.8016691 164.8080053 105.8457640 109.5194285 166.2920552 105.9448431
 121.0721186 160.7516576  95.4196217 121.7757036 160.9566578  96.0353873
 120.3483835 161.3193338  95.6845300 121.9018996 156.5026437 101.5398487
 121.8454198 156.9594988 100.7006120 122.4547339 155.7417122 101.3621330
 125.7123802 152.2916169 102.3648607 125.4560736 151.8912804 103.1956814
 125.0876670 153.0059963 102.2398746 130.0236140 155.0312242 104.8719898
 129.4635698 155.1005431 105.6451460 129.4179643 154.8553227 104.1519394
 113.0931349 166.4648969 106.6238084 112.9763733 167.4094402 106.5216775
 112.2723795 166.1622531 107.0123884 122.9807883 161.1899105  97.4694677
 123.8153487 160.7580303  97.2872152 122.8192226 161.0181119  98.3971571
 122.6353775 157.6931218  98.8351016 122.5802579 157.5275490  97.8939460
 122.0099831 158.4007251  98.9913206 107.4246290 152.9299283 112.6612439
 108.0705154 152.4198237 113.1499664 107.2163442 153.6667964 113.2355864
 115.9449901 147.1939327  98.4136335 115.9328571 148.1381167  98.5704606
 116.8373323 147.0109473  98.1195796 114.1185863 167.1177231 109.8394013
 115.0213110 167.1500841 110.1560508 113.8923233 166.1877682 109.8540349
 115.8739465 165.8708218 106.5004091 114.9235096 165.8710079 106.3868464
 116.1771951 165.1240952 105.9840126 119.7602020 143.7882104 102.6682272
 118.9934416 143.2340591 102.8138954 120.1712725 143.8603973 103.5296423
 111.7643781 150.0766900 116.7587453 112.6275243 149.7203705 116.9690777
 111.1909192 149.7380794 117.4462857  34.0548369  10.7503620  94.2895160
  34.6926779  10.6310367  93.5858500  33.9369212  11.6984463  94.3483113
  30.8638076  10.7031048  94.2256685  30.5256587  10.5872112  93.3377220
  31.7327844  10.3022213  94.2057691  26.7224891  12.5566524  90.2153576
  26.1589756  12.4656461  89.4469864  26.6077286  11.7366428  90.6956069
  31.3457858  11.8565899 100.1842891  31.3346499  11.4618698  99.3123394
  31.5078498  11.1231972 100.7776662  24.2689323  14.0517716  93.0537796
  25.0610615  13.7108540  92.6384096  24.5085973  14.1612691  93.9739950
  32.3024450  16.2237492  85.5268041  31.6512430  16.8091572  85.1402055
  33.0968813  16.7543687  85.5863078  26.2280077  13.3126629  85.9255175
  27.0010953  12.7655616  85.7868051  26.5805476  14.1770878  86.1369637
  28.0665120  14.6403011  99.1322075  27.7754986  15.5448642  99.0168741
  28.7022104  14.6819539  99.8466144  28.9921326  12.0179860  95.7223434
  29.5884899  11.7935882  95.0080397  29.0496298  11.2764605  96.3248882
  28.5646355   9.4719295  83.5573625  28.8171876   8.9500816  82.7957088
  27.6270914   9.3085440  83.6600309  33.6089638   8.4755073  91.3648368
  34.3952727   8.0574497  91.0138785  33.8728342   9.3801166  91.5330017
  33.7799715  13.9127924  86.0637025  33.1445548  13.9862550  86.7757930
  33.4497121  14.5021523  85.3856104  39.0098065   8.4130307  92.2681347
  39.7423237   7.8429523  92.5019176  38.2537421   8.0251907  92.7087853
  28.2842644  11.3747401  85.7598000  28.1678902  10.6992304  86.4279084
  28.3944904  10.8879775  84.9430153  30.6274185  10.8357548  89.4644689
  30.2632392  10.3088169  90.1757611  31.4841300  10.4456017  89.2911175
  36.5323485   2.1251881  96.7275956  36.2006810   2.9947292  96.5037171
  35.9369099   1.8088165  97.4069986  30.2679672   5.8647448  84.4606038
  30.4354074   6.7327684  84.8276509  30.0776841   6.0274729  83.5367327
  33.0255005  14.3264427  96.1271868  32.7255728  15.2289465  96.0187676
  32.6806064  14.0596610  96.9793021  26.4767486  10.7778224  92.1608573
  25.5517983  10.6454438  92.3686264  26.7251899  11.5572443  92.6578515
  36.4252149   6.8446967  93.8069306  35.5169026   6.7762375  93.5128067
  36.3739744   7.3218912  94.6351131  30.2468892   8.3205105  85.4452705
  30.1268518   8.7662156  86.2838185  29.5521481   8.6690423  84.8866243
  23.8376297  10.4211497  92.9952362  23.9668678  10.6745976  93.9091773
  23.1573749  11.0139205  92.6757017  28.0075785  21.0908747  89.0942836
  27.9299814  22.0416572  89.1731317  27.4037428  20.7454620  89.7517762
  30.4993014   8.2636612 101.7504203  29.7226348   8.8230533 101.7407068
  31.1383577   8.7493395 102.2719073  38.2913795   5.0463405  95.5847180
  37.6488175   5.3395938  94.9386974  37.7868723   4.9316326  96.3900376
  35.9453959   8.7926578  86.2733039  36.8571815   9.0253965  86.0980736
  35.4363606   9.3763623  85.7108117  28.7539387  11.0722066 101.3122170
  29.4954071  11.6107110 101.0356993  28.0476372  11.6988355 101.4693722
  34.2294726  13.2151206  99.9094331  34.6378082  12.7733617  99.1648964
  33.5071988  12.6403834 100.1628524  30.5825796   8.1523813  97.2827888
  31.4286991   8.5763227  97.4262537  30.5224434   7.4957437  97.9766451
  34.5523541  13.7752397  93.6646620  33.9232403  13.9398111  92.9622688
  34.1649203  14.1894006  94.4357584  38.4312773  14.7106835  91.0190984
  37.7463811  15.0905736  90.4688017  38.5156622  15.3202161  91.7522932
  33.7325242   5.8128181  98.9409062  33.4886173   6.5670242  98.4043338
  34.0085172   6.1913529  99.7756309  35.6863704  12.3566794  97.6186328
  35.8980600  12.9998554  96.9420709  35.6393453  11.5229110  97.1508258
  33.2889933   4.9684614  94.5222900  32.4274412   5.2665868  94.8139637
  33.3152368   5.1855013  93.5903932  30.1051503  13.5126805  90.9296705
  30.5689848  13.7914508  90.1401328  29.8408301  12.6110250  90.7469796
  26.9975584  13.0598287  93.8676469  27.5676941  13.4885555  93.2293953
  27.5883696  12.7780871  94.5660654  29.0420389   9.6349957  87.7386270
  29.7444432  10.0871001  88.2060197  28.7101017   8.9933776  88.3666164
  27.4900750   8.2261714 102.1137480  26.8599411   8.9077995 102.3472877
  27.3836838   8.1144796 101.1690618  36.8009532  15.2338749  95.7908685
  37.6226976  14.8318936  95.5091367  36.7971935  15.1306983  96.7424801
  24.7360468   8.2578089  89.9986881  23.9391631   8.3696784  90.5170376
  24.5086060   8.5964741  89.1327771  30.5666136  14.7822792  97.9469395
  30.6310568  15.2443200  98.7827567  29.8577060  14.1520157  98.0751705
  44.8915525  11.5777498  92.1393656  44.1379234  11.0084896  91.9837661
  45.0263067  11.5440162  93.0864291  30.2814153  16.4490900  87.8148376
  30.1459828  17.2942436  88.2433224  30.8223966  16.6510178  87.0514310
  23.7343551  13.9666338  88.3876301  24.2468071  14.7609588  88.5381865
  24.3866264  13.2692628  88.3209902  25.5438436  17.0832094  90.4699054
  25.7205064  18.0050059  90.2820038  26.3395269  16.7690513  90.8993434
  29.6849454   3.9440359 102.0682987  30.4259167   4.5447512 101.9887450
  29.9167377   3.2017997 101.5101030  24.8290792   9.1296726 100.3461217
  24.7144307   8.2281983 100.6468316  23.9735310   9.3760423  99.9946034
  31.9082630  17.0714466 101.9448718  31.4646484  16.2850845 101.6269622
  32.5699843  17.2593617 101.2792609  26.6669751  18.6010268  96.4709396
  27.2177176  18.4727331  95.6986390  25.8281227  18.9005157  96.1204289
  34.0063868  17.3517266  99.9730119  33.9882343  18.1726147  99.4810388
  34.9283788  17.2271342 100.1980260  30.4636922  14.8661396 100.8153627
  30.9965259  14.1049684 100.5852935  29.9351003  14.5735048 101.5577782
  21.6992468  12.2954992  89.1635871  22.5367690  12.7052001  88.9469579
  21.8770735  11.3554434  89.1336065  33.5956900   9.9630073  84.8519704
  33.0803523  10.7334678  85.0908092  33.3234208   9.2895209  85.4752766
  31.1804011   4.8079774  89.9104943  30.3245607   4.4186624  89.7310581
  31.5930963   4.8871735  89.0504728  32.7103157   2.3426117  94.3096502
  32.2067953   2.3056252  93.4964308  33.0033764   3.2518860  94.3693159
  38.5691174  12.7162428  86.7872878  37.7920617  12.3773587  86.3428040
  39.2482655  12.7215051  86.1127843  33.3843203   7.8357165  86.6779485
  33.0793338   8.1503314  87.5289629  34.3373645   7.9138585  86.7206818
  31.8289635  13.9947388  88.3272439  31.3010996  13.2600148  88.0145677
  31.3277137  14.7722065  88.0812408  36.8082481  12.1896409  93.4439486
  36.1506155  12.8795670  93.5319614  37.6122880  12.5792841  93.7873472
  35.6187940  10.5440782  91.4943427  36.1319821  11.1770773  91.9965137
  36.2689163   9.9441977  91.1286788  26.8877949   6.6871516  84.7074936
  26.0515262   7.0246202  85.0284211  26.7482719   6.5520495  83.7702073
  29.9742235  11.8127599  81.3307412  29.0669297  11.5816852  81.5298561
  30.4713267  11.0165218  81.5181394  32.8810314  20.5225106  84.2504099
  32.2072013  20.8256803  84.8589056  33.2676136  21.3254186  83.9009556
  32.0968770   8.0190237  93.7401768  31.1791332   8.2405184  93.5823456
  32.5128914   8.0936548  92.8813475  32.8803818   9.4181653  88.8704448
  33.6275637   9.9303050  88.5611570  33.1495408   9.0965706  89.7308842
  31.1530468  11.9140194  85.8531403  30.2441688  11.6299226  85.9503872
  31.1825552  12.3339272  84.9934709  36.3849736  15.5246783  89.6222570
  35.9312063  14.6837693  89.6787761  35.7543702  16.1608181  89.9597350
  35.3282655   6.4538769  90.8523238  34.5905412   5.9416155  91.1833480
  35.5809429   6.0139151  90.0406514  34.8282675  17.3623280  90.5572388
  35.1205649  17.9228337  89.8384754  35.3381296  17.6551841  91.3125547
  21.7218639   9.6345708  89.8346605  21.5243039   9.0415068  89.1097671
  21.1665303   9.3297918  90.5522544  29.7015362   9.5268814  91.9541198
  29.7563972   8.5742651  91.8783674  28.8906564   9.6828253  92.4382496
  30.8506556  13.4548937  83.1919481  30.4125986  12.7384796  82.7325118
  31.5916997  13.6825052  82.6304573  27.6407722   8.1445874  89.7131577
  26.8275588   8.4440044  90.1196769  28.1366717   7.7501563  90.4306059
  29.7916300  18.1403631  91.6465841  29.7492479  18.3664477  90.7174373
  30.7078999  17.9067005  91.7951643  33.2381934   8.6087698  98.5446471
  33.5931322   8.8359171  99.4040936  33.8854065   8.9406075  97.9223726
  38.9679671  11.7306134  89.2495800  38.8297570  11.9207730  88.3216989
  38.6115890  12.4925517  89.7063851  38.9949051  13.7982661  94.2607071
  39.4285557  13.7057950  95.1090125  39.7080631  13.7740162  93.6227087
  27.9082101  15.0166660  91.4427804  28.7022699  14.5216980  91.2410379
  27.1973793  14.4884523  91.0795510  32.7276945  17.3984755  95.7940172
  32.7813968  17.9675692  96.5617888  31.8591727  17.5686640  95.4294209
  24.2164864   9.1609742  87.5187557  23.2862453   9.0994197  87.7357519
  24.3122336   8.6385694  86.7224198  25.6075339   7.1002312  97.2764623
  26.2798392   6.8919674  96.6277272  24.7805125   6.9024398  96.8369855
  39.8564600  13.8406362  96.7939957  40.0500490  14.7452172  97.0399232
  39.7565218  13.3813781  97.6278542  31.5100911   3.7264252  99.2930284
  30.8628826   4.4254202  99.1994760  32.2801926   4.1600396  99.6606532
  34.9179709  13.9913105 102.3680837  34.7665215  13.7623656 101.4510921
  34.9084388  14.9483706 102.3812182  31.6865045  11.5645017  97.3527104
  32.6157105  11.7156177  97.1796071  31.2656075  11.6529038  96.4975750
  30.4853377  15.5895682  95.1225641  30.3464463  15.2214466  95.9951579
  29.6967973  16.1043321  94.9509599  31.0801529  20.6904778  86.4651178
  31.2553285  20.2192821  87.2796800  30.3934317  21.3170544  86.6932439
  32.0358592  14.9677284  92.5114479  31.7008425  14.9278054  93.4072129
  31.5362538  14.3022000  92.0384889  26.0102836  10.3744915  98.0367060
  25.8722634   9.6425153  98.6378599  26.9207760  10.2853815  97.7551248
  34.9717784  12.3133319  82.7851539  34.3546954  11.5880147  82.6884591
  34.5034272  13.0742679  82.4418613  28.6385137  10.0864874  97.5250740
  29.3484755   9.4458066  97.4837358  28.5954445  10.3377769  98.4476921
  36.6271915  17.0232227 100.4457319  36.5684462  16.3391447  99.7787902
  37.0291434  17.7651217  99.9937945  27.3514071   7.0730092  99.3446379
  26.8151428   6.6220830  99.9967976  26.7630779   7.2076001  98.6016844
  25.6462614  23.8394141  93.2391038  25.8859212  24.4712665  93.9170057
  24.8031811  23.4882181  93.5256397  26.7616330   6.5318743  81.9072843
  25.8845796   6.4107544  81.5435090  27.2374083   5.7404821  81.6551732
  36.6289323  14.9871811  98.6771299  35.7416101  14.6497733  98.7997698
  37.1987874  14.2554842  98.9140064  18.2818470  11.3195903  92.0014350
  18.9689510  11.0057633  91.4135365  18.1266599  12.2237267  91.7281602
  30.1590476  19.6473263  95.6432542  30.0860648  20.4528235  96.1551847
  29.7167869  19.8465229  94.8180563  29.9480256  18.8845033  89.1535364
  29.1647778  19.4266714  89.2473588  30.6473001  19.4019013  89.5529605
  33.2576906   4.6939663  91.7969569  33.7545605   3.9409625  91.4770639
  32.4863887   4.7303980  91.2312778  41.1106663  10.3980028  93.4387860
  41.0996539  11.2804744  93.0681794  40.2424043  10.0451579  93.2442397
  32.6189160  19.5460097  97.7990701  33.3317132  20.1807562  97.7266602
  32.1279188  19.6423963  96.9830702  34.3406687  13.4511350  89.3707992
  33.4062965  13.5712813  89.2012697  34.5183355  12.5483817  89.1068002
  29.8411875   6.8357046  91.5241253  29.4709662   6.2828086  92.2122159
  30.3370967   6.2315179  90.9716254  37.7279238   9.2928669  89.9058026
  38.1939690  10.1256661  89.8318329  38.1786738   8.8273651  90.6103285
  27.6701073  17.2954541  98.6196271  28.3710533  17.9291024  98.7725666
  27.1996188  17.6369272  97.8591911  35.7955469  15.6372491  86.9044178
  36.0715313  15.5229085  87.8138053  34.9259968  15.2389976  86.8656352
  35.6995901   1.6609256  93.9448928  34.7858980   1.8913483  94.1131135
  36.1289002   1.7447701  94.7962960  35.4702359   9.8499148  96.4448822
  34.8173809  10.0975056  95.7901275  35.8482739   9.0363287  96.1111299
  32.4309533  19.8858842  90.5476992  32.6131928  19.0680498  91.0104744
  33.2542519  20.1026534  90.1101882  32.7651698  18.8127027  87.8092041
  33.2939465  18.3019481  87.1962203  33.0279918  18.4969557  88.6737574
  31.5189932  10.5918959 102.9314859  30.8430569  10.4913089 103.6017234
  32.3417566  10.4358173 103.3950856  23.2668791  16.8290896  95.5527374
  23.8522228  16.0834584  95.6855278  23.0693630  17.1394853  96.4364038
  26.1207446  19.8642143  90.5689817  25.4517822  20.3488271  90.0853857
  25.9820316  20.1111364  91.4833195  30.2612715  21.8985887  97.1672475
  30.8131023  22.0617508  97.9321560  30.6018908  22.4890325  96.4952500
  35.1123589  16.7247144 103.0221129  35.6563493  17.3377103 102.5276084
  34.5310434  17.2826723 103.5388142  33.3981102  19.8467862  94.1536157
  33.2732242  19.0457602  93.6447103  34.0560193  20.3414056  93.6650127
  35.4616011  17.6476883  95.7815707  34.5146346  17.5282234  95.7094034
  35.8098784  16.7599381  95.8641969  32.4662444  17.4429599  91.9820059
  32.3187406  16.5146306  92.1627629  33.2915937  17.4649689  91.4977135
  26.3324688   6.0947666  87.8400552  26.6720761   6.6233587  87.1179160
  26.7796809   6.4328072  88.6159118  36.0696566  18.2658157  93.0684932
  36.9943113  18.0601019  92.9309383  35.9011869  18.0174559  93.9774274
  28.3192835   4.5922287  86.0393844  29.0401198   4.9703540  85.5357561
  27.6958140   5.3111164  86.1428822  32.4623958   5.2967436  86.9752177
  32.6787573   6.1792074  86.6741005  31.9818025   4.9053650  86.2457819
  27.2023180   8.2553150  93.5522921  27.0567760   8.5693453  94.4447203
  26.7248383   8.8738050  92.9993820  29.0619563   5.2455698  93.6003811
  29.0481131   4.3496791  93.2636109  29.7791991   5.2526361  94.2342097
  30.9145693   5.6793038  95.6456938  30.6563471   6.6010108  95.6441269
  30.3830734   5.2823472  96.3357402  35.8591882  18.7843825  88.4247024
  36.0328760  18.2190247  87.6720876  36.3520773  19.5844720  88.2426514
  21.6768842  10.7958494  96.4910582  21.1322310  11.5718302  96.6230857
  22.5548192  11.1429298  96.3329704  41.7131273  11.5480248  90.0437323
  42.1562419  10.7987573  89.6456447  40.8357783  11.5390384  89.6611055
  36.8467055  18.1010589  85.5243922  37.5417959  18.7217282  85.7431236
  37.1890205  17.2505941  85.7996300  22.4634864   9.9228390  99.3840739
  21.7216600  10.0711026  99.9705370  22.1427608  10.1836656  98.5207489
  38.7458478  15.5510295  87.0531253  39.2709802  15.8897568  86.3280573
  38.6580830  14.6157310  86.8694387  30.4078526  19.4644369  99.1821129
  30.7165653  19.2193515 100.0543829  31.2054008  19.6691007  98.6939999
  30.4299138  21.6182278  91.4126506  29.9904129  21.1258657  92.1059363
  31.1807255  21.0755246  91.1718581  22.9091477  17.8093819  91.4151134
  23.7349497  17.5097591  91.0349777  22.5585529  17.0401441  91.8640923
  27.8773011  17.1620287  93.4848807  27.2553020  16.4990992  93.1851035
  28.5477877  17.1881419  92.8022455  21.1100082  15.7280145  92.3740067
  20.2731991  15.3002320  92.1924069  21.0823728  15.9212589  93.3110859
  27.9497538   5.6402075 103.0781314  27.9985693   6.5164198 102.6959083
  28.4920052   5.0979468 102.5052957  38.4352384  16.1843198 102.3582451
  37.6447927  16.1667337 101.8186950  38.1985738  16.7231492 103.1131487
  38.5550259  13.0335665  99.6715179  38.6048264  12.8685672 100.6130702
  38.4464182  12.1662924  99.2813060  27.4386517  15.7124211  86.9607268
  27.5874638  16.3959675  86.3073941  28.2452961  15.6929301  87.4756724
  35.8454021   9.0166593 100.9874486  36.7463884   8.8773058 100.6958484
  35.9201996   9.1821048 101.9272663  30.1796826   6.3933448  99.8327672
  29.3100136   6.6867014  99.5610261  30.4156307   6.9773893 100.5534936
  40.0568456  15.4532606  99.9157201  39.7653264  15.8162587 100.7520662
  39.4440587  14.7399615  99.7370533  41.2564138  13.0185486  92.4359771
  42.0911029  13.4575290  92.5997331  41.3923267  12.5424139  91.6168017
  38.3055644  10.5765221  98.3837259  38.7809765  10.7692867  97.5756110
  37.3821209  10.6324407  98.1380642  25.1939150  11.7389388  87.9668337
  24.9485192  10.8351718  88.1648547  25.3635065  11.7406539  87.0247815
  32.8835860   2.6113065  97.3493093  33.4017804   3.3474092  97.0239581
  32.5290993   2.9177058  98.1839852  30.9381923  18.2072341  84.4319015
  30.3655890  18.8262528  83.9789487  31.5114717  18.7571703  84.9658937
  37.0057313   7.4530981  96.6165564  37.9574736   7.5529079  96.6377788
  36.8360763   6.6609250  97.1263649  35.0271692   4.5386564  96.8024965
  34.4321624   4.8191577  96.1071454  34.7421389   5.0280465  97.5741706
  34.1579183  18.4909491  85.5627598  35.0909856  18.4255053  85.7660473
  34.0702396  19.3265758  85.1042130  36.7867199  17.8075361  82.5231545
  36.7080831  17.4735225  83.4167303  37.6076866  18.2997129  82.5223018
  39.4845391  10.6737101  95.7307864  39.4521711   9.7353102  95.9167548
  40.0946014  10.7521138  94.9973689  31.3228721   9.5433154  81.7735068
  32.2687826   9.4139362  81.8423486  30.9442966   8.8047816  82.2504496
  39.6339879   7.4648144  95.7766147  39.1178928   6.6806601  95.5896076
  40.5179828   7.1366861  95.9412667  37.2950606   1.2089160  91.7361960
  37.0975427   0.9004248  92.6205292  37.9050312   1.9350799  91.8659890
  45.3021940  11.7353108  94.8713901  46.0325329  11.4738396  95.4321604
  44.6928886  10.9981830  94.9115969  43.3837238   9.8760970  95.4688352
  42.6570401   9.7416935  94.8604843  42.9684524  10.1837799  96.2745070
  31.2067414  13.5950900 103.2335725  32.1270423  13.7729499 103.4275771
  31.1716997  12.6506945 103.0815424  29.5071639   7.4683130  81.7089953
  28.6003094   7.1716243  81.7852667  29.7847620   7.1712948  80.8424239
  24.2029487  11.5051935  95.8758506  24.4215496  12.4369042  95.8946540
  24.6155260  11.1459909  96.6613310  29.0757352   7.0785140 105.2661255
  28.9754079   8.0279497 105.1973346  28.8578894   6.7503379 104.3937325
  20.2937839  12.4092405  94.1282121  19.6001310  11.9946358  93.6152076
  21.0410830  12.4512942  93.5315540  36.4303060   3.1998592  88.9937155
  35.8501729   3.8583396  88.6115208  36.1638992   2.3775936  88.5824573
  34.8806626   2.6003650  91.1958476  35.3806404   2.7120184  90.3872795
  35.5242234   2.2964702  91.8359284  28.9388622  10.5082279 104.0826317
  28.4555704  11.3082639 104.2890206  29.0249561  10.5190224 103.1293761
  22.2074582  12.3410659  92.0048136  22.1845270  12.4398346  91.0530019
  22.5175218  13.1875810  92.3265302  24.8661959  14.3986814  96.1194750
  25.8205213  14.3670756  96.0524682  24.6674483  13.9377438  96.9344976
  25.4561342  12.9687930  98.6865548  26.2754231  13.4632009  98.7100385
  25.7298149  12.0519898  98.6583116  35.2127938   5.3598682  88.0493504
  34.3253793   5.6448333  87.8313698  35.6281927   5.1992446  87.2020781
  38.5642474   5.3845203  91.7647843  39.3402864   5.8741656  92.0372460
  37.8390608   5.8103257  92.2219712  41.0015032   6.0972822  92.8221783
  41.5959523   5.8568558  92.1115092  41.0741616   5.3779953  93.4495320
  23.2212188  19.9406433  93.1364948  23.0866656  19.1806834  92.5702946
  22.8044250  20.6647333  92.6693737  34.3571151  15.1243357  82.1441524
  35.0607001  15.3293359  82.7599179  33.6333800  15.6920119  82.4090607
  35.1868961  10.8753218  88.2643794  35.1304163  11.3321770  87.4251426
  35.7397304  10.1143903  88.0866637  38.9973767   6.6642950  89.0893913
  38.7410702   6.2639586  89.9202121  38.3726635   7.3786744  88.9644052
  43.3086105   9.4039023  91.5965205  42.7485663   9.4732213  92.3696767
  42.7029609   9.2280008  90.8764701  26.3781314  20.8375750  93.3483391
  26.2613698  21.7821183  93.2462081  25.5573760  20.5349312  93.7369190
  36.2657849  15.5625886  84.1939984  37.1003453  15.1307085  84.0117458
  36.1042192  15.3907900  85.1216878  35.9203741  12.0657999  85.5596323
  35.8652545  11.9002271  84.6184767  35.2949796  12.7734032  85.7158513
  33.2349648  14.3706911 104.8849886  34.1040808  14.5447564 104.5236521
  32.7556399  15.1901328 104.7625615  27.4035828  21.4904012  96.5639319
  28.3063075  21.5227623  96.8805814  27.1773198  20.5604463  96.5785655
  29.1589430  20.2434999  93.2249398  28.2085061  20.2436860  93.1113770
  29.4621916  19.4967733  92.7085433  44.8942124  26.0795537  94.2895160
  45.5320534  25.9602285  93.5858500  44.7762967  27.0276381  94.3483113
  41.7031830  26.0322965  94.2256685  41.3650342  25.9164030  93.3377220
  42.5721598  25.6314130  94.2057691  37.5618646  27.8858442  90.2153576
  36.9983511  27.7948379  89.4469864  37.4471041  27.0658346  90.6956069
  42.1851613  27.1857817 100.1842891  42.1740254  26.7910615  99.3123394
  42.3472252  26.4523890 100.7776662  35.1083078  29.3809633  93.0537796
  35.9004370  29.0400458  92.6384096  35.3479728  29.4904608  93.9739950
  43.1418204  31.5529409  85.5268041  42.4906184  32.1383490  85.1402055
  43.9362567  32.0835604  85.5863078  37.0673832  28.6418547  85.9255175
  37.8404708  28.0947534  85.7868051  37.4199230  29.5062796  86.1369637
  38.9058874  29.9694929  99.1322075  38.6148740  30.8740560  99.0168741
  39.5415858  30.0111456  99.8466144  39.8315081  27.3471777  95.7223434
  40.4278653  27.1227800  95.0080397  39.8890053  26.6056523  96.3248882
  39.4040109  24.8011213  83.5573625  39.6565630  24.2792734  82.7957088
  38.4664668  24.6377358  83.6600309  44.4483392  23.8046991  91.3648368
  45.2346481  23.3866414  91.0138785  44.7122097  24.7093083  91.5330017
  44.6193470  29.2419841  86.0637025  43.9839303  29.3154468  86.7757930
  44.2890876  29.8313440  85.3856104  49.8491819  23.7422224  92.2681347
  50.5816991  23.1721441  92.5019176  49.0931175  23.3543825  92.7087853
  39.1236398  26.7039319  85.7598000  39.0072656  26.0284222  86.4279084
  39.2338658  26.2171693  84.9430153  41.4667939  26.1649466  89.4644689
  41.1026146  25.6380087  90.1757611  42.3235055  25.7747935  89.2911175
  47.3717240  17.4543798  96.7275956  47.0400564  18.3239209  96.5037171
  46.7762853  17.1380082  97.4069986  41.1073426  21.1939365  84.4606038
  41.2747828  22.0619602  84.8276509  40.9170595  21.3566647  83.5367327
  43.8648759  29.6556344  96.1271868  43.5649482  30.5581383  96.0187676
  43.5199819  29.3888528  96.9793021  37.3161241  26.1070141  92.1608573
  36.3911737  25.9746355  92.3686264  37.5645654  26.8864360  92.6578515
  47.2645903  22.1738885  93.8069306  46.3562780  22.1054293  93.5128067
  47.2133499  22.6510829  94.6351131  41.0862647  23.6497023  85.4452705
  40.9662272  24.0954074  86.2838185  40.3915235  23.9982341  84.8866243
  34.6770052  25.7503415  92.9952362  34.8062433  26.0037894  93.9091773
  33.9967503  26.3431123  92.6757017  38.8469539  36.4200665  89.0942836
  38.7693569  37.3708490  89.1731317  38.2431183  36.0746537  89.7517762
  41.3386769  23.5928530 101.7504203  40.5620103  24.1522450 101.7407068
  41.9777332  24.0785313 102.2719073  49.1307549  20.3755323  95.5847180
  48.4881930  20.6687856  94.9386974  48.6262478  20.2608243  96.3900376
  39.5933141  26.4013983 101.3122170  40.3347825  26.9399027 101.0356993
  38.8870127  27.0280272 101.4693722  45.0688481  28.5443124  99.9094331
  45.4771837  28.1025534  99.1648964  44.3465742  27.9695751 100.1628524
  41.4219551  23.4815731  97.2827888  42.2680746  23.9055144  97.4262537
  41.3618188  22.8249355  97.9766451  45.3917295  29.1044315  93.6646620
  44.7626158  29.2690029  92.9622688  45.0042957  29.5185924  94.4357584
  49.2706527  30.0398752  91.0190984  48.5857565  30.4197654  90.4688017
  49.3550377  30.6494079  91.7522932  44.5718996  21.1420099  98.9409062
  44.3279928  21.8962160  98.4043338  44.8478927  21.5205447  99.7756309
  46.5257459  27.6858711  97.6186328  46.7374354  28.3290471  96.9420709
  46.4787207  26.8521028  97.1508258  44.1283688  20.2976532  94.5222900
  43.2668167  20.5957786  94.8139637  44.1546122  20.5146931  93.5903932
  40.9445257  28.8418723  90.9296705  41.4083603  29.1206426  90.1401328
  40.6802055  27.9402167  90.7469796  37.8369338  28.3890204  93.8676469
  38.4070695  28.8177473  93.2293953  38.4277450  28.1072789  94.5660654
  39.8814143  24.9641875  87.7386270  40.5838187  25.4162919  88.2060197
  39.5494772  24.3225694  88.3666164  38.3294505  23.5553632 102.1137480
  37.6993165  24.2369913 102.3472877  38.2230593  23.4436713 101.1690618
  33.6239477  23.2225428  93.0403404  32.8338531  23.4782956  92.5643515
  34.1150725  24.0373766  93.1455445  47.6403287  30.5630667  95.7908685
  48.4620731  30.1610854  95.5091367  47.6365690  30.4598901  96.7424801
  35.5754223  23.5870007  89.9986881  34.7785386  23.6988701  90.5170376
  35.3479815  23.9256659  89.1327771  41.4059890  30.1114710  97.9469395
  41.4704323  30.5735117  98.7827567  40.6970814  29.4812075  98.0751705
  31.9077180  23.4755918  95.4718395  32.1585219  24.3602928  95.7375971
  32.4436729  23.2960520  94.6993487  41.1207908  31.7782818  87.8148376
  40.9853583  32.6234353  88.2433224  41.6617720  31.9802095  87.0514310
  37.6075248  17.8574398 104.4762731  37.2142193  17.3040596 105.1510375
  38.4241388  18.1684976 104.8669248  34.5737305  29.2958256  88.3876301
  35.0861826  30.0901506  88.5381865  35.2260018  28.5984546  88.3209902
  36.3832190  32.4124012  90.4699054  36.5598818  33.3341977  90.2820038
  37.1789024  32.0982431  90.8993434  40.5243209  19.2732277 102.0682987
  41.2652922  19.8739430 101.9887450  40.7561131  18.5309914 101.5101030
  35.6684547  24.4588644 100.3461217  35.5538062  23.5573901 100.6468316
  34.8129064  24.7052341  99.9946034  42.7476384  32.4006384 101.9448718
  42.3040238  31.6142763 101.6269622  43.4093598  32.5885535 101.2792609
  37.5063505  33.9302186  96.4709396  38.0570931  33.8019249  95.6986390
  36.6674981  34.2297075  96.1204289  44.8457622  32.6809184  99.9730119
  44.8276098  33.5018065  99.4810388  45.7677542  32.5563259 100.1980260
  41.3030677  30.1953314 100.8153627  41.8359013  29.4341602 100.5852935
  40.7744758  29.9026965 101.5577782  44.4700371  15.3013380  96.3447269
  44.1264641  16.1915021  96.2686380  44.8379334  15.1115037  95.4816854
  32.5386222  27.6246910  89.1635871  33.3761444  28.0343918  88.9469579
  32.7164490  26.6846352  89.1336065  44.4350654  25.2921991  84.8519704
  43.9197278  26.0626595  85.0908092  44.1627963  24.6187127  85.4752766
  42.0197765  20.1371691  89.9104943  41.1639362  19.7478542  89.7310581
  42.4324717  20.2163652  89.0504728  43.5496912  17.6718035  94.3096502
  43.0461707  17.6348170  93.4964308  43.8427519  18.5810777  94.3693159
  39.7939798  17.7556764  93.3162684  40.6592795  17.5599573  92.9568574
  39.8617307  17.5267116  94.2432041  44.2236957  23.1649083  86.6779485
  43.9187093  23.4795232  87.5289629  45.1767400  23.2430503  86.7206818
  42.6683389  29.3239306  88.3272439  42.1404751  28.5892066  88.0145677
  42.1670892  30.1013982  88.0812408  47.6476235  27.5188327  93.4439486
  46.9899910  28.2087588  93.5319614  48.4516634  27.9084758  93.7873472
  37.4002117  19.9858972  90.6879051  37.9745869  19.7634154  89.9552244
  37.9873099  20.0547667  91.4407652  46.4581694  25.8732699  91.4943427
  46.9713576  26.5062691  91.9965137  47.1082918  25.2733895  91.1286788
  37.7271704  22.0163433  84.7074936  36.8909016  22.3538120  85.0284211
  37.5876474  21.8812413  83.7702073  39.7024785  16.8600221  89.4154120
  39.0489197  16.5449238  88.7910735  39.6605259  16.2375962  90.1413943
  40.8135989  27.1419516  81.3307412  39.9063051  26.9108770  81.5298561
  41.3107021  26.3457136  81.5181394  43.7204068  35.8517024  84.2504099
  43.0465767  36.1548720  84.8589056  44.1069890  36.6546104  83.9009556
  42.9362525  23.3482155  93.7401768  42.0185086  23.5697102  93.5823456
  43.3522669  23.4228465  92.8813475  43.7197573  24.7473570  88.8704448
  44.4669392  25.2594968  88.5611570  43.9889162  24.4257623  89.7308842
  41.9924223  27.2432111  85.8531403  41.0835442  26.9591144  85.9503872
  42.0219307  27.6631190  84.9934709  47.2243490  30.8538701  89.6222570
  46.7705817  30.0129611  89.6787761  46.5937457  31.4900099  89.9597350
  46.1676410  21.7830687  90.8523238  45.4299167  21.2708073  91.1833480
  46.4203183  21.3431068  90.0406514  45.6676430  32.6915197  90.5572388
  45.9599404  33.2520254  89.8384754  46.1775050  32.9843758  91.3125547
  46.2688037  14.5606939  91.4465007  46.5746914  13.7004302  91.1590922
  46.9940642  15.1524559  91.2464001  32.5612393  24.9637625  89.8346605
  32.3636793  24.3706986  89.1097671  32.0059057  24.6589835  90.5522544
  40.5409117  24.8560732  91.9541198  40.5957727  23.9034568  91.8783674
  39.7300319  25.0120171  92.4382496  41.6900311  28.7840855  83.1919481
  41.2519741  28.0676714  82.7325118  42.4310752  29.0116970  82.6304573
  38.4801477  23.4737792  89.7131577  37.6669342  23.7731962  90.1196769
  38.9760471  23.0793480  90.4306059  40.6310055  33.4695548  91.6465841
  40.5886233  33.6956395  90.7174373  41.5472754  33.2358923  91.7951643
  44.0775688  23.9379616  98.5446471  44.4325076  24.1651089  99.4040936
  44.7247820  24.2697993  97.9223726  37.9715552  21.0456147  95.3292812
  38.6114931  20.9044906  94.6315775  37.1393082  20.7590660  94.9531414
  49.8342805  29.1274579  94.2607071  50.2679312  29.0349868  95.1090125
  50.5474386  29.1032079  93.6227087  38.7475855  30.3458577  91.4427804
  39.5416454  29.8508898  91.2410379  38.0367548  29.8176441  91.0795510
  43.5670700  32.7276673  95.7940172  43.6207722  33.2967609  96.5617888
  42.6985481  32.8978558  95.4294209  35.0558619  24.4901659  87.5187557
  34.1256207  24.4286115  87.7357519  35.1516091  23.9677612  86.7224198
  34.9744168  21.0156472  90.1065799  35.2350985  21.9301805  89.9974959
  35.7961340  20.5480915  90.2562411  36.4469093  22.4294229  97.2764623
  37.1192147  22.2211591  96.6277272  35.6198880  22.2316315  96.8369855
  50.6958355  29.1698280  96.7939957  50.8894245  30.0744090  97.0399232
  50.5958973  28.7105699  97.6278542  42.3494665  19.0556170  99.2930284
  41.7022580  19.7546120  99.1994760  43.1195681  19.4892314  99.6606532
  45.7573463  29.3205022 102.3680837  45.6058970  29.0915574 101.4510921
  45.7478143  30.2775624 102.3812182  42.5258800  26.8936935  97.3527104
  43.4550860  27.0448095  97.1796071  42.1049830  26.9820956  96.4975750
  41.3247131  30.9187599  95.1225641  41.1858217  30.5506384  95.9951579
  40.5361728  31.4335239  94.9509599  41.9195283  36.0196696  86.4651178
  42.0947039  35.5484739  87.2796800  41.2328071  36.6462462  86.6932439
  42.8752347  30.2969202  92.5114479  42.5402179  30.2569972  93.4072129
  42.3756292  29.6313918  92.0384889  36.8496591  25.7036832  98.0367060
  36.7116389  24.9717071  98.6378599  37.7601514  25.6145732  97.7551248
  45.8111538  27.6425236  82.7851539  45.1940709  26.9172065  82.6884591
  45.3428027  28.4034597  82.4418613  39.4778891  25.4156792  97.5250740
  40.1878510  24.7749984  97.4837358  39.4348199  25.6669686  98.4476921
  47.4665670  32.3524145 100.4457319  47.4078216  31.6683365  99.7787902
  47.8685188  33.0943135  99.9937945  38.1907825  22.4022009  99.3446379
  37.6545182  21.9512748  99.9967976  37.6024534  22.5367918  98.6016844
  36.4856369  39.1686059  93.2391038  36.7252967  39.8004583  93.9170057
  35.6425565  38.8174099  93.5256397  37.6010084  21.8610661  81.9072843
  36.7239550  21.7399462  81.5435090  38.0767837  21.0696739  81.6551732
  47.4683077  30.3163729  98.6771299  46.5809856  29.9789651  98.7997698
  48.0381628  29.5846760  98.9140064  29.1212224  26.6487821  92.0014350
  29.8083264  26.3349551  91.4135365  28.9660353  27.5529185  91.7281602
  33.9246946  21.5378017  96.4299374  33.8405135  20.9303687  95.6949784
  33.1029653  22.0287035  96.4308870  40.9984231  34.9765181  95.6432542
  40.9254402  35.7820153  96.1551847  40.5561624  35.1757147  94.8180563
  40.7874010  34.2136951  89.1535364  40.0041532  34.7558631  89.2473588
  41.4866755  34.7310931  89.5529605  44.0970660  20.0231581  91.7969569
  44.5939360  19.2701543  91.4770639  43.3257642  20.0595897  91.2312778
  43.4582914  34.8752015  97.7990701  44.1710886  35.5099480  97.7266602
  42.9672943  34.9715881  96.9830702  45.1800441  28.7803268  89.3707992
  44.2456720  28.9004730  89.2012697  45.3577109  27.8775735  89.1068002
  40.6805629  22.1648964  91.5241253  40.3103417  21.6120004  92.2122159
  41.1764722  21.5607097  90.9716254  38.5094828  32.6246459  98.6196271
  39.2104287  33.2582942  98.7725666  38.0389943  32.9661190  97.8591911
  46.6349223  30.9664408  86.9044178  46.9109067  30.8521003  87.8138053
  45.7653722  30.5681893  86.8656352  46.5389655  16.9901174  93.9448928
  45.6252735  17.2205401  94.1131135  46.9682757  17.0739618  94.7962960
  46.3096114  25.1791066  96.4448822  45.6567564  25.4266974  95.7901275
  46.6876494  24.3655204  96.1111299  43.2703287  35.2150759  90.5476992
  43.4525682  34.3972415  91.0104744  44.0936273  35.4318452  90.1101882
  43.6045453  34.1418944  87.8092041  44.1333219  33.6311399  87.1962203
  43.8673673  33.8261475  88.6737574  42.3583687  25.9210877 102.9314859
  41.6824324  25.8205006 103.6017234  43.1811321  25.7650091 103.3950856
  34.1062546  32.1582814  95.5527374  34.6915983  31.4126502  95.6855278
  33.9087384  32.4686770  96.4364038  36.9601201  35.1934061  90.5689817
  36.2911576  35.6780189  90.0853857  36.8214071  35.4403282  91.4833195
  28.6980200  24.7288414  94.2731817  28.7364300  24.1952005  95.0668935
  28.1920493  24.2023619  93.6542794  41.1006470  37.2277805  97.1672475
  41.6524778  37.3909426  97.9321560  41.4412663  37.8182242  96.4952500
  36.0770963  19.5752954  97.7694360  36.1412289  20.4367785  97.3571757
  36.0138083  18.9626956  97.0366718  35.5523235  21.6476087 101.4167394
  36.1795274  21.2653164 102.0304918  34.6951154  21.4290289 101.7823086
  45.9517344  32.0539062 103.0221129  46.4957248  32.6669020 102.5276084
  45.3704189  32.6118641 103.5388142  32.3288778  23.4552516  87.3485749
  32.6242219  22.5463194  87.2952802  31.4276814  23.4340255  87.0266751
  44.2374857  35.1759780  94.1536157  44.1125996  34.3749520  93.6447103
  44.8953948  35.6705973  93.6650127  35.8583025  21.5308513  93.3313297
  35.1369611  22.1444480  93.1920771  36.6476281  22.0666277  93.2529943
  46.3009765  32.9768800  95.7815707  45.3540101  32.8574151  95.7094034
  46.6492538  32.0891298  95.8641969  38.6609339  18.8662939  99.6053949
  39.1843740  19.1125236 100.3680258  38.4421672  19.6982974  99.1857086
  34.0576620  21.1366614  87.4725074  33.7289326  20.2563993  87.2900180
  34.4115990  21.0814282  88.3601463  43.3056198  32.7721516  91.9820059
  43.1581161  31.8438224  92.1627629  44.1309692  32.7941607  91.4977135
  37.1718443  21.4239583  87.8400552  37.5114515  21.9525505  87.1179160
  37.6190563  21.7619990  88.6159118  46.9090320  33.5950075  93.0684932
  47.8336868  33.3892936  92.9309383  46.7405624  33.3466476  93.9774274
  39.8661884  19.8076634  97.2903620  39.5258704  19.0084447  97.6924299
  39.1600890  20.1078345  96.7180453  40.5178355  16.8925947  95.7430943
  41.3404425  16.4186425  95.6209833  40.7616419  17.6716430  96.2429629
  39.1586590  19.9214205  86.0393844  39.8794952  20.2995458  85.5357561
  38.5351894  20.6403082  86.1428822  43.3017713  20.6259354  86.9752177
  43.5181327  21.5083992  86.6741005  42.8211780  20.2345567  86.2457819
  38.0416934  23.5845067  93.5522921  37.8961515  23.8985370  94.4447203
  37.5642138  24.2029968  92.9993820  39.9013317  20.5747615  93.6003811
  39.8874886  19.6788709  93.2636109  40.6185745  20.5818279  94.2342097
  41.7539448  21.0084955  95.6456938  41.4957226  21.9302026  95.6441269
  41.2224488  20.6115390  96.3357402  46.6985637  34.1135743  88.4247024
  46.8722514  33.5482165  87.6720876  47.1914528  34.9136637  88.2426514
  32.5162596  26.1250412  96.4910582  31.9716064  26.9010220  96.6230857
  33.3941946  26.4721216  96.3329704  39.3050213  19.4561996  88.8691381
  39.4266124  18.5278642  89.0682268  39.0152255  19.4700682  87.9569696
  42.1741403  17.1416906  92.0058101  42.1963100  17.2056239  91.0510080
  42.5909462  16.3021415  92.1998607  47.6860809  33.4302507  85.5243922
  48.3811714  34.0509200  85.7431236  48.0283959  32.5797858  85.7996300
  33.3028618  25.2520308  99.3840739  32.5610354  25.4002943  99.9705370
  32.9821362  25.5128574  98.5207489  41.2472281  34.7936286  99.1821129
  41.5559407  34.5485433 100.0543829  42.0447763  34.9982925  98.6939999
  41.2692893  36.9474196  91.4126506  40.8297883  36.4550575  92.1059363
  42.0201010  36.4047163  91.1718581  33.7485232  33.1385737  91.4151134
  34.5743252  32.8389509  91.0349777  33.3979284  32.3693359  91.8640923
  38.7166765  32.4912205  93.4848807  38.0946774  31.8282910  93.1851035
  39.3871632  32.5173337  92.8022455  31.9493837  31.0572063  92.3740067
  31.1125745  30.6294237  92.1924069  31.9217482  31.2504506  93.3110859
  38.7891293  20.9693993 103.0781314  38.8379448  21.8456116 102.6959083
  39.3313807  20.4271386 102.5052957  49.2746138  31.5135116 102.3582451
  48.4841682  31.4959255 101.8186950  49.0379493  32.0523410 103.1131487
  49.3944013  28.3627583  99.6715179  49.4442018  28.1977590 100.6130702
  49.2857937  27.4954842  99.2813060  38.2780272  31.0416128  86.9607268
  38.4268392  31.7251593  86.3073941  39.0846715  31.0221218  87.4756724
  46.6847776  24.3458511 100.9874486  47.5857638  24.2064975 100.6958484
  46.7595750  24.5112965 101.9272663  41.0190581  21.7225365  99.8327672
  40.1493890  22.0158931  99.5610261  41.2550061  22.3065810 100.5534936
  50.8962210  30.7824524  99.9157201  50.6047018  31.1454505 100.7520662
  50.2834341  30.0691532  99.7370533  49.1449398  25.9057139  98.3837259
  49.6203520  26.0984785  97.5756110  48.2214964  25.9616325  98.1380642
  36.0332905  27.0681306  87.9668337  35.7878947  26.1643636  88.1648547
  36.2028819  27.0698456  87.0247815  43.7229615  17.9404982  97.3493093
  44.2411559  18.6766009  97.0239581  43.3684748  18.2468976  98.1839852
  35.3028552  22.8009663  85.4654498  34.6097797  22.8754018  84.8094534
  35.0580304  22.0370007  85.9876015  43.9742209  14.3605265  92.8693989
  44.2543963  13.6928454  93.4954416  44.7592816  14.5534360  92.3568653
  41.7775677  33.5364259  84.4319015  41.2049645  34.1554446  83.9789487
  42.3508471  34.0863620  84.9658937  47.8451067  22.7822899  96.6165564
  48.7968490  22.8820996  96.6377788  47.6754518  21.9901167  97.1263649
  45.8665447  19.8678482  96.8024965  45.2715379  20.1483495  96.1071454
  45.5815143  20.3572383  97.5741706  44.9972937  33.8201409  85.5627598
  45.9303610  33.7546970  85.7660473  44.9096150  34.6557676  85.1042130
  47.6260954  33.1367279  82.5231545  47.5474585  32.8027143  83.4167303
  48.4470621  33.6289047  82.5223018  50.3239145  26.0029018  95.7307864
  50.2915465  25.0645019  95.9167548  50.9339769  26.0813055  94.9973689
  42.1622476  24.8725071  81.7735068  43.1081581  24.7431280  81.8423486
  41.7836721  24.1339733  82.2504496  50.4733634  22.7940062  95.7766147
  49.9572682  22.0098519  95.5896076  51.3573582  22.4658779  95.9412667
  48.1344361  16.5381077  91.7361960  47.9369182  16.2296166  92.6205292
  48.7444066  17.2642716  91.8659890  56.1415695  27.0645025  94.8713901
  56.8719083  26.8030313  95.4321604  55.5322640  26.3273747  94.9115969
  54.2230992  25.2052888  95.4688352  53.4964156  25.0708853  94.8604843
  53.8078279  25.5129717  96.2745070  42.0461168  28.9242818 103.2335725
  42.9664178  29.1021417 103.4275771  42.0110752  27.9798863 103.0815424
  40.3465393  22.7975048  81.7089953  39.4396849  22.5008161  81.7852667
  40.6241374  22.5004866  80.8424239  31.2643333  24.1181411  92.1589000
  30.9446118  23.2646719  91.8663374  30.7176762  24.3329989  92.9146967
  35.0423241  26.8343852  95.8758506  35.2609251  27.7660960  95.8946540
  35.4549015  26.4751827  96.6613310  41.9627459  17.3411938  87.8634194
  41.1528187  16.9959023  88.2389441  42.6511876  17.0319481  88.4521806
  43.8918007  16.4189984  89.4858491  44.4449046  16.8385438  90.1448514
  44.1288093  15.4925732  89.5281447  39.9151106  22.4077058 105.2661255
  39.8147833  23.3571415 105.1973346  39.6972648  22.0795297 104.3937325
  39.1164178  19.6561983  81.8501932  39.9783342  19.9816881  82.1097750
  39.3014522  18.8693479  81.3374998  31.1331593  27.7384323  94.1282121
  30.4395065  27.3238276  93.6152076  31.8804584  27.7804859  93.5315540
  47.2696814  18.5290510  88.9937155  46.6895483  19.1875314  88.6115208
  47.0032747  17.7067854  88.5824573  45.7200381  17.9295567  91.1958476
  46.2200159  18.0412102  90.3872795  46.3635989  17.6256620  91.8359284
  39.7782376  25.8374197 104.0826317  39.2949458  26.6374557 104.2890206
  39.8643315  25.8482142 103.1293761  33.0468336  27.6702577  92.0048136
  33.0239024  27.7690264  91.0530019  33.3568973  28.5167727  92.3265302
  35.7055714  29.7278732  96.1194750  36.6598967  29.6962674  96.0524682
  35.5068237  29.2669355  96.9344976  36.2955096  28.2979848  98.6865548
  37.1147985  28.7923926  98.7100385  36.5691904  27.3811816  98.6583116
  46.0521692  20.6890600  88.0493504  45.1647547  20.9740251  87.8313698
  46.4675681  20.5284363  87.2020781  49.4036228  20.7137121  91.7647843
  50.1796618  21.2033573  92.0372460  48.6784363  21.1395175  92.2219712
  51.8408787  21.4264740  92.8221783  52.4353278  21.1860476  92.1115092
  51.9135371  20.7071871  93.4495320  34.0605943  35.2698351  93.1364948
  33.9260411  34.5098752  92.5702946  33.6438005  35.9939251  92.6693737
  45.1964906  30.4535275  82.1441524  45.9000756  30.6585277  82.7599179
  44.4727554  31.0212036  82.4090607  46.0262716  26.2045136  88.2643794
  45.9697917  26.6613687  87.4251426  46.5791058  25.4435820  88.0866637
  49.8367522  21.9934868  89.0893913  49.5804456  21.5931503  89.9202121
  49.2120390  22.7078662  88.9644052  37.2175069  36.1667668  93.3483391
  37.1007453  37.1113101  93.2462081  36.3967515  35.8641230  93.7369190
  47.1051603  30.8917804  84.1939984  47.9397207  30.4599002  84.0117458
  46.9435946  30.7199817  85.1216878  46.7597495  27.3949917  85.5596323
  46.7046299  27.2294188  84.6184767  46.1343551  28.1025950  85.7158513
  31.5490010  22.6317981  99.3857745  32.1948874  22.1216935  99.8744970
  31.3407161  23.3686663  99.9601170  44.0743402  29.6998829 104.8849886
  44.9434562  29.8739481 104.5236521  43.5950154  30.5193246 104.7625615
  40.0693621  16.8958026  85.1381641  40.0572291  17.8399866  85.2949912
  40.9617043  16.7128171  84.8441103  38.2429583  36.8195930  96.5639319
  39.1456829  36.8519540  96.8805814  38.0166953  35.8896381  96.5785655
  39.9983185  35.5726916  93.2249398  39.0478816  35.5728778  93.1113770
  40.3015671  34.8259651  92.7085433  43.8845740  13.4900803  89.3927578
  43.1178136  12.9359289  89.5384261  44.2956445  13.5622671  90.2541730
  35.8887501  19.7785599 103.4832759  36.7518963  19.4222403 103.6936084
  35.3152912  19.4399493 104.1708164  52.5425584  41.3614883  94.2256685
  52.2044096  41.2455948  93.3377220  53.4115353  40.9606048  94.2057691
  48.4012400  43.2150359  90.2153576  47.8377265  43.1240296  89.4469864
  48.2864795  42.3950264  90.6956069  53.0245367  42.5149735 100.1842891
  53.0134008  42.1202533  99.3123394  53.1866007  41.7815807 100.7776662
  45.9476832  44.7101551  93.0537796  46.7398124  44.3692376  92.6384096
  46.1873482  44.8196526  93.9739950  47.9067586  43.9710464  85.9255175
  48.6798462  43.4239451  85.7868051  48.2592985  44.8354714  86.1369637
  49.7452629  45.2986847  99.1322075  49.4542495  46.2032477  99.0168741
  50.3809613  45.3403374  99.8466144  50.6708835  42.6763695  95.7223434
  51.2672408  42.4519717  95.0080397  50.7283807  41.9348441  96.3248882
  58.2110994  32.7835716  96.7275956  57.8794319  33.6531127  96.5037171
  57.6156608  32.4672000  97.4069986  54.7042514  44.9848262  96.1271868
  54.4043237  45.8873301  96.0187676  54.3593573  44.7180445  96.9793021
  48.1554995  41.4362059  92.1608573  47.2305492  41.3038273  92.3686264
  48.4039408  42.2156278  92.6578515  45.5163806  41.0795332  92.9952362
  45.6456187  41.3329811  93.9091773  44.8361258  41.6723040  92.6757017
  49.6863294  51.7492582  89.0942836  49.6087323  52.7000407  89.1731317
  49.0824937  51.4038455  89.7517762  52.1780523  38.9220448 101.7504203
  51.4013857  39.4814368 101.7407068  52.8171086  39.4077231 102.2719073
  50.4326896  41.7305901 101.3122170  51.1741580  42.2690945 101.0356993
  49.7263881  42.3572190 101.4693722  55.9082235  43.8735042  99.9094331
  56.3165591  43.4317452  99.1648964  55.1859497  43.2987669 100.1628524
  52.2613305  38.8107648  97.2827888  53.1074500  39.2347062  97.4262537
  52.2011943  38.1541273  97.9766451  55.4112751  36.4712017  98.9409062
  55.1673682  37.2254077  98.4043338  55.6872681  36.8497364  99.7756309
  57.3651213  43.0150629  97.6186328  57.5768109  43.6582389  96.9420709
  57.3180962  42.1812946  97.1508258  54.9677442  35.6268450  94.5222900
  54.1061921  35.9249703  94.8139637  54.9939877  35.8438849  93.5903932
  48.6763093  43.7182122  93.8676469  49.2464450  44.1469390  93.2293953
  49.2671205  43.4364707  94.5660654  49.1688259  38.8845549 102.1137480
  48.5386920  39.5661830 102.3472877  49.0624347  38.7728631 101.1690618
  44.4633232  38.5517345  93.0403404  43.6732286  38.8074874  92.5643515
  44.9544479  39.3665683  93.1455445  52.2453645  45.4406628  97.9469395
  52.3098077  45.9027035  98.7827567  51.5364569  44.8103993  98.0751705
  42.7470935  38.8047836  95.4718395  42.9978973  39.6894846  95.7375971
  43.2830483  38.6252437  94.6993487  48.4469002  33.1866315 104.4762731
  48.0535948  32.6332514 105.1510375  49.2635142  33.4976894 104.8669248
  45.4131060  44.6250173  88.3876301  45.9255580  45.4193424  88.5381865
  46.0653773  43.9276464  88.3209902  47.2225945  47.7415930  90.4699054
  47.3992573  48.6633894  90.2820038  48.0182778  47.4274349  90.8993434
  51.3636963  34.6024194 102.0682987  52.1046676  35.2031347 101.9887450
  51.5954886  33.8601832 101.5101030  46.5078301  39.7880562 100.3461217
  46.3931816  38.8865819 100.6468316  45.6522819  40.0344258  99.9946034
  53.5870139  47.7298302 101.9448718  53.1433993  46.9434680 101.6269622
  54.2487352  47.9177452 101.2792609  48.3457260  49.2594103  96.4709396
  48.8964685  49.1311167  95.6986390  47.5068736  49.5588992  96.1204289
  55.6851377  48.0101102  99.9730119  55.6669852  48.8309983  99.4810388
  56.6071297  47.8855177 100.1980260  52.1424431  45.5245231 100.8153627
  52.6752768  44.7633519 100.5852935  51.6138512  45.2318883 101.5577782
  55.3094126  30.6305297  96.3447269  54.9658395  31.5206939  96.2686380
  55.6773089  30.4406955  95.4816854  43.3779977  42.9538828  89.1635871
  44.2155199  43.3635836  88.9469579  43.5558244  42.0138270  89.1336065
  54.3890666  33.0009952  94.3096502  53.8855462  32.9640088  93.4964308
  54.6821273  33.9102695  94.3693159  50.6333552  33.0848682  93.3162684
  51.4986549  32.8891491  92.9568574  50.7011061  32.8559034  94.2432041
  48.2395871  35.3150890  90.6879051  48.8139623  35.0926072  89.9552244
  48.8266854  35.3839585  91.4407652  51.6529744  42.4711434  81.3307412
  50.7456806  42.2400687  81.5298561  52.1500776  41.6749053  81.5181394
  43.4006148  40.2929543  89.8346605  43.2030548  39.6998904  89.1097671
  42.8452812  39.9881753  90.5522544  54.9169443  39.2671534  98.5446471
  55.2718831  39.4943007  99.4040936  55.5641574  39.5989910  97.9223726
  48.8109306  36.3748065  95.3292812  49.4508685  36.2336824  94.6315775
  47.9786837  36.0882578  94.9531414  49.5869610  45.6750495  91.4427804
  50.3810208  45.1800815  91.2410379  48.8761302  45.1468358  91.0795510
  54.4064454  48.0568591  95.7940172  54.4601477  48.6259527  96.5617888
  53.5379236  48.2270476  95.4294209  45.8137922  36.3448390  90.1065799
  46.0744740  37.2593723  89.9974959  46.6355095  35.8772832  90.2562411
  47.2862848  37.7586147  97.2764623  47.9585901  37.5503509  96.6277272
  46.4592634  37.5608233  96.8369855  53.1888420  34.3848088  99.2930284
  52.5416335  35.0838037  99.1994760  53.9589435  34.8184232  99.6606532
  56.5967218  44.6496940 102.3680837  56.4452724  44.4207492 101.4510921
  56.5871897  45.6067541 102.3812182  53.3652554  42.2228853  97.3527104
  54.2944614  42.3740012  97.1796071  52.9443584  42.3112874  96.4975750
  47.6890345  41.0328750  98.0367060  47.5510143  40.3008989  98.6378599
  48.5995269  40.9437650  97.7551248  50.3172646  40.7448709  97.5250740
  51.0272264  40.1041901  97.4837358  50.2741954  40.9961604  98.4476921
  49.0301580  37.7313927  99.3446379  48.4938937  37.2804666  99.9967976
  48.4418288  37.8659836  98.6016844  48.4403839  37.1902578  81.9072843
  47.5633305  37.0691379  81.5435090  48.9161592  36.3988657  81.6551732
  39.9605979  41.9779738  92.0014350  40.6477019  41.6641468  91.4135365
  39.8054107  42.8821103  91.7281602  44.7640701  36.8669935  96.4299374
  44.6798890  36.2595604  95.6949784  43.9423407  37.3578953  96.4308870
  51.8377985  50.3057099  95.6432542  51.7648157  51.1112070  96.1551847
  51.3955378  50.5049065  94.8180563  54.2976669  50.2043933  97.7990701
  55.0104641  50.8391398  97.7266602  53.8066697  50.3007799  96.9830702
  49.3488582  47.9538376  98.6196271  50.0498042  48.5874859  98.7725666
  48.8783697  48.2953108  97.8591911  57.3783410  32.3193092  93.9448928
  56.4646489  32.5497319  94.1131135  57.8076511  32.4031536  94.7962960
  53.1977441  41.2502795 102.9314859  52.5218078  41.1496924 103.6017234
  54.0205075  41.0942009 103.3950856  44.9456300  47.4874731  95.5527374
  45.5309737  46.7418419  95.6855278  44.7481139  47.7978688  96.4364038
  47.7994955  50.5225979  90.5689817  47.1305331  51.0072106  90.0853857
  47.6607825  50.7695199  91.4833195  39.5373955  40.0580332  94.2731817
  39.5758054  39.5243922  95.0668935  39.0314248  39.5315537  93.6542794
  46.9164717  34.9044872  97.7694360  46.9806044  35.7659703  97.3571757
  46.8531837  34.2918874  97.0366718  46.3916990  36.9768005 101.4167394
  47.0189029  36.5945082 102.0304918  45.5344909  36.7582207 101.7823086
  56.7911098  47.3830980 103.0221129  57.3351002  47.9960938 102.5276084
  56.2097943  47.9410558 103.5388142  43.1682533  38.7844434  87.3485749
  43.4635974  37.8755112  87.2952802  42.2670568  38.7632173  87.0266751
  55.0768611  50.5051698  94.1536157  54.9519751  49.7041438  93.6447103
  55.7347702  50.9997891  93.6650127  46.6976780  36.8600430  93.3313297
  45.9763365  37.4736398  93.1920771  47.4870035  37.3958195  93.2529943
  49.5003093  34.1954857  99.6053949  50.0237495  34.4417153 100.3680258
  49.2815426  35.0274892  99.1857086  44.8970374  36.4658531  87.4725074
  44.5683080  35.5855910  87.2900180  45.2509745  36.4106200  88.3601463
  50.7055638  35.1368552  97.2903620  50.3652458  34.3376365  97.6924299
  49.9994644  35.4370263  96.7180453  51.3572110  32.2217864  95.7430943
  52.1798179  31.7478343  95.6209833  51.6010173  33.0008348  96.2429629
  48.8810689  38.9136985  93.5522921  48.7355269  39.2277288  94.4447203
  48.4035892  39.5321885  92.9993820  52.5933202  36.3376873  95.6456938
  52.3350980  37.2593944  95.6441269  52.0618243  35.9407308  96.3357402
  43.3556351  41.4542329  96.4910582  42.8109819  42.2302137  96.6230857
  44.2335701  41.8013134  96.3329704  44.1422373  40.5812226  99.3840739
  43.4004109  40.7294861  99.9705370  43.8215117  40.8420491  98.5207489
  52.0866035  50.1228204  99.1821129  52.3953162  49.8777351 100.0543829
  52.8841517  50.3274842  98.6939999  52.1086647  52.2766113  91.4126506
  51.6691638  51.7842492  92.1059363  52.8594764  51.7339081  91.1718581
  44.5878986  48.4677654  91.4151134  45.4137006  48.1681426  91.0349777
  44.2373038  47.6985277  91.8640923  49.5560520  47.8204123  93.4848807
  48.9340529  47.1574828  93.1851035  50.2265386  47.8465254  92.8022455
  42.7887591  46.3863981  92.3740067  41.9519500  45.9586155  92.1924069
  42.7611237  46.5796424  93.3110859  49.6285047  36.2985911 103.0781314
  49.6773202  37.1748033 102.6959083  50.1707561  35.7563304 102.5052957
  60.2337768  43.6919500  99.6715179  60.2835773  43.5269508 100.6130702
  60.1251691  42.8246759  99.2813060  49.1174026  46.3708046  86.9607268
  49.2662147  47.0543510  86.3073941  49.9240470  46.3513136  87.4756724
  57.5241530  39.6750428 100.9874486  58.4251393  39.5356893 100.6958484
  57.5989505  39.8404883 101.9272663  51.8584335  37.0517283  99.8327672
  50.9887645  37.3450849  99.5610261  52.0943816  37.6357728 100.5534936
  59.9843153  41.2349056  98.3837259  60.4597274  41.4276703  97.5756110
  59.0608718  41.2908242  98.1380642  54.5623369  33.2696900  97.3493093
  55.0805313  34.0057927  97.0239581  54.2078502  33.5760893  98.1839852
  54.8135963  29.6897182  92.8693989  55.0937717  29.0220372  93.4954416
  55.5986570  29.8826278  92.3568653  56.7059201  35.1970400  96.8024965
  56.1109133  35.4775412  96.1071454  56.4208898  35.6864301  97.5741706
  52.8854923  44.2534735 103.2335725  53.8057932  44.4313334 103.4275771
  52.8504506  43.3090781 103.0815424  51.1859148  38.1266966  81.7089953
  50.2790603  37.8300078  81.7852667  51.4635129  37.8296784  80.8424239
  42.1037088  39.4473329  92.1589000  41.7839872  38.5938637  91.8663374
  41.5570516  39.6621907  92.9146967  45.8816996  42.1635770  95.8758506
  46.1003005  43.0952878  95.8946540  46.2942769  41.8043744  96.6613310
  50.7544861  37.7368976 105.2661255  50.6541588  38.6863333 105.1973346
  50.5366403  37.4087215 104.3937325  49.9557932  34.9853901  81.8501932
  50.8177096  35.3108799  82.1097750  50.1408276  34.1985397  81.3374998
  41.9725348  43.0676240  94.1282121  41.2788819  42.6530193  93.6152076
  42.7198339  43.1096777  93.5315540  50.6176131  41.1666115 104.0826317
  50.1343213  41.9666475 104.2890206  50.7037070  41.1774059 103.1293761
  43.8862091  42.9994494  92.0048136  43.8632779  43.0982181  91.0530019
  44.1962727  43.8459645  92.3265302  46.5449468  45.0570649  96.1194750
  47.4992722  45.0254592  96.0524682  46.3461992  44.5961273  96.9344976
  47.1348851  43.6271765  98.6865548  47.9541740  44.1215844  98.7100385
  47.4085658  42.7103733  98.6583116  48.0568823  51.4959586  93.3483391
  47.9401207  52.4405018  93.2462081  47.2361269  51.1933147  93.7369190
  42.3883765  37.9609899  99.3857745  43.0342628  37.4508853  99.8744970
  42.1800916  38.6978581  99.9601170  54.9137157  45.0290747 104.8849886
  55.7828317  45.2031399 104.5236521  54.4343908  45.8485163 104.7625615
  49.0823337  52.1487848  96.5639319  49.9850584  52.1811458  96.8805814
  48.8560707  51.2188299  96.5785655  50.8376939  50.9018834  93.2249398
  49.8872570  50.9020696  93.1113770  51.1409425  50.1551569  92.7085433
  46.7281256  35.1077516 103.4832759  47.5912717  34.7514321 103.6936084
  46.1546666  34.7691411 104.1708164  66.7475990  59.2026959  99.9094331
  67.1559346  58.7609370  99.1648964  66.0253251  58.6279587 100.1628524
  66.5245131  63.3393019  99.9730119  66.5063607  64.1601900  99.4810388
  67.4465051  63.2147095 100.1980260  71.4860934  57.7181887  89.2495800
  71.3478833  57.9083483  88.3216989  71.1297153  58.4801270  89.7063851
  69.1453179  63.0107980 100.4457319  69.0865725  62.3267200  99.7787902
  69.5472697  63.7526970  99.9937945  60.1882337  63.2830294  98.6196271
  60.8891796  63.9166777  98.7725666  59.7177452  63.6245026  97.8591911
  67.6304853  62.7122897 103.0221129  68.1744757  63.3252856 102.5276084
  67.0491698  63.2702476 103.5388142  70.9533647  62.1718952 102.3582451
  70.1629191  62.1543090 101.8186950  70.7167002  62.7107245 103.1131487
  72.5749719  61.4408359  99.9157201  72.2834527  61.8038340 100.7520662
  71.9621850  60.7275368  99.7370533  75.8267369  55.3914776  91.5965205
  75.2666927  55.4607966  92.3696767  75.2210872  55.2155761  90.8764701
  74.2213093  72.0198718  94.2256685  73.8831605  71.9039783  93.3377220
  75.0902862  71.6189883  94.2057691  76.9664656  69.7922744  91.3648368
  77.7527745  69.3742167  91.0138785  77.2303360  70.6968836  91.5330017
  73.9400814  69.4691484  97.2827888  74.7862009  69.8930897  97.4262537
  73.8799452  68.8125108  97.9766451  77.0900260  67.1295852  98.9409062
  76.8461191  67.8837913  98.4043338  77.3660190  67.5081200  99.7756309
  70.1256511  63.8450151 104.4762731  69.7323457  63.2916349 105.1510375
  70.9422651  64.1560729 104.8669248  68.9013453  78.3999765  90.4699054
  69.0780082  79.3217730  90.2820038  69.6970287  78.0858184  90.8993434
  73.0424472  65.2608030 102.0682987  73.7834185  65.8615183 101.9887450
  73.2742395  64.5185667 101.5101030  75.4543788  69.3357908  93.7401768
  74.5366350  69.5572855  93.5823456  75.8703932  69.4104218  92.8813475
  74.8675929  65.0431923  99.2930284  74.2203844  65.7421873  99.1994760
  75.6376944  65.4768067  99.6606532  69.0037632  85.1561812  93.2391038
  69.2434230  85.7880336  93.9170057  68.1606829  84.8049852  93.5256397
  69.4782464  81.1809814  90.5689817  68.8092840  81.6655942  90.0853857
  69.3395334  81.4279035  91.4833195  71.1790602  64.8538692  99.6053949
  71.7025004  65.1000989 100.3680258  70.9602935  65.6858727  99.1857086
  66.2666495  79.1261490  91.4151134  67.0924515  78.8265262  91.0349777
  65.9160547  78.3569112  91.8640923  71.3072556  66.9569746 103.0781314
  71.3560711  67.8331869 102.6959083  71.8495070  66.4147139 102.5052957
  73.5371844  67.7101118  99.8327672  72.6675154  68.0034684  99.5610261
  73.7731325  68.2941563 100.5534936  80.3632331  68.7698652  96.6165564
  81.3149754  68.8696749  96.6377788  80.1935781  67.9776920  97.1263649
  88.6596958  73.0520778  94.8713901  89.3900347  72.7906066  95.4321604
  88.0503904  72.3149500  94.9115969  66.5787206  81.2574104  93.1364948
  66.4441674  80.4974505  92.5702946  66.1619268  81.9815004  92.6693737
  68.4068765  65.7661352 103.4832759  69.2700226  65.4098156 103.6936084
  67.8334175  65.4275246 104.1708164  84.6961787  84.9096201 101.7504203
  83.9195121  85.4690121 101.7407068  85.3352350  85.3952984 102.2719073
  92.4882567  81.6922994  95.5847180  91.8456948  81.9855527  94.9386974
  91.9837496  81.5775914  96.3900376  88.4263499  89.8610795  99.9094331
  88.8346855  89.4193205  99.1648964  87.7040760  89.2863422 100.1628524
  81.6869523  84.8721302 102.1137480  81.0568183  85.5537583 102.3472877
  81.5805611  84.7604384 101.1690618  99.0884298  88.2237086  92.1393656
  98.3348006  87.6544484  91.9837661  99.2231839  88.1899751  93.0864291
  83.8818227  80.5899947 102.0682987  84.6227940  81.1907100 101.9887450
  84.1136149  79.8477585 101.5101030  86.1051402  93.7174055 101.9448718
  85.6615256  92.9310433 101.6269622  86.7668616  93.9053205 101.2792609
  87.8275389  76.6181050  96.3447269  87.4839659  77.5082692  96.2686380
  88.1954352  76.4282708  95.4816854  89.1148481  90.6372693 102.3680837
  88.9633988  90.4083245 101.4510921  89.1053161  91.5943294 102.3812182
  95.3075436  87.0439617  93.4387860  95.2965312  87.9264332  93.0681794
  94.4392815  86.6911168  93.2442397  89.6671132  86.4958737  96.4448822
  89.0142582  86.7434644  95.7901275  90.0451511  85.6822875  96.1111299
  85.7158705  87.2378548 102.9314859  85.0399342  87.1372677 103.6017234
  86.5386338  87.0817762 103.3950856  78.9098253  82.9643758 101.4167394
  79.5370292  82.5820835 102.0304918  78.0526172  82.7457960 101.7823086
  82.1466310  82.2861664 103.0781314  82.1954466  83.1623786 102.6959083
  82.6888825  81.7439057 102.5052957  90.0422794  85.6626181 100.9874486
  90.9432656  85.5232646 100.6958484  90.1170768  85.8280636 101.9272663
  84.3765599  83.0393036  99.8327672  83.5068908  83.3326602  99.5610261
  84.6125079  83.6233481 100.5534936  92.5024416  87.2224809  98.3837259
  92.9778538  87.4152456  97.5756110  91.5789982  87.2783995  98.1380642
  93.8308652  84.1107733  95.7766147  93.3147700  83.3266189  95.5896076
  94.7148600  83.7826449  95.9412667  85.4036186  90.2410488 103.2335725
  86.3239196  90.4189087 103.4275771  85.3685769  89.2966534 103.0815424
  83.2726124  83.7244729 105.2661255  83.1722851  84.6739086 105.1973346
  83.0547666  83.3962968 104.3937325  83.1357394  87.1541868 104.0826317
  82.6524476  87.9542228 104.2890206  83.2218333  87.1649812 103.1293761
  87.4318420  91.0166500 104.8849886  88.3009580  91.1907152 104.5236521
  86.9525172  91.8360916 104.7625615  95.3042198  97.8398954  84.4606038
  95.4716601  98.7079190  84.8276509  95.1139368  98.0026236  83.5367327
  95.2831419 100.2956611  85.4452705  95.1631045 100.7413662  86.2838185
  94.5884008 100.6441929  84.8866243  94.0782916 101.6101463  87.7386270
  94.7806959 102.0622507  88.2060197  93.7463544 100.9685282  88.3666164
  98.6319427 101.9381579  84.8519704  98.1166050 102.7086184  85.0908092
  98.3596735 101.2646715  85.4752766  98.4205730  99.8108671  86.6779485
  98.1155865 100.1254820  87.5289629  99.3736172  99.8890091  86.7206818
  96.8652162 105.9698894  88.3272439  96.3373523 105.2351654  88.0145677
  96.3639664 106.7473571  88.0812408  97.9166345 101.3933159  88.8704448
  98.6638164 101.9054556  88.5611570  98.1857935 101.0717212  89.7308842
  96.1892995 103.8891700  85.8531403  95.2804215 103.6050732  85.9503872
  96.2188079 104.3090778  84.9934709 101.4212263 107.4998289  89.6222570
 100.9674590 106.6589199  89.6787761 100.7906229 108.1359687  89.9597350
  99.8645202 109.3374786  90.5572388 100.1568176 109.8979843  89.8384754
 100.3743823 109.6303347  91.3125547 100.4656810  91.2066527  91.4465007
 100.7715686  90.3463891  91.1590922 101.1909414  91.7984147  91.2464001
  94.8278827 110.1155137  91.6465841  94.7855006 110.3415983  90.7174373
  95.7441526 109.8818511  91.7951643  92.9444628 106.9918166  91.4427804
  93.7385226 106.4968486  91.2410379  92.2336320 106.4636029  91.0795510
  97.7639472 109.3736261  95.7940172  97.8176495 109.9427198  96.5617888
  96.8954254 109.5438146  95.4294209  97.0721119 106.9428791  92.5114479
  96.7370952 106.9029561  93.4072129  96.5725065 106.2773506  92.0384889
  99.3769213 105.4262856  89.3707992  98.4425492 105.5464319  89.2012697
  99.5545882 104.5235323  89.1068002  97.4672060 111.8610348  90.5476992
  97.6494454 111.0432004  91.0104744  98.2905046 112.0778040  90.1101882
  98.4343629 111.8219368  94.1536157  98.3094769 111.0209108  93.6447103
  99.0922720 112.3165562  93.6650127  97.5024971 109.4181105  91.9820059
  97.3549933 108.4897812  92.1627629  98.3278464 109.4401196  91.4977135
 101.1059093 110.2409664  93.0684932 102.0305640 110.0352525  92.9309383
 100.9374396 109.9926065  93.9774274  92.4749044 107.6875717  86.9607268
  92.6237165 108.3711181  86.3073941  93.2815488 107.6680807  87.4756724
 107.2214140 119.1609323 100.1842891 107.2102781 118.7662121  99.3123394
 107.3834779 118.4275396 100.7776662 104.8677608 119.3223283  95.7223434
 105.4641180 119.0979306  95.0080397 104.9252579 118.5808029  96.3248882
 108.9011286 121.6307850  96.1271868 108.6012009 122.5332889  96.0187676
 108.5562346 121.3640034  96.9793021 110.1051008 120.5194630  99.9094331
 110.5134364 120.0777041  99.1648964 109.3828269 119.9447258 100.1628524
 102.8731865 120.3641710  93.8676469 103.4433222 120.7928979  93.2293953
 103.4639977 120.0824295  94.5660654 106.4422417 122.0866216  97.9469395
 106.5066850 122.5486623  98.7827567 105.7333341 121.4563581  98.0751705
 107.7838911 124.3757890 101.9448718 107.3402765 123.5894269 101.6269622
 108.4456125 124.5637041 101.2792609 109.8820149 124.6560690  99.9730119
 109.8638625 125.4769571  99.4810388 110.8040069 124.5314765 100.1980260
 106.3393203 122.1704820 100.8153627 106.8721540 121.4093108 100.5852935
 105.8107285 121.8778471 101.5577782 108.6033227 124.7028179  95.7940172
 108.6570249 125.2719115  96.5617888 107.7348008 124.8730064  95.4294209
 100.0106695 112.9907978  90.1065799 100.2713512 113.9053311  89.9974959
 100.8323867 112.5232421  90.2562411 110.7935990 121.2956528 102.3680837
 110.6421497 121.0667080 101.4510921 110.7840670 122.2527130 102.3812182
 107.5621327 118.8688441  97.3527104 108.4913387 119.0199601  97.1796071
 107.1412357 118.9572462  96.4975750 106.3609658 122.8939106  95.1225641
 106.2220744 122.5257890  95.9951579 105.5724255 123.4086745  94.9509599
 101.8859118 117.6788338  98.0367060 101.7478915 116.9468577  98.6378599
 102.7964041 117.5897238  97.7551248 104.5141418 117.3908298  97.5250740
 105.2241037 116.7501490  97.4837358 104.4710726 117.6421192  98.4476921
 108.4945441 126.8503521  97.7990701 109.2073413 127.4850986  97.7266602
 108.0035470 126.9467387  96.9830702 110.9879871 124.0290568 103.0221129
 111.5319775 124.6420526 102.5276084 110.4066716 124.5870147 103.5388142
 100.8945552 113.5060019  93.3313297 100.1732138 114.1195986  93.1920771
 101.6838808 114.0417783  93.2529943 103.7529292 124.4663711  93.4848807
 103.1309301 123.8034416  93.1851035 104.4234159 124.4924843  92.8022455
 107.0823695 120.8994324 103.2335725 108.0026705 121.0772923 103.4275771
 107.0473278 119.9550369 103.0815424 109.1105929 121.6750335 104.8849886
 109.9797089 121.8490987 104.5236521 108.6312681 122.4944752 104.7625615
 105.0345712 127.5478423  93.2249398 104.0841343 127.5480284  93.1113770
 105.3378198 126.8011157  92.7085433 120.7698405 133.3838961  94.2895160
 121.4076815 133.2645708  93.5858500 120.6519248 134.3319805  94.3483113
 117.5788111 133.3366389  94.2256685 117.2406623 133.2207454  93.3377220
 118.4477880 132.9357554  94.2057691 113.4374927 135.1901865  90.2153576
 112.8739792 135.0991802  89.4469864 113.3227322 134.3701770  90.6956069
 118.0607894 134.4901241 100.1842891 118.0496535 134.0954039  99.3123394
 118.2228534 133.7567313 100.7776662 110.9839359 136.6853057  93.0537796
 111.7760651 136.3443882  92.6384096 111.2236009 136.7948032  93.9739950
 119.0174486 138.8572833  85.5268041 118.3662466 139.4426914  85.1402055
 119.8118849 139.3879028  85.5863078 112.9430113 135.9461970  85.9255175
 113.7160989 135.3990957  85.7868051 113.2955512 136.8106220  86.1369637
 114.7815156 137.2738353  99.1322075 114.4905022 138.1783983  99.0168741
 115.4172140 137.3154880  99.8466144 115.7071362 134.6515201  95.7223434
 116.3034935 134.4271223  95.0080397 115.7646334 133.9099947  96.3248882
 115.2796391 132.1054636  83.5573625 115.5321911 131.5836158  82.7957088
 114.3420950 131.9420782  83.6600309 120.4949751 136.5463265  86.0637025
 119.8595584 136.6197892  86.7757930 120.1647157 137.1356864  85.3856104
 125.7248101 131.0465648  92.2681347 126.4573273 130.4764865  92.5019176
 124.9687456 130.6587248  92.7087853 114.9992680 134.0082742  85.7598000
 114.8828938 133.3327646  86.4279084 115.1094939 133.5215116  84.9430153
 117.3424220 133.4692889  89.4644689 116.9782428 132.9423510  90.1757611
 118.1991336 133.0791359  89.2911175 123.2473521 124.7587222  96.7275956
 122.9156846 125.6282633  96.5037171 122.6519134 124.4423506  97.4069986
 119.7405041 136.9599768  96.1271868 119.4405764 137.8624807  96.0187676
 119.3956100 136.6931951  96.9793021 113.1917522 133.4113565  92.1608573
 112.2668019 133.2789779  92.3686264 113.4401935 134.1907784  92.6578515
 123.1402184 129.4782308  93.8069306 122.2319062 129.4097717  93.5128067
 123.0889780 129.9554253  94.6351131 116.9618928 130.9540447  85.4452705
 116.8418554 131.3997497  86.2838185 116.2671517 131.3025764  84.8866243
 110.5526333 133.0546838  92.9952362 110.6818714 133.3081317  93.9091773
 109.8723784 133.6474546  92.6757017 114.7225820 143.7244088  89.0942836
 114.6449850 144.6751914  89.1731317 114.1187464 143.3789961  89.7517762
 117.2143050 130.8971954 101.7504203 116.4376384 131.4565874 101.7407068
 117.8533613 131.3828737 102.2719073 125.0063831 127.6798747  95.5847180
 124.3638211 127.9731280  94.9386974 124.5018759 127.5651667  96.3900376
 122.6603994 131.4261920  86.2733039 123.5721851 131.6589307  86.0980736
 122.1513642 132.0098964  85.7108117 115.4689423 133.7057407 101.3122170
 116.2104107 134.2442451 101.0356993 114.7626408 134.3323696 101.4693722
 120.9444762 135.8486548  99.9094331 121.3528118 135.4068958  99.1648964
 120.2222024 135.2739175 100.1628524 117.2975832 130.7859154  97.2827888
 118.1437027 131.2098568  97.4262537 117.2374470 130.1292779  97.9766451
 121.2673577 136.4087738  93.6646620 120.6382439 136.5733452  92.9622688
 120.8799239 136.8229348  94.4357584 125.1462809 137.3442176  91.0190984
 124.4613847 137.7241078  90.4688017 125.2306658 137.9537503  91.7522932
 120.4475278 128.4463523  98.9409062 120.2036209 129.2005583  98.4043338
 120.7235208 128.8248870  99.7756309 122.4013740 134.9902135  97.6186328
 122.6130636 135.6333895  96.9420709 122.3543489 134.1564452  97.1508258
 116.8201539 136.1462146  90.9296705 117.2839884 136.4249849  90.1401328
 116.5558337 135.2445591  90.7469796 113.7125620 135.6933628  93.8676469
 114.2826977 136.1220896  93.2293953 114.3033732 135.4116213  94.5660654
 115.7570425 132.2685299  87.7386270 116.4594468 132.7206342  88.2060197
 115.4251053 131.6269118  88.3666164 114.2050786 130.8597055 102.1137480
 113.5749447 131.5413336 102.3472877 114.0986874 130.7480137 101.1690618
 109.4995759 130.5268851  93.0403404 108.7094813 130.7826380  92.5643515
 109.9907006 131.3417189  93.1455445 123.5159568 137.8674091  95.7908685
 124.3377012 137.4654278  95.5091367 123.5121971 137.7642325  96.7424801
 111.4510504 130.8913431  89.9986881 110.6541667 131.0032125  90.5170376
 111.2236096 131.2300083  89.1327771 117.2816172 137.4158134  97.9469395
 117.3460604 137.8778541  98.7827567 116.5727096 136.7855499  98.0751705
 107.7833462 130.7799342  95.4718395 108.0341500 131.6646352  95.7375971
 108.3193010 130.6003943  94.6993487 131.6065561 134.2112839  92.1393656
 130.8529270 133.6420237  91.9837661 131.7413103 134.1775504  93.0864291
 116.9964189 139.0826241  87.8148376 116.8609864 139.9277777  88.2433224
 117.5374002 139.2845519  87.0514310 113.4831529 125.1617821 104.4762731
 113.0898475 124.6084020 105.1510375 114.2997669 125.4728400 104.8669248
 110.4493587 136.6001679  88.3876301 110.9618107 137.3944930  88.5381865
 111.1016300 135.9027970  88.3209902 112.2588471 139.7167436  90.4699054
 112.4355100 140.6385400  90.2820038 113.0545305 139.4025855  90.8993434
 116.3999490 126.5775700 102.0682987 117.1409203 127.1782853 101.9887450
 116.6317413 125.8353338 101.5101030 111.5440828 131.7632068 100.3461217
 111.4294343 130.8617325 100.6468316 110.6885346 132.0095764  99.9946034
 118.6232666 139.7049808 101.9448718 118.1796520 138.9186186 101.6269622
 119.2849879 139.8928958 101.2792609 113.3819787 141.2345609  96.4709396
 113.9327212 141.1062673  95.6986390 112.5431263 141.5340499  96.1204289
 120.7213904 139.9852608  99.9730119 120.7032379 140.8061489  99.4810388
 121.6433824 139.8606683 100.1980260 117.1786958 137.4996737 100.8153627
 117.7115295 136.7385025 100.5852935 116.6501039 137.2070389 101.5577782
 120.3106936 132.5965414  84.8519704 119.7953559 133.3670019  85.0908092
 120.0384244 131.9230551  85.4752766 125.2841210 135.3497769  86.7872878
 124.5070653 135.0108929  86.3428040 125.9632691 135.3550392  86.1127843
 118.5439671 136.6282730  88.3272439 118.0161032 135.8935489  88.0145677
 118.0427173 137.4057406  88.0812408 123.5232517 134.8231750  93.4439486
 122.8656191 135.5131012  93.5319614 124.3272916 135.2128182  93.7873472
 122.3337975 133.1776123  91.4943427 122.8469857 133.8106115  91.9965137
 122.9839199 132.5777318  91.1286788 113.6027985 129.3206857  84.7074936
 112.7665298 129.6581544  85.0284211 113.4632755 129.1855837  83.7702073
 116.6892271 134.4462940  81.3307412 115.7819333 134.2152194  81.5298561
 117.1863303 133.6500559  81.5181394 119.5960350 143.1560447  84.2504099
 118.9222048 143.4592144  84.8589056 119.9826172 143.9589528  83.9009556
 118.8118806 130.6525579  93.7401768 117.8941368 130.8740526  93.5823456
 119.2278950 130.7271889  92.8813475 117.8680504 134.5475535  85.8531403
 116.9591724 134.2634568  85.9503872 117.8975588 134.9674613  84.9934709
 123.0999772 138.1582124  89.6222570 122.6462099 137.3173034  89.6787761
 122.4693738 138.7943523  89.9597350 121.5432711 139.9958621  90.5572388
 121.8355685 140.5563678  89.8384754 122.0531332 140.2887182  91.3125547
 117.5656592 136.0884279  83.1919481 117.1276022 135.3720138  82.7325118
 118.3067033 136.3160393  82.6304573 116.5066336 140.7738972  91.6465841
 116.4642515 140.9999819  90.7174373 117.4229035 140.5402347  91.7951643
 119.9531970 131.2423040  98.5446471 120.3081358 131.4694513  99.4040936
 120.6004101 131.5741417  97.9223726 125.6829707 134.3641476  89.2495800
 125.5447605 134.5543072  88.3216989 125.3265926 135.1260858  89.7063851
 125.7099086 136.4318003  94.2607071 126.1435593 136.3393292  95.1090125
 126.4230667 136.4075503  93.6227087 114.6232137 137.6502001  91.4427804
 115.4172735 137.1552321  91.2410379 113.9123829 137.1219864  91.0795510
 119.4426981 140.0320097  95.7940172 119.4964004 140.6011033  96.5617888
 118.5741763 140.2021982  95.4294209 110.9314900 131.7945083  87.5187557
 110.0012488 131.7329538  87.7357519 111.0272372 131.2721036  86.7224198
 112.3225375 129.7337653  97.2764623 112.9948428 129.5255015  96.6277272
 111.4955161 129.5359739  96.8369855 126.5714636 136.4741703  96.7939957
 126.7650526 137.3787514  97.0399232 126.4715254 136.0149122  97.6278542
 118.2250947 126.3599594  99.2930284 117.5778862 127.0589544  99.1994760
 118.9951962 126.7935738  99.6606532 121.6329745 136.6248446 102.3680837
 121.4815251 136.3958998 101.4510921 121.6234424 137.5819047 102.3812182
 118.4015081 134.1980359  97.3527104 119.3307141 134.3491518  97.1796071
 117.9806111 134.2864380  96.4975750 117.2003413 138.2231023  95.1225641
 117.0614499 137.8549808  95.9951579 116.4118009 138.7378663  94.9509599
 117.7951565 143.3240120  86.4651178 117.9703321 142.8528163  87.2796800
 117.1084353 143.9505886  86.6932439 118.7508628 137.6012626  92.5114479
 118.4158461 137.5613396  93.4072129 118.2512574 136.9357342  92.0384889
 112.7252872 133.0080256  98.0367060 112.5872670 132.2760495  98.6378599
 113.6357795 132.9189156  97.7551248 121.6867820 134.9468660  82.7851539
 121.0696990 134.2215488  82.6884591 121.2184308 135.7078021  82.4418613
 115.3535173 132.7200215  97.5250740 116.0634791 132.0793407  97.4837358
 115.3104481 132.9713110  98.4476921 123.3421951 139.6567569 100.4457319
 123.2834498 138.9726789  99.7787902 123.7441470 140.3986559  99.9937945
 114.0664107 129.7065433  99.3446379 113.5301464 129.2556172  99.9967976
 113.4780815 129.8411342  98.6016844 112.3612650 146.4729482  93.2391038
 112.6009248 147.1048007  93.9170057 111.5181847 146.1217522  93.5256397
 123.3439359 137.6207153  98.6771299 122.4566137 137.2833074  98.7997698
 123.9137910 136.8890184  98.9140064 109.8003228 128.8421441  96.4299374
 109.7161417 128.2347110  95.6949784 108.9785934 129.3330459  96.4308870
 116.8740512 142.2808605  95.6432542 116.8010683 143.0863576  96.1551847
 116.4317905 142.4800571  94.8180563 116.6630292 141.5180375  89.1535364
 115.8797814 142.0602055  89.2473588 117.3623037 142.0354355  89.5529605
 127.8256699 133.0315370  93.4387860 127.8146575 133.9140085  93.0681794
 126.9574079 132.6786921  93.2442397 119.3339196 142.1795439  97.7990701
 120.0467168 142.8142904  97.7266602 118.8429224 142.2759305  96.9830702
 121.0556722 136.0846692  89.3707992 120.1213001 136.2048154  89.2012697
 121.2333391 135.1819158  89.1068002 124.4429274 131.9264011  89.9058026
 124.9089726 132.7592002  89.8318329 124.8936774 131.4608992  90.6103285
 114.3851109 139.9289882  98.6196271 115.0860569 140.5626365  98.7725666
 113.9146224 140.2704614  97.8591911 122.5105505 138.2707832  86.9044178
 122.7865349 138.1564427  87.8138053 121.6410004 137.8725317  86.8656352
 122.1852395 132.4834490  96.4448822 121.5323845 132.7310397  95.7901275
 122.5632775 131.6698628  96.1111299 119.1459569 142.5194183  90.5476992
 119.3281963 141.7015839  91.0104744 119.9692555 142.7361875  90.1101882
 119.4801734 141.4462368  87.8092041 120.0089501 140.9354823  87.1962203
 119.7429954 141.1304898  88.6737574 118.2339968 133.2254301 102.9314859
 117.5580605 133.1248430 103.6017234 119.0567602 133.0693515 103.3950856
 109.9818827 139.4626237  95.5527374 110.5672264 138.7169925  95.6855278
 109.7843666 139.7730194  96.4364038 112.8357482 142.4977485  90.5689817
 112.1667858 142.9823612  90.0853857 112.6970352 142.7446705  91.4833195
 104.5736482 132.0331838  94.2731817 104.6120581 131.4995428  95.0668935
 104.0676775 131.5067043  93.6542794 116.9762751 144.5321228  97.1672475
 117.5281059 144.6952850  97.9321560 117.3168944 145.1225666  96.4952500
 111.9527244 126.8796378  97.7694360 112.0168571 127.7411209  97.3571757
 111.8894364 126.2670380  97.0366718 111.4279517 128.9519511 101.4167394
 112.0551556 128.5696588 102.0304918 110.5707436 128.7333713 101.7823086
 121.8273625 139.3582486 103.0221129 122.3713529 139.9712444 102.5276084
 121.2460470 139.9162064 103.5388142 120.1131138 142.4803204  94.1536157
 119.9882278 141.6792944  93.6447103 120.7710229 142.9749397  93.6650127
 122.1766047 140.2812224  95.7815707 121.2296382 140.1617575  95.7094034
 122.5248820 139.3934722  95.8641969 114.5365620 126.1706363  99.6053949
 115.0600022 126.4168659 100.3680258 114.3177953 127.0026398  99.1857086
 119.1812480 140.0764940  91.9820059 119.0337442 139.1481648  92.1627629
 120.0065973 140.0985031  91.4977135 122.7846602 140.8993499  93.0684932
 123.7093149 140.6936360  92.9309383 122.6161905 140.6509900  93.9774274
 113.9173216 130.8888491  93.5522921 113.7717796 131.2028794  94.4447203
 113.4398419 131.5073391  92.9993820 122.5741918 141.4179166  88.4247024
 122.7478795 140.8525589  87.6720876 123.0670809 142.2180061  88.2426514
 108.3918878 133.4293835  96.4910582 107.8472346 134.2053643  96.6230857
 109.2698228 133.7764640  96.3329704 128.4281309 134.1815589  90.0437323
 128.8712455 133.4322914  89.6456447 127.5507819 134.1725726  89.6611055
 123.5617090 140.7345931  85.5243922 124.2567995 141.3552623  85.7431236
 123.9040241 139.8841282  85.7996300 109.1784900 132.5563732  99.3840739
 108.4366636 132.7046367  99.9705370 108.8577644 132.8171997  98.5207489
 125.4608514 138.1845636  87.0531253 125.9859838 138.5232909  86.3280573
 125.3730866 137.2492652  86.8694387 117.1228562 142.0979710  99.1821129
 117.4315689 141.8528857 100.0543829 117.9204044 142.3026348  98.6939999
 117.1449174 144.2517620  91.4126506 116.7054165 143.7593998  92.1059363
 117.8957291 143.7090587  91.1718581 109.6241513 140.4429160  91.4151134
 110.4499533 140.1432932  91.0349777 109.2735565 139.6736783  91.8640923
 114.5923046 139.7955629  93.4848807 113.9703056 139.1326334  93.1851035
 115.2627913 139.8216761  92.8022455 107.8250118 138.3615487  92.3740067
 106.9882027 137.9337661  92.1924069 107.7973764 138.5547930  93.3110859
 114.6647574 128.2737417 103.0781314 114.7135729 129.1499539 102.6959083
 115.2070088 127.7314810 102.5052957 125.1502420 138.8178540 102.3582451
 124.3597963 138.8002679 101.8186950 124.9135774 139.3566834 103.1131487
 125.2700295 135.6671006  99.6715179 125.3198300 135.5021014 100.6130702
 125.1614218 134.7998265  99.2813060 114.1536553 138.3459552  86.9607268
 114.3024674 139.0295016  86.3073941 114.9602997 138.3264642  87.4756724
 122.5604057 131.6501934 100.9874486 123.4613920 131.5108399 100.6958484
 122.6352032 131.8156389 101.9272663 116.8946862 129.0268789  99.8327672
 116.0250172 129.3202355  99.5610261 117.1306343 129.6109234 100.5534936
 126.7718492 138.0867948  99.9157201 126.4803300 138.4497928 100.7520662
 126.1590623 137.3734956  99.7370533 127.9714174 135.6520828  92.4359771
 128.8061065 136.0910632  92.5997331 128.1073303 135.1759481  91.6168017
 125.0205680 133.2100562  98.3837259 125.4959801 133.4028209  97.5756110
 124.0971245 133.2659748  98.1380642 111.1784834 130.1053087  85.4654498
 110.4854079 130.1797442  84.8094534 110.9336586 129.3413431  85.9876015
 117.6531959 140.8407682  84.4319015 117.0805926 141.4597870  83.9789487
 118.2264753 141.3907044  84.9658937 123.7207349 130.0866323  96.6165564
 124.6724772 130.1864420  96.6377788 123.5510799 129.2944591  97.1263649
 121.7421728 127.1721906  96.8024965 121.1471660 127.4526918  96.1071454
 121.4571425 127.6615807  97.5741706 120.8729219 141.1244833  85.5627598
 121.8059892 141.0590394  85.7660473 120.7852432 141.9601099  85.1042130
 123.5017235 140.4410703  82.5231545 123.4230867 140.1070566  83.4167303
 124.3226902 140.9332471  82.5223018 126.1995427 133.3072442  95.7307864
 126.1671747 132.3688443  95.9167548 126.8096050 133.3856479  94.9973689
 118.0378757 132.1768495  81.7735068 118.9837862 132.0474703  81.8423486
 117.6593002 131.4383157  82.2504496 126.3489915 130.0983486  95.7766147
 125.8328964 129.3141942  95.5896076 127.2329864 129.7702202  95.9412667
 132.0171976 134.3688449  94.8713901 132.7475365 134.1073737  95.4321604
 131.4078922 133.6317171  94.9115969 130.0987274 132.5096312  95.4688352
 129.3720437 132.3752277  94.8604843 129.6834560 132.8173140  96.2745070
 117.9217450 136.2286241 103.2335725 118.8420459 136.4064840 103.4275771
 117.8867033 135.2842287 103.0815424 116.2221675 130.1018472  81.7089953
 115.3153130 129.8051584  81.7852667 116.4997656 129.8048290  80.8424239
 110.9179522 134.1387276  95.8758506 111.1365532 135.0704384  95.8946540
 111.3305296 133.7795250  96.6613310 115.7907388 129.7120482 105.2661255
 115.6904115 130.6614839 105.1973346 115.5728930 129.3838721 104.3937325
 107.0087875 135.0427746  94.1282121 106.3151346 134.6281699  93.6152076
 107.7560866 135.0848283  93.5315540 115.6538658 133.1417621 104.0826317
 115.1705740 133.9417981 104.2890206 115.7399597 133.1525565 103.1293761
 108.9224617 134.9746000  92.0048136 108.8995306 135.0733688  91.0530019
 109.2325254 135.8211151  92.3265302 111.5811995 137.0322155  96.1194750
 112.5355249 137.0006098  96.0524682 111.3824519 136.5712779  96.9344976
 112.1711377 135.6023271  98.6865548 112.9904266 136.0967350  98.7100385
 112.4448185 134.6855239  98.6583116 125.2792510 128.0180545  91.7647843
 126.0552900 128.5076997  92.0372460 124.5540644 128.4438599  92.2219712
 127.7165068 128.7308164  92.8221783 128.3109559 128.4903900  92.1115092
 127.7891652 128.0115294  93.4495320 109.9362224 142.5741775  93.1364948
 109.8016692 141.8142176  92.5702946 109.5194286 143.2982675  92.6693737
 121.0721187 137.7578698  82.1441524 121.7757037 137.9628701  82.7599179
 120.3483836 138.3255460  82.4090607 121.9018997 133.5088560  88.2643794
 121.8454199 133.9657111  87.4251426 122.4547340 132.7479244  88.0866637
 125.7123803 129.2978291  89.0893913 125.4560738 128.8974927  89.9202121
 125.0876671 130.0122085  88.9644052 130.0236141 132.0374365  91.5965205
 129.4635699 132.1067554  92.3696767 129.4179645 131.8615349  90.8764701
 113.0931350 143.4711092  93.3483391 112.9763734 144.4156524  93.2462081
 112.2723796 143.1684653  93.7369190 122.9807885 138.1961227  84.1939984
 123.8153488 137.7642426  84.0117458 122.8192227 138.0243241  85.1216878
 122.6353777 134.6993341  85.5596323 122.5802581 134.5337612  84.6184767
 122.0099832 135.4069374  85.7158513 107.4246292 129.9361405  99.3857745
 108.0705155 129.4260359  99.8744970 107.2163443 130.6730087  99.9601170
 119.9499684 137.0042253 104.8849886 120.8190844 137.1782905 104.5236521
 119.4706435 137.8236669 104.7625615 114.1185864 144.1239354  96.5639319
 115.0213111 144.1562964  96.8805814 113.8923234 143.1939805  96.5785655
 115.8739466 142.8770340  93.2249398 114.9235097 142.8772202  93.1113770
 116.1771952 142.1303075  92.7085433 111.7643783 127.0829022 103.4832759
 112.6275244 126.7265827 103.6936084 111.1909193 126.7442917 104.1708164
 131.6092160 148.7130879  94.2895160 132.2470570 148.5937626  93.5858500
 131.4913003 149.6611723  94.3483113 128.4181866 148.6658307  94.2256685
 128.0800377 148.5499371  93.3377220 129.2871634 148.2649472  94.2057691
 124.2768682 150.5193783  90.2153576 123.7133547 150.4283720  89.4469864
 124.1621077 149.6993688  90.6956069 128.9001649 149.8193158 100.1842891
 128.8890290 149.4245957  99.3123394 129.0622288 149.0859231 100.7776662
 121.8233114 152.0144975  93.0537796 122.6154405 151.6735799  92.6384096
 122.0629764 152.1239950  93.9739950 129.8568240 154.1864751  85.5268041
 129.2056220 154.7718831  85.1402055 130.6512603 154.7170946  85.5863078
 123.7823867 151.2753888  85.9255175 124.5554743 150.7282875  85.7868051
 124.1349266 152.1398137  86.1369637 125.6208910 152.6030270  99.1322075
 125.3298776 153.5075901  99.0168741 126.2565894 152.6446798  99.8466144
 126.5465117 149.9807119  95.7223434 127.1428689 149.7563141  95.0080397
 126.6040088 149.2391864  96.3248882 126.1190145 147.4346554  83.5573625
 126.3715666 146.9128075  82.7957088 125.1814704 147.2712700  83.6600309
 131.1633428 146.4382332  91.3648368 131.9496517 146.0201756  91.0138785
 131.4272132 147.3428425  91.5330017 131.3343505 151.8755183  86.0637025
 130.6989338 151.9489809  86.7757930 131.0040912 152.4648782  85.3856104
 136.5641855 146.3757566  92.2681347 137.2967027 145.8056782  92.5019176
 135.8081211 145.9879166  92.7087853 125.8386434 149.3374660  85.7598000
 125.7222692 148.6619563  86.4279084 125.9488694 148.8507034  84.9430153
 128.1817975 148.7984807  89.4644689 127.8176182 148.2715428  90.1757611
 129.0385091 148.4083276  89.2911175 134.0867276 140.0879140  96.7275956
 133.7550600 140.9574551  96.5037171 133.4912889 139.7715424  97.4069986
 127.8223462 143.8274707  84.4606038 127.9897864 144.6954943  84.8276509
 127.6320631 143.9901989  83.5367327 130.5798795 152.2891686  96.1271868
 130.2799518 153.1916725  96.0187676 130.2349855 152.0223869  96.9793021
 124.0311277 148.7405483  92.1608573 123.1061773 148.6081697  92.3686264
 124.2795690 149.5199702  92.6578515 133.9795939 144.8074226  93.8069306
 133.0712816 144.7389634  93.5128067 133.9283535 145.2846171  94.6351131
 127.8012683 146.2832364  85.4452705 127.6812308 146.7289415  86.2838185
 127.1065271 146.6317682  84.8866243 121.3920088 148.3838756  92.9952362
 121.5212469 148.6373235  93.9091773 120.7117539 148.9766464  92.6757017
 128.0536805 146.2263872 101.7504203 127.2770139 146.7857792 101.7407068
 128.6927368 146.7120655 102.2719073 135.8457585 143.0090664  95.5847180
 135.2031966 143.3023197  94.9386974 135.3412514 142.8943585  96.3900376
 133.4997749 146.7553838  86.2733039 134.4115605 146.9881224  86.0980736
 132.9907396 147.3390882  85.7108117 126.3083177 149.0349325 101.3122170
 127.0497861 149.5734369 101.0356993 125.6020162 149.6615614 101.4693722
 131.7838517 151.1778465  99.9094331 132.1921873 150.7360876  99.1648964
 131.0615778 150.6031093 100.1628524 128.1369587 146.1151072  97.2827888
 128.9830782 146.5390486  97.4262537 128.0768224 145.4584696  97.9766451
 132.1067331 151.7379656  93.6646620 131.4776194 151.9025370  92.9622688
 131.7192993 152.1521266  94.4357584 131.2869032 143.7755440  98.9409062
 131.0429964 144.5297501  98.4043338 131.5628963 144.1540788  99.7756309
 133.2407495 150.3194053  97.6186328 133.4524390 150.9625813  96.9420709
 133.1937243 149.4856369  97.1508258 130.8433724 142.9311873  94.5222900
 129.9818203 143.2293127  94.8139637 130.8696158 143.1482272  93.5903932
 127.6595293 151.4754064  90.9296705 128.1233639 151.7541767  90.1401328
 127.3952091 150.5737509  90.7469796 124.5519374 151.0225546  93.8676469
 125.1220731 151.4512814  93.2293953 125.1427486 150.7408130  94.5660654
 126.5964179 147.5977216  87.7386270 127.2988223 148.0498260  88.2060197
 126.2644808 146.9561035  88.3666164 125.0444541 146.1888973 102.1137480
 124.4143201 146.8705254 102.3472877 124.9380629 146.0772055 101.1690618
 120.3389513 145.8560769  93.0403404 119.5488567 146.1118298  92.5643515
 120.8300761 146.6709107  93.1455445 134.3553323 153.1966008  95.7908685
 135.1770766 152.7946196  95.5091367 134.3515726 153.0934242  96.7424801
 122.2904259 146.2205348  89.9986881 121.4935422 146.3324043  90.5170376
 122.0629851 146.5592001  89.1327771 128.1209926 152.7450052  97.9469395
 128.1854359 153.2070459  98.7827567 127.4120850 152.1147416  98.0751705
 118.6227216 146.1091260  95.4718395 118.8735255 146.9938269  95.7375971
 119.1586765 145.9295861  94.6993487 127.8357944 154.4118159  87.8148376
 127.7003619 155.2569695  88.2433224 128.3767756 154.6137437  87.0514310
 124.3225283 140.4909739 104.4762731 123.9292229 139.9375937 105.1510375
 125.1391424 140.8020317 104.8669248 121.2887341 151.9293597  88.3876301
 121.8011862 152.7236847  88.5381865 121.9410054 151.2319888  88.3209902
 123.0982226 155.0459353  90.4699054 123.2748854 155.9677318  90.2820038
 123.8939059 154.7317773  90.8993434 127.2393244 141.9067618 102.0682987
 127.9802958 142.5074771 101.9887450 127.4711167 141.1645256 101.5101030
 122.3834582 147.0923985 100.3461217 122.2688098 146.1909242 100.6468316
 121.5279100 147.3387682  99.9946034 129.4626420 155.0341726 101.9448718
 129.0190274 154.2478104 101.6269622 130.1243634 155.2220876 101.2792609
 124.2213541 156.5637527  96.4709396 124.7720967 156.4354591  95.6986390
 123.3825017 156.8632416  96.1204289 128.0180712 152.8288655 100.8153627
 128.5509049 152.0676943 100.5852935 127.4894794 152.5362307 101.5577782
 131.1850407 137.9348721  96.3447269 130.8414677 138.8250363  96.2686380
 131.5529370 137.7450379  95.4816854 119.2536258 150.2582251  89.1635871
 120.0911480 150.6679260  88.9469579 119.4314526 149.3181694  89.1336065
 131.1500690 147.9257332  84.8519704 130.6347314 148.6961937  85.0908092
 130.8777999 147.2522468  85.4752766 128.7347801 142.7707033  89.9104943
 127.8789398 142.3813883  89.7310581 129.1474753 142.8498994  89.0504728
 130.2646948 140.3053376  94.3096502 129.7611743 140.2683511  93.4964308
 130.5577555 141.2146119  94.3693159 126.5089834 140.3892106  93.3162684
 127.3742830 140.1934914  92.9568574 126.5767343 140.1602458  94.2432041
 136.1234964 150.6789687  86.7872878 135.3464407 150.3400846  86.3428040
 136.8026445 150.6842310  86.1127843 130.9386993 145.7984424  86.6779485
 130.6337129 146.1130573  87.5289629 131.8917435 145.8765844  86.7206818
 129.3833425 151.9574647  88.3272439 128.8554787 151.2227407  88.0145677
 128.8820928 152.7349324  88.0812408 134.3626271 150.1523668  93.4439486
 133.7049946 150.8422929  93.5319614 135.1666670 150.5420100  93.7873472
 124.1152153 142.6194314  90.6879051 124.6895905 142.3969495  89.9552244
 124.7023135 142.6883008  91.4407652 133.1731730 148.5068041  91.4943427
 133.6863612 149.1398032  91.9965137 133.8232954 147.9069236  91.1286788
 124.4421740 144.6498775  84.7074936 123.6059052 144.9873461  85.0284211
 124.3026510 144.5147755  83.7702073 126.4174820 139.4935563  89.4154120
 125.7639233 139.1784580  88.7910735 126.3755295 138.8711303  90.1413943
 127.5286025 149.7754858  81.3307412 126.6213087 149.5444111  81.5298561
 128.0257057 148.9792477  81.5181394 129.6512561 145.9817496  93.7401768
 128.7335122 146.2032443  93.5823456 130.0672704 146.0563807  92.8813475
 130.4347609 147.3808912  88.8704448 131.1819428 147.8930309  88.5611570
 130.7039198 147.0592965  89.7308842 128.7074259 149.8767453  85.8531403
 127.7985478 149.5926485  85.9503872 128.7369343 150.2966531  84.9934709
 133.9393526 153.4874042  89.6222570 133.4855853 152.6464952  89.6787761
 133.3087493 154.1235440  89.9597350 132.8826446 144.4166028  90.8523238
 132.1449203 143.9043414  91.1833480 133.1353219 143.9766410  90.0406514
 132.9838073 137.1942280  91.4465007 133.2896950 136.3339644  91.1590922
 133.7090678 137.7859900  91.2464001 119.2762429 147.5972967  89.8346605
 119.0786829 147.0042327  89.1097671 118.7209093 147.2925177  90.5522544
 127.2559153 147.4896073  91.9541198 127.3107763 146.5369910  91.8783674
 126.4450355 147.6455512  92.4382496 128.4050347 151.4176196  83.1919481
 127.9669776 150.7012055  82.7325118 129.1460787 151.6452311  82.6304573
 125.1951513 146.1073133  89.7131577 124.3819378 146.4067303  90.1196769
 125.6910507 145.7128822  90.4306059 127.3460091 156.1030890  91.6465841
 127.3036269 156.3291736  90.7174373 128.2622789 155.8694264  91.7951643
 130.7925724 146.5714957  98.5446471 131.1475112 146.7986431  99.4040936
 131.4397856 146.9033334  97.9223726 136.5223461 149.6933393  89.2495800
 136.3841360 149.8834989  88.3216989 136.1659680 150.4552776  89.7063851
 124.6865587 143.6791488  95.3292812 125.3264967 143.5380248  94.6315775
 123.8543118 143.3926002  94.9531414 125.4625891 152.9793919  91.4427804
 126.2566490 152.4844239  91.2410379 124.7517584 152.4511782  91.0795510
 130.2820736 155.3612014  95.7940172 130.3357758 155.9302951  96.5617888
 129.4135517 155.5313899  95.4294209 121.7708655 147.1237001  87.5187557
 120.8406243 147.0621456  87.7357519 121.8666127 146.6012953  86.7224198
 121.6894204 143.6491813  90.1065799 121.9501021 144.5637147  89.9974959
 122.5111376 143.1816256  90.2562411 123.1619129 145.0629571  97.2764623
 123.8342183 144.8546933  96.6277272 122.3348916 144.8651657  96.8369855
 129.0644701 141.6891512  99.2930284 128.4172616 142.3881461  99.1994760
 129.8345717 142.1227655  99.6606532 132.4723499 151.9540364 102.3680837
 132.3209006 151.7250915 101.4510921 132.4628179 152.9110965 102.3812182
 129.2408836 149.5272276  97.3527104 130.1700896 149.6783436  97.1796071
 128.8199866 149.6156297  96.4975750 128.0397167 153.5522941  95.1225641
 127.9008253 153.1841725  95.9951579 127.2511764 154.0670580  94.9509599
 129.5902383 152.9304544  92.5114479 129.2552215 152.8905314  93.4072129
 129.0906328 152.2649259  92.0384889 123.5646626 148.3372174  98.0367060
 123.4266424 147.6052412  98.6378599 124.4751550 148.2481074  97.7551248
 132.5261574 150.2760578  82.7851539 131.9090745 149.5507406  82.6884591
 132.0578063 151.0369938  82.4418613 126.1928927 148.0492133  97.5250740
 126.9028546 147.4085325  97.4837358 126.1498235 148.3005028  98.4476921
 124.9057861 145.0357351  99.3446379 124.3695218 144.5848089  99.9967976
 124.3174570 145.1703260  98.6016844 124.3160120 144.4946002  81.9072843
 123.4389586 144.3734803  81.5435090 124.7917873 143.7032081  81.6551732
 134.1833113 152.9499070  98.6771299 133.2959892 152.6124992  98.7997698
 134.7531664 152.2182101  98.9140064 115.8362260 149.2823162  92.0014350
 116.5233300 148.9684892  91.4135365 115.6810389 150.1864527  91.7281602
 120.6396982 144.1713359  96.4299374 120.5555171 143.5639028  95.6949784
 119.8179689 144.6622377  96.4308870 127.5024046 156.8472293  89.1535364
 126.7191568 157.3893973  89.2473588 128.2016791 157.3646272  89.5529605
 130.8120696 142.6566922  91.7969569 131.3089396 141.9036884  91.4770639
 130.0407678 142.6931239  91.2312778 138.6650454 148.3607288  93.4387860
 138.6540330 149.2432003  93.0681794 137.7967833 148.0078838  93.2442397
 131.8950477 151.4138609  89.3707992 130.9606756 151.5340072  89.2012697
 132.0727145 150.5111076  89.1068002 127.3955665 144.7984305  91.5241253
 127.0253453 144.2455345  92.2122159 127.8914757 144.1942439  90.9716254
 135.2823028 147.2555929  89.9058026 135.7483480 148.0883920  89.8318329
 135.7330529 146.7900910  90.6103285 125.2244864 155.2581800  98.6196271
 125.9254323 155.8918283  98.7725666 124.7539979 155.5996532  97.8591911
 133.3499259 153.5999750  86.9044178 133.6259103 153.4856344  87.8138053
 132.4803758 153.2017235  86.8656352 133.2539691 139.6236516  93.9448928
 132.3402771 139.8540742  94.1131135 133.6832792 139.7074960  94.7962960
 133.0246150 147.8126407  96.4448822 132.3717600 148.0602315  95.7901275
 133.4026529 146.9990546  96.1111299 129.0733723 148.5546219 102.9314859
 128.3974360 148.4540348 103.6017234 129.8961356 148.3985432 103.3950856
 120.8212582 154.7918155  95.5527374 121.4066018 154.0461843  95.6855278
 120.6237420 155.1022112  96.4364038 123.6751237 157.8269402  90.5689817
 123.0061612 158.3115530  90.0853857 123.5364107 158.0738623  91.4833195
 115.4130236 147.3623755  94.2731817 115.4514336 146.8287346  95.0668935
 114.9070529 146.8358961  93.6542794 122.7920999 142.2088296  97.7694360
 122.8562325 143.0703127  97.3571757 122.7288119 141.5962297  97.0366718
 122.2673271 144.2811428 101.4167394 122.8945310 143.8988506 102.0304918
 121.4101190 144.0625630 101.7823086 119.0438814 146.0887857  87.3485749
 119.3392255 145.1798536  87.2952802 118.1426850 146.0675597  87.0266751
 122.5733061 144.1643854  93.3313297 121.8519647 144.7779822  93.1920771
 123.3626317 144.7001619  93.2529943 125.3759374 141.4998281  99.6053949
 125.8993776 141.7460577 100.3680258 125.1571708 142.3318315  99.1857086
 120.7726656 143.7701955  87.4725074 120.4439362 142.8899334  87.2900180
 121.1266026 143.7149624  88.3601463 130.0206234 155.4056858  91.9820059
 129.8731197 154.4773565  92.1627629 130.8459728 155.4276949  91.4977135
 123.8868479 144.0574925  87.8400552 124.2264551 144.5860846  87.1179160
 124.3340599 144.3955331  88.6159118 126.5811920 142.4411976  97.2903620
 126.2408740 141.6419789  97.6924299 125.8750926 142.7413686  96.7180453
 127.2328391 139.5261288  95.7430943 128.0554461 139.0521766  95.6209833
 127.4766455 140.3051772  96.2429629 125.8736626 142.5549547  86.0393844
 126.5944988 142.9330799  85.5357561 125.2501930 143.2738423  86.1428822
 130.0167749 143.2594695  86.9752177 130.2331363 144.1419333  86.6741005
 129.5361816 142.8680909  86.2457819 124.7566970 146.2180409  93.5522921
 124.6111551 146.5320712  94.4447203 124.2792174 146.8365309  92.9993820
 126.6163353 143.2082957  93.6003811 126.6024922 142.3124050  93.2636109
 127.3335781 143.2153620  94.2342097 128.4689484 143.6420297  95.6456938
 128.2107262 144.5637368  95.6441269 127.9374524 143.2450731  96.3357402
 119.2312632 148.7585753  96.4910582 118.6866100 149.5345561  96.6230857
 120.1091982 149.1056558  96.3329704 126.0200249 142.0897337  88.8691381
 126.1416160 141.1613983  89.0682268 125.7302291 142.1036023  87.9569696
 128.8891439 139.7752247  92.0058101 128.9113136 139.8391580  91.0510080
 129.3059498 138.9356756  92.1998607 139.2675064 149.5107507  90.0437323
 139.7106210 148.7614832  89.6456447 138.3901574 149.5017643  89.6611055
 120.0178654 147.8855649  99.3840739 119.2760390 148.0338285  99.9705370
 119.6971398 148.1463915  98.5207489 120.4635268 155.7721078  91.4151134
 121.2893288 155.4724850  91.0349777 120.1129320 155.0028701  91.8640923
 125.4316801 155.1247546  93.4848807 124.8096810 154.4618251  93.1851035
 126.1021668 155.1508678  92.8022455 118.6643873 153.6907405  92.3740067
 117.8275781 153.2629579  92.1924069 118.6367518 153.8839848  93.3110859
 125.5041328 143.6029334 103.0781314 125.5529484 144.4791457 102.6959083
 126.0463843 143.0606727 102.5052957 136.1094049 150.9962924  99.6715179
 136.1592054 150.8312931 100.6130702 136.0007973 150.1290183  99.2813060
 124.9930308 153.6751470  86.9607268 125.1418428 154.3586934  86.3073941
 125.7996751 153.6556560  87.4756724 133.3997812 146.9793852 100.9874486
 134.3007674 146.8400317 100.6958484 133.4745786 147.1448307 101.9272663
 127.7340617 144.3560707  99.8327672 126.8643926 144.6494273  99.5610261
 127.9700097 144.9401152 100.5534936 135.8599434 148.5392480  98.3837259
 136.3353556 148.7320126  97.5756110 134.9365000 148.5951666  98.1380642
 122.7482941 149.7016647  87.9668337 122.5028983 148.7978977  88.1648547
 122.9178855 149.7033798  87.0247815 130.4379651 140.5740324  97.3493093
 130.9561595 141.3101351  97.0239581 130.0834783 140.8804317  98.1839852
 122.0178588 145.4345005  85.4654498 121.3247833 145.5089360  84.8094534
 121.7730340 144.6705348  85.9876015 130.6892245 136.9940606  92.8693989
 130.9693999 136.3263795  93.4954416 131.4742852 137.1869702  92.3568653
 128.4925713 156.1699600  84.4319015 127.9199680 156.7889787  83.9789487
 129.0658507 156.7198962  84.9658937 134.5601103 145.4158240  96.6165564
 135.5118526 145.5156338  96.6377788 134.3904554 144.6236509  97.1263649
 132.5815483 142.5013823  96.8024965 131.9865415 142.7818836  96.1071454
 132.2965179 142.9907724  97.5741706 137.0389181 148.6364360  95.7307864
 137.0065501 147.6980361  95.9167548 137.6489805 148.7148397  94.9973689
 128.8772512 147.5060413  81.7735068 129.8231617 147.3766621  81.8423486
 128.4986757 146.7675075  82.2504496 137.1883670 145.4275403  95.7766147
 136.6722718 144.6433860  95.5896076 138.0723618 145.0994120  95.9412667
 134.8494396 139.1716419  91.7361960 134.6519218 138.8631507  92.6205292
 135.4594102 139.8978058  91.8659890 140.9381028 147.8388229  95.4688352
 140.2114192 147.7044194  94.8604843 140.5228315 148.1465058  96.2745070
 128.7611204 151.5578159 103.2335725 129.6814214 151.7356758 103.4275771
 128.7260787 150.6134204 103.0815424 127.0615429 145.4310389  81.7089953
 126.1546884 145.1343502  81.7852667 127.3391410 145.1340207  80.8424239
 117.9793369 146.7516753  92.1589000 117.6596154 145.8982061  91.8663374
 117.4326798 146.9665331  92.9146967 121.7573277 149.4679194  95.8758506
 121.9759287 150.3996301  95.8946540 122.1699051 149.1087168  96.6613310
 128.6777495 139.9747279  87.8634194 127.8678223 139.6294364  88.2389441
 129.3661912 139.6654823  88.4521806 130.6068043 139.0525326  89.4858491
 131.1599082 139.4720779  90.1448514 130.8438129 138.1261074  89.5281447
 126.6301142 145.0412399 105.2661255 126.5297869 145.9906756 105.1973346
 126.4122684 144.7130638 104.3937325 125.8314214 142.2897324  81.8501932
 126.6933378 142.6152223  82.1097750 126.0164558 141.5028820  81.3374998
 117.8481629 150.3719664  94.1282121 117.1545101 149.9573617  93.6152076
 118.5954620 150.4140201  93.5315540 133.9846850 141.1625851  88.9937155
 133.4045519 141.8210655  88.6115208 133.7182783 140.3403196  88.5824573
 132.4350417 140.5630909  91.1958476 132.9350195 140.6747443  90.3872795
 133.0786024 140.2591961  91.8359284 126.4932412 148.4709538 104.0826317
 126.0099494 149.2709898 104.2890206 126.5793351 148.4817483 103.1293761
 119.7618372 150.3037918  92.0048136 119.7389060 150.4025605  91.0530019
 120.0719008 151.1503069  92.3265302 122.4205750 152.3614073  96.1194750
 123.3749003 152.3298015  96.0524682 122.2218273 151.9004697  96.9344976
 123.0105132 150.9315189  98.6865548 123.8298021 151.4259268  98.7100385
 123.2841940 150.0147157  98.6583116 132.7671728 143.3225941  88.0493504
 131.8797583 143.6075592  87.8313698 133.1825717 143.1619705  87.2020781
 136.1186264 143.3472462  91.7647843 136.8946654 143.8368915  92.0372460
 135.3934398 143.7730516  92.2219712 138.5558823 144.0600082  92.8221783
 139.1503314 143.8195817  92.1115092 138.6285407 143.3407212  93.4495320
 120.7755979 157.9033692  93.1364948 120.6410447 157.1434093  92.5702946
 120.3588041 158.6274592  92.6693737 131.9114942 153.0870616  82.1441524
 132.6150792 153.2920618  82.7599179 131.1877590 153.6547378  82.4090607
 132.7412752 148.8380477  88.2643794 132.6847953 149.2949029  87.4251426
 133.2941094 148.0771162  88.0866637 136.5517558 144.6270209  89.0893913
 136.2954492 144.2266845  89.9202121 135.9270426 145.3414003  88.9644052
 140.8629896 147.3666282  91.5965205 140.3029454 147.4359472  92.3696767
 140.2573399 147.1907267  90.8764701 123.9325104 158.8003009  93.3483391
 123.8157489 159.7448442  93.2462081 123.1117551 158.4976571  93.7369190
 133.8201639 153.5253145  84.1939984 134.6547243 153.0934344  84.0117458
 133.6585982 153.3535159  85.1216878 133.4747531 150.0285258  85.5596323
 133.4196335 149.8629530  84.6184767 132.8493586 150.7361291  85.7158513
 118.2640046 145.2653323  99.3857745 118.9098910 144.7552277  99.8744970
 118.0557197 146.0022005  99.9601170 130.7893438 152.3334170 104.8849886
 131.6584598 152.5074823 104.5236521 130.3100190 153.1528587 104.7625615
 126.7843657 139.5293367  85.1381641 126.7722326 140.4735207  85.2949912
 127.6767079 139.3463513  84.8441103 124.9579619 159.4531271  96.5639319
 125.8606865 159.4854882  96.8805814 124.7316989 158.5231722  96.5785655
 126.7133221 158.2062258  93.2249398 125.7628852 158.2064120  93.1113770
 127.0165707 157.4594992  92.7085433 130.5995776 136.1236144  89.3927578
 129.8328172 135.5694631  89.5384261 131.0106481 136.1958013  90.2541730
 122.6037537 142.4120940 103.4832759 123.4668999 142.0557745 103.6936084
 122.0302948 142.0734835 104.1708164  44.8942125   3.0857660  81.0140467
  45.5320535   2.9664407  80.3103807  44.7762968   4.0338504  81.0728419
  41.7031831   3.0385088  80.9501992  41.3650343   2.9226153  80.0622527
  42.5721599   2.6376253  80.9302998  37.5618647   4.8920564  76.9398883
  36.9983512   4.8010501  76.1715170  37.4471042   4.0720469  77.4201375
  42.1851614   4.1919940  86.9088197  42.1740255   3.7972738  86.0368701
  42.3472254   3.4586012  87.5021969  35.1083079   6.3871756  79.7783103
  35.9004371   6.0462581  79.3629402  35.3479729   6.4966731  80.6985256
  43.1418206   8.5591532  72.2513348  42.4906185   9.1445612  71.8647361
  43.9362568   9.0897727  72.3108385  37.0673833   5.6480669  72.6500482
  37.8404709   5.1009656  72.5113358  37.4199232   6.5124918  72.8614943
  38.9058875   6.9757051  85.8567381  38.6148741   7.8802682  85.7414048
  39.5415860   7.0173579  86.5711451  39.8315082   4.3533900  82.4468741
  40.4278654   4.1289922  81.7325704  39.8890054   3.6118645  83.0494189
  39.4040111   1.8073335  70.2818932  39.6565631   1.2854857  69.5202395
  38.4664670   1.6439481  70.3845615  44.4483393   0.8109114  78.0893675
  45.2346483   0.3928537  77.7384092  44.7122098   1.7155206  78.2575323
  44.6193471   6.2481964  72.7882332  43.9839304   6.3216590  73.5003237
  44.2890877   6.8375563  72.1101411  49.8491821   0.7484347  78.9926654
  50.5816993   0.1783564  79.2264483  49.0931176   0.3605947  79.4333159
  39.1236399   3.7101441  72.4843307  39.0072657   3.0346345  73.1524391
  39.2338659   3.2233815  71.6675460  41.4667940   3.1711588  76.1889996
  41.1026148   2.6442209  76.9002918  42.3235056   2.7810057  76.0156481
  47.3717241  -5.5394079  83.4521262  47.0400566  -4.6698668  83.2282477
  46.7762854  -5.8557795  84.1315293  41.1073427  -1.7998512  71.1851345
  41.2747830  -0.9318276  71.5521816  40.9170596  -1.6371230  70.2612634
  43.8648760   6.6618467  82.8517175  43.5649484   7.5643506  82.7432982
  43.5199820   6.3950650  83.7038328  37.3161242   3.1132264  78.8853879
  36.3911738   2.9808478  79.0931571  37.5645655   3.8926483  79.3823822
  47.2645904  -0.8198993  80.5314612  46.3562782  -0.8883584  80.2373373
  47.2133500  -0.3427048  81.3596438  41.0862648   0.6559146  72.1698011
  40.9662273   1.1016196  73.0083492  40.3915237   1.0044463  71.6111550
  34.6770053   2.7565537  79.7197668  34.8062434   3.0100016  80.6337080
  33.9967504   3.3493245  79.4002323  38.8469540  13.4262787  75.8188143
  38.7693570  14.3770612  75.8976623  38.2431184  13.0808660  76.4763069
  41.3386770   0.5990653  88.4749510  40.5620104   1.1584573  88.4652374
  41.9777333   1.0847436  88.9964380  49.1307551  -2.6182554  82.3092486
  48.4881931  -2.3250021  81.6632281  48.6262479  -2.7329634  83.1145683
  46.7847714   1.1280619  72.9978345  47.6965570   1.3608005  72.8226043
  46.2757361   1.7117663  72.4353424  39.5933142   3.4076106  88.0367477
  40.3347827   3.9461150  87.7602300  38.8870128   4.0342395  88.1939028
  45.0688482   5.5505247  86.6339638  45.4771838   5.1087657  85.8894270
  44.3465743   4.9757874  86.8873831  41.4219552   0.4877853  84.0073195
  42.2680747   0.9117267  84.1507844  41.3618190  -0.1688522  84.7011758
  45.3917297   6.1106437  80.3891927  44.7626159   6.2752151  79.6867995
  45.0042959   6.5248047  81.1602891  49.2706529   7.0460875  77.7436291
  48.5857567   7.4259776  77.1933324  49.3550378   7.6556202  78.4768238
  44.5718997  -1.8517778  85.6654369  44.3279929  -1.0975718  85.1288644
  44.8478928  -1.4732431  86.5001616  46.5257460   4.6920834  84.3431634
  46.7374355   5.3352594  83.6666015  46.4787208   3.8583151  83.8753564
  44.1283689  -2.6961345  81.2468206  43.2668168  -2.3980092  81.5384944
  44.1546124  -2.4790946  80.3149239  40.9445258   5.8480845  77.6542012
  41.4083604   6.1268548  76.8646634  40.6802057   4.9464290  77.4715103
  37.8369340   5.3952327  80.5921775  38.4070697   5.8239595  79.9539260
  38.4277451   5.1134911  81.2905961  39.8814145   1.9703998  74.4631577
  40.5838188   2.4225041  74.9305503  39.5494773   1.3287816  75.0911470
  38.3294506   0.5615754  88.8382787  37.6993167   1.2432035  89.0718183
  38.2230594   0.4498836  87.8935925  47.6403288   7.5692789  82.5153992
  48.4620732   7.1672977  82.2336673  47.6365691   7.4661024  83.4670107
  35.5754224   0.5932130  76.7232187  34.7785387   0.7050824  77.2415683
  35.3479816   0.9318782  75.8573078  41.4059892   7.1176833  84.6714702
  41.4704324   7.5797240  85.5072874  40.6970815   6.4874198  84.7997012
  55.7309281   3.9131538  78.8638963  54.9772990   3.3438936  78.7082967
  55.8656822   3.8794202  79.8109598  41.1207909   8.7844940  74.5393682
  40.9853584   9.6296476  74.9678530  41.6617722   8.9864218  73.7759616
  34.5737307   6.3020378  75.1121607  35.0861827   7.0963629  75.2627172
  35.2260019   5.6046669  75.0455209  36.3832191   9.4186135  77.1944361
  36.5598820  10.3404099  77.0065345  37.1789025   9.1044554  77.6238740
  40.5243210  -3.7205601  88.7928294  41.2652923  -3.1198448  88.7132757
  40.7561133  -4.4627963  88.2346337  35.6684548   1.4650766  87.0706524
  35.5538063   0.5636024  87.3713623  34.8129066   1.7114463  86.7191340
  42.7476386   9.4068507  88.6694024  42.3040240   8.6204885  88.3514929
  43.4093599   9.5947657  88.0037915  37.5063507  10.9364308  83.1954703
  38.0570932  10.8081372  82.4231697  36.6674983  11.2359197  82.8449596
  44.8457624   9.6871307  86.6975426  44.8276099  10.5080188  86.2055695
  45.7677544   9.5625382  86.9225567  41.3030678   7.2015436  87.5398934
  41.8359015   6.4403724  87.3098242  40.7744759   6.9089088  88.2823089
  32.5386223   4.6309033  75.8881178  33.3761445   5.0406041  75.6714886
  32.7164491   3.6908475  75.8581372  44.4350655   2.2984113  71.5765011
  43.9197279   3.0688718  71.8153398  44.1627964   1.6249249  72.1998072
  42.0197767  -2.8566186  76.6350249  41.1639363  -3.2459336  76.4555888
  42.4324718  -2.7774225  75.7750035  43.5496913  -5.3219843  81.0341809
  43.0461709  -5.3589708  80.2209614  43.8427520  -4.4127100  81.0938466
  49.4084930   5.0516468  73.5118184  48.6314372   4.7127627  73.0673346
  50.0876411   5.0569091  72.8373149  44.2236959   0.1711205  73.4024792
  43.9187094   0.4857355  74.2534935  45.1767401   0.2492625  73.4452125
  42.6683390   6.3301429  75.0517746  42.1404752   5.5954188  74.7390984
  42.1670893   7.1076105  74.8057714  47.6476237   4.5250449  80.1684792
  46.9899911   5.2149711  80.2564921  48.4516636   4.9146881  80.5118779
  46.4581695   2.8794822  78.2188734  46.9713577   3.5124814  78.7210444
  47.1082919   2.2796017  77.8532094  37.7271705  -0.9774444  71.4320243
  36.8909017  -0.6399758  71.7529518  37.5876475  -1.1125464  70.4947380
  40.8135991   4.1481639  68.0552719  39.9063052   3.9170892  68.2543868
  41.3107023   3.3519258  68.2426701  43.7204070  12.8579146  70.9749405
  43.0465768  13.1610843  71.5834363  44.1069892  13.6608226  70.6254862
  42.9362526   0.3544277  80.4647075  42.0185088   0.5759224  80.3068763
  43.3522670   0.4290588  79.6058782  43.7197574   1.7535693  75.5949755
  44.4669393   2.2657090  75.2856877  43.9889163   1.4319746  76.4554148
  41.9924224   4.2494234  72.5776709  41.0835443   3.9653267  72.6749179
  42.0219308   4.6693312  71.7180016  47.2243492   7.8600823  76.3467877
  46.7705819   7.0191733  76.4033067  46.5937458   8.4962222  76.6842657
  46.1676411  -1.2107191  77.5768544  45.4299168  -1.7229804  77.9078787
  46.4203185  -1.6506809  76.7651821  45.6676431   9.6977320  77.2817695
  45.9599405  10.2582377  76.5630061  46.1775051   9.9905881  78.0370854
  32.5612394   1.9699748  76.5591911  32.3636794   1.3769109  75.8342978
  32.0059058   1.6651958  77.2767850  40.5409118   1.8622854  78.6786505
  40.5957728   0.9096691  78.6028981  39.7300320   2.0182293  79.1627803
  41.6900312   5.7902977  69.9164788  41.2519742   5.0738836  69.4570425
  42.4310753   6.0179092  69.3549879  38.4801478   0.4799914  76.4376883
  37.6669344   0.7794085  76.8442076  38.9760472   0.0855603  77.1551366
  40.6310056  10.4757671  78.3711148  40.5886235  10.7018517  77.4419680
  41.5472755  10.2421046  78.5196949  44.0775690   0.9441739  85.2691777
  44.4325077   1.1713212  86.1286243  44.7247821   1.2760115  84.6469033
  49.8073427   4.0660174  75.9741106  49.6691325   4.2561770  75.0462296
  49.4509646   4.8279557  76.4309157  49.8342806   6.1336701  80.9852378
  50.2679313   6.0411991  81.8335432  50.5474387   6.1094202  80.3472394
  38.7475857   7.3520700  78.1673111  39.5416455   6.8571020  77.9655686
  38.0367549   6.8238563  77.8040816  43.5670701   9.7338796  82.5185478
  43.6207723  10.3029732  83.2863194  42.6985483   9.9040681  82.1539516
  35.0558620   1.4963782  74.2432864  34.1256208   1.4348237  74.4602826
  35.1516092   0.9739735  73.4469505  36.4469095  -0.5643648  84.0009930
  37.1192148  -0.7726286  83.3522579  35.6198881  -0.7621562  83.5615162
  50.6958356   6.1760402  83.5185263  50.8894246   7.0806213  83.7644538
  50.5958974   5.7167821  84.3523848  42.3494667  -3.9381707  86.0175591
  41.7022582  -3.2391758  85.9240067  43.1195682  -3.5045563  86.3851839
  45.7573465   6.3267145  89.0926144  45.6058971   6.0977697  88.1756228
  45.7478144   7.2837746  89.1057489  42.5258801   3.8999058  84.0772410
  43.4550861   4.0510217  83.9041378  42.1049831   3.9883078  83.2221057
  41.3247133   7.9249722  81.8470948  41.1858218   7.5568506  82.7196886
  40.5361729   8.4397361  81.6754906  41.9195285  13.0258819  73.1896484
  42.0947040  12.5546862  74.0042107  41.2328073  13.6524585  73.4177745
  42.8752348   7.3031325  79.2359786  42.5402180   7.2632095  80.1317436
  42.3756294   6.6376041  78.7630196  36.8496592   2.7098955  84.7612367
  36.7116390   1.9779194  85.3623906  37.7601515   2.6207855  84.4796555
  45.8111540   4.6487359  69.5096845  45.1940710   3.9234187  69.4129898
  45.3428028   5.4096719  69.1663920  39.4778892   2.4218914  84.2496047
  40.1878511   1.7812106  84.2082665  39.4348201   2.6731809  85.1722227
  47.4665671   9.3586267  87.1702626  47.4078217   8.6745488  86.5033209
  47.8685190  10.1005257  86.7183252  38.1907826  -0.5915868  86.0691686
  37.6545183  -1.0425130  86.7213282  37.6024535  -0.4569959  85.3262150
  36.4856370  16.1748181  79.9636345  36.7252968  16.8066705  80.6415363
  35.6425566  15.8236221  80.2501704  37.6010085  -1.1327217  68.6318150
  36.7239552  -1.2538416  68.2680396  38.0767838  -1.9241138  68.3797038
  47.4683078   7.3225851  85.4016605  46.5809857   6.9851773  85.5243004
  48.0381630   6.5908883  85.6385371  29.1212226   3.6549943  78.7259657
  29.8083265   3.3411673  78.1380672  28.9660354   4.5591308  78.4526908
  40.9984232  11.9827304  82.3677849  40.9254403  12.7882275  82.8797153
  40.5561625  12.1819270  81.5425870  40.7874011  11.2199074  75.8780670
  40.0041533  11.7620754  75.9718895  41.4866757  11.7373053  76.2774911
  44.0970662  -2.9706297  78.5214876  44.5939361  -3.7236334  78.2015946
  43.3257643  -2.9341980  77.9558085  51.9500419   2.7334069  80.1633167
  51.9390295   3.6158784  79.7927100  51.0817798   2.3805620  79.9687704
  43.4582915  11.8814138  84.5236007  44.1710888  12.5161603  84.4511909
  42.9672944  11.9778004  83.7076009  45.1800442   5.7865390  76.0953299
  44.2456721   5.9066853  75.9258003  45.3577111   4.8837857  75.8313309
  40.6805630  -0.8288914  78.2486560  40.3103418  -1.3817873  78.9367466
  41.1764723  -1.4330780  77.6961560  48.5672994   1.6282710  76.6303333
  49.0333446   2.4610701  76.5563636  49.0180494   1.1627691  77.3348592
  38.5094829   9.6308581  85.3441578  39.2104288  10.2645064  85.4970972
  38.0389944   9.9723313  84.5837217  46.6349225   7.9726531  73.6289485
  46.9109069   7.8583126  74.5383359  45.7653723   7.5744016  73.5901658
  46.5389656  -6.0036703  80.6694234  45.6252736  -5.7732476  80.8376441
  46.9682758  -5.9198259  81.5208267  46.3096115   2.1853189  83.1694128
  45.6567565   2.4329096  82.5146581  46.6876495   1.3717327  82.8356606
  43.2703289  12.2212882  77.2722299  43.4525683  11.4034538  77.7350051
  44.0936275  12.4380574  76.8347189  43.6045454  11.1481067  74.5337347
  44.1333221  10.6373522  73.9207509  43.8673674  10.8323597  75.3982880
  42.3583688   2.9273000  89.6560166  41.6824325   2.8267129  90.3262541
  43.1811322   2.7712213  90.1196163  34.1062547   9.1644936  82.2772681
  34.6915984   8.4188624  82.4100585  33.9087385   9.4748893  83.1609345
  36.9601202  12.1996184  77.2935123  36.2911577  12.6842311  76.8099163
  36.8214072  12.4465404  78.2078502  41.1006471  14.2339927  83.8917782
  41.6524779  14.3971549  84.6566867  41.4412664  14.8244365  83.2197806
  45.9517345   9.0601185  89.7466436  46.4957249   9.6731143  89.2521391
  45.3704190   9.6180763  90.2633449  44.2374858  12.1821903  80.8781464
  44.1125997  11.3811643  80.3692409  44.8953949  12.6768096  80.3895434
  46.3009766   9.9830923  82.5061014  45.3540102   9.8636274  82.4339340
  46.6492540   9.0953421  82.5887275  43.3056200   9.7783639  78.7065366
  43.1581162   8.8500346  78.8872936  44.1309693   9.8003730  78.2222441
  37.1718444  -1.5698294  74.5645858  37.5114517  -1.0412373  73.8424467
  37.6190564  -1.2317888  75.3404425  46.9090322  10.6012198  79.7930239
  47.8336869  10.3955059  79.6554690  46.7405625  10.3528599  80.7019580
  39.1586591  -3.0723672  72.7639151  39.8794954  -2.6942420  72.2602868
  38.5351895  -2.3534796  72.8674129  43.3017714  -2.3678523  73.6997483
  43.5181328  -1.4853885  73.3986311  42.8211781  -2.7592310  72.9703125
  38.0416935   0.5907190  80.2768228  37.8961516   0.9047493  81.1692509
  37.5642139   1.2092090  79.7239126  39.9013318  -2.4190262  80.3249117
  39.8874887  -3.3149169  79.9881415  40.6185746  -2.4119598  80.9587403
  41.7539449  -1.9852922  82.3702245  41.4957227  -1.0635851  82.3686575
  41.2224489  -2.3822487  83.0602709  46.6985638  11.1197865  75.1492330
  46.8722515  10.5544288  74.3966183  47.1914529  11.9198760  74.9671820
  32.5162598   3.1312534  83.2155889  31.9716066   3.9072342  83.3476163
  33.3941947   3.4783339  83.0575010  52.5525029   3.8834288  76.7682630
  52.9956175   3.1341613  76.3701753  51.6751539   3.8744424  76.3856362
  47.6860810  10.4364630  72.2489228  48.3811715  11.0571322  72.4676543
  48.0283960   9.5859981  72.5241606  33.3028619   2.2582431  86.1086046
  32.5610355   2.4065066  86.6950676  32.9821364   2.5190696  85.2452795
  49.5852233   7.8864335  73.7776559  50.1103557   8.2251608  73.0525879
  49.4974586   6.9511350  73.5939694  41.2472282  11.7998409  85.9066436
  41.5559409  11.5547556  86.7789135  42.0447764  12.0045047  85.4185306
  41.2692894  13.9536318  78.1371812  40.8297884  13.4612697  78.8304669
  42.0201011  13.4109286  77.8963888  33.7485233  10.1447859  78.1396441
  34.5743253   9.8451631  77.7595084  33.3979285   9.3755482  78.5886229
  38.7166766   9.4974327  80.2094114  38.0946776   8.8345033  79.9096342
  39.3871633   9.5235459  79.5267762  31.9493838   8.0634186  79.0985374
  31.1125746   7.6356360  78.9169375  31.9217484   8.2566629  80.0356165
  38.7891294  -2.0243884  89.8026620  38.8379449  -1.1481762  89.4204390
  39.3313808  -2.5666491  89.2298263  49.2746139   8.5197239  89.0827757
  48.4841683   8.5021378  88.5432257  49.0379494   9.0585532  89.8376794
  49.3944014   5.3689705  86.3960486  49.4442019   5.2039713  87.3376009
  49.2857938   4.5016964  86.0058367  38.2780273   8.0478251  73.6852575
  38.4268394   8.7313715  73.0319247  39.0846717   8.0283341  74.2002030
  46.6847777   1.3520633  87.7119792  47.5857640   1.2127098  87.4203790
  46.7595751   1.5175088  88.6517970  41.0190582  -1.2712512  86.5572979
  40.1493892  -0.9778946  86.2855567  41.2550063  -0.6872067  87.2780242
  50.8962211   7.7886647  86.6402507  50.6047020   8.1516627  87.4765968
  50.2834343   7.0753655  86.4615839  52.0957894   5.3539526  79.1605078
  52.9304785   5.7929331  79.3242638  52.2317022   4.8778180  78.3413323
  49.1449400   2.9119261  85.1082565  49.6203521   3.1046908  84.3001417
  48.2214965   2.9678447  84.8625949  36.0332906   4.0743428  74.6913644
  35.7878948   3.1705758  74.8893854  36.2028821   4.0760579  73.7493122
  43.7229616  -5.0532895  84.0738399  44.2411560  -4.3171868  83.7484888
  43.3684749  -4.7468902  84.9085158  41.7775679  10.5426381  71.1564322
  41.2049646  11.1616568  70.7034794  42.3508472  11.0925743  71.6904244
  47.8451069  -0.2114979  83.3410871  48.7968491  -0.1116881  83.3623095
  47.6754519  -1.0036710  83.8508955  45.8665448  -3.1259395  83.5270272
  45.2715380  -2.8454383  82.8316760  45.5815145  -2.6365494  84.2987013
  44.9972939  10.8263531  72.2872904  45.9303612  10.7609093  72.4905780
  44.9096151  11.6619798  71.8287437  47.6260955  10.1429402  69.2476852
  47.5474587   9.8089265  70.1412610  48.4470622  10.6351170  69.2468324
  50.3239146   3.0091141  82.4553171  50.2915466   2.0707142  82.6412854
  50.9339770   3.0875178  81.7218995  42.1622477   1.8787194  68.4980375
  43.1081582   1.7493402  68.5668793  41.7836722   1.1401856  68.9749803
  50.4733635  -0.1997816  82.5011454  49.9572683  -0.9839359  82.3141383
  51.3573583  -0.5279099  82.6657973  48.1344362  -6.4556800  78.4607266
  47.9369183  -6.7641712  79.3450598  48.7444067  -5.7295161  78.5905196
  56.1415696   4.0707148  81.5959207  56.8719085   3.8092436  82.1566911
  55.5322642   3.3335870  81.6361275  54.2230993   2.2115010  82.1933659
  53.4964157   2.0770975  81.5850150  53.8078280   2.5191839  82.9990377
  42.0461170   5.9304940  89.9581032  42.9664179   6.1083539  90.1521078
  42.0110753   4.9860986  89.8060731  40.3465394  -0.1962830  68.4335260
  39.4396850  -0.4929717  68.5097973  40.6241375  -0.4933011  67.5669546
  35.0423242   3.8405975  82.6003813  35.2609252   4.7723083  82.6191847
  35.4549016   3.4813949  83.3858617  39.9151108  -0.5860819  91.9906562
  39.8147835   0.3633538  91.9218653  39.6972650  -0.9142581  91.1182632
  31.1331595   4.7446445  80.8527428  30.4395066   4.3300398  80.3397382
  31.8804586   4.7866982  80.2560847  47.2696815  -4.4647368  75.7182462
  46.6895485  -3.8062564  75.3360514  47.0032748  -5.2870023  75.3069879
  45.7200382  -5.0642310  77.9203782  46.2200160  -4.9525776  77.1118101
  46.3635990  -5.3681257  78.5604591  39.7782378   2.8436319  90.8071623
  39.2949459   3.6436680  91.0135512  39.8643317   2.8544264  89.8539067
  33.0468337   4.6764699  78.7293443  33.0239025   4.7752386  77.7775326
  33.3568974   5.5229850  79.0510609  35.7055715   6.7340854  82.8440057
  36.6598969   6.7024796  82.7769989  35.5068239   6.2731478  83.6590283
  36.2955097   5.3041970  85.4110855  37.1147986   5.7986049  85.4345692
  36.5691905   4.3873938  85.3828422  46.0521693  -2.3047278  74.7738810
  45.1647549  -2.0197627  74.5559005  46.4675683  -2.4653514  73.9266087
  49.4036230  -2.2800757  78.4893149  50.1796620  -1.7904304  78.7617766
  48.6784364  -1.8542702  78.9465019  51.8408788  -1.5673137  79.5467090
  52.4353279  -1.8077401  78.8360398  51.9135372  -2.2866007  80.1740626
  34.0605944  12.2760474  79.8610255  33.9260412  11.5160875  79.2948253
  33.6438006  13.0001373  79.3939044  45.1964907   7.4597397  68.8686830
  45.9000757   7.6647400  69.4844486  44.4727556   8.0274159  69.1335914
  46.0262717   3.2107258  74.9889100  45.9697919   3.6675810  74.1496733
  46.5791060   2.4497943  74.8111943  49.8367523  -1.0003010  75.8139220
  49.5804457  -1.4006374  76.6447428  49.2120391  -0.2859216  75.6889359
  54.1479861   1.7393064  78.3210511  53.5879419   1.8086253  79.0942073
  53.5423364   1.5634048  77.6010008  37.2175070  13.1729791  80.0728698
  37.1007454  14.1175223  79.9707388  36.3967516  12.8703352  80.4614497
  47.1051604   7.8979926  70.9185290  47.9397208   7.4661125  70.7362765
  46.9435947   7.7261940  71.8462185  46.7597497   4.4012040  72.2841630
  46.7046300   4.2356311  71.3430074  46.1343552   5.1088073  72.4403819
  44.0743404   6.7060952  91.6095192  44.9434563   6.8801604  91.2481827
  43.5950155   7.5255368  91.4870922  38.2429584  13.8258053  83.2884626
  39.1456831  13.8581663  83.6051121  38.0166954  12.8958503  83.3030962
  39.9983186  12.5789039  79.9494705  39.0478817  12.5790901  79.8359077
  40.3015672  11.8321774  79.4330739  55.7335879  18.4149577  81.0140467
  56.3714289  18.2956325  80.3103807  55.6156722  19.3630421  81.0728419
  52.5425586  18.3677006  80.9501992  52.2044097  18.2518070  80.0622527
  53.4115354  17.9668171  80.9302998  48.4012401  20.2212482  76.9398883
  47.8377267  20.1302419  76.1715170  48.2864796  19.4012386  77.4201375
  53.0245369  19.5211857  86.9088197  53.0134009  19.1264656  86.0368701
  53.1866008  18.7877930  87.5021969  45.9476833  21.7163674  79.7783103
  46.7398125  21.3754498  79.3629402  46.1873484  21.8258649  80.6985256
  53.9811960  23.8883450  72.2513348  53.3299940  24.4737530  71.8647361
  54.7756323  24.4189645  72.3108385  47.9067587  20.9772587  72.6500482
  48.6798463  20.4301574  72.5113358  48.2592986  21.8416836  72.8614943
  50.2433865  17.1365253  70.2818932  50.4959386  16.6146774  69.5202395
  49.3058424  16.9731398  70.3845615  55.2877148  16.1401031  78.0893675
  56.0740237  15.7220454  77.7384092  55.5515852  17.0447124  78.2575323
  55.4587225  21.5773882  72.7882332  54.8233058  21.6508508  73.5003237
  55.1284632  22.1667480  72.1101411  60.6885575  16.0776265  78.9926654
  61.4210747  15.5075481  79.2264483  59.9324931  15.6897865  79.4333159
  49.9630154  19.0393359  72.4843307  49.8466412  18.3638262  73.1524391
  50.0732414  18.5525733  71.6675460  52.3061695  18.5003506  76.1889996
  51.9419902  17.9734127  76.9002918  53.1628811  18.1101975  76.0156481
  58.2110995   9.7897839  83.4521262  57.8794320  10.6593250  83.2282477
  57.6156609   9.4734123  84.1315293  51.9467182  13.5293406  71.1851345
  52.1141584  14.3973642  71.5521816  51.7564351  13.6920687  70.2612634
  48.1554996  18.4424181  78.8853879  47.2305493  18.3100396  79.0931571
  48.4039410  19.2218401  79.3823822  58.1039659  14.5092925  80.5314612
  57.1956536  14.4408333  80.2373373  58.0527255  14.9864870  81.3596438
  51.9256403  15.9851063  72.1698011  51.8056028  16.4308114  73.0083492
  51.2308991  16.3336381  71.6111550  45.5163807  18.0857455  79.7197668
  45.6456189  18.3391934  80.6337080  44.8361259  18.6785163  79.4002323
  49.6863295  28.7554705  75.8188143  49.6087324  29.7062530  75.8976623
  49.0824938  28.4100577  76.4763069  52.1780525  15.9282570  88.4749510
  51.4013859  16.4876491  88.4652374  52.8171088  16.4139353  88.9964380
  59.9701305  12.7109363  82.3092486  59.3275685  13.0041896  81.6632281
  59.4656234  12.5962284  83.1145683  57.6241469  16.4572536  72.9978345
  58.5359325  16.6899923  72.8226043  57.1151116  17.0409581  72.4353424
  50.4326897  18.7368024  88.0367477  51.1741581  19.2753068  87.7602300
  49.7263882  19.3634313  88.1939028  55.9082236  20.8797164  86.6339638
  56.3165593  20.4379575  85.8894270  55.1859498  20.3049792  86.8873831
  52.2613307  15.8169771  84.0073195  53.1074502  16.2409185  84.1507844
  52.2011944  15.1603395  84.7011758  55.4112752  13.4774139  85.6654369
  55.1673684  14.2316200  85.1288644  55.6872682  13.8559487  86.5001616
  54.9677444  12.6330572  81.2468206  54.1061923  12.9311826  81.5384944
  54.9939878  12.8500971  80.3149239  51.7839013  21.1772763  77.6542012
  52.2477359  21.4560466  76.8646634  51.5195811  20.2756208  77.4715103
  48.6763094  20.7244244  80.5921775  49.2464451  21.1531513  79.9539260
  49.2671206  20.4426829  81.2905961  50.7207899  17.2995915  74.4631577
  51.4231942  17.7516959  74.9305503  50.3888528  16.6579734  75.0911470
  49.1688261  15.8907672  88.8382787  48.5386921  16.5723953  89.0718183
  49.0624348  15.7790754  87.8935925  44.4633233  15.5579468  79.7648711
  43.6732287  15.8136996  79.2888821  44.9544480  16.3727806  79.8700751
  46.4147978  15.9224047  76.7232187  45.6179142  16.0342741  77.2415683
  46.1873571  16.2610699  75.8573078  42.7470936  15.8109958  82.1963701
  42.9978974  16.6956968  82.4621277  43.2830484  15.6314560  81.4238793
  66.5703036  19.2423456  78.8638963  65.8166744  18.6730854  78.7082967
  66.7050577  19.2086120  79.8109598  48.4469003  10.1928438  91.2008038
  48.0535949   9.6394636  91.8755682  49.2635144  10.5039016  91.5914555
  45.4131061  21.6312296  75.1121607  45.9255582  22.4255546  75.2627172
  46.0653774  20.9338586  75.0455209  47.2225946  24.7478052  77.1944361
  47.3992574  25.6696017  77.0065345  48.0182779  24.4336471  77.6238740
  51.3636964  11.6086317  88.7928294  52.1046678  12.2093470  88.7132757
  51.5954887  10.8663955  88.2346337  46.5078302  16.7942684  87.0706524
  46.3931817  15.8927941  87.3713623  45.6522820  17.0406381  86.7191340
  55.3094127   7.6367420  83.0692576  54.9658397   8.5269061  82.9931686
  55.6773090   7.4469077  82.2062161  43.3779978  19.9600950  75.8881178
  44.2155200  20.3697959  75.6714886  43.5558246  19.0200392  75.8581372
  55.2744410  17.6276031  71.5765011  54.7591033  18.3980636  71.8153398
  55.0021718  16.9541167  72.1998072  52.8591521  12.4725732  76.6350249
  52.0033117  12.0832582  76.4555888  53.2718473  12.5517692  75.7750035
  54.3890668  10.0072075  81.0341809  53.8855463   9.9702210  80.2209614
  54.6821274  10.9164818  81.0938466  50.6333554  10.0910805  80.0407991
  51.4986550   9.8953613  79.6813880  50.7011062   9.8621156  80.9677348
  60.2478684  20.3808386  73.5118184  59.4708127  20.0419545  73.0673346
  60.9270165  20.3861009  72.8373149  55.0630713  15.5003123  73.4024792
  54.7580849  15.8149272  74.2534935  56.0161155  15.5784543  73.4452125
  53.5077145  21.6593346  75.0517746  52.9798507  20.9246106  74.7390984
  53.0064648  22.4368023  74.8057714  48.2395873  12.3213013  77.4124358
  48.8139624  12.0988194  76.6797551  48.8266855  12.3901707  78.1652959
  57.2975450  18.2086739  78.2188734  57.8107332  18.8416731  78.7210444
  57.9476674  17.6087935  77.8532094  48.5665460  14.3517474  71.4320243
  47.7302772  14.6892160  71.7529518  48.4270229  14.2166453  70.4947380
  50.5418540   9.1954262  76.1399427  49.8882953   8.8803279  75.5156042
  50.4999014   8.5730002  76.8659250  51.6529745  19.4773557  68.0552719
  50.7456807  19.2462810  68.2543868  52.1500777  18.6811176  68.2426701
  53.7756281  15.6836195  80.4647075  52.8578842  15.9051142  80.3068763
  54.1916424  15.7582506  79.6058782  54.5591328  17.0827611  75.5949755
  55.3063147  17.5949008  75.2856877  54.8282918  16.7611663  76.4554148
  52.8317979  19.5786151  72.5776709  51.9229198  19.2945184  72.6749179
  52.8613062  19.9985230  71.7180016  57.0070166  14.1184727  77.5768544
  56.2692922  13.6062113  77.9078787  57.2596939  13.6785109  76.7651821
  57.1081793   6.8960979  78.1710313  57.4140670   6.0358342  77.8836229
  57.8334398   7.4878599  77.9709307  43.4006149  17.2991666  76.5591911
  43.2030549  16.7061026  75.8342978  42.8452813  16.9943876  77.2767850
  51.3802873  17.1914772  78.6786505  51.4351482  16.2388608  78.6028981
  50.5694075  17.3474211  79.1627803  52.5294066  21.1194895  69.9164788
  52.0913496  20.4030754  69.4570425  53.2704507  21.3471010  69.3549879
  49.3195233  15.8091832  76.4376883  48.5063098  16.1086002  76.8442076
  49.8154227  15.4147521  77.1551366  54.9169444  16.2733656  85.2691777
  55.2718832  16.5005129  86.1286243  55.5641575  16.6052033  84.6469033
  60.6467181  19.3952092  75.9741106  60.5085080  19.5853688  75.0462296
  60.2903400  20.1571475  76.4309157  48.8109307  13.3810187  82.0538118
  49.4508687  13.2398946  81.3561082  47.9786838  13.0944701  81.6776720
  49.5869611  22.6812618  78.1673111  50.3810210  22.1862938  77.9655686
  48.8761304  22.1530481  77.8040816  45.8952375  16.8255699  74.2432864
  44.9649963  16.7640155  74.4602826  45.9909847  16.3031652  73.4469505
  45.8137924  13.3510512  76.8311105  46.0744741  14.2655846  76.7220266
  46.6355096  12.8834955  76.9807718  47.2862849  14.7648269  84.0009930
  47.9585902  14.5565632  83.3522579  46.4592636  14.5670355  83.5615162
  53.1888421  11.3910210  86.0175591  52.5416336  12.0900160  85.9240067
  53.9589436  11.8246354  86.3851839  56.5967219  21.6559063  89.0926144
  56.4452725  21.4269614  88.1756228  56.5871898  22.6129664  89.1057489
  52.7589039  28.3550736  73.1896484  52.9340795  27.8838779  74.0042107
  52.0721827  28.9816502  73.4177745  47.6890346  18.0390872  84.7612367
  47.5510144  17.3071111  85.3623906  48.5995270  17.9499773  84.4796555
  56.6505294  19.9779277  69.5096845  56.0334465  19.2526105  69.4129898
  56.1821782  20.7388637  69.1663920  50.3172647  17.7510832  84.2496047
  51.0272266  17.1104024  84.2082665  50.2741955  18.0023727  85.1722227
  49.0301581  14.7376050  86.0691686  48.4938938  14.2866788  86.7213282
  48.4418289  14.8721958  85.3262150  47.3250124  31.5040099  79.9636345
  47.5646723  32.1358623  80.6415363  46.4819321  31.1528139  80.2501704
  48.4403840  14.1964701  68.6318150  47.5633306  14.0753502  68.2680396
  48.9161593  13.4050779  68.3797038  39.9605980  18.9841861  78.7259657
  40.6477020  18.6703591  78.1380672  39.8054109  19.8883225  78.4526908
  44.7640702  13.8732057  83.1544680  44.6798891  13.2657727  82.4195090
  43.9423409  14.3641076  83.1554177  54.9364416  12.3585621  78.5214876
  55.4333116  11.6055583  78.2015946  54.1651398  12.3949938  77.9558085
  62.7894173  18.0625986  80.1633167  62.7784050  18.9450702  79.7927100
  61.9211553  17.7097537  79.9687704  56.0194197  21.1157308  76.0953299
  55.0850475  21.2358771  75.9258003  56.1970865  20.2129775  75.8313309
  51.5199385  14.5003004  78.2486560  51.1497172  13.9474044  78.9367466
  52.0158477  13.8961137  77.6961560  59.4066748  16.9574627  76.6303333
  59.8727200  17.7902619  76.5563636  59.8574249  16.4919609  77.3348592
  57.3783411   9.3255214  80.6694234  56.4646491   9.5559441  80.8376441
  57.8076512   9.4093658  81.5208267  57.1489869  17.5145106  83.1694128
  56.4961320  17.7621014  82.5146581  57.5270249  16.7009245  82.8356606
  53.1977442  18.2564917  89.6560166  52.5218079  18.1559047  90.3262541
  54.0205076  18.1004131  90.1196163  44.9456301  24.4936854  82.2772681
  45.5309738  23.7480542  82.4100585  44.7481140  24.8040811  83.1609345
  47.7994957  27.5288101  77.2935123  47.1305332  28.0134229  76.8099163
  47.6607826  27.7757322  78.2078502  39.5373956  17.0642454  80.9977124
  39.5758056  16.5306045  81.7914242  39.0314249  16.5377660  80.3788101
  46.9164718  11.9106995  84.4939666  46.9806045  12.7721826  84.0817064
  46.8531839  11.2980996  83.7612025  46.3916991  13.9830127  88.1412700
  47.0189030  13.6007205  88.7550225  45.5344910  13.7644329  88.5068393
  43.1682534  15.7906556  74.0731055  43.4635975  14.8817235  74.0198109
  42.2670570  15.7694296  73.7512058  46.6976781  13.8662553  80.0558604
  45.9763367  14.4798521  79.9166077  47.4870037  14.4020318  79.9775250
  49.5003094  11.2016979  86.3299256  50.0237496  11.4479276  87.0925565
  49.2815428  12.0337014  85.9102393  44.8970375  13.4720654  74.1970380
  44.5683082  12.5918033  74.0145486  45.2509746  13.4168323  75.0846770
  48.0112199  13.7593624  74.5645858  48.3508271  14.2879545  73.8424467
  48.4584319  14.0974030  75.3404425  50.7055639  12.1430675  84.0148926
  50.3652460  11.3438488  84.4169606  49.9994646  12.4432385  83.4425759
  51.3572111   9.2279987  82.4676249  52.1798180   8.7540465  82.3455140
  51.6010175  10.0070471  82.9674936  49.9980346  12.2568245  72.7639151
  50.7188708  12.6349498  72.2602868  49.3745650  12.9757122  72.8674129
  54.1411469  12.9613394  73.6997483  54.3575083  13.8438032  73.3986311
  53.6605536  12.5699608  72.9703125  48.8810690  15.9199108  80.2768228
  48.7355271  16.2339411  81.1692509  48.4035894  16.5384008  79.7239126
  50.7407073  12.9101656  80.3249117  50.7268642  12.0142749  79.9881415
  51.4579501  12.9172319  80.9587403  52.5933204  13.3438996  82.3702245
  52.3350981  14.2656066  82.3686575  52.0618244  12.9469430  83.0602709
  43.3556352  18.4604452  83.2155889  42.8109820  19.2364260  83.3476163
  44.2335702  18.8075256  83.0575010  50.1443969  11.7916036  75.5936688
  50.2659880  10.8632682  75.7927575  49.8546011  11.8054722  74.6815003
  53.0135159   9.4770946  78.7303407  53.0356856   9.5410279  77.7755387
  53.4303218   8.6375455  78.9243914  63.3918783  19.2126206  76.7682630
  63.8349929  18.4633531  76.3701753  62.5145294  19.2036342  76.3856362
  58.5254565  25.7656547  72.2489228  59.2205469  26.3863240  72.4676543
  58.8677715  24.9151898  72.5241606  44.1422374  17.5874348  86.1086046
  43.4004110  17.7356984  86.6950676  43.8215118  17.8482614  85.2452795
  60.4245988  23.2156253  73.7776559  60.9497312  23.5543526  73.0525879
  60.3368340  22.2803268  73.5939694  44.5878988  25.4739777  78.1396441
  45.4137008  25.1743549  77.7595084  44.2373040  24.7047399  78.5886229
  49.5560521  24.8266245  80.2094114  48.9340530  24.1636950  79.9096342
  50.2265388  24.8527377  79.5267762  42.7887593  23.3926103  79.0985374
  41.9519501  22.9648278  78.9169375  42.7611238  23.5858547  80.0356165
  49.6285048  13.3048033  89.8026620  49.6773204  14.1810156  89.4204390
  50.1707562  12.7625426  89.2298263  60.1139894  23.8489156  89.0827757
  59.3235438  23.8313295  88.5432257  59.8773249  24.3877450  89.8376794
  49.1174028  23.3770169  73.6852575  49.2662148  24.0605633  73.0319247
  49.9240471  23.3575259  74.2002030  57.5241531  16.6812551  87.7119792
  58.4251394  16.5419016  87.4203790  57.5989506  16.8467006  88.6517970
  51.8584337  14.0579406  86.5572979  50.9887646  14.3512972  86.2855567
  52.0943817  14.6419851  87.2780242  62.9351648  20.6831444  79.1605078
  63.7698540  21.1221248  79.3242638  63.0710777  20.2070097  78.3413323
  59.9843154  18.2411179  85.1082565  60.4597276  18.4338825  84.3001417
  59.0608719  18.2970365  84.8625949  46.8726661  19.4035346  74.6913644
  46.6272703  18.4997676  74.8893854  47.0422575  19.4052497  73.7493122
  54.5623371  10.2759023  84.0738399  55.0805314  11.0120049  83.7484888
  54.2078503  10.5823016  84.9085158  46.1422308  15.1363704  72.1899805
  45.4491553  15.2108059  71.5339841  45.8974060  14.3724047  72.7121322
  54.8135965   6.6959305  79.5939296  55.0937718   6.0282494  80.2199722
  55.5986572   6.8888401  79.0813960  52.6169433  25.8718299  71.1564322
  52.0443400  26.4908486  70.7034794  53.1902227  26.4217661  71.6904244
  58.6844823  15.1176939  83.3410871  59.6362246  15.2175037  83.3623095
  58.5148273  14.3255208  83.8508955  56.7059203  12.2032522  83.5270272
  56.1109135  12.4837535  82.8316760  56.4208899  12.6926423  84.2987013
  58.4654710  25.4721319  69.2476852  58.3868341  25.1381183  70.1412610
  59.2864376  25.9643087  69.2468324  61.1632901  18.3383059  82.4553171
  61.1309221  17.3999059  82.6412854  61.7733524  18.4167095  81.7218995
  53.0016232  17.2079112  68.4980375  53.9475336  17.0785320  68.5668793
  52.6230477  16.4693774  68.9749803  61.3127389  15.1294102  82.5011454
  60.7966438  14.3452559  82.3141383  62.1967338  14.8012819  82.6657973
  58.9738116   8.8735118  78.4607266  58.7762937   8.5650206  79.3450598
  59.5837822   9.5996757  78.5905196  66.9809451  19.3999066  81.5959207
  67.7112839  19.1384354  82.1566911  66.3716396  18.6627788  81.6361275
  65.0624748  17.5406928  82.1933659  64.3357911  17.4062893  81.5850150
  64.6472035  17.8483757  82.9990377  52.8854924  21.2596858  89.9581032
  53.8057934  21.4375457  90.1521078  52.8504507  20.3152903  89.8060731
  51.1859149  15.1329088  68.4335260  50.2790604  14.8362201  68.5097973
  51.4635130  14.8358906  67.5669546  42.1037089  16.4535452  78.8834306
  41.7839874  15.6000760  78.5908680  41.5570517  16.6684030  79.6392274
  45.8816997  19.1697893  82.6003813  46.1003007  20.1015000  82.6191847
  46.2942771  18.8105867  83.3858617  52.8021215   9.6765978  74.5879501
  51.9921943   9.3313063  74.9634747  53.4905632   9.3673522  75.1767113
  54.7311763   8.7544025  76.2103798  55.2842801   9.1739478  76.8693821
  54.9681849   7.8279773  76.2526754  50.7544862  14.7431098  91.9906562
  50.6541589  15.6925455  91.9218653  50.5366404  14.4149337  91.1182632
  49.9557933  11.9916023  68.5747239  50.8177097  12.3170922  68.8343056
  50.1408278  11.2047519  68.0620305  41.9725349  20.0738363  80.8527428
  41.2788821  19.6592316  80.3397382  42.7198340  20.1158900  80.2560847
  58.1090570  10.8644550  75.7182462  57.5289239  11.5229354  75.3360514
  57.8426503  10.0421894  75.3069879  56.5594136  10.2649607  77.9203782
  57.0593915  10.3766142  77.1118101  57.2029744   9.9610660  78.5604591
  50.6176132  18.1728237  90.8071623  50.1343214  18.9728597  91.0135512
  50.7037071  18.1836182  89.8539067  43.8862092  20.0056617  78.7293443
  43.8632780  20.1044304  77.7775326  44.1962728  20.8521768  79.0510609
  56.8915448  13.0244640  74.7738810  56.0041303  13.3094291  74.5559005
  57.3069437  12.8638404  73.9266087  60.2429984  13.0491161  78.4893149
  61.0190374  13.5387614  78.7617766  59.5178118  13.4749215  78.9465019
  62.6802543  13.7618780  79.5467090  63.2747034  13.5214516  78.8360398
  62.7529126  13.0425911  80.1740626  44.8999698  27.6052391  79.8610255
  44.7654166  26.8452792  79.2948253  44.4831761  28.3293291  79.3939044
  56.0358661  22.7889315  68.8686830  56.7394512  22.9939317  69.4844486
  55.3121310  23.3566077  69.1335914  56.8656472  18.5399176  74.9889100
  56.8091673  18.9967728  74.1496733  57.4184814  17.7789861  74.8111943
  60.6761278  14.3288908  75.8139220  60.4198212  13.9285544  76.6447428
  60.0514146  15.0432702  75.6889359  64.9873615  17.0684981  78.3210511
  64.4273173  17.1378171  79.0942073  64.3817119  16.8925966  77.6010008
  48.0568824  28.5021708  80.0728698  47.9401208  29.4467141  79.9707388
  47.2361271  28.1995270  80.4614497  57.9445359  23.2271844  70.9185290
  58.7790963  22.7953043  70.7362765  57.7829702  23.0553858  71.8462185
  57.5991251  19.7303957  72.2841630  57.5440055  19.5648229  71.3430074
  56.9737306  20.4379990  72.4403819  42.3883766  14.9672022  86.1103052
  43.0342630  14.4570976  86.5990277  42.1800917  15.7040703  86.6846477
  54.9137158  22.0352869  91.6095192  55.7828318  22.2093521  91.2481827
  54.4343910  22.8547286  91.4870922  50.9087377   9.2312066  71.8626948
  50.8966046  10.1753906  72.0195219  51.8010798   9.0482212  71.5686409
  54.7239496   5.8254843  76.1172885  53.9571892   5.2713330  76.2629567
  55.1350201   5.8976712  76.9787036  46.7281257  12.1139639  90.2078066
  47.5912719  11.7576444  90.4181391  46.1546668  11.7753534  90.8953470
  64.8205715  39.2175367  72.2513348  64.1693694  39.8029448  71.8647361
  65.6150077  39.7481562  72.3108385  58.7461342  36.3064505  72.6500482
  59.5192218  35.7593492  72.5113358  59.0986741  37.1708754  72.8614943
  61.0827620  32.4657171  70.2818932  61.3353140  31.9438692  69.5202395
  60.1452179  32.3023316  70.3845615  60.8023908  34.3685277  72.4843307
  60.6860166  33.6930180  73.1524391  60.9126168  33.8817651  71.6675460
  62.7860936  28.8585323  71.1851345  62.9535339  29.7265560  71.5521816
  62.5958105  29.0212605  70.2612634  62.7650157  31.3142981  72.1698011
  62.6449782  31.7600032  73.0083492  62.0702746  31.6628299  71.6111550
  77.4096790  34.5715373  78.8638963  76.6560498  34.0022771  78.7082967
  77.5444331  34.5378038  79.8109598  59.2862758  25.5220355  91.2008038
  58.8929703  24.9686554  91.8755682  60.1028898  25.8330934  91.5914555
  56.2524816  36.9604214  75.1121607  56.7649336  37.7547464  75.2627172
  56.9047528  36.2630504  75.0455209  54.2173732  35.2892868  75.8881178
  55.0548954  35.6989876  75.6714886  54.3952000  34.3492310  75.8581372
  62.4923500  34.8065474  68.0552719  61.5850561  34.5754728  68.2543868
  62.9894532  34.0103094  68.2426701  63.6711733  34.9078069  72.5776709
  62.7622952  34.6237102  72.6749179  63.7006817  35.3277148  71.7180016
  67.9475547  22.2252897  78.1710313  68.2534424  21.3650260  77.8836229
  68.6728152  22.8170517  77.9709307  63.3687821  36.4486813  69.9164788
  62.9307251  35.7322672  69.4570425  64.1098262  36.6762928  69.3549879
  67.4899048  35.3071194  69.5096845  66.8728219  34.5818023  69.4129898
  67.0215537  36.0680555  69.1663920  59.2797594  29.5256619  68.6318150
  58.4027061  29.4045420  68.2680396  59.7555347  28.7342697  68.3797038
  50.7999735  34.3133778  78.7259657  51.4870774  33.9995509  78.1380672
  50.6447863  35.2175143  78.4526908  50.3767711  32.3934372  80.9977124
  50.4151810  31.8597963  81.7914242  49.8708003  31.8669577  80.3788101
  54.0076288  31.1198474  74.0731055  54.3029729  30.2109152  74.0198109
  53.1064324  31.0986213  73.7512058  55.4272742  40.8031695  78.1396441
  56.2530762  40.5035466  77.7595084  55.0766794  40.0339317  78.5886229
  53.6281347  38.7218021  79.0985374  52.7913255  38.2940195  78.9169375
  53.6004993  38.9150464  80.0356165  65.6529719  22.0251223  79.5939296
  65.9331473  21.3574412  80.2199722  66.4380326  22.2180318  79.0813960
  69.3048464  40.8013237  69.2476852  69.2262096  40.4673101  70.1412610
  70.1258131  41.2935005  69.2468324  63.8409986  32.5371029  68.4980375
  64.7869091  32.4077237  68.5668793  63.4624231  31.7985691  68.9749803
  62.0252903  30.4621006  68.4335260  61.1184359  30.1654118  68.5097973
  62.3028884  30.1650824  67.5669546  52.9430844  31.7827369  78.8834306
  52.6233628  30.9292677  78.5908680  52.3964272  31.9975947  79.6392274
  63.6414969  25.0057895  74.5879501  62.8315697  24.6604980  74.9634747
  64.3299386  24.6965439  75.1767113  60.7951688  27.3207941  68.5747239
  61.6570852  27.6462839  68.8343056  60.9802032  26.5339437  68.0620305
  66.8752416  38.1181233  68.8686830  67.5788266  38.3231235  69.4844486
  66.1515065  38.6857994  69.1335914  61.7481131  24.5603984  71.8626948
  61.7359801  25.5045824  72.0195219  62.6404553  24.3774129  71.5686409
  65.5633250  21.1546761  76.1172885  64.7965646  20.6005247  76.2629567
  65.9743955  21.2268629  76.9787036  69.5855096  51.6356422  72.6500482
  70.3585972  51.0885409  72.5113358  69.9380495  52.5000672  72.8614943
  71.9221374  47.7949088  70.2818932  72.1746895  47.2730610  69.5202395
  70.9845933  47.6315234  70.3845615  71.6417663  49.6977194  72.4843307
  71.5253921  49.0222098  73.1524391  71.7519923  49.2109568  71.6675460
  73.6254691  44.1877241  71.1851345  73.7929093  45.0557477  71.5521816
  73.4351860  44.3504523  70.2612634  73.6043912  46.6434899  72.1698011
  73.4843537  47.0891949  73.0083492  72.9096500  46.9920216  71.6111550
  71.3650804  59.4138540  75.8188143  71.2874833  60.3646365  75.8976623
  70.7612447  59.0684413  76.4763069  79.3028978  47.1156372  72.9978345
  80.2146834  47.3483758  72.8226043  78.7938625  47.6993416  72.4353424
  73.4626522  51.8356598  77.6542012  73.9264868  52.1144301  76.8646634
  73.1983320  50.9340043  77.4715103  72.3995408  47.9579751  74.4631577
  73.1019451  48.4100794  74.9305503  72.0676037  47.3163570  75.0911470
  73.6389173  54.7720693  74.5393682  73.5034847  55.6172229  74.9678530
  74.1798985  54.9739971  73.7759616  76.9531919  48.2859866  71.5765011
  76.4378542  49.0564471  71.8153398  76.6809227  47.6125002  72.1998072
  70.2452969  45.0101309  71.4320243  69.4090281  45.3475996  71.7529518
  70.1057738  44.8750289  70.4947380  73.3317254  50.1357392  68.0552719
  72.4244316  49.9046645  68.2543868  73.8288286  49.3395011  68.2426701
  74.5105488  50.2369987  72.5776709  73.6016707  49.9529020  72.6749179
  74.5400571  50.6569065  71.7180016  78.7869302  37.5544814  78.1710313
  79.0928179  36.6942178  77.8836229  79.5121907  38.1462435  77.9709307
  71.2657120  53.3396453  78.1673111  72.0597719  52.8446773  77.9655686
  70.5548813  52.8114316  77.8040816  75.3933611  53.2907078  79.2359786
  75.0583444  53.2507848  80.1317436  74.8937557  52.6251794  78.7630196
  70.1191349  44.8548536  68.6318150  69.2420815  44.7337337  68.2680396
  70.5949102  44.0634615  68.3797038  81.0854257  47.6158463  76.6303333
  81.5514709  48.4486454  76.5563636  81.5361758  47.1503444  77.3348592
  69.4782466  58.1871937  77.2935123  68.8092841  58.6718064  76.8099163
  69.3395335  58.4341157  78.2078502  71.6767855  42.9152081  72.7639151
  72.3976217  43.2933334  72.2602868  71.0533159  43.6340958  72.8674129
  75.8198978  43.6197230  73.6997483  76.0362592  44.5021868  73.3986311
  75.3393045  43.2283443  72.9703125  70.7961537  54.0354004  73.6852575
  70.9449657  54.7189468  73.0319247  71.6027980  54.0159094  74.2002030
  68.5514170  50.0619181  74.6913644  68.3060212  49.1581511  74.8893854
  68.7210084  50.0636332  73.7493122  67.8209817  45.7947539  72.1899805
  67.1279062  45.8691894  71.5339841  67.5761569  45.0307883  72.7121322
  74.6803741  47.8662947  68.4980375  75.6262845  47.7369155  68.5668793
  74.3017986  47.1277609  68.9749803  80.6525625  39.5318953  78.4607266
  80.4550446  39.2234041  79.3450598  81.2625331  40.2580592  78.5905196
  72.8646658  45.7912923  68.4335260  71.9578113  45.4946036  68.5097973
  73.1422639  45.4942742  67.5669546  74.4808724  40.3349813  74.5879501
  73.6709452  39.9896898  74.9634747  75.1693140  40.0257357  75.1767113
  71.6345442  42.6499859  68.5747239  72.4964606  42.9754757  68.8343056
  71.8195787  41.8631355  68.0620305  79.7878079  41.5228385  75.7182462
  79.2076748  42.1813189  75.3360514  79.5214012  40.7005730  75.3069879
  78.2381645  40.9233443  77.9203782  78.7381424  41.0349977  77.1118101
  78.8817253  40.6194496  78.5604591  78.5702957  43.6828476  74.7738810
  77.6828812  43.9678126  74.5559005  78.9856946  43.5222239  73.9266087
  81.9217493  43.7074996  78.4893149  82.6977883  44.1971449  78.7617766
  81.1965627  44.1333051  78.9465019  84.3590052  44.4202616  79.5467090
  84.9534543  44.1798352  78.8360398  84.4316635  43.7009746  80.1740626
  82.3548787  44.9872743  75.8139220  82.0985721  44.5869379  76.6447428
  81.7301655  45.7016537  75.6889359  76.5924667  52.6936705  91.6095192
  77.4615827  52.8677357  91.2481827  76.1131419  53.5131121  91.4870922
  72.5874885  39.8895902  71.8626948  72.5753555  40.8337742  72.0195219
  73.4798307  39.7066047  71.5686409 101.5686013  71.1065509  83.4521262
 101.2369338  71.9760920  83.2282477 100.9731627  70.7901793  84.1315293
  98.6669145  68.9535091  83.0692576  98.3233415  69.8436732  82.9931686
  99.0348108  68.7636748  82.2062161  97.9198389  71.5926693  84.0738399
  98.4380332  72.3287720  83.7484888  97.5653521  71.8990687  84.9085158
 100.0634220  73.5200193  83.5270272  99.4684153  73.8005206  82.8316760
  99.7783917  74.0094094  84.2987013 112.7223337 102.4116136  72.2489228
 113.4174242 103.0322828  72.4676543 113.0646487 101.5611487  72.5241606
 112.6623482 102.1180908  69.2476852 112.5837114 101.7840771  70.1412610
 113.4833149 102.6102676  69.2468324 119.0174487 115.8634956  72.2513348
 118.3662467 116.4489036  71.8647361 119.8118850 116.3941151  72.3108385
 115.2796392 109.1116759  70.2818932 115.5321913 108.5898280  69.5202395
 114.3420951 108.9482904  70.3845615 120.4949752 113.5525388  72.7882332
 119.8595585 113.6260014  73.5003237 120.1647159 114.1418987  72.1101411
 125.7248102 108.0527771  78.9926654 126.4573274 107.4826987  79.2264483
 124.9687458 107.6649371  79.4333159 114.9992681 111.0144865  72.4843307
 114.8828939 110.3389768  73.1524391 115.1094941 110.5277239  71.6675460
 116.9829709 105.5044912  71.1851345 117.1504111 106.3725148  71.5521816
 116.7926878 105.6672193  70.2612634 123.1402186 106.4844431  80.5314612
 122.2319063 106.4159839  80.2373373 123.0889781 106.9616376  81.3596438
 116.9618930 107.9602569  72.1698011 116.8418555 108.4059620  73.0083492
 116.2671518 108.3087887  71.6111550 122.6603996 108.4324042  72.9978345
 123.5721852 108.6651429  72.8226043 122.1513643 109.0161087  72.4353424
 125.1462810 114.3504299  77.7436291 124.4613848 114.7303200  77.1933324
 125.2306659 114.9599625  78.4768238 131.6065563 111.2174962  78.8638963
 130.8529271 110.6482360  78.7082967 131.7413104 111.1837626  79.8109598
 116.9964191 116.0888364  74.5393682 116.8609865 116.9339900  74.9678530
 117.5374003 116.2907642  73.7759616 120.3106937 109.6027537  71.5765011
 119.7953560 110.3732142  71.8153398 120.0384245 108.9292673  72.1998072
 117.8954048 104.4477238  76.6350249 117.0395644 104.0584088  76.4555888
 118.3081000 104.5269199  75.7750035 125.2841211 112.3559892  73.5118184
 124.5070654 112.0171051  73.0673346 125.9632692 112.3612515  72.8373149
 120.0993240 107.4754629  73.4024792 119.7943376 107.7900778  74.2534935
 121.0523682 107.5536049  73.4452125 118.5439672 113.6344852  75.0517746
 118.0161033 112.8997612  74.7390984 118.0427175 114.4119529  74.8057714
 115.5781067 101.1705768  76.1399427 114.9245480 100.8554785  75.5156042
 115.5361541 100.5481508  76.8659250 116.6892272 111.4525063  68.0552719
 115.7819334 111.2214316  68.2543868 117.1863304 110.6562682  68.2426701
 119.5960351 120.1622570  70.9749405 118.9222050 120.4654267  71.5834363
 119.9826173 120.9651650  70.6254862 119.5953855 109.0579117  75.5949755
 120.3425674 109.5700514  75.2856877 119.8645445 108.7363170  76.4554148
 117.8680506 111.5537658  72.5776709 116.9591725 111.2696690  72.6749179
 117.8975589 111.9736736  71.7180016 123.0999773 115.1644247  76.3467877
 122.6462100 114.3235157  76.4033067 122.4693740 115.8005645  76.6842657
 122.0432693 106.0936233  77.5768544 121.3055449 105.5813619  77.9078787
 122.2959466 105.6536615  76.7651821 121.5432712 117.0020744  77.2817695
 121.8355687 117.5625801  76.5630061 122.0531333 117.2949305  78.0370854
 117.5656593 113.0946401  69.9164788 117.1276023 112.3782260  69.4570425
 118.3067034 113.3222516  69.3549879 125.6829708 111.3703598  75.9741106
 125.5447607 111.5605194  75.0462296 125.3265927 112.1322981  76.4309157
 117.7951566 120.3302242  73.1896484 117.9703322 119.8590285  74.0042107
 117.1084354 120.9568008  73.4177745 121.6867821 111.9530783  69.5096845
 121.0696992 111.2277611  69.4129898 121.2184309 112.7140143  69.1663920
 113.4766367 106.1716207  68.6318150 112.5995833 106.0505008  68.2680396
 113.9524120 105.3802285  68.3797038 119.9726943 104.3337127  78.5214876
 120.4695643 103.5807089  78.2015946 119.2013925 104.3701444  77.9558085
 121.0556724 113.0908814  76.0953299 120.1213002 113.2110277  75.9258003
 121.2333392 112.1881281  75.8313309 124.4429275 108.9326133  76.6303333
 124.9089727 109.7654125  76.5563636 124.8936776 108.4671115  77.3348592
 122.5105506 115.2769955  73.6289485 122.7865350 115.1626549  74.5383359
 121.6410005 114.8787440  73.5901658 119.4801736 118.4524491  74.5337347
 120.0089502 117.9416945  73.9207509 119.7429955 118.1367021  75.3982880
 115.0342873 104.2319751  72.7639151 115.7551235 104.6101004  72.2602868
 114.4108177 104.9508628  72.8674129 119.1773995 104.9364900  73.6997483
 119.3937610 105.8189538  73.3986311 118.6968063 104.5451114  72.9703125
 122.5741919 118.4241289  75.1492330 122.7478797 117.8587711  74.3966183
 123.0670810 119.2242184  74.9671820 118.0497686 101.4522452  78.7303407
 118.0719383 101.5161785  77.7755387 118.4665745 100.6126961  78.9243914
 128.4281310 111.1877712  76.7682630 128.8712456 110.4385037  76.3701753
 127.5507821 111.1787848  76.3856362 123.5617092 117.7408053  72.2489228
 124.2567996 118.3614746  72.4676543 123.9040242 116.8903405  72.5241606
 125.4608515 115.1907759  73.7776559 125.9859839 115.5295032  73.0525879
 125.3730867 114.2554774  73.5939694 114.1536555 115.3521675  73.6852575
 114.3024675 116.0357139  73.0319247 114.9602998 115.3326765  74.2002030
 117.6531960 117.8469805  71.1564322 117.0805927 118.4659992  70.7034794
 118.2264754 118.3969167  71.6904244 120.8729220 118.1306955  72.2872904
 121.8059893 118.0652517  72.4905780 120.7852433 118.9663222  71.8287437
 123.5017237 117.4472825  69.2476852 123.4230868 117.1132689  70.1412610
 124.3226903 117.9394593  69.2468324 118.0378759 109.1830618  68.4980375
 118.9837863 109.0536826  68.5668793 117.6593004 108.4445280  68.9749803
 130.0987275 109.5158434  82.1933659 129.3720438 109.3814399  81.5850150
 129.6834562 109.8235263  82.9990377 116.2221676 107.1080594  68.4335260
 115.3153131 106.8113707  68.5097973 116.4997657 106.8110412  67.5669546
 114.9920460 103.9667529  68.5747239 115.8539624 104.2922428  68.8343056
 115.1770805 103.1799025  68.0620305 123.1453097 102.8396056  75.7182462
 122.5651766 103.4980860  75.3360514 122.8789030 102.0173400  75.3069879
 121.5956663 102.2401114  77.9203782 122.0956442 102.3517648  77.1118101
 122.2392271 101.9362166  78.5604591 121.9277975 104.9996146  74.7738810
 121.0403830 105.2845797  74.5559005 122.3431964 104.8389910  73.9266087
 125.2792511 105.0242667  78.4893149 126.0552901 105.5139120  78.7617766
 124.5540645 105.4500721  78.9465019 127.7165070 105.7370286  79.5467090
 128.3109560 105.4966022  78.8360398 127.7891653 105.0177417  80.1740626
 121.0721188 114.7640821  68.8686830 121.7757039 114.9690823  69.4844486
 120.3483837 115.3317583  69.1335914 121.9018999 110.5150682  74.9889100
 121.8454200 110.9719234  74.1496733 122.4547341 109.7541367  74.8111943
 125.7123805 106.3040414  75.8139220 125.4560739 105.9037050  76.6447428
 125.0876673 107.0184208  75.6889359 130.0236142 109.0436487  78.3210511
 129.4635700 109.1129677  79.0942073 129.4179646 108.8677472  77.6010008
 122.9807886 115.2023350  70.9185290 123.8153490 114.7704549  70.7362765
 122.8192229 115.0305364  71.8462185 122.6353778 111.7055463  72.2841630
 122.5802582 111.5399735  71.3430074 122.0099833 112.4131496  72.4403819
 131.6092161 125.7193001  81.0140467 132.2470571 125.5999749  80.3103807
 131.4913004 126.6673845  81.0728419 128.4181867 125.6720429  80.9501992
 128.0800379 125.5561494  80.0622527 129.2871635 125.2711594  80.9302998
 124.2768683 127.5255906  76.9398883 123.7133548 127.4345843  76.1715170
 124.1621078 126.7055810  77.4201375 128.9001650 126.8255281  86.9088197
 128.8890291 126.4308079  86.0368701 129.0622290 126.0921354  87.5021969
 121.8233115 129.0207097  79.7783103 122.6154407 128.6797922  79.3629402
 122.0629765 129.1302072  80.6985256 129.8568242 131.1926873  72.2513348
 129.2056221 131.7780954  71.8647361 130.6512604 131.7233068  72.3108385
 123.7823869 128.2816011  72.6500482 124.5554745 127.7344998  72.5113358
 124.1349268 129.1460260  72.8614943 125.6208911 129.6092393  85.8567381
 125.3298777 130.5138024  85.7414048 126.2565896 129.6508920  86.5711451
 126.5465118 126.9869241  82.4468741 127.1428690 126.7625264  81.7325704
 126.6040090 126.2453987  83.0494189 126.1190147 124.4408677  70.2818932
 126.3715667 123.9190198  69.5202395 125.1814706 124.2774822  70.3845615
 131.3343507 128.8817305  72.7882332 130.6989340 128.9551932  73.5003237
 131.0040913 129.4710904  72.1101411 136.5641857 123.3819688  78.9926654
 137.2967028 122.8118905  79.2264483 135.8081212 122.9941289  79.4333159
 125.8386435 126.3436783  72.4843307 125.7222693 125.6681686  73.1524391
 125.9488695 125.8569157  71.6675460 128.1817976 125.8046930  76.1889996
 127.8176183 125.2777551  76.9002918 129.0385092 125.4145399  76.0156481
 127.8223463 120.8336829  71.1851345 127.9897866 121.7017066  71.5521816
 127.6320632 120.9964111  70.2612634 130.5798796 129.2953808  82.8517175
 130.2799519 130.1978847  82.7432982 130.2349856 129.0285992  83.7038328
 124.0311278 125.7467605  78.8853879 123.1061774 125.6143819  79.0931571
 124.2795691 126.5261824  79.3823822 127.8012684 123.2894487  72.1698011
 127.6812309 123.7351538  73.0083492 127.1065272 123.6379805  71.6111550
 121.3920089 125.3900879  79.7197668 121.5212470 125.6435358  80.6337080
 120.7117540 125.9828587  79.4002323 125.5619576 136.0598129  75.8188143
 125.4843606 137.0105954  75.8976623 124.9581220 135.7144001  76.4763069
 135.8457587 120.0152787  82.3092486 135.2031967 120.3085320  81.6632281
 135.3412515 119.9005707  83.1145683 133.4997750 123.7615960  72.9978345
 134.4115606 123.9943347  72.8226043 132.9907397 124.3453004  72.4353424
 126.3083178 126.0411447  88.0367477 127.0497863 126.5796491  87.7602300
 125.6020164 126.6677736  88.1939028 131.7838518 128.1840588  86.6339638
 132.1921874 127.7422998  85.8894270 131.0615779 127.6093215  86.8873831
 128.1369588 123.1213195  84.0073195 128.9830783 123.5452608  84.1507844
 128.0768226 122.4646819  84.7011758 132.1067333 128.7441779  80.3891927
 131.4776195 128.9087493  79.6867995 131.7192995 129.1583388  81.1602891
 135.9856564 129.6796216  77.7436291 135.3007603 130.0595118  77.1933324
 136.0700414 130.2891543  78.4768238 133.2407496 127.3256175  84.3431634
 133.4524391 127.9687935  83.6666015 133.1937244 126.4918492  83.8753564
 127.6595294 128.4816187  77.6542012 128.1233640 128.7603890  76.8646634
 127.3952093 127.5799631  77.4715103 124.5519375 128.0287668  80.5921775
 125.1220733 128.4574937  79.9539260 125.1427487 127.7470253  81.2905961
 126.5964180 124.6039339  74.4631577 127.2988224 125.0560383  74.9305503
 126.2644809 123.9623158  75.0911470 120.3389514 122.8622892  79.7648711
 119.5488568 123.1180420  79.2888821 120.8300762 123.6771230  79.8700751
 134.3553324 130.2028131  82.5153992 135.1770768 129.8008318  82.2336673
 134.3515727 130.0996365  83.4670107 122.2904260 123.2267471  76.7232187
 121.4935423 123.3386165  77.2415683 122.0629852 123.5654123  75.8573078
 128.1209927 129.7512174  84.6714702 128.1854360 130.2132581  85.5072874
 127.4120851 129.1209539  84.7997012 142.4459317 126.5466879  78.8638963
 141.6923025 125.9774277  78.7082967 142.5806858 126.5129544  79.8109598
 127.8357945 131.4180282  74.5393682 127.7003620 132.2631817  74.9678530
 128.3767758 131.6199559  73.7759616 121.2887342 128.9355720  75.1121607
 121.8011863 129.7298970  75.2627172 121.9410055 128.2382010  75.0455209
 123.0982227 132.0521476  77.1944361 123.2748856 132.9739441  77.0065345
 123.8939061 131.7379895  77.6238740 122.3834584 124.0986108  87.0706524
 122.2688099 123.1971365  87.3713623 121.5279101 124.3449805  86.7191340
 129.4626421 132.0403848  88.6694024 129.0190276 131.2540227  88.3514929
 130.1243635 132.2282999  88.0037915 124.2213543 133.5699650  83.1954703
 124.7720968 133.4416713  82.4231697 123.3825019 133.8694539  82.8449596
 131.5607660 132.3206648  86.6975426 131.5426135 133.1415529  86.2055695
 132.4827580 132.1960723  86.9225567 128.0180714 129.8350778  87.5398934
 128.5509051 129.0739066  87.3098242 127.4894795 129.5424429  88.2823089
 131.1500691 124.9319455  71.5765011 130.6347315 125.7024059  71.8153398
 130.8778000 124.2584591  72.1998072 136.1234966 127.6851809  73.5118184
 135.3464408 127.3462969  73.0673346 136.8026446 127.6904432  72.8373149
 130.9386995 122.8046547  73.4024792 130.6337130 123.1192696  74.2534935
 131.8917437 122.8827967  73.4452125 129.3833426 128.9636770  75.0517746
 128.8554788 128.2289530  74.7390984 128.8820929 129.7411446  74.8057714
 134.3626272 127.1585791  80.1684792 133.7049947 127.8485052  80.2564921
 135.1666672 127.5482222  80.5118779 124.1152154 119.6256436  77.4124358
 124.6895906 119.4031618  76.6797551 124.7023136 119.6945131  78.1652959
 133.1731731 125.5130163  78.2188734 133.6863613 126.1460155  78.7210444
 133.8232955 124.9131359  77.8532094 124.4421741 121.6560897  71.4320243
 123.6059053 121.9935584  71.7529518 124.3026511 121.5209877  70.4947380
 126.4174822 116.4997685  76.1399427 125.7639234 116.1846702  75.5156042
 126.3755296 115.8773426  76.8659250 127.5286027 126.7816980  68.0552719
 126.6213088 126.5506234  68.2543868 128.0257059 125.9854600  68.2426701
 130.4354105 135.4914488  70.9749405 129.7615804 135.7946184  71.5834363
 130.8219927 136.2943568  70.6254862 130.4347610 124.3871034  75.5949755
 131.1819429 124.8992432  75.2856877 130.7039199 124.0655087  76.4554148
 128.7074260 126.8829575  72.5776709 127.7985479 126.5988608  72.6749179
 128.7369344 127.3028654  71.7180016 133.9393527 130.4936165  76.3467877
 133.4855855 129.6527075  76.4033067 133.3087494 131.1297563  76.6842657
 132.3826467 132.3312661  77.2817695 132.6749441 132.8917718  76.5630061
 132.8925087 132.6241222  78.0370854 132.9838074 114.2004403  78.1710313
 133.2896951 113.3401766  77.8836229 133.7090679 114.7922023  77.9709307
 127.2559154 124.4958196  78.6786505 127.3107764 123.5432032  78.6028981
 126.4450356 124.6517635  79.1627803 128.4050348 128.4238319  69.9164788
 127.9669778 127.7074178  69.4570425 129.1460789 128.6514434  69.3549879
 125.1951514 123.1135256  76.4376883 124.3819380 123.4129426  76.8442076
 125.6910508 122.7190944  77.1551366 127.3460092 133.1093012  78.3711148
 127.3036271 133.3353859  77.4419680 128.2622791 132.8756387  78.5196949
 130.7925726 123.5777080  85.2691777 131.1475113 123.8048553  86.1286243
 131.4397857 123.9095457  84.6469033 136.5223463 126.6995516  75.9741106
 136.3841361 126.8897112  75.0462296 136.1659681 127.4614899  76.4309157
 136.5492842 128.7672043  80.9852378 136.9829349 128.6747332  81.8335432
 137.2624423 128.7429543  80.3472394 125.4625893 129.9856041  78.1673111
 126.2566491 129.4906362  77.9655686 124.7517585 129.4573905  77.8040816
 130.2820737 132.3674137  82.5185478 130.3357759 132.9365073  83.2863194
 129.4135518 132.5376022  82.1539516 121.7708656 124.1299123  74.2432864
 120.8406244 124.0683579  74.4602826 121.8666128 123.6075076  73.4469505
 121.6894205 120.6553936  76.8311105 121.9501022 121.5699269  76.7220266
 122.5111377 120.1878379  76.9807718 137.4108392 128.8095744  83.5185263
 137.6044282 129.7141554  83.7644538 137.3109010 128.3503163  84.3523848
 132.4723500 128.9602486  89.0926144 132.3209007 128.7313038  88.1756228
 132.4628180 129.9173088  89.1057489 129.2408837 126.5334399  84.0772410
 130.1700897 126.6845559  83.9041378 128.8199867 126.6218420  83.2221057
 128.0397169 130.5585063  81.8470948 127.9008254 130.1903848  82.7196886
 127.2511765 131.0732703  81.6754906 128.6345321 135.6594160  73.1896484
 128.8097076 135.1882203  74.0042107 127.9478109 136.2859926  73.4177745
 129.5902384 129.9366666  79.2359786 129.2552216 129.8967436  80.1317436
 129.0906329 129.2711382  78.7630196 132.5261575 127.2822701  69.5096845
 131.9090746 126.5569529  69.4129898 132.0578064 128.0432061  69.1663920
 126.1928928 125.0554256  84.2496047 126.9028547 124.4147448  84.2082665
 126.1498237 125.3067150  85.1722227 134.1815707 131.9921609  87.1702626
 134.1228253 131.3080829  86.5033209 134.5835225 132.7340599  86.7183252
 123.2006406 138.8083523  79.9636345 123.4403004 139.4402047  80.6415363
 122.3575602 138.4571563  80.2501704 124.3160121 121.5008125  68.6318150
 123.4389588 121.3796926  68.2680396 124.7917874 120.7094203  68.3797038
 134.1833114 129.9561193  85.4016605 133.2959893 129.6187115  85.5243004
 134.7531665 129.2244224  85.6385371 127.7134268 134.6162645  82.3677849
 127.6404439 135.4217617  82.8797153 127.2711661 134.8154611  81.5425870
 127.5024047 133.8534415  75.8780670 126.7191569 134.3956095  75.9718895
 128.2016793 134.3708395  76.2774911 138.6650455 125.3669410  80.1633167
 138.6540331 126.2494126  79.7927100 137.7967834 125.0140961  79.9687704
 130.1732951 134.5149479  84.5236007 130.8860923 135.1496944  84.4511909
 129.6822980 134.6113345  83.7076009 131.8950478 128.4200732  76.0953299
 130.9606757 128.5402194  75.9258003 132.0727147 127.5173199  75.8313309
 135.2823030 124.2618051  76.6303333 135.7483482 125.0946043  76.5563636
 135.7330530 123.7963033  77.3348592 125.2244865 132.2643923  85.3441578
 125.9254324 132.8980406  85.4970972 124.7539980 132.6058654  84.5837217
 133.3499261 130.6061872  73.6289485 133.6259105 130.4918467  74.5383359
 132.4803759 130.2079357  73.5901658 133.0246151 124.8188530  83.1694128
 132.3717601 125.0664438  82.5146581 133.4026531 124.0052668  82.8356606
 129.9853325 134.8548223  77.2722299 130.1675719 134.0369879  77.7350051
 130.8086311 135.0715916  76.8347189 130.3195490 133.7816408  74.5337347
 130.8483257 133.2708863  73.9207509 130.5823710 133.4658939  75.3982880
 129.0733724 125.5608341  89.6560166 128.3974361 125.4602470  90.3262541
 129.8961358 125.4047555  90.1196163 120.8212583 131.7980278  82.2772681
 121.4066020 131.0523966  82.4100585 120.6237421 132.1084234  83.1609345
 123.6751238 134.8331525  77.2935123 123.0061613 135.3177653  76.8099163
 123.5364108 135.0800746  78.2078502 127.8156507 136.8675269  83.8917782
 128.3674815 137.0306890  84.6566867 128.1562700 137.4579706  83.2197806
 132.6667381 131.6936526  89.7466436 133.2107285 132.3066484  89.2521391
 132.0854226 132.2516105  90.2633449 119.0438815 123.0949980  74.0731055
 119.3392256 122.1860658  74.0198109 118.1426851 123.0737719  73.7512058
 130.9524894 134.8157244  80.8781464 130.8276033 134.0146984  80.3692409
 131.6103985 135.3103437  80.3895434 122.5733062 121.1705977  80.0558604
 121.8519648 121.7841944  79.9166077 123.3626318 121.7063741  79.9775250
 133.0159802 132.6166264  82.5061014 132.0690138 132.4971615  82.4339340
 133.3642575 131.7288762  82.5887275 120.7726657 120.7764078  74.1970380
 120.4439363 119.8961457  74.0145486 121.1266027 120.7211746  75.0846770
 130.0206236 132.4118980  78.7065366 129.8731198 131.4835688  78.8872936
 130.8459729 132.4339071  78.2222441 123.8868480 121.0637048  74.5645858
 124.2264552 121.5922969  73.8424467 124.3340600 121.4017454  75.3404425
 133.6240357 133.2347539  79.7930239 134.5486905 133.0290400  79.6554690
 133.4555661 132.9863940  80.7019580 125.8736627 119.5611669  72.7639151
 126.5944990 119.9392922  72.2602868 125.2501931 120.2800546  72.8674129
 130.0167750 120.2656818  73.6997483 130.2331364 121.1481456  73.3986311
 129.5361817 119.8743031  72.9703125 124.7566971 123.2242531  80.2768228
 124.6111552 123.5382834  81.1692509 124.2792175 123.8427432  79.7239126
 133.4135674 133.7533207  75.1492330 133.5872551 133.1879629  74.3966183
 133.9064565 134.5534101  74.9671820 119.2312633 125.7647876  83.2155889
 118.6866102 126.5407684  83.3476163 120.1091983 126.1118680  83.0575010
 126.0200250 119.0959460  75.5936688 126.1416161 118.1676106  75.7927575
 125.7302293 119.1098146  74.6815003 139.2675065 126.5169630  76.7682630
 139.7106211 125.7676955  76.3701753 138.3901575 126.5079766  76.3856362
 134.4010846 133.0699971  72.2489228 135.0961751 133.6906664  72.4676543
 134.7433996 132.2195322  72.5241606 136.3002269 130.5199677  73.7776559
 136.8253593 130.8586949  73.0525879 136.2124622 129.5846692  73.5939694
 127.9622318 134.4333750  85.9066436 128.2709444 134.1882897  86.7789135
 128.7597800 134.6380389  85.4185306 127.9842930 136.5871660  78.1371812
 127.5447920 136.0948039  78.8304669 128.7351047 136.0444627  77.8963888
 120.4635269 132.7783201  78.1396441 121.2893289 132.4786973  77.7595084
 120.1129321 132.0090823  78.5886229 125.4316802 132.1309669  80.2094114
 124.8096811 131.4680374  79.9096342 126.1021669 132.1570801  79.5267762
 118.6643874 130.6969527  79.0985374 117.8275782 130.2691701  78.9169375
 118.6367520 130.8901970  80.0356165 135.9896175 131.1532580  89.0827757
 135.1991719 131.1356719  88.5432257 135.7529530 131.6920874  89.8376794
 136.1094050 128.0025047  86.3960486 136.1592055 127.8375054  87.3376009
 136.0007974 127.1352306  86.0058367 124.9930309 130.6813592  73.6852575
 125.1418429 131.3649057  73.0319247 125.7996753 130.6618682  74.2002030
 133.3997813 123.9855975  87.7119792 134.3007676 123.8462439  87.4203790
 133.4745787 124.1510429  88.6517970 137.6112247 130.4221988  86.6402507
 137.3197056 130.7851969  87.4765968 136.9984379 129.7088996  86.4615839
 138.8107930 127.9874868  79.1605078 139.6454821 128.4264672  79.3242638
 138.9467058 127.5113521  78.3413323 135.8599435 125.5454603  85.1082565
 136.3353557 125.7382249  84.3001417 134.9365001 125.6013789  84.8625949
 122.7482942 126.7078770  74.6913644 122.5028984 125.8041100  74.8893854
 122.9178857 126.7095920  73.7493122 122.0178590 122.4407127  72.1899805
 121.3247835 122.5151482  71.5339841 121.7730342 121.6767471  72.7121322
 128.4925715 133.1761723  71.1564322 127.9199682 133.7951910  70.7034794
 129.0658508 133.7261084  71.6904244 131.7122974 133.4598873  72.2872904
 132.6453648 133.3944435  72.4905780 131.6246187 134.2955140  71.8287437
 134.3410991 132.7764743  69.2476852 134.2624623 132.4424607  70.1412610
 135.1620658 133.2686511  69.2468324 137.0389182 125.6426482  82.4553171
 137.0065502 124.7042483  82.6412854 137.6489806 125.7210519  81.7218995
 128.8772513 124.5122535  68.4980375 129.8231618 124.3828744  68.5668793
 128.4986758 123.7737197  68.9749803 137.1883671 122.4337526  82.5011454
 136.6722719 121.6495983  82.3141383 138.0723619 122.1056243  82.6657973
 134.8494398 116.1778541  78.4607266 134.6519219 115.8693630  79.3450598
 135.4594103 116.9040180  78.5905196 142.8565732 126.7042489  81.5959207
 143.5869121 126.4427777  82.1566911 142.2472678 125.9671211  81.6361275
 140.9381029 124.8450352  82.1933659 140.2114193 124.7106317  81.5850150
 140.5228316 125.1527181  82.9990377 128.7611206 128.5640282  89.9581032
 129.6814215 128.7418881  90.1521078 128.7260789 127.6196327  89.8060731
 127.0615430 122.4372512  68.4335260 126.1546886 122.1405625  68.5097973
 127.3391411 122.1402330  67.5669546 121.7573278 126.4741316  82.6003813
 121.9759288 127.4058424  82.6191847 122.1699052 126.1149291  83.3858617
 128.6777496 116.9809402  74.5879501 127.8678224 116.6356487  74.9634747
 129.3661913 116.6716945  75.1767113 130.6068044 116.0587448  76.2103798
 131.1599083 116.4782902  76.8693821 130.8438131 115.1323196  76.2526754
 126.6301144 122.0474522  91.9906562 126.5297870 122.9968879  91.9218653
 126.4122686 121.7192761  91.1182632 125.8314215 119.2959447  68.5747239
 126.6933379 119.6214345  68.8343056 126.0164559 118.5090943  68.0620305
 117.8481631 127.3781787  80.8527428 117.1545102 126.9635740  80.3397382
 118.5954622 127.4202323  80.2560847 133.9846851 118.1687974  75.7182462
 133.4045520 118.8272778  75.3360514 133.7182784 117.3465318  75.3069879
 126.4932414 125.4771661  90.8071623 126.0099495 126.2772021  91.0135512
 126.5793353 125.4879606  89.8539067 122.4205751 129.3676196  82.8440057
 123.3749005 129.3360138  82.7769989 122.2218275 128.9066819  83.6590283
 123.0105133 127.9377312  85.4110855 123.8298022 128.4321390  85.4345692
 123.2841941 127.0209280  85.3828422 132.7671729 120.3288064  74.7738810
 131.8797584 120.6137715  74.5559005 133.1825718 120.1681827  73.9266087
 136.1186266 120.3534585  78.4893149 136.8946656 120.8431037  78.7617766
 135.3934400 120.7792639  78.9465019 138.5558824 121.0662204  79.5467090
 139.1503315 120.8257940  78.8360398 138.6285408 120.3469335  80.1740626
 120.7755980 134.9095815  79.8610255 120.6410448 134.1496216  79.2948253
 120.3588042 135.6336715  79.3939044 131.9114943 130.0932739  68.8686830
 132.6150793 130.2982741  69.4844486 131.1877592 130.6609500  69.1335914
 132.7412753 125.8442600  74.9889100 132.6847955 126.3011151  74.1496733
 133.2941096 125.0833284  74.8111943 136.5517559 121.6332332  75.8139220
 136.2954493 121.2328967  76.6447428 135.9270427 122.3476126  75.6889359
 140.8629897 124.3728405  78.3210511 140.3029455 124.4421594  79.0942073
 140.2573400 124.1969390  77.6010008 123.9325106 135.8065132  80.0728698
 123.8157490 136.7510565  79.9707388 123.1117552 135.5038694  80.4614497
 133.8201640 130.5315268  70.9185290 134.6547244 130.0996466  70.7362765
 133.6585983 130.3597281  71.8462185 133.4747532 127.0347381  72.2841630
 133.4196336 126.8691653  71.3430074 132.8493588 127.7423414  72.4403819
 130.7893440 129.3396293  91.6095192 131.6584599 129.5136945  91.2481827
 130.3100191 130.1590710  91.4870922 126.7843658 116.5355490  71.8626948
 126.7722328 117.4797330  72.0195219 127.6767080 116.3525635  71.5686409
 124.9579620 136.4593394  83.2884626 125.8606867 136.4917004  83.6051121
 124.7316990 135.5293845  83.3030962 126.7133222 135.2124380  79.9494705
 125.7628853 135.2126242  79.8359077 127.0165708 134.4657115  79.4330739
 130.5995777 113.1298267  76.1172885 129.8328173 112.5756753  76.2629567
 131.0106482 113.2020135  76.9787036 142.4485915 141.0484919  81.0140467
 143.0864325 140.9291666  80.3103807 142.3306758 141.9965763  81.0728419
 139.2575622 141.0012347  80.9501992 138.9194133 140.8853412  80.0622527
 140.1265390 140.6003512  80.9302998 135.1162437 142.8547823  76.9398883
 134.5527302 142.7637760  76.1715170 135.0014832 142.0347728  77.4201375
 139.7395405 142.1547199  86.9088197 139.7284045 141.7599997  86.0368701
 139.9016044 141.4213271  87.5021969 132.6626869 144.3499015  79.7783103
 133.4548161 144.0089840  79.3629402 132.9023519 144.4593990  80.6985256
 140.6961996 146.5218791  72.2513348 140.0449976 147.1072872  71.8647361
 141.4906359 147.0524986  72.3108385 134.6217623 143.6107928  72.6500482
 135.3948499 143.0636915  72.5113358 134.9743022 144.4752178  72.8614943
 136.4602666 144.9384311  85.8567381 136.1692532 145.8429941  85.7414048
 137.0959650 144.9800838  86.5711451 137.3858873 142.3161159  82.4468741
 137.9822445 142.0917181  81.7325704 137.4433844 141.5745905  83.0494189
 136.9583901 139.7700594  70.2818932 137.2109422 139.2482116  69.5202395
 136.0208460 139.6066740  70.3845615 142.0027184 138.7736373  78.0893675
 142.7890273 138.3555796  77.7384092 142.2665888 139.6782465  78.2575323
 142.1737261 144.2109223  72.7882332 141.5383094 144.2843850  73.5003237
 141.8434668 144.8002822  72.1101411 147.4035611 138.7111606  78.9926654
 148.1360783 138.1410823  79.2264483 146.6474967 138.3233206  79.4333159
 136.6780190 141.6728700  72.4843307 136.5616448 140.9973604  73.1524391
 136.7882450 141.1861074  71.6675460 139.0211731 141.1338847  76.1889996
 138.6569938 140.6069468  76.9002918 139.8778847 140.7437316  76.0156481
 144.9261031 132.4233180  83.4521262 144.5944356 133.2928591  83.2282477
 144.3306645 132.1069464  84.1315293 138.6617218 136.1628747  71.1851345
 138.8291620 137.0308984  71.5521816 138.4714387 136.3256029  70.2612634
 141.4192551 144.6245726  82.8517175 141.1193274 145.5270765  82.7432982
 141.0743610 144.3577909  83.7038328 134.8705032 141.0759523  78.8853879
 133.9455529 140.9435737  79.0931571 135.1189446 141.8553742  79.3823822
 144.8189695 137.1428266  80.5314612 143.9106572 137.0743675  80.2373373
 144.7677290 137.6200211  81.3596438 138.6406439 138.6186405  72.1698011
 138.5206064 139.0643455  73.0083492 137.9459027 138.9671722  71.6111550
 132.2313843 140.7192796  79.7197668 132.3606225 140.9727275  80.6337080
 131.5511295 141.3120504  79.4002323 138.8930560 138.5617912  88.4749510
 138.1163895 139.1211832  88.4652374 139.5321124 139.0474695  88.9964380
 146.6851341 135.3444705  82.3092486 146.0425721 135.6377238  81.6632281
 146.1806270 135.2297625  83.1145683 144.3391505 139.0907878  72.9978345
 145.2509361 139.3235265  72.8226043 143.8301152 139.6744922  72.4353424
 137.1476933 141.3703365  88.0367477 137.8891617 141.9088409  87.7602300
 136.4413918 141.9969654  88.1939028 142.6232272 143.5132506  86.6339638
 143.0315628 143.0714916  85.8894270 141.9009534 142.9385133  86.8873831
 138.9763342 138.4505112  84.0073195 139.8224538 138.8744526  84.1507844
 138.9161980 137.7938737  84.7011758 142.9461087 144.0733696  80.3891927
 142.3169949 144.2379410  79.6867995 142.5586749 144.4875306  81.1602891
 142.1262788 136.1109481  85.6654369 141.8823720 136.8651541  85.1288644
 142.4022718 136.4894828  86.5001616 144.0801251 142.6548093  84.3431634
 144.2918146 143.2979853  83.6666015 144.0330999 141.8210410  83.8753564
 141.6827479 135.2665914  81.2468206 140.8211959 135.5647167  81.5384944
 141.7089914 135.4836313  80.3149239 138.4989049 143.8108104  77.6542012
 138.9627394 144.0895807  76.8646634 138.2345847 142.9091549  77.4715103
 135.3913130 143.3579586  80.5921775 135.9614487 143.7866854  79.9539260
 135.9821242 143.0762171  81.2905961 137.4357935 139.9331257  74.4631577
 138.1381978 140.3852300  74.9305503 137.1038563 139.2915076  75.0911470
 135.8838296 138.5243013  88.8382787 135.2536957 139.2059294  89.0718183
 135.7774384 138.4126095  87.8935925 131.1783269 138.1914809  79.7648711
 130.3882323 138.4472338  79.2888821 131.6694516 139.0063147  79.8700751
 145.1947078 145.5320049  82.5153992 146.0164522 145.1300236  82.2336673
 145.1909481 145.4288283  83.4670107 133.1298014 138.5559389  76.7232187
 132.3329178 138.6678083  77.2415683 132.9023607 138.8946041  75.8573078
 138.9603682 145.0804092  84.6714702 139.0248114 145.5424499  85.5072874
 138.2514606 144.4501457  84.7997012 129.4620972 138.4445300  82.1963701
 129.7129010 139.3292310  82.4621277 129.9980520 138.2649901  81.4238793
 138.6751700 146.7472199  74.5393682 138.5397374 147.5923735  74.9678530
 139.2161512 146.9491477  73.7759616 135.1619039 132.8263779  91.2008038
 134.7685985 132.2729978  91.8755682 135.9785180 133.1374358  91.5914555
 132.1281097 144.2647637  75.1121607 132.6405618 145.0590888  75.2627172
 132.7803810 143.5673928  75.0455209 133.9375982 147.3813394  77.1944361
 134.1142610 148.3031358  77.0065345 134.7332815 147.0671813  77.6238740
 138.0787000 134.2421658  88.7928294 138.8196714 134.8428811  88.7132757
 138.3104923 133.4999296  88.2346337 133.2228338 139.4278026  87.0706524
 133.1081853 138.5263283  87.3713623 132.3672856 139.6741722  86.7191340
 140.3020176 147.3695766  88.6694024 139.8584030 146.5832144  88.3514929
 140.9637390 147.5574916  88.0037915 135.0607297 148.8991567  83.1954703
 135.6114722 148.7708631  82.4231697 134.2218773 149.1986456  82.8449596
 138.8574468 145.1642695  87.5398934 139.3902805 144.4030983  87.3098242
 138.3288549 144.8716347  88.2823089 142.0244163 130.2702761  83.0692576
 141.6808433 131.1604403  82.9931686 142.3923126 130.0804419  82.2062161
 130.0930014 142.5936292  75.8881178 130.9305236 143.0033300  75.6714886
 130.2708281 141.6535734  75.8581372 141.9894446 140.2611372  71.5765011
 141.4741069 141.0315977  71.8153398 141.7171754 139.5876508  72.1998072
 139.5741557 135.1061073  76.6350249 138.7183153 134.7167923  76.4555888
 139.9868509 135.1853034  75.7750035 141.1040704 132.6407416  81.0341809
 140.6005499 132.6037552  80.2209614 141.3971310 133.5500159  81.0938466
 137.3483589 132.7246146  80.0407991 138.2136586 132.5288955  79.6813880
 137.4161098 132.4956498  80.9677348 146.9628720 143.0143727  73.5118184
 146.1858163 142.6754886  73.0673346 147.6420201 143.0196350  72.8373149
 141.7780749 138.1338464  73.4024792 141.4730885 138.4484614  74.2534935
 142.7311191 138.2119884  73.4452125 140.2227181 144.2928688  75.0517746
 139.6948542 143.5581447  74.7390984 139.7214684 145.0703364  74.8057714
 145.2020027 142.4877708  80.1684792 144.5443701 143.1776970  80.2564921
 146.0060426 142.8774140  80.5118779 134.9545909 134.9548354  77.4124358
 135.5289660 134.7323536  76.6797551 135.5416891 135.0237049  78.1652959
 144.0125486 140.8422081  78.2188734 144.5257367 141.4752073  78.7210444
 144.6626710 140.2423276  77.8532094 135.2815496 136.9852815  71.4320243
 134.4452808 137.3227502  71.7529518 135.1420265 136.8501795  70.4947380
 137.2568576 131.8289603  76.1399427 136.6032989 131.5138620  75.5156042
 137.2149050 131.2065343  76.8659250 138.3679781 142.1108898  68.0552719
 137.4606843 141.8798151  68.2543868 138.8650813 141.3146517  68.2426701
 140.4906317 138.3171536  80.4647075 139.5728878 138.5386483  80.3068763
 140.9066460 138.3917847  79.6058782 141.2741364 139.7162952  75.5949755
 142.0213183 140.2284349  75.2856877 141.5432954 139.3947005  76.4554148
 139.5468015 142.2121493  72.5776709 138.6379234 141.9280526  72.6749179
 139.5763098 142.6320571  71.7180016 144.7787282 145.8228082  76.3467877
 144.3249609 144.9818992  76.4033067 144.1481249 146.4589481  76.6842657
 143.7220201 136.7520068  77.5768544 142.9842958 136.2397455  77.9078787
 143.9746975 136.3120450  76.7651821 143.8231829 129.5296320  78.1710313
 144.1290706 128.6693684  77.8836229 144.5484434 130.1213941  77.9709307
 130.1156185 139.9327007  76.5591911 129.9180585 139.3396368  75.8342978
 129.5602849 139.6279217  77.2767850 138.0952909 139.8250113  78.6786505
 138.1501518 138.8723950  78.6028981 137.2844111 139.9809553  79.1627803
 139.2444102 143.7530237  69.9164788 138.8063532 143.0366095  69.4570425
 139.9854543 143.9806351  69.3549879 136.0345268 138.4427173  76.4376883
 135.2213134 138.7421344  76.8442076 136.5304263 138.0482862  77.1551366
 138.1853846 148.4384930  78.3711148 138.1430025 148.6645776  77.4419680
 139.1016545 148.2048305  78.5196949 141.6319480 138.9068998  85.2691777
 141.9868868 139.1340471  86.1286243 142.2791611 139.2387374  84.6469033
 147.3617217 142.0287434  75.9741106 147.2235116 142.2189030  75.0462296
 147.0053436 142.7906816  76.4309157 135.5259343 136.0145529  82.0538118
 136.1658723 135.8734288  81.3561082 134.6936874 135.7280042  81.6776720
 136.3019647 145.3147959  78.1673111 137.0960246 144.8198279  77.9655686
 135.5911340 144.7865822  77.8040816 141.1214492 147.6966055  82.5185478
 141.1751514 148.2656991  83.2863194 140.2529273 147.8667940  82.1539516
 132.6102411 139.4591041  74.2432864 131.6799999 139.3975496  74.4602826
 132.7059883 138.9366994  73.4469505 132.5287960 135.9845854  76.8311105
 132.7894777 136.8991187  76.7220266 133.3505132 135.5170296  76.9807718
 134.0012885 137.3983611  84.0009930 134.6735938 137.1900973  83.3522579
 133.1742672 137.2005697  83.5615162 139.9038457 134.0245552  86.0175591
 139.2566372 134.7235501  85.9240067 140.6739472 134.4581696  86.3851839
 143.3117255 144.2894404  89.0926144 143.1602761 144.0604956  88.1756228
 143.3021934 145.2465005  89.1057489 140.0802591 141.8626317  84.0772410
 141.0094651 142.0137476  83.9041378 139.6593621 141.9510338  83.2221057
 138.8790923 145.8876981  81.8470948 138.7402009 145.5195766  82.7196886
 138.0905519 146.4024621  81.6754906 140.4296138 145.2658584  79.2359786
 140.0945971 145.2259354  80.1317436 139.9300084 144.6003300  78.7630196
 134.4040382 140.6726214  84.7612367 134.2660180 139.9406453  85.3623906
 135.3145306 140.5835114  84.4796555 143.3655330 142.6114618  69.5096845
 142.7484501 141.8861446  69.4129898 142.8971818 143.3723978  69.1663920
 137.0322683 140.3846173  84.2496047 137.7422301 139.7439365  84.2082665
 136.9891991 140.6359068  85.1722227 135.7451617 137.3711391  86.0691686
 135.2088974 136.9202130  86.7213282 135.1568325 137.5057300  85.3262150
 135.1553876 136.8300042  68.6318150 134.2783342 136.7088843  68.2680396
 135.6311629 136.0386121  68.3797038 145.0226869 145.2853110  85.4016605
 144.1353648 144.9479032  85.5243004 145.5925420 144.5536142  85.6385371
 126.6756016 141.6177202  78.7259657 127.3627056 141.3038932  78.1380672
 126.5204145 142.5218567  78.4526908 131.4790738 136.5067399  83.1544680
 131.3948927 135.8993068  82.4195090 130.6573445 136.9976417  83.1554177
 138.3417802 149.1826333  75.8780670 137.5585324 149.7248013  75.9718895
 139.0410547 149.7000312  76.2774911 141.6514452 134.9920962  78.5214876
 142.1483152 134.2390925  78.2015946 140.8801433 135.0285279  77.9558085
 149.5044209 140.6961328  80.1633167 149.4934086 141.5786043  79.7927100
 148.6361589 140.3432879  79.9687704 142.7344233 143.7492650  76.0953299
 141.8000511 143.8694112  75.9258003 142.9120901 142.8465116  75.8313309
 138.2349421 137.1338345  78.2486560 137.8647208 136.5809386  78.9367466
 138.7308513 136.5296479  77.6961560 146.1216784 139.5909969  76.6303333
 146.5877236 140.4237960  76.5563636 146.5724285 139.1254950  77.3348592
 136.0638619 147.5935840  85.3441578 136.7648079 148.2272323  85.4970972
 135.5933734 147.9350572  84.5837217 144.1893015 145.9353790  73.6289485
 144.4652859 145.8210385  74.5383359 143.3197514 145.5371275  73.5901658
 144.0933447 131.9590556  80.6694234 143.1796527 132.1894783  80.8376441
 144.5226548 132.0429000  81.5208267 143.8639905 140.1480448  83.1694128
 143.2111356 140.3956355  82.5146581 144.2420285 139.3344586  82.8356606
 139.9127478 140.8900259  89.6560166 139.2368115 140.7894388  90.3262541
 140.7355112 140.7339473  90.1196163 131.6606337 147.1272195  82.2772681
 132.2459774 146.3815883  82.4100585 131.4631176 147.4376152  83.1609345
 134.5144993 150.1623443  77.2935123 133.8455368 150.6469570  76.8099163
 134.3757862 150.4092663  78.2078502 126.2523992 139.6977796  80.9977124
 126.2908092 139.1641386  81.7914242 125.7464285 139.1713001  80.3788101
 133.6314754 134.5442336  84.4939666 133.6956081 135.4057167  84.0817064
 133.5681875 133.9316338  83.7612025 133.1067027 136.6165469  88.1412700
 133.7339066 136.2342546  88.7550225 132.2494946 136.3979671  88.5068393
 129.8832570 138.4241898  74.0731055 130.1786011 137.5152576  74.0198109
 128.9820605 138.4029637  73.7512058 133.4126817 136.4997894  80.0558604
 132.6913402 137.1133862  79.9166077 134.2020072 137.0355659  79.9775250
 136.2153130 133.8352321  86.3299256 136.7387532 134.0814617  87.0925565
 135.9965463 134.6672356  85.9102393 131.6120411 136.1055995  74.1970380
 131.2833117 135.2253374  74.0145486 131.9659782 136.0503664  75.0846770
 140.8599990 147.7410898  78.7065366 140.7124953 146.8127606  78.8872936
 141.6853484 147.7630989  78.2222441 134.7262234 136.3928965  74.5645858
 135.0658307 136.9214886  73.8424467 135.1734355 136.7309371  75.3404425
 137.4205675 134.7766016  84.0148926 137.0802496 133.9773829  84.4169606
 136.7144682 135.0767727  83.4425759 138.0722147 131.8615328  82.4676249
 138.8948216 131.3875807  82.3455140 138.3160211 132.6405812  82.9674936
 136.7130382 134.8903587  72.7639151 137.4338744 135.2684840  72.2602868
 136.0895686 135.6092464  72.8674129 140.8561504 135.5948736  73.6997483
 141.0725119 136.4773374  73.3986311 140.3755572 135.2034949  72.9703125
 135.5960726 138.5534449  80.2768228 135.4505307 138.8674752  81.1692509
 135.1185929 139.1719349  79.7239126 137.4557109 135.5436997  80.3249117
 137.4418677 134.6478090  79.9881415 138.1729537 135.5507661  80.9587403
 139.3083239 135.9774337  82.3702245 139.0501017 136.8991408  82.3686575
 138.7768280 135.5804772  83.0602709 130.0706388 141.0939793  83.2155889
 129.5259856 141.8699601  83.3476163 130.9485738 141.4410598  83.0575010
 136.8594005 134.4251377  75.5936688 136.9809916 133.4968023  75.7927575
 136.5696047 134.4390063  74.6815003 139.7285195 132.1106288  78.7303407
 139.7506892 132.1745621  77.7755387 140.1453254 131.2710796  78.9243914
 150.1068819 141.8461547  76.7682630 150.5499965 141.0968872  76.3701753
 149.2295330 141.8371684  76.3856362 130.8572410 140.2209690  86.1086046
 130.1154146 140.3692325  86.6950676 130.5365154 140.4817955  85.2452795
 131.3029024 148.1075118  78.1396441 132.1287043 147.8078890  77.7595084
 130.9523076 147.3382741  78.5886229 136.2710557 147.4601587  80.2094114
 135.6490566 146.7972292  79.9096342 136.9415424 147.4862718  79.5267762
 129.5037629 146.0261445  79.0985374 128.6669537 145.5983619  78.9169375
 129.4761274 146.2193888  80.0356165 136.3435084 135.9383375  89.8026620
 136.3923240 136.8145497  89.4204390 136.8857598 135.3960768  89.2298263
 146.9487805 143.3316964  86.3960486 146.9985810 143.1666972  87.3376009
 146.8401728 142.4644223  86.0058367 135.8324064 146.0105510  73.6852575
 135.9812184 146.6940974  73.0319247 136.6390507 145.9910600  74.2002030
 144.2391567 139.3147892  87.7119792 145.1401430 139.1754357  87.4203790
 144.3139542 139.4802347  88.6517970 138.5734373 136.6914747  86.5572979
 137.7037682 136.9848313  86.2855567 138.8093853 137.2755192  87.2780242
 146.6993190 140.8746520  85.1082565 147.1747312 141.0674167  84.3001417
 145.7758755 140.9305706  84.8625949 133.5876697 142.0370688  74.6913644
 133.3422739 141.1333018  74.8893854 133.7572611 142.0387838  73.7493122
 141.2773406 132.9094364  84.0738399 141.7955350 133.6455391  83.7484888
 140.9228539 133.2158357  84.9085158 132.8572344 137.7699045  72.1899805
 132.1641589 137.8443400  71.5339841 132.6124096 137.0059389  72.7121322
 141.5286001 129.3294646  79.5939296 141.8087754 128.6617836  80.2199722
 142.3136608 129.5223742  79.0813960 139.3319469 148.5053640  71.1564322
 138.7593436 149.1243828  70.7034794 139.9052263 149.0553002  71.6904244
 145.3994859 137.7512280  83.3410871 146.3512282 137.8510378  83.3623095
 145.2298309 136.9590549  83.8508955 143.4209238 134.8367864  83.5270272
 142.8259171 135.1172876  82.8316760 143.1358935 135.3261765  84.2987013
 147.8782937 140.9718400  82.4553171 147.8459257 140.0334401  82.6412854
 148.4883560 141.0502437  81.7218995 139.7166268 139.8414453  68.4980375
 140.6625372 139.7120661  68.5668793 139.3380513 139.1029115  68.9749803
 148.0277425 137.7629444  82.5011454 147.5116474 136.9787900  82.3141383
 148.9117374 137.4348160  82.6657973 145.6888152 131.5070459  78.4607266
 145.4912973 131.1985547  79.3450598 146.2987858 132.2332098  78.5905196
 151.7774784 140.1742270  82.1933659 151.0507947 140.0398235  81.5850150
 151.3622071 140.4819098  82.9990377 139.6004960 143.8932199  89.9581032
 140.5207970 144.0710798  90.1521078 139.5654543 142.9488245  89.8060731
 137.9009185 137.7664430  68.4335260 136.9940640 137.4697542  68.5097973
 138.1785166 137.4694248  67.5669546 128.8187125 139.0870793  78.8834306
 128.4989910 138.2336101  78.5908680 128.2720553 139.3019371  79.6392274
 132.5967033 141.8033234  82.6003813 132.8153042 142.7350342  82.6191847
 133.0092807 141.4441208  83.3858617 139.5171251 132.3101319  74.5879501
 138.7071979 131.9648404  74.9634747 140.2055667 132.0008863  75.1767113
 141.4461799 131.3879366  76.2103798 141.9992837 131.8074819  76.8693821
 141.6831885 130.4615114  76.2526754 137.4694898 137.3766440  91.9906562
 137.3691625 138.3260797  91.9218653 137.2516440 137.0484679  91.1182632
 136.6707969 134.6251365  68.5747239 137.5327133 134.9506263  68.8343056
 136.8558314 133.8382861  68.0620305 128.6875385 142.7073704  80.8527428
 127.9938857 142.2927657  80.3397382 129.4348376 142.7494241  80.2560847
 144.8240606 133.4979891  75.7182462 144.2439275 134.1564695  75.3360514
 144.5576539 132.6757236  75.3069879 143.2744172 132.8984949  77.9203782
 143.7743951 133.0101483  77.1118101 143.9179780 132.5946002  78.5604591
 137.3326168 140.8063579  90.8071623 136.8493250 141.6063939  91.0135512
 137.4187107 140.8171523  89.8539067 130.6012128 142.6391958  78.7293443
 130.5782816 142.7379645  77.7775326 130.9112764 143.4857109  79.0510609
 133.2599506 144.6968113  82.8440057 134.2142759 144.6652056  82.7769989
 133.0612029 144.2358737  83.6590283 133.8498888 143.2669229  85.4110855
 134.6691777 143.7613308  85.4345692 134.1235695 142.3501197  85.3828422
 143.6065484 135.6579982  74.7738810 142.7191339 135.9429632  74.5559005
 144.0219473 135.4973745  73.9266087 146.9580020 135.6826503  78.4893149
 147.7340410 136.1722955  78.7617766 146.2328154 136.1084557  78.9465019
 149.3952579 136.3954122  79.5467090 149.9897069 136.1549858  78.8360398
 149.4679162 135.6761252  80.1740626 131.6149734 150.2387733  79.8610255
 131.4804202 149.4788134  79.2948253 131.1981797 150.9628633  79.3939044
 142.7508697 145.4224656  68.8686830 143.4544547 145.6274659  69.4844486
 142.0271346 145.9901418  69.1335914 143.5806508 141.1734518  74.9889100
 143.5241709 141.6303069  74.1496733 144.1334850 140.4125202  74.8111943
 147.3911314 136.9624249  75.8139220 147.1348248 136.5620885  76.6447428
 146.7664182 137.6768043  75.6889359 151.7023651 139.7020323  78.3210511
 151.1423209 139.7713512  79.0942073 151.0967155 139.5261307  77.6010008
 134.7718860 151.1357050  80.0728698 134.6551244 152.0802482  79.9707388
 133.9511307 150.8330611  80.4614497 144.6595395 145.8607185  70.9185290
 145.4940999 145.4288384  70.7362765 144.4979738 145.6889199  71.8462185
 144.3141287 142.3639299  72.2841630 144.2590091 142.1983570  71.3430074
 143.6887342 143.0715332  72.4403819 129.1033802 137.6007363  86.1103052
 129.7492666 137.0906317  86.5990277 128.8950953 138.3376045  86.6846477
 141.6287194 144.6688211  91.6095192 142.4978354 144.8428863  91.2481827
 141.1493946 145.4882627  91.4870922 137.6237412 131.8647408  71.8626948
 137.6116082 132.8089248  72.0195219 138.5160834 131.6817553  71.5686409
 135.7973374 151.7885312  83.2884626 136.7000621 151.8208922  83.6051121
 135.5710744 150.8585763  83.3030962 137.5526976 150.5416298  79.9494705
 136.6022607 150.5418160  79.8359077 137.8559463 149.7949033  79.4330739
 141.4389532 128.4590184  76.1172885 140.6721928 127.9048671  76.2629567
 141.8500237 128.5312053  76.9787036 133.4431293 134.7474980  90.2078066
 134.3062754 134.3911785  90.4181391 132.8696704 134.4088875  90.8953470
  55.7335881  -4.5788300  67.7385774  56.3714291  -4.6981553  67.0349114
  55.6156724  -3.6307456  67.7973726  52.5425587  -4.6260872  67.6747298
  52.2044099  -4.7419807  66.7867833  53.4115355  -5.0269707  67.6548304
  48.4012403  -2.7725395  63.6644189  47.8377268  -2.8635458  62.8960477
  48.2864798  -3.5925491  64.1446682  53.0245370  -3.4726020  73.6333504
  53.0134011  -3.8673222  72.7614008  53.1866009  -4.2059947  74.2267275
  45.9476835  -1.2774204  66.5028410  46.7398127  -1.6183379  66.0874709
  46.1873485  -1.1679229  67.4230563  53.9811961   0.8945572  58.9758654
  53.3299941   1.4799653  58.5892668  54.7756324   1.4251767  59.0353692
  47.9067589  -2.0165291  59.3745789  48.6798465  -2.5636303  59.2358664
  48.2592987  -1.1521041  59.5860250  49.7452631  -0.6888908  72.5812688
  49.4542497   0.2156723  72.4659354  50.3809615  -0.6472381  73.2956757
  50.6708838  -3.3112060  69.1714048  51.2672410  -3.5356037  68.4571010
  50.7283810  -4.0527314  69.7739495  50.2433866  -5.8572624  57.0064238
  50.4959387  -6.3791103  56.2447701  49.3058425  -6.0206479  57.1090922
  55.2877149  -6.8536846  64.8138982  56.0740238  -7.2717423  64.4629399
  55.5515854  -5.9490754  64.9820630  55.4587227  -1.4163996  59.5127639
  54.8233060  -1.3429369  60.2248543  55.1284633  -0.8270397  58.8346718
  60.6885576  -6.9161613  65.7171960  61.4210748  -7.4862396  65.9509790
  59.9324932  -7.3040012  66.1578466  49.9630155  -3.9544518  59.2088613
  49.8466413  -4.6299615  59.8769698  50.0732415  -4.4412145  58.3920766
  52.3061696  -4.4934371  62.9135303  51.9419903  -5.0203750  63.6248224
  53.1628812  -4.8835902  62.7401788  51.9467183  -9.4644472  57.9096651
  52.1141585  -8.5964235  58.2767122  51.7564352  -9.3017190  56.9857940
  54.7042516  -1.0027493  69.5762482  54.4043239  -0.1002454  69.4678289
  54.3593576  -1.2695310  70.4283634  48.1554998  -4.5513696  65.6099186
  47.2305494  -4.6837482  65.8176878  48.4039411  -3.7719477  66.1069128
  58.1039660  -8.4844953  67.2559919  57.1956537  -8.5529544  66.9618680
  58.0527256  -8.0073008  68.0841744  51.9256404  -7.0086814  58.8943318
  51.8056029  -6.5629763  59.7328798  51.2308992  -6.6601497  58.3356856
  45.5163809  -4.9080422  66.4442975  45.6456190  -4.6545943  67.3582387
  44.8361260  -4.3152714  66.1247630  49.6863296   5.7616828  62.5433449
  49.6087326   6.7124653  62.6221930  49.0824940   5.4162700  63.2008376
  52.1780526  -7.0655307  75.1994816  51.4013860  -6.5061387  75.1897681
  52.8171089  -6.5798524  75.7209686  59.9701306 -10.2828514  69.0337793
  59.3275687  -9.9895981  68.3877587  59.4656235 -10.3975594  69.8390989
  57.6241470  -6.5365341  59.7223652  58.5359326  -6.3037954  59.5471350
  57.1151117  -5.9528297  59.1598731  50.4326898  -4.2569854  74.7612783
  51.1741582  -3.7184810  74.4847607  49.7263884  -3.6303565  74.9184335
  55.9082238  -2.1140713  73.3584945  56.3165594  -2.5558303  72.6139577
  55.1859499  -2.6888086  73.6119138  52.2613308  -7.1768106  70.7318502
  53.1074503  -6.7528693  70.8753151  52.2011945  -7.8334482  71.4257065
  56.2311052  -1.5539523  67.1137234  55.6019915  -1.3893808  66.4113301
  55.8436714  -1.1397913  67.8848198  60.1100284  -0.6185085  64.4681597
  59.4251322  -0.2386183  63.9178631  60.1944134  -0.0089758  65.2013545
  55.4112753  -9.5163738  72.3899675  55.1673685  -8.7621678  71.8533951
  55.6872684  -9.1378390  73.2246922  57.3651216  -2.9725126  71.0676941
  57.5768111  -2.3293366  70.3911322  57.3180964  -3.8062809  70.5998871
  54.9677445 -10.3607305  67.9713513  54.1061924 -10.0626051  68.2630251
  54.9939879 -10.1436906  67.0394546  51.7839014  -1.8165114  64.3787319
  52.2477360  -1.5377411  63.5891941  51.5195812  -2.7181670  64.1960409
  48.6763095  -2.2693633  67.3167082  49.2464452  -1.8406365  66.6784566
  49.2671207  -2.5511048  68.0151268  50.7207900  -5.6941962  61.1876884
  51.4231944  -5.2420918  61.6550810  50.3888529  -6.3358143  61.8156777
  49.1688262  -7.1030205  75.5628093  48.5386922  -6.4213925  75.7963490
  49.0624350  -7.2147124  74.6181231  58.4797044  -0.0953170  69.2399298
  59.3014488  -0.4972983  68.9581980  58.4759447  -0.1984936  70.1915414
  46.4147980  -7.0713830  63.4477494  45.6179143  -6.9595136  63.9660990
  46.1873572  -6.7327178  62.5818385  52.2453647  -0.5469127  71.3960009
  52.3098080  -0.0848720  72.2318180  51.5364571  -1.1771762  71.5242318
  66.5703037  -3.7514422  65.5884270  65.8166745  -4.3207024  65.4328274
  66.7050578  -3.7851757  66.5354904  51.9601665   1.1198981  61.2638989
  51.8247340   1.9650516  61.6923837  52.5011477   1.3218258  60.5004923
  45.4131062  -1.3625581  61.8366914  45.9255583  -0.5682331  61.9872479
  46.0653775  -2.0599291  61.7700516  47.2225947   1.7540175  63.9189667
  47.3992575   2.6758140  63.7310651  48.0182781   1.4398594  64.3484047
  51.3636966 -11.3851561  75.5173601  52.1046679 -10.7844407  75.4378063
  51.5954888 -12.1273923  74.9591643  46.5078304  -6.1995193  73.7951830
  46.3931819  -7.1009936  74.0958929  45.6522821  -5.9531497  73.4436647
  53.5870141   1.7422547  75.3939331  53.1433995   0.9558926  75.0760236
  54.2487355   1.9301698  74.7283222  48.3457262   3.2718349  69.9200010
  48.8964688   3.1435412  69.1477004  47.5068738   3.5713238  69.5694902
  55.6851379   2.0225347  73.4220732  55.6669855   2.8434228  72.9301002
  56.6071299   1.8979422  73.6470873  52.1424434  -0.4630524  74.2644241
  52.6752770  -1.2242235  74.0343549  51.6138515  -0.7556872  75.0068395
  43.3779979  -3.0336927  62.6126485  44.2155201  -2.6239919  62.3960192
  43.5558247  -3.9737485  62.5826678  55.2744411  -5.3661846  58.3010318
  54.7591035  -4.5957242  58.5398705  55.0021720  -6.0396710  58.9243379
  52.8591522 -10.5212146  63.3595556  52.0033119 -10.9105295  63.1801195
  53.2718474 -10.4420185  62.4995341  54.3890669 -12.9865802  67.7587116
  53.8855464 -13.0235667  66.9454921  54.6821276 -12.0773060  67.8183772
  60.2478685  -2.6129492  60.2363491  59.4708128  -2.9518332  59.7918653
  60.9270166  -2.6076869  59.5618456  55.0630714  -7.4934754  60.1270099
  54.7580850  -7.1788605  60.9780242  56.0161157  -7.4153335  60.1697432
  53.5077146  -1.3344531  61.7763053  52.9798508  -2.0691772  61.4636290
  53.0064649  -0.5569855  61.5303021  58.4869992  -3.1395511  66.8930099
  57.8293667  -2.4496249  66.9810228  59.2910391  -2.7499079  67.2364085
  57.2975451  -4.7851138  64.9434041  57.8107333  -4.1521146  65.4455750
  57.9476675  -5.3849942  64.5777401  48.5665461  -8.6420404  58.1565550
  47.7302773  -8.3045717  58.4774824  48.4270231  -8.7771424  57.2192686
  51.6529746  -3.5164321  54.7798026  50.7456808  -3.7475067  54.9789175
  52.1500778  -4.3126702  54.9672007  54.5597825   5.1933186  57.6994712
  53.8859524   5.4964883  58.3079670  54.9463647   5.9962267  57.3500169
  53.7756282  -7.3101682  67.1892381  52.8578843  -7.0886735  67.0314069
  54.1916426  -7.2355372  66.3304089  54.5591330  -5.9110267  62.3195062
  55.3063149  -5.3988869  62.0102184  54.8282919  -6.2326214  63.1799455
  52.8317980  -3.4151726  59.3022016  51.9229199  -3.6992693  59.3994486
  52.8613064  -2.9952647  58.4425323  58.0637247   0.1954864  63.0713183
  57.6099574  -0.6454227  63.1278374  57.4331214   0.8316262  63.4087964
  57.0070167  -8.8753150  64.3013851  56.2692924  -9.3875764  64.6324093
  57.2596940  -9.3152769  63.4897128  56.5070187   2.0331360  64.0063002
  56.7993161   2.5936417  63.2875367  57.0168807   2.3259921  64.7616161
  43.4006150  -5.6946212  63.2837218  43.2030550  -6.2876851  62.5588285
  42.8452814  -5.9994002  64.0013157  51.3802874  -5.8023105  65.4031811
  51.4351484  -6.7549269  65.3274288  50.5694076  -5.6463666  65.8873110
  52.5294068  -1.8742982  56.6410094  52.0913498  -2.5907123  56.1815732
  53.2704509  -1.6466867  56.0795186  49.3195234  -7.1846046  63.1622190
  48.5063099  -6.8851875  63.5687382  49.8154228  -7.5790357  63.8796672
  51.4703812   2.8111711  65.0956455  51.4279990   3.0372558  64.1664987
  52.3866511   2.5775086  65.2442256  54.9169445  -6.7204221  71.9937084
  55.2718833  -6.4932748  72.8531550  55.5641577  -6.3885844  71.3714339
  60.6467182  -3.5985785  62.6986413  60.5085081  -3.4084189  61.7707602
  60.2903401  -2.8366402  63.1554464  60.6736562  -1.5309258  67.7097684
  61.1073069  -1.6233969  68.5580739  61.3868143  -1.5551758  67.0717700
  49.5869612  -0.3125260  64.8918417  50.3810211  -0.8074940  64.6900992
  48.8761305  -0.8407397  64.5286123  54.4064457   2.0692836  69.2430785
  54.4601479   2.6383772  70.0108501  53.5379238   2.2394721  68.8784822
  45.8952376  -6.1682178  60.9678170  44.9649964  -6.2297722  61.1848132
  45.9909848  -6.6906225  60.1714811  47.2862850  -8.2289608  70.7255236
  47.9585904  -8.4372246  70.0767885  46.4592637  -8.4267522  70.2860469
  61.5352112  -1.4885558  70.2430570  61.7288002  -0.5839747  70.4889845
  61.4352730  -1.9478139  71.0769155  53.1888422 -11.6027667  72.7420897
  52.5416337 -10.9037717  72.6485374  53.9589438 -11.1691523  73.1097145
  56.5967220  -1.3378815  75.8171450  56.4452727  -1.5668263  74.9001534
  56.5871900  -0.3808213  75.8302796  53.3652557  -3.7646902  70.8017717
  54.2944617  -3.6135742  70.6286684  52.9443587  -3.6762881  69.9466363
  52.1640888   0.2603762  68.5716255  52.0251974  -0.1077453  69.4442193
  51.3755485   0.7751402  68.4000212  52.7589040   5.3612859  59.9141791
  52.9340796   4.8900902  60.7287414  52.0721828   5.9878625  60.1423052
  53.7146104  -0.3614635  65.9605092  53.3795936  -0.4013865  66.8562742
  53.2150049  -1.0269919  65.4875503  47.6890348  -4.9547005  71.4857674
  47.5510146  -5.6866766  72.0869213  48.5995271  -5.0438105  71.2041861
  56.6505295  -3.0158601  56.2342152  56.0334466  -3.7411772  56.1375205
  56.1821784  -2.2549240  55.8909226  50.3172648  -5.2427046  70.9741353
  51.0272267  -5.8833853  70.9327972  50.2741956  -4.9914151  71.8967534
  58.3059427   1.6940308  73.8947932  58.2471973   1.0099528  73.2278515
  58.7078945   2.4359298  73.4428558  49.0301582  -8.2561828  72.7936993
  48.4938939  -8.7071089  73.4458589  48.4418291  -8.1215919  72.0507457
  47.3250126   8.5102222  66.6881651  47.5646724   9.1420746  67.3660670
  46.4819322   8.1590262  66.9747011  48.4403841  -8.7973176  55.3563456
  47.5633307  -8.9184376  54.9925703  48.9161594  -9.5887098  55.1042345
  58.3076834  -0.3420108  72.1261912  57.4203613  -0.6794187  72.2488311
  58.8775385  -1.0737077  72.3630677  39.9605981  -4.0096017  65.4504963
  40.6477021  -4.3234287  64.8625979  39.8054110  -3.1054652  65.1772215
  51.8377988   4.3181344  69.0923155  51.7648159   5.1236316  69.6042460
  51.3955381   4.5173310  68.2671177  51.6267767   3.5553114  62.6025977
  50.8435289   4.0974794  62.6964201  52.3260512   4.0727094  63.0020218
  54.9364417 -10.6352257  65.2460182  55.4333117 -11.3882294  64.9261252
  54.1651399 -10.5987940  64.6803392  62.7894175  -4.9311891  66.8878474
  62.7784051  -4.0487176  66.5172407  61.9211554  -5.2840340  66.6933011
  54.2976671   4.2168178  71.2481314  55.0104643   4.8515643  71.1757215
  53.8066700   4.3132044  70.4321316  56.0194198  -1.8780569  62.8198606
  55.0850477  -1.7579107  62.6503310  56.1970866  -2.7808103  62.5558615
  51.5199386  -8.4934874  64.9731867  51.1497174  -9.0463833  65.6612772
  52.0158479  -9.0976740  64.4206867  59.4066749  -6.0363250  63.3548640
  59.8727202  -5.2035258  63.2808942  59.8574250  -6.5018268  64.0593898
  49.3488585   1.9662622  72.0686885  50.0498044   2.5999104  72.2216279
  48.8783700   2.3077353  71.3082524  57.4742980   0.3080571  60.3534792
  57.7502824   0.1937166  61.2628666  56.6047479  -0.0901944  60.3146965
  57.1489871  -5.4792771  69.8939435  56.4961321  -5.2316864  69.2391888
  57.5270251  -6.2928633  69.5601912  54.1097044   4.5566922  63.9967605
  54.2919439   3.7388578  64.4595358  54.9330031   4.7734614  63.5592495
  54.4439210   3.4835107  61.2582654  54.9726976   2.9727562  60.6452816
  54.7067430   3.1677637  62.1228187  53.1977444  -4.7372960  76.3805472
  52.5218081  -4.8378831  77.0507847  54.0205078  -4.8933746  76.8441469
  44.9456303   1.4998977  69.0017987  45.5309740   0.7542664  69.1345892
  44.7481141   1.8102933  69.8854651  47.7994958   4.5350224  64.0180430
  47.1305333   5.0196352  63.5344470  47.6607828   4.7819444  64.9323808
  51.9400227   6.5693967  70.6163088  52.4918535   6.7325589  71.3812173
  52.2806420   7.1598405  69.9443113  56.7911101   1.3955225  76.4711743
  57.3351005   2.0085183  75.9766697  56.2097946   1.9534803  76.9878756
  55.0768614   4.5175943  67.6026770  54.9519753   3.7165683  67.0937716
  55.7347705   5.0122136  67.1140740  57.1403522   2.3184963  69.2306320
  56.1933858   2.1990314  69.1584647  57.4886295   1.4307461  69.3132582
  54.1449955   2.1137679  65.4310673  53.9974918   1.1854387  65.6118243
  54.9703449   2.1357770  64.9467748  48.0112200  -9.2344254  61.2891165
  48.3508272  -8.7058332  60.5669773  48.4584320  -8.8963848  62.0649731
  57.7484077   2.9366238  66.5175545  58.6730625   2.7309099  66.3799997
  57.5799381   2.6882639  67.4264887  49.9980347 -10.7369632  59.4884458
  50.7188709 -10.3588379  58.9848174  49.3745651 -10.0180755  59.5919435
  54.1411470 -10.0324483  60.4242790  54.3575084  -9.1499845  60.1231618
  53.6605537 -10.4238270  59.6948432  48.8810691  -7.0738770  67.0013534
  48.7355272  -6.7598467  67.8937816  48.4035895  -6.4553870  66.4484433
  50.7407074 -10.0836222  67.0494424  50.7268643 -10.9795129  66.7126722
  51.4579502 -10.0765558  67.6832710  52.5933205  -9.6498882  69.0947551
  52.3350983  -8.7281811  69.0931882  52.0618245 -10.0468447  69.7848016
  57.5379394   3.4551905  61.8737637  57.7116271   2.8898328  61.1211489
  58.0308285   4.2552800  61.6917127  43.3556353  -4.5333425  69.9401196
  42.8109821  -3.7573617  70.0721470  44.2335703  -4.1862621  69.7820317
  63.3918785  -3.7811672  63.4927937  63.8349931  -4.5304346  63.0947060
  62.5145295  -3.7901535  63.1101669  58.5254566   2.7718670  58.9734535
  59.2205471   3.3925363  59.1921850  58.8677716   1.9214021  59.2486913
  44.1422375  -5.4063529  72.8331353  43.4004111  -5.2580894  73.4195983
  43.8215119  -5.1455264  71.9698102  60.4245989   0.2218375  60.5021866
  60.9497313   0.5605648  59.7771186  60.3368342  -0.7134609  60.3185001
  52.0866038   4.1352449  72.6311743  52.3953164   3.8901596  73.5034442
  52.8841520   4.3399088  72.1430613  52.1086650   6.2890359  64.8617119
  51.6691640   5.7966737  65.5549976  52.8594767   5.7463326  64.6209194
  44.5878989   2.4801900  64.8641747  45.4137009   2.1805671  64.4840391
  44.2373041   1.7109522  65.3131536  49.5560522   1.8328368  66.9339421
  48.9340531   1.1699073  66.6341649  50.2265389   1.8589500  66.2513069
  42.7887594   0.3988226  65.8230681  41.9519502  -0.0289600  65.6414682
  42.7611239   0.5920669  66.7601472  49.6285050  -9.6889844  76.5271927
  49.6773205  -8.8127721  76.1449696  50.1707564 -10.2312451  75.9543570
  60.1139895   0.8551279  75.8073064  59.3235439   0.8375418  75.2677563
  59.8773250   1.3939573  76.5622100  60.2337770  -2.2956255  73.1205792
  60.2835775  -2.4606247  74.0621315  60.1251694  -3.1628996  72.7303673
  49.1174029   0.3832291  60.4097881  49.2662149   1.0667755  59.7564554
  49.9240472   0.3637381  60.9247337  57.5241533  -6.3125327  74.4365099
  58.4251395  -6.4518862  74.1449097  57.5989507  -6.1470872  75.3763277
  51.8584338  -8.9358472  73.2818285  50.9887647  -8.6424906  73.0100874
  52.0943818  -8.3518027  74.0025549  61.7355967   0.1240687  73.3647814
  61.4440775   0.4870667  74.2011275  61.1228098  -0.5892305  73.1861146
  62.9351649  -2.3106433  65.8850384  63.7698541  -1.8716629  66.0487945
  63.0710778  -2.7867780  65.0658630  59.9843155  -4.7526698  71.8327872
  60.4597277  -4.5599052  71.0246723  59.0608721  -4.6967513  71.5871256
  46.8726662  -3.5902531  61.4158950  46.6272704  -4.4940201  61.6139160
  47.0422576  -3.5885381  60.4738428  54.5623372 -12.7178855  70.7983706
  55.0805316 -11.9817828  70.4730194  54.2078505 -12.4114862  71.6330465
  52.6169434   2.8780422  57.8809629  52.0443402   3.4970609  57.4280101
  53.1902228   3.4279783  58.4149551  58.6844824  -7.8760938  70.0656178
  59.6362247  -7.7762841  70.0868402  58.5148275  -8.6682670  70.5754262
  56.7059204 -10.7905355  70.2515578  56.1109136 -10.5100342  69.5562067
  56.4208900 -10.3011454  71.0232320  55.8366694   3.1617572  59.0118211
  56.7697367   3.0963133  59.2151086  55.7489907   3.9973839  58.5532744
  58.4654711   2.4783442  55.9722159  58.3868342   2.1443306  56.8657916
  59.2864378   2.9705210  55.9713631  61.1632902  -4.6554819  69.1798477
  61.1309222  -5.5938818  69.3658161  61.7733526  -4.5770782  68.4464302
  53.0016233  -5.7858766  55.2225681  53.9475338  -5.9152558  55.2914099
  52.6230478  -6.5244104  55.6995109  61.3127391  -7.8643775  69.2256760
  60.7966439  -8.6485319  69.0386689  62.1967339  -8.1925059  69.3903280
  66.9809452  -3.5938812  68.3204514  67.7112840  -3.8553524  68.8812217
  66.3716397  -4.3310090  68.3606582  65.0624749  -5.4530949  68.9178965
  64.3357913  -5.5874984  68.3095457  64.6472036  -5.1454121  69.7235683
  52.8854926  -1.7341020  76.6826338  53.8057935  -1.5562421  76.8766385
  52.8504509  -2.6784974  76.5306037  51.1859150  -7.8608789  55.1580566
  50.2790606  -8.1575677  55.2343280  51.4635131  -8.1578971  54.2914853
  45.8816998  -3.8239985  69.3249119  46.1003008  -2.8922877  69.3437153
  46.2942772  -4.1832010  70.1103923  50.7544863  -8.2506779  78.7151868
  50.6541590  -7.3012422  78.6463959  50.5366405  -8.5788540  77.8427938
  41.9725351  -2.9199514  67.5772734  41.2788822  -3.3345562  67.0642689
  42.7198342  -2.8778978  66.9806153  50.6176133  -4.8209640  77.5316930
  50.1343215  -4.0209280  77.7380819  50.7037072  -4.8101695  76.5784374
  43.8862093  -2.9881261  65.4538749  43.8632781  -2.8893573  64.5020632
  44.1962730  -2.1416110  65.7755915  46.5449471  -0.9305106  69.5685364
  47.4992724  -0.9621163  69.5015295  46.3461994  -1.3914482  70.3835590
  47.1348853  -2.3603990  72.1356161  47.9541742  -1.8659911  72.1590999
  47.4085661  -3.2772021  72.1073729  56.8915449  -9.9693237  61.4984117
  56.0041304  -9.6843587  61.2804312  57.3069438 -10.1299474  60.6511394
  60.2429985  -9.9446716  65.2138456  61.0190375  -9.4550264  65.4863073
  59.5178120  -9.5188662  65.6710326  62.6802544  -9.2319097  66.2712397
  63.2747035  -9.4723361  65.5605705  62.7529128  -9.9511966  66.8985933
  44.8999700   4.6114514  66.5855562  44.7654168   3.8514915  66.0193560
  44.4831762   5.3355414  66.1184350  56.0358663  -0.2048563  55.5932137
  56.7394513   0.0001440  56.2089792  55.3121311   0.3628199  55.8581220
  56.8656473  -4.4538701  61.7134407  56.8091674  -3.9970150  60.8742039
  57.4184815  -5.2148017  61.5357250  60.6761279  -8.6648969  62.5384527
  60.4198213  -9.0652334  63.3692734  60.0514147  -7.9505176  62.4134666
  64.9873617  -5.9252896  65.0455818  64.4273175  -5.8559707  65.8187380
  64.3817120  -6.1011912  64.3255314  48.0568826   5.5083831  66.7974004
  47.9401210   6.4529263  66.6952694  47.2361272   5.2057392  67.1859803
  57.9445360   0.2333967  57.6430597  58.7790964  -0.1984835  57.4608072
  57.7829703   0.0615980  58.5707491  57.5991252  -3.2633920  59.0086936
  57.5440056  -3.4289649  58.0675380  56.9737308  -2.5557887  59.1649126
  54.9137159  -0.9585008  78.3340499  55.7828319  -0.7844356  77.9727134
  54.4343911  -0.1390591  78.2116228  49.0823340   6.1612093  70.0129933
  49.9850586   6.1935703  70.3296428  48.8560710   5.2312544  70.0276268
  50.8376942   4.9143079  66.6740011  49.8872573   4.9144941  66.5604384
  51.1409428   4.1675814  66.1576046  66.5729635  10.7503618  67.7385774
  67.2108045  10.6310365  67.0349114  66.4550478  11.6984462  67.7973726
  63.3819341  10.7031046  67.6747298  63.0437853  10.5872111  66.7867833
  64.2509110  10.3022211  67.6548304  59.2406157  12.5566522  63.6644189
  58.6771022  12.4656459  62.8960477  59.1258552  11.7366427  64.1446682
  63.8639124  11.8565898  73.6333504  63.8527765  11.4618696  72.7614008
  64.0259764  11.1231970  74.2267275  56.7870589  14.0517714  66.5028410
  57.5791881  13.7108539  66.0874709  57.0267239  14.1612689  67.4230563
  64.8205716  16.2237490  58.9758654  64.1693696  16.8091570  58.5892668
  65.6150079  16.7543685  59.0353692  58.7461343  13.3126627  59.3745789
  59.5192219  12.7655614  59.2358664  59.0986742  14.1770876  59.5860250
  60.5846386  14.6403009  72.5812688  60.2936252  15.5448640  72.4659354
  61.2203370  14.6819537  73.2956757  61.5102592  12.0179858  69.1714048
  62.1066165  11.7935880  68.4571010  61.5677564  11.2764603  69.7739495
  61.0827621   9.4719293  57.0064238  61.3353142   8.9500815  56.2447701
  60.1452180   9.3085439  57.1090922  66.1270904   8.4755072  64.8138982
  66.9133993   8.0574495  64.4629399  66.3909608   9.3801164  64.9820630
  66.2980981  13.9127922  59.5127639  65.6626814  13.9862548  60.2248543
  65.9678387  14.5021521  58.8346718  71.5279331   8.4130305  65.7171960
  72.2604503   7.8429522  65.9509790  70.7718687   8.0251905  66.1578466
  60.8023910  11.3747399  59.2088613  60.6860168  10.6992303  59.8769698
  60.9126170  10.8879773  58.3920766  63.1455451  10.8357546  62.9135303
  62.7813658  10.3088167  63.6248224  64.0022566  10.4456015  62.7401788
  69.0504751   2.1251879  70.1766569  68.7188076   2.9947290  69.9527784
  68.4550365   1.8088163  70.8560599  62.7860938   5.8647446  57.9096651
  62.9535340   6.7327682  58.2767122  62.5958107   6.0274728  56.9857940
  65.5436271  14.3264425  69.5762482  65.2436994  15.2289464  69.4678289
  65.1987330  14.0596608  70.4283634  58.9948752  10.7778222  65.6099186
  58.0699249  10.6454436  65.8176878  59.2433165  11.5572441  66.1069128
  68.9433414   6.8446965  67.2559919  68.0350292   6.7762374  66.9618680
  68.8921010   7.3218910  68.0841744  62.7650158   8.3205103  58.8943318
  62.6449784   8.7662154  59.7328798  62.0702747   8.6690421  58.3356856
  56.3557563  10.4211495  66.4442975  56.4849944  10.6745974  67.3582387
  55.6755015  11.0139203  66.1247630  60.5257051  21.0908745  62.5433449
  60.4481080  22.0416570  62.6221930  59.9218694  20.7454618  63.2008376
  63.0174280   8.2636611  75.1994816  62.2407614   8.8230531  75.1897681
  63.6564843   8.7493394  75.7209686  70.8095061   5.0463403  69.0337793
  70.1669441   5.3395937  68.3877587  70.3049989   4.9316324  69.8390989
  68.4635225   8.7926577  59.7223652  69.3753081   9.0253963  59.5471350
  67.9544872   9.3763621  59.1598731  61.2720653  11.0722064  74.7612783
  62.0135337  11.6107108  74.4847607  60.5657638  11.6988353  74.9184335
  66.7475992  13.2151204  73.3584945  67.1559348  12.7733615  72.6139577
  66.0253254  12.6403832  73.6119138  63.1007062   8.1523811  70.7318502
  63.9468257   8.5763225  70.8753151  63.0405700   7.4957436  71.4257065
  67.0704807  13.7752395  67.1137234  66.4413669  13.9398109  66.4113301
  66.6830469  14.1894005  67.8848198  70.9494039  14.7106833  64.4681597
  70.2645077  15.0905734  63.9178631  71.0337888  15.3202160  65.2013545
  66.2506508   5.8128180  72.3899675  66.0067439   6.5670240  71.8533951
  66.5266438   6.1913527  73.2246922  68.2044970  12.3566792  71.0676941
  68.4161866  12.9998552  70.3911322  68.1574719  11.5229109  70.5998871
  65.8071199   4.9684613  67.9713513  64.9455678   5.2665866  68.2630251
  65.8333634   5.1855012  67.0394546  62.6232769  13.5126803  64.3787319
  63.0871114  13.7914506  63.5891941  62.3589567  12.6110248  64.1960409
  59.5156850  13.0598285  67.3167082  60.0858207  13.4885553  66.6784566
  60.1064962  12.7780869  68.0151268  61.5601655   9.6349956  61.1876884
  62.2625698  10.0870999  61.6550810  61.2282283   8.9933774  61.8156777
  60.0082016   8.2261712  75.5628093  59.3780677   8.9077993  75.7963490
  59.9018104   8.1144794  74.6181231  55.3026989   7.8933508  66.4894017
  54.5126043   8.1491037  66.0134128  55.7938236   8.7081846  66.5946058
  69.3190798  15.2338747  69.2399298  70.1408242  14.8318935  68.9581980
  69.3153201  15.1306982  70.1915414  57.2541734   8.2578087  63.4477494
  56.4572897   8.3696782  63.9660990  57.0267326   8.5964740  62.5818385
  63.0847402  14.7822791  71.3960009  63.1491834  15.2443198  72.2318180
  62.3758326  14.1520156  71.5242318  53.5864692   8.1463999  68.9209008
  53.8372730   9.0311009  69.1866584  54.1224240   7.9668600  68.1484100
  77.4096791  11.5777496  65.5884270  76.6560500  11.0084894  65.4328274
  77.5444333  11.5440160  66.5354904  62.7995419  16.4490898  61.2638989
  62.6641094  17.2942434  61.6923837  63.3405232  16.6510176  60.5004923
  59.2862759   2.5282478  77.9253344  58.8929705   1.9748677  78.6000988
  60.1028899   2.8393057  78.3159862  56.2524817  13.9666336  61.8366914
  56.7649337  14.7609586  61.9872479  56.9047530  13.2692627  61.7700516
  58.0619702  17.0832093  63.9189667  58.2386330  18.0050057  63.7310651
  58.8576535  16.7690512  64.3484047  62.2030720   3.9440357  75.5173601
  62.9440433   4.5447510  75.4378063  62.4348643   3.2017995  74.9591643
  57.3472058   9.1296724  73.7951830  57.2325573   8.2281982  74.0958929
  56.4916576   9.3760421  73.4436647  64.4263896  17.0714465  75.3939331
  63.9827750  16.2850843  75.0760236  65.0881109  17.2593615  74.7283222
  59.1851017  18.6010266  69.9200010  59.7358442  18.4727330  69.1477004
  58.3462493  18.9005155  69.5694902  66.5245134  17.3517265  73.4220732
  66.5063609  18.1726146  72.9301002  67.4465054  17.2271340  73.6470873
  62.9818188  14.8661394  74.2644241  63.5146525  14.1049682  74.0343549
  62.4532269  14.5735046  75.0068395  66.1487883  -0.0278540  69.7937882
  65.8052152   0.8623102  69.7176993  66.5166846  -0.2176882  68.9307467
  54.2173734  12.2954991  62.6126485  55.0548956  12.7051999  62.3960192
  54.3952001  11.3554433  62.5826678  66.1138166   9.9630071  58.3010318
  65.5984789  10.7334676  58.5398705  65.8415474   9.2895207  58.9243379
  63.6985277   4.8079772  63.3595556  62.8426873   4.4186622  63.1801195
  64.1112229   4.8871733  62.4995341  65.2284423   2.3426115  67.7587116
  64.7249219   2.3056250  66.9454921  65.5215030   3.2518858  67.8183772
  61.4727309   2.4264845  66.7653297  62.3380306   2.2307654  66.4059187
  61.5404818   2.1975197  67.6922654  71.0872440  12.7162426  60.2363491
  70.3101883  12.3773585  59.7918653  71.7663921  12.7215049  59.5618456
  65.9024469   7.8357163  60.1270099  65.5974604   8.1503312  60.9780242
  66.8554911   7.9138583  60.1697432  64.3470901  13.9947387  61.7763053
  63.8192262  13.2600146  61.4636290  63.8458403  14.7722063  61.5303021
  69.3263747  12.1896407  66.8930099  68.6687421  12.8795668  66.9810228
  70.1304146  12.5792839  67.2364085  59.0789628   4.6567053  64.1369664
  59.6533380   4.4342234  63.4042857  59.6660611   4.7255747  64.8898266
  68.1369206  10.5440780  64.9434041  68.6501087  11.1770772  65.4455750
  68.7870429   9.9441975  64.5777401  59.4059215   6.6871514  58.1565550
  58.5696528   7.0246200  58.4774824  59.2663985   6.5520494  57.2192686
  61.3812296   1.5308302  62.8644734  60.7276708   1.2157319  62.2401348
  61.3392770   0.9084042  63.5904557  62.4923501  11.8127597  54.7798026
  61.5850563  11.5816850  54.9789175  62.9894533  11.0165216  54.9672007
  65.3991580  20.5225104  57.6994712  64.7253279  20.8256801  58.3079670
  65.7857402  21.3254184  57.3500169  64.6150036   8.0190235  67.1892381
  63.6972598   8.2405182  67.0314069  65.0310180   8.0936546  66.3304089
  65.3985084   9.4181651  62.3195062  66.1456903   9.9303048  62.0102184
  65.6676674   9.0965704  63.1799455  63.6711734  11.9140192  59.3022016
  62.7622954  11.6299225  59.3994486  63.7006818  12.3339270  58.4425323
  68.9031002  15.5246781  63.0713183  68.4493329  14.6837691  63.1278374
  68.2724968  16.1608180  63.4087964  67.8463921   6.4538767  64.3013851
  67.1086678   5.9416153  64.6324093  68.0990695   6.0139149  63.4897128
  67.3463941  17.3623278  64.0063002  67.6386915  17.9228335  63.2875367
  67.8562562  17.6551839  64.7616161  67.9475549  -0.7684981  64.8955620
  68.2534425  -1.6287617  64.6081535  68.6728153  -0.1767361  64.6954614
  54.2399905   9.6345706  63.2837218  54.0424305   9.0415067  62.5588285
  53.6846569   9.3297916  64.0013157  62.2196628   9.5268812  65.4031811
  62.2745238   8.5742649  65.3274288  61.4087830   9.6828251  65.8873110
  63.3687822  13.4548935  56.6410094  62.9307252  12.7384794  56.1815732
  64.1098263  13.6825050  56.0795186  60.1588988   8.1445872  63.1622190
  59.3456854   8.4440043  63.5687382  60.6547982   7.7501561  63.8796672
  62.3097566  18.1403629  65.0956455  62.2673745  18.3664475  64.1664987
  63.2260265  17.9067004  65.2442256  65.7563200   8.6087697  71.9937084
  66.1112588   8.8359170  72.8531550  66.4035331   8.9406073  71.3714339
  71.4860937  11.7306132  62.6986413  71.3478836  11.9207728  61.7707602
  71.1297156  12.4925515  63.1554464  59.6503063   5.7164228  68.7783425
  60.2902442   5.5752987  68.0806388  58.8180594   5.4298741  68.4022027
  71.5130317  13.7982659  67.7097684  71.9466823  13.7057949  68.5580739
  72.2261897  13.7740160  67.0717700  60.4263367  15.0166658  64.8918417
  61.2203965  14.5216978  64.6900992  59.7155059  14.4884521  64.5286123
  65.2458211  17.3984754  69.2430785  65.2995234  17.9675690  70.0108501
  64.3772993  17.5686639  68.8784822  56.7346130   9.1609740  60.9678170
  55.8043719   9.0994195  61.1848132  56.8303602   8.6385693  60.1714811
  56.6531679   5.6864553  63.5556412  56.9138497   6.6009886  63.4465572
  57.4748852   5.2188995  63.7053025  58.1256605   7.1002310  70.7255236
  58.7979658   6.8919672  70.0767885  57.2986391   6.9024396  70.2860469
  72.3745866  13.8406360  70.2430570  72.5681756  14.7452171  70.4889845
  72.2746484  13.3813779  71.0769155  64.0282177   3.7264251  72.7420897
  63.3810092   4.4254200  72.6485374  64.7983192   4.1600395  73.1097145
  67.4360975  13.9913103  75.8171450  67.2846481  13.7623655  74.9001534
  67.4265654  14.9483704  75.8302796  64.2046311  11.5645016  70.8017717
  65.1338371  11.7156175  70.6286684  63.7837341  11.6529036  69.9466363
  63.0034643  15.5895680  68.5716255  62.8645729  15.2214464  69.4442193
  62.2149239  16.1043319  68.4000212  63.5982795  20.6904776  59.9141791
  63.7734551  20.2192820  60.7287414  62.9115583  21.3170543  60.1423052
  64.5539858  14.9677283  65.9605092  64.2189691  14.9278053  66.8562742
  64.0543804  14.3021999  65.4875503  58.5284102  10.3744913  71.4857674
  58.3903900   9.6425152  72.0869213  59.4389026  10.2853813  71.2041861
  67.4899050  12.3133317  56.2342152  66.8728220  11.5880145  56.1375205
  67.0215538  13.0742677  55.8909226  61.1566403  10.0864872  70.9741353
  61.8666021   9.4458064  70.9327972  61.1135711  10.3377767  71.8967534
  69.1453181  17.0232225  73.8947932  69.0865728  16.3391446  73.2278515
  69.5472700  17.7651215  73.4428558  59.8695337   7.0730090  72.7936993
  59.3332694   6.6220828  73.4458589  59.2812045   7.2075999  72.0507457
  58.1643880  23.8394139  66.6881651  58.4040478  24.4712663  67.3660670
  57.3213077  23.4882179  66.9747011  59.2797596   6.5318741  55.3563456
  58.4027062   6.4107542  54.9925703  59.7555349   5.7404820  55.1042345
  69.1470589  14.9871809  72.1261912  68.2597367  14.6497731  72.2488311
  69.7169140  14.2554841  72.3630677  50.7999736  11.3195901  65.4504963
  51.4870776  11.0057631  64.8625979  50.6447864  12.2237266  65.1772215
  55.6034458   6.2086098  69.8789987  55.5192647   5.6011767  69.1440397
  54.7817164   6.6995116  69.8799483  62.6771742  19.6473262  69.0923155
  62.6041914  20.4528233  69.6042460  62.2349135  19.8465228  68.2671177
  62.4661522  18.8845032  62.6025977  61.6829044  19.4266712  62.6964201
  63.1654267  19.4019011  63.0020218  65.7758172   4.6939661  65.2460182
  66.2726871   3.9409623  64.9261252  65.0045153   4.7303978  64.6803392
  73.6287929  10.3980027  66.8878474  73.6177805  11.2804742  66.5172407
  72.7605309  10.0451578  66.6933011  65.1370426  19.5460096  71.2481314
  65.8498398  20.1807561  71.1757215  64.6460454  19.6423962  70.4321316
  66.8587953  13.4511348  62.8198606  65.9244231  13.5712811  62.6503310
  67.0364621  12.5483815  62.5558615  62.3593141   6.8357044  64.9731867
  61.9890928   6.2828085  65.6612772  62.8552233   6.2315178  64.4206867
  70.2460504   9.2928668  63.3548640  70.7120956  10.1256659  63.2808942
  70.6968004   8.8273649  64.0593898  60.1882339  17.2954539  72.0686885
  60.8891799  17.9291022  72.2216279  59.7177454  17.6369271  71.3082524
  68.3136735  15.6372489  60.3534792  68.5896579  15.5229084  61.2628666
  67.4441234  15.2389974  60.3146965  68.2177167   1.6609255  67.3939541
  67.3040246   1.8913482  67.5621748  68.6470268   1.7447699  68.2453573
  67.9883625   9.8499147  69.8939435  67.3355075  10.0975054  69.2391888
  68.3664005   9.0363285  69.5601912  64.9490799  19.8858840  63.9967605
  65.1313194  19.0680496  64.4595358  65.7723785  20.1026532  63.5592495
  65.2832964  18.8127025  61.2582654  65.8120731  18.3019480  60.6452816
  65.5461184  18.4969555  62.1228187  64.0371198  10.5918958  76.3805472
  63.3611835  10.4913087  77.0507847  64.8598832  10.4358171  76.8441469
  55.7850057  16.8290894  69.0017987  56.3703494  16.0834582  69.1345892
  55.5874896  17.1394851  69.8854651  58.6388712  19.8642142  64.0180430
  57.9699088  20.3488269  63.5344470  58.5001582  20.1111362  64.9323808
  50.3767712   9.3996494  67.7222431  50.4151811   8.8660085  68.5159549
  49.8708005   8.8731700  67.1033408  62.7793981  21.8985885  70.6163088
  63.3312289  22.0617507  71.3812173  63.1200174  22.4890323  69.9443113
  57.7558474   4.2461035  71.2184973  57.8199801   5.1075866  70.8062371
  57.6925594   3.6335037  70.4857331  57.2310747   6.3184167  74.8658007
  57.8582786   5.9361245  75.4795531  56.3738666   6.0998369  75.2313700
  67.6304855  16.7247143  76.4711743  68.1744759  17.3377101  75.9766697
  67.0491700  17.2826721  76.9878756  54.0076290   8.1260597  60.7976362
  54.3029731   7.2171275  60.7443416  53.1064325   8.1048336  60.4757364
  65.9162368  19.8467861  67.6026770  65.7913508  19.0457601  67.0937716
  66.5741459  20.3414054  67.1140740  57.5370537   6.2016593  66.7803911
  56.8157122   6.8152561  66.6411384  58.3263792   6.7374358  66.7020556
  67.9797277  17.6476881  69.2306320  67.0327612  17.5282232  69.1584647
  68.3280050  16.7599379  69.3132582  60.3396850   3.5371020  73.0544562
  60.8631252   3.7833316  73.8170872  60.1209183   4.3691054  72.6347700
  55.7364131   5.8074694  60.9215687  55.4076837   4.9272073  60.7390793
  56.0903502   5.7522363  61.8092076  64.9843710  17.4429597  65.4310673
  64.8368672  16.5146304  65.6118243  65.8097203  17.4649688  64.9467748
  58.8505954   6.0947664  61.2891165  59.1902027   6.6233585  60.5669773
  59.2978075   6.4328070  62.0649731  68.5877832  18.2658156  66.5175545
  69.5124379  18.0601017  66.3799997  68.4193135  18.0174557  67.4264887
  61.5449395   4.4784715  70.7394233  61.2046215   3.6792528  71.1414913
  60.8388401   4.7786426  70.1671066  62.1965867   1.5634027  69.1921556
  63.0191936   1.0894505  69.0700446  62.4403930   2.3424511  69.6920242
  60.8374101   4.5922286  59.4884458  61.5582464   4.9703538  58.9848174
  60.2139406   5.3111162  59.5919435  64.9805224   5.2967435  60.4242790
  65.1968839   6.1792072  60.1231618  64.4999291   4.9053648  59.6948432
  59.7204446   8.2553148  67.0013534  59.5749026   8.5693451  67.8937816
  59.2429649   8.8738048  66.4484433  61.5800829   5.2455696  67.0494424
  61.5662397   4.3496789  66.7126722  62.2973257   5.2526360  67.6832710
  63.4326959   5.6793036  69.0947551  63.1744737   6.6010107  69.0931882
  62.9012000   5.2823471  69.7848016  68.3773148  18.7843823  61.8737637
  68.5510026  18.2190246  61.1211489  68.8702039  19.5844718  61.6917127
  54.1950108  10.7958492  69.9401196  53.6503576  11.5718300  70.0721470
  55.0729458  11.1429297  69.7820317  60.9837724   4.1270076  62.3181994
  61.1053636   3.1986722  62.5172882  60.6939767   4.1408762  61.4060310
  63.8528915   1.8124987  65.4548714  63.8750612   1.8764320  64.5000694
  64.2696974   0.9729495  65.6489220  74.2312539  11.5480246  63.4927937
  74.6743685  10.7987571  63.0947060  73.3539049  11.5390382  63.1101669
  69.3648321  18.1010588  58.9734535  70.0599225  18.7217280  59.1921850
  69.7071471  17.2505939  59.2486913  54.9816130   9.9228388  72.8331353
  54.2397866  10.0711024  73.4195983  54.6608874  10.1836654  71.9698102
  71.2639744  15.5510293  60.5021866  71.7891068  15.8897566  59.7771186
  71.1762096  14.6157308  60.3185001  62.9259792  19.4644367  72.6311743
  63.2346919  19.2193513  73.5034442  63.7235274  19.6691005  72.1430613
  62.9480404  21.6182276  64.8617119  62.5085395  21.1258655  65.5549976
  63.6988521  21.0755244  64.6209194  55.4272743  17.8093817  64.8641747
  56.2530763  17.5097589  64.4840391  55.0766795  17.0401440  65.3131536
  60.3954277  17.1620285  66.9339421  59.7734286  16.4990990  66.6341649
  61.0659143  17.1881417  66.2513069  53.6281348  15.7280144  65.8230681
  52.7913257  15.3002318  65.6414682  53.6004994  15.9212587  66.7601472
  60.4678804   5.6402073  76.5271927  60.5166959   6.5164196  76.1449696
  61.0101318   5.0979467  75.9543570  70.9533650  16.1843197  75.8073064
  70.1629193  16.1667336  75.2677563  70.7167004  16.7231490  76.5622100
  71.0731525  13.0335663  73.1205792  71.1229530  12.8685671  74.0621315
  70.9645448  12.1662922  72.7303673  59.9567783  15.7124209  60.4097881
  60.1055904  16.3959673  59.7564554  60.7634227  15.6929299  60.9247337
  68.3635287   9.0166591  74.4365099  69.2645150   8.8773056  74.1449097
  68.4383262   9.1821046  75.3763277  62.6978092   6.3933446  73.2818285
  61.8281402   6.6867012  73.0100874  62.9337573   6.9773891  74.0025549
  72.5749722  15.4532605  73.3647814  72.2834530  15.8162585  74.2011275
  71.9621853  14.7399613  73.1861146  73.7745404  13.0185484  65.8850384
  74.6092295  13.4575288  66.0487945  73.9104533  12.5424138  65.0658630
  70.8236910  10.5765219  71.8327872  71.2991031  10.7692866  71.0246723
  69.9002475  10.6324405  71.5871256  57.7120416  11.7389386  61.4158950
  57.4666458  10.8351716  61.6139160  57.8816331  11.7406537  60.4738428
  65.4017126   2.6113063  70.7983706  65.9199070   3.3474090  70.4730194
  65.0472259   2.9177056  71.6330465  56.9816064   7.4717744  58.9145112
  56.2885309   7.5462099  58.2585148  56.7367816   6.7078088  59.4366629
  65.6529720  -0.9686655  66.3184602  65.9331474  -1.6363466  66.9445029
  66.4380327  -0.7757559  65.8059266  63.4563189  18.2072339  57.8809629
  62.8837156  18.8262526  57.4280101  64.0295983  18.7571701  58.4149551
  69.5238579   7.4530979  70.0656178  70.4756002   7.5529077  70.0868402
  69.3542029   6.6609248  70.5754262  67.5452958   4.5386563  70.2515578
  66.9502890   4.8191575  69.5562067  67.2602655   5.0280463  71.0232320
  66.6760449  18.4909489  59.0118211  67.6091122  18.4255051  59.2151086
  66.5883662  19.3265756  58.5532744  69.3048465  17.8075360  55.9722159
  69.2262097  17.4735223  56.8657916  70.1258132  18.2997128  55.9713631
  72.0026657  10.6737099  69.1798477  71.9702977   9.7353100  69.3658161
  72.6127280  10.7521136  68.4464302  63.8409987   9.5433152  55.2225681
  64.7869092   9.4139360  55.2914099  63.4624232   8.8047814  55.6995109
  72.1521145   7.4648142  69.2256760  71.6360194   6.6806599  69.0386689
  73.0361094   7.1366859  69.3903280  69.8131872   1.2089158  65.1852573
  69.6156693   0.9004246  66.0695905  70.4231578   1.9350797  65.3150503
  77.8203206  11.7353106  68.3204514  78.5506595  11.4738394  68.8812217
  77.2110152  10.9981828  68.3606582  75.9018504   9.8760968  68.9178965
  75.1751667   9.7416933  68.3095457  75.4865790  10.1837797  69.7235683
  63.7248680  13.5950898  76.6826338  64.6451689  13.7729497  76.8766385
  63.6898263  12.6506943  76.5306037  62.0252905   7.4683128  55.1580566
  61.1184360   7.1716241  55.2343280  62.3028886   7.1712946  54.2914853
  52.9430845   8.7889492  65.6079613  52.6233629   7.9354800  65.3153987
  52.3964273   9.0038070  66.3637580  56.7210753  11.5051933  69.3249119
  56.9396762  12.4369041  69.3437153  57.1336526  11.1459907  70.1103923
  63.6414970   2.0120018  61.3124808  62.8315699   1.6667103  61.6880054
  64.3299387   1.7027562  61.9012419  65.5705519   1.0898065  62.9349104
  66.1236557   1.5093518  63.5939127  65.8075605   0.1633813  62.9772060
  61.5938618   7.0785139  78.7151868  61.4935345   8.0279495  78.6463959
  61.3760160   6.7503377  77.8427938  60.7951689   4.3270064  55.2992546
  61.6570853   4.6524962  55.5588363  60.9802033   3.5401559  54.7865611
  52.8119105  12.4092403  67.5772734  52.1182576  11.9946356  67.0642689
  53.5592096  12.4512940  66.9806153  68.9484326   3.1998590  62.4427769
  68.3682995   3.8583394  62.0605821  68.6820258   2.3775935  62.0315186
  67.3987892   2.6003648  64.6449089  67.8987670   2.7120182  63.8363408
  68.0423500   2.2964701  65.2849897  61.4569888  10.5082277  77.5316930
  60.9736970  11.3082637  77.7380819  61.5430827  10.5190222  76.5784374
  54.7255848  12.3410657  65.4538749  54.7026536  12.4398344  64.5020632
  55.0356484  13.1875808  65.7755915  57.3843225  14.3986812  69.5685364
  58.3386479  14.3670754  69.5015295  57.1855749  13.9377436  70.3835590
  57.9742608  12.9687928  72.1356161  58.7935497  13.4632007  72.1590999
  58.2479415  12.0519896  72.1073729  67.7309204   5.3598680  61.4984117
  66.8435059   5.6448331  61.2804312  68.1463193   5.1992444  60.6511394
  71.0823740   5.3845201  65.2138456  71.8584130   5.8741654  65.4863073
  70.3571874   5.8103256  65.6710326  73.5196298   6.0972821  66.2712397
  74.1140789   5.8568557  65.5605705  73.5922882   5.3779951  66.8985933
  55.7393454  19.9406432  66.5855562  55.6047922  19.1806832  66.0193560
  55.3225516  20.6647331  66.1184350  66.8752417  15.1243355  55.5932137
  67.5788267  15.3293358  56.2089792  66.1515066  15.6920117  55.8581220
  67.7050227  10.8753216  61.7134407  67.6485429  11.3321768  60.8742039
  68.2578570  10.1143901  61.5357250  71.5155033   6.6642948  62.5384527
  71.2591968   6.2639584  63.3692734  70.8907901   7.3786742  62.4134666
  75.8267371   9.4039021  65.0455818  75.2666929   9.4732211  65.8187380
  75.2210875   9.2280006  64.3255314  58.8962580  20.8375749  66.7974004
  58.7794964  21.7821181  66.6952694  58.0755026  20.5349310  67.1859803
  68.7839115  15.5625884  57.6430597  69.6184719  15.1307083  57.4608072
  68.6223458  15.3907898  58.5707491  68.4385007  12.0657998  59.0086936
  68.3833811  11.9002269  58.0675380  67.8131062  12.7734031  59.1649126
  53.2277522   7.3026062  72.8348358  53.8736385   6.7925016  73.3235584
  53.0194673   8.0394744  73.4091784  65.7530914  14.3706909  78.3340499
  66.6222074  14.5447562  77.9727134  65.2737665  15.1901326  78.2116228
  61.7481132   1.5666107  58.5872255  61.7359802   2.5107947  58.7440525
  62.6404554   1.3836252  58.2931716  59.9217094  21.4904010  70.0129933
  60.8244341  21.5227621  70.3296428  59.6954464  20.5604461  70.0276268
  61.6770696  20.2434997  66.6740011  60.7266327  20.2436859  66.5604384
  61.9803182  19.4967732  66.1576046  65.5633252  -1.8391117  62.8418191
  64.7965648  -2.3932630  62.9874874  65.9743957  -1.7669248  63.7032343
  57.5675013   4.4493679  76.9323373  58.4306474   4.0930484  77.1426697
  56.9940423   4.1107574  77.6198777  77.4123390  26.0795535  67.7385774
  78.0501800  25.9602283  67.0349114  77.2944233  27.0276379  67.7973726
  74.2213096  26.0322964  67.6747298  73.8831607  25.9164028  66.7867833
  75.0902864  25.6314129  67.6548304  70.0799912  27.8858440  63.6644189
  69.5164777  27.7948377  62.8960477  69.9652307  27.0658344  64.1446682
  67.6264344  29.3809632  66.5028410  68.4185636  29.0400456  66.0874709
  67.8660994  29.4904607  67.4230563  75.6599470  31.5529408  58.9758654
  75.0087450  32.1383488  58.5892668  76.4543833  32.0835603  59.0353692
  69.5855098  28.6418545  59.3745789  70.3585974  28.0947532  59.2358664
  69.9380496  29.5062794  59.5860250  72.3496347  27.3471776  69.1714048
  72.9459919  27.1227798  68.4571010  72.4071318  26.6056521  69.7739495
  71.9221375  24.8011211  57.0064238  72.1746896  24.2792732  56.2447701
  70.9845934  24.6377356  57.1090922  76.9664658  23.8046989  64.8138982
  77.7527747  23.3866412  64.4629399  77.2303363  24.7093081  64.9820630
  77.1374736  29.2419840  59.5127639  76.5020569  29.3154466  60.2248543
  76.8072142  29.8313438  58.8346718  82.3673085  23.7422222  65.7171960
  83.0998257  23.1721439  65.9509790  81.6112441  23.3543823  66.1578466
  71.6417664  26.7039317  59.2088613  71.5253922  26.0284220  59.8769698
  71.7519924  26.2171691  58.3920766  73.9849205  26.1649464  62.9135303
  73.6207412  25.6380085  63.6248224  74.8416321  25.7747933  62.7401788
  79.8898506  17.4543797  70.1766569  79.5581830  18.3239208  69.9527784
  79.2944119  17.1380081  70.8560599  73.6254692  21.1939364  57.9096651
  73.7929094  22.0619600  58.2767122  73.4351861  21.3566645  56.9857940
  76.3830025  29.6556343  69.5762482  76.0830748  30.5581381  69.4678289
  76.0381085  29.3888526  70.4283634  69.8342507  26.1070139  65.6099186
  68.9093003  25.9746354  65.8176878  70.0826920  26.8864359  66.1069128
  79.7827169  22.1738883  67.2559919  78.8744046  22.1054291  66.9618680
  79.7314765  22.6510828  68.0841744  73.6043913  23.6497021  58.8943318
  73.4843538  24.0954072  59.7328798  72.9096501  23.9982339  58.3356856
  67.1951318  25.7503413  66.4442975  67.3243699  26.0037892  67.3582387
  66.5148769  26.3431121  66.1247630  71.3650805  36.4200663  62.5433449
  71.2874835  37.3708488  62.6221930  70.7612449  36.0746535  63.2008376
  73.8568035  23.5928528  75.1994816  73.0801369  24.1522448  75.1897681
  74.4958598  24.0785311  75.7209686  81.6488815  20.3755321  69.0337793
  81.0063196  20.6687854  68.3877587  81.1443744  20.2608241  69.8390989
  79.3028979  24.1218494  59.7223652  80.2146835  24.3545881  59.5471350
  78.7938626  24.7055539  59.1598731  77.5869747  28.5443122  73.3584945
  77.9953103  28.1025533  72.6139577  76.8647008  27.9695750  73.6119138
  73.9400817  23.4815729  70.7318502  74.7862012  23.9055142  70.8753151
  73.8799454  22.8249353  71.4257065  77.9098561  29.1044313  67.1137234
  77.2807424  29.2690027  66.4113301  77.5224223  29.5185922  67.8848198
  81.7887793  30.0398751  64.4681597  81.1038831  30.4197652  63.9178631
  81.8731643  30.6494077  65.2013545  77.0900262  21.1420097  72.3899675
  76.8461194  21.8962158  71.8533951  77.3660193  21.5205445  73.2246922
  79.0438725  27.6858710  71.0676941  79.2555620  28.3290470  70.3911322
  78.9968473  26.8521026  70.5998871  76.6464954  20.2976530  67.9713513
  75.7849433  20.5957784  68.2630251  76.6727388  20.5146929  67.0394546
  73.4626523  28.8418721  64.3787319  73.9264869  29.1206424  63.5891941
  73.1983321  27.9402165  64.1960409  70.3550604  28.3890202  67.3167082
  70.9251961  28.8177471  66.6784566  70.9458716  28.1072787  68.0151268
  72.3995409  24.9641873  61.1876884  73.1019453  25.4162917  61.6550810
  72.0676038  24.3225692  61.8156777  66.1420743  23.2225426  66.4894017
  65.3519797  23.4782954  66.0134128  66.6331991  24.0373764  66.5946058
  80.1584553  30.5630665  69.2399298  80.9801997  30.1610852  68.9581980
  80.1546956  30.4598899  70.1915414  68.0935489  23.5870005  63.4477494
  67.2966652  23.6988699  63.9660990  67.8661081  23.9256657  62.5818385
  73.9241156  30.1114708  71.3960009  73.9885589  30.5735116  72.2318180
  73.2152080  29.4812073  71.5242318  64.4258446  23.4755916  68.9209008
  64.6766485  24.3602926  69.1866584  64.9617995  23.2960518  68.1484100
  88.2490546  26.9069414  65.5884270  87.4954254  26.3376812  65.4328274
  88.3838087  26.8732078  66.5354904  73.6389174  31.7782816  61.2638989
  73.5034849  32.6234352  61.6923837  74.1798986  31.9802094  60.5004923
  70.1256514  17.8574396  77.9253344  69.7323459  17.3040594  78.6000988
  70.9422654  18.1684974  78.3159862  67.0918571  29.2958254  61.8366914
  67.6043092  30.0901504  61.9872479  67.7441284  28.5984544  61.7700516
  68.9013456  32.4124010  63.9189667  69.0780084  33.3341975  63.7310651
  69.6970290  32.0982429  64.3484047  73.0424475  19.2732275  75.5173601
  73.7834188  19.8739428  75.4378063  73.2742397  18.5309913  74.9591643
  77.3638888  32.6809182  73.4220732  77.3457364  33.5018063  72.9301002
  78.2858808  32.5563258  73.6470873  76.9881637  15.3013378  69.7937882
  76.6445907  16.1915019  69.7176993  77.3560600  15.1115035  68.9307467
  65.0567488  27.6246908  62.6126485  65.8942710  28.0343917  62.3960192
  65.2345756  26.6846350  62.5826678  76.9531920  25.2921989  58.3010318
  76.4378544  26.0626593  58.5398705  76.6809229  24.6187125  58.9243379
  74.5379031  20.1371690  63.3595556  73.6820628  19.7478540  63.1801195
  74.9505983  20.2163650  62.4995341  76.0678178  17.6718033  67.7587116
  75.5642973  17.6348168  66.9454921  76.3608785  18.5810776  67.8183772
  72.3121064  17.7556763  66.7653297  73.1774061  17.5599571  66.4059187
  72.3798573  17.5267114  67.6922654  81.9266194  28.0454344  60.2363491
  81.1495637  27.7065503  59.7918653  82.6057675  28.0506967  59.5618456
  76.7418223  23.1649081  60.1270099  76.4368359  23.4795230  60.9780242
  77.6948665  23.2430501  60.1697432  75.1864655  29.3239304  61.7763053
  74.6586017  28.5892064  61.4636290  74.6852158  30.1013981  61.5303021
  80.1657501  27.5188325  66.8930099  79.5081176  28.2087586  66.9810228
  80.9697900  27.9084757  67.2364085  69.9183383  19.9858971  64.1369664
  70.4927135  19.7634152  63.4042857  70.5054365  20.0547665  64.8898266
  78.9762960  25.8732697  64.9434041  79.4894842  26.5062689  65.4455750
  79.6264184  25.2733893  64.5777401  70.2452970  22.0163432  58.1565550
  69.4090282  22.3538118  58.4774824  70.1057740  21.8812411  57.2192686
  72.2206051  16.8600219  62.8644734  71.5670463  16.5449237  62.2401348
  72.1786525  16.2375960  63.5904557  73.3317255  27.1419515  54.7798026
  72.4244317  26.9108768  54.9789175  73.8288287  26.3457134  54.9672007
  76.2385334  35.8517022  57.6994712  75.5647033  36.1548718  58.3079670
  76.6251156  36.6546102  57.3500169  75.4543791  23.3482153  67.1892381
  74.5366352  23.5697100  67.0314069  75.8703935  23.4228463  66.3304089
  76.2378839  24.7473569  62.3195062  76.9850658  25.2594966  62.0102184
  76.5070428  24.4257621  63.1799455  74.5105489  27.2432109  59.3022016
  73.6016708  26.9591142  59.3994486  74.5400573  27.6631188  58.4425323
  79.7424756  30.8538699  63.0713183  79.2887083  30.0129609  63.1278374
  79.1118723  31.4900097  63.4087964  78.6857676  21.7830685  64.3013851
  77.9480433  21.2708071  64.6324093  78.9384449  21.3431067  63.4897128
  78.1857695  32.6915196  64.0063002  78.4780670  33.2520253  63.2875367
  78.6956316  32.9843757  64.7616161  78.7869303  14.5606937  64.8955620
  79.0928180  13.7004300  64.6081535  79.5121908  15.1524557  64.6954614
  65.0793659  24.9637624  63.2837218  64.8818059  24.3706984  62.5588285
  64.5240323  24.6589834  64.0013157  73.0590383  24.8560730  65.4031811
  73.1138993  23.9034566  65.3274288  72.2481585  25.0120169  65.8873110
  74.2081577  28.7840853  56.6410094  73.7701007  28.0676712  56.1815732
  74.9492018  29.0116968  56.0795186  70.9982743  23.4737790  63.1622190
  70.1850608  23.7731960  63.5687382  71.4941737  23.0793479  63.8796672
  73.1491321  33.4695547  65.0956455  73.1067499  33.6956393  64.1664987
  74.0654020  33.2358921  65.2442256  76.5956954  23.9379614  71.9937084
  76.9506342  24.1651087  72.8531550  77.2429086  24.2697991  71.3714339
  82.3254691  27.0598050  62.6986413  82.1872590  27.2499646  61.7707602
  81.9690910  27.8217433  63.1554464  70.4896818  21.0456145  68.7783425
  71.1296197  20.9044904  68.0806388  69.6574348  20.7590659  68.4022027
  82.3524071  29.1274577  67.7097684  82.7860578  29.0349866  68.5580739
  83.0655652  29.1032078  67.0717700  71.2657121  30.3458576  64.8918417
  72.0597720  29.8508896  64.6900992  70.5548814  29.8176439  64.5286123
  76.0851966  32.7276671  69.2430785  76.1388988  33.2967608  70.0108501
  75.2166747  32.8978556  68.8784822  67.5739885  24.4901657  60.9678170
  66.6437473  24.4286113  61.1848132  67.6697357  23.9677610  60.1714811
  67.4925434  21.0156470  63.5556412  67.7532251  21.9301804  63.4465572
  68.3142606  20.5480913  63.7053025  68.9650359  22.4294227  70.7255236
  69.6373413  22.2211590  70.0767885  68.1380146  22.2316313  70.2860469
  83.2139621  29.1698278  70.2430570  83.4075511  30.0744088  70.4889845
  83.1140239  28.7105697  71.0769155  74.8675931  19.0556168  72.7420897
  74.2203846  19.7546118  72.6485374  75.6376947  19.4892312  73.1097145
  78.2754729  29.3205021  75.8171450  78.1240236  29.0915572  74.9001534
  78.2659409  30.2775622  75.8302796  75.0440066  26.8936933  70.8017717
  75.9732126  27.0448093  70.6286684  74.6231096  26.9820954  69.9466363
  73.8428397  30.9187598  68.5716255  73.7039483  30.5506382  69.4442193
  73.0542994  31.4335237  68.4000212  74.4376549  36.0196694  59.9141791
  74.6128305  35.5484737  60.7287414  73.7509337  36.6462460  60.1423052
  75.3933613  30.2969200  65.9605092  75.0583445  30.2569970  66.8562742
  74.8937558  29.6313916  65.4875503  78.3292804  27.6425235  56.2342152
  77.7121975  26.9172063  56.1375205  77.8609293  28.4034595  55.8909226
  71.9960157  25.4156790  70.9741353  72.7059776  24.7749982  70.9327972
  71.9529465  25.6669685  71.8967534  79.9846936  32.3524143  73.8947932
  79.9259482  31.6683363  73.2278515  80.3866454  33.0943133  73.4428558
  70.7089091  22.4022008  72.7936993  70.1726448  21.9512746  73.4458589
  70.1205800  22.5367916  72.0507457  69.0037635  39.1686057  66.6881651
  69.2434233  39.8004581  67.3660670  68.1606831  38.8174097  66.9747011
  70.1191350  21.8610659  55.3563456  69.2420816  21.7399460  54.9925703
  70.5949103  21.0696737  55.1042345  79.9864343  30.3163727  72.1261912
  79.0991122  29.9789649  72.2488311  80.5562894  29.5846758  72.3630677
  61.6393490  26.6487819  65.4504963  62.3264530  26.3349549  64.8625979
  61.4841619  27.5529183  65.1772215  66.4428212  21.5378015  69.8789987
  66.3586401  20.9303685  69.1440397  65.6210919  22.0287034  69.8799483
  73.5165497  34.9765179  69.0923155  73.4435668  35.7820151  69.6042460
  73.0742890  35.1757145  68.2671177  73.3055276  34.2136949  62.6025977
  72.5222798  34.7558630  62.6964201  74.0048021  34.7310929  63.0020218
  76.6151926  20.0231579  65.2460182  77.1120626  19.2701541  64.9261252
  75.8438908  20.0595896  64.6803392  84.4681684  25.7271944  66.8878474
  84.4571560  26.6096660  66.5172407  83.5999063  25.3743495  66.6933011
  75.9764180  34.8752013  71.2481314  76.6892152  35.5099478  71.1757215
  75.4854209  34.9715879  70.4321316  77.6981707  28.7803266  62.8198606
  76.7637986  28.9004729  62.6503310  77.8758375  27.8775733  62.5558615
  73.1986895  22.1648962  64.9731867  72.8284683  21.6120002  65.6612772
  73.6945988  21.5607095  64.4206867  81.0854258  24.6220585  63.3548640
  81.5514711  25.4548577  63.2808942  81.5361759  24.1565567  64.0593898
  79.1530489  30.9664407  60.3534792  79.4290333  30.8521001  61.2628666
  78.2834988  30.5681891  60.3146965  79.0570921  16.9901172  67.3939541
  78.1434001  17.2205399  67.5621748  79.4864023  17.0739616  68.2453573
  78.8277380  25.1791064  69.8939435  78.1748830  25.4266972  69.2391888
  79.2057759  24.3655202  69.5601912  75.7884553  35.2150757  63.9967605
  75.9706948  34.3972413  64.4595358  76.6117539  35.4318450  63.5592495
  76.1226719  34.1418943  61.2582654  76.6514485  33.6311397  60.6452816
  76.3854939  33.8261473  62.1228187  66.6243812  32.1582812  69.0017987
  67.2097249  31.4126500  69.1345892  66.4268650  32.4686769  69.8854651
  69.4782467  35.1934059  64.0180430  68.8092842  35.6780187  63.5344470
  69.3395337  35.4403280  64.9323808  61.2161466  24.7288412  67.7222431
  61.2545566  24.1952003  68.5159549  60.7101759  24.2023618  67.1033408
  73.6187735  37.2277803  70.6163088  74.1706044  37.3909424  71.3812173
  73.9593929  37.8182241  69.9443113  68.5952229  19.5752953  71.2184973
  68.6593555  20.4367784  70.8062371  68.5319349  18.9626954  70.4857331
  68.0704501  21.6476085  74.8658007  68.6976540  21.2653162  75.4795531
  67.2132420  21.4290287  75.2313700  78.4698610  32.0539060  76.4711743
  79.0138514  32.6669019  75.9766697  77.8885455  32.6118639  76.9878756
  64.8470044  23.4552514  60.7976362  65.1423485  22.5463193  60.7443416
  63.9458080  23.4340254  60.4757364  76.7556123  35.1759778  67.6026770
  76.6307262  34.3749518  67.0937716  77.4135214  35.6705972  67.1140740
  68.3764291  21.5308511  66.7803911  67.6550877  22.1444479  66.6411384
  69.1657547  22.0666276  66.7020556  78.8191031  32.9768798  69.2306320
  77.8721367  32.8574150  69.1584647  79.1673804  32.0891296  69.3132582
  71.1790605  18.8662937  73.0544562  71.7025006  19.1125234  73.8170872
  70.9602938  19.6982972  72.6347700  66.5757886  21.1366612  60.9215687
  66.2470592  20.2563991  60.7390793  66.9297256  21.0814281  61.8092076
  75.8237464  32.7721515  65.4310673  75.6762427  31.8438222  65.6118243
  76.6490958  32.7941605  64.9467748  69.6899709  21.4239582  61.2891165
  70.0295781  21.9525503  60.5669773  70.1371829  21.7619988  62.0649731
  79.4271586  33.5950073  66.5175545  80.3518134  33.3892935  66.3799997
  79.2586890  33.3466475  67.4264887  72.3843150  19.8076632  70.7394233
  72.0439970  19.0084446  71.1414913  71.6782156  20.1078343  70.1671066
  73.0359621  16.8925945  69.1921556  73.8585691  16.4186423  69.0700446
  73.2797685  17.6716429  69.6920242  71.6767856  19.9214203  59.4884458
  72.3976218  20.2995456  58.9848174  71.0533160  20.6403080  59.5919435
  75.8198979  20.6259352  60.4242790  76.0362593  21.5083990  60.1231618
  75.3393046  20.2345566  59.6948432  70.5598200  23.5845066  67.0013534
  70.4142781  23.8985369  67.8937816  70.0823404  24.2029966  66.4484433
  72.4194583  20.5747613  67.0494424  72.4056152  19.6788707  66.7126722
  73.1367011  20.5818277  67.6832710  74.2720714  21.0084954  69.0947551
  74.0138492  21.9302024  69.0931882  73.7405754  20.6115388  69.7848016
  79.2166903  34.1135741  61.8737637  79.3903780  33.5482163  61.1211489
  79.7095794  34.9136636  61.6917127  71.8231479  19.4561994  62.3181994
  71.9447390  18.5278640  62.5172882  71.5333521  19.4700680  61.4060310
  74.6922669  17.1416904  65.4548714  74.7144366  17.2056237  64.5000694
  75.1090728  16.3021413  65.6489220  85.0706294  26.8772164  63.4927937
  85.5137440  26.1279489  63.0947060  84.1932804  26.8682300  63.1101669
  80.2042075  33.4302505  58.9734535  80.8992980  34.0509198  59.1921850
  80.5465225  32.5797856  59.2486913  82.1033498  30.8802211  60.5021866
  82.6284822  31.2189484  59.7771186  82.0155851  29.9449226  60.3185001
  73.7874159  36.9474194  64.8617119  73.3479149  36.4550573  65.5549976
  74.5382276  36.4047162  64.6209194  66.2666498  33.1385735  64.8641747
  67.0924518  32.8389507  64.4840391  65.9160550  32.3693357  65.3131536
  71.2348031  32.4912203  66.9339421  70.6128040  31.8282908  66.6341649
  71.9052898  32.5173335  66.2513069  64.4675103  31.0572061  65.8230681
  63.6307011  30.6294236  65.6414682  64.4398748  31.2504505  66.7601472
  71.3072559  20.9693991  76.5271927  71.3560714  21.8456114  76.1449696
  71.8495073  20.4271384  75.9543570  81.7927404  31.5135114  75.8073064
  81.0022948  31.4959253  75.2677563  81.5560759  32.0523408  76.5622100
  81.9125279  28.3627581  73.1205792  81.9623284  28.1977588  74.0621315
  81.8039203  27.4954840  72.7303673  70.7961538  31.0416126  60.4097881
  70.9449658  31.7251591  59.7564554  71.6027981  31.0221217  60.9247337
  79.2029042  24.3458509  74.4365099  80.1038904  24.2064974  74.1449097
  79.2777016  24.5112964  75.3763277  73.5371847  21.7225364  73.2818285
  72.6675156  22.0158930  73.0100874  73.7731327  22.3065809  74.0025549
  83.4143476  30.7824522  73.3647814  83.1228284  31.1454503  74.2011275
  82.8015607  30.0691531  73.1861146  84.6139158  28.3477402  65.8850384
  85.4486050  28.7867206  66.0487945  84.7498287  27.8716055  65.0658630
  81.6630664  25.9057137  71.8327872  82.1384786  26.0984783  71.0246723
  80.7396230  25.9616323  71.5871256  68.5514171  27.0681304  61.4158950
  68.3060213  26.1643634  61.6139160  68.7210085  27.0698455  60.4738428
  76.2410881  17.9404980  70.7983706  76.7592825  18.6766007  70.4730194
  75.8866014  18.2468974  71.6330465  67.8209818  22.8009662  58.9145112
  67.1279063  22.8754017  58.2585148  67.5761570  22.0370005  59.4366629
  76.4923475  14.3605263  66.3184602  76.7725229  13.6928452  66.9445029
  77.2774082  14.5534359  65.8059266  74.2956943  33.5364257  57.8809629
  73.7230911  34.1554444  57.4280101  74.8689737  34.0863619  58.4149551
  80.3632333  22.7822897  70.0656178  81.3149756  22.8820995  70.0868402
  80.1935784  21.9901166  70.5754262  78.3846713  19.8678480  70.2515578
  77.7896645  20.1483493  69.5562067  78.0996409  20.3572381  71.0232320
  77.5154203  33.8201407  59.0118211  78.4484876  33.7546969  59.2151086
  77.4277416  34.6557674  58.5532744  80.1442220  33.1367277  55.9722159
  80.0655851  32.8027141  56.8657916  80.9651887  33.6289045  55.9713631
  82.8420411  26.0029017  69.1798477  82.8096731  25.0645017  69.3658161
  83.4521035  26.0813053  68.4464302  74.6803742  24.8725070  55.2225681
  75.6262847  24.7431278  55.2914099  74.3017987  24.1339732  55.6995109
  82.9914900  22.7940060  69.2256760  82.4753948  22.0098517  69.0386689
  83.8754848  22.4658777  69.3903280  80.6525626  16.5381076  65.1852573
  80.4550448  16.2296164  66.0695905  81.2625332  17.2642715  65.3150503
  88.6596961  27.0645024  68.3204514  89.3900349  26.8030312  68.8812217
  88.0503906  26.3273745  68.3606582  86.7412258  25.2052886  68.9178965
  86.0145422  25.0708851  68.3095457  86.3259545  25.5129715  69.7235683
  72.8646659  22.7975046  55.1580566  71.9578114  22.5008159  55.2343280
  73.1422640  22.5004864  54.2914853  63.7824599  24.1181409  65.6079613
  63.4627384  23.2646718  65.3153987  63.2358028  24.3329988  66.3637580
  74.4808725  17.3411936  61.3124808  73.6709453  16.9959021  61.6880054
  75.1693142  17.0319479  61.9012419  76.4099273  16.4189983  62.9349104
  76.9630312  16.8385436  63.5939127  76.6469359  15.4925731  62.9772060
  72.4332372  22.4077056  78.7151868  72.3329099  23.3571413  78.6463959
  72.2153914  22.0795295  77.8427938  71.6345444  19.6561981  55.2992546
  72.4964608  19.9816880  55.5588363  71.8195788  18.8693477  54.7865611
  63.6512859  27.7384321  67.5772734  62.9576331  27.3238274  67.0642689
  64.3985850  27.7804857  66.9806153  79.7878080  18.5290508  62.4427769
  79.2076749  19.1875312  62.0605821  79.5214013  17.7067852  62.0315186
  78.2381647  17.9295565  64.6449089  78.7381425  18.0412100  63.8363408
  78.8817254  17.6256618  65.2849897  65.5649602  27.6702575  65.4538749
  65.5420290  27.7690262  64.5020632  65.8750239  28.5167726  65.7755915
  78.5702958  20.6890598  61.4984117  77.6828813  20.9740249  61.2804312
  78.9856947  20.5284361  60.6511394  81.9217494  20.7137119  65.2138456
  82.6977884  21.2033572  65.4863073  81.1965629  21.1395173  65.6710326
  84.3590053  21.4264738  66.2712397  84.9534544  21.1860474  65.5605705
  84.4316637  20.7071869  66.8985933  66.5787209  35.2698349  66.5855562
  66.4441677  34.5098750  66.0193560  66.1619271  35.9939249  66.1184350
  77.7146172  30.4535273  55.5932137  78.4182022  30.6585275  56.2089792
  76.9908820  31.0212035  55.8581220  78.5443982  26.2045134  61.7134407
  78.4879183  26.6613685  60.8742039  79.0972324  25.4435819  61.5357250
  82.3548788  21.9934866  62.5384527  82.0985722  21.5931502  63.3692734
  81.7301656  22.7078660  62.4134666  86.6661126  24.7330939  65.0455818
  86.1060684  24.8024128  65.8187380  86.0604629  24.5571924  64.3255314
  69.7356335  36.1667666  66.7974004  69.6188719  37.1113099  66.6952694
  68.9148781  35.8641228  67.1859803  79.6232869  30.8917802  57.6430597
  80.4578473  30.4599000  57.4608072  79.4617212  30.7199816  58.5707491
  79.2778761  27.3949915  59.0086936  79.2227565  27.2294187  58.0675380
  78.6524817  28.1025948  59.1649126  64.0671276  22.6317980  72.8348358
  64.7130140  22.1216934  73.3235584  63.8588427  23.3686661  73.4091784
  72.5874887  16.8958024  58.5872255  72.5753557  17.8399864  58.7440525
  73.4798309  16.7128170  58.2931716  72.5164451  35.5726915  66.6740011
  71.5660082  35.5728776  66.5604384  72.8196937  34.8259649  66.1576046
  76.4027006  13.4900801  62.8418191  75.6359402  12.9359288  62.9874874
  76.8137711  13.5622670  63.7032343  68.4068767  19.7785597  76.9323373
  69.2700229  19.4222402  77.1426697  67.8334178  19.4399492  77.6198777
  88.2517144  41.4087453  67.7385774  88.8895554  41.2894200  67.0349114
  88.1337987  42.3568297  67.7973726  85.0606850  41.3614881  67.6747298
  84.7225362  41.2455946  66.7867833  85.9296619  40.9606046  67.6548304
  80.9193666  43.2150358  63.6644189  80.3558531  43.1240295  62.8960477
  80.8046061  42.3950262  64.1446682  85.5426633  42.5149733  73.6333504
  85.5315274  42.1202531  72.7614008  85.7047273  41.7815806  74.2267275
  78.4658098  44.7101549  66.5028410  79.2579390  44.3692374  66.0874709
  78.7054748  44.8196524  67.4230563  86.4993225  46.8821325  58.9758654
  85.8481205  47.4675406  58.5892668  87.2937588  47.4127520  59.0353692
  80.4248852  43.9710462  59.3745789  81.1979728  43.4239450  59.2358664
  80.7774251  44.8354712  59.5860250  82.2633895  45.2986845  72.5812688
  81.9723761  46.2032476  72.4659354  82.8990879  45.3403372  73.2956757
  83.1890101  42.6763693  69.1714048  83.7853674  42.4519716  68.4571010
  83.2465073  41.9348439  69.7739495  82.7615130  40.1303129  57.0064238
  83.0140651  39.6084650  56.2447701  81.8239689  39.9669274  57.1090922
  87.8058413  39.1338907  64.8138982  88.5921502  38.7158330  64.4629399
  88.0697117  40.0384999  64.9820630  87.9768490  44.5711757  59.5127639
  87.3414323  44.6446384  60.2248543  87.6465896  45.1605356  58.8346718
  93.2066840  39.0714140  65.7171960  93.9392012  38.5013357  65.9509790
  92.4506196  38.6835741  66.1578466  82.4811419  42.0331235  59.2088613
  82.3647677  41.3576138  59.8769698  82.5913678  41.5463608  58.3920766
  84.8242960  41.4941382  62.9135303  84.4601167  40.9672003  63.6248224
  85.6810075  41.1039851  62.7401788  90.7292260  32.7835714  70.1766569
  90.3975585  33.6531125  69.9527784  90.1337874  32.4671998  70.8560599
  84.4648447  36.5231281  57.9096651  84.6322849  37.3911518  58.2767122
  84.2745616  36.6858563  56.9857940  87.2223780  44.9848260  69.5762482
  86.9224503  45.8873299  69.4678289  86.8774839  44.7180443  70.4283634
  80.6736261  41.4362057  65.6099186  79.7486758  41.3038271  65.8176878
  80.9220674  42.2156276  66.1069128  90.6220923  37.5030800  67.2559919
  89.7137801  37.4346209  66.9618680  90.5708519  37.9802745  68.0841744
  84.4437667  38.9788939  58.8943318  84.3237293  39.4245990  59.7328798
  83.7490256  39.3274257  58.3356856  78.0345072  41.0795331  66.4442975
  78.1637453  41.3329810  67.3582387  77.3542524  41.6723039  66.1247630
  84.6961789  38.9220446  75.1994816  83.9195123  39.4814366  75.1897681
  85.3352352  39.4077229  75.7209686  92.4882570  35.7047239  69.0337793
  91.8456950  35.9979772  68.3877587  91.9837498  35.5900159  69.8390989
  90.1422734  39.4510412  59.7223652  91.0540590  39.6837799  59.5471350
  89.6332381  40.0347456  59.1598731  82.9508162  41.7305899  74.7612783
  83.6922846  42.2690943  74.4847607  82.2445147  42.3572188  74.9184335
  88.4263501  43.8735040  73.3584945  88.8346857  43.4317450  72.6139577
  87.7040763  43.2987667  73.6119138  84.7794571  38.8107647  70.7318502
  85.6255766  39.2347060  70.8753151  84.7193209  38.1541271  71.4257065
  88.7492316  44.4336230  67.1137234  88.1201178  44.5981945  66.4113301
  88.3617978  44.8477840  67.8848198  92.6281548  45.3690668  64.4681597
  91.9432586  45.7489570  63.9178631  92.7125397  45.9785995  65.2013545
  87.9294017  36.4712015  72.3899675  87.6854948  37.2254076  71.8533951
  88.2053947  36.8497363  73.2246922  89.8832479  43.0150627  71.0676941
  90.0949375  43.6582387  70.3911322  89.8362228  42.1812944  70.5998871
  87.4858708  35.6268448  67.9713513  86.6243187  35.9249702  68.2630251
  87.5121143  35.8438847  67.0394546  84.3020278  44.1710639  64.3787319
  84.7658623  44.4498342  63.5891941  84.0377076  43.2694083  64.1960409
  81.1944359  43.7182120  67.3167082  81.7645716  44.1469388  66.6784566
  81.7852471  43.4364705  68.0151268  83.2389164  40.2933791  61.1876884
  83.9413207  40.7454835  61.6550810  82.9069792  39.6517610  61.8156777
  81.6869525  38.8845548  75.5628093  81.0568186  39.5661828  75.7963490
  81.5805613  38.7728629  74.6181231  76.9814498  38.5517344  66.4894017
  76.1913552  38.8074872  66.0134128  77.4725745  39.3665681  66.5946058
  90.9978307  45.8922583  69.2399298  91.8195751  45.4902770  68.9581980
  90.9940710  45.7890817  70.1915414  78.9329243  38.9161923  63.4477494
  78.1360406  39.0280617  63.9660990  78.7054835  39.2548575  62.5818385
  84.7634911  45.4406626  71.3960009  84.8279343  45.9027033  72.2318180
  84.0545835  44.8103991  71.5242318  75.2652201  38.8047834  68.9209008
  75.5160239  39.6894844  69.1866584  75.8011749  38.6252436  68.1484100
  99.0884300  42.2361331  65.5884270  98.3348009  41.6668729  65.4328274
  99.2231842  42.2023996  66.5354904  84.4782928  47.1074734  61.2638989
  84.3428603  47.9526269  61.6923837  85.0192741  47.3094011  60.5004923
  80.9650268  33.1866313  77.9253344  80.5717214  32.6332512  78.6000988
  81.7816408  33.4976892  78.3159862  77.9312326  44.6250172  61.8366914
  78.4436846  45.4193422  61.9872479  78.5835039  43.9276462  61.7700516
  79.7407210  47.7415928  63.9189667  79.9173839  48.6633893  63.7310651
  80.5364044  47.4274347  64.3484047  83.8818229  34.6024192  75.5173601
  84.6227942  35.2031346  75.4378063  84.1136152  33.8601830  74.9591643
  79.0259567  39.7880560  73.7951830  78.9113082  38.8865817  74.0958929
  78.1704085  40.0344257  73.4436647  84.6605697  45.5245229  74.2644241
  85.1934034  44.7633518  74.0343549  84.1319778  45.2318881  75.0068395
  87.8275392  30.6305295  69.7937882  87.4839661  31.5206937  69.7176993
  88.1954355  30.4406953  68.9307467  75.8961243  42.9538826  62.6126485
  76.7336465  43.3635834  62.3960192  76.0739510  42.0138268  62.5826678
  87.7925675  40.6213907  58.3010318  87.2772298  41.3918511  58.5398705
  87.5202983  39.9479043  58.9243379  85.3772786  35.4663607  63.3595556
  84.5214382  35.0770458  63.1801195  85.7899737  35.5455568  62.4995341
  86.9071932  33.0009951  67.7587116  86.4036728  32.9640086  66.9454921
  87.2002539  33.9102693  67.8183772  83.1514818  33.0848680  66.7653297
  84.0167815  32.8891489  66.4059187  83.2192327  32.8559032  67.6922654
  92.7659949  43.3746261  60.2363491  91.9889392  43.0357421  59.7918653
  93.4451430  43.3798884  59.5618456  87.5811978  38.4940999  60.1270099
  87.2762113  38.8087148  60.9780242  88.5342420  38.5722419  60.1697432
  86.0258410  44.6531222  61.7763053  85.4979771  43.9183982  61.4636290
  85.5245912  45.4305898  61.5303021  91.0051256  42.8480242  66.8930099
  90.3474930  43.5379504  66.9810228  91.8091655  43.2376674  67.2364085
  80.7577137  35.3150888  64.1369664  81.3320889  35.0926070  63.4042857
  81.3448120  35.3839583  64.8898266  89.8156715  41.2024615  64.9434041
  90.3288596  41.8354607  65.4455750  90.4657938  40.6025811  64.5777401
  81.0846724  37.3455349  58.1565550  80.2484037  37.6830036  58.4774824
  80.9451494  37.2104329  57.2192686  83.0599805  32.1892137  62.8644734
  82.4064217  31.8741154  62.2401348  83.0180279  31.5667878  63.5904557
  84.1711010  42.4711432  54.7798026  83.2638072  42.2400686  54.9789175
  84.6682042  41.6749051  54.9672007  87.0779089  51.1808939  57.6994712
  86.4040788  51.4840636  58.3079670  87.4644911  51.9838020  57.3500169
  86.2937545  38.6774071  67.1892381  85.3760107  38.8989018  67.0314069
  86.7097689  38.7520381  66.3304089  87.0772593  40.0765486  62.3195062
  87.8244412  40.5886884  62.0102184  87.3464183  39.7549539  63.1799455
  85.3499243  42.5724027  59.3022016  84.4410463  42.2883060  59.3994486
  85.3794327  42.9923106  58.4425323  90.5818511  46.1830617  63.0713183
  90.1280838  45.3421526  63.1278374  89.9512477  46.8192015  63.4087964
  89.5251430  37.1122603  64.3013851  88.7874187  36.5999989  64.6324093
  89.7778204  36.6722984  63.4897128  89.0251450  48.0207113  64.0063002
  89.3174424  48.5812170  63.2875367  89.5350071  48.3135674  64.7616161
  89.6263058  29.8898855  64.8955620  89.9321934  29.0296218  64.6081535
  90.3515662  30.4816475  64.6954614  75.9187414  40.2929541  63.2837218
  75.7211814  39.6998902  62.5588285  75.3634078  39.9881751  64.0013157
  83.8984137  40.1852648  65.4031811  83.9532747  39.2326484  65.3274288
  83.0875339  40.3412087  65.8873110  85.0475331  44.1132771  56.6410094
  84.6094761  43.3968630  56.1815732  85.7885772  44.3408886  56.0795186
  81.8376497  38.8029707  63.1622190  81.0244363  39.1023878  63.5687382
  82.3335491  38.4085396  63.8796672  83.9885075  48.7987464  65.0956455
  83.9461254  49.0248311  64.1664987  84.9047774  48.5650839  65.2442256
  87.4350709  39.2671532  71.9937084  87.7900097  39.4943005  72.8531550
  88.0822840  39.5989909  71.3714339  93.1648446  42.3889968  62.6986413
  93.0266345  42.5791564  61.7707602  92.8084665  43.1509351  63.1554464
  81.3290572  36.3748063  68.7783425  81.9689951  36.2336822  68.0806388
  80.4968103  36.0882576  68.4022027  93.1917826  44.4566495  67.7097684
  93.6254332  44.3641784  68.5580739  93.9049406  44.4323995  67.0717700
  82.1050876  45.6750493  64.8918417  82.8991474  45.1800814  64.6900992
  81.3942568  45.1468357  64.5286123  78.4133639  39.8193575  60.9678170
  77.4831228  39.7578031  61.1848132  78.5091111  39.2969528  60.1714811
  78.3319188  36.3448388  63.5556412  78.5926006  37.2593721  63.4465572
  79.1536361  35.8772831  63.7053025  79.8044114  37.7586145  70.7255236
  80.4767167  37.5503507  70.0767885  78.9773900  37.5608231  70.2860469
  94.0533375  44.4990195  70.2430570  94.2469265  45.4036006  70.4889845
  93.9533993  44.0397615  71.0769155  85.7069686  34.3848086  72.7420897
  85.0597601  35.0838036  72.6485374  86.4770701  34.8184230  73.1097145
  89.1148484  44.6496938  75.8171450  88.9633990  44.4207490  74.9001534
  89.1053163  45.6067540  75.8302796  85.8833820  42.2228851  70.8017717
  86.8125880  42.3740011  70.6286684  85.4624850  42.3112872  69.9466363
  84.6822152  46.2479515  68.5716255  84.5433238  45.8798300  69.4442193
  83.8936748  46.7627155  68.4000212  85.2770304  51.3488612  59.9141791
  85.4522060  50.8776655  60.7287414  84.5903092  51.9754378  60.1423052
  86.2327367  45.6261118  65.9605092  85.8977200  45.5861888  66.8562742
  85.7331313  44.9605834  65.4875503  80.2071611  41.0328748  71.4857674
  80.0691409  40.3008987  72.0869213  81.1176535  40.9437648  71.2041861
  89.1686559  42.9717152  56.2342152  88.5515729  42.2463981  56.1375205
  88.7003047  43.7326513  55.8909226  82.8353912  40.7448707  70.9741353
  83.5453530  40.1041900  70.9327972  82.7923220  40.9961602  71.8967534
  81.5482846  37.7313925  72.7936993  81.0120203  37.2804664  73.4458589
  80.9599554  37.8659834  72.0507457  80.9585105  37.1902577  55.3563456
  80.0814571  37.0691377  54.9925703  81.4342858  36.3988655  55.1042345
  90.8258098  45.6455645  72.1261912  89.9384876  45.3081566  72.2488311
  91.3956649  44.9138676  72.3630677  72.4787245  41.9779736  65.4504963
  73.1658285  41.6641466  64.8625979  72.3235373  42.8821101  65.1772215
  77.2821967  36.8669933  69.8789987  77.1980156  36.2595603  69.1440397
  76.4604673  37.3578951  69.8799483  84.1449031  49.5428867  62.6025977
  83.3616553  50.0850547  62.6964201  84.8441776  50.0602847  63.0020218
  87.4545681  35.3523497  65.2460182  87.9514380  34.5993459  64.9261252
  86.6832662  35.3887813  64.6803392  95.3075438  41.0563862  66.8878474
  95.2965314  41.9388577  66.5172407  94.4392818  40.7035413  66.6933011
  88.5375461  44.1095184  62.8198606  87.6031740  44.2296646  62.6503310
  88.7152130  43.2067651  62.5558615  84.0380650  37.4940880  64.9731867
  83.6678437  36.9411920  65.6612772  84.5339742  36.8899013  64.4206867
  91.9248013  39.9512503  63.3548640  92.3908465  40.7840495  63.2808942
  92.3755513  39.4857485  64.0593898  89.9924244  46.2956324  60.3534792
  90.2684088  46.1812919  61.2628666  89.1228743  45.8973809  60.3146965
  89.8964676  32.3193090  67.3939541  88.9827755  32.5497317  67.5621748
  90.3257777  32.4031534  68.2453573  89.6671134  40.5082982  69.8939435
  89.0142584  40.7558889  69.2391888  90.0451514  39.6947120  69.5601912
  86.6278308  50.5442675  63.9967605  86.8100702  49.7264331  64.4595358
  87.4511294  50.7610367  63.5592495  86.9620473  49.4710860  61.2582654
  87.4908240  48.9603315  60.6452816  87.2248693  49.1553390  62.1228187
  85.7158707  41.2502793  76.3805472  85.0399344  41.1496922  77.0507847
  86.5386341  41.0942007  76.8441469  77.4637566  47.4874730  69.0017987
  78.0491003  46.7418417  69.1345892  77.2662405  47.7978686  69.8854651
  72.0555221  40.0580330  67.7222431  72.0939320  39.5243920  68.5159549
  71.5495514  39.5315535  67.1033408  79.4345983  34.9044870  71.2184973
  79.4987310  35.7659701  70.8062371  79.3713103  34.2918872  70.4857331
  78.9098256  36.9768003  74.8658007  79.5370295  36.5945080  75.4795531
  78.0526175  36.7582205  75.2313700  75.6863798  38.7844432  60.7976362
  75.9817240  37.8755110  60.7443416  74.7851834  38.7632171  60.4757364
  79.2158045  36.8600429  66.7803911  78.4944631  37.4736396  66.6411384
  80.0051301  37.3958193  66.7020556  82.0184359  34.1954855  73.0544562
  82.5418761  34.4417152  73.8170872  81.7996692  35.0274890  72.6347700
  77.4151640  36.4658530  60.9215687  77.0864346  35.5855909  60.7390793
  77.7691011  36.4106198  61.8092076  86.6631219  48.1013432  65.4310673
  86.5156181  47.1730140  65.6118243  87.4884712  48.1233523  64.9467748
  80.5293463  36.7531499  61.2891165  80.8689536  37.2817421  60.5669773
  80.9765584  37.0911906  62.0649731  83.2236904  35.1368550  70.7394233
  82.8833724  34.3376363  71.1414913  82.5175910  35.4370261  70.1671066
  83.8753376  32.2217863  69.1921556  84.6979445  31.7478341  69.0700446
  84.1191439  33.0008346  69.6920242  82.5161610  35.2506121  59.4884458
  83.2369973  35.6287374  58.9848174  81.8926915  35.9694998  59.5919435
  86.6592733  35.9551270  60.4242790  86.8756348  36.8375908  60.1231618
  86.1786800  35.5637483  59.6948432  81.3991955  38.9136983  67.0013534
  81.2536535  39.2277286  67.8937816  80.9217158  39.5321884  66.4484433
  83.2588338  35.9039531  67.0494424  83.2449906  35.0080624  66.7126722
  83.9760766  35.9110195  67.6832710  85.1114468  36.3376871  69.0947551
  84.8532246  37.2593942  69.0931882  84.5799509  35.9407306  69.7848016
  90.0560657  49.4427658  61.8737637  90.2297535  48.8774081  61.1211489
  90.5489548  50.2428553  61.6917127  75.8737617  41.4542328  69.9401196
  75.3291085  42.2302136  70.0721470  76.7516967  41.8013132  69.7820317
  82.6625233  34.7853911  62.3181994  82.7841145  33.8570558  62.5172882
  82.3727276  34.7992597  61.4060310  85.5316424  32.4708822  65.4548714
  85.5538121  32.5348155  64.5000694  85.9484483  31.6313331  65.6489220
  95.9100048  42.2064081  63.4927937  96.3531194  41.4571407  63.0947060
  95.0326558  42.1974218  63.1101669  91.0435829  48.7594423  58.9734535
  91.7386734  49.3801116  59.1921850  91.3858980  47.9089774  59.2486913
  76.6603639  40.5812224  72.8331353  75.9185375  40.7294859  73.4195983
  76.3396383  40.8420489  71.9698102  92.9427253  46.2094128  60.5021866
  93.4678577  46.5481401  59.7771186  92.8549605  45.2741144  60.3185001
  77.1060252  48.4677653  64.8641747  77.9318272  48.1681424  64.4840391
  76.7554304  47.6985275  65.3131536  82.0741786  47.8204121  66.9339421
  81.4521795  47.1574826  66.6341649  82.7446652  47.8465253  66.2513069
  75.3068857  46.3863979  65.8230681  74.4700766  45.9586153  65.6414682
  75.2792503  46.5796422  66.7601472  82.1466313  36.2985909  76.5271927
  82.1954468  37.1748032  76.1449696  82.6888827  35.7563302  75.9543570
  92.6321159  46.8427032  75.8073064  91.8416702  46.8251171  75.2677563
  92.3954513  47.3815326  76.5622100  92.7519034  43.6919498  73.1205792
  92.8017039  43.5269506  74.0621315  92.6432957  42.8246757  72.7303673
  81.6355292  46.3708044  60.4097881  81.7843413  47.0543509  59.7564554
  82.4421736  46.3513134  60.9247337  90.0422796  39.6750426  74.4365099
  90.9432659  39.5356891  74.1449097  90.1170771  39.8404881  75.3763277
  84.3765601  37.0517281  73.2818285  83.5068911  37.3450847  73.0100874
  84.6125082  37.6357726  74.0025549  94.2537231  46.1116440  73.3647814
  93.9622039  46.4746421  74.2011275  93.6409362  45.3983448  73.1861146
  95.4532913  43.6769320  65.8850384  96.2879804  44.1159124  66.0487945
  95.5892042  43.2007973  65.0658630  92.5024419  41.2349055  71.8327872
  92.9778540  41.4276701  71.0246723  91.5789984  41.2908240  71.5871256
  79.3907925  42.3973222  61.4158950  79.1453967  41.4935552  61.6139160
  79.5603840  42.3990372  60.4738428  87.0804635  33.2696898  70.7983706
  87.5986579  34.0057925  70.4730194  86.7259768  33.5760891  71.6330465
  78.6603573  38.1301579  58.9145112  77.9672818  38.2045934  58.2585148
  78.4155325  37.3661923  59.4366629  87.3317229  29.6897181  66.3184602
  87.6118983  29.0220370  66.9445029  88.1167836  29.8826276  65.8059266
  85.1350698  48.8656175  57.8809629  84.5624665  49.4846362  57.4280101
  85.7083492  49.4155536  58.4149551  91.2026088  38.1114815  70.0656178
  92.1543511  38.2112912  70.0868402  91.0329538  37.3193083  70.5754262
  89.2240467  35.1970398  70.2515578  88.6290399  35.4775411  69.5562067
  88.9390164  35.6864299  71.0232320  88.3547958  49.1493325  59.0118211
  89.2878631  49.0838886  59.2151086  88.2671171  49.9849592  58.5532744
  90.9835974  48.4659195  55.9722159  90.9049606  48.1319059  56.8657916
  91.8045641  48.9580963  55.9713631  93.6814166  41.3320934  69.1798477
  93.6490486  40.3936935  69.3658161  94.2914789  41.4104971  68.4464302
  85.5197496  40.2016987  55.2225681  86.4656601  40.0723195  55.2914099
  85.1411741  39.4631649  55.6995109  93.8308654  38.1231978  69.2256760
  93.3147703  37.3390434  69.0386689  94.7148603  37.7950694  69.3903280
  91.4919381  31.8672993  65.1852573  91.2944202  31.5588082  66.0695905
  92.1019087  32.5934632  65.3150503  99.4990715  42.3936941  68.3204514
 100.2294104  42.1322229  68.8812217  98.8897661  41.6565663  68.3606582
  97.5806013  40.5344804  68.9178965  96.8539176  40.4000769  68.3095457
  97.1653299  40.8421632  69.7235683  85.4036189  44.2534733  76.6826338
  86.3239198  44.4313332  76.8766385  85.3685772  43.3090779  76.5306037
  83.7040414  38.1266964  55.1580566  82.7971869  37.8300076  55.2343280
  83.9816395  37.8296782  54.2914853  74.6218354  39.4473327  65.6079613
  74.3021138  38.5938635  65.3153987  74.0751782  39.6621905  66.3637580
  78.3998262  42.1635768  69.3249119  78.6184271  43.0952876  69.3437153
  78.8124035  41.8043743  70.1103923  85.3202479  32.6703853  61.3124808
  84.5103208  32.3250938  61.6880054  86.0086896  32.3611397  61.9012419
  87.2493028  31.7481900  62.9349104  87.8024066  32.1677354  63.5939127
  87.4863114  30.8217648  62.9772060  83.2726127  37.7368974  78.7151868
  83.1722854  38.6863331  78.6463959  83.0547669  37.4087213  77.8427938
  82.4739198  34.9853899  55.2992546  83.3358362  35.3108797  55.5588363
  82.6589542  34.1985395  54.7865611  74.4906614  43.0676239  67.5772734
  73.7970085  42.6530191  67.0642689  75.2379605  43.1096775  66.9806153
  90.6271835  33.8582425  62.4427769  90.0470504  34.5167229  62.0605821
  90.3607767  33.0359770  62.0315186  89.0775401  33.2587483  64.6449089
  89.5775179  33.3704018  63.8363408  89.7211009  32.9548536  65.2849897
  83.1357397  41.1666113  77.5316930  82.6524479  41.9666473  77.7380819
  83.2218336  41.1774058  76.5784374  76.4043356  42.9994492  65.4538749
  76.3814045  43.0982180  64.5020632  76.7143993  43.8459643  65.7755915
  79.0630734  45.0570647  69.5685364  80.0173988  45.0254590  69.5015295
  78.8643258  44.5961271  70.3835590  79.6530117  43.6271763  72.1356161
  80.4723005  44.1215842  72.1590999  79.9266924  42.7103732  72.1073729
  89.4096713  36.0182516  61.4984117  88.5222568  36.3032166  61.2804312
  89.8250702  35.8576279  60.6511394  92.7611249  36.0429037  65.2138456
  93.5371639  36.5325489  65.4863073  92.0359383  36.4687091  65.6710326
  95.1983807  36.7556656  66.2712397  95.7928298  36.5152392  65.5605705
  95.2710391  36.0363787  66.8985933  88.5539926  45.7827190  55.5932137
  89.2575776  45.9877193  56.2089792  87.8302575  46.3503952  55.8581220
  89.3837736  41.5337052  61.7134407  89.3272938  41.9905603  60.8742039
  89.9366079  40.7727736  61.5357250  93.1942542  37.3226784  62.5384527
  92.9379477  36.9223419  63.3692734  92.5695410  38.0370578  62.4134666
  97.5054880  40.0622857  65.0455818  96.9454438  40.1316046  65.8187380
  96.8998384  39.8863841  64.3255314  90.4626624  46.2209720  57.6430597
  91.2972228  45.7890918  57.4608072  90.3010967  46.0491733  58.5707491
  90.1172516  42.7241833  59.0086936  90.0621320  42.5586104  58.0675380
  89.4918571  43.4317866  59.1649126  74.9065031  37.9609897  72.8348358
  75.5523894  37.4508851  73.3235584  74.6982182  38.6978579  73.4091784
  87.4318423  45.0290745  78.3340499  88.3009583  45.2031397  77.9727134
  86.9525174  45.8485162  78.2116228  83.4268641  32.2249942  58.5872255
  83.4147311  33.1691782  58.7440525  84.3192063  32.0420087  58.2931716
  87.2420761  28.8192719  62.8418191  86.4753156  28.2651205  62.9874874
  87.6531466  28.8914587  63.7032343  79.2462522  35.1077514  76.9323373
  80.1093983  34.7514319  77.1426697  78.6727932  34.7691409  77.6198777
  99.0910899  56.7379371  67.7385774  99.7289309  56.6186118  67.0349114
  98.9731742  57.6860215  67.7973726  95.9000605  56.6906799  67.6747298
  95.5619116  56.5747864  66.7867833  96.7690373  56.2897964  67.6548304
  91.7587421  58.5442275  63.6644189  91.1952286  58.4532212  62.8960477
  91.6439816  57.7242180  64.1446682  89.3051853  60.0393467  66.5028410
  90.0973145  59.6984292  66.0874709  89.5448503  60.1488442  67.4230563
  97.3386979  62.2113243  58.9758654  96.6874959  62.7967323  58.5892668
  98.1331342  62.7419438  59.0353692  91.2642607  59.3002380  59.3745789
  92.0373483  58.7531367  59.2358664  91.6168005  60.1646629  59.5860250
  94.0283856  58.0055611  69.1714048  94.6247428  57.7811633  68.4571010
  94.0858827  57.2640356  69.7739495  93.6008884  55.4595046  57.0064238
  93.8534405  54.9376568  56.2447701  92.6633443  55.2961192  57.1090922
  98.6452167  54.4630825  64.8138982  99.4315256  54.0450248  64.4629399
  98.9090871  55.3676917  64.9820630  98.8162245  59.9003675  59.5127639
  98.1808077  59.9738301  60.2248543  98.4859651  60.4897274  58.8346718
 104.0460594  54.4006058  65.7171960 104.7785766  53.8305275  65.9509790
 103.2899950  54.0127658  66.1578466  93.3205173  57.3623152  59.2088613
  93.2041431  56.6868056  59.8769698  93.4307433  56.8755526  58.3920766
  95.6636714  56.8233299  62.9135303  95.2994921  56.2963920  63.6248224
  96.5203830  56.4331768  62.7401788 101.5686015  48.1127632  70.1766569
 101.2369339  48.9823043  69.9527784 100.9731628  47.7963916  70.8560599
  95.3042201  51.8523199  57.9096651  95.4716603  52.7203435  58.2767122
  95.1139370  52.0150481  56.9857940  91.5130016  56.7653975  65.6099186
  90.5880512  56.6330189  65.8176878  91.7614429  57.5448194  66.1069128
 101.4614678  52.8322718  67.2559919 100.5531555  52.7638127  66.9618680
 101.4102274  53.3094663  68.0841744  95.2831422  54.3080857  58.8943318
  95.1631047  54.7537907  59.7328798  94.5884010  54.6566174  58.3356856
  88.8738827  56.4087248  66.4442975  89.0031208  56.6621727  67.3582387
  88.1936278  57.0014956  66.1247630  93.0438314  67.0784498  62.5433449
  92.9662344  68.0292323  62.6221930  92.4399958  66.7330371  63.2008376
  95.5355544  54.2512364  75.1994816  94.7588878  54.8106284  75.1897681
  96.1746107  54.7369147  75.7209686 103.3276324  51.0339157  69.0337793
 102.6850705  51.3271690  68.3877587 102.8231253  50.9192077  69.8390989
 100.9816488  54.7802330  59.7223652 101.8934344  55.0129716  59.5471350
 100.4726135  55.3639374  59.1598731  95.6188326  54.1399564  70.7318502
  96.4649521  54.5638978  70.8753151  95.5586963  53.4833189  71.4257065
  99.5886070  59.7628148  67.1137234  98.9594933  59.9273862  66.4113301
  99.2011732  60.1769758  67.8848198 103.4675302  60.6982586  64.4681597
 102.7826340  61.0781487  63.9178631 103.5519152  61.3077913  65.2013545
  98.7687771  51.8003933  72.3899675  98.5248703  52.5545993  71.8533951
  99.0447702  52.1789280  73.2246922  98.3252463  50.9560366  67.9713513
  97.4636942  51.2541619  68.2630251  98.3514897  51.1730765  67.0394546
  95.1414032  59.5002556  64.3787319  95.6052378  59.7790259  63.5891941
  94.8770830  58.5986001  64.1960409  92.0338113  59.0474038  67.3167082
  92.6039470  59.4761306  66.6784566  92.6246225  58.7656622  68.0151268
  94.0782918  55.6225709  61.1876884  94.7806962  56.0746752  61.6550810
  93.7463547  54.9809527  61.8156777  87.8208252  53.8809261  66.4894017
  87.0307306  54.1366790  66.0134128  88.3119500  54.6957599  66.5946058
  89.7722998  54.2453841  63.4477494  88.9754161  54.3572535  63.9660990
  89.5448590  54.5840493  62.5818385 109.9278055  57.5653249  65.5884270
 109.1741763  56.9960647  65.4328274 110.0625596  57.5315913  66.5354904
  95.3176683  62.4366651  61.2638989  95.1822358  63.2818187  61.6923837
  95.8586495  62.6385929  60.5004923  88.7706080  59.9542089  61.8366914
  89.2830601  60.7485340  61.9872479  89.4228793  59.2568380  61.7700516
  90.5800965  63.0707846  63.9189667  90.7567593  63.9925810  63.7310651
  91.3757799  62.7566265  64.3484047  94.7211984  49.9316110  75.5173601
  95.4621697  50.5323263  75.4378063  94.9529906  49.1893748  74.9591643
  98.6669146  45.9597213  69.7937882  98.3233416  46.8498855  69.7176993
  99.0348109  45.7698871  68.9307467  86.7354997  58.2830744  62.6126485
  87.5730219  58.6927752  62.3960192  86.9133265  57.3430186  62.5826678
  98.6319429  55.9505824  58.3010318  98.1166053  56.7210429  58.5398705
  98.3596738  55.2770960  58.9243379  96.2166540  50.7955525  63.3595556
  95.3608137  50.4062375  63.1801195  96.6293492  50.8747486  62.4995341
  97.7465687  48.3301868  67.7587116  97.2430482  48.2932003  66.9454921
  98.0396294  49.2394611  67.8183772  93.9908573  48.4140598  66.7653297
  94.8561570  48.2183407  66.4059187  94.0586082  48.1850950  67.6922654
 103.6053703  58.7038179  60.2363491 102.8283146  58.3649338  59.7918653
 104.2845184  58.7090802  59.5618456  98.4205732  53.8232916  60.1270099
  98.1155868  54.1379065  60.9780242  99.3736174  53.9014336  60.1697432
  96.8652164  59.9823140  61.7763053  96.3373526  59.2475899  61.4636290
  96.3639667  60.7597816  61.5303021 101.8445010  58.1772160  66.8930099
 101.1868685  58.8671422  66.9810228 102.6485409  58.5668592  67.2364085
  91.5970892  50.6442806  64.1369664  92.1714644  50.4217987  63.4042857
  92.1841874  50.7131500  64.8898266 100.6550469  56.5316533  64.9434041
 101.1682351  57.1646525  65.4455750 101.3051693  55.9317728  64.5777401
  91.9240479  52.6747267  58.1565550  91.0877791  53.0121953  58.4774824
  91.7845249  52.5396247  57.2192686  93.8993560  47.5184055  62.8644734
  93.2457972  47.2033072  62.2401348  93.8574034  46.8959795  63.5904557
  95.0104764  57.8003350  54.7798026  94.1031826  57.5692603  54.9789175
  95.5075796  57.0040969  54.9672007  97.9172843  66.5100857  57.6994712
  97.2434542  66.8132554  58.3079670  98.3038665  67.3129937  57.3500169
  97.1331300  54.0065988  67.1892381  96.2153861  54.2280935  67.0314069
  97.5491444  54.0812299  66.3304089  97.9166348  55.4057404  62.3195062
  98.6638167  55.9178801  62.0102184  98.1857937  55.0841457  63.1799455
  96.1892998  57.9015945  59.3022016  95.2804217  57.6174978  59.3994486
  96.2188082  58.3215023  58.4425323 101.4212265  61.5122534  63.0713183
 100.9674592  60.6713444  63.1278374 100.7906232  62.1483933  63.4087964
 100.3645185  52.4414520  64.3013851  99.6267942  51.9291906  64.6324093
 100.6171958  52.0014902  63.4897128  99.8645204  63.3499031  64.0063002
 100.1568179  63.9104088  63.2875367 100.3743825  63.6427592  64.7616161
 100.4656812  45.2190772  64.8955620 100.7715689  44.3588136  64.6081535
 101.1909417  45.8108392  64.6954614  86.7581168  55.6221459  63.2837218
  86.5605568  55.0290820  62.5588285  86.2027832  55.3173669  64.0013157
  94.7377892  55.5144565  65.4031811  94.7926502  54.5618402  65.3274288
  93.9269094  55.6704004  65.8873110  95.8869086  59.4424688  56.6410094
  95.4488516  58.7260547  56.1815732  96.6279526  59.6700803  56.0795186
  92.6770252  54.1321625  63.1622190  91.8638117  54.4315796  63.5687382
  93.1729246  53.7377314  63.8796672  94.8278830  64.1279382  65.0956455
  94.7855008  64.3540228  64.1664987  95.7441529  63.8942757  65.2442256
  98.2744463  54.5963450  71.9937084  98.6293851  54.8234923  72.8531550
  98.9216595  54.9281826  71.3714339 104.0042200  57.7181885  62.6986413
 103.8660099  57.9083481  61.7707602 103.6478419  58.4801268  63.1554464
 104.0311580  59.7858412  67.7097684 104.4648087  59.6933702  68.5580739
 104.7443161  59.7615913  67.0717700  92.9444630  61.0042411  64.8918417
  93.7385229  60.5092731  64.6900992  92.2336323  60.4760274  64.5286123
  89.2527394  55.1485493  60.9678170  88.3224982  55.0869948  61.1848132
  89.3484866  54.6261446  60.1714811  89.1712943  51.6740306  63.5556412
  89.4319760  52.5885639  63.4465572  89.9930115  51.2064748  63.7053025
  96.5463440  49.7140004  72.7420897  95.8991355  50.4129953  72.6485374
  97.3164456  50.1476148  73.1097145  96.1164058  66.6780529  59.9141791
  96.2915814  66.2068573  60.7287414  95.4296846  67.3046296  60.1423052
  97.0721122  60.9553036  65.9605092  96.7370954  60.9153806  66.8562742
  96.5725067  60.2897752  65.4875503 100.0080313  58.3009070  56.2342152
  99.3909484  57.5755898  56.1375205  99.5396802  59.0618430  55.8909226
  93.6747666  56.0740625  70.9741353  94.3847285  55.4333817  70.9327972
  93.6316974  56.3253520  71.8967534  91.7978859  52.5194494  55.3563456
  90.9208325  52.3983295  54.9925703  92.2736612  51.7280573  55.1042345
  94.9842785  64.8720785  62.6025977  94.2010307  65.4142465  62.6964201
  95.6835530  65.3894764  63.0020218  98.2939435  50.6815414  65.2460182
  98.7908135  49.9285377  64.9261252  97.5226417  50.7179731  64.6803392
 106.1469193  56.3855780  66.8878474 106.1359069  57.2680495  66.5172407
 105.2786572  56.0327331  66.6933011  99.3769216  59.4387101  62.8198606
  98.4425495  59.5588564  62.6503310  99.5545884  58.5359568  62.5558615
  94.8774404  52.8232797  64.9731867  94.5072192  52.2703838  65.6612772
  95.3733496  52.2190931  64.4206867 102.7641767  55.2804421  63.3548640
 103.2302220  56.1132412  63.2808942 103.2149268  54.8149402  64.0593898
 100.8317998  61.6248242  60.3534792 101.1077842  61.5104837  61.2628666
  99.9622497  61.2265727  60.3146965 100.7358430  47.6485008  67.3939541
  99.8221510  47.8789235  67.5621748 101.1651532  47.7323452  68.2453573
 100.5064889  55.8374900  69.8939435  99.8536339  56.0850807  69.2391888
 100.8845268  55.0239038  69.5601912  97.4672062  65.8734593  63.9967605
  97.6494457  65.0556249  64.4595358  98.2905048  66.0902285  63.5592495
  97.8014228  64.8002778  61.2582654  98.3301994  64.2895233  60.6452816
  98.0642448  64.4845308  62.1228187  91.1569976  65.8517895  64.0180430
  90.4880351  66.3364022  63.5344470  91.0182846  66.0987115  64.9323808
  86.5257553  54.1136350  60.7976362  86.8210994  53.2047028  60.7443416
  85.6245589  54.0924089  60.4757364  88.2545395  51.7950447  60.9215687
  87.9258101  50.9147826  60.7390793  88.6084765  51.7398116  61.8092076
  91.3687218  52.0823417  61.2891165  91.7083290  52.6109338  60.5669773
  91.8159338  52.4203823  62.0649731  94.0630659  50.4660468  70.7394233
  93.7227479  49.6668281  71.1414913  93.3569665  50.7662179  70.1671066
  94.7147130  47.5509780  69.1921556  95.5373200  47.0770258  69.0700446
  94.9585194  48.3300264  69.6920242  93.3555365  50.5798039  59.4884458
  94.0763727  50.9579291  58.9848174  92.7320669  51.2986915  59.5919435
  97.4986488  51.2843188  60.4242790  97.7150102  52.1667826  60.1231618
  97.0180555  50.8929401  59.6948432  92.2385709  54.2428901  67.0013534
  92.0930290  54.5569204  67.8937816  91.7610913  54.8613801  66.4484433
  94.0982092  51.2331449  67.0494424  94.0843661  50.3372542  66.7126722
  94.8154520  51.2402113  67.6832710  95.9508223  51.6668789  69.0947551
  95.6926001  52.5885860  69.0931882  95.4193263  51.2699224  69.7848016
 100.8954411  64.7719576  61.8737637 101.0691289  64.2065999  61.1211489
 101.3883303  65.5720471  61.6917127  93.5018988  50.1145829  62.3181994
  93.6234899  49.1862475  62.5172882  93.2121030  50.1284515  61.4060310
  96.3710178  47.8000740  65.4548714  96.3931875  47.8640073  64.5000694
  96.7878237  46.9605248  65.6489220 106.7493803  57.5355999  63.4927937
 107.1924949  56.7863324  63.0947060 105.8720313  57.5266135  63.1101669
 101.8829584  64.0886341  58.9734535 102.5780489  64.7093033  59.1921850
 102.2252734  63.2381692  59.2486913 103.7821007  61.5386046  60.5021866
 104.3072331  61.8773319  59.7771186 103.6943360  60.6033061  60.3185001
  95.4661668  67.6058029  64.8617119  95.0266658  67.1134408  65.5549976
  96.2169785  67.0630997  64.6209194  92.9135540  63.1496038  66.9339421
  92.2915549  62.4866743  66.6341649  93.5840407  63.1757170  66.2513069
  92.4749047  61.6999962  60.4097881  92.6237167  62.3835426  59.7564554
  93.2815490  61.6805052  60.9247337 106.2926667  59.0061237  65.8850384
 107.1273559  59.4451041  66.0487945 106.4285796  58.5299891  65.0658630
  90.2301680  57.7265139  61.4158950  89.9847722  56.8227469  61.6139160
  90.3997594  57.7282290  60.4738428  97.9198390  48.5988816  70.7983706
  98.4380334  49.3349843  70.4730194  97.5653523  48.9052809  71.6330465
  89.4997327  53.4593497  58.9145112  88.8066572  53.5337852  58.2585148
  89.2549079  52.6953841  59.4366629  98.1710984  45.0189098  66.3184602
  98.4512738  44.3512287  66.9445029  98.9561591  45.2118194  65.8059266
  95.9744452  64.1948092  57.8809629  95.4018420  64.8138279  57.4280101
  96.5477246  64.7447454  58.4149551 102.0419842  53.4406732  70.0656178
 102.9937265  53.5404830  70.0868402 101.8723293  52.6485001  70.5754262
 100.0634222  50.5262316  70.2515578  99.4684154  50.8067328  69.5562067
  99.7783918  51.0156216  71.0232320  99.1941712  64.4785242  59.0118211
 100.1272385  64.4130804  59.2151086  99.1064925  65.3141509  58.5532744
 101.8229729  63.7951113  55.9722159 101.7443360  63.4610976  56.8657916
 102.6439396  64.2872881  55.9713631 104.5207920  56.6612852  69.1798477
 104.4884240  55.7228853  69.3658161 105.1308544  56.7396889  68.4464302
  96.3591251  55.5308905  55.2225681  97.3050356  55.4015113  55.2914099
  95.9805496  54.7923567  55.6995109 104.6702409  53.4523895  69.2256760
 104.1541457  52.6682352  69.0386689 105.5542357  53.1242612  69.3903280
 102.3313135  47.1964911  65.1852573 102.1337957  46.8879999  66.0695905
 102.9412841  47.9226550  65.3150503 110.3384470  57.7228859  68.3204514
 111.0687858  57.4614147  68.8812217 109.7291415  56.9857581  68.3606582
 108.4199767  55.8636721  68.9178965 107.6932931  55.7292686  68.3095457
 108.0047054  56.1713550  69.7235683  94.5434168  53.4558881  55.1580566
  93.6365623  53.1591994  55.2343280  94.8210149  53.1588699  54.2914853
  89.2392016  57.4927686  69.3249119  89.4578026  58.4244794  69.3437153
  89.6517790  57.1335660  70.1103923  96.1596234  47.9995771  61.3124808
  95.3496962  47.6542856  61.6880054  96.8480651  47.6903315  61.9012419
  98.0886782  47.0773818  62.9349104  98.6417821  47.4969271  63.5939127
  98.3256868  46.1509566  62.9772060  93.3132953  50.3145817  55.2992546
  94.1752117  50.6400715  55.5588363  93.4983297  49.5277313  54.7865611
 101.4665589  49.1874343  62.4427769 100.8864258  49.8459147  62.0605821
 101.2001522  48.3651688  62.0315186  99.9169156  48.5879401  64.6449089
 100.4168934  48.6995935  63.8363408 100.5604763  48.2840454  65.2849897
  89.9024489  60.3862565  69.5685364  90.8567742  60.3546507  69.5015295
  89.7037012  59.9253189  70.3835590 100.2490467  51.3474433  61.4984117
  99.3616322  51.6324084  61.2804312 100.6644456  51.1868197  60.6511394
 103.6005003  51.3720954  65.2138456 104.3765393  51.8617407  65.4863073
 102.8753138  51.7979009  65.6710326 106.0377562  52.0848574  66.2712397
 106.6322053  51.8444310  65.5605705 106.1104146  51.3655704  66.8985933
  99.3933681  61.1119108  55.5932137 100.0969531  61.3169111  56.2089792
  98.6696329  61.6795870  55.8581220 100.2231491  56.8628969  61.7134407
 100.1666692  57.3197521  60.8742039 100.7759833  56.1019654  61.5357250
 104.0336297  52.6518701  62.5384527 103.7773231  52.2515337  63.3692734
 103.4089165  53.3662495  62.4134666 108.3448635  55.3914775  65.0455818
 107.7848193  55.4607964  65.8187380 107.7392138  55.2155759  64.3255314
 101.3020378  61.5501637  57.6430597 102.1365982  61.1182836  57.4608072
 101.1404721  61.3783651  58.5707491 100.9566270  58.0533751  59.0086936
 100.9015074  57.8878022  58.0675380 100.3312326  58.7609784  59.1649126
  94.2662396  47.5541860  58.5872255  94.2541066  48.4983700  58.7440525
  95.1585818  47.3712005  58.2931716  98.0814515  44.1484636  62.8418191
  97.3146911  43.5943123  62.9874874  98.4925220  44.2206505  63.7032343
 108.1780734  77.5405161  58.9758654 107.5268714  78.1259241  58.5892668
 108.9725097  78.0711356  59.0353692 104.4402639  70.7886964  57.0064238
 104.6928160  70.2668485  56.2447701 103.5027198  70.6253109  57.1090922
 109.4845922  69.7922742  64.8138982 110.2709011  69.3742165  64.4629399
 109.7484626  70.6968834  64.9820630 109.6555999  75.2295593  59.5127639
 109.0201832  75.3030219  60.2248543 109.3253405  75.8189191  58.8346718
 114.8854349  69.7297975  65.7171960 115.6179521  69.1597192  65.9509790
 114.1293704  69.3419576  66.1578466 104.1598928  72.6915070  59.2088613
 104.0435186  72.0159973  59.8769698 104.2701187  72.2047444  58.3920766
 112.4079769  63.4419550  70.1766569 112.0763094  64.3114961  69.9527784
 111.8125383  63.1255834  70.8560599 106.1435955  67.1815117  57.9096651
 106.3110358  68.0495353  58.2767122 105.9533125  67.3442398  56.9857940
 112.3008432  68.1614636  67.2559919 111.3925310  68.0930044  66.9618680
 112.2496028  68.6386581  68.0841744 106.1225176  69.6372774  58.8943318
 106.0024802  70.0829825  59.7328798 105.4277765  69.9858092  58.3356856
 106.3749298  69.5804281  75.1994816 105.5982632  70.1398202  75.1897681
 107.0139861  70.0661064  75.7209686 114.1670079  66.3631074  69.0337793
 113.5244459  66.6563607  68.3877587 113.6625007  66.2483995  69.8390989
 111.8210243  70.1094247  59.7223652 112.7328099  70.3421634  59.5471350
 111.3119890  70.6931292  59.1598731 109.6081526  67.1295850  72.3899675
 109.3642457  67.8837911  71.8533951 109.8841456  67.5081198  73.2246922
 109.1646217  66.2852283  67.9713513 108.3030696  66.5833537  68.2630251
 109.1908652  66.5022682  67.0394546 120.7671809  72.8945167  65.5884270
 120.0135518  72.3252565  65.4328274 120.9019351  72.8607831  66.5354904
 109.5062901  61.2889131  69.7937882 109.1627170  62.1790772  69.7176993
 109.8741864  61.0990788  68.9307467 109.4713184  71.2797742  58.3010318
 108.9559807  72.0502347  58.5398705 109.1990492  70.6062878  58.9243379
 107.0560295  66.1247443  63.3595556 106.2001891  65.7354293  63.1801195
 107.4687246  66.2039403  62.4995341 108.5859441  63.6593786  67.7587116
 108.0824237  63.6223921  66.9454921 108.8790048  64.5686529  67.8183772
 114.4447458  74.0330097  60.2363491 113.6676901  73.6941256  59.7918653
 115.1238939  74.0382720  59.5618456 109.2599487  69.1524834  60.1270099
 108.9549622  69.4670983  60.9780242 110.2129929  69.2306254  60.1697432
 107.7045919  75.3115057  61.7763053 107.1767280  74.5767817  61.4636290
 107.2033421  76.0889734  61.5303021 102.4364646  65.9734724  64.1369664
 103.0108398  65.7509905  63.4042857 103.0235629  66.0423418  64.8898266
 102.7634233  68.0039185  58.1565550 101.9271546  68.3413871  58.4774824
 102.6239003  67.8688164  57.2192686 104.7387314  62.8475972  62.8644734
 104.0851726  62.5324990  62.2401348 104.6967788  62.2251713  63.5904557
 105.8498519  73.1295268  54.7798026 104.9425581  72.8984521  54.9789175
 106.3469551  72.3332887  54.9672007 107.9725054  69.3357906  67.1892381
 107.0547616  69.5572853  67.0314069 108.3885198  69.4104217  66.3304089
 108.7560102  70.7349322  62.3195062 109.5031921  71.2470719  62.0102184
 109.0251692  70.4133374  63.1799455 107.0286752  73.2307862  59.3022016
 106.1197972  72.9466895  59.3994486 107.0581836  73.6506941  58.4425323
 112.2606020  76.8414452  63.0713183 111.8068347  76.0005362  63.1278374
 111.6299986  77.4775850  63.4087964 111.2038939  67.7706438  64.3013851
 110.4661696  67.2583824  64.6324093 111.4565713  67.3306820  63.4897128
 110.7038959  78.6790949  64.0063002 110.9961933  79.2396006  63.2875367
 111.2137580  78.9719510  64.7616161 111.3050567  60.5482690  64.8955620
 111.6109443  59.6880053  64.6081535 112.0303171  61.1400310  64.6954614
 105.5771646  70.8436483  65.4031811 105.6320256  69.8910319  65.3274288
 104.7662848  70.9995922  65.8873110 106.7262840  74.7716606  56.6410094
 106.2882270  74.0552465  56.1815732 107.4673281  74.9992721  56.0795186
 103.5164006  69.4613543  63.1622190 102.7031872  69.7607713  63.5687382
 104.0123000  69.0669232  63.8796672 109.1138218  69.9255367  71.9937084
 109.4687606  70.1526840  72.8531550 109.7610349  70.2573744  71.3714339
 100.0921148  70.4777410  60.9678170  99.1618736  70.4161866  61.1848132
 100.1878620  69.9553363  60.1714811 100.0106697  67.0032223  63.5556412
 100.2713515  67.9177557  63.4465572 100.8323870  66.5356666  63.7053025
 110.8474068  73.6300988  56.2342152 110.2303238  72.9047816  56.1375205
 110.3790556  74.3910348  55.8909226 102.6372614  67.8486412  55.3563456
 101.7602080  67.7275213  54.9925703 103.1130367  67.0572490  55.1042345
 109.1333190  66.0107332  65.2460182 109.6301889  65.2577294  64.9261252
 108.3620171  66.0471649  64.6803392 110.2162970  74.7679019  62.8198606
 109.2819249  74.8880482  62.6503310 110.3939639  73.8651486  62.5558615
 113.6035522  70.6096338  63.3548640 114.0695974  71.4424330  63.2808942
 114.0543022  70.1441320  64.0593898 111.6711753  76.9540160  60.3534792
 111.9471597  76.8396754  61.2628666 110.8016252  76.5557645  60.3146965
 111.5752185  62.9776925  67.3939541 110.6615264  63.2081152  67.5621748
 112.0045286  63.0615369  68.2453573 107.3946216  71.9086628  76.3805472
 106.7186853  71.8080758  77.0507847 108.2173850  71.7525842  76.8441469
  97.3651307  69.4428267  60.7976362  97.6604749  68.5338946  60.7443416
  96.4639343  69.4216007  60.4757364  99.0939149  67.1242365  60.9215687
  98.7651855  66.2439744  60.7390793  99.4478520  67.0690034  61.8092076
 102.2080972  67.4115335  61.2891165 102.5477045  67.9401256  60.5669773
 102.6553093  67.7495741  62.0649731 104.1949119  65.9089956  59.4884458
 104.9157482  66.2871209  58.9848174 103.5714423  66.6278833  59.5919435
 108.3380242  66.6135105  60.4242790 108.5543857  67.4959743  60.1231618
 107.8574309  66.2221319  59.6948432 104.3412742  65.4437747  62.3181994
 104.4628654  64.5154393  62.5172882 104.0514785  65.4576433  61.4060310
 107.2103933  63.1292657  65.4548714 107.2325630  63.1931990  64.5000694
 107.6271992  62.2897166  65.6489220 112.7223338  79.4178258  58.9734535
 113.4174243  80.0384951  59.1921850 113.0646489  78.5673609  59.2486913
 114.6214762  76.8677964  60.5021866 115.1466086  77.2065237  59.7771186
 114.5337114  75.9324979  60.3185001 111.7210305  70.3334262  74.4365099
 112.6220168  70.1940727  74.1449097 111.7958280  70.4988717  75.3763277
 100.3391082  68.7885415  58.9145112  99.6460327  68.8629770  58.2585148
 100.0942834  68.0245758  59.4366629 109.0104738  60.3481016  66.3184602
 109.2906492  59.6804205  66.9445029 109.7955345  60.5410112  65.8059266
 112.8813597  68.7698650  70.0656178 113.8331020  68.8696748  70.0868402
 112.7117047  67.9776919  70.5754262 110.9027976  65.8554233  70.2515578
 110.3077908  66.1359246  69.5562067 110.6177673  66.3448134  71.0232320
 112.6623483  79.1243030  55.9722159 112.5837115  78.7902894  56.8657916
 113.4833150  79.6164798  55.9713631 107.1985005  70.8600823  55.2225681
 108.1444110  70.7307031  55.2914099 106.8199250  70.1215485  55.6995109
 115.5096163  68.7815813  69.2256760 114.9935212  67.9974270  69.0386689
 116.3936112  68.4534530  69.3903280 113.1706890  62.5256829  65.1852573
 112.9731711  62.2171917  66.0695905 113.7806596  63.2518468  65.3150503
 121.1778224  73.0520777  68.3204514 121.9081613  72.7906065  68.8812217
 120.5685170  72.3149499  68.3606582 119.2593522  71.1928639  68.9178965
 118.5326685  71.0584604  68.3095457 118.8440808  71.5005468  69.7235683
 105.3827923  68.7850799  55.1580566 104.4759378  68.4883912  55.2343280
 105.6603904  68.4880617  54.2914853 106.9989988  63.3287689  61.3124808
 106.1890717  62.9834774  61.6880054 107.6874405  63.0195233  61.9012419
 108.9280537  62.4065736  62.9349104 109.4811575  62.8261189  63.5939127
 109.1650623  61.4801484  62.9772060 104.1526707  65.6437734  55.2992546
 105.0145871  65.9692633  55.5588363 104.3377051  64.8569230  54.7865611
 112.3059344  64.5166261  62.4427769 111.7258013  65.1751065  62.0605821
 112.0395276  63.6943605  62.0315186 110.7562910  63.9171318  64.6449089
 111.2562688  64.0287853  63.8363408 111.3998518  63.6132371  65.2849897
 111.0884222  66.6766351  61.4984117 110.2010077  66.9616002  61.2804312
 111.5038211  66.5160115  60.6511394 114.4398758  66.7012872  65.2138456
 115.2159148  67.1909325  65.4863073 113.7146892  67.1270926  65.6710326
 116.8771316  67.4140491  66.2712397 117.4715807  67.1736227  65.5605705
 116.9497900  66.6947622  66.8985933 110.2327435  76.4411026  55.5932137
 110.9363285  76.6461028  56.2089792 109.5090084  77.0087788  55.8581220
 111.0625245  72.1920887  61.7134407 111.0060447  72.6489439  60.8742039
 111.6153588  71.4311572  61.5357250 114.8730051  67.9810619  62.5384527
 114.6166986  67.5807255  63.3692734 114.2482919  68.6954413  62.4134666
 119.1842389  70.7206692  65.0455818 118.6241947  70.7899882  65.8187380
 118.5785893  70.5447677  64.3255314 112.1414133  76.8793555  57.6430597
 112.9759736  76.4474753  57.4608072 111.9798475  76.7075569  58.5707491
 111.7960025  73.3825668  59.0086936 111.7408829  73.2169940  58.0675380
 111.1706080  74.0901701  59.1649126 105.1056150  62.8833777  58.5872255
 105.0934820  63.8275617  58.7440525 105.9979572  62.7003923  58.2931716
 108.9208270  59.4776554  62.8418191 108.1540665  58.9235041  62.9874874
 109.3318975  59.5498423  63.7032343 116.9829710  82.5107034  57.9096651
 117.1504112  83.3787271  58.2767122 116.7926879  82.6734316  56.9857940
 113.4766368  83.1778330  55.3563456 112.5995834  83.0567131  54.9925703
 113.9524121  82.3864408  55.1042345 116.2221677  84.1142717  55.1580566
 115.3153132  83.8175829  55.2343280 116.4997658  83.8172535  54.2914853
 114.9920462  80.9729652  55.2992546 115.8539626  81.2984550  55.5588363
 115.1770806  80.1861148  54.7865611 115.9449905  78.2125695  58.5872255
 115.9328575  79.1567535  58.7440525 116.8373327  78.0295840  58.2931716
 119.7602024  74.8068472  62.8418191 118.9934420  74.2526958  62.9874874
 120.1712729  74.8790340  63.7032343 131.6092162 102.7255124  67.7385774
 132.2470572 102.6061871  67.0349114 131.4913005 103.6735968  67.7973726
 124.2768684 104.5318028  63.6644189 123.7133549 104.4407965  62.8960477
 124.1621079 103.7117933  64.1446682 129.8568243 108.1988996  58.9758654
 129.2056223 108.7843076  58.5892668 130.6512606 108.7295191  59.0353692
 123.7823870 105.2878133  59.3745789 124.5554746 104.7407120  59.2358664
 124.1349269 106.1522382  59.5860250 126.1190148 101.4470799  57.0064238
 126.3715668 100.9252321  56.2447701 125.1814707 101.2836945  57.1090922
 131.1633431 100.4506578  64.8138982 131.9496520 100.0326001  64.4629399
 131.4272135 101.3552670  64.9820630 131.3343508 105.8879428  59.5127639
 130.6989341 105.9614054  60.2248543 131.0040914 106.4773027  58.8346718
 125.8386437 103.3498905  59.2088613 125.7222695 102.6743809  59.8769698
 125.9488696 102.8631279  58.3920766 128.1817977 102.8109052  62.9135303
 127.8176185 102.2839673  63.6248224 129.0385093 102.4207521  62.7401788
 127.8223464  97.8398952  57.9096651 127.9897867  98.7079188  58.2767122
 127.6320634  98.0026234  56.9857940 130.5798798 106.3015931  69.5762482
 130.2799521 107.2040970  69.4678289 130.2349857 106.0348114  70.4283634
 127.8012685 100.2956610  58.8943318 127.6812311 100.7413660  59.7328798
 127.1065274 100.6441927  58.3356856 125.5619577 113.0660251  62.5433449
 125.4843607 114.0168076  62.6221930 124.9581221 112.7206124  63.2008376
 133.4997751 100.7678083  59.7223652 134.4115608 101.0005469  59.5471350
 132.9907399 101.3515127  59.1598731 132.1067334 105.7503901  67.1137234
 131.4776196 105.9149615  66.4113301 131.7192996 106.1645511  67.8848198
 135.9856566 106.6858339  64.4681597 135.3007604 107.0657240  63.9178631
 136.0700415 107.2953666  65.2013545 133.2407497 104.3318298  71.0676941
 133.4524393 104.9750058  70.3911322 133.1937246 103.4980615  70.5998871
 127.6595296 105.4878309  64.3787319 128.1233641 105.7666012  63.5891941
 127.3952094 104.5861754  64.1960409 124.5519377 105.0349791  67.3167082
 125.1220734 105.4637059  66.6784566 125.1427489 104.7532376  68.0151268
 126.5964182 101.6101462  61.1876884 127.2988225 102.0622505  61.6550810
 126.2644810 100.9685280  61.8156777 134.3553325 107.2090253  69.2399298
 135.1770769 106.8070441  68.9581980 134.3515728 107.1058488  70.1915414
 142.4459318 103.5529002  65.5884270 141.6923027 102.9836400  65.4328274
 142.5806860 103.5191666  66.5354904 127.8357946 108.4242404  61.2638989
 127.7003621 109.2693940  61.6923837 128.3767759 108.6261682  60.5004923
 121.2887344 105.9417842  61.8366914 121.8011864 106.7361093  61.9872479
 121.9410057 105.2444133  61.7700516 123.0982228 109.0583599  63.9189667
 123.2748857 109.9801563  63.7310651 123.8939062 108.7442018  64.3484047
 129.4626423 109.0465971  75.3939331 129.0190277 108.2602349  75.0760236
 130.1243636 109.2345121  74.7283222 124.2213544 110.5761772  69.9200010
 124.7720969 110.4478836  69.1477004 123.3825020 110.8756661  69.5694902
 131.5607661 109.3268771  73.4220732 131.5426136 110.1477652  72.9301002
 132.4827581 109.2022846  73.6470873 131.1500693 101.9381577  58.3010318
 130.6347316 102.7086182  58.5398705 130.8778001 101.2646713  58.9243379
 136.1234967 104.6913932  60.2363491 135.3464410 104.3525091  59.7918653
 136.8026448 104.6966555  59.5618456 130.9386996  99.8108669  60.1270099
 130.6337131 100.1254819  60.9780242 131.8917438  99.8890089  60.1697432
 129.3833428 105.9698893  61.7763053 128.8554789 105.2351652  61.4636290
 128.8820930 106.7473569  61.5303021 134.3626274 104.1647913  66.8930099
 133.7049948 104.8547175  66.9810228 135.1666673 104.5544345  67.2364085
 133.1731732 102.5192286  64.9434041 133.6863614 103.1522278  65.4455750
 133.8232956 101.9193481  64.5777401 127.5286028 103.7879103  54.7798026
 126.6213090 103.5568356  54.9789175 128.0257060 102.9916722  54.9672007
 130.4354107 112.4976610  57.6994712 129.7615805 112.8008307  58.3079670
 130.8219929 113.3005690  57.3500169 130.4347611 101.3933157  62.3195062
 131.1819430 101.9054554  62.0102184 130.7039201 101.0717210  63.1799455
 128.7074261 103.8891698  59.3022016 127.7985481 103.6050731  59.3994486
 128.7369345 104.3090776  58.4425323 133.9393529 107.4998287  63.0713183
 133.4855856 106.6589197  63.1278374 133.3087495 108.1359686  63.4087964
 132.3826468 109.3374784  64.0063002 132.6749442 109.8979841  63.2875367
 132.8925089 109.6303345  64.7616161 127.2559155 101.5020318  65.4031811
 127.3107765 100.5494155  65.3274288 126.4450357 101.6579757  65.8873110
 128.4050349 105.4300441  56.6410094 127.9669779 104.7136300  56.1815732
 129.1460790 105.6576556  56.0795186 127.3460093 110.1155135  65.0956455
 127.3036272 110.3415981  64.1664987 128.2622792 109.8818510  65.2442256
 136.5223464 103.7057638  62.6986413 136.3841362 103.8959234  61.7707602
 136.1659683 104.4677021  63.1554464 136.5492843 105.7734165  67.7097684
 136.9829350 105.6809455  68.5580739 137.2624424 105.7491666  67.0717700
 125.4625894 106.9918164  64.8918417 126.2566492 106.4968484  64.6900992
 124.7517586 106.4636027  64.5286123 130.2820738 109.3736260  69.2430785
 130.3357761 109.9427196  70.0108501 129.4135520 109.5438145  68.8784822
 137.4108393 105.8157866  70.2430570 137.6044283 106.7203677  70.4889845
 137.3109011 105.3565285  71.0769155 132.4723502 105.9664609  75.8171450
 132.3209008 105.7375161  74.9001534 132.4628181 106.9235210  75.8302796
 128.0397170 107.5647186  68.5716255 127.9008256 107.1965970  69.4442193
 127.2511766 108.0794825  68.4000212 128.6345322 112.6656283  59.9141791
 128.8097078 112.1944326  60.7287414 127.9478110 113.2922049  60.1423052
 129.5902385 106.9428789  65.9605092 129.2552218 106.9029559  66.8562742
 129.0906331 106.2773505  65.4875503 132.5261577 104.2884823  56.2342152
 131.9090747 103.5631651  56.1375205 132.0578065 105.0494183  55.8909226
 134.1815708 108.9983731  73.8947932 134.1228255 108.3142952  73.2278515
 134.5835227 109.7402721  73.4428558 123.2006407 115.8145645  66.6881651
 123.4403005 116.4464169  67.3660670 122.3575604 115.4633685  66.9747011
 124.3160123  98.5070247  55.3563456 123.4389589  98.3859048  54.9925703
 124.7917876  97.7156326  55.1042345 134.1833116 106.9623315  72.1261912
 133.2959894 106.6249237  72.2488311 134.7531667 106.2306347  72.3630677
 115.8362263 103.2947407  65.4504963 116.5233303 102.9809137  64.8625979
 115.6810391 104.1988772  65.1772215 127.7134269 111.6224768  69.0923155
 127.6404441 112.4279739  69.6042460 127.2711662 111.8216734  68.2671177
 127.5024049 110.8596538  62.6025977 126.7191571 111.4018218  62.6964201
 128.2016794 111.3770517  63.0020218 138.6650456 102.3731533  66.8878474
 138.6540332 103.2556248  66.5172407 137.7967836 102.0203084  66.6933011
 130.1732953 111.5211602  71.2481314 130.8860925 112.1559067  71.1757215
 129.6822981 111.6175468  70.4321316 131.8950479 105.4262854  62.8198606
 130.9606758 105.5464317  62.6503310 132.0727148 104.5235321  62.5558615
 135.2823031 101.2680174  63.3548640 135.7483483 102.1008165  63.2808942
 135.7330531 100.8025155  64.0593898 125.2244866 109.2706045  72.0686885
 125.9254326 109.9042528  72.2216279 124.7539981 109.6120777  71.3082524
 133.3499262 107.6123995  60.3534792 133.6259106 107.4980590  61.2628666
 132.4803761 107.2141480  60.3146965 129.9853326 111.8610346  63.9967605
 130.1675720 111.0432002  64.4595358 130.8086312 112.0778038  63.5592495
 130.3195491 110.7878531  61.2582654 130.8483258 110.2770986  60.6452816
 130.5823711 110.4721061  62.1228187 120.8212584 108.8042400  69.0017987
 121.4066021 108.0586088  69.1345892 120.6237423 109.1146357  69.8854651
 123.6751239 111.8393648  64.0180430 123.0061615 112.3239775  63.5344470
 123.5364109 112.0862868  64.9323808 115.4130239 101.3748000  67.7222431
 115.4514338 100.8411591  68.5159549 114.9070532 100.8483206  67.1033408
 127.8156508 113.8737391  70.6163088 128.3674816 114.0369013  71.3812173
 128.1562701 114.4641829  69.9443113 132.6667382 108.6998649  76.4711743
 133.2107286 109.3128607  75.9766697 132.0854227 109.2578227  76.9878756
 130.9524895 111.8219367  67.6026770 130.8276035 111.0209107  67.0937716
 131.6103986 112.3165560  67.1140740 133.0159804 109.6228387  69.2306320
 132.0690139 109.5033738  69.1584647 133.3642577 108.7350885  69.3132582
 130.0206237 109.4181103  65.4310673 129.8731199 108.4897810  65.6118243
 130.8459730 109.4401194  64.9467748 133.6240359 110.2409662  66.5175545
 134.5486906 110.0352523  66.3799997 133.4555662 109.9926063  67.4264887
 133.4135675 110.7595329  61.8737637 133.5872552 110.1941752  61.1211489
 133.9064566 111.5596224  61.6917127 139.2675066 103.5231752  63.4927937
 139.7106212 102.7739077  63.0947060 138.3901576 103.5141889  63.1101669
 134.4010847 110.0762094  58.9734535 135.0961752 110.6968786  59.1921850
 134.7433998 109.2257445  59.2486913 136.3002271 107.5261799  60.5021866
 136.8253595 107.8649072  59.7771186 136.2124623 106.5908814  60.3185001
 127.9622319 111.4395873  72.6311743 128.2709446 111.1945020  73.5034442
 128.7597801 111.6442511  72.1430613 127.9842931 113.5933782  64.8617119
 127.5447922 113.1010161  65.5549976 128.7351048 113.0506750  64.6209194
 120.4635270 109.7845323  64.8641747 121.2893290 109.4849095  64.4840391
 120.1129322 109.0152946  65.3131536 125.4316803 109.1371792  66.9339421
 124.8096813 108.4742497  66.6341649 126.1021670 109.1632923  66.2513069
 118.6643875 107.7031650  65.8230681 117.8275784 107.2753824  65.6414682
 118.6367521 107.8964093  66.7601472 135.9896177 108.1594703  75.8073064
 135.1991720 108.1418842  75.2677563 135.7529531 108.6982996  76.5622100
 136.1094052 105.0087169  73.1205792 136.1592057 104.8437177  74.0621315
 136.0007975 104.1414428  72.7303673 124.9930310 107.6875715  60.4097881
 125.1418431 108.3711179  59.7564554 125.7996754 107.6680805  60.9247337
 137.6112249 107.4284111  73.3647814 137.3197057 107.7914091  74.2011275
 136.9984380 106.7151119  73.1861146 138.8107931 104.9936990  65.8850384
 139.6454822 105.4326795  66.0487945 138.9467060 104.5175644  65.0658630
 122.7482943 103.7140892  61.4158950 122.5028985 102.8103222  61.6139160
 122.9178858 103.7158043  60.4738428 128.4925716 110.1823845  57.8809629
 127.9199683 110.8014032  57.4280101 129.0658510 110.7323207  58.4149551
 131.7122976 110.4660995  59.0118211 132.6453649 110.4006557  59.2151086
 131.6246189 111.3017262  58.5532744 134.3410992 109.7826866  55.9722159
 134.2624624 109.4486729  56.8657916 135.1620659 110.2748634  55.9713631
 137.0389184 102.6488605  69.1798477 137.0065504 101.7104606  69.3658161
 137.6489807 102.7272642  68.4464302 128.8772514 101.5184658  55.2225681
 129.8231619 101.3890866  55.2914099 128.4986759 100.7799320  55.6995109
 142.8565733 103.7104612  68.3204514 143.5869122 103.4489900  68.8812217
 142.2472679 102.9733334  68.3606582 140.9381031 101.8512474  68.9178965
 140.2114194 101.7168439  68.3095457 140.5228317 102.1589303  69.7235683
 128.7611207 105.5702404  76.6826338 129.6814216 105.7481003  76.8766385
 128.7260790 104.6258450  76.5306037 127.0615432  99.4434634  55.1580566
 126.1546887  99.1467747  55.2343280 127.3391413  99.1464453  54.2914853
 121.7573279 103.4803439  69.3249119 121.9759289 104.4120547  69.3437153
 122.1699053 103.1211413  70.1103923 117.8481632 104.3843909  67.5772734
 117.1545103 103.9697862  67.0642689 118.5954623 104.4264446  66.9806153
 126.4932415 102.4833783  77.5316930 126.0099497 103.2834144  77.7380819
 126.5793354 102.4941728  76.5784374 119.7618374 104.3162163  65.4538749
 119.7389063 104.4149850  64.5020632 120.0719011 105.1627314  65.7755915
 122.4205752 106.3738318  69.5685364 123.3749006 106.3422260  69.5015295
 122.2218276 105.9128942  70.3835590 123.0105134 104.9439434  72.1356161
 123.8298023 105.4383513  72.1590999 123.2841942 104.0271402  72.1073729
 120.7755981 111.9157938  66.5855562 120.6410449 111.1558339  66.0193560
 120.3588043 112.6398837  66.1184350 131.9114944 107.0994861  55.5932137
 132.6150794 107.3044864  56.2089792 131.1877593 107.6671623  55.8581220
 132.7412754 102.8504722  61.7134407 132.6847956 103.3073274  60.8742039
 133.2941097 102.0895407  61.5357250 136.5517560  98.6394454  62.5384527
 136.2954495  98.2391090  63.3692734 135.9270428  99.3538248  62.4134666
 140.8629898 101.3790528  65.0455818 140.3029456 101.4483717  65.8187380
 140.2573402 101.2031512  64.3255314 123.9325107 112.8127255  66.7974004
 123.8157491 113.7572687  66.6952694 123.1117553 112.5100816  67.1859803
 133.8201642 107.5377390  57.6430597 134.6547245 107.1058589  57.4608072
 133.6585984 107.3659404  58.5707491 133.4747534 104.0409504  59.0086936
 133.4196338 103.8753775  58.0675380 132.8493589 104.7485537  59.1649126
 130.7893441 106.3458416  78.3340499 131.6584601 106.5199068  77.9727134
 130.3100192 107.1652832  78.2116228 124.9579621 113.4655517  70.0129933
 125.8606868 113.4979127  70.3296428 124.7316991 112.5355967  70.0276268
 126.7133223 112.2186503  66.6740011 125.7628854 112.2188365  66.5604384
 127.0165709 111.4719238  66.1576046 142.4485917 118.0547041  67.7385774
 143.0864327 117.9353789  67.0349114 142.3306760 119.0027885  67.7973726
 139.2575623 118.0074470  67.6747298 138.9194134 117.8915534  66.7867833
 140.1265391 117.6065635  67.6548304 135.1162439 119.8609946  63.6644189
 134.5527304 119.7699883  62.8960477 135.0014834 119.0409850  64.1446682
 139.7395406 119.1609321  73.6333504 139.7284047 118.7662120  72.7614008
 139.9016045 118.4275394  74.2267275 132.6626871 121.3561138  66.5028410
 133.4548162 121.0151962  66.0874709 132.9023521 121.4656113  67.4230563
 140.6961997 123.5280914  58.9758654 140.0449977 124.1134994  58.5892668
 141.4906360 124.0587109  59.0353692 134.6217624 120.6170051  59.3745789
 135.3948500 120.0699038  59.2358664 134.9743023 121.4814300  59.5860250
 136.4602667 121.9446433  72.5812688 136.1692533 122.8492064  72.4659354
 137.0959651 121.9862961  73.2956757 137.3858874 119.3223282  69.1714048
 137.9822446 119.0979304  68.4571010 137.4433845 118.5808027  69.7739495
 136.9583902 116.7762717  57.0064238 137.2109423 116.2544238  56.2447701
 136.0208461 116.6128862  57.1090922 142.0027185 115.7798495  64.8138982
 142.7890274 115.3617918  64.4629399 142.2665889 116.6844588  64.9820630
 142.1737262 121.2171346  59.5127639 141.5383095 121.2905972  60.2248543
 141.8434669 121.8064944  58.8346718 147.4035612 115.7173729  65.7171960
 148.1360784 115.1472945  65.9509790 146.6474968 115.3295329  66.1578466
 136.6780191 118.6790823  59.2088613 136.5616449 118.0035726  59.8769698
 136.7882451 118.1923197  58.3920766 139.0211732 118.1400970  62.9135303
 138.6569939 117.6131591  63.6248224 139.8778848 117.7499439  62.7401788
 144.9261033 109.4295303  70.1766569 144.5944357 110.2990714  69.9527784
 144.3306646 109.1131587  70.8560599 138.6617219 113.1690870  57.9096651
 138.8291621 114.0371106  58.2767122 138.4714388 113.3318151  56.9857940
 141.4192552 121.6307849  69.5762482 141.1193275 122.5332887  69.4678289
 141.0743612 121.3640032  70.4283634 134.8705034 118.0821645  65.6099186
 133.9455530 117.9497860  65.8176878 135.1189447 118.8615865  66.1069128
 144.8189696 114.1490389  67.2559919 143.9106573 114.0805797  66.9618680
 144.7677292 114.6262334  68.0841744 138.6406440 115.6248527  58.8943318
 138.5206065 116.0705578  59.7328798 137.9459028 115.9733845  58.3356856
 132.2313845 117.7254919  66.4442975 132.3606226 117.9789398  67.3582387
 131.5511296 118.3182627  66.1247630 136.4013332 128.3952169  62.5433449
 136.3237362 129.3459994  62.6221930 135.7974976 128.0498041  63.2008376
 138.8930562 115.5680034  75.1994816 138.1163896 116.1273955  75.1897681
 139.5321125 116.0536817  75.7209686 146.6851342 112.3506827  69.0337793
 146.0425723 112.6439360  68.3877587 146.1806271 112.2359748  69.8390989
 144.3391506 116.0970000  59.7223652 145.2509362 116.3297387  59.5471350
 143.8301153 116.6807045  59.1598731 137.1476934 118.3765488  74.7612783
 137.8891618 118.9150532  74.4847607 136.4413919 119.0031777  74.9184335
 142.6232274 120.5194628  73.3584945 143.0315630 120.0777039  72.6139577
 141.9009535 119.9447256  73.6119138 138.9763344 115.4567235  70.7318502
 139.8224539 115.8806649  70.8753151 138.9161981 114.8000859  71.4257065
 142.9461088 121.0795819  67.1137234 142.3169951 121.2441533  66.4113301
 142.5586750 121.4937428  67.8848198 146.8250320 122.0150257  64.4681597
 146.1401358 122.3949158  63.9178631 146.9094170 122.6245583  65.2013545
 142.1262789 113.1171603  72.3899675 141.8823721 113.8713664  71.8533951
 142.4022720 113.4956951  73.2246922 144.0801252 119.6610216  71.0676941
 144.2918147 120.3041976  70.3911322 144.0331000 118.8272532  70.5998871
 141.6827481 112.2728036  67.9713513 140.8211960 112.5709290  68.2630251
 141.7089915 112.4898435  67.0394546 138.4989050 120.8170227  64.3787319
 138.9627396 121.0957930  63.5891941 138.2345848 119.9153672  64.1960409
 135.3913131 120.3641708  67.3167082 135.9614488 120.7928977  66.6784566
 135.9821243 120.0824293  68.0151268 137.4357936 116.9393379  61.1876884
 138.1381980 117.3914423  61.6550810 137.1038565 116.2977198  61.8156777
 135.8838298 115.5305136  75.5628093 135.2536958 116.2121417  75.7963490
 135.7774386 115.4188218  74.6181231 131.1783270 115.1976932  66.4894017
 130.3882324 115.4534461  66.0134128 131.6694518 116.0125270  66.5946058
 145.1947080 122.5382171  69.2399298 146.0164523 122.1362358  68.9581980
 145.1909483 122.4350405  70.1915414 133.1298016 115.5621511  63.4477494
 132.3329179 115.6740205  63.9660990 132.9023608 115.9008163  62.5818385
 138.9603683 122.0866214  71.3960009 139.0248116 122.5486622  72.2318180
 138.2514607 121.4563579  71.5242318 129.4620973 115.4507422  68.9209008
 129.7129012 116.3354432  69.1866584 129.9980522 115.2712024  68.1484100
 153.2853073 118.8820920  65.5884270 152.5316781 118.3128318  65.4328274
 153.4200614 118.8483584  66.5354904 138.6751701 123.7534322  61.2638989
 138.5397376 124.5985858  61.6923837 139.2161513 123.9553600  60.5004923
 135.1619040 109.8325902  77.9253344 134.7685986 109.2792100  78.6000988
 135.9785181 110.1436480  78.3159862 132.1281098 121.2709760  61.8366914
 132.6405619 122.0653010  61.9872479 132.7803811 120.5736050  61.7700516
 133.9375983 124.3875516  63.9189667 134.1142611 125.3093481  63.7310651
 134.7332816 124.0733935  64.3484047 138.0787001 111.2483781  75.5173601
 138.8196715 111.8490934  75.4378063 138.3104924 110.5061419  74.9591643
 133.2228339 116.4340148  73.7951830 133.1081855 115.5325405  74.0958929
 132.3672857 116.6803845  73.4436647 140.3020177 124.3757888  75.3939331
 139.8584031 123.5894267  75.0760236 140.9637391 124.5637039  74.7283222
 135.0607298 125.9053690  69.9200010 135.6114724 125.7770753  69.1477004
 134.2218774 126.2048579  69.5694902 142.4001415 124.6560688  73.4220732
 142.3819891 125.4769569  72.9301002 143.3221335 124.5314764  73.6470873
 138.8574469 122.1704818  74.2644241 139.3902806 121.4093106  74.0343549
 138.3288551 121.8778470  75.0068395 142.0244164 107.2764884  69.7937882
 141.6808434 108.1666525  69.7176993 142.3923127 107.0866541  68.9307467
 130.0930015 119.5998414  62.6126485 130.9305237 120.0095423  62.3960192
 130.2708283 118.6597856  62.5826678 141.9894447 117.2673495  58.3010318
 141.4741071 118.0378100  58.5398705 141.7171756 116.5938631  58.9243379
 139.5741558 112.1123196  63.3595556 138.7183155 111.7230046  63.1801195
 139.9868510 112.1915156  62.4995341 141.1040705 109.6469539  67.7587116
 140.6005500 109.6099674  66.9454921 141.3971312 110.5562282  67.8183772
 137.3483591 109.7308269  66.7653297 138.2136587 109.5351077  66.4059187
 137.4161100 109.5018620  67.6922654 146.9628721 120.0205850  60.2363491
 146.1858164 119.6817009  59.7918653 147.6420202 120.0258473  59.5618456
 141.7780750 115.1400587  60.1270099 141.4730886 115.4546736  60.9780242
 142.7311192 115.2182007  60.1697432 140.2227182 121.2990810  61.7763053
 139.6948544 120.5643570  61.4636290 139.7214685 122.0765487  61.5303021
 145.2020028 119.4939831  66.8930099 144.5443703 120.1839092  66.9810228
 146.0060427 119.8836263  67.2364085 134.9545910 111.9610477  64.1369664
 135.5289662 111.7385658  63.4042857 135.5416892 112.0299171  64.8898266
 144.0125487 117.8484204  64.9434041 144.5257369 118.4814195  65.4455750
 144.6626711 117.2485399  64.5777401 135.2815497 113.9914938  58.1565550
 134.4452809 114.3289624  58.4774824 135.1420267 113.8563917  57.2192686
 137.2568577 108.8351726  62.8644734 136.6032990 108.5200743  62.2401348
 137.2149052 108.2127466  63.5904557 138.3679782 119.1171021  54.7798026
 137.4606844 118.8860274  54.9789175 138.8650814 118.3208640  54.9672007
 141.2747861 127.8268528  57.6994712 140.6009560 128.1300225  58.3079670
 141.6613683 128.6297608  57.3500169 140.4906318 115.3233659  67.1892381
 139.5728879 115.5448606  67.0314069 140.9066461 115.3979970  66.3304089
 141.2741366 116.7225075  62.3195062 142.0213185 117.2346472  62.0102184
 141.5432955 116.4009127  63.1799455 139.5468016 119.2183615  59.3022016
 138.6379235 118.9342648  59.3994486 139.5763100 119.6382694  58.4425323
 144.7787283 122.8290205  63.0713183 144.3249610 121.9881115  63.1278374
 144.1481250 123.4651603  63.4087964 143.7220203 113.7582191  64.3013851
 142.9842960 113.2459577  64.6324093 143.9746976 113.3182573  63.4897128
 143.2220222 124.6666702  64.0063002 143.5143197 125.2271759  63.2875367
 143.7318843 124.9595263  64.7616161 143.8231830 106.5358443  64.8955620
 144.1290707 105.6755806  64.6081535 144.5484435 107.1276063  64.6954614
 130.1156186 116.9389130  63.2837218 129.9180586 116.3458490  62.5588285
 129.5602850 116.6341340  64.0013157 138.0952910 116.8312236  65.4031811
 138.1501520 115.8786072  65.3274288 137.2844112 116.9871675  65.8873110
 139.2444104 120.7592359  56.6410094 138.8063534 120.0428218  56.1815732
 139.9854544 120.9868474  56.0795186 136.0345270 115.4489296  63.1622190
 135.2213135 115.7483466  63.5687382 136.5304264 115.0544985  63.8796672
 138.1853848 125.4447053  65.0956455 138.1430026 125.6707899  64.1664987
 139.1016546 125.2110427  65.2442256 141.6319481 115.9131120  71.9937084
 141.9868869 116.1402593  72.8531550 142.2791613 116.2449497  71.3714339
 147.3617218 119.0349556  62.6986413 147.2235117 119.2251152  61.7707602
 147.0053437 119.7968939  63.1554464 135.5259344 113.0207651  68.7783425
 136.1658724 112.8796410  68.0806388 134.6936875 112.7342165  68.4022027
 147.3886598 121.1026083  67.7097684 147.8223105 121.0101372  68.5580739
 148.1018179 121.0783584  67.0717700 136.3019648 122.3210082  64.8918417
 137.0960247 121.8260402  64.6900992 135.5911341 121.7927945  64.5286123
 141.1214493 124.7028177  69.2430785 141.1751515 125.2719114  70.0108501
 140.2529274 124.8730062  68.8784822 132.6102412 116.4653163  60.9678170
 131.6800000 116.4037619  61.1848132 132.7059884 115.9429116  60.1714811
 132.5287961 112.9907976  63.5556412 132.7894778 113.9053310  63.4465572
 133.3505133 112.5232419  63.7053025 134.0012886 114.4045733  70.7255236
 134.6735940 114.1963096  70.0767885 133.1742673 114.2067819  70.2860469
 148.2502148 121.1449784  70.2430570 148.4438038 122.0495594  70.4889845
 148.1502766 120.6857203  71.0769155 139.9038458 111.0307674  72.7420897
 139.2566373 111.7297624  72.6485374 140.6739474 111.4643818  73.1097145
 143.3117256 121.2956527  75.8171450 143.1602763 121.0667078  74.9001534
 143.3021936 122.2527128  75.8302796 140.0802593 118.8688439  70.8017717
 141.0094653 119.0199599  70.6286684 139.6593623 118.9572460  69.9466363
 138.8790924 122.8939104  68.5716255 138.7402010 122.5257888  69.4442193
 138.0905521 123.4086743  68.4000212 139.4739076 127.9948200  59.9141791
 139.6490832 127.5236243  60.7287414 138.7871864 128.6213966  60.1423052
 140.4296140 122.2720706  65.9605092 140.0945972 122.2321476  66.8562742
 139.9300085 121.6065422  65.4875503 134.4040384 117.6788336  71.4857674
 134.2660181 116.9468575  72.0869213 135.3145307 117.5897237  71.2041861
 143.3655331 119.6176741  56.2342152 142.7484502 118.8923569  56.1375205
 142.8971820 120.3786101  55.8909226 137.0322684 117.3908296  70.9741353
 137.7422303 116.7501488  70.9327972 136.9891992 117.6421191  71.8967534
 145.0209463 124.3275649  73.8947932 144.9622009 123.6434869  73.2278515
 145.4228981 125.0694639  73.4428558 135.7451618 114.3773514  72.7936993
 135.2088975 113.9264252  73.4458589 135.1568327 114.5119423  72.0507457
 134.0400162 131.1437563  66.6881651 134.2796760 131.7756087  67.3660670
 133.1969358 130.7925603  66.9747011 135.1553877 113.8362165  55.3563456
 134.2783343 113.7150966  54.9925703 135.6311630 113.0448243  55.1042345
 145.0226870 122.2915233  72.1261912 144.1353649 121.9541155  72.2488311
 145.5925421 121.5598264  72.3630677 126.6756017 118.6239325  65.4504963
 127.3627057 118.3101055  64.8625979 126.5204146 119.5280689  65.1772215
 131.4790739 113.5129521  69.8789987 131.3948928 112.9055191  69.1440397
 130.6573446 114.0038540  69.8799483 138.5528024 126.9516685  69.0923155
 138.4798195 127.7571657  69.6042460 138.1105417 127.1508651  68.2671177
 138.3417803 126.1888455  62.6025977 137.5585325 126.7310136  62.6964201
 139.0410548 126.7062435  63.0020218 141.6514453 111.9983085  65.2460182
 142.1483153 111.2453047  64.9261252 140.8801435 112.0347402  64.6803392
 149.5044211 117.7023450  66.8878474 149.4934087 118.5848166  66.5172407
 148.6361590 117.3495001  66.6933011 141.0126707 126.8503519  71.2481314
 141.7254679 127.4850984  71.1757215 140.5216736 126.9467385  70.4321316
 142.7344234 120.7554772  62.8198606 141.8000513 120.8756235  62.6503310
 142.9120902 119.8527239  62.5558615 138.2349422 114.1400468  64.9731867
 137.8647210 113.5871508  65.6612772 138.7308514 113.5358601  64.4206867
 146.1216785 116.5972091  63.3548640 146.5877237 117.4300083  63.2808942
 146.5724286 116.1317073  64.0593898 136.0638621 124.5997963  72.0686885
 136.7648080 125.2334446  72.2216279 135.5933736 124.9412694  71.3082524
 144.1893016 122.9415913  60.3534792 144.4652860 122.8272507  61.2628666
 143.3197515 122.5433398  60.3146965 144.0933448 108.9652678  67.3939541
 143.1796528 109.1956905  67.5621748 144.5226550 109.0491122  68.2453573
 143.8639907 117.1542570  69.8939435 143.2111357 117.4018478  69.2391888
 144.2420286 116.3406709  69.5601912 140.8247080 127.1902264  63.9967605
 141.0069475 126.3723919  64.4595358 141.6480066 127.4069956  63.5592495
 141.1589246 126.1170449  61.2582654 141.6877012 125.6062903  60.6452816
 141.4217465 125.8012979  62.1228187 139.9127480 117.8962381  76.3805472
 139.2368117 117.7956511  77.0507847 140.7355113 117.7401595  76.8441469
 131.6606339 124.1334318  69.0017987 132.2459775 123.3878006  69.1345892
 131.4631177 124.4438275  69.8854651 134.5144994 127.1685565  64.0180430
 133.8455369 127.6531693  63.5344470 134.3757864 127.4154786  64.9323808
 126.2523993 116.7039918  67.7222431 126.2908093 116.1703509  68.5159549
 125.7464286 116.1775124  67.1033408 138.6550262 129.2029309  70.6163088
 139.2068570 129.3660930  71.3812173 138.9956456 129.7933747  69.9443113
 133.6314756 111.5504459  71.2184973 133.6956082 112.4119290  70.8062371
 133.5681876 110.9378460  70.4857331 133.1067028 113.6227591  74.8658007
 133.7339067 113.2404669  75.4795531 132.2494947 113.4041793  75.2313700
 143.5061137 124.0290566  76.4711743 144.0501041 124.6420525  75.9766697
 142.9247982 124.5870145  76.9878756 129.8832571 115.4304020  60.7976362
 130.1786012 114.5214699  60.7443416 128.9820607 115.4091760  60.4757364
 141.7918650 127.1511284  67.6026770 141.6669789 126.3501024  67.0937716
 142.4497741 127.6457478  67.1140740 133.4126818 113.5060017  66.7803911
 132.6913404 114.1195985  66.6411384 134.2020074 114.0417782  66.7020556
 143.8553558 124.9520304  69.2306320 142.9083894 124.8325656  69.1584647
 144.2036331 124.0642803  69.3132582 136.2153131 110.8414443  73.0544562
 136.7387533 111.0876740  73.8170872 135.9965465 111.6734478  72.6347700
 131.6120413 113.1118118  60.9215687 131.2833119 112.2315497  60.7390793
 131.9659783 113.0565787  61.8092076 140.8599991 124.7473021  65.4310673
 140.7124954 123.8189728  65.6118243 141.6853485 124.7693111  64.9467748
 134.7262236 113.3991088  61.2891165 135.0658308 113.9277009  60.5669773
 135.1734356 113.7371494  62.0649731 144.4634113 125.5701579  66.5175545
 145.3880661 125.3644441  66.3799997 144.2949417 125.3217981  67.4264887
 137.4205677 111.7828139  70.7394233 137.0802497 110.9835952  71.1414913
 136.7144683 112.0829849  70.1671066 138.0722148 108.8677451  69.1921556
 138.8948218 108.3937929  69.0700446 138.3160212 109.6467935  69.6920242
 136.7130383 111.8965709  59.4884458 137.4338745 112.2746962  58.9848174
 136.0895687 112.6154586  59.5919435 140.8561506 112.6010858  60.4242790
 141.0725120 113.4835496  60.1231618 140.3755573 112.2097072  59.6948432
 135.5960727 115.5596572  67.0013534 135.4505308 115.8736875  67.8937816
 135.1185931 116.1781472  66.4484433 137.4557110 112.5499120  67.0494424
 137.4418679 111.6540213  66.7126722 138.1729538 112.5569783  67.6832710
 139.3083241 112.9836460  69.0947551 139.0501019 113.9053530  69.0931882
 138.7768281 112.5866894  69.7848016 144.2529429 126.0887247  61.8737637
 144.4266307 125.5233669  61.1211489 144.7458321 126.8888142  61.6917127
 130.0706389 118.1001916  69.9401196 129.5259857 118.8761724  70.0721470
 130.9485739 118.4472720  69.7820317 136.8594006 111.4313500  62.3181994
 136.9809917 110.5030146  62.5172882 136.5696048 111.4452186  61.4060310
 139.7285196 109.1168410  65.4548714 139.7506893 109.1807743  64.5000694
 140.1453255 108.2772919  65.6489220 150.1068821 118.8523670  63.4927937
 150.5499967 118.1030995  63.0947060 149.2295331 118.8433806  63.1101669
 145.2404602 125.4054011  58.9734535 145.9355507 126.0260704  59.1921850
 145.5827752 124.5549363  59.2486913 130.8572411 117.2271812  72.8331353
 130.1154147 117.3754448  73.4195983 130.5365155 117.4880078  71.9698102
 147.1396025 122.8553717  60.5021866 147.6647349 123.1940990  59.7771186
 147.0518378 121.9200732  60.3185001 138.8016074 126.7687790  72.6311743
 139.1103200 126.5236937  73.5034442 139.5991556 126.9734429  72.1430613
 138.8236686 128.9225700  64.8617119 138.3841676 128.4302079  65.5549976
 139.5744803 128.3798668  64.6209194 131.3029025 125.1137241  64.8641747
 132.1287045 124.8141013  64.4840391 130.9523077 124.3444863  65.3131536
 136.2710558 124.4663709  66.9339421 135.6490567 123.8034414  66.6341649
 136.9415425 124.4924841  66.2513069 129.5037630 123.0323567  65.8230681
 128.6669538 122.6045742  65.6414682 129.4761275 123.2256011  66.7601472
 136.3435085 112.9445497  76.5271927 136.3923241 113.8207620  76.1449696
 136.8857600 112.4022890  75.9543570 146.8289931 123.4886620  75.8073064
 146.0385475 123.4710759  75.2677563 146.5923286 124.0274914  76.5622100
 146.9487806 120.3379087  73.1205792 146.9985811 120.1729094  74.0621315
 146.8401730 119.4706346  72.7303673 135.8324065 123.0167633  60.4097881
 135.9812185 123.7003097  59.7564554 136.6390508 122.9972723  60.9247337
 144.2391569 116.3210015  74.4365099 145.1401431 116.1816480  74.1449097
 144.3139543 116.4864470  75.3763277 138.5734374 113.6976870  73.2818285
 137.7037683 113.9910436  73.0100874 138.8093854 114.2817315  74.0025549
 148.4506003 122.7576028  73.3647814 148.1590811 123.1206009  74.2011275
 147.8378134 122.0443037  73.1861146 149.6501685 120.3228908  65.8850384
 150.4848577 120.7618712  66.0487945 149.7860814 119.8467561  65.0658630
 146.6993191 117.8808643  71.8327872 147.1747313 118.0736289  71.0246723
 145.7758757 117.9367829  71.5871256 133.5876698 119.0432810  61.4158950
 133.3422740 118.1395140  61.6139160 133.7572612 119.0449961  60.4738428
 141.2773408 109.9156487  70.7983706 141.7955352 110.6517513  70.4730194
 140.9228541 110.2220480  71.6330465 132.8572345 114.7761168  58.9145112
 132.1641590 114.8505523  58.2585148 132.6124097 114.0121511  59.4366629
 141.5286002 106.3356769  66.3184602 141.8087756 105.6679958  66.9445029
 142.3136609 106.5285865  65.8059266 139.3319470 125.5115763  57.8809629
 138.7593437 126.1305950  57.4280101 139.9052264 126.0615125  58.4149551
 145.3994860 114.7574403  70.0656178 146.3512283 114.8572501  70.0868402
 145.2298311 113.9652672  70.5754262 143.4209240 111.8429986  70.2515578
 142.8259172 112.1234999  69.5562067 143.1358936 112.3323887  71.0232320
 142.5516730 125.7952913  59.0118211 143.4847403 125.7298475  59.2151086
 142.4639943 126.6309180  58.5532744 145.1804747 125.1118783  55.9722159
 145.1018378 124.7778647  56.8657916 146.0014414 125.6040551  55.9713631
 147.8782938 117.9780523  69.1798477 147.8459258 117.0396523  69.3658161
 148.4883562 118.0564559  68.4464302 139.7166269 116.8476576  55.2225681
 140.6625374 116.7182784  55.2914099 139.3380514 116.1091238  55.6995109
 148.0277427 114.7691566  69.2256760 147.5116475 113.9850023  69.0386689
 148.9117375 114.4410283  69.3903280 145.6888153 108.5132582  65.1852573
 145.4912975 108.2047670  66.0695905 146.2987859 109.2394221  65.3150503
 153.6959488 119.0396530  68.3204514 154.4262876 118.7781818  68.8812217
 153.0866433 118.3025252  68.3606582 151.7774785 117.1804392  68.9178965
 151.0507949 117.0460357  68.3095457 151.3622072 117.4881221  69.7235683
 139.6004961 120.8994322  76.6826338 140.5207971 121.0772921  76.8766385
 139.5654544 119.9550367  76.5306037 137.9009186 114.7726552  55.1580566
 136.9940641 114.4759665  55.2343280 138.1785167 114.4756370  54.2914853
 128.8187126 116.0932916  65.6079613 128.4989911 115.2398224  65.3153987
 128.2720555 116.3081494  66.3637580 132.5967034 118.8095357  69.3249119
 132.8153044 119.7412464  69.3437153 133.0092808 118.4503331  70.1103923
 139.5171252 109.3163442  61.3124808 138.7071980 108.9710527  61.6880054
 140.2055669 109.0070986  61.9012419 141.4461800 108.3941489  62.9349104
 141.9992839 108.8136942  63.5939127 141.6831886 107.4677237  62.9772060
 137.4694899 114.3828562  78.7151868 137.3691626 115.3322919  78.6463959
 137.2516441 114.0546801  77.8427938 136.6707971 111.6313487  55.2992546
 137.5327135 111.9568386  55.5588363 136.8558315 110.8444983  54.7865611
 128.6875386 119.7135827  67.5772734 127.9938858 119.2989780  67.0642689
 129.4348377 119.7556364  66.9806153 144.8240607 110.5042014  62.4427769
 144.2439276 111.1626818  62.0605821 144.5576540 109.6819358  62.0315186
 143.2744174 109.9047071  64.6449089 143.7743952 110.0163606  63.8363408
 143.9179781 109.6008124  65.2849897 137.3326169 117.8125701  77.5316930
 136.8493251 118.6126061  77.7380819 137.4187108 117.8233646  76.5784374
 130.6012129 119.6454081  65.4538749 130.5782817 119.7441768  64.5020632
 130.9112765 120.4919232  65.7755915 133.2599507 121.7030236  69.5685364
 134.2142760 121.6714178  69.5015295 133.0612030 121.2420860  70.3835590
 133.8498889 120.2731352  72.1356161 134.6691778 120.7675431  72.1590999
 134.1235697 119.3563320  72.1073729 143.6065485 112.6642104  61.4984117
 142.7191340 112.9491755  61.2804312 144.0219474 112.5035868  60.6511394
 146.9580021 112.6888625  65.2138456 147.7340411 113.1785078  65.4863073
 146.2328155 113.1146679  65.6710326 149.3952580 113.4016244  66.2712397
 149.9897071 113.1611980  65.5605705 149.4679164 112.6823375  66.8985933
 131.6149736 127.2449855  66.5855562 131.4804204 126.4850256  66.0193560
 131.1981798 127.9690755  66.1184350 142.7508699 122.4286779  55.5932137
 143.4544549 122.6336781  56.2089792 142.0271347 122.9963541  55.8581220
 143.5806509 118.1796640  61.7134407 143.5241710 118.6365192  60.8742039
 144.1334851 117.4187325  61.5357250 147.3911315 113.9686372  62.5384527
 147.1348249 113.5683008  63.3692734 146.7664183 114.6830166  62.4134666
 151.7023653 116.7082445  65.0455818 151.1423211 116.7775635  65.8187380
 151.0967156 116.5323430  64.3255314 134.7718861 128.1419172  66.7974004
 134.6551246 129.0864605  66.6952694 133.9511308 127.8392734  67.1859803
 144.6595396 122.8669308  57.6430597 145.4941000 122.4350507  57.4608072
 144.4979739 122.6951322  58.5707491 144.3141288 119.3701421  59.0086936
 144.2590092 119.2045693  58.0675380 143.6887343 120.0777454  59.1649126
 129.1033803 114.6069486  72.8348358 129.7492667 114.0968440  73.3235584
 128.8950954 115.3438167  73.4091784 141.6287195 121.6750333  78.3340499
 142.4978355 121.8490986  77.9727134 141.1493947 122.4944750  78.2116228
 137.6237414 108.8709530  58.5872255 137.6116084 109.8151370  58.7440525
 138.5160836 108.6879676  58.2931716 135.7973376 128.7947434  70.0129933
 136.7000622 128.8271044  70.3296428 135.5710746 127.8647885  70.0276268
 137.5526978 127.5478421  66.6740011 136.6022609 127.5480282  66.5604384
 137.8559464 126.8011155  66.1576046 141.4389533 105.4652307  62.8418191
 140.6721929 104.9110794  62.9874874 141.8500238 105.5374176  63.7032343
 133.4431294 111.7537103  76.9323373 134.3062756 111.3973908  77.1426697
 132.8696705 111.4150998  77.6198777 153.2879671 133.3838959  67.7385774
 153.9258081 133.2645707  67.0349114 153.1700514 134.3319803  67.7973726
 150.0969377 133.3366387  67.6747298 149.7587889 133.2207452  66.7867833
 150.9659146 132.9357552  67.6548304 145.9556193 135.1901864  63.6644189
 145.3921058 135.0991801  62.8960477 145.8408588 134.3701768  64.1446682
 150.5789160 134.4901239  73.6333504 150.5677801 134.0954037  72.7614008
 150.7409800 133.7567312  74.2267275 143.5020625 136.6853055  66.5028410
 144.2941917 136.3443880  66.0874709 143.7417275 136.7948030  67.4230563
 151.5355752 138.8572831  58.9758654 150.8843732 139.4426912  58.5892668
 152.3300115 139.3879026  59.0353692 145.4611379 135.9461969  59.3745789
 146.2342255 135.3990956  59.2358664 145.8136778 136.8106218  59.5860250
 147.2996422 137.2738351  72.5812688 147.0086288 138.1783982  72.4659354
 147.9353406 137.3154878  73.2956757 148.2252628 134.6515199  69.1714048
 148.8216201 134.4271222  68.4571010 148.2827600 133.9099945  69.7739495
 147.7977657 132.1054635  57.0064238 148.0503177 131.5836156  56.2447701
 146.8602216 131.9420780  57.1090922 152.8420940 131.1090413  64.8138982
 153.6284029 130.6909836  64.4629399 153.1059644 132.0136505  64.9820630
 153.0131017 136.5463263  59.5127639 152.3776850 136.6197890  60.2248543
 152.6828423 137.1356862  58.8346718 158.2429367 131.0465646  65.7171960
 158.9754539 130.4764863  65.9509790 157.4868722 130.6587247  66.1578466
 147.5173946 134.0082741  59.2088613 147.4010204 133.3327644  59.8769698
 147.6276205 133.5215115  58.3920766 149.8605486 133.4692888  62.9135303
 149.4963694 132.9423509  63.6248224 150.7172602 133.0791357  62.7401788
 155.7654787 124.7587220  70.1766569 155.4338112 125.6282631  69.9527784
 155.1700400 124.4423504  70.8560599 149.5010973 128.4982787  57.9096651
 149.6685376 129.3663024  58.2767122 149.3108143 128.6610069  56.9857940
 152.2586307 136.9599766  69.5762482 151.9587030 137.8624805  69.4678289
 151.9137366 136.6931950  70.4283634 145.7098788 133.4113563  65.6099186
 144.7849285 133.2789777  65.8176878 145.9583201 134.1907782  66.1069128
 155.6583450 129.4782306  67.2559919 154.7500328 129.4097715  66.9618680
 155.6071046 129.9554251  68.0841744 149.4800194 130.9540445  58.8943318
 149.3599820 131.3997496  59.7328798 148.7852783 131.3025763  58.3356856
 143.0707599 133.0546837  66.4442975 143.1999980 133.3081316  67.3582387
 142.3905050 133.6474545  66.1247630 149.7324316 130.8971952  75.1994816
 148.9557650 131.4565872  75.1897681 150.3714879 131.3828735  75.7209686
 157.5245097 127.6798745  69.0337793 156.8819477 127.9731278  68.3877587
 157.0200025 127.5651665  69.8390989 155.1785260 131.4261918  59.7223652
 156.0903117 131.6589305  59.5471350 154.6694908 132.0098962  59.1598731
 147.9870689 133.7057405  74.7612783 148.7285373 134.2442449  74.4847607
 147.2807674 134.3323694  74.9184335 153.4626028 135.8486546  73.3584945
 153.8709384 135.4068956  72.6139577 152.7403290 135.2739173  73.6119138
 149.8157098 130.7859153  70.7318502 150.6618293 131.2098566  70.8753151
 149.7555736 130.1292777  71.4257065 153.7854843 136.4087737  67.1137234
 153.1563705 136.5733451  66.4113301 153.3980505 136.8229346  67.8848198
 152.9656544 128.4463521  72.3899675 152.7217475 129.2005582  71.8533951
 153.2416474 128.8248869  73.2246922 154.9195006 134.9902133  71.0676941
 155.1311902 135.6333893  70.3911322 154.8724755 134.1564450  70.5998871
 152.5221235 127.6019954  67.9713513 151.6605714 127.9001208  68.2630251
 152.5483670 127.8190353  67.0394546 149.3382805 136.1462145  64.3787319
 149.8021150 136.4249848  63.5891941 149.0739603 135.2445589  64.1960409
 146.2306886 135.6933626  67.3167082 146.8008243 136.1220895  66.6784566
 146.8214998 135.4116211  68.0151268 148.2751691 132.2685297  61.1876884
 148.9775734 132.7206341  61.6550810 147.9432319 131.6269116  61.8156777
 146.7232052 130.8597054  75.5628093 146.0930713 131.5413334  75.7963490
 146.6168140 130.7480135  74.6181231 142.0177025 130.5268850  66.4894017
 141.2276079 130.7826378  66.0134128 142.5088272 131.3417188  66.5946058
 156.0340834 137.8674089  69.2399298 156.8558278 137.4654276  68.9581980
 156.0303237 137.7642323  70.1915414 143.9691770 130.8913429  63.4477494
 143.1722933 131.0032123  63.9660990 143.7417362 131.2300081  62.5818385
 149.7997438 137.4158132  71.3960009 149.8641870 137.8778539  72.2318180
 149.0908362 136.7855497  71.5242318 140.3014728 130.7799340  68.9209008
 140.5522766 131.6646350  69.1866584 140.8374276 130.6003942  68.1484100
 149.5145455 139.0826240  61.2638989 149.3791130 139.9277775  61.6923837
 150.0555268 139.2845517  60.5004923 146.0012795 125.1617819  77.9253344
 145.6079741 124.6084018  78.6000988 146.8178935 125.4728398  78.3159862
 142.9674853 136.6001678  61.8366914 143.4799373 137.3944928  61.9872479
 143.6197566 135.9027968  61.7700516 144.7769737 139.7167434  63.9189667
 144.9536366 140.6385399  63.7310651 145.5726571 139.4025853  64.3484047
 148.9180756 126.5775699  75.5173601 149.6590469 127.1782852  75.4378063
 149.1498679 125.8353336  74.9591643 144.0622094 131.7632066  73.7951830
 143.9475609 130.8617323  74.0958929 143.2066612 132.0095763  73.4436647
 151.1413932 139.7049806  75.3939331 150.6977786 138.9186185  75.0760236
 151.8031145 139.8928957  74.7283222 145.9001053 141.2345608  69.9200010
 146.4508478 141.1062671  69.1477004 145.0612529 141.5340497  69.5694902
 149.6968224 137.4996736  74.2644241 150.2296561 136.7385024  74.0343549
 149.1682305 137.2070387  75.0068395 152.8637919 122.6056801  69.7937882
 152.5202188 123.4958443  69.7176993 153.2316882 122.4158459  68.9307467
 140.9323770 134.9290332  62.6126485 141.7698992 135.3387340  62.3960192
 141.1102037 133.9889774  62.5826678 152.8288202 132.5965413  58.3010318
 152.3134825 133.3670017  58.5398705 152.5565510 131.9230549  58.9243379
 150.4135313 127.4415113  63.3595556 149.5576909 127.0521964  63.1801195
 150.8262264 127.5207074  62.4995341 151.9434459 124.9761457  67.7587116
 151.4399255 124.9391592  66.9454921 152.2365066 125.8854199  67.8183772
 148.1877345 125.0600186  66.7653297 149.0530342 124.8642995  66.4059187
 148.2554854 124.8310538  67.6922654 157.8022476 135.3497767  60.2363491
 157.0251919 135.0108927  59.7918653 158.4813957 135.3550390  59.5618456
 152.6174505 130.4692505  60.1270099 152.3124640 130.7838654  60.9780242
 153.5704947 130.5473925  60.1697432 151.0620937 136.6282728  61.7763053
 150.5342298 135.8935488  61.4636290 150.5608439 137.4057404  61.5303021
 156.0413783 134.8231748  66.8930099 155.3837457 135.5131010  66.9810228
 156.8454182 135.2128180  67.2364085 145.7939664 127.2902394  64.1369664
 146.3683416 127.0677576  63.4042857 146.3810647 127.3591089  64.8898266
 154.8519241 133.1776121  64.9434041 155.3651123 133.8106113  65.4455750
 155.5020465 132.5777317  64.5777401 146.1209251 129.3206855  58.1565550
 145.2846564 129.6581542  58.4774824 145.9814021 129.1855835  57.2192686
 148.0962332 124.1643643  62.8644734 147.4426744 123.8492660  62.2401348
 148.0542806 123.5419384  63.5904557 149.2073537 134.4462938  54.7798026
 148.3000599 134.2152192  54.9789175 149.7044569 133.6500558  54.9672007
 151.3300072 130.6525577  67.1892381 150.4122634 130.8740524  67.0314069
 151.7460216 130.7271887  66.3304089 152.1135120 132.0516992  62.3195062
 152.8606939 132.5638390  62.0102184 152.3826710 131.7301045  63.1799455
 150.3861770 134.5475533  59.3022016 149.4772990 134.2634566  59.3994486
 150.4156854 134.9674612  58.4425323 155.6181038 138.1582123  63.0713183
 155.1643365 137.3173033  63.1278374 154.9875004 138.7943521  63.4087964
 154.5613957 129.0874109  64.3013851 153.8236714 128.5751495  64.6324093
 154.8140731 128.6474490  63.4897128 154.6625585 121.8650361  64.8955620
 154.9684461 121.0047724  64.6081535 155.3878189 122.4567981  64.6954614
 140.9549941 132.2681047  63.2837218 140.7574340 131.6750408  62.5588285
 140.3996605 131.9633257  64.0013157 148.9346664 132.1604154  65.4031811
 148.9895274 131.2077990  65.3274288 148.1237866 132.3163593  65.8873110
 150.0837858 136.0884277  56.6410094 149.6457288 135.3720136  56.1815732
 150.8248299 136.3160392  56.0795186 146.8739024 130.7781213  63.1622190
 146.0606890 131.0775384  63.5687382 147.3698018 130.3836902  63.8796672
 149.0247602 140.7738970  65.0956455 148.9823781 140.9999817  64.1664987
 149.9410301 140.5402345  65.2442256 152.4713236 131.2423038  71.9937084
 152.8262624 131.4694511  72.8531550 153.1185367 131.5741415  71.3714339
 158.2010973 134.3641474  62.6986413 158.0628871 134.5543070  61.7707602
 157.8447192 135.1260857  63.1554464 146.3653099 128.3499569  68.7783425
 147.0052478 128.2088328  68.0806388 145.5330630 128.0634082  68.4022027
 147.1413403 137.6501999  64.8918417 147.9354001 137.1552320  64.6900992
 146.4305095 137.1219863  64.5286123 151.9608247 140.0320095  69.2430785
 152.0145270 140.6011031  70.0108501 151.0923029 140.2021980  68.8784822
 143.4496166 131.7945081  60.9678170 142.5193754 131.7329537  61.1848132
 143.5453638 131.2721034  60.1714811 143.3681715 128.3199894  63.5556412
 143.6288533 129.2345227  63.4465572 144.1898888 127.8524337  63.7053025
 144.8406641 129.7337651  70.7255236 145.5129694 129.5255013  70.0767885
 144.0136427 129.5359737  70.2860469 150.7432213 126.3599592  72.7420897
 150.0960128 127.0589542  72.6485374 151.5133228 126.7935736  73.1097145
 154.1511011 136.6248444  75.8171450 153.9996517 136.3958996  74.9001534
 154.1415690 137.5819046  75.8302796 150.9196347 134.1980357  70.8017717
 151.8488407 134.3491517  70.6286684 150.4987377 134.2864378  69.9466363
 149.7184679 138.2231021  68.5716255 149.5795765 137.8549806  69.4442193
 148.9299275 138.7378661  68.4000212 151.2689894 137.6012624  65.9605092
 150.9339727 137.5613394  66.8562742 150.7693840 136.9357340  65.4875503
 145.2434138 133.0080254  71.4857674 145.1053936 132.2760493  72.0869213
 146.1539061 132.9189154  71.2041861 154.2049086 134.9468658  56.2342152
 153.5878256 134.2215487  56.1375205 153.7365574 135.7078019  55.8909226
 147.8716439 132.7200213  70.9741353 148.5816057 132.0793406  70.9327972
 147.8285747 132.9713108  71.8967534 146.5845373 129.7065431  72.7936993
 146.0482730 129.2556170  73.4458589 145.9962081 129.8411340  72.0507457
 145.9947632 129.1654083  55.3563456 145.1177098 129.0442884  54.9925703
 146.4705385 128.3740161  55.1042345 155.8620625 137.6207151  72.1261912
 154.9747403 137.2833073  72.2488311 156.4319176 136.8890182  72.3630677
 137.5149772 133.9531242  65.4504963 138.2020812 133.6392973  64.8625979
 137.3597900 134.8572607  65.1772215 142.3184494 128.8421439  69.8789987
 142.2342683 128.2347109  69.1440397 141.4967200 129.3330457  69.8799483
 149.1811558 141.5180373  62.6025977 148.3979080 142.0602053  62.6964201
 149.8804303 142.0354353  63.0020218 152.4908208 127.3275003  65.2460182
 152.9876907 126.5744965  64.9261252 151.7195189 127.3639319  64.6803392
 153.5737988 136.0846690  62.8198606 152.6394267 136.2048152  62.6503310
 153.7514657 135.1819157  62.5558615 149.0743176 129.4692386  64.9731867
 148.7040964 128.9163426  65.6612772 149.5702269 128.8650519  64.4206867
 156.9610540 131.9264009  63.3548640 157.4270992 132.7592001  63.2808942
 157.4118040 131.4608991  64.0593898 146.9032375 139.9289881  72.0686885
 147.6041835 140.5626364  72.2216279 146.4327490 140.2704612  71.3082524
 155.0286771 138.2707830  60.3534792 155.3046615 138.1564425  61.2628666
 154.1591270 137.8725315  60.3146965 154.9327203 124.2944596  67.3939541
 154.0190282 124.5248823  67.5621748 155.3620304 124.3783040  68.2453573
 154.7033661 132.4834488  69.8939435 154.0505111 132.7310395  69.2391888
 155.0814041 131.6698626  69.5601912 150.7521234 133.2254299  76.3805472
 150.0761871 133.1248428  77.0507847 151.5748868 133.0693513  76.8441469
 142.5000093 139.4626236  69.0017987 143.0853530 138.7169924  69.1345892
 142.3024932 139.7730192  69.8854651 145.3538748 142.4977483  64.0180430
 144.6849124 142.9823611  63.5344470 145.2151618 142.7446703  64.9323808
 137.0917748 132.0331836  67.7222431 137.1301847 131.4995427  68.5159549
 136.5858041 131.5067041  67.1033408 144.4708510 126.8796376  71.2184973
 144.5349837 127.7411207  70.8062371 144.4075630 126.2670378  70.4857331
 143.9460783 128.9519509  74.8658007 144.5732821 128.5696586  75.4795531
 143.0888702 128.7333711  75.2313700 140.7226325 130.7595938  60.7976362
 141.0179767 129.8506616  60.7443416 139.8214361 130.7383677  60.4757364
 144.2520572 128.8351935  66.7803911 143.5307158 129.4487902  66.6411384
 145.0413828 129.3709699  66.7020556 147.0546886 126.1706361  73.0544562
 147.5781288 126.4168658  73.8170872 146.8359219 127.0026396  72.6347700
 142.4514167 128.4410036  60.9215687 142.1226873 127.5607415  60.7390793
 142.8053538 128.3857704  61.8092076 151.6993746 140.0764938  65.4310673
 151.5518708 139.1481646  65.6118243 152.5247239 140.0985029  64.9467748
 145.5655990 128.7283005  61.2891165 145.9052063 129.2568927  60.5669773
 146.0128111 129.0663412  62.0649731 148.2599431 127.1120056  70.7394233
 147.9196251 126.3127869  71.1414913 147.5538437 127.4121767  70.1671066
 148.9115903 124.1969369  69.1921556 149.7341972 123.7229847  69.0700446
 149.1553966 124.9759852  69.6920242 147.5524137 127.2257627  59.4884458
 148.2732500 127.6038880  58.9848174 146.9289441 127.9446504  59.5919435
 151.6955260 127.9302776  60.4242790 151.9118875 128.8127414  60.1231618
 151.2149327 127.5388989  59.6948432 146.4354482 130.8888489  67.0013534
 146.2899062 131.2028792  67.8937816 145.9579685 131.5073390  66.4484433
 148.2950864 127.8791037  67.0494424 148.2812433 126.9832131  66.7126722
 149.0123293 127.8861701  67.6832710 150.1476995 128.3128377  69.0947551
 149.8894773 129.2345448  69.0931882 149.6162036 127.9158812  69.7848016
 140.9100144 133.4293834  69.9401196 140.3653612 134.2053642  70.0721470
 141.7879494 133.7764638  69.7820317 147.6987760 126.7605418  62.3181994
 147.8203672 125.8322064  62.5172882 147.4089803 126.7744103  61.4060310
 150.5678951 124.4460328  65.4548714 150.5900648 124.5099661  64.5000694
 150.9847010 123.6064837  65.6489220 141.6966166 132.5563730  72.8331353
 140.9547902 132.7046365  73.4195983 141.3758910 132.8171996  71.9698102
 142.1422779 140.4429159  64.8641747 142.9680799 140.1432930  64.4840391
 141.7916831 139.6736781  65.3131536 147.1104312 139.7955627  66.9339421
 146.4884322 139.1326332  66.6341649 147.7809179 139.8216759  66.2513069
 140.3431384 138.3615485  65.8230681 139.5063293 137.9337659  65.6414682
 140.3155030 138.5547928  66.7601472 147.1828840 128.2737415  76.5271927
 147.2316995 129.1499538  76.1449696 147.7251354 127.7314808  75.9543570
 157.7881561 135.6671005  73.1205792 157.8379566 135.5021012  74.0621315
 157.6795484 134.7998264  72.7303673 146.6717819 138.3459550  60.4097881
 146.8205940 139.0295015  59.7564554 147.4784263 138.3264640  60.9247337
 155.0785323 131.6501933  74.4365099 155.9795186 131.5108397  74.1449097
 155.1533298 131.8156387  75.3763277 149.4128128 129.0268787  73.2818285
 148.5431438 129.3202353  73.0100874 149.6487609 129.6109232  74.0025549
 157.5386946 133.2100561  71.8327872 158.0141067 133.4028207  71.0246723
 156.6152511 133.2659746  71.5871256 144.4270452 134.3724728  61.4158950
 144.1816494 133.4687058  61.6139160 144.5966367 134.3741878  60.4738428
 152.1167162 125.2448404  70.7983706 152.6349106 125.9809431  70.4730194
 151.7622295 125.5512398  71.6330465 143.6966100 130.1053085  58.9145112
 143.0035345 130.1797440  58.2585148 143.4517852 129.3413429  59.4366629
 152.3679756 121.6648687  66.3184602 152.6481510 120.9971876  66.9445029
 153.1530363 121.8577782  65.8059266 150.1713225 140.8407681  57.8809629
 149.5987192 141.4597868  57.4280101 150.7446019 141.3907042  58.4149551
 156.2388615 130.0866321  70.0656178 157.1906038 130.1864418  70.0868402
 156.0692065 129.2944589  70.5754262 154.2602994 127.1721904  70.2515578
 153.6652926 127.4526917  69.5562067 153.9752691 127.6615805  71.0232320
 150.5560023 132.1768493  55.2225681 151.5019128 132.0474702  55.2914099
 150.1774268 131.4383155  55.6995109 156.5281908 123.8424499  65.1852573
 156.3306729 123.5339588  66.0695905 157.1381614 124.5686138  65.3150503
 150.4398716 136.2286240  76.6826338 151.3601725 136.4064839  76.8766385
 150.4048299 135.2842285  76.5306037 148.7402941 130.1018470  55.1580566
 147.8334396 129.8051582  55.2343280 149.0178922 129.8048288  54.2914853
 139.6580881 131.4224833  65.6079613 139.3383665 130.5690141  65.3153987
 139.1114309 131.6373411  66.3637580 143.4360788 134.1387274  69.3249119
 143.6546798 135.0704382  69.3437153 143.8486562 133.7795249  70.1103923
 150.3565006 124.6455359  61.3124808 149.5465735 124.3002444  61.6880054
 151.0449423 124.3362903  61.9012419 152.2855555 123.7233406  62.9349104
 152.8386593 124.1428860  63.5939127 152.5225641 122.7969154  62.9772060
 148.3088654 129.7120480  78.7151868 148.2085381 130.6614837  78.6463959
 148.0910196 129.3838719  77.8427938 147.5101725 126.9605405  55.2992546
 148.3720889 127.2860303  55.5588363 147.6952069 126.1736901  54.7865611
 139.5269141 135.0427745  67.5772734 138.8332612 134.6281697  67.0642689
 140.2742132 135.0848281  66.9806153 155.6634362 125.8333931  62.4427769
 155.0833031 126.4918735  62.0605821 155.3970294 125.0111276  62.0315186
 154.1137928 125.2338989  64.6449089 154.6137706 125.3455524  63.8363408
 154.7573536 124.9300042  65.2849897 148.1719924 133.1417619  77.5316930
 147.6887006 133.9417979  77.7380819 148.2580863 133.1525564  76.5784374
 141.4405883 134.9745998  65.4538749 141.4176572 135.0733686  64.5020632
 141.7506520 135.8211149  65.7755915 144.0993261 137.0322153  69.5685364
 145.0536515 137.0006096  69.5015295 143.9005785 136.5712777  70.3835590
 144.6892643 135.6023270  72.1356161 145.5085532 136.0967348  72.1590999
 144.9629451 134.6855238  72.1073729 154.4459240 127.9934022  61.4984117
 153.5585095 128.2783672  61.2804312 154.8613229 127.8327785  60.6511394
 157.7973776 128.0180543  65.2138456 158.5734166 128.5076995  65.4863073
 157.0721910 128.4438597  65.6710326 142.4543490 142.5741773  66.5855562
 142.3197958 141.8142174  66.0193560 142.0375552 143.2982673  66.1184350
 153.5902453 137.7578697  55.5932137 154.2938303 137.9628699  56.2089792
 152.8665102 138.3255458  55.8581220 154.4200263 133.5088558  61.7134407
 154.3635465 133.9657109  60.8742039 154.9728606 132.7479242  61.5357250
 158.2305069 129.2978290  62.5384527 157.9742004 128.8974925  63.3692734
 157.6057937 130.0122084  62.4134666 145.6112616 143.4711090  66.7974004
 145.4945000 144.4156522  66.6952694 144.7905062 143.1684652  67.1859803
 155.4989151 138.1961226  57.6430597 156.3334754 137.7642424  57.4608072
 155.3373493 138.0243239  58.5707491 155.1535043 134.6993339  59.0086936
 155.0983846 134.5337610  58.0675380 154.5281098 135.4069372  59.1649126
 139.9427558 129.9361403  72.8348358 140.5886421 129.4260357  73.3235584
 139.7344709 130.6730085  73.4091784 152.4680950 137.0042251  78.3340499
 153.3372110 137.1782903  77.9727134 151.9887701 137.8236668  78.2116228
 148.4631168 124.2001448  58.5872255 148.4509838 125.1443288  58.7440525
 149.3554590 124.0171593  58.2931716 146.6367130 144.1239352  70.0129933
 147.5394377 144.1562962  70.3296428 146.4104500 143.1939803  70.0276268
 148.3920732 142.8770338  66.6740011 147.4416363 142.8772200  66.5604384
 148.6953218 142.1303073  66.1576046 152.2783288 120.7944225  62.8418191
 151.5115683 120.2402711  62.9874874 152.6893993 120.8666093  63.7032343
 144.2825049 127.0829020  76.9323373 145.1456510 126.7265825  77.1426697
 143.7090459 126.7442915  77.6198777  59.2406158 -10.4371355  50.3889496
  58.6771024 -10.5281418  49.6205784  59.1258553 -11.2571451  50.8691988
  56.7870590  -8.9420164  53.2273716  57.5791882  -9.2829339  52.8120016
  57.0267241  -8.8325188  54.1475870  64.8205717  -6.7700387  45.7003961
  64.1693697  -6.1846307  45.3137975  65.6150080  -6.2394193  45.7598998
  58.7461344  -9.6811250  46.0991095  59.5192220 -10.2282263  45.9603971
  59.0986743  -8.8167001  46.3105557  60.5846387  -8.3534868  59.3057995
  60.2936253  -7.4489237  59.1904661  61.2203371  -8.3118340  60.0202064
  66.2980982  -9.0809956  46.2372945  65.6626815  -9.0075329  46.9493850
  65.9678389  -8.4916357  45.5592024  65.5436272  -8.6673453  56.3007788
  65.2436995  -7.7648414  56.1923595  65.1987331  -8.9341269  57.1528941
  56.3557564 -12.5726382  53.1688282  56.4849946 -12.3191903  54.0827693
  55.6755016 -11.9798674  52.8492937  60.5257052  -1.9029132  49.2678756
  60.4481081  -0.9521307  49.3467236  59.9218695  -2.2483260  49.9253682
  62.6232770  -9.4811074  51.1032625  63.0871116  -9.2023371  50.3137248
  62.3589568 -10.3827630  50.9205716  59.5156851  -9.9339593  54.0412389
  60.0858208  -9.5052324  53.4029873  60.1064963 -10.2157008  54.7396574
  63.0847403  -8.2115087  58.1205315  63.1491836  -7.7494679  58.9563487
  62.3758327  -8.8417722  58.2487625  62.7995421  -6.5446979  47.9884296
  62.6641095  -5.6995443  48.4169143  63.3405233  -6.3427702  47.2250229
  56.2524818  -9.0271541  48.5612221  56.7649339  -8.2328291  48.7117785
  56.9047531  -9.7245251  48.4945822  58.0619703  -5.9105785  50.6434974
  58.2386331  -4.9887820  50.4555958  58.8576536  -6.2247366  51.0729354
  64.4263897  -5.9223413  62.1184638  63.9827751  -6.7087034  61.8005542
  65.0881111  -5.7344262  61.4528528  59.1851018  -4.3927611  56.6445316
  59.7358443  -4.5210548  55.8722310  58.3462494  -4.0932722  56.2940209
  66.5245135  -5.6420613  60.1466039  66.5063610  -4.8211732  59.6546308
  67.4465055  -5.7666538  60.3716180  62.9818189  -8.1276483  60.9889547
  63.5146526  -8.8888195  60.7588855  62.4532270  -8.4202831  61.7313702
  54.2173735 -10.6982887  49.3371791  55.0548957 -10.2885879  49.1205499
  54.3952003 -11.6383445  49.3071985  64.3470902  -8.9990491  48.5008359
  63.8192264  -9.7337731  48.1881597  63.8458405  -8.2215814  48.2548328
  65.3991581  -2.4712773  44.4240019  64.7253280  -2.1681077  45.0324976
  65.7857403  -1.6683693  44.0745476  68.9031003  -7.4691096  49.7958490
  68.4493330  -8.3100186  49.8523681  68.2724970  -6.8329698  50.1333270
  67.3463942  -5.6314599  50.7308308  67.6386917  -5.0709542  50.0120674
  67.8562563  -5.3386038  51.4861467  63.3687823  -9.5388942  43.3655401
  62.9307253 -10.2553083  42.9061038  64.1098264  -9.3112827  42.8040492
  62.3097567  -4.8534248  51.8201761  62.2673746  -4.6273402  50.8910293
  63.2260266  -5.0870874  51.9687563  60.4263368  -7.9771219  51.6163724
  61.2203967  -8.4720899  51.4146299  59.7155061  -8.5053356  51.2531430
  65.2458213  -5.5953124  55.9676092  65.2995235  -5.0262188  56.7353808
  64.3772994  -5.4251239  55.6030129  63.0034644  -7.4042197  55.2961561
  62.8645730  -7.7723413  56.1687499  62.2149240  -6.8894558  55.1245519
  63.5982796  -2.3033101  46.6387098  63.7734552  -2.7745058  47.4532720
  62.9115584  -1.6767335  46.8668358  64.5539859  -8.0260595  52.6850399
  64.2189692  -8.0659825  53.5808049  64.0543805  -8.6915879  52.2120809
  69.1453183  -5.9705652  60.6193239  69.0865729  -6.6546432  59.9523822
  69.5472701  -5.2286662  60.1673865  58.1643881   0.8456262  53.4126958
  58.4040480   1.4774786  54.0905976  57.3213078   0.4944302  53.6992317
  50.7999737 -11.6741976  52.1750270  51.4870777 -11.9880246  51.5871285
  50.6447866 -10.7700612  51.9017521  62.6771743  -3.3464616  55.8168462
  62.6041915  -2.5409644  56.3287766  62.2349136  -3.1472650  54.9916483
  62.4661523  -4.1092846  49.3271283  61.6829045  -3.5671166  49.4209508
  63.1654268  -3.5918866  49.7265525  65.1370427  -3.4477782  57.9726621
  65.8498399  -2.8130317  57.9002522  64.6460455  -3.3513916  57.1566622
  60.1882340  -5.6983338  58.7932191  60.8891800  -5.0646855  58.9461586
  59.7177455  -5.3568607  58.0327831  68.3136736  -7.3565388  47.0780098
  68.5896580  -7.4708794  47.9873972  67.4441235  -7.7547904  47.0392271
  64.9490800  -3.1079038  50.7212912  65.1313195  -3.9257382  51.1840664
  65.7723786  -2.8911345  50.2837802  65.2832966  -4.1810852  47.9827960
  65.8120732  -4.6918398  47.3698123  65.5461185  -4.4968322  48.8473494
  55.7850058  -6.1646983  55.7263294  56.3703495  -6.9103295  55.8591198
  55.5874897  -5.8543026  56.6099958  58.6388714  -3.1295736  50.7425736
  57.9699089  -2.6449608  50.2589776  58.5001583  -2.8826515  51.6569115
  62.7793982  -1.0951992  57.3408395  63.3312290  -0.9320371  58.1057480
  63.1200176  -0.5047554  56.6688420  67.6304857  -6.2690735  63.1957049
  68.1744761  -5.6560776  62.7012004  67.0491701  -5.7111156  63.7124062
  65.9162370  -3.1470017  54.3272077  65.7913509  -3.9480277  53.8183022
  66.5741461  -2.6523823  53.8386047  67.9797278  -5.3460997  55.9551627
  67.0327613  -5.4655645  55.8829954  68.3280051  -6.2338499  56.0377888
  64.9843711  -5.5508280  52.1555979  64.8368674  -6.4791573  52.3363549
  65.8097205  -5.5288190  51.6713055  68.5877833  -4.7279722  53.2420852
  69.5124381  -4.9336860  53.1045303  68.4193136  -4.9763321  54.1510194
  68.3773149  -4.2094054  48.5982943  68.5510027  -4.7747632  47.8456796
  68.8702041  -3.4093159  48.4162433  54.1950109 -12.1979385  56.6646502
  53.6503577 -11.4219577  56.7966777  55.0729459 -11.8508581  56.5065624
  69.3648322  -4.8927290  45.6979842  70.0599226  -4.2720597  45.9167156
  69.7071472  -5.7431939  45.9732220  54.9816131 -13.0709489  59.5576659
  54.2397867 -12.9226854  60.1441290  54.6608875 -12.8101223  58.6943409
  62.9259794  -3.5293511  59.3557049  63.2346920  -3.7744364  60.2279749
  63.7235276  -3.3246872  58.8675919  62.9480406  -1.3755601  51.5862426
  62.5085396  -1.8679222  52.2795282  63.6988523  -1.9182633  51.3454501
  55.4272745  -5.1844060  51.5887054  56.2530765  -5.4840288  51.2085697
  55.0766797  -5.9536438  52.0376842  60.3954278  -5.8317592  53.6584727
  59.7734287  -6.4946887  53.3586955  61.0659145  -5.8056460  52.9758375
  53.6281350  -7.2657734  52.5475987  52.7913258  -7.6935559  52.3659989
  53.6004995  -7.0725290  53.4846779  70.9533651  -6.8094681  62.5318370
  70.1629195  -6.8270542  61.9922870  70.7167006  -6.2706387  63.2867407
  59.9567785  -7.2813669  47.1343188  60.1055905  -6.5978204  46.4809861
  60.7634228  -7.3008579  47.6492644  57.7120418 -11.2548491  48.1404257
  57.4666460 -12.1586161  48.3384467  57.8816332 -11.2531341  47.1983735
  63.4563190  -4.7865538  44.6054935  62.8837157  -4.1675351  44.1525407
  64.0295984  -4.2366176  45.1394857  66.6760450  -4.5028388  45.7363518
  67.6091123  -4.5682826  45.9396393  66.5883663  -3.6672121  45.2778050
  69.3048467  -5.1862518  42.6967465  69.2262098  -5.5202654  43.5903223
  70.1258133  -4.6940750  42.6958938  56.7210754 -11.4885945  56.0494426
  56.9396764 -10.5568837  56.0682460  57.1336528 -11.8477970  56.8349230
  52.8119106 -10.5845474  54.3018041  52.1182578 -10.9991521  53.7887995
  53.5592097 -10.5424938  53.7051460  54.7255849 -10.6527220  52.1784056
  54.7026537 -10.5539533  51.2265939  55.0356485  -9.8062070  52.5001222
  57.3843227  -8.5951065  56.2930670  58.3386480  -8.6267123  56.2260602
  57.1855750  -9.0560442  57.1080896  57.9742609 -10.0249949  58.8601468
  58.7935498  -9.5305871  58.8836305  58.2479416 -10.9417981  58.8319036
  55.7393455  -3.0531446  53.3100868  55.6047923  -3.8131045  52.7438866
  55.3225518  -2.3290546  52.8429657  66.8752418  -7.8694522  42.3177444
  67.5788269  -7.6644520  42.9335099  66.1515067  -7.3017760  42.5826527
  58.8962581  -2.1562129  53.5219311  58.7794965  -1.2116696  53.4198001
  58.0755028  -2.4588567  53.9105110  68.7839116  -7.4311993  44.3675904
  69.6184720  -7.8630795  44.1853378  68.6223459  -7.6029979  45.2952798
  65.7530915  -8.6230968  65.0585806  66.6222075  -8.4490316  64.6972441
  65.2737667  -7.8036551  64.9361535  59.9217095  -1.5033867  56.7375239
  60.8244342  -1.4710257  57.0541734  59.6954466  -2.4333416  56.7521575
  61.6770697  -2.7502880  53.3985318  60.7266328  -2.7501019  53.2849690
  61.9803184  -3.4970146  52.8821353  77.4123391   3.0857658  54.4631080
  78.0501801   2.9664405  53.7594420  77.2944234   4.0338502  54.5219032
  74.2213097   3.0385086  54.3992605  73.8831609   2.9226151  53.5113140
  75.0902865   2.6376251  54.3793611  70.0799913   4.8920563  50.3889496
  69.5164778   4.8010499  49.6205784  69.9652308   4.0720467  50.8691988
  74.7032880   4.1919938  60.3578811  74.6921521   3.7972736  59.4859314
  74.8653520   3.4586010  60.9512582  67.6264345   6.3871754  53.2273716
  68.4185637   6.0462579  52.8120016  67.8660995   6.4966729  54.1475870
  75.6599472   8.5591530  45.7003961  75.0087451   9.1445611  45.3137975
  76.4543834   9.0897725  45.7598998  69.5855099   5.6480667  46.0991095
  70.3585975   5.1009654  45.9603971  69.9380498   6.5124917  46.3105557
  71.4240141   6.9757050  59.3057995  71.1330007   7.8802680  59.1904661
  72.0597126   7.0173577  60.0202064  72.3496348   4.3533898  55.8959354
  72.9459920   4.1289921  55.1816317  72.4071320   3.6118644  56.4984802
  71.9221377   1.8073334  43.7309545  72.1746897   1.2854855  42.9693008
  70.9845936   1.6439479  43.8336229  76.9664659   0.8109112  51.5384288
  77.7527749   0.3928535  51.1874705  77.2303364   1.7155204  51.7065937
  77.1374737   6.2481962  46.2372945  76.5020570   6.3216589  46.9493850
  76.8072143   6.8375561  45.5592024  82.3673087   0.7484345  52.4417267
  83.0998259   0.1783562  52.6755096  81.6112442   0.3605946  52.8823772
  71.6417665   3.7101439  45.9333920  71.5253923   3.0346343  46.6015004
  71.7519925   3.2233813  45.1166073  73.9849206   3.1711587  49.6380609
  73.6207414   2.6442208  50.3493531  74.8416322   2.7810056  49.4647095
  73.6254693  -1.7998514  44.6341958  73.7929096  -0.9318277  45.0012429
  73.4351862  -1.6371232  43.7103247  76.3830026   6.6618465  56.3007788
  76.0830750   7.5643504  56.1923595  76.0381086   6.3950648  57.1528941
  69.8342508   3.1132262  52.3344493  68.9093004   2.9808476  52.5422184
  70.0826921   3.8926481  52.8314435  79.7827170  -0.8198995  53.9805226
  78.8744048  -0.8883586  53.6863986  79.7314766  -0.3427050  54.8087051
  73.6043914   0.6559144  45.6188625  73.4843539   1.1016195  46.4574105
  72.9096503   1.0044461  45.0602163  67.1951319   2.7565536  53.1688282
  67.3243700   3.0100014  54.0827693  66.5148770   3.3493244  52.8492937
  71.3650806  13.4262786  49.2678756  71.2874836  14.3770611  49.3467236
  70.7612450  13.0808658  49.9253682  73.8568036   0.5990651  61.9240123
  73.0801370   1.1584571  61.9142987  74.4958599   1.0847434  62.4454993
  81.6488817  -2.6182556  55.7583099  81.0063197  -2.3250023  55.1122894
  81.1443745  -2.7329636  56.5636296  79.3028980   1.1280617  46.4468959
  80.2146836   1.3608004  46.2716656  78.7938627   1.7117661  45.8844037
  72.1114408   3.4076104  61.4858090  72.8529093   3.9461148  61.2092913
  71.4051394   4.0342393  61.6429642  77.5869748   5.5505245  60.0830251
  77.9953104   5.1087655  59.3384884  76.8647009   4.9757872  60.3364444
  73.9400818   0.4877852  57.4563808  74.7862013   0.9117265  57.5998457
  73.8799456  -0.1688524  58.1502371  77.9098563   6.1106435  53.8382540
  77.2807425   6.2752150  53.1358608  77.5224225   6.5248045  54.6093504
  81.7887795   7.0460873  51.1926904  81.1038833   7.4259775  50.6423937
  81.8731644   7.6556200  51.9258852  77.0900263  -1.8517780  59.1144982
  76.8461195  -1.0975720  58.5779258  77.3660194  -1.4732433  59.9492229
  79.0438726   4.6920832  57.7922247  79.2555621   5.3352592  57.1156629
  78.9968474   3.8583149  57.3244178  76.6464955  -2.6961347  54.6958820
  75.7849434  -2.3980094  54.9875557  76.6727390  -2.4790948  53.7639852
  73.4626524   5.8480843  51.1032625  73.9264870   6.1268546  50.3137248
  73.1983323   4.9464288  50.9205716  70.3550606   5.3952325  54.0412389
  70.9251963   5.8239593  53.4029873  70.9458717   5.1134910  54.7396574
  72.3995411   1.9703996  47.9122190  73.1019454   2.4225040  48.3796117
  72.0676039   1.3287815  48.5402084  70.8475772   0.5615752  62.2873400
  70.2174433   1.2432033  62.5208797  70.7411860   0.4498834  61.3426538
  66.1420744   0.2287549  53.2139324  65.3519798   0.4845077  52.7379435
  66.6331992   1.0435886  53.3191365  80.1584554   7.5692788  55.9644605
  80.9801998   7.1672975  55.6827286  80.1546957   7.4661022  56.9160721
  68.0935490   0.5932128  50.1722801  67.2966653   0.7050822  50.6906296
  67.8661082   0.9318780  49.3063691  73.9241158   7.1176831  58.1205315
  73.9885590   7.5797238  58.9563487  73.2152081   6.4874196  58.2487625
  64.4258447   0.4818039  55.6454315  64.6766486   1.3665049  55.9111891
  64.9617996   0.3022640  54.8729407  88.2490547   3.9131536  52.3129576
  87.4954255   3.3438934  52.1573581  88.3838088   3.8794201  53.2600211
  73.6389175   8.7844938  47.9884296  73.5034850   9.6296474  48.4169143
  74.1798988   8.9864216  47.2250229  70.1256515  -5.1363482  64.6498651
  69.7323460  -5.6897283  65.3246295  70.9422655  -4.8252903  65.0405168
  67.0918573   6.3020377  48.5612221  67.6043093   7.0963627  48.7117785
  67.7441285   5.6046667  48.4945822  68.9013457   9.4186133  50.6434974
  69.0780086  10.3404097  50.4555958  69.6970291   9.1044552  51.0729354
  73.0424476  -3.7205603  62.2418907  73.7834189  -3.1198449  62.1623370
  73.2742399  -4.4627965  61.6836950  68.1865814   1.4650765  60.5197137
  68.0719329   0.5636022  60.8204236  67.3310332   1.7114461  60.1681954
  75.2657652   9.4068505  62.1184638  74.8221506   8.6204884  61.8005542
  75.9274865   9.5947655  61.4528528  70.0244773  10.9364307  56.6445316
  70.5752198  10.8081370  55.8722310  69.1856249  11.2359196  56.2940209
  77.3638890   9.6871305  60.1466039  77.3457365  10.5080186  59.6546308
  78.2858810   9.5625380  60.3716180  73.8211944   7.2015434  60.9889547
  74.3540281   6.4403723  60.7588855  73.2926025   6.9089086  61.7313702
  65.0567489   4.6309031  49.3371791  65.8942711   5.0406039  49.1205499
  65.2345757   3.6908473  49.3071985  76.9531921   2.2984111  45.0255624
  76.4378545   3.0688716  45.2644012  76.6809230   1.6249248  45.6488686
  74.5379032  -2.8566188  50.0840863  73.6820629  -3.2459337  49.9046501
  74.9505984  -2.7774227  49.2240648  76.0678179  -5.3219844  54.4832422
  75.5642975  -5.3589709  53.6700228  76.3608786  -4.4127102  54.5429079
  72.3121065  -5.2381115  53.4898604  73.1774062  -5.4338306  53.1304494
  72.3798574  -5.4670763  54.4167961  81.9266196   5.0516466  46.9608798
  81.1495638   4.7127626  46.5163960  82.6057677   5.0569089  46.2863763
  76.7418225   0.1711204  46.8515405  76.4368360   0.4857353  47.7025549
  77.6948667   0.2492623  46.8942738  75.1864656   6.3301427  48.5008359
  74.6586018   5.5954186  48.1881597  74.6852159   7.1076103  48.2548328
  80.1657502   4.5250447  53.6175406  79.5081177   5.2149709  53.7055534
  80.9697902   4.9146879  53.9609392  69.9183384  -3.0078907  50.8614971
  70.4927136  -3.2303725  50.1288164  70.5054367  -2.9390212  51.6143572
  78.9762961   2.8794820  51.6679347  79.4894843   3.5124812  52.1701057
  79.6264185   2.2796016  51.3022707  70.2452971  -0.9774446  44.8810856
  69.4090283  -0.6399759  45.2020131  70.1057741  -1.1125466  43.9437993
  72.2206052  -6.1337658  49.5890040  71.5670464  -6.4488641  48.9646655
  72.1786526  -6.7561917  50.3149863  73.3317257   4.1481637  41.5043332
  72.4244318   3.9170891  41.7034481  73.8288289   3.3519256  41.6917314
  76.2385336  12.8579144  44.4240019  75.5647034  13.1610841  45.0324976
  76.6251158  13.6608225  44.0745476  75.4543792   0.3544276  53.9137688
  74.5366354   0.5759223  53.7559376  75.8703936   0.4290586  53.0549395
  76.2378840   1.7535691  49.0440368  76.9850659   2.2657088  48.7347490
  76.5070429   1.4319744  49.9044762  74.5105490   4.2494232  46.0267322
  73.6016709   3.9653265  46.1239792  74.5400574   4.6693311  45.1670629
  79.7424758   7.8600821  49.7958490  79.2887085   7.0191731  49.8523681
  79.1118724   8.4962220  50.1333270  78.6857677  -1.2107192  51.0259157
  77.9480434  -1.7229806  51.3569400  78.9384451  -1.6506811  50.2142434
  78.1857697   9.6977318  50.7308308  78.4780671  10.2582375  50.0120674
  78.6956317   9.9905879  51.4861467  65.0793660   1.9699746  50.0082525
  64.8818060   1.3769107  49.2833591  64.5240324   1.6651956  50.7258463
  73.0590384   1.8622853  52.1277118  73.1138994   0.9096689  52.0519594
  72.2481586   2.0182292  52.6118416  74.2081578   5.7902976  43.3655401
  73.7701008   5.0738835  42.9061038  74.9492019   6.0179090  42.8040492
  70.9982744   0.4799912  49.8867497  70.1850610   0.7794083  50.2932689
  71.4941738   0.0855601  50.6041979  73.1491322  10.4757669  51.8201761
  73.1067501  10.7018516  50.8910293  74.0654021  10.2421044  51.9687563
  76.5956956   0.9441737  58.7182391  76.9506343   1.1713210  59.5776856
  77.2429087   1.2760114  58.0959646  82.3254693   4.0660173  49.4231720
  82.1872591   4.2561769  48.4952909  81.9690911   4.8279556  49.8799771
  70.4896819  -1.9481732  55.5028732  71.1296198  -2.0892973  54.8051695
  69.6574349  -2.2347219  55.1267334  82.3524072   6.1336700  54.4342991
  82.7860579   6.0411989  55.2826045  83.0655653   6.1094200  53.7963007
  71.2657123   7.3520698  51.6163724  72.0597721   6.8571018  51.4146299
  70.5548815   6.8238561  51.2531430  76.0851967   9.7338794  55.9676092
  76.1388989  10.3029730  56.7353808  75.2166749   9.9040679  55.6030129
  67.5739886   1.4963780  47.6923477  66.6437474   1.4348236  47.9093439
  67.6697358   0.9739733  46.8960118  67.4925435  -1.9781407  50.2801718
  67.7532253  -1.0636074  50.1710879  68.3142608  -2.4456965  50.4298331
  68.9650361  -0.5643650  57.4500543  69.6373414  -0.7726288  56.8013192
  68.1380147  -0.7621564  57.0105775  83.2139622   6.1760400  56.9675877
  83.4075512   7.0806211  57.2135151  83.1140240   5.7167819  57.8014462
  74.8675933  -3.9381709  59.4666204  74.2203848  -3.2391759  59.3730680
  75.6376948  -3.5045565  59.8342452  78.2754731   6.3267143  62.5416757
  78.1240237   6.0977695  61.6246841  78.2659410   7.2837745  62.5548102
  75.0440067   3.8999056  57.5263024  75.9732127   4.0510215  57.3531991
  74.6231097   3.9883077  56.6711670  73.8428399   7.9249720  55.2961561
  73.7039484   7.5568505  56.1687499  73.0542995   8.4397360  55.1245519
  74.4376551  13.0258817  46.6387098  74.6128306  12.5546860  47.4532720
  73.7509339  13.6524583  46.8668358  75.3933614   7.3031323  52.6850399
  75.0583446   7.2632093  53.5808049  74.8937560   6.6376039  52.2120809
  69.3677858   2.7098953  58.2102980  69.2297656   1.9779192  58.8114519
  70.2782781   2.6207853  57.9287168  78.3292806   4.6487357  42.9587459
  77.7121976   3.9234185  42.8620511  77.8609294   5.4096718  42.6154533
  71.9960158   2.4218912  57.6986660  72.7059777   1.7812105  57.6573278
  71.9529467   2.6731807  58.6212841  79.9846937   9.3586266  60.6193239
  79.9259483   8.6745486  59.9523822  80.3866456  10.1005256  60.1673865
  70.7089092  -0.5915870  59.5182299  70.1726449  -1.0425131  60.1703896
  70.1205801  -0.4569961  58.7752764  69.0037636  16.1748180  53.4126958
  69.2434234  16.8066704  54.0905976  68.1606832  15.8236220  53.6992317
  70.1191351  -1.1327218  42.0808763  69.2420818  -1.2538418  41.7171010
  70.5949104  -1.9241140  41.8287652  79.9864344   7.3225850  58.8507219
  79.0991123   6.9851771  58.9733618  80.5562895   6.5908881  59.0875984
  61.6393492   3.6549941  52.1750270  62.3264531   3.3411671  51.5871285
  61.4841620   4.5591306  51.9017521  66.4428214  -1.4559862  56.6035294
  66.3586402  -2.0634193  55.8685704  65.6210920  -0.9650844  56.6044790
  73.5165498  11.9827302  55.8168462  73.4435669  12.7882273  56.3287766
  73.0742891  12.1819268  54.9916483  73.3055277  11.2199072  49.3271283
  72.5222799  11.7620752  49.4209508  74.0048023  11.7373052  49.7265525
  76.6151928  -2.9706299  51.9705489  77.1120627  -3.7236336  51.6506559
  75.8438909  -2.9341982  51.4048698  84.4681685   2.7334067  53.6123780
  84.4571561   3.6158782  53.2417713  83.5999064   2.3805618  53.4178317
  75.9764181  11.8814136  57.9726621  76.6892154  12.5161601  57.9002522
  75.4854210  11.9778002  57.1566622  77.6981708   5.7865389  49.5443912
  76.7637987   5.9066851  49.3748617  77.8758377   4.8837855  49.2803922
  73.1986896  -0.8288916  51.6977173  72.8284684  -1.3817875  52.3858079
  73.6945989  -1.4330782  51.1452173  81.0854260   1.6282708  50.0793946
  81.5514712   2.4610700  50.0054249  81.5361760   1.1627690  50.7839205
  71.0276095   9.6308579  58.7932191  71.7285554  10.2645062  58.9461586
  70.5571210   9.9723311  58.0327831  79.1530491   7.9726529  47.0780098
  79.4290335   7.8583124  47.9873972  78.2834989   7.5744014  47.0392271
  78.8277381   2.1853187  56.6184742  78.1748831   2.4329094  55.9637194
  79.2057761   1.3717325  56.2847219  75.7884555  12.2212880  50.7212912
  75.9706949  11.4034536  51.1840664  76.6117541  12.4380572  50.2837802
  76.1226720  11.1481065  47.9827960  76.6514487  10.6373520  47.3698123
  76.3854940  10.8323595  48.8473494  74.8764954   2.9272998  63.1050779
  74.2005591   2.8267127  63.7753154  75.6992588   2.7712212  63.5686776
  66.6243813   9.1644934  55.7263294  67.2097250   8.4188622  55.8591198
  66.4268651   9.4748891  56.6099958  69.4782468  12.1996182  50.7425736
  68.8092843  12.6842310  50.2589776  69.3395338  12.4465402  51.6569115
  61.2161468   1.7350535  54.4467737  61.2545567   1.2014125  55.2404855
  60.7101760   1.2085740  53.8278714  73.6187737  14.2339925  57.3408395
  74.1706045  14.3971547  58.1057480  73.9593930  14.8244363  56.6688420
  68.5952230  -3.4184925  57.9430279  68.6593556  -2.5570094  57.5307677
  68.5319350  -4.0310923  57.2102638  68.0704503  -1.3461792  61.5903314
  68.6976541  -1.7284715  62.2040838  67.2132421  -1.5647590  61.9559006
  78.4698611   9.0601183  63.1957049  79.0138515   9.6731141  62.7012004
  77.8885456   9.6180761  63.7124062  64.8470045   0.4614637  47.5221669
  65.1423486  -0.4474685  47.4688722  63.9458081   0.4402376  47.2002671
  76.7556124  12.1821901  54.3272077  76.6307263  11.3811641  53.8183022
  77.4135215  12.6768094  53.8386047  68.3764292  -1.4629367  53.5049217
  67.6550878  -0.8493399  53.3656690  69.1657548  -0.9271602  53.4265863
  78.8191032   9.9830921  55.9551627  77.8721368   9.8636272  55.8829954
  79.1673806   9.0953419  56.0377888  71.1790606  -4.1274940  59.7789869
  71.7025008  -3.8812644  60.5416178  70.9602939  -3.2954905  59.3593006
  66.5757887  -1.8571265  47.6460994  66.2470593  -2.7373887  47.4636100
  66.9297258  -1.9123597  48.5337383  75.8237466   9.7783637  52.1555979
  75.6762428   8.8500345  52.3363549  76.6490959   9.8003728  51.6713055
  69.6899710  -1.5698296  48.0136471  70.0295783  -1.0412374  47.2915080
  70.1371830  -1.2317890  48.7895038  79.4271588  10.6012196  53.2420852
  80.3518135  10.3955057  53.1045303  79.2586891  10.3528597  54.1510194
  72.3843151  -3.1861245  57.4639539  72.0439971  -3.9853432  57.8660219
  71.6782157  -2.8859534  56.8916373  71.6767857  -3.0723674  46.2129764
  72.3976220  -2.6942421  45.7093481  71.0533161  -2.3534797  46.3164742
  75.8198980  -2.3678525  47.1488097  76.0362594  -1.4853887  46.8476925
  75.3393047  -2.7592312  46.4193738  70.5598201   0.5907188  53.7258841
  70.4142782   0.9047491  54.6183123  70.0823405   1.2092088  53.1729740
  72.4194584  -2.4190264  53.7739731  72.4056153  -3.3149171  53.4372029
  73.1367012  -2.4119600  54.4078017  74.2720715  -1.9852924  55.8192858
  74.0138493  -1.0635853  55.8177189  73.7405755  -2.3822489  56.5093322
  79.2166904  11.1197863  48.5982943  79.3903781  10.5544286  47.8456796
  79.7095795  11.9198758  48.4162433  65.0343864   3.1312532  56.6646502
  64.4897332   3.9072340  56.7966777  65.9123213   3.4783337  56.5065624
  71.8231480  -3.5375884  49.0427301  71.9447391  -4.4659237  49.2418188
  71.5333523  -3.5237198  48.1305616  85.0706295   3.8834286  50.2173243
  85.5137441   3.1341612  49.8192366  84.1932805   3.8744423  49.8346975
  80.2042076  10.4364628  45.6979842  80.8992981  11.0571320  45.9167156
  80.5465226   9.5859979  45.9732220  65.8209885   2.2582429  59.5576659
  65.0791621   2.4065064  60.1441290  65.5002630   2.5190694  58.6943409
  82.1033499   7.8864333  47.2267173  82.6284823   8.2251606  46.5016493
  82.0155852   6.9511349  47.0430307  73.7653548  11.7998407  59.3557049
  74.0740675  11.5547554  60.2279749  74.5629030  12.0045045  58.8675919
  73.7874160  13.9536317  51.5862426  73.3479150  13.4612695  52.2795282
  74.5382277  13.4109284  51.3454501  66.2666499  10.1447857  51.5887054
  67.0924519   9.8451629  51.2085697  65.9160551   9.3755480  52.0376842
  71.2348032   9.4974326  53.6584727  70.6128042   8.8345031  53.3586955
  71.9052899   9.5235458  52.9758375  64.4675104   8.0634184  52.5475987
  63.6307012   7.6356358  52.3659989  64.4398750   8.2566627  53.4846779
  71.3072560  -2.0243886  63.2517233  71.3560715  -1.1481763  62.8695003
  71.8495074  -2.5666493  62.6788877  81.7927405   8.5197237  62.5318370
  81.0022949   8.5021376  61.9922870  81.5560760   9.0585531  63.2867407
  81.9125280   5.3689703  59.8451099  81.9623285   5.2039711  60.7866622
  81.8039204   4.5016962  59.4548980  70.7961539   8.0478249  47.1343188
  70.9449660   8.7313713  46.4809861  71.6027983   8.0283339  47.6492644
  79.2029043   1.3520631  61.1610406  80.1038906   1.2127096  60.8694404
  79.2777017   1.5175086  62.1008583  73.5371848  -1.2712514  60.0063592
  72.6675158  -0.9778948  59.7346181  73.7731329  -0.6872069  60.7270856
  83.4143477   7.7886645  60.0893121  83.1228286   8.1516625  60.9256582
  82.8015609   7.0753653  59.9106453  84.6139160   5.3539525  52.6095691
  85.4486051   5.7929329  52.7733251  84.7498288   4.8778178  51.7903937
  81.6630666   2.9119260  58.5573179  82.1384787   3.1046906  57.7492030
  80.7396231   2.9678445  58.3116562  68.5514172   4.0743427  48.1404257
  68.3060214   3.1705757  48.3384467  68.7210087   4.0760577  47.1983735
  76.2410882  -5.0532897  57.5229012  76.7592826  -4.3171870  57.1975501
  75.8866015  -4.7468904  58.3575772  67.8209820  -0.1928216  45.6390418
  67.1279065  -0.1183861  44.9830454  67.5761572  -0.9567872  46.1611935
  74.2956945  10.5426379  44.6054935  73.7230912  11.1616567  44.1525407
  74.8689738  11.0925741  45.1394857  80.3632335  -0.2114980  56.7901484
  81.3149757  -0.1116883  56.8113708  80.1935785  -1.0036712  57.2999569
  78.3846714  -3.1259397  56.9760885  77.7896646  -2.8454384  56.2807374
  78.0996411  -2.6365496  57.7477626  77.5154204  10.8263530  45.7363518
  78.4484878  10.7609091  45.9396393  77.4277417  11.6619796  45.2778050
  80.1442221  10.1429400  42.6967465  80.0655853   9.8089264  43.5903223
  80.9651888  10.6351168  42.6958938  82.8420412   3.0091139  55.9043784
  82.8096732   2.0707140  56.0903468  83.4521036   3.0875176  55.1709609
  74.6803743   1.8787192  41.9470988  75.6262848   1.7493400  42.0159406
  74.3017988   1.1401854  42.4240416  82.9914901  -0.1997817  55.9502067
  82.4753949  -0.9839361  55.7631996  83.8754849  -0.5279101  56.1148586
  88.6596962   4.0707146  55.0449821  89.3900351   3.8092434  55.6057524
  88.0503908   3.3335868  55.0851889  86.7412259   2.2115009  55.6424272
  86.0145423   2.0770974  55.0340763  86.3259546   2.5191837  56.4480990
  74.5642436   5.9304938  63.4071645  75.4845445   6.1083537  63.6011691
  74.5292019   4.9860984  63.2551344  72.8646660  -0.1962831  41.8825873
  71.9578116  -0.4929719  41.9588587  73.1422641  -0.4933013  41.0160159
  63.7824601   1.1243532  52.3324919  63.4627385   0.2708840  52.0399293
  63.2358029   1.3392110  53.0882887  67.5604508   3.8405973  56.0494426
  67.7790518   4.7723081  56.0682460  67.9730282   3.4813947  56.8349230
  74.4808726  -5.6525942  48.0370114  73.6709454  -5.9978857  48.4125360
  75.1693143  -5.9618398  48.6257726  72.4332374  -0.5860821  65.4397175
  72.3329100   0.3633536  65.3709266  72.2153916  -0.9142582  64.5673245
  71.6345445  -3.3375896  42.0237852  72.4964609  -3.0120998  42.2833670
  71.8195789  -4.1244400  41.5110918  63.6512861   4.7446444  54.3018041
  62.9576332   4.3300396  53.7887995  64.3985852   4.7866980  53.7051460
  72.2963644   2.8436318  64.2562237  71.8130725   3.6436678  64.4626126
  72.3824583   2.8544263  63.3029681  65.5649603   4.6764697  52.1784056
  65.5420291   4.7752385  51.2265939  65.8750240   5.5229848  52.5001222
  68.2236981   6.7340852  56.2930670  69.1780235   6.7024795  56.2260602
  68.0249505   6.2731476  57.1080896  68.8136363   5.3041968  58.8601468
  69.6329252   5.7986047  58.8836305  69.0873171   4.3873937  58.8319036
  78.5702959  -2.3047279  48.2229424  77.6828815  -2.0197629  48.0049618
  78.9856949  -2.4653516  47.3756700  81.9217496  -2.2800758  51.9383763
  82.6977886  -1.7904306  52.2108380  81.1965630  -1.8542704  52.3955632
  84.3590054  -1.5673139  52.9957703  84.9534545  -1.8077403  52.2851012
  84.4316638  -2.2866009  53.6231240  66.5787210  12.2760472  53.3100868
  66.4441678  11.5160873  52.7438866  66.1619272  13.0001372  52.8429657
  77.7146173   7.4597395  42.3177444  78.4182023   7.6647398  42.9335099
  76.9908822   8.0274157  42.5826527  78.5443983   3.2107257  48.4379714
  78.4879185   3.6675808  47.5987346  79.0972326   2.4497941  48.2602556
  82.3548789  -1.0003011  49.2629833  82.0985723  -1.4006376  50.0938041
  81.7301657  -0.2859218  49.1379972  86.6661127   1.7393062  51.7701125
  86.1060685   1.8086251  52.5432687  86.0604630   1.5634046  51.0500621
  69.7356336  13.1729789  53.5219311  69.6188720  14.1175221  53.4198001
  68.9148782  12.8703350  53.9105110  79.6232870   7.8979925  44.3675904
  80.4578474   7.4661123  44.1853378  79.4617213   7.7261938  45.2952798
  79.2778763   4.4012038  45.7332243  79.2227566   4.2356309  44.7920687
  78.6524818   5.1088071  45.8894433  64.0671278  -0.3619898  59.5593665
  64.7130141  -0.8720944  60.0480890  63.8588429   0.3748784  60.1337090
  76.5924670   6.7060950  65.0585806  77.4615829   6.8801602  64.6972441
  76.1131421   7.5255367  64.9361535  72.5874888  -6.0979853  45.3117561
  72.5753558  -5.1538013  45.4685832  73.4798310  -6.2809708  45.0177022
  70.7610850  13.8258051  56.7375239  71.6638097  13.8581661  57.0541734
  70.5348220  12.8958502  56.7521575  72.5164452  12.5789037  53.3985318
  71.5660083  12.5790899  53.2849690  72.8196938  11.8321772  52.8821353
  68.4068769  -3.2152281  63.6568679  69.2700230  -3.5715476  63.8672004
  67.8334179  -3.5538386  64.3444084  88.2517145  18.4149576  54.4631080
  88.8895555  18.2956323  53.7594420  88.1337988  19.3630420  54.5219032
  85.0606852  18.3677004  54.3992605  84.7225363  18.2518068  53.5113140
  85.9296620  17.9668169  54.3793611  80.9193667  20.2212480  50.3889496
  80.3558533  20.1302417  49.6205784  80.8046062  19.4012385  50.8691988
  85.5426635  19.5211856  60.3578811  85.5315275  19.1264654  59.4859314
  85.7047274  18.7877928  60.9512582  78.4658099  21.7163672  53.2273716
  79.2579391  21.3754496  52.8120016  78.7054750  21.8258647  54.1475870
  86.4993226  23.8883448  45.7003961  85.8481206  24.4737528  45.3137975
  87.2937589  24.4189643  45.7598998  80.4248853  20.9772585  46.0991095
  81.1979729  20.4301572  45.9603971  80.7774252  21.8416834  46.3105557
  82.2633896  22.3048967  59.3057995  81.9723762  23.2094598  59.1904661
  82.8990880  22.3465495  60.0202064  83.1890103  19.6825816  55.8959354
  83.7853675  19.4581838  55.1816317  83.2465074  18.9410561  56.4984802
  82.7615131  17.1365251  43.7309545  83.0140652  16.6146772  42.9693008
  81.8239690  16.9731397  43.8336229  87.8058414  16.1401030  51.5384288
  88.5921503  15.7220453  51.1874705  88.0697118  17.0447122  51.7065937
  87.9768491  21.5773880  46.2372945  87.3414324  21.6508506  46.9493850
  87.6465898  22.1667479  45.5592024  93.2066841  16.0776263  52.4417267
  93.9392013  15.5075480  52.6755096  92.4506197  15.6897863  52.8823772
  82.4811420  19.0393357  45.9333920  82.3647678  18.3638261  46.6015004
  82.5913680  18.5525731  45.1166073  84.8242961  18.5003504  49.6380609
  84.4601168  17.9734125  50.3493531  85.6810077  18.1101973  49.4647095
  90.7292261   9.7897837  56.9011875  90.3975586  10.6593248  56.6773090
  90.1337875   9.4734121  57.5805906  84.4648448  13.5293404  44.6341958
  84.6322850  14.3973640  45.0012429  84.2745617  13.6920686  43.7103247
  87.2223781  21.9910383  56.3007788  86.9224504  22.8935422  56.1923595
  86.8774840  21.7242566  57.1528941  80.6736262  18.4424180  52.3344493
  79.7486759  18.3100394  52.5422184  80.9220676  19.2218399  52.8314435
  90.6220925  14.5092923  53.9805226  89.7137802  14.4408331  53.6863986
  90.5708521  14.9864868  54.8087051  84.4437669  15.9851061  45.6188625
  84.3237294  16.4308112  46.4574105  83.7490257  16.3336379  45.0602163
  78.0345073  18.0857453  53.1688282  78.1637455  18.3391932  54.0827693
  77.3542525  18.6785161  52.8492937  82.2044561  28.7554703  49.2678756
  82.1268590  29.7062528  49.3467236  81.6006204  28.4100576  49.9253682
  84.6961791  15.9282569  61.9240123  83.9195125  16.4876489  61.9142987
  85.3352354  16.4139352  62.4454993  92.4882571  12.7109361  55.7583099
  91.8456951  13.0041895  55.1122894  91.9837500  12.5962282  56.5636296
  90.1422735  16.4572535  46.4468959  91.0540591  16.6899921  46.2716656
  89.6332382  17.0409579  45.8844037  82.9508163  18.7368022  61.4858090
  83.6922847  19.2753066  61.2092913  82.2445148  19.3634311  61.6429642
  88.4263502  20.8797162  60.0830251  88.8346858  20.4379573  59.3384884
  87.7040764  20.3049790  60.3364444  84.7794573  15.8169769  57.4563808
  85.6255768  16.2409183  57.5998457  84.7193210  15.1603394  58.1502371
  88.7492317  21.4398353  53.8382540  88.1201180  21.6044067  53.1358608
  88.3617979  21.8539963  54.6093504  92.6281549  22.3752791  51.1926904
  91.9432587  22.7551692  50.6423937  92.7125398  22.9848118  51.9258852
  87.9294018  13.4774138  59.1144982  87.6854950  14.2316198  58.5779258
  88.2053948  13.8559485  59.9492229  89.8832481  20.0212750  57.7922247
  90.0949376  20.6644510  57.1156629  89.8362229  19.1875066  57.3244178
  87.4858710  12.6330571  54.6958820  86.6243189  12.9311824  54.9875557
  87.5121144  12.8500969  53.7639852  84.3020279  21.1772761  51.1032625
  84.7658625  21.4560464  50.3137248  84.0377077  20.2756206  50.9205716
  81.1944360  20.7244243  54.0412389  81.7645717  21.1531511  53.4029873
  81.7852472  20.4426827  54.7396574  83.2389165  17.2995914  47.9122190
  83.9413208  17.7516957  48.3796117  82.9069794  16.6579732  48.5402084
  81.6869527  15.8907670  62.2873400  81.0568187  16.5723951  62.5208797
  81.5805614  15.7790752  61.3426538  76.9814499  15.5579466  53.2139324
  76.1913553  15.8136995  52.7379435  77.4725746  16.3727804  53.3191365
  90.9978309  22.8984705  55.9644605  91.8195752  22.4964893  55.6827286
  90.9940711  22.7952940  56.9160721  78.9329244  15.9224045  50.1722801
  78.1360408  16.0342740  50.6906296  78.7054837  16.2610698  49.3063691
  84.7634912  22.4468749  58.1205315  84.8279345  22.9089156  58.9563487
  84.0545836  21.8166114  58.2487625  75.2652202  15.8109957  55.6454315
  75.5160240  16.6956967  55.9111891  75.8011750  15.6314558  54.8729407
  99.0884302  19.2423454  52.3129576  98.3348010  18.6730852  52.1573581
  99.2231843  19.2086118  53.2600211  84.4782930  24.1136856  47.9884296
  84.3428604  24.9588392  48.4169143  85.0192742  24.3156134  47.2250229
  80.9650269  10.1928436  64.6498651  80.5717215   9.6394635  65.3246295
  81.7816410  10.5039014  65.0405168  77.9312327  21.6312294  48.5612221
  78.4436848  22.4255544  48.7117785  78.5835040  20.9338585  48.4945822
  79.7407212  24.7478050  50.6434974  79.9173840  25.6696015  50.4555958
  80.5364045  24.4336470  51.0729354  83.8818230  11.6086315  62.2418907
  84.6227944  12.2093468  62.1623370  84.1136153  10.8663953  61.6836950
  79.0259568  16.7942682  60.5197137  78.9113083  15.8927940  60.8204236
  78.1704086  17.0406379  60.1681954  86.1051406  24.7360423  62.1184638
  85.6615260  23.9496801  61.8005542  86.7668620  24.9239573  61.4528528
  80.8638527  26.2656224  56.6445316  81.4145952  26.1373288  55.8722310
  80.0250003  26.5651113  56.2940209  88.2032644  25.0163223  60.1466039
  88.1851119  25.8372104  59.6546308  89.1252564  24.8917298  60.3716180
  84.6605698  22.5307352  60.9889547  85.1934035  21.7695640  60.7588855
  84.1319779  22.2381004  61.7313702  87.8275393   7.6367418  56.5183189
  87.4839663   8.5269060  56.4422300  88.1954356   7.4469076  55.6552774
  75.8961244  19.9600948  49.3371791  76.7336466  20.3697957  49.1205499
  76.0739512  19.0200391  49.3071985  87.7925676  17.6276029  45.0255624
  87.2772299  18.3980634  45.2644012  87.5202984  16.9541165  45.6488686
  85.3772787  12.4725730  50.0840863  84.5214383  12.0832580  49.9046501
  85.7899739  12.5517691  49.2240648  86.9071934  10.0072073  54.4832422
  86.4036729   9.9702208  53.6700228  87.2002540  10.9164816  54.5429079
  83.1514819  10.0910803  53.4898604  84.0167816   9.8953612  53.1304494
  83.2192328   9.8621155  54.4167961  92.7659950  20.3808384  46.9608798
  91.9889393  20.0419543  46.5163960  93.4451431  20.3861007  46.2863763
  87.5811979  15.5003121  46.8515405  87.2762115  15.8149270  47.7025549
  88.5342421  15.5784541  46.8942738  86.0258411  21.6593345  48.5008359
  85.4979773  20.9246104  48.1881597  85.5245914  22.4368021  48.2548328
  91.0051257  19.8542365  53.6175406  90.3474931  20.5441626  53.7055534
  91.8091656  20.2438797  53.9609392  80.7577139  12.3213011  50.8614971
  81.3320890  12.0988192  50.1288164  81.3448121  12.3901705  51.6143572
  89.8156716  18.2086738  51.6679347  90.3288598  18.8416730  52.1701057
  90.4657940  17.6087933  51.3022707  81.0846726  14.3517472  44.8810856
  80.2484038  14.6892158  45.2020131  80.9451495  14.2166452  43.9437993
  83.0599806   9.1954260  49.5890040  82.4064219   8.8803277  48.9646655
  83.0180280   8.5730000  50.3149863  84.1711011  19.4773555  41.5043332
  83.2638073  19.2462808  41.7034481  84.6682043  18.6811174  41.6917314
  87.0779090  28.1871062  44.4240019  86.4040789  28.4902759  45.0324976
  87.4644912  28.9900142  44.0745476  86.2937547  15.6836193  53.9137688
  85.3760108  15.9051140  53.7559376  86.7097690  15.7582504  53.0549395
  87.0772594  17.0827609  49.0440368  87.8244413  17.5949006  48.7347490
  87.3464184  16.7611662  49.9044762  85.3499245  19.5786150  46.0267322
  84.4410464  19.2945182  46.1239792  85.3794328  19.9985228  45.1670629
  90.5818512  23.1892739  49.7958490  90.1280839  22.3483649  49.8523681
  89.9512479  23.8254138  50.1333270  89.5251432  14.1184725  51.0259157
  88.7874188  13.6062111  51.3569400  89.7778205  13.6785107  50.2142434
  89.0251451  25.0269236  50.7308308  89.3174426  25.5874293  50.0120674
  89.5350072  25.3197797  51.4861467  89.6263059   6.8960977  51.6200927
  89.9321936   6.0358341  51.3326842  90.3515664   7.4878597  51.4199921
  75.9187415  17.2991664  50.0082525  75.7211815  16.7061025  49.2833591
  75.3634079  16.9943874  50.7258463  83.8984139  17.1914770  52.1277118
  83.9532748  16.2388607  52.0519594  83.0875341  17.3474209  52.6118416
  85.0475332  21.1194893  43.3655401  84.6094762  20.4030752  42.9061038
  85.7885773  21.3471008  42.8040492  81.8376499  15.8091830  49.8867497
  81.0244364  16.1086001  50.2932689  82.3335493  15.4147519  50.6041979
  83.9885076  25.8049587  51.8201761  83.9461255  26.0310433  50.8910293
  84.9047775  25.5712962  51.9687563  87.4350710  16.2733654  58.7182391
  87.7900098  16.5005128  59.5776856  88.0822841  16.6052031  58.0959646
  93.1648447  19.3952090  49.4231720  93.0266346  19.5853686  48.4952909
  92.8084666  20.1571473  49.8799771  81.3290573  13.3810186  55.5028732
  81.9689953  13.2398945  54.8051695  80.4968104  13.0944699  55.1267334
  93.1917827  21.4628617  54.4342991  93.6254333  21.3703906  55.2826045
  93.9049407  21.4386118  53.7963007  82.1050877  22.6812616  51.6163724
  82.8991476  22.1862936  51.4146299  81.3942570  22.1530479  51.2531430
  86.9245722  25.0630712  55.9676092  86.9782744  25.6321648  56.7353808
  86.0560503  25.2332597  55.6030129  78.4133641  16.8255698  47.6923477
  77.4831229  16.7640153  47.9093439  78.5091113  16.3031650  46.8960118
  78.3319190  13.3510511  50.2801718  78.5926007  14.2655844  50.1710879
  79.1536362  12.8834953  50.4298331  79.8044115  14.7648268  57.4500543
  80.4767168  14.5565630  56.8013192  78.9773902  14.5670354  57.0105775
  94.0533376  21.5052318  56.9675877  94.2469266  22.4098129  57.2135151
  93.9533994  21.0459737  57.8014462  85.7069687  11.3910209  59.4666204
  85.0597602  12.0900158  59.3730680  86.4770702  11.8246353  59.8342452
  89.1148485  21.6559061  62.5416757  88.9633991  21.4269612  61.6246841
  89.1053164  22.6129662  62.5548102  85.8833821  19.2290974  57.5263024
  86.8125881  19.3802133  57.3531991  85.4624851  19.3174994  56.6711670
  84.6822153  23.2541638  55.2961561  84.5433239  22.8860422  56.1687499
  83.8936749  23.7689277  55.1245519  85.2770305  28.3550734  46.6387098
  85.4522061  27.8838778  47.4532720  84.5903093  28.9816501  46.8668358
  86.2327368  22.6323241  52.6850399  85.8977201  22.5924011  53.5808049
  85.7331314  21.9667957  52.2120809  80.2071612  18.0390871  58.2102980
  80.0691410  17.3071110  58.8114519  81.1176536  17.9499771  57.9287168
  89.1686560  19.9779275  42.9587459  88.5515731  19.2526103  42.8620511
  88.7003048  20.7388635  42.6154533  82.8353913  17.7510830  57.6986660
  83.5453532  17.1104022  57.6573278  82.7923221  18.0023725  58.6212841
  90.8240692  24.6878183  60.6193239  90.7653238  24.0037403  59.9523822
  91.2260210  25.4297173  60.1673865  81.5482847  14.7376048  59.5182299
  81.0120204  14.2866786  60.1703896  80.9599555  14.8721957  58.7752764
  79.8431390  31.5040097  53.4126958  80.0827989  32.1358621  54.0905976
  79.0000587  31.1528137  53.6992317  80.9585106  14.1964699  42.0808763
  80.0814572  14.0753500  41.7171010  81.4342859  13.4050778  41.8287652
  90.8258099  22.6517767  58.8507219  89.9384878  22.3143689  58.9733618
  91.3956650  21.9200799  59.0875984  72.4787246  18.9841859  52.1750270
  73.1658286  18.6703589  51.5871285  72.3235375  19.8883224  51.9017521
  77.2821968  13.8732056  56.6035294  77.1980157  13.2657725  55.8685704
  76.4604675  14.3641074  56.6044790  84.3559252  27.3119220  55.8168462
  84.2829424  28.1174191  56.3287766  83.9136645  27.5111185  54.9916483
  84.1449032  26.5490990  49.3271283  83.3616554  27.0912670  49.4209508
  84.8441777  27.0664969  49.7265525  87.4545682  12.3585619  51.9705489
  87.9514382  11.6055581  51.6506559  86.6832664  12.3949936  51.4048698
  95.3075439  18.0625985  53.6123780  95.2965316  18.9450700  53.2417713
  94.4392819  17.7097535  53.4178317  86.8157936  27.2106054  57.9726621
  87.5285908  27.8453518  57.9002522  86.3247964  27.3069920  57.1566622
  88.5375463  21.1157306  49.5443912  87.6031741  21.2358769  49.3748617
  88.7152131  20.2129773  49.2803922  84.0380651  14.5003002  51.6977173
  83.6678438  13.9474042  52.3858079  84.5339743  13.8961136  51.1452173
  91.9248014  16.9574626  50.0793946  92.3908466  17.7902617  50.0054249
  92.3755515  16.4919607  50.7839205  81.8669849  24.9600497  58.7932191
  82.5679309  25.5936980  58.9461586  81.3964964  25.3015229  58.0327831
  89.9924245  23.3018447  47.0780098  90.2684089  23.1875041  47.9873972
  89.1228744  22.9035932  47.0392271  89.8964677   9.3255213  54.1184848
  88.9827757   9.5559439  54.2867055  90.3257778   9.4093657  54.9698880
  89.6671135  17.5145105  56.6184742  89.0142586  17.7621012  55.9637194
  90.0451515  16.7009243  56.2847219  86.6278309  27.5504798  50.7212912
  86.8100704  26.7326454  51.1840664  87.4511295  27.7672490  50.2837802
  86.9620475  26.4772983  47.9827960  87.4908241  25.9665437  47.3698123
  87.2248694  26.1615513  48.8473494  85.7158708  18.2564916  63.1050779
  85.0399345  18.1559045  63.7753154  86.5386342  18.1004129  63.5686776
  77.4637567  24.4936852  55.7263294  78.0491004  23.7480540  55.8591198
  77.2662406  24.8040809  56.6099958  80.3176223  27.5288100  50.7425736
  79.6486598  28.0134227  50.2589776  80.1789092  27.7757320  51.6569115
  72.0555222  17.0642452  54.4467737  72.0939322  16.5306043  55.2404855
  71.5495515  16.5377658  53.8278714  84.4581491  29.5631843  57.3408395
  85.0099799  29.7263465  58.1057480  84.7987685  30.1536281  56.6688420
  79.4345984  11.9106993  57.9430279  79.4987311  12.7721824  57.5307677
  79.3713105  11.2980995  57.2102638  78.9098257  13.9830125  61.5903314
  79.5370296  13.6007203  62.2040838  78.0526176  13.7644327  61.9559006
  89.3092366  24.3893101  63.1957049  89.8532270  25.0023059  62.7012004
  88.7279210  24.9472679  63.7124062  75.6863800  15.7906555  47.5221669
  75.9817241  14.8817233  47.4688722  74.7851836  15.7694294  47.2002671
  87.5949879  27.5113819  54.3272077  87.4701018  26.7103558  53.8183022
  88.2528970  28.0060012  53.8386047  79.2158047  13.8662551  53.5049217
  78.4944633  14.4798519  53.3656690  80.0051303  14.4020316  53.4265863
  89.6584787  25.3122839  55.9551627  88.7115122  25.1928190  55.8829954
  90.0067560  24.4245337  56.0377888  82.0184360  11.2016978  59.7789869
  82.5418762  11.4479274  60.5416178  81.7996694  12.0337012  59.3593006
  77.4151641  13.4720652  47.6460994  77.0864347  12.5918031  47.4636100
  77.7691012  13.4168321  48.5337383  86.6631220  25.1075555  52.1555979
  86.5156183  24.1792262  52.3363549  87.4884714  25.1295646  51.6713055
  80.5293464  13.7593622  48.0136471  80.8689537  14.2879543  47.2915080
  80.9765585  14.0974028  48.7895038  90.2665342  25.9304114  53.2420852
  91.1911890  25.7246975  53.1045303  90.0980645  25.6820515  54.1510194
  83.2236905  12.1430673  57.4639539  82.8833726  11.3438486  57.8660219
  82.5175912  12.4432384  56.8916373  83.8753377   9.2279985  55.9166862
  84.6979446   8.7540463  55.7945753  84.1191441  10.0070469  56.4165549
  82.5161612  12.2568244  46.2129764  83.2369974  12.6349496  45.7093481
  81.8926916  12.9757120  46.3164742  86.6592735  12.9613393  47.1488097
  86.8756349  13.8438030  46.8476925  86.1786802  12.5699606  46.4193738
  81.3991956  15.9199106  53.7258841  81.2536537  16.2339409  54.6183123
  80.9217160  16.5384006  53.1729740  83.2588339  12.9101654  53.7739731
  83.2449908  12.0142747  53.4372029  83.9760767  12.9172318  54.4078017
  85.1114469  13.3438994  55.8192858  84.8532247  14.2656065  55.8177189
  84.5799510  12.9469429  56.5093322  90.0560658  26.4489781  48.5982943
  90.2297536  25.8836204  47.8456796  90.5489549  27.2490676  48.4162433
  75.8737618  18.4604450  56.6646502  75.3291086  19.2364258  56.7966777
  76.7516968  18.8075255  56.5065624  82.6625235  11.7916034  49.0427301
  82.7841146  10.8632680  49.2418188  82.3727277  11.8054720  48.1305616
  85.5316425   9.4770944  52.1794021  85.5538122   9.5410278  51.2246000
  85.9484484   8.6375453  52.3734527  95.9100049  19.2126204  50.2173243
  96.3531195  18.4633529  49.8192366  95.0326560  19.2036340  49.8346975
  91.0435831  25.7656545  45.6979842  91.7386735  26.3863238  45.9167156
  91.3858981  24.9151897  45.9732220  76.6603640  17.5874346  59.5576659
  75.9185376  17.7356982  60.1441290  76.3396384  17.8482612  58.6943409
  92.9427254  23.2156251  47.2267173  93.4678578  23.5543524  46.5016493
  92.8549606  22.2803266  47.0430307  84.6047303  27.1290325  59.3557049
  84.9134429  26.8839471  60.2279749  85.4022785  27.3336963  58.8675919
  84.6267915  29.2828234  51.5862426  84.1872905  28.7904613  52.2795282
  85.3776032  28.7401202  51.3454501  77.1060254  25.4739775  51.5887054
  77.9318274  25.1743547  51.2085697  76.7554306  24.7047398  52.0376842
  82.0741787  24.8266243  53.6584727  81.4521796  24.1636948  53.3586955
  82.7446654  24.8527375  52.9758375  75.3068859  23.3926102  52.5475987
  74.4700767  22.9648276  52.3659989  75.2792504  23.5858545  53.4846779
  82.1466314  13.3048031  63.2517233  82.1954470  14.1810154  62.8695003
  82.6888828  12.7625424  62.6788877  92.6321160  23.8489155  62.5318370
  91.8416704  23.8313294  61.9922870  92.3954515  24.3877448  63.2867407
  92.7519035  20.6981621  59.8451099  92.8017040  20.5331628  60.7866622
  92.6432958  19.8308880  59.4548980  81.6355294  23.3770167  47.1343188
  81.7843414  24.0605631  46.4809861  82.4421737  23.3575257  47.6492644
  90.0422797  16.6812549  61.1610406  90.9432660  16.5419014  60.8694404
  90.1170772  16.8467004  62.1008583  84.3765603  14.0579404  60.0063592
  83.5068912  14.3512970  59.7346181  84.6125083  14.6419849  60.7270856
  94.2537232  23.1178563  60.0893121  93.9622040  23.4808543  60.9256582
  93.6409363  22.4045571  59.9106453  95.4532914  20.6831442  52.6095691
  96.2879806  21.1221246  52.7733251  95.5892043  20.2070096  51.7903937
  92.5024420  18.2411177  58.5573179  92.9778542  18.4338823  57.7492030
  91.5789985  18.2970363  58.3116562  79.3907927  19.4035344  48.1404257
  79.1453969  18.4997674  48.3384467  79.5603841  19.4052495  47.1983735
  87.0804637  10.2759021  57.5229012  87.5986580  11.0120048  57.1975501
  86.7259769  10.5823014  58.3575772  78.6603574  15.1363702  45.6390418
  77.9672819  15.2108057  44.9830454  78.4155326  14.3724046  46.1611935
  87.3317231   6.6959303  53.0429909  87.6118984   6.0282492  53.6690336
  88.1167838   6.8888399  52.5304573  85.1350699  25.8718297  44.6054935
  84.5624666  26.4908484  44.1525407  85.7083493  26.4217659  45.1394857
  91.2026089  15.1176937  56.7901484  92.1543512  15.2175035  56.8113708
  91.0329539  14.3255206  57.2999569  89.2240469  12.2032520  56.9760885
  88.6290401  12.4837533  56.2807374  88.9390165  12.6926421  57.7477626
  88.3547959  26.1555447  45.7363518  89.2878632  26.0901009  45.9396393
  88.2671172  26.9911714  45.2778050  90.9835976  25.4721318  42.6967465
  90.9049607  25.1381181  43.5903223  91.8045642  25.9643086  42.6958938
  93.6814167  18.3383057  55.9043784  93.6490487  17.3999058  56.0903468
  94.2914790  18.4167094  55.1709609  85.5197498  17.2079110  41.9470988
  86.4656602  17.0785318  42.0159406  85.1411743  16.4693772  42.4240416
  93.8308655  15.1294100  55.9502067  93.3147704  14.3452557  55.7631996
  94.7148604  14.8012817  56.1148586  91.4919382   8.8735116  51.9097880
  91.2944203   8.5650204  52.7941212  92.1019088   9.5996755  52.0395810
  99.4990717  19.3999064  55.0449821 100.2294105  19.1384352  55.6057524
  98.8897662  18.6627786  55.0851889  97.5806014  17.5406926  55.6424272
  96.8539177  17.4062891  55.0340763  97.1653301  17.8483755  56.4480990
  85.4036190  21.2596856  63.4071645  86.3239200  21.4375455  63.6011691
  85.3685773  20.3152901  63.2551344  83.7040415  15.1329086  41.8825873
  82.7971870  14.8362199  41.9588587  83.9816396  14.8358904  41.0160159
  74.6218355  16.4535450  52.3324919  74.3021140  15.6000758  52.0399293
  74.0751783  16.6684028  53.0882887  78.3998263  19.1697891  56.0494426
  78.6184273  20.1014999  56.0682460  78.8124037  18.8105865  56.8349230
  85.3202481   9.6765976  48.0370114  84.5103209   9.3313061  48.4125360
  86.0086898   9.3673520  48.6257726  87.2493029   8.7544023  49.6594411
  87.8024067   9.1739476  50.3184434  87.4863115   7.8279771  49.7017367
  83.2726128  14.7431096  65.4397175  83.1722855  15.6925453  65.3709266
  83.0547670  14.4149335  64.5673245  82.4739199  11.9916022  42.0237852
  83.3358363  12.3170920  42.2833670  82.6589544  11.2047517  41.5110918
  74.4906615  20.0738361  54.3018041  73.7970087  19.6592314  53.7887995
  75.2379606  20.1158898  53.7051460  90.6271836  10.8644548  49.1673075
  90.0470505  11.5229352  48.7851128  90.3607769  10.0421893  48.7560493
  89.0775402  10.2649606  51.3694396  89.5775181  10.3766140  50.5608714
  89.7211010   9.9610659  52.0095204  83.1357398  18.1728235  64.2562237
  82.6524480  18.9728595  64.4626126  83.2218337  18.1836180  63.3029681
  76.4043358  20.0056615  52.1784056  76.3814046  20.1044302  51.2265939
  76.7143994  20.8521766  52.5001222  79.0630736  22.0632770  56.2930670
  80.0173989  22.0316712  56.2260602  78.8643259  21.6023394  57.1080896
  79.6530118  20.6333886  58.8601468  80.4723007  21.1277965  58.8836305
  79.9266925  19.7165854  58.8319036  89.4096714  13.0244638  48.2229424
  88.5222569  13.3094289  48.0049618  89.8250703  12.8638402  47.3756700
  92.7611250  13.0491159  51.9383763  93.5371640  13.5387612  52.2108380
  92.0359384  13.4749214  52.3955632  95.1983809  13.7618779  52.9957703
  95.7928300  13.5214515  52.2851012  95.2710392  13.0425909  53.6231240
  77.4180964  27.6052390  53.3100868  77.2835432  26.8452790  52.7438866
  77.0013027  28.3293289  52.8429657  88.5539927  22.7889313  42.3177444
  89.2575778  22.9939316  42.9335099  87.8302576  23.3566075  42.5826527
  89.3837738  18.5399174  48.4379714  89.3272939  18.9967726  47.5987346
  89.9366080  17.7789859  48.2602556  93.1942544  14.3288906  49.2629833
  92.9379478  13.9285542  50.0938041  92.5695412  15.0432700  49.1379972
  97.5054881  17.0684979  51.7701125  96.9454439  17.1378169  52.5432687
  96.8998385  16.8925964  51.0500621  80.5750090  28.5021707  53.5219311
  80.4582474  29.4467139  53.4198001  79.7542537  28.1995268  53.9105110
  90.4626625  23.2271842  44.3675904  91.2972229  22.7953041  44.1853378
  90.3010968  23.0553856  45.2952798  90.1172517  19.7303956  45.7332243
  90.0621321  19.5648227  44.7920687  89.4918572  20.4379988  45.8894433
  74.9065032  14.9672020  59.5593665  75.5523896  14.4570974  60.0480890
  74.6982183  15.7040702  60.1337090  87.4318424  22.0352867  65.0585806
  88.3009584  22.2093520  64.6972441  86.9525176  22.8547284  64.9361535
  83.4268642   9.2312065  45.3117561  83.4147312  10.1753904  45.4685832
  84.3192064   9.0482210  45.0177022  81.6004604  29.1549968  56.7375239
  82.5031851  29.1873579  57.0541734  81.3741974  28.2250419  56.7521575
  83.3558206  27.9080955  53.3985318  82.4053837  27.9082817  53.2849690
  83.6590693  27.1613690  52.8821353  87.2420762   5.8254841  49.5663498
  86.4753158   5.2713328  49.7120180  87.6531467   5.8976710  50.4277650
  79.2462523  12.1139637  63.6568679  80.1093985  11.7576442  63.8672004
  78.6727934  11.7753532  64.3444084  99.0910900  33.7441493  54.4631080
  99.7289310  33.6248241  53.7594420  98.9731743  34.6922337  54.5219032
  95.9000606  33.6968921  54.3992605  95.5619118  33.5809986  53.5113140
  96.7690374  33.2960087  54.3793611  91.7587422  35.5504398  50.3889496
  91.1952287  35.4594335  49.6205784  91.6439817  34.7304302  50.8691988
  96.3820389  34.8503773  60.3578811  96.3709030  34.4556571  59.4859314
  96.5441029  34.1169846  60.9512582  89.3051854  37.0455589  53.2273716
  90.0973146  36.7046414  52.8120016  89.5448504  37.1550565  54.1475870
  97.3386981  39.2175366  45.7003961  96.6874960  39.8029446  45.3137975
  98.1331343  39.7481560  45.7598998  91.2642608  36.3064503  46.0991095
  92.0373484  35.7593490  45.9603971  91.6168007  37.1708752  46.3105557
  93.1027650  37.6340885  59.3057995  92.8117516  38.5386516  59.1904661
  93.7384635  37.6757413  60.0202064  94.0283857  35.0117734  55.8959354
  94.6247429  34.7873756  55.1816317  94.0858829  34.2702479  56.4984802
  93.6008886  32.4657169  43.7309545  93.8534406  31.9438690  42.9693008
  92.6633445  32.3023314  43.8336229  98.6452168  31.4692947  51.5384288
  99.4315258  31.0512370  51.1874705  98.9090873  32.3739039  51.7065937
  98.8162246  36.9065798  46.2372945  98.1808079  36.9800424  46.9493850
  98.4859652  37.4959396  45.5592024 104.0460596  31.4068180  52.4417267
 104.7785767  30.8367397  52.6755096 103.2899951  31.0189781  52.8823772
  93.3205174  34.3685275  45.9333920  93.2041432  33.6930178  46.6015004
  93.4307434  33.8817649  45.1166073  95.6636715  33.8295422  49.6380609
  95.2994922  33.3026043  50.3493531  96.5203831  33.4393891  49.4647095
 101.5686016  25.1189755  56.9011875 101.2369341  25.9885165  56.6773090
 100.9731629  24.8026039  57.5805906  95.3042202  28.8585322  44.6341958
  95.4716605  29.7265558  45.0012429  95.1139371  29.0212603  43.7103247
  98.0617535  37.3202301  56.3007788  97.7618259  38.2227339  56.1923595
  97.7168595  37.0534484  57.1528941  91.5130017  33.7716097  52.3344493
  90.5880513  33.6392311  52.5422184  91.7614430  34.5510317  52.8314435
 101.4614679  29.8384841  53.9805226 100.5531557  29.7700249  53.6863986
 101.4102275  30.3156786  54.8087051  95.2831423  31.3142979  45.6188625
  95.1631048  31.7600030  46.4574105  94.5884012  31.6628297  45.0602163
  88.8738828  33.4149371  53.1688282  89.0031209  33.6683850  54.0827693
  88.1936279  34.0077079  52.8492937  93.0438315  44.0846621  49.2678756
  92.9662345  45.0354446  49.3467236  92.4399959  43.7392493  49.9253682
  95.5355545  31.2574486  61.9240123  94.7588879  31.8168406  61.9142987
  96.1746108  31.7431269  62.4454993 103.3276326  28.0401279  55.7583099
 102.6850706  28.3333812  55.1122894 102.8231254  27.9254199  56.5636296
 100.9816489  31.7864452  46.4468959 101.8934345  32.0191839  46.2716656
 100.4726136  32.3701496  45.8844037  93.7901917  34.0659940  61.4858090
  94.5316602  34.6044984  61.2092913  93.0838903  34.6926228  61.6429642
  99.2657257  36.2089080  60.0830251  99.6740613  35.7671491  59.3384884
  98.5434518  35.6341708  60.3364444  95.6188327  31.1461687  57.4563808
  96.4649522  31.5701100  57.5998457  95.5586965  30.4895311  58.1502371
  99.5886072  36.7690271  53.8382540  98.9594934  36.9335985  53.1358608
  99.2011734  37.1831880  54.6093504 103.4675303  37.7044709  51.1926904
 102.7826342  38.0843610  50.6423937 103.5519153  38.3140035  51.9258852
  98.7687772  28.8066055  59.1144982  98.5248704  29.5608116  58.5779258
  99.0447703  29.1851403  59.9492229 100.7226235  35.3504668  57.7922247
 100.9343130  35.9936428  57.1156629 100.6755983  34.5166984  57.3244178
  98.3252464  27.9622488  54.6958820  97.4636943  28.2603742  54.9875557
  98.3514899  28.1792887  53.7639852  95.1414033  36.5064679  51.1032625
  95.6052379  36.7852382  50.3137248  94.8770832  35.6048123  50.9205716
  92.0338115  36.0536160  54.0412389  92.6039472  36.4823429  53.4029873
  92.6246226  35.7718745  54.7396574  94.0782920  32.6287831  47.9122190
  94.7806963  33.0808875  48.3796117  93.7463548  31.9871650  48.5402084
  92.5263281  31.2199588  62.2873400  91.8961942  31.9015869  62.5208797
  92.4199369  31.1082669  61.3426538  87.8208253  30.8871384  53.2139324
  87.0307307  31.1428912  52.7379435  88.3119501  31.7019722  53.3191365
 101.8372063  38.2276623  55.9644605 102.6589507  37.8256810  55.6827286
 101.8334466  38.1244857  56.9160721  89.7722999  31.2515963  50.1722801
  88.9754162  31.3634657  50.6906296  89.5448591  31.5902615  49.3063691
  95.6028666  37.7760666  58.1205315  95.6673099  38.2381074  58.9563487
  94.8939590  37.1458031  58.2487625  86.1045956  31.1401874  55.6454315
  86.3553995  32.0248884  55.9111891  86.6405505  30.9606476  54.8729407
 109.9278056  34.5715372  52.3129576 109.1741764  34.0022770  52.1573581
 110.0625597  34.5378036  53.2600211  95.3176684  39.4428774  47.9884296
  95.1822359  40.2880310  48.4169143  95.8586497  39.6448051  47.2250229
  91.8044024  25.5220354  64.6498651  91.4110969  24.9686552  65.3246295
  92.6210164  25.8330932  65.0405168  88.7706082  36.9604212  48.5612221
  89.2830602  37.7547462  48.7117785  89.4228794  36.2630502  48.4945822
  90.5800966  40.0769968  50.6434974  90.7567595  40.9987933  50.4555958
  91.3757800  39.7628387  51.0729354  94.7211985  26.9378233  62.2418907
  95.4621698  27.5385386  62.1623370  94.9529908  26.1955871  61.6836950
  89.8653323  32.1234600  60.5197137  89.7506838  31.2219857  60.8204236
  89.0097841  32.3698297  60.1681954  96.9445161  40.0652340  62.1184638
  96.5009015  39.2788719  61.8005542  97.6062374  40.2531491  61.4528528
  91.7032282  41.5948142  56.6445316  92.2539707  41.4665205  55.8722310
  90.8643758  41.8943031  56.2940209  99.0426399  40.3455140  60.1466039
  99.0244874  41.1664021  59.6546308  99.9646319  40.2209215  60.3716180
  95.4999453  37.8599270  60.9889547  96.0327790  37.0987558  60.7588855
  94.9713534  37.5672922  61.7313702  98.6669148  22.9659336  56.5183189
  98.3233417  23.8560977  56.4422300  99.0348110  22.7760993  55.6552774
  86.7354998  35.2892866  49.3371791  87.5730220  35.6989875  49.1205499
  86.9133266  34.3492308  49.3071985  98.6319430  32.9567947  45.0255624
  98.1166054  33.7272551  45.2644012  98.3596739  32.2833083  45.6488686
  96.2166541  27.8017648  50.0840863  95.3608138  27.4124498  49.9046501
  96.6293493  27.8809608  49.2240648  97.7465688  25.3363991  54.4832422
  97.2430484  25.2994126  53.6700228  98.0396295  26.2456734  54.5429079
  93.9908574  25.4202721  53.4898604  94.8561571  25.2245529  53.1304494
  94.0586083  25.1913072  54.4167961 103.6053705  35.7100301  46.9608798
 102.8283147  35.3711461  46.5163960 104.2845186  35.7152925  46.2863763
  98.4205734  30.8295039  46.8515405  98.1155869  31.1441188  47.7025549
  99.3736176  30.9076459  46.8942738  96.8652165  36.9885262  48.5008359
  96.3373527  36.2538022  48.1881597  96.3639668  37.7659939  48.2548328
 101.8445011  35.1834283  53.6175406 101.1868686  35.8733544  53.7055534
 102.6485411  35.5730715  53.9609392  91.5970893  27.6504929  50.8614971
  92.1714645  27.4280110  50.1288164  92.1841876  27.7193623  51.6143572
 100.6550470  33.5378655  51.6679347 101.1682352  34.1708647  52.1701057
 101.3051694  32.9379851  51.3022707  91.9240480  29.6809390  44.8810856
  91.0877792  30.0184076  45.2020131  91.7845250  29.5458369  43.9437993
  93.8993561  24.5246177  49.5890040  93.2457973  24.2095195  48.9646655
  93.8574035  23.9021918  50.3149863  95.0104766  34.8065472  41.5043332
  94.1031827  34.5754726  41.7034481  95.5075798  34.0103092  41.6917314
  97.9172845  43.5162980  44.4240019  97.2434543  43.8194676  45.0324976
  98.3038666  44.3192060  44.0745476  97.1331301  31.0128111  53.9137688
  96.2153863  31.2343058  53.7559376  97.5491445  31.0874421  53.0549395
  97.9166349  32.4119527  49.0440368  98.6638168  32.9240924  48.7347490
  98.1857938  32.0903579  49.9044762  96.1892999  34.9078067  46.0267322
  95.2804218  34.6237100  46.1239792  96.2188083  35.3277146  45.1670629
 101.4212266  38.5184657  49.7958490 100.9674594  37.6775567  49.8523681
 100.7906233  39.1546055  50.1333270 100.3645186  29.4476643  51.0259157
  99.6267943  28.9354029  51.3569400 100.6171960  29.0077024  50.2142434
  99.8645206  40.3561154  50.7308308 100.1568180  40.9166211  50.0120674
 100.3743826  40.6489715  51.4861467 100.4656813  22.2252895  51.6200927
 100.7715690  21.3650258  51.3326842 101.1909418  22.8170515  51.4199921
  86.7581169  32.6283581  50.0082525  86.5605569  32.0352942  49.2833591
  86.2027833  32.3235792  50.7258463  94.7377893  32.5206688  52.1277118
  94.7926503  31.5680524  52.0519594  93.9269095  32.6766127  52.6118416
  95.8869087  36.4486811  43.3655401  95.4488517  35.7322670  42.9061038
  96.6279528  36.6762926  42.8040492  92.6770253  31.1383748  49.8867497
  91.8638119  31.4377918  50.2932689  93.1729247  30.7439436  50.6041979
  94.8278831  41.1341505  51.8201761  94.7855010  41.3602351  50.8910293
  95.7441530  40.9004879  51.9687563  98.2744465  31.6025572  58.7182391
  98.6293852  31.8297045  59.5776856  98.9216596  31.9343949  58.0959646
 104.0042202  34.7244008  49.4231720 103.8660100  34.9145604  48.4952909
 103.6478420  35.4863391  49.8799771  92.1684328  28.7102103  55.5028732
  92.8083707  28.5690862  54.8051695  91.3361858  28.4236617  55.1267334
 104.0311581  36.7920535  54.4342991 104.4648088  36.6995824  55.2826045
 104.7443162  36.7678036  53.7963007  92.9444632  38.0104534  51.6163724
  93.7385230  37.5154854  51.4146299  92.2336324  37.4822397  51.2531430
  97.7639476  40.3922629  55.9676092  97.8176498  40.9613565  56.7353808
  96.8954258  40.5624514  55.6030129  89.2527395  32.1547615  47.6923477
  88.3224983  32.0932071  47.9093439  89.3484867  31.6323568  46.8960118
  89.1712944  28.6802428  50.2801718  89.4319762  29.5947761  50.1710879
  89.9930117  28.2126871  50.4298331  90.6437870  30.0940185  57.4500543
  91.3160923  29.8857548  56.8013192  89.8167656  29.8962271  57.0105775
 104.8927131  36.8344236  56.9675877 105.0863021  37.7390046  57.2135151
 104.7927749  36.3751655  57.8014462  96.5463442  26.7202126  59.4666204
  95.8991357  27.4192076  59.3730680  97.3164457  27.1538270  59.8342452
  99.9542239  36.9850978  62.5416757  99.8027746  36.7561530  61.6246841
  99.9446919  37.9421580  62.5548102  96.7227576  34.5582891  57.5263024
  97.6519636  34.7094051  57.3531991  96.3018606  34.6466912  56.6711670
  95.5215908  38.5833556  55.2961561  95.3826993  38.2152340  56.1687499
  94.7330504  39.0981195  55.1245519  96.1164060  43.6842652  46.6387098
  96.2915815  43.2130695  47.4532720  95.4296848  44.3108418  46.8668358
  97.0721123  37.9615158  52.6850399  96.7370955  37.9215928  53.5808049
  96.5725069  37.2959874  52.2120809  91.0465367  33.3682788  58.2102980
  90.9085165  32.6363027  58.8114519  91.9570290  33.2791688  57.9287168
 100.0080314  35.3071193  42.9587459  99.3909485  34.5818021  42.8620511
  99.5396803  36.0680553  42.6154533  93.6747667  33.0802748  57.6986660
  94.3847286  32.4395940  57.6573278  93.6316976  33.3315643  58.6212841
 101.6634446  40.0170101  60.6193239 101.6046992  39.3329321  59.9523822
 102.0653965  40.7589091  60.1673865  92.3876601  30.0667966  59.5182299
  91.8513958  29.6158704  60.1703896  91.7993310  30.2013874  58.7752764
  90.6825145  46.8332015  53.4126958  90.9221743  47.4650539  54.0905976
  89.8394341  46.4820055  53.6992317  91.7978860  29.5256617  42.0808763
  90.9208327  29.4045418  41.7171010  92.2736613  28.7342695  41.8287652
 101.6651853  37.9809685  58.8507219 100.7778632  37.6435607  58.9733618
 102.2350404  37.2492716  59.0875984  83.3181001  34.3133777  52.1750270
  84.0052040  33.9995507  51.5871285  83.1629129  35.2175141  51.9017521
  88.1215723  29.2023973  56.6035294  88.0373911  28.5949643  55.8685704
  87.2998429  29.6932992  56.6044790  95.1953007  42.6411137  55.8168462
  95.1223178  43.4466109  56.3287766  94.7530400  42.8403103  54.9916483
  94.9842786  41.8782907  49.3271283  94.2010308  42.4204588  49.4209508
  95.6835532  42.3956887  49.7265525  98.2939437  27.6877537  51.9705489
  98.7908136  26.9347499  51.6506559  97.5226418  27.7241853  51.4048698
 106.1469194  33.3917902  53.6123780 106.1359070  34.2742618  53.2417713
 105.2786573  33.0389453  53.4178317  97.6551690  42.5397971  57.9726621
  98.3679663  43.1745436  57.9002522  97.1641719  42.6361837  57.1566622
  99.3769217  36.4449224  49.5443912  98.4425496  36.5650686  49.3748617
  99.5545886  35.5421691  49.2803922  94.8774405  29.8294920  51.6977173
  94.5072193  29.2765960  52.3858079  95.3733498  29.2253053  51.1452173
 102.7641769  32.2866543  50.0793946 103.2302221  33.1194535  50.0054249
 103.2149269  31.8211525  50.7839205  92.7063604  40.2892415  58.7932191
  93.4073063  40.9228898  58.9461586  92.2358719  40.6307146  58.0327831
 100.8318000  38.6310365  47.0780098 101.1077844  38.5166959  47.9873972
  99.9622498  38.2327849  47.0392271 100.7358431  24.6547130  54.1184848
  99.8221511  24.8851357  54.2867055 101.1651533  24.7385574  54.9698880
 100.5064890  32.8437022  56.6184742  99.8536340  33.0912930  55.9637194
 100.8845270  32.0301160  56.2847219  97.4672064  42.8796715  50.7212912
  97.6494458  42.0618371  51.1840664  98.2905050  43.0964408  50.2837802
  97.8014229  41.8064901  47.9827960  98.3301996  41.2957355  47.3698123
  98.0642449  41.4907431  48.8473494  96.5552463  33.5856833  63.1050779
  95.8793100  33.4850963  63.7753154  97.3780097  33.4296047  63.5686776
  88.3031322  39.8228770  55.7263294  88.8884759  39.0772458  55.8591198
  88.1056160  40.1332727  56.6099958  91.1569977  42.8580017  50.7425736
  90.4880352  43.3426145  50.2589776  91.0182847  43.1049238  51.6569115
  82.8948977  32.3934370  54.4467737  82.9333076  31.8597961  55.2404855
  82.3889269  31.8669576  53.8278714  95.2975246  44.8923761  57.3408395
  95.8493554  45.0555382  58.1057480  95.6381439  45.4828199  56.6688420
  90.2739739  27.2398911  57.9430279  90.3381065  28.1013741  57.5307677
  90.2106859  26.6272912  57.2102638  89.7492011  29.3122043  61.5903314
  90.3764050  28.9299120  62.2040838  88.8919930  29.0936245  61.9559006
 100.1486120  39.7185018  63.1957049 100.6926024  40.3314977  62.7012004
  99.5672965  40.2764597  63.7124062  86.5257554  31.1198472  47.5221669
  86.8210995  30.2109151  47.4688722  85.6245590  31.0986212  47.2002671
  98.4343633  42.8405736  54.3272077  98.3094772  42.0395476  53.8183022
  99.0922724  43.3351930  53.8386047  90.0551801  29.1954469  53.5049217
  89.3338387  29.8090436  53.3656690  90.8445057  29.7312234  53.4265863
 100.4978541  40.6414756  55.9551627  99.5508877  40.5220108  55.8829954
 100.8461315  39.7537254  56.0377888  92.8578115  26.5308895  59.7789869
  93.3812517  26.7771192  60.5416178  92.6390448  27.3628930  59.3593006
  88.2545396  28.8012570  47.6460994  87.9258102  27.9209949  47.4636100
  88.6084767  28.7460239  48.5337383  97.5024975  40.4367473  52.1555979
  97.3549937  39.5084180  52.3363549  98.3278468  40.4587563  51.6713055
  91.3687219  29.0885540  48.0136471  91.7083291  29.6171461  47.2915080
  91.8159339  29.4265946  48.7895038 101.1059097  41.2596031  53.2420852
 102.0305644  41.0538893  53.1045303 100.9374400  41.0112432  54.1510194
  94.0630660  27.4722590  57.4639539  93.7227480  26.6730403  57.8660219
  93.3569666  27.7724301  56.8916373  94.7147132  24.5571903  55.9166862
  95.5373201  24.0832381  55.7945753  94.9585195  25.3362387  56.4165549
  93.3555366  27.5860161  46.2129764  94.0763729  27.9641414  45.7093481
  92.7320670  28.3049038  46.3164742  97.4986489  28.2905310  47.1488097
  97.7150103  29.1729948  46.8476925  97.0180556  27.8991524  46.4193738
  92.2385710  31.2491023  53.7258841  92.0930291  31.5631327  54.6183123
  91.7610914  31.8675924  53.1729740  94.0982093  28.2393571  53.7739731
  94.0843662  27.3434665  53.4372029  94.8154521  28.2464235  54.4078017
  95.9508224  28.6730912  55.8192858  95.6926002  29.5947982  55.8177189
  95.4193264  28.2761346  56.5093322 100.8954413  41.7781699  48.5982943
 101.0691290  41.2128121  47.8456796 101.3883304  42.5782594  48.4162433
  86.7131373  33.7896368  56.6646502  86.1684841  34.5656176  56.7966777
  87.5910722  34.1367172  56.5065624  93.5018989  27.1207952  49.0427301
  93.6234900  26.1924598  49.2418188  93.2121032  27.1346638  48.1305616
  96.3710180  24.8062862  52.1794021  96.3931876  24.8702195  51.2246000
  96.7878239  23.9667371  52.3734527 106.7493804  34.5418122  50.2173243
 107.1924950  33.7925447  49.8192366 105.8720314  34.5328258  49.8346975
 101.8829585  41.0948463  45.6979842 102.5780490  41.7155156  45.9167156
 102.2252735  40.2443814  45.9732220  87.4997394  32.9166264  59.5576659
  86.7579130  33.0648899  60.1441290  87.1790139  33.1774530  58.6943409
 103.7821008  38.5448169  47.2267173 104.3072332  38.8835441  46.5016493
 103.6943361  37.6095184  47.0430307  95.4441057  42.4582242  59.3557049
  95.7528183  42.2131389  60.2279749  96.2416539  42.6628881  58.8675919
  95.4661669  44.6120152  51.5862426  95.0266659  44.1196531  52.2795282
  96.2169786  44.0693120  51.3454501  87.9454008  40.8031693  51.5887054
  88.7712028  40.5035465  51.2085697  87.5948060  40.0339315  52.0376842
  92.9135541  40.1558161  53.6584727  92.2915551  39.4928866  53.3586955
  93.5840408  40.1819293  52.9758375  86.1462613  38.7218019  52.5475987
  85.3094521  38.2940194  52.3659989  86.1186259  38.9150463  53.4846779
  92.9860069  28.6339949  63.2517233  93.0348224  29.5102072  62.8695003
  93.5282583  28.0917342  62.6788877 103.4714914  39.1781072  62.5318370
 102.6810458  39.1605211  61.9922870 103.2348269  39.7169366  63.2867407
 103.5912789  36.0273539  59.8451099 103.6410794  35.8623546  60.7866622
 103.4826713  35.1600798  59.4548980  92.4749048  38.7062084  47.1343188
  92.6237169  39.3897549  46.4809861  93.2815492  38.6867174  47.6492644
 100.8816552  32.0104467  61.1610406 101.7826415  31.8710932  60.8694404
 100.9564526  32.1758922  62.1008583  95.2159357  29.3871321  60.0063592
  94.3462667  29.6804888  59.7346181  95.4518838  29.9711766  60.7270856
 105.0930986  38.4470480  60.0893121 104.8015795  38.8100461  60.9256582
 104.4803118  37.7337489  59.9106453 106.2926669  36.0123360  52.6095691
 107.1273560  36.4513164  52.7733251 106.4285797  35.5362013  51.7903937
 103.3418175  33.5703095  58.5573179 103.8172296  33.7630741  57.7492030
 102.4183740  33.6262281  58.3116562  90.2301681  34.7327262  48.1404257
  89.9847723  33.8289592  48.3384467  90.3997596  34.7344412  47.1983735
  97.9198391  25.6050938  57.5229012  98.4380335  26.3411965  57.1975501
  97.5653524  25.9114932  58.3575772  89.4997329  30.4655620  45.6390418
  88.8066574  30.5399975  44.9830454  89.2549081  29.7015963  46.1611935
  98.1710985  22.0251221  53.0429909  98.4512739  21.3574410  53.6690336
  98.9561592  22.2180317  52.5304573  95.9744454  41.2010215  44.6054935
  95.4018421  41.8200402  44.1525407  96.5477247  41.7509577  45.1394857
 102.0419844  30.4468855  56.7901484 102.9937266  30.5466953  56.8113708
 101.8723294  29.6547124  57.2999569 100.0634223  27.5324438  56.9760885
  99.4684155  27.8129451  56.2807374  99.7783920  28.0218339  57.7477626
  99.1941713  41.4847365  45.7363518 100.1272387  41.4192927  45.9396393
  99.1064926  42.3203632  45.2778050 101.8229730  40.8013235  42.6967465
 101.7443362  40.4673099  43.5903223 102.6439397  41.2935003  42.6958938
 104.5207921  33.6674975  55.9043784 104.4884241  32.7290975  56.0903468
 105.1308545  33.7459011  55.1709609  96.3591252  32.5371028  41.9470988
  97.3050357  32.4077236  42.0159406  95.9805497  31.7985690  42.4240416
 104.6702410  30.4586018  55.9502067 104.1541458  29.6744475  55.7631996
 105.5542358  30.1304735  56.1148586 102.3313137  24.2027034  51.9097880
 102.1337958  23.8942122  52.7941212 102.9412842  24.9288673  52.0395810
 110.3384471  34.7290981  55.0449821 111.0687860  34.4676270  55.6057524
 109.7291417  33.9919703  55.0851889 108.4199768  32.8698844  55.6424272
 107.6932932  32.7354809  55.0340763 108.0047055  33.1775673  56.4480990
  96.2429945  36.5888774  63.4071645  97.1632954  36.7667373  63.6011691
  96.2079528  35.6444819  63.2551344  94.5434169  30.4621004  41.8825873
  93.6365625  30.1654117  41.9588587  94.8210150  30.1650822  41.0160159
  85.4612110  31.7827367  52.3324919  85.1414894  30.9292676  52.0399293
  84.9145538  31.9975946  53.0882887  89.2392017  34.4989808  56.0494426
  89.4578027  35.4306916  56.0682460  89.6517791  34.1397783  56.8349230
  96.1596235  25.0057894  48.0370114  95.3496963  24.6604979  48.4125360
  96.8480652  24.6965437  48.6257726  98.0886783  24.0835941  49.6594411
  98.6417822  24.5031394  50.3184434  98.3256870  23.1571689  49.7017367
  94.1119883  30.0723014  65.4397175  94.0116609  31.0217371  65.3709266
  93.8941425  29.7441253  64.5673245  93.3132954  27.3207939  42.0237852
  94.1752118  27.6462838  42.2833670  93.4983298  26.5339435  41.5110918
  85.3300370  35.4030279  54.3018041  84.6363841  34.9884232  53.7887995
  86.0773361  35.4450815  53.7051460 101.4665590  26.1936466  49.1673075
 100.8864259  26.8521270  48.7851128 101.2001523  25.3713810  48.7560493
  99.9169157  25.5941523  51.3694396 100.4168935  25.7058058  50.5608714
 100.5604765  25.2902576  52.0095204  93.9751153  33.5020153  64.2562237
  93.4918234  34.3020513  64.4626126  94.0612092  33.5128098  63.3029681
  87.2437112  35.3348533  52.1784056  87.2207800  35.4336220  51.2265939
  87.5537749  36.1813683  52.5001222  89.9024490  37.3924688  56.2930670
  90.8567744  37.3608630  56.2260602  89.7037014  36.9315311  57.1080896
  90.4923872  35.9625804  58.8601468  91.3116761  36.4569882  58.8836305
  90.7660680  35.0457772  58.8319036 100.2490468  28.3536556  48.2229424
  99.3616323  28.6386207  48.0049618 100.6644458  28.1930319  47.3756700
 103.6005005  28.3783077  51.9383763 104.3765395  28.8679529  52.2108380
 102.8753139  28.8041131  52.3955632 106.0377563  29.0910696  52.9957703
 106.6322054  28.8506432  52.2851012 106.1104147  28.3717827  53.6231240
  88.2574719  42.9344307  53.3100868  88.1229187  42.1744708  52.7438866
  87.8406781  43.6585207  52.8429657  99.3933682  38.1181231  42.3177444
 100.0969532  38.3231233  42.9335099  98.6696331  38.6857993  42.5826527
 100.2231492  33.8691092  48.4379714 100.1666694  34.3259643  47.5987346
 100.7759835  33.1081777  48.2602556 104.0336298  29.6580824  49.2629833
 103.7773232  29.2577460  50.0938041 103.4089166  30.3724618  49.1379972
 108.3448636  32.3976897  51.7701125 107.7848194  32.4670086  52.5432687
 107.7392139  32.2217882  51.0500621  91.4143845  43.8313624  53.5219311
  91.2976229  44.7759057  53.4198001  90.5936291  43.5287186  53.9105110
 101.3020379  38.5563760  44.3675904 102.1365983  38.1244958  44.1853378
 101.1404722  38.3845774  45.2952798 100.9566272  35.0595873  45.7332243
 100.9015075  34.8940145  44.7920687 100.3312327  35.7671906  45.8894433
  85.7458786  30.2963938  59.5593665  86.3917650  29.7862892  60.0480890
  85.5375938  31.0332619  60.1337090  98.2712179  37.3644785  65.0585806
  99.1403338  37.5385437  64.6972441  97.7918930  38.1839202  64.9361535
  94.2662397  24.5603982  45.3117561  94.2541067  25.5045822  45.4685832
  95.1585819  24.3774128  45.0177022  92.4398359  44.4841886  56.7375239
  93.3425606  44.5165496  57.0541734  92.2135729  43.5542337  56.7521575
  94.1951961  43.2372873  53.3985318  93.2447592  43.2374734  53.2849690
  94.4984447  42.4905607  52.8821353  98.0814516  21.1546759  49.5663498
  97.3146912  20.6005246  49.7120180  98.4925221  21.2268628  50.4277650
  90.0856277  27.4431555  63.6568679  90.9487739  27.0868360  63.8672004
  89.5121688  27.1045450  64.3444084 109.9304654  49.0733411  54.4631080
 110.5683064  48.9540158  53.7594420 109.8125497  50.0214255  54.5219032
 106.7394361  49.0260839  54.3992605 106.4012872  48.9101904  53.5113140
 107.6084129  48.6252004  54.3793611 102.5981176  50.8796316  50.3889496
 102.0346042  50.7886253  49.6205784 102.4833571  50.0596220  50.8691988
 107.2214144  50.1795691  60.3578811 107.2102784  49.7848489  59.4859314
 107.3834783  49.4461763  60.9512582 100.1445608  52.3747507  53.2273716
 100.9366900  52.0338332  52.8120016 100.3842258  52.4842482  54.1475870
 108.1780735  54.5467283  45.7003961 107.5268715  55.1321364  45.3137975
 108.9725098  55.0773478  45.7598998 102.1036362  51.6356420  46.0991095
 102.8767238  51.0885407  45.9603971 102.4561761  52.5000670  46.3105557
 103.9421405  52.9632803  59.3057995 103.6511271  53.8678434  59.1904661
 104.5778389  53.0049330  60.0202064 104.8677612  50.3409651  55.8959354
 105.4641184  50.1165674  55.1816317 104.9252583  49.5994397  56.4984802
 104.4402640  47.7949087  43.7309545 104.6928161  47.2730608  42.9693008
 103.5027199  47.6315232  43.8336229 109.4845923  46.7984865  51.5384288
 110.2709012  46.3804288  51.1874705 109.7484627  47.7030957  51.7065937
 109.6556000  52.2357715  46.2372945 109.0201833  52.3092342  46.9493850
 109.3253407  52.8251314  45.5592024 114.8854350  46.7360098  52.4417267
 115.6179522  46.1659315  52.6755096 114.1293706  46.3481699  52.8823772
 104.1598929  49.6977192  45.9333920 104.0435187  49.0222096  46.6015004
 104.2701189  49.2109566  45.1166073 106.5030470  49.1587340  49.6380609
 106.1388677  48.6317961  50.3493531 107.3597586  48.7685809  49.4647095
 112.4079770  40.4481672  56.9011875 112.0763095  41.3177083  56.6773090
 111.8125384  40.1317956  57.5805906 106.1435957  44.1877239  44.6341958
 106.3110359  45.0557476  45.0012429 105.9533126  44.3504521  43.7103247
 108.9011290  52.6494218  56.3007788 108.6012013  53.5519257  56.1923595
 108.5562349  52.3826401  57.1528941 102.3523771  49.1008015  52.3344493
 101.4274268  48.9684229  52.5422184 102.6008185  49.8802234  52.8314435
 112.3008434  45.1676758  53.9805226 111.3925311  45.0992167  53.6863986
 112.2496030  45.6448703  54.8087051 106.1225178  46.6434897  45.6188625
 106.0024803  47.0891948  46.4574105 105.4277766  46.9920214  45.0602163
  99.7132582  48.7441289  53.1688282  99.8424964  48.9975768  54.0827693
  99.0330034  49.3368997  52.8492937 103.8832070  59.4138539  49.2678756
 103.8056099  60.3646364  49.3467236 103.2793713  59.0684411  49.9253682
 106.3749299  46.5866404  61.9240123 105.5982634  47.1460324  61.9142987
 107.0139863  47.0723187  62.4454993 114.1670080  43.3693197  55.7583099
 113.5244460  43.6625730  55.1122894 113.6625009  43.2546117  56.5636296
 111.8210244  47.1156370  46.4468959 112.7328100  47.3483757  46.2716656
 111.3119891  47.6993414  45.8844037 104.6295672  49.3951857  61.4858090
 105.3710356  49.9336901  61.2092913 103.9232657  50.0218146  61.6429642
 110.1051011  51.5380998  60.0830251 110.5134367  51.0963408  59.3384884
 109.3828273  50.9633625  60.3364444 106.4582081  46.4753605  57.4563808
 107.3043277  46.8993018  57.5998457 106.3980719  45.8187229  58.1502371
 110.4279826  52.0982188  53.8382540 109.7988689  52.2627903  53.1358608
 110.0405488  52.5123798  54.6093504 114.3069058  53.0336626  51.1926904
 113.6220096  53.4135528  50.6423937 114.3912907  53.6431953  51.9258852
 109.6081527  44.1357973  59.1144982 109.3642459  44.8900033  58.5779258
 109.8841457  44.5143321  59.9492229 111.5619990  50.6796585  57.7922247
 111.7736885  51.3228345  57.1156629 111.5149738  49.8458902  57.3244178
 109.1646219  43.2914406  54.6958820 108.3030698  43.5895660  54.9875557
 109.1908653  43.5084805  53.7639852 105.9807788  51.8356597  51.1032625
 106.4446133  52.1144299  50.3137248 105.7164586  50.9340041  50.9205716
 102.8731869  51.3828078  54.0412389 103.4433226  51.8115346  53.4029873
 103.4639981  51.1010663  54.7396574 104.9176674  47.9579749  47.9122190
 105.6200717  48.4100793  48.3796117 104.5857303  47.3163568  48.5402084
 103.3657036  46.5491506  62.2873400 102.7355696  47.2307786  62.5208797
 103.2593123  46.4374587  61.3426538  98.6602008  46.2163302  53.2139324
  97.8701062  46.4720830  52.7379435  99.1513255  47.0311639  53.3191365
 112.6765818  53.5568541  55.9644605 113.4983261  53.1548728  55.6827286
 112.6728220  53.4536775  56.9160721 100.6116753  46.5807881  50.1722801
  99.8147917  46.6926575  50.6906296 100.3842346  46.9194533  49.3063691
 106.4422421  53.1052584  58.1205315 106.5066853  53.5672991  58.9563487
 105.7333345  52.4749949  58.2487625  96.9439711  46.4693792  55.6454315
  97.1947749  47.3540802  55.9111891  97.4799259  46.2898394  54.8729407
 120.7671811  49.9007289  52.3129576 120.0135519  49.3314687  52.1573581
 120.9019352  49.8669954  53.2600211 106.1570439  54.7720691  47.9884296
 106.0216113  55.6172227  48.4169143 106.6980251  54.9739969  47.2250229
 102.6437778  40.8512271  64.6498651 102.2504724  40.2978470  65.3246295
 103.4603919  41.1622850  65.0405168  99.6099836  52.2896130  48.5612221
 100.1224357  53.0839380  48.7117785 100.2622549  51.5922420  48.4945822
 101.4194721  55.4061886  50.6434974 101.5961349  56.3279851  50.4555958
 102.2151554  55.0920305  51.0729354 105.5605739  42.2670150  62.2418907
 106.3015453  42.8677304  62.1623370 105.7923662  41.5247788  61.6836950
 100.7047077  47.4526518  60.5197137 100.5900592  46.5511775  60.8204236
  99.8491595  47.6990214  60.1681954 107.7838915  55.3944258  62.1184638
 107.3402769  54.6080637  61.8005542 108.4456129  55.5823409  61.4528528
 102.5426036  56.9240060  56.6445316 103.0933461  56.7957123  55.8722310
 101.7037512  57.2234949  56.2940209 109.8820153  55.6747058  60.1466039
 109.8638628  56.4955939  59.6546308 110.8040073  55.5501133  60.3716180
 106.3393207  53.1891187  60.9889547 106.8721544  52.4279476  60.7588855
 105.8107288  52.8964839  61.7313702 109.5062902  38.2951253  56.5183189
 109.1627172  39.1852895  56.4422300 109.8741865  38.1052911  55.6552774
  97.5748753  50.6184784  49.3371791  98.4123975  51.0281792  49.1205499
  97.7527021  49.6784226  49.3071985 109.4713185  48.2859864  45.0255624
 108.9559808  49.0564469  45.2644012 109.1990493  47.6125001  45.6488686
 107.0560296  43.1309565  50.0840863 106.2001892  42.7416416  49.9046501
 107.4687248  43.2101526  49.2240648 108.5859443  40.6655909  54.4832422
 108.0824238  40.6286044  53.6700228 108.8790049  41.5748651  54.5429079
 104.8302328  40.7494638  53.4898604 105.6955325  40.5537447  53.1304494
 104.8979837  40.5204990  54.4167961 114.4447459  51.0392219  46.9608798
 113.6676902  50.7003379  46.5163960 115.1238940  51.0444842  46.2863763
 109.2599488  46.1586957  46.8515405 108.9549624  46.4733106  47.7025549
 110.2129930  46.2368376  46.8942738 107.7045920  52.3177180  48.5008359
 107.1767282  51.5829939  48.1881597 107.2033423  53.0951856  48.2548328
 112.6838766  50.5126200  53.6175406 112.0262440  51.2025462  53.7055534
 113.4879165  50.9022632  53.9609392 102.4364648  42.9796846  50.8614971
 103.0108399  42.7572028  50.1288164 103.0235630  43.0485541  51.6143572
 111.4944225  48.8670573  51.6679347 112.0076107  49.5000565  52.1701057
 112.1445449  48.2671769  51.3022707 102.7634235  45.0101307  44.8810856
 101.9271547  45.3475994  45.2020131 102.6239004  44.8750287  43.9437993
 104.7387315  39.8538095  49.5890040 104.0851728  39.5387112  48.9646655
 104.6967789  39.2313836  50.3149863 105.8498520  50.1357390  41.5043332
 104.9425582  49.9046644  41.7034481 106.3469552  49.3395009  41.6917314
 108.7566599  58.8454897  44.4240019 108.0828298  59.1486594  45.0324976
 109.1432421  59.6483978  44.0745476 107.9725056  46.3420029  53.9137688
 107.0547617  46.5634976  53.7559376 108.3885199  46.4166339  53.0549395
 108.7560103  47.7411444  49.0440368 109.5031922  48.2532842  48.7347490
 109.0251693  47.4195497  49.9044762 107.0286754  50.2369985  46.0267322
 106.1197973  49.9529018  46.1239792 107.0581837  50.6569064  45.1670629
 112.2606021  53.8476575  49.7958490 111.8068348  53.0067484  49.8523681
 111.6299988  54.4837973  50.1333270 111.2038941  44.7768561  51.0259157
 110.4661697  44.2645947  51.3569400 111.4565714  44.3368942  50.2142434
 110.7038960  55.6853071  50.7308308 110.9961935  56.2458128  50.0120674
 111.2137581  55.9781632  51.4861467 111.3050568  37.5544813  51.6200927
 111.6109445  36.6942176  51.3326842 112.0303173  38.1462433  51.4199921
  97.5974924  47.9575499  50.0082525  97.3999324  47.3644860  49.2833591
  97.0421588  47.6527709  50.7258463 105.5771648  47.8498606  52.1277118
 105.6320257  46.8972442  52.0519594 104.7662850  48.0058045  52.6118416
 106.7262841  51.7778729  43.3655401 106.2882271  51.0614588  42.9061038
 107.4673282  52.0054844  42.8040492 103.5164008  46.4675665  49.8867497
 102.7031873  46.7669836  50.2932689 104.0123002  46.0731354  50.6041979
 105.6672585  56.4633422  51.8201761 105.6248764  56.6894269  50.8910293
 106.5835284  56.2296797  51.9687563 109.1138219  46.9317490  58.7182391
 109.4687607  47.1588963  59.5776856 109.7610350  47.2635867  58.0959646
 114.8435956  50.0535926  49.4231720 114.7053855  50.2437522  48.4952909
 114.4872175  50.8155309  49.8799771 103.0078082  44.0394021  55.5028732
 103.6477462  43.8982780  54.8051695 102.1755613  43.7528534  55.1267334
 114.8705336  52.1212453  54.4342991 115.3041842  52.0287742  55.2826045
 115.5836916  52.0969953  53.7963007 103.7838386  53.3396451  51.6163724
 104.5778985  52.8446771  51.4146299 103.0730079  52.8114314  51.2531430
 108.6033231  55.7214547  55.9676092 108.6570253  56.2905483  56.7353808
 107.7348012  55.8916432  55.6030129 100.0921150  47.4839533  47.6923477
  99.1618738  47.4223989  47.9093439 100.1878622  46.9615486  46.8960118
 100.0106699  44.0094346  50.2801718 100.2713516  44.9239679  50.1710879
 100.8323871  43.5418788  50.4298331 101.4831624  45.4232103  57.4500543
 102.1554677  45.2149465  56.8013192 100.6561411  45.2254189  57.0105775
 115.7320885  52.1636153  56.9675877 115.9256775  53.0681964  57.2135151
 115.6321503  51.7043572  57.8014462 107.3857196  42.0494044  59.4666204
 106.7385111  42.7483994  59.3730680 108.1558211  42.4830188  59.8342452
 110.7935994  52.3142896  62.5416757 110.6421500  52.0853448  61.6246841
 110.7840673  53.2713498  62.5548102 107.5621330  49.8874809  57.5263024
 108.4913390  50.0385969  57.3531991 107.1412360  49.9758830  56.6711670
 106.3609662  53.9125473  55.2961561 106.2220748  53.5444258  56.1687499
 105.5724258  54.4273113  55.1245519 106.9557814  59.0134570  46.6387098
 107.1309570  58.5422613  47.4532720 106.2690602  59.6400336  46.8668358
 107.9114877  53.2907076  52.6850399 107.5764710  53.2507846  53.5808049
 107.4118823  52.6251792  52.2120809 101.8859121  48.6974706  58.2102980
 101.7478919  47.9654945  58.8114519 102.7964045  48.6083606  57.9287168
 110.8474069  50.6363110  42.9587459 110.2303240  49.9109939  42.8620511
 110.3790557  51.3972471  42.6154533 104.5141422  48.4094665  57.6986660
 105.2241040  47.7687858  57.6573278 104.4710730  48.6607560  58.6212841
 112.5028201  55.3462019  60.6193239 112.4440747  54.6621239  59.9523822
 112.9047719  56.0881009  60.1673865 103.2270356  45.3959883  59.5182299
 102.6907713  44.9450622  60.1703896 102.6387064  45.5305792  58.7752764
 101.5218899  62.1623933  53.4126958 101.7615498  62.7942457  54.0905976
 100.6788096  61.8111973  53.6992317 102.6372615  44.8548535  42.0808763
 101.7602081  44.7337335  41.7171010 103.1130368  44.0634613  41.8287652
 112.5045608  53.3101603  58.8507219 111.6172387  52.9727524  58.9733618
 113.0744159  52.5784634  59.0875984  94.1574755  49.6425694  52.1750270
  94.8445795  49.3287424  51.5871285  94.0022884  50.5467059  51.9017521
  98.9609477  44.5315891  56.6035294  98.8767666  43.9241560  55.8685704
  98.1392184  45.0224909  56.6044790 106.0346761  57.9703055  55.8168462
 105.9616933  58.7758026  56.3287766 105.5924154  58.1695021  54.9916483
 105.8236541  57.2074825  49.3271283 105.0404063  57.7496505  49.4209508
 106.5229286  57.7248805  49.7265525 109.1333191  43.0169454  51.9705489
 109.6301891  42.2639417  51.6506559 108.3620173  43.0533771  51.4048698
 116.9862948  48.7209820  53.6123780 116.9752825  49.6034535  53.2417713
 116.1180328  48.3681371  53.4178317 108.4945445  57.8689889  57.9726621
 109.2073417  58.5037354  57.9002522 108.0035473  57.9653755  57.1566622
 110.2162972  51.7741142  49.5443912 109.2819250  51.8942604  49.3748617
 110.3939640  50.8713608  49.2803922 105.7168160  45.1586837  51.6977173
 105.3465947  44.6057878  52.3858079 106.2127252  44.5544971  51.1452173
 113.6035523  47.6158461  50.0793946 114.0695975  48.4486453  50.0054249
 114.0543024  47.1503443  50.7839205 103.5457358  55.6184332  58.7932191
 104.2466818  56.2520815  58.9461586 103.0752473  55.9599064  58.0327831
 111.6711754  53.9602282  47.0780098 111.9471598  53.8458877  47.9873972
 110.8016253  53.5619767  47.0392271 111.5752186  39.9839048  54.1184848
 110.6615266  40.2143275  54.2867055 112.0045287  40.0677492  54.9698880
 111.3458644  48.1728940  56.6184742 110.6930095  48.4204847  55.9637194
 111.7239024  47.3593078  56.2847219 108.3065818  58.2088633  50.7212912
 108.4888213  57.3910289  51.1840664 109.1298804  58.4256325  50.2837802
 108.6407984  57.1356818  47.9827960 109.1695750  56.6249273  47.3698123
 108.9036203  56.8199348  48.8473494 107.3946217  48.9148751  63.1050779
 106.7186854  48.8142880  63.7753154 108.2173851  48.7587965  63.5686776
  99.1425076  55.1520688  55.7263294  99.7278513  54.4064375  55.8591198
  98.9449915  55.4624644  56.6099958 101.9963732  58.1871935  50.7425736
 101.3274107  58.6718063  50.2589776 101.8576601  58.4341155  51.6569115
  93.7342731  47.7226288  54.4467737  93.7726831  47.1889878  55.2404855
  93.2283024  47.1961493  53.8278714 106.1369000  60.2215678  57.3408395
 106.6887308  60.3847300  58.1057480 106.4775194  60.8120116  56.6688420
 101.1133493  42.5690828  57.9430279 101.1774820  43.4305659  57.5307677
 101.0500614  41.9564830  57.2102638 100.5885766  44.6413961  61.5903314
 101.2157805  44.2591038  62.2040838  99.7313685  44.4228163  61.9559006
 110.9879875  55.0476936  63.1957049 111.5319779  55.6606894  62.7012004
 110.4066719  55.6056514  63.7124062  97.3651309  46.4490390  47.5221669
  97.6604750  45.5401068  47.4688722  96.4639344  46.4278129  47.2002671
 109.2737387  58.1697654  54.3272077 109.1488527  57.3687394  53.8183022
 109.9316479  58.6643847  53.8386047 100.8945556  44.5246386  53.5049217
 100.1732141  45.1382354  53.3656690 101.6838811  45.0604151  53.4265863
 111.3372296  55.9706674  55.9551627 110.3902631  55.8512025  55.8829954
 111.6855069  55.0829172  56.0377888 103.6971869  41.8600813  59.7789869
 104.2206271  42.1063110  60.5416178 103.4784203  42.6920848  59.3593006
  99.0939150  44.1304488  47.6460994  98.7651856  43.2501866  47.4636100
  99.4478521  44.0752156  48.5337383 108.3418729  55.7659390  52.1555979
 108.1943692  54.8376098  52.3363549 109.1672223  55.7879481  51.6713055
 102.2080973  44.4177457  48.0136471 102.5477046  44.9463379  47.2915080
 102.6553094  44.7557863  48.7895038 111.9452851  56.5887949  53.2420852
 112.8699398  56.3830810  53.1045303 111.7768154  56.3404350  54.1510194
 104.9024414  42.8014508  57.4639539 104.5621235  42.0022321  57.8660219
 104.1963421  43.1016219  56.8916373 105.5540886  39.8863820  55.9166862
 106.3766955  39.4124299  55.7945753 105.7978950  40.6654304  56.4165549
 104.1949121  42.9152079  46.2129764 104.9157483  43.2933332  45.7093481
 103.5714425  43.6340956  46.3164742 108.3380243  43.6197228  47.1488097
 108.5543858  44.5021866  46.8476925 107.8574311  43.2283441  46.4193738
 103.0779465  46.5782941  53.7258841 102.9324046  46.8923244  54.6183123
 102.6004669  47.1967841  53.1729740 104.9375848  43.5685489  53.7739731
 104.9237417  42.6726582  53.4372029 105.6548276  43.5756153  54.4078017
 106.7901978  44.0022829  55.8192858 106.5319756  44.9239900  55.8177189
 106.2587019  43.6053264  56.5093322 111.7348167  57.1073616  48.5982943
 111.9085045  56.5420039  47.8456796 112.2277058  57.9074511  48.4162433
  97.5525127  49.1188286  56.6646502  97.0078595  49.8948093  56.7966777
  98.4304477  49.4659090  56.5065624 104.3412744  42.4499869  49.0427301
 104.4628655  41.5216516  49.2418188 104.0514786  42.4638555  48.1305616
 107.2103934  40.1354780  52.1794021 107.2325631  40.1994113  51.2246000
 107.6271993  39.2959288  52.3734527 117.5887558  49.8710039  50.2173243
 118.0318704  49.1217365  49.8192366 116.7114069  49.8620176  49.8346975
 112.7223340  56.4240381  45.6979842 113.4174244  57.0447074  45.9167156
 113.0646490  55.5735732  45.9732220  98.3391149  48.2458182  59.5576659
  97.5972885  48.3940817  60.1441290  98.0183893  48.5066447  58.6943409
 114.6214763  53.8740086  47.2267173 115.1466087  54.2127359  46.5016493
 114.5337115  52.9387102  47.0430307 106.2834812  57.7874160  59.3557049
 106.5921938  57.5423307  60.2279749 107.0810294  57.9920798  58.8675919
 106.3055424  59.9412070  51.5862426 105.8660414  59.4488448  52.2795282
 107.0563541  59.3985037  51.3454501  98.7847763  56.1323611  51.5887054
  99.6105782  55.8327382  51.2085697  98.4341815  55.3631233  52.0376842
 103.7529296  55.4850079  53.6584727 103.1309305  54.8220784  53.3586955
 104.4234163  55.5111211  52.9758375  96.9856368  54.0509937  52.5475987
  96.1488276  53.6232111  52.3659989  96.9580013  54.2442380  53.4846779
 103.8253823  43.9631867  63.2517233 103.8741979  44.8393990  62.8695003
 104.3676337  43.4209260  62.6788877 114.3108669  54.5072990  62.5318370
 113.5204213  54.4897129  61.9922870 114.0742023  55.0461284  63.2867407
 114.4306544  51.3565456  59.8451099 114.4804549  51.1915464  60.7866622
 114.3220467  50.4892715  59.4548980 103.3142803  54.0354002  47.1343188
 103.4630923  54.7189466  46.4809861 104.1209246  54.0159092  47.6492644
 111.7210306  47.3396384  61.1610406 112.6220169  47.2002849  60.8694404
 111.7958281  47.5050839  62.1008583 106.0553112  44.7163239  60.0063592
 105.1856421  45.0096805  59.7346181 106.2912592  45.3003684  60.7270856
 115.9324741  53.7762398  60.0893121 115.6409549  54.1392378  60.9256582
 115.3196872  53.0629406  59.9106453 117.1320423  51.3415278  52.6095691
 117.9667314  51.7805082  52.7733251 117.2679552  50.8653931  51.7903937
 114.1811929  48.8995013  58.5573179 114.6566051  49.0922659  57.7492030
 113.2577494  48.9554198  58.3116562 101.0695436  50.0619180  48.1404257
 100.8241478  49.1581510  48.3384467 101.2391350  50.0636330  47.1983735
 108.7592146  40.9342856  57.5229012 109.2774089  41.6703883  57.1975501
 108.4047278  41.2406849  58.3575772 100.3391083  45.7947537  45.6390418
  99.6460328  45.8691892  44.9830454 100.0942835  45.0307881  46.1611935
 109.0104740  37.3543139  53.0429909 109.2906493  36.6866328  53.6690336
 109.7955347  37.5472234  52.5304573 106.8138208  56.5302133  44.6054935
 106.2412175  57.1492320  44.1525407 107.3871002  57.0801494  45.1394857
 112.8813598  45.7760773  56.7901484 113.8331021  45.8758870  56.8113708
 112.7117048  44.9839041  57.2999569 110.9027977  42.8616356  56.9760885
 110.3077910  43.1421369  56.2807374 110.6177674  43.3510257  57.7477626
 110.0335468  56.8139283  45.7363518 110.9666141  56.7484844  45.9396393
 109.9458681  57.6495550  45.2778050 112.6623485  56.1305153  42.6967465
 112.5837116  55.7965017  43.5903223 113.4833151  56.6226921  42.6958938
 115.3601676  48.9966892  55.9043784 115.3277996  48.0582893  56.0903468
 115.9702299  49.0750929  55.1709609 107.1985007  47.8662945  41.9470988
 108.1444111  47.7369153  42.0159406 106.8199252  47.1277607  42.4240416
 115.5096164  45.7877936  55.9502067 114.9935213  45.0036392  55.7631996
 116.3936113  45.4596652  56.1148586 113.1706891  39.5318951  51.9097880
 112.9731712  39.2234040  52.7941212 113.7806597  40.2580590  52.0395810
 121.1778226  50.0582899  55.0449821 121.9081614  49.7968187  55.6057524
 120.5685171  49.3211621  55.0851889 119.2593523  48.1990762  55.6424272
 118.5326686  48.0646727  55.0340763 118.8440810  48.5067590  56.4480990
 107.0823699  51.9180691  63.4071645 108.0026709  52.0959290  63.6011691
 107.0473282  50.9736737  63.2551344 105.3827924  45.7912922  41.8825873
 104.4759379  45.4946034  41.9588587 105.6603905  45.4942740  41.0160159
  96.3005864  47.1119285  52.3324919  95.9808649  46.2584593  52.0399293
  95.7539292  47.3267863  53.0882887 100.0785772  49.8281726  56.0494426
 100.2971782  50.7598834  56.0682460 100.4911546  49.4689700  56.8349230
 106.9989990  40.3349811  48.0370114 106.1890718  39.9896896  48.4125360
 107.6874406  40.0257355  48.6257726 108.9280538  39.4127858  49.6594411
 109.4811576  39.8323312  50.3184434 109.1650624  38.4863606  49.7017367
 104.9513637  45.4014932  65.4397175 104.8510364  46.3509289  65.3709266
 104.7335179  45.0733171  64.5673245 104.1526708  42.6499857  42.0237852
 105.0145872  42.9754755  42.2833670 104.3377053  41.8631353  41.5110918
  96.1694124  50.7322197  54.3018041  95.4757596  50.3176149  53.7887995
  96.9167115  50.7742733  53.7051460 112.3059345  41.5228383  49.1673075
 111.7258014  42.1813187  48.7851128 112.0395278  40.7005728  48.7560493
 110.7562911  40.9233441  51.3694396 111.2562690  41.0349976  50.5608714
 111.3998519  40.6194494  52.0095204 104.8144907  48.8312071  64.2562237
 104.3311989  49.6312431  64.4626126 104.9005846  48.8420016  63.3029681
  98.0830867  50.6640450  52.1784056  98.0601555  50.7628138  51.2265939
  98.3931503  51.5105601  52.5001222 100.7418245  52.7216605  56.2930670
 101.6961498  52.6900548  56.2260602 100.5430768  52.2607229  57.1080896
 101.3317627  51.2917721  58.8601468 102.1510516  51.7861800  58.8836305
 101.6054434  50.3749690  58.8319036 111.0884223  43.6828474  48.2229424
 110.2010078  43.9678124  48.0049618 111.5038212  43.5222237  47.3756700
 114.4398759  43.7074995  51.9383763 115.2159149  44.1971447  52.2108380
 113.7146893  44.1333049  52.3955632 116.8771318  44.4202614  52.9957703
 117.4715809  44.1798350  52.2851012 116.9497901  43.7009745  53.6231240
  99.0968473  58.2636225  53.3100868  98.9622941  57.5036626  52.7438866
  98.6800536  58.9877125  52.8429657 110.2327436  53.4473148  42.3177444
 110.9363287  53.6523151  42.9335099 109.5090085  54.0149910  42.5826527
 111.0625247  49.1983010  48.4379714 111.0060448  49.6551561  47.5987346
 111.6153589  48.4373694  48.2602556 114.8730053  44.9872742  49.2629833
 114.6166987  44.5869377  50.0938041 114.2482921  45.7016535  49.1379972
 119.1842390  47.7268815  51.7701125 118.6241948  47.7962004  52.5432687
 118.5785894  47.5509799  51.0500621 102.2537599  59.1605542  53.5219311
 102.1369983  60.1050974  53.4198001 101.4330046  58.8579103  53.9105110
 112.1414134  53.8855678  44.3675904 112.9759738  53.4536876  44.1853378
 111.9798477  53.7137691  45.2952798 111.7960026  50.3887791  45.7332243
 111.7408830  50.2232062  44.7920687 111.1706081  51.0963824  45.8894433
  96.5852541  45.6255855  59.5593665  97.2311405  45.1154809  60.0480890
  96.3769692  46.3624537  60.1337090 109.1105933  52.6936703  65.0585806
 109.9797093  52.8677355  64.6972441 108.6312685  53.5131120  64.9361535
 105.1056151  39.8895900  45.3117561 105.0934821  40.8337740  45.4685832
 105.9979573  39.7066045  45.0177022 103.2792113  59.8133804  56.7375239
 104.1819360  59.8457414  57.0541734 103.0529483  58.8834255  56.7521575
 105.0345715  58.5664790  53.3985318 104.0841346  58.5666652  53.2849690
 105.3378202  57.8197525  52.8821353 108.9208271  36.4838677  49.5663498
 108.1540667  35.9297163  49.7120180 109.3318976  36.5560545  50.4277650
 100.9250032  42.7723472  63.6568679 101.7881494  42.4160277  63.8672004
 100.3515443  42.4337367  64.3444084 120.7698409  64.4025329  54.4631080
 121.4076819  64.2832076  53.7594420 120.6519252  65.3506173  54.5219032
 117.5788115  64.3552757  54.3992605 117.2406627  64.2393822  53.5113140
 118.4477883  63.9543922  54.3793611 113.4374931  66.2088233  50.3889496
 112.8739796  66.1178170  49.6205784 113.3227326  65.3888138  50.8691988
 118.0607898  65.5087609  60.3578811 118.0496539  65.1140407  59.4859314
 118.2228538  64.7753681  60.9512582 110.9839363  67.7039425  53.2273716
 111.7760655  67.3630249  52.8120016 111.2236013  67.8134400  54.1475870
 119.0174490  69.8759201  45.7003961 118.3662469  70.4613281  45.3137975
 119.8118852  70.4065396  45.7598998 112.9430117  66.9648338  46.0991095
 113.7160993  66.4177325  45.9603971 113.2955516  67.8292587  46.3105557
 114.7815159  68.2924720  59.3057995 114.4905025  69.1970351  59.1904661
 115.4172144  68.3341248  60.0202064 115.7071366  65.6701569  55.8959354
 116.3034938  65.4457591  55.1816317 115.7646338  64.9286314  56.4984802
 115.2796395  63.1241004  43.7309545 115.5321915  62.6022525  42.9693008
 114.3420954  62.9607150  43.8336229 120.3239677  62.1276783  51.5384288
 121.1102767  61.7096206  51.1874705 120.5878382  63.0322875  51.7065937
 120.4949755  67.5649633  46.2372945 119.8595588  67.6384259  46.9493850
 120.1647161  68.1543232  45.5592024 125.7248105  62.0652016  52.4417267
 126.4573276  61.4951233  52.6755096 124.9687460  61.6773616  52.8823772
 114.9992683  65.0269110  45.9333920 114.8828941  64.3514014  46.6015004
 115.1094943  64.5401484  45.1166073 117.3424224  64.4879257  49.6380609
 116.9782431  63.9609878  50.3493531 118.1991340  64.0977726  49.4647095
 123.2473525  55.7773590  56.9011875 122.9156850  56.6469001  56.6773090
 122.6519138  55.4609874  57.5805906 116.9829711  59.5169157  44.6341958
 117.1504114  60.3849393  45.0012429 116.7926880  59.6796439  43.7103247
 119.7405044  67.9786136  56.3007788 119.4405767  68.8811175  56.1923595
 119.3956104  67.7118319  57.1528941 113.1917526  64.4299933  52.3344493
 112.2668022  64.2976147  52.5422184 113.4401939  65.2094152  52.8314435
 123.1402188  60.4968676  53.9805226 122.2319066  60.4284084  53.6863986
 123.0889784  60.9740621  54.8087051 116.9618932  61.9726814  45.6188625
 116.8418557  62.4183865  46.4574105 116.2671520  62.3212132  45.0602163
 110.5526337  64.0733206  53.1688282 110.6818718  64.3267685  54.0827693
 109.8723788  64.6660914  52.8492937 114.7225824  74.7430456  49.2678756
 114.6449854  75.6938281  49.3467236 114.1187468  74.3976329  49.9253682
 117.2143054  61.9158322  61.9240123 116.4376388  62.4752242  61.9142987
 117.8533617  62.4015105  62.4454993 125.0063835  58.6985114  55.7583099
 124.3638215  58.9917648  55.1122894 124.5018763  58.5838035  56.5636296
 122.6603998  62.4448288  46.4468959 123.5721854  62.6775674  46.2716656
 122.1513645  63.0285332  45.8844037 115.4689426  64.7243775  61.4858090
 116.2104111  65.2628819  61.2092913 114.7626412  65.3510064  61.6429642
 120.9444766  66.8672915  60.0830251 121.3528122  66.4255326  59.3384884
 120.2222027  66.2925543  60.3364444 117.2975836  61.8045522  57.4563808
 118.1437031  62.2284936  57.5998457 117.2374474  61.1479147  58.1502371
 121.2673581  67.4274106  53.8382540 120.6382443  67.5919820  53.1358608
 120.8799243  67.8415716  54.6093504 125.1462812  68.3628544  51.1926904
 124.4613851  68.7427445  50.6423937 125.2306662  68.9723871  51.9258852
 120.4475281  59.4649891  59.1144982 120.2036213  60.2191951  58.5779258
 120.7235212  59.8435238  59.9492229 122.4013744  66.0088503  57.7922247
 122.6130639  66.6520263  57.1156629 122.3543492  65.1750820  57.3244178
 120.0039973  58.6206324  54.6958820 119.1424452  58.9187577  54.9875557
 120.0302408  58.8376723  53.7639852 116.8201542  67.1648514  51.1032625
 117.2839888  67.4436217  50.3137248 116.5558341  66.2631959  50.9205716
 113.7125624  66.7119996  54.0412389 114.2826981  67.1407264  53.4029873
 114.3033735  66.4302580  54.7396574 115.7570429  63.2871667  47.9122190
 116.4594472  63.7392710  48.3796117 115.4251057  62.6455485  48.5402084
 114.2050790  61.8783423  62.2873400 113.5749451  62.5599704  62.5208797
 114.0986878  61.7666505  61.3426538 109.4995762  61.5455219  53.2139324
 108.7094816  61.8012748  52.7379435 109.9907010  62.3603557  53.3191365
 123.5159572  68.8860458  55.9644605 124.3377016  68.4840646  55.6827286
 123.5121975  68.7828693  56.9160721 111.4510508  61.9099798  50.1722801
 110.6541671  62.0218493  50.6906296 111.2236100  62.2486451  49.3063691
 117.2816175  68.4344502  58.1205315 117.3460608  68.8964909  58.9563487
 116.5727099  67.8041867  58.2487625 107.7833465  61.7985710  55.6454315
 108.0341504  62.6832720  55.9111891 108.3193014  61.6190311  54.8729407
 131.6065565  65.2299207  52.3129576 130.8529273  64.6606605  52.1573581
 131.7413106  65.1961871  53.2600211 116.9964193  70.1012609  47.9884296
 116.8609868  70.9464145  48.4169143 117.5374006  70.3031887  47.2250229
 113.4831533  56.1804189  64.6498651 113.0898478  55.6270388  65.3246295
 114.2997673  56.4914767  65.0405168 110.4493591  67.6188047  48.5612221
 110.9618111  68.4131297  48.7117785 111.1016303  66.9214338  48.4945822
 112.2588475  70.7353803  50.6434974 112.4355104  71.6571768  50.4555958
 113.0545309  70.4212223  51.0729354 116.3999494  57.5962068  62.2418907
 117.1409207  58.1969221  62.1623370 116.6317417  56.8539706  61.6836950
 111.5440832  62.7818435  60.5197137 111.4294347  61.8803693  60.8204236
 110.6885350  63.0282132  60.1681954 118.6232670  70.7236176  62.1184638
 118.1796524  69.9372554  61.8005542 119.2849883  70.9115326  61.4528528
 113.3819791  72.2531977  56.6445316 113.9327216  72.1249041  55.8722310
 112.5431267  72.5526866  56.2940209 120.7213908  71.0038976  60.1466039
 120.7032383  71.8247857  59.6546308 121.6433828  70.8793051  60.3716180
 117.1786962  68.5183105  60.9889547 117.7115299  67.7571393  60.7588855
 116.6501043  68.2256757  61.7313702 120.3456657  53.6243171  56.5183189
 120.0020926  54.5144813  56.4422300 120.7135619  53.4344829  55.6552774
 108.4142507  65.9476702  49.3371791 109.2517729  66.3573710  49.1205499
 108.5920775  65.0076144  49.3071985 120.3106939  63.6151782  45.0255624
 119.7953563  64.3856387  45.2644012 120.0384248  62.9416918  45.6488686
 117.8954050  58.4601483  50.0840863 117.0395647  58.0708333  49.9046501
 118.3081002  58.5393444  49.2240648 119.4253197  55.9947826  54.4832422
 118.9217993  55.9577961  53.6700228 119.7183804  56.9040569  54.5429079
 115.6696083  56.0786556  53.4898604 116.5349080  55.8829365  53.1304494
 115.7373592  55.8496908  54.4167961 125.2841214  66.3684137  46.9608798
 124.5070656  66.0295296  46.5163960 125.9632695  66.3736760  46.2863763
 120.0993243  61.4878874  46.8515405 119.7943378  61.8025023  47.7025549
 121.0523685  61.5660294  46.8942738 118.5439674  67.6469098  48.5008359
 118.0161036  66.9121857  48.1881597 118.0427177  68.4243774  48.2548328
 123.5232520  65.8418118  53.6175406 122.8656195  66.5317379  53.7055534
 124.3272920  66.2314550  53.9609392 113.2758402  58.3088764  50.8614971
 113.8502154  58.0863945  50.1288164 113.8629384  58.3777458  51.6143572
 122.3337979  64.1962491  51.6679347 122.8469861  64.8292483  52.1701057
 122.9839203  63.5963686  51.3022707 113.6027989  60.3393225  44.8810856
 112.7665301  60.6767911  45.2020131 113.4632759  60.2042205  43.9437993
 115.5781070  55.1830013  49.5890040 114.9245482  54.8679030  48.9646655
 115.5361544  54.5605753  50.3149863 116.6892275  65.4649308  41.5043332
 115.7819336  65.2338561  41.7034481 117.1863307  64.6686927  41.6917314
 119.5960353  74.1746815  44.4240019 118.9222052  74.4778512  45.0324976
 119.9826175  74.9775895  44.0745476 118.8118810  61.6711946  53.9137688
 117.8941371  61.8926893  53.7559376 119.2278954  61.7458257  53.0549395
 119.5953858  63.0703362  49.0440368 120.3425677  63.5824759  48.7347490
 119.8645447  62.7487415  49.9044762 117.8680508  65.5661903  46.0267322
 116.9591727  65.2820936  46.1239792 117.8975592  65.9860981  45.1670629
 123.0999775  69.1768492  49.7958490 122.6462103  68.3359402  49.8523681
 122.4693742  69.8129891  50.1333270 122.0432695  60.1060478  51.0259157
 121.3055452  59.5937864  51.3569400 122.2959469  59.6660860  50.2142434
 121.5432715  71.0144989  50.7308308 121.8355689  71.5750046  50.0120674
 122.0531335  71.3073550  51.4861467 122.1444322  52.8836730  51.6200927
 122.4503199  52.0234094  51.3326842 122.8696927  53.4754350  51.4199921
 108.4368678  63.2867417  50.0082525 108.2393078  62.6936778  49.2833591
 107.8815342  62.9819627  50.7258463 116.4165402  63.1790523  52.1277118
 116.4714012  62.2264360  52.0519594 115.6056604  63.3349962  52.6118416
 117.5656596  67.1070646  43.3655401 117.1276026  66.3906505  42.9061038
 118.3067037  67.3346761  42.8040492 114.3557762  61.7967583  49.8867497
 113.5425628  62.0961754  50.2932689 114.8516756  61.4023272  50.6041979
 116.5066340  71.7925340  51.8201761 116.4642519  72.0186186  50.8910293
 117.4229039  71.5588715  51.9687563 119.9531974  62.2609408  58.7182391
 120.3081361  62.4880881  59.5776856 120.6004105  62.5927784  58.0959646
 125.6829711  65.3827843  49.4231720 125.5447609  65.5729439  48.4952909
 125.3265929  66.1447226  49.8799771 113.8471837  59.3685939  55.5028732
 114.4871216  59.2274698  54.8051695 113.0149367  59.0820452  55.1267334
 125.7099090  67.4504370  54.4342991 126.1435597  67.3579660  55.2826045
 126.4230671  67.4261871  53.7963007 114.6232141  68.6688369  51.6163724
 115.4172739  68.1738689  51.4146299 113.9123833  68.1406232  51.2531430
 119.4426985  71.0506465  55.9676092 119.4964007  71.6197401  56.7353808
 118.5741767  71.2208350  55.6030129 110.9314904  62.8131451  47.6923477
 110.0012492  62.7515906  47.9093439 111.0272376  62.2907403  46.8960118
 110.8500453  59.3386264  50.2801718 111.1107270  60.2531597  50.1710879
 111.6717626  58.8710706  50.4298331 112.3225379  60.7524021  57.4500543
 112.9948432  60.5441383  56.8013192 111.4955165  60.5546107  57.0105775
 126.5714640  67.4928071  56.9675877 126.7650530  68.3973882  57.2135151
 126.4715258  67.0335490  57.8014462 118.2250951  57.3785962  59.4666204
 117.5778866  58.0775911  59.3730680 118.9951966  57.8122106  59.8342452
 121.6329748  67.6434814  62.5416757 121.4815255  67.4145366  61.6246841
 121.6234428  68.6005415  62.5548102 118.4015085  65.2166727  57.5263024
 119.3307145  65.3677886  57.3531991 117.9806115  65.3050747  56.6711670
 117.2003417  69.2417391  55.2961561 117.0614502  68.8736175  56.1687499
 116.4118013  69.7565030  55.1245519 117.7951569  74.3426487  46.6387098
 117.9703324  73.8714531  47.4532720 117.1084357  74.9692254  46.8668358
 118.7508632  68.6198994  52.6850399 118.4158464  68.5799764  53.5808049
 118.2512577  67.9543710  52.2120809 112.7252876  64.0266624  58.2102980
 112.5872674  63.2946863  58.8114519 113.6357799  63.9375524  57.9287168
 121.6867823  65.9655028  42.9587459 121.0696994  65.2401856  42.8620511
 121.2184312  66.7264388  42.6154533 115.3535176  63.7386583  57.6986660
 116.0634795  63.0979775  57.6573278 115.3104485  63.9899478  58.6212841
 123.3421955  70.6753936  60.6193239 123.2834501  69.9913157  59.9523822
 123.7441474  71.4172926  60.1673865 114.0664110  60.7251801  59.5182299
 113.5301467  60.2742539  60.1703896 113.4780819  60.8597710  58.7752764
 112.3612654  77.4915850  53.4126958 112.6009252  78.1234374  54.0905976
 111.5181850  77.1403890  53.6992317 113.4766369  60.1840452  42.0808763
 112.5995836  60.0629253  41.7171010 113.9524122  59.3926531  41.8287652
 123.3439362  68.6393520  58.8507219 122.4566141  68.3019442  58.9733618
 123.9137913  67.9076552  59.0875984 104.9968510  64.9717612  52.1750270
 105.6839549  64.6579342  51.5871285 104.8416638  65.8758977  51.9017521
 109.8003232  59.8607809  56.6035294 109.7161420  59.2533478  55.8685704
 108.9785938  60.3516827  56.6044790 116.8740516  73.2994973  55.8168462
 116.8010687  74.1049944  56.3287766 116.4317909  73.4986938  54.9916483
 116.6630295  72.5366743  49.3271283 115.8797817  73.0788423  49.4209508
 117.3623041  73.0540722  49.7265525 119.9726946  58.3461372  51.9705489
 120.4695645  57.5931334  51.6506559 119.2013927  58.3825689  51.4048698
 127.8256703  64.0501738  53.6123780 127.8146579  64.9326453  53.2417713
 126.9574082  63.6973289  53.4178317 119.3339199  73.1981807  57.9726621
 120.0467172  73.8329272  57.9002522 118.8429228  73.2945673  57.1566622
 121.0556726  67.1033059  49.5443912 120.1213005  67.2234522  49.3748617
 121.2333395  66.2005526  49.2803922 116.5561914  60.4878755  51.6977173
 116.1859702  59.9349796  52.3858079 117.0521007  59.8836889  51.1452173
 124.4429278  62.9450379  50.0793946 124.9089730  63.7778370  50.0054249
 124.8936778  62.4795360  50.7839205 114.3851113  70.9476250  58.7932191
 115.0860572  71.5812733  58.9461586 113.9146228  71.2890982  58.0327831
 122.5105509  69.2894200  47.0780098 122.7865353  69.1750795  47.9873972
 121.6410007  68.8911685  47.0392271 122.4145940  55.3130966  54.1184848
 121.5009020  55.5435192  54.2867055 122.8439042  55.3969410  54.9698880
 122.1852399  63.5020858  56.6184742 121.5323849  63.7496765  55.9637194
 122.5632779  62.6884996  56.2847219 119.1459573  73.5380551  50.7212912
 119.3281967  72.7202207  51.1840664 119.9692559  73.7548243  50.2837802
 119.4801738  72.4648736  47.9827960 120.0089505  71.9541190  47.3698123
 119.7429958  72.1491266  48.8473494 118.2339972  64.2440669  63.1050779
 117.5580609  64.1434798  63.7753154 119.0567606  64.0879882  63.5686776
 109.9818831  70.4812605  55.7263294 110.5672268  69.7356293  55.8591198
 109.7843669  70.7916562  56.6099958 112.8357486  73.5163853  50.7425736
 112.1667861  74.0009980  50.2589776 112.6970356  73.7633073  51.6569115
 104.5736486  63.0518205  54.4467737 104.6120585  62.5181796  55.2404855
 104.0676778  62.5253411  53.8278714 116.9762755  75.5507596  57.3408395
 117.5281063  75.7139218  58.1057480 117.3168948  76.1412034  56.6688420
 111.9527248  57.8982746  57.9430279 112.0168574  58.7597577  57.5307677
 111.8894368  57.2856748  57.2102638 111.4279520  59.9705878  61.5903314
 112.0551559  59.5882956  62.2040838 110.5707439  59.7520080  61.9559006
 121.8273629  70.3768854  63.1957049 122.3713533  70.9898812  62.7012004
 121.2460474  70.9348432  63.7124062 108.2045063  61.7782308  47.5221669
 108.4998504  60.8692986  47.4688722 107.3033099  61.7570047  47.2002671
 120.1131142  73.4989572  54.3272077 119.9882281  72.6979311  53.8183022
 120.7710233  73.9935765  53.8386047 111.7339310  59.8538304  53.5049217
 111.0125896  60.4674272  53.3656690 112.5232566  60.3896069  53.4265863
 122.1766050  71.2998592  55.9551627 121.2296386  71.1803943  55.8829954
 122.5248823  70.4121090  56.0377888 114.5365624  57.1892731  59.7789869
 115.0600026  57.4355027  60.5416178 114.3177957  58.0212765  59.3593006
 109.9332905  59.4596405  47.6460994 109.6045611  58.5793784  47.4636100
 110.2872275  59.4044074  48.5337383 119.1812484  71.0951308  52.1555979
 119.0337446  70.1668015  52.3363549 120.0065977  71.1171399  51.6713055
 113.0474728  59.7469375  48.0136471 113.3870800  60.2755296  47.2915080
 113.4946848  60.0849781  48.7895038 122.7846606  71.9179867  53.2420852
 123.7093153  71.7122728  53.1045303 122.6161909  71.6696268  54.1510194
 115.7418169  58.1306426  57.4639539 115.4014989  57.3314239  57.8660219
 115.0357175  58.4308137  56.8916373 116.3934641  55.2155738  55.9166862
 117.2160710  54.7416216  55.7945753 116.6372704  55.9946222  56.4165549
 115.0342875  58.2443997  46.2129764 115.7551238  58.6225249  45.7093481
 114.4108179  58.9632873  46.3164742 119.1773998  58.9489146  47.1488097
 119.3937612  59.8313783  46.8476925 118.6968065  58.5575359  46.4193738
 113.9173219  61.9074859  53.7258841 113.7717800  62.2215162  54.6183123
 113.4398423  62.5259759  53.1729740 115.7769602  58.8977407  53.7739731
 115.7631171  58.0018500  53.4372029 116.4942030  58.9048071  54.4078017
 117.6295733  59.3314747  55.8192858 117.3713511  60.2531818  55.8177189
 117.0980773  58.9345182  56.5093322 122.5741922  72.4365534  48.5982943
 122.7478799  71.8711957  47.8456796 123.0670813  73.2366429  48.4162433
 108.3918882  64.4480203  56.6646502 107.8472350  65.2240011  56.7966777
 109.2698231  64.7951008  56.5065624 115.1806498  57.7791787  49.0427301
 115.3022409  56.8508433  49.2418188 114.8908541  57.7930473  48.1305616
 118.0497689  55.4646698  52.1794021 118.0719385  55.5286031  51.2246000
 118.4665748  54.6251206  52.3734527 128.4281313  65.2001957  50.2173243
 128.8712459  64.4509282  49.8192366 127.5507823  65.1912093  49.8346975
 123.5617094  71.7532299  45.6979842 124.2567999  72.3738991  45.9167156
 123.9040244  70.9027650  45.9732220 109.1784903  63.5750099  59.5576659
 108.4366639  63.7232735  60.1441290 108.8577648  63.8358365  58.6943409
 125.4608517  69.2032004  47.2267173 125.9859841  69.5419277  46.5016493
 125.3730870  68.2679019  47.0430307 117.1228566  73.1166078  59.3557049
 117.4315692  72.8715224  60.2279749 117.9204048  73.3212716  58.8675919
 117.1449178  75.2703987  51.5862426 116.7054168  74.7780366  52.2795282
 117.8957295  74.7276955  51.3454501 109.6241517  71.4615528  51.5887054
 110.4499537  71.1619300  51.2085697 109.2735569  70.6923151  52.0376842
 114.5923050  70.8141996  53.6584727 113.9703060  70.1512701  53.3586955
 115.2627917  70.8403128  52.9758375 107.8250122  69.3801855  52.5475987
 106.9882030  68.9524029  52.3659989 107.7973768  69.5734298  53.4846779
 114.6647578  59.2923784  63.2517233 114.7135733  60.1685907  62.8695003
 115.2070092  58.7501177  62.6788877 125.1502423  69.8364908  62.5318370
 124.3597967  69.8189047  61.9922870 124.9135778  70.3753201  63.2867407
 125.2700298  66.6857374  59.8451099 125.3198303  66.5207382  60.7866622
 125.1614222  65.8184633  59.4548980 114.1536557  69.3645920  47.1343188
 114.3024678  70.0481384  46.4809861 114.9603001  69.3451010  47.6492644
 122.5604061  62.6688302  61.1610406 123.4613924  62.5294767  60.8694404
 122.6352035  62.8342757  62.1008583 116.8946866  60.0455157  60.0063592
 116.0250176  60.3388723  59.7346181 117.1306347  60.6295602  60.7270856
 127.9714178  66.6707195  52.6095691 128.8061069  67.1096999  52.7733251
 128.1073306  66.1945849  51.7903937 125.0205684  64.2286930  58.5573179
 125.4959805  64.4214577  57.7492030 124.0971249  64.2846116  58.3116562
 111.9089190  65.3911097  48.1404257 111.6635232  64.4873427  48.3384467
 112.0785105  65.3928248  47.1983735 119.5985900  56.2634774  57.5229012
 120.1167844  56.9995801  57.1975501 119.2441033  56.5698767  58.3575772
 111.1784838  61.1239455  45.6390418 110.4854083  61.1983810  44.9830454
 110.9336590  60.3599799  46.1611935 119.8498494  52.6835056  53.0429909
 120.1300248  52.0158245  53.6690336 120.6349101  52.8764152  52.5304573
 117.6531963  71.8594050  44.6054935 117.0805930  72.4784237  44.1525407
 118.2264756  72.4093412  45.1394857 123.7207353  61.1052690  56.7901484
 124.6724775  61.2050788  56.8113708 123.5510803  60.3130959  57.2999569
 121.7421732  58.1908274  56.9760885 121.1471664  58.4713286  56.2807374
 121.4571429  58.6802174  57.7477626 120.8729222  72.1431200  45.7363518
 121.8059896  72.0776762  45.9396393 120.7852435  72.9787467  45.2778050
 123.5017239  71.4597071  42.6967465 123.4230871  71.1256934  43.5903223
 124.3226906  71.9518839  42.6958938 126.1995430  64.3258810  55.9043784
 126.1671750  63.3874811  56.0903468 126.8096054  64.4042847  55.1709609
 118.0378761  63.1954863  41.9470988 118.9837866  63.0661071  42.0159406
 117.6593006  62.4569525  42.4240416 126.3489919  61.1169853  55.9502067
 125.8328967  60.3328310  55.7631996 127.2329867  60.7888570  56.1148586
 124.0100646  54.8610869  51.9097880 123.8125467  54.5525957  52.7941212
 124.6200351  55.5872508  52.0395810 132.0171980  65.3874817  55.0449821
 132.7475369  65.1260105  55.6057524 131.4078926  64.6503539  55.0851889
 130.0987277  63.5282679  55.6424272 129.3720441  63.3938644  55.0340763
 129.6834564  63.8359508  56.4480990 117.9217454  67.2472609  63.4071645
 118.8420463  67.4251208  63.6011691 117.8867037  66.3028654  63.2551344
 116.2221678  61.1204839  41.8825873 115.3153134  60.8237952  41.9588587
 116.4997659  60.8234657  41.0160159 107.1399619  62.4411203  52.3324919
 106.8202403  61.5876511  52.0399293 106.5933047  62.6559781  53.0882887
 110.9179526  65.1573644  56.0494426 111.1365536  66.0890752  56.0682460
 111.3305300  64.7981618  56.8349230 117.8383744  55.6641729  48.0370114
 117.0284472  55.3188814  48.4125360 118.5268161  55.3549273  48.6257726
 119.7674292  54.7419776  49.6594411 120.3205331  55.1615229  50.3184434
 120.0044379  53.8155524  49.7017367 115.7907392  60.7306850  65.4397175
 115.6904118  61.6801206  65.3709266 115.5728934  60.4025088  64.5673245
 114.9920463  57.9791775  42.0237852 115.8539627  58.3046673  42.2833670
 115.1770807  57.1923270  41.5110918 107.0087879  66.0614114  54.3018041
 106.3151350  65.6468067  53.7887995 107.7560870  66.1034651  53.7051460
 123.1453099  56.8520301  49.1673075 122.5651768  57.5105105  48.7851128
 122.8789032  56.0297646  48.7560493 121.5956666  56.2525359  51.3694396
 122.0956444  56.3641893  50.5608714 122.2392274  55.9486412  52.0095204
 115.6538662  64.1603988  64.2562237 115.1705743  64.9604348  64.4626126
 115.7399601  64.1711933  63.3029681 108.9224621  65.9932368  52.1784056
 108.8995309  66.0920055  51.2265939 109.2325258  66.8397519  52.5001222
 111.5811999  68.0508523  56.2930670 112.5355253  68.0192465  56.2260602
 111.3824523  67.5899147  57.1080896 112.1711381  66.6209639  58.8601468
 112.9904270  67.1153718  58.8836305 112.4448189  65.7041607  58.8319036
 121.9277977  59.0120391  48.2229424 121.0403832  59.2970042  48.0049618
 122.3431967  58.8514155  47.3756700 125.2792514  59.0366912  51.9383763
 126.0552904  59.5263365  52.2108380 124.5540648  59.4624967  52.3955632
 127.7165072  59.7494532  52.9957703 128.3109563  59.5090268  52.2851012
 127.7891656  59.0301662  53.6231240 109.9362228  73.5928143  53.3100868
 109.8016696  72.8328543  52.7438866 109.5194290  74.3169042  52.8429657
 121.0721191  68.7765066  42.3177444 121.7757041  68.9815069  42.9335099
 120.3483840  69.3441828  42.5826527 121.9019001  64.5274927  48.4379714
 121.8454203  64.9843479  47.5987346 122.4547344  63.7665612  48.2602556
 125.7123807  60.3164659  49.2629833 125.4560741  59.9161295  50.0938041
 125.0876675  61.0308453  49.1379972 130.0236145  63.0560732  51.7701125
 129.4635703  63.1253922  52.5432687 129.4179648  62.8801717  51.0500621
 113.0931354  74.4897460  53.5219311 112.9763738  75.4342892  53.4198001
 112.2723800  74.1871021  53.9105110 122.9807888  69.2147595  44.3675904
 123.8153492  68.7828794  44.1853378 122.8192231  69.0429609  45.2952798
 122.6353780  65.7179709  45.7332243 122.5802584  65.5523980  44.7920687
 122.0099836  66.4255742  45.8894433 107.4246295  60.9547773  59.5593665
 108.0705159  60.4446727  60.0480890 107.2163447  61.6916455  60.1337090
 119.9499688  68.0228620  65.0585806 120.8190847  68.1969273  64.6972441
 119.4706439  68.8423037  64.9361535 115.9449906  55.2187818  45.3117561
 115.9328576  56.1629658  45.4685832 116.8373328  55.0357963  45.0177022
 114.1185868  75.1425721  56.7375239 115.0213115  75.1749332  57.0541734
 113.8923238  74.2126172  56.7521575 115.8739470  73.8956708  53.3985318
 114.9235101  73.8958570  53.2849690 116.1771956  73.1489443  52.8821353
 119.7602025  51.8130594  49.5663498 118.9934421  51.2589081  49.7120180
 120.1712730  51.8852463  50.4277650 111.7643786  58.1015390  63.6568679
 112.6275248  57.7452195  63.8672004 111.1909197  57.7629285  64.3444084
 128.4181870  79.6844675  54.3992605 128.0800381  79.5685739  53.5113140
 129.2871638  79.2835840  54.3793611 124.2768685  81.5380151  50.3889496
 123.7133551  81.4470088  49.6205784 124.1621080  80.7180055  50.8691988
 121.8233117  83.0331343  53.2273716 122.6154409  82.6922167  52.8120016
 122.0629767  83.1426318  54.1475870 129.8568244  85.2051119  45.7003961
 129.2056224  85.7905199  45.3137975 130.6512607  85.7357314  45.7598998
 123.7823871  82.2940256  46.0991095 124.5554747  81.7469243  45.9603971
 124.1349270  83.1584505  46.3105557 126.5465121  80.9993487  55.8959354
 127.1428693  80.7749509  55.1816317 126.6040092  80.2578232  56.4984802
 126.1190149  78.4532922  43.7309545 126.3715670  77.9314443  42.9693008
 125.1814708  78.2899067  43.8336229 131.1633432  77.4568700  51.5384288
 131.9496521  77.0388123  51.1874705 131.4272136  78.3614792  51.7065937
 131.3343509  82.8941551  46.2372945 130.6989342  82.9676177  46.9493850
 131.0040916  83.4835149  45.5592024 136.5641859  77.3943933  52.4417267
 137.2967031  76.8243150  52.6755096 135.8081215  77.0065534  52.8823772
 125.8386438  80.3561028  45.9333920 125.7222696  79.6805931  46.6015004
 125.9488698  79.8693402  45.1166073 128.1817979  79.8171175  49.6380609
 127.8176186  79.2901796  50.3493531 129.0385095  79.4269644  49.4647095
 127.8223466  74.8461075  44.6341958 127.9897868  75.7141311  45.0012429
 127.6320635  75.0088356  43.7103247 124.0311280  79.7591850  52.3344493
 123.1061777  79.6268064  52.5422184 124.2795694  80.5386070  52.8314435
 127.8012687  77.3018732  45.6188625 127.6812312  77.7475783  46.4574105
 127.1065275  77.6504050  45.0602163 121.3920091  79.4025124  53.1688282
 121.5212473  79.6559603  54.0827693 120.7117543  79.9952832  52.8492937
 125.5619579  90.0722374  49.2678756 125.4843608  91.0230199  49.3467236
 124.9581222  89.7268246  49.9253682 133.4997753  77.7740205  46.4468959
 134.4115609  78.0067592  46.2716656 132.9907400  78.3577250  45.8844037
 132.1067335  82.7566024  53.8382540 131.4776198  82.9211738  53.1358608
 131.7192997  83.1707633  54.6093504 135.9856567  83.6920462  51.1926904
 135.3007605  84.0719363  50.6423937 136.0700416  84.3015788  51.9258852
 127.6595297  82.4940432  51.1032625 128.1233642  82.7728135  50.3137248
 127.3952095  81.5923876  50.9205716 126.5964183  78.6163584  47.9122190
 127.2988226  79.0684628  48.3796117 126.2644811  77.9747403  48.5402084
 120.3389517  76.8747137  53.2139324 119.5488571  77.1304665  52.7379435
 120.8300764  77.6895475  53.3191365 122.2904262  77.2391716  50.1722801
 121.4935426  77.3510410  50.6906296 122.0629855  77.5778368  49.3063691
 118.6227220  77.1277627  55.6454315 118.8735258  78.0124637  55.9111891
 119.1586768  76.9482229  54.8729407 142.4459320  80.5591125  52.3129576
 141.6923028  79.9898523  52.1573581 142.5806861  80.5253789  53.2600211
 127.8357948  85.4304527  47.9884296 127.7003622  86.2756063  48.4169143
 128.3767760  85.6323804  47.2250229 124.3225287  71.5096107  64.6498651
 123.9292233  70.9562305  65.3246295 125.1391428  71.8206685  65.0405168
 121.2887345  82.9479965  48.5612221 121.8011866  83.7423215  48.7117785
 121.9410058  82.2506255  48.4945822 123.0982230  86.0645721  50.6434974
 123.2748858  86.9863686  50.4555958 123.8939063  85.7504140  51.0729354
 124.2213545  87.5823895  56.6445316 124.7720970  87.4540958  55.8722310
 123.3825021  87.8818784  56.2940209 119.2536262  81.2768619  49.3371791
 120.0911484  81.6865628  49.1205499 119.4314529  80.3368061  49.3071985
 131.1500694  78.9443700  45.0255624 130.6347317  79.7148304  45.2644012
 130.8778002  78.2708836  45.6488686 128.7347805  73.7893401  50.0840863
 127.8789401  73.4000251  49.9046501 129.1474757  73.8685361  49.2240648
 136.1234968  81.6976054  46.9608798 135.3464411  81.3587214  46.5163960
 136.8026449  81.7028678  46.2863763 130.9386997  76.8170792  46.8515405
 130.6337133  77.1316941  47.7025549 131.8917439  76.8952212  46.8942738
 129.3833429  82.9761015  48.5008359 128.8554790  82.2413775  48.1881597
 128.8820932  83.7535692  48.2548328 134.3626275  81.1710036  53.6175406
 133.7049949  81.8609297  53.7055534 135.1666674  81.5606468  53.9609392
 124.1152157  73.6380682  50.8614971 124.6895908  73.4155863  50.1288164
 124.7023139  73.7069376  51.6143572 133.1731734  79.5254408  51.6679347
 133.6863615  80.1584400  52.1701057 133.8232958  78.9255604  51.3022707
 124.4421744  75.6685143  44.8810856 123.6059056  76.0059829  45.2020131
 124.3026513  75.5334122  43.9437993 126.4174824  70.5121930  49.5890040
 125.7639237  70.1970948  48.9646655 126.3755298  69.8897671  50.3149863
 127.5286029  80.7941226  41.5043332 126.6213091  80.5630479  41.7034481
 128.0257061  79.9978845  41.6917314 130.4354108  89.5038733  44.4240019
 129.7615807  89.8070429  45.0324976 130.8219930  90.3067813  44.0745476
 130.4347612  78.3995280  49.0440368 131.1819431  78.9116677  48.7347490
 130.7039202  78.0779332  49.9044762 128.7074263  80.8953820  46.0267322
 127.7985482  80.6112853  46.1239792 128.7369346  81.3152899  45.1670629
 133.9393530  84.5060410  49.7958490 133.4855857  83.6651320  49.8523681
 133.3087497  85.1421808  50.1333270 132.8826450  75.4352396  51.0259157
 132.1449206  74.9229782  51.3569400 133.1353223  74.9952778  50.2142434
 132.3826469  86.3436907  50.7308308 132.6749444  86.9041964  50.0120674
 132.8925090  86.6365468  51.4861467 132.9838077  68.2128648  51.6200927
 133.2896954  67.3526011  51.3326842 133.7090682  68.8046268  51.4199921
 119.2762433  78.6159335  50.0082525 119.0786833  78.0228695  49.2833591
 118.7209097  78.3111545  50.7258463 127.2559157  78.5082441  52.1277118
 127.3107766  77.5556277  52.0519594 126.4450359  78.6641880  52.6118416
 128.4050350  82.4362564  43.3655401 127.9669780  81.7198423  42.9061038
 129.1460791  82.6638679  42.8040492 125.1951517  77.1259501  49.8867497
 124.3819382  77.4253671  50.2932689 125.6910511  76.7315190  50.6041979
 127.3460094  87.1217258  51.8201761 127.3036273  87.3478104  50.8910293
 128.2622793  86.8880632  51.9687563 136.5223465  80.7119761  49.4231720
 136.3841364  80.9021357  48.4952909 136.1659684  81.4739144  49.8799771
 136.5492845  82.7796288  54.4342991 136.9829351  82.6871577  55.2826045
 137.2624425  82.7553789  53.7963007 125.4625895  83.9980287  51.6163724
 126.2566494  83.5030607  51.4146299 124.7517588  83.4698150  51.2531430
 121.7708659  78.1423368  47.6923477 120.8406247  78.0807824  47.9093439
 121.8666131  77.6199321  46.8960118 121.6894208  74.6678181  50.2801718
 121.9501025  75.5823514  50.1710879 122.5111380  74.2002624  50.4298331
 137.4108394  82.8219989  56.9675877 137.6044284  83.7265799  57.2135151
 137.3109012  82.3627408  57.8014462 128.6345323  89.6718405  46.6387098
 128.8097079  89.2006448  47.4532720 127.9478111  90.2984171  46.8668358
 129.5902386  83.9490911  52.6850399 129.2552219  83.9091681  53.5808049
 129.0906332  83.2835627  52.2120809 132.5261578  81.2946946  42.9587459
 131.9090749  80.5693774  42.8620511 132.0578066  82.0556306  42.6154533
 124.3160124  75.5132370  42.0808763 123.4389590  75.3921171  41.7171010
 124.7917877  74.7218448  41.8287652 115.8362264  80.3009530  52.1750270
 116.5233304  79.9871260  51.5871285 115.6810393  81.2050894  51.9017521
 120.6396986  75.1899726  56.6035294 120.5555175  74.5825396  55.8685704
 119.8179693  75.6808745  56.6044790 127.7134270  88.6286890  55.8168462
 127.6404442  89.4341862  56.3287766 127.2711663  88.8278856  54.9916483
 127.5024050  87.8658660  49.3271283 126.7191572  88.4080341  49.4209508
 128.2016795  88.3832640  49.7265525 130.8120700  73.6753290  51.9705489
 131.3089400  72.9223252  51.6506559 130.0407682  73.7117606  51.4048698
 138.6650457  79.3793655  53.6123780 138.6540334  80.2618371  53.2417713
 137.7967837  79.0265206  53.4178317 131.8950481  82.4324977  49.5443912
 130.9606759  82.5526440  49.3748617 132.0727149  81.5297444  49.2803922
 127.3955669  75.8170673  51.6977173 127.0253456  75.2641713  52.3858079
 127.8914761  75.2128806  51.1452173 135.2823032  78.2742296  50.0793946
 135.7483484  79.1070288  50.0054249 135.7330533  77.8087278  50.7839205
 133.3499263  84.6186118  47.0780098 133.6259107  84.5042712  47.9873972
 132.4803762  84.2203602  47.0392271 129.9853327  88.8672468  50.7212912
 130.1675722  88.0494124  51.1840664 130.8086313  89.0840161  50.2837802
 130.3195493  87.7940654  47.9827960 130.8483259  87.2833108  47.3698123
 130.5823712  87.4783184  48.8473494 120.8212585  85.8104523  55.7263294
 121.4066022  85.0648211  55.8591198 120.6237424  86.1208480  56.6099958
 123.6751241  88.8455770  50.7425736 123.0061616  89.3301898  50.2589776
 123.5364110  89.0924991  51.6569115 115.4130240  78.3810123  54.4467737
 115.4514340  77.8473714  55.2404855 114.9070533  77.8545329  53.8278714
 122.7921002  73.2274664  57.9430279 122.8562329  74.0889494  57.5307677
 122.7288123  72.6148665  57.2102638 119.0438818  77.1074225  47.5221669
 119.3392259  76.1984904  47.4688722 118.1426853  77.0861965  47.2002671
 130.9524896  88.8281489  54.3272077 130.8276036  88.0271229  53.8183022
 131.6103988  89.3227683  53.8386047 122.5733065  75.1830222  53.5049217
 121.8519650  75.7966190  53.3656690 123.3626320  75.7187987  53.4265863
 120.7726659  74.7888323  47.6460994 120.4439365  73.9085702  47.4636100
 121.1266030  74.7335992  48.5337383 130.0206238  86.4243226  52.1555979
 129.8731201  85.4959933  52.3363549 130.8459732  86.4463316  51.6713055
 123.8868482  75.0761293  48.0136471 124.2264555  75.6047214  47.2915080
 124.3340603  75.4141699  48.7895038 133.6240360  87.2471784  53.2420852
 134.5486907  87.0414646  53.1045303 133.4555663  86.9988186  54.1510194
 125.8736630  73.5735914  46.2129764 126.5944992  73.9517167  45.7093481
 125.2501934  74.2924791  46.3164742 130.0167752  74.2781063  47.1488097
 130.2331367  75.1605701  46.8476925 129.5361820  73.8867277  46.4193738
 124.7566974  77.2366776  53.7258841 124.6111555  77.5507080  54.6183123
 124.2792177  77.8551677  53.1729740 133.4135676  87.7657452  48.5982943
 133.5872554  87.2003874  47.8456796 133.9064567  88.5658347  48.4162433
 119.2312636  79.7772121  56.6646502 118.6866104  80.5531929  56.7966777
 120.1091986  80.1242925  56.5065624 126.0200253  73.1083705  49.0427301
 126.1416164  72.1800351  49.2418188 125.7302295  73.1222391  48.1305616
 139.2675067  80.5293875  50.2173243 139.7106213  79.7801200  49.8192366
 138.3901578  80.5204011  49.8346975 134.4010849  87.0824216  45.6979842
 135.0961753  87.7030909  45.9167156 134.7433999  86.2319567  45.9732220
 136.3002272  84.5323922  47.2267173 136.8253596  84.8711194  46.5016493
 136.2124624  83.5970937  47.0430307 127.9842933  90.5995905  51.5862426
 127.5447923  90.1072284  52.2795282 128.7351050  90.0568873  51.3454501
 125.4316805  86.1433914  53.6584727 124.8096814  85.4804619  53.3586955
 126.1021672  86.1695046  52.9758375 124.9930312  84.6937837  47.1343188
 125.1418432  85.3773302  46.4809861 125.7996755  84.6742927  47.6492644
 137.6112250  84.4346233  60.0893121 137.3197058  84.7976214  60.9256582
 136.9984381  83.7213242  59.9106453 138.8107932  81.9999113  52.6095691
 139.6454823  82.4388917  52.7733251 138.9467061  81.5237766  51.7903937
 122.7482945  80.7203015  48.1404257 122.5028987  79.8165345  48.3384467
 122.9178859  80.7220166  47.1983735 122.0178592  76.4531373  45.6390418
 121.3247837  76.5275728  44.9830454 121.7730344  75.6891716  46.1611935
 128.4925717  87.1885968  44.6054935 127.9199684  87.8076155  44.1525407
 129.0658511  87.7385330  45.1394857 131.7122977  87.4723118  45.7363518
 132.6453650  87.4068680  45.9396393 131.6246190  88.3079385  45.2778050
 134.3410994  86.7888988  42.6967465 134.2624625  86.4548852  43.5903223
 135.1620660  87.2810756  42.6958938 137.0389185  79.6550728  55.9043784
 137.0065505  78.7166728  56.0903468 137.6489808  79.7334764  55.1709609
 128.8772516  78.5246781  41.9470988 129.8231620  78.3952989  42.0159406
 128.4986761  77.7861443  42.4240416 137.1883673  76.4461771  55.9502067
 136.6722722  75.6620228  55.7631996 138.0723622  76.1180488  56.1148586
 134.8494400  70.1902787  51.9097880 134.6519221  69.8817875  52.7941212
 135.4594106  70.9164426  52.0395810 142.8565735  80.7166735  55.0449821
 143.5869123  80.4552023  55.6057524 142.2472680  79.9795456  55.0851889
 140.9381032  78.8574597  55.6424272 140.2114195  78.7230562  55.0340763
 140.5228319  79.1651426  56.4480990 127.0615433  76.4496757  41.8825873
 126.1546888  76.1529870  41.9588587 127.3391414  76.1526575  41.0160159
 117.9793373  77.7703120  52.3324919 117.6596158  76.9168429  52.0399293
 117.4326801  77.9851699  53.0882887 121.7573281  80.4865561  56.0494426
 121.9759291  81.4182669  56.0682460 122.1699055  80.1273536  56.8349230
 128.6777499  70.9933647  48.0370114 127.8678227  70.6480732  48.4125360
 129.3661915  70.6841190  48.6257726 130.6068047  70.0711694  49.6594411
 131.1599085  70.4907147  50.3184434 130.8438133  69.1447442  49.7017367
 125.8314217  73.3083692  42.0237852 126.6933381  73.6338591  42.2833670
 126.0164562  72.5215188  41.5110918 117.8481633  81.3906032  54.3018041
 117.1545105  80.9759985  53.7887995 118.5954624  81.4326568  53.7051460
 133.9846854  72.1812219  49.1673075 133.4045523  72.8397023  48.7851128
 133.7182787  71.3589563  48.7560493 132.4350420  71.5817276  51.3694396
 132.9350199  71.6933811  50.5608714 133.0786028  71.2778329  52.0095204
 119.7618376  81.3224286  52.1784056 119.7389064  81.4211973  51.2265939
 120.0719012  82.1689437  52.5001222 122.4205754  83.3800441  56.2930670
 123.3749007  83.3484383  56.2260602 122.2218277  82.9191064  57.1080896
 123.0105136  81.9501557  58.8601468 123.8298025  82.4445635  58.8836305
 123.2841943  81.0333525  58.8319036 132.7671732  74.3412309  48.2229424
 131.8797587  74.6261960  48.0049618 133.1825721  74.1806072  47.3756700
 136.1186268  74.3658830  51.9383763 136.8946658  74.8555283  52.2108380
 135.3934402  74.7916884  52.3955632 138.5558827  75.0786449  52.9957703
 139.1503317  74.8382185  52.2851012 138.6285410  74.3593580  53.6231240
 131.9114945  84.1056984  42.3177444 132.6150796  84.3106986  42.9335099
 131.1877594  84.6733746  42.5826527 132.7412756  79.8566845  48.4379714
 132.6847957  80.3135396  47.5987346 133.2941098  79.0957530  48.2602556
 136.5517562  75.6456577  49.2629833 136.2954496  75.2453213  50.0938041
 135.9270430  76.3600371  49.1379972 140.8629899  78.3852650  51.7701125
 140.3029457  78.4545839  52.5432687 140.2573403  78.2093635  51.0500621
 133.8201643  84.5439513  44.3675904 134.6547247  84.1120711  44.1853378
 133.6585986  84.3721527  45.2952798 133.4747535  81.0471626  45.7332243
 133.4196339  80.8815898  44.7920687 132.8493590  81.7547659  45.8894433
 118.2640050  76.2839691  59.5593665 118.9098914  75.7738645  60.0480890
 118.0557201  77.0208372  60.1337090 126.7843660  70.5479735  45.3117561
 126.7722330  71.4921575  45.4685832 127.6767082  70.3649881  45.0177022
 126.7133224  89.2248626  53.3985318 125.7628855  89.2250487  53.2849690
 127.0165711  88.4781360  52.8821353 130.5995780  67.1422512  49.5663498
 129.8328176  66.5880999  49.7120180 131.0106485  67.2144381  50.4277650
 122.6037541  73.4307308  63.6568679 123.4669003  73.0744113  63.8672004
 122.0302952  73.0921203  64.3444084 142.4485918  95.0609164  54.4631080
 143.0864328  94.9415911  53.7594420 142.3306761  96.0090008  54.5219032
 139.2575624  95.0136592  54.3992605 138.9194136  94.8977657  53.5113140
 140.1265392  94.6127757  54.3793611 135.1162440  96.8672069  50.3889496
 134.5527305  96.7762006  49.6205784 135.0014835  96.0471973  50.8691988
 139.7395407  96.1671444  60.3578811 139.7284048  95.7724242  59.4859314
 139.9016047  95.4337517  60.9512582 132.6626872  98.3623260  53.2273716
 133.4548164  98.0214085  52.8120016 132.9023522  98.4718235  54.1475870
 140.6961999 100.5343036  45.7003961 140.0449978 101.1197117  45.3137975
 141.4906361 101.0649231  45.7598998 134.6217626  97.6232173  46.0991095
 135.3948502  97.0761161  45.9603971 134.9743025  98.4876423  46.3105557
 136.4602668  98.9508556  59.3057995 136.1692534  99.8554187  59.1904661
 137.0959653  98.9925083  60.0202064 137.3858875  96.3285404  55.8959354
 137.9822447  96.1041427  55.1816317 137.4433847  95.5870150  56.4984802
 136.9583904  93.7824840  43.7309545 137.2109424  93.2606361  42.9693008
 136.0208463  93.6190985  43.8336229 142.0027186  92.7860618  51.5384288
 142.7890276  92.3680041  51.1874705 142.2665891  93.6906710  51.7065937
 142.1737264  98.2233468  46.2372945 141.5383097  98.2968095  46.9493850
 141.8434670  98.8127067  45.5592024 147.4035614  92.7235851  52.4417267
 148.1360785  92.1535068  52.6755096 146.6474969  92.3357452  52.8823772
 136.6780192  95.6852946  45.9333920 136.5616450  95.0097849  46.6015004
 136.7882452  95.1985319  45.1166073 139.0211733  95.1463093  49.6380609
 138.6569940  94.6193714  50.3493531 139.8778849  94.7561562  49.4647095
 144.9261034  86.4357425  56.9011875 144.5944359  87.3052836  56.6773090
 144.3306647  86.1193709  57.5805906 138.6617220  90.1752992  44.6341958
 138.8291623  91.0433229  45.0012429 138.4714389  90.3380274  43.7103247
 141.4192553  98.6369971  56.3007788 141.1193276  99.5395010  56.1923595
 141.0743613  98.3702154  57.1528941 134.8705035  95.0883768  52.3344493
 133.9455531  94.9559982  52.5422184 135.1189448  95.8677987  52.8314435
 144.8189697  91.1552511  53.9805226 143.9106575  91.0867920  53.6863986
 144.7677293  91.6324456  54.8087051 138.6406441  92.6310650  45.6188625
 138.5206066  93.0767701  46.4574105 137.9459029  92.9795967  45.0602163
 132.2313846  94.7317042  53.1688282 132.3606227  94.9851521  54.0827693
 131.5511297  95.3244750  52.8492937 136.4013333 105.4014292  49.2678756
 136.3237363 106.3522117  49.3467236 135.7974977 105.0560164  49.9253682
 146.6851344  89.3568950  55.7583099 146.0425724  89.6501483  55.1122894
 146.1806272  89.2421870  56.5636296 144.3391507  93.1032123  46.4468959
 145.2509363  93.3359510  46.2716656 143.8301154  93.6869167  45.8844037
 142.6232275  97.5256751  60.0830251 143.0315631  97.0839161  59.3384884
 141.9009536  96.9509378  60.3364444 138.9763345  92.4629358  57.4563808
 139.8224540  92.8868771  57.5998457 138.9161983  91.8062982  58.1502371
 142.9461090  98.0857941  53.8382540 142.3169952  98.2503656  53.1358608
 142.5586752  98.4999551  54.6093504 146.8250321  99.0212379  51.1926904
 146.1401360  99.4011281  50.6423937 146.9094171  99.6307706  51.9258852
 144.0801253  96.6672338  57.7922247 144.2918148  97.3104098  57.1156629
 144.0331001  95.8334655  57.3244178 141.6827482  89.2790159  54.6958820
 140.8211961  89.5771413  54.9875557 141.7089917  89.4960558  53.7639852
 138.4989051  97.8232350  51.1032625 138.9627397  98.1020053  50.3137248
 138.2345850  96.9215794  50.9205716 135.3913132  97.3703831  54.0412389
 135.9614490  97.7991099  53.4029873 135.9821244  97.0886416  54.7396574
 137.4357937  93.9455502  47.9122190 138.1381981  94.3976546  48.3796117
 137.1038566  93.3039321  48.5402084 131.1783271  92.2039055  53.2139324
 130.3882325  92.4596583  52.7379435 131.6694519  93.0187392  53.3191365
 145.1947081  99.5444294  55.9644605 146.0164525  99.1424481  55.6827286
 145.1909484  99.4412528  56.9160721 133.1298017  92.5683634  50.1722801
 132.3329180  92.6802328  50.6906296 132.9023609  92.9070286  49.3063691
 138.9603684  99.0928337  58.1205315 139.0248117  99.5548744  58.9563487
 138.2514608  98.4625702  58.2487625 153.2853074  95.8883042  52.3129576
 152.5316782  95.3190440  52.1573581 153.4200615  95.8545707  53.2600211
 138.6751702 100.7596445  47.9884296 138.5397377 101.6047980  48.4169143
 139.2161515 100.9615722  47.2250229 132.1281099  98.2771883  48.5612221
 132.6405620  99.0715133  48.7117785 132.7803812  97.5798173  48.4945822
 133.9375984 101.3937639  50.6434974 134.1142613 102.3155604  50.4555958
 134.7332818 101.0796058  51.0729354 140.3020178 101.3820011  62.1184638
 139.8584033 100.5956390  61.8005542 140.9637392 101.5699162  61.4528528
 135.0607300 102.9115813  56.6445316 135.6114725 102.7832876  55.8722310
 134.2218776 103.2110702  56.2940209 142.4001417 101.6622811  60.1466039
 142.3819892 102.4831692  59.6546308 143.3221337 101.5376886  60.3716180
 138.8574471  99.1766940  60.9889547 139.3902808  98.4155229  60.7588855
 138.3288552  98.8840592  61.7313702 142.0244166  84.2827006  56.5183189
 141.6808435  85.1728648  56.4422300 142.3923128  84.0928664  55.6552774
 130.0930016  96.6060537  49.3371791 130.9305238  97.0157545  49.1205499
 130.2708284  95.6659979  49.3071985 141.9894448  94.2735618  45.0255624
 141.4741072  95.0440222  45.2644012 141.7171757  93.6000754  45.6488686
 139.5741559  89.1185318  50.0840863 138.7183156  88.7292169  49.9046501
 139.9868511  89.1977279  49.2240648 141.1040706  86.6531662  54.4832422
 140.6005502  86.6161797  53.6700228 141.3971313  87.5624404  54.5429079
 137.3483592  86.7370391  53.4898604 138.2136589  86.5413200  53.1304494
 137.4161101  86.5080743  54.4167961 146.9628723  97.0267972  46.9608798
 146.1858165  96.6879132  46.5163960 147.6420204  97.0320595  46.2863763
 141.7780752  92.1462710  46.8515405 141.4730887  92.4608859  47.7025549
 142.7311194  92.2244130  46.8942738 140.2227183  98.3052933  48.5008359
 139.6948545  97.5705693  48.1881597 139.7214686  99.0827609  48.2548328
 145.2020029  96.5001953  53.6175406 144.5443704  97.1901215  53.7055534
 146.0060429  96.8898385  53.9609392 134.9545911  88.9672599  50.8614971
 135.5289663  88.7447781  50.1288164 135.5416893  89.0361294  51.6143572
 144.0125488  94.8546326  51.6679347 144.5257370  95.4876318  52.1701057
 144.6626712  94.2547522  51.3022707 135.2815498  90.9977060  44.8810856
 134.4452810  91.3351747  45.2020131 135.1420268  90.8626040  43.9437993
 137.2568579  85.8413848  49.5890040 136.6032991  85.5262865  48.9646655
 137.2149053  85.2189589  50.3149863 138.3679784  96.1233143  41.5043332
 137.4606845  95.8922397  41.7034481 138.8650816  95.3270762  41.6917314
 141.2747862 104.8330650  44.4240019 140.6009561 105.1362347  45.0324976
 141.6613684 105.6359731  44.0745476 140.4906319  92.3295782  53.9137688
 139.5728880  92.5510729  53.7559376 140.9066463  92.4042092  53.0549395
 141.2741367  93.7287197  49.0440368 142.0213186  94.2408595  48.7347490
 141.5432956  93.4071250  49.9044762 139.5468017  96.2245738  46.0267322
 138.6379236  95.9404771  46.1239792 139.5763101  96.6444817  45.1670629
 144.7787284  99.8352328  49.7958490 144.3249612  98.9943237  49.8523681
 144.1481251 100.4713726  50.1333270 143.7220204  90.7644314  51.0259157
 142.9842961  90.2521700  51.3569400 143.9746978  90.3244695  50.2142434
 143.2220224 101.6728824  50.7308308 143.5143198 102.2333881  50.0120674
 143.7318844 101.9657385  51.4861467 143.8231831  83.5420566  51.6200927
 144.1290708  82.6817929  51.3326842 144.5484436  84.1338186  51.4199921
 130.1156187  93.9451252  50.0082525 129.9180587  93.3520613  49.2833591
 129.5602851  93.6403462  50.7258463 138.0952911  93.8374359  52.1277118
 138.1501521  92.8848195  52.0519594 137.2844113  93.9933798  52.6118416
 139.2444105  97.7654482  43.3655401 138.8063535  97.0490341  42.9061038
 139.9854546  97.9930597  42.8040492 136.0345271  92.4551418  49.8867497
 135.2213137  92.7545589  50.2932689 136.5304265  92.0607107  50.6041979
 138.1853849 102.4509175  51.8201761 138.1430028 102.6770022  50.8910293
 139.1016548 102.2172550  51.9687563 141.6319483  92.9193243  58.7182391
 141.9868870  93.1464716  59.5776856 142.2791614  93.2511620  58.0959646
 147.3617220  96.0411679  49.4231720 147.2235118  96.2313275  48.4952909
 147.0053438  96.8031062  49.8799771 135.5259346  90.0269774  55.5028732
 136.1658725  89.8858533  54.8051695 134.6936876  89.7404287  55.1267334
 147.3886599  98.1088206  54.4342991 147.8223106  98.0163495  55.2826045
 148.1018180  98.0845706  53.7963007 136.3019650  99.3272204  51.6163724
 137.0960248  98.8322524  51.4146299 135.5911342  98.7990067  51.2531430
 141.1214494 101.7090300  55.9676092 141.1751516 102.2781236  56.7353808
 140.2529275 101.8792185  55.6030129 132.6102413  93.4715286  47.6923477
 131.6800001  93.4099742  47.9093439 132.7059885  92.9491239  46.8960118
 132.5287962  89.9970099  50.2801718 132.7894779  90.9115432  50.1710879
 133.3505134  89.5294541  50.4298331 134.0012888  91.4107856  57.4500543
 134.6735941  91.2025218  56.8013192 133.1742674  91.2129942  57.0105775
 148.2502149  98.1511906  56.9675877 148.4438039  99.0557717  57.2135151
 148.1502767  97.6919326  57.8014462 139.9038460  88.0369797  59.4666204
 139.2566375  88.7359747  59.3730680 140.6739475  88.4705941  59.8342452
 143.3117257  98.3018649  62.5416757 143.1602764  98.0729201  61.6246841
 143.3021937  99.2589251  62.5548102 140.0802594  95.8750562  57.5263024
 141.0094654  96.0261722  57.3531991 139.6593624  95.9634583  56.6711670
 138.8790926  99.9001226  55.2961561 138.7402011  99.5320011  56.1687499
 138.0905522 100.4148866  55.1245519 139.4739078 105.0010323  46.6387098
 139.6490833 104.5298366  47.4532720 138.7871866 105.6276089  46.8668358
 140.4296141  99.2782829  52.6850399 140.0945973  99.2383599  53.5808049
 139.9300086  98.6127545  52.2120809 134.4040385  94.6850459  58.2102980
 134.2660183  93.9530698  58.8114519 135.3145308  94.5959359  57.9287168
 143.3655332  96.6238863  42.9587459 142.7484503  95.8985692  42.8620511
 142.8971821  97.3848224  42.6154533 137.0322685  94.3970418  57.6986660
 137.7422304  93.7563611  57.6573278 136.9891994  94.6483313  58.6212841
 145.0209464 101.3337772  60.6193239 144.9622010 100.6496992  59.9523822
 145.4228982 102.0756762  60.1673865 134.0400163 108.1499686  53.4126958
 134.2796761 108.7818210  54.0905976 133.1969359 107.7987726  53.6992317
 135.1553878  90.8424288  42.0808763 134.2783345  90.7213088  41.7171010
 135.6311631  90.0510366  41.8287652 145.0226871  99.2977356  58.8507219
 144.1353650  98.9603277  58.9733618 145.5925422  98.5660387  59.0875984
 126.6756018  95.6301447  52.1750270 127.3627058  95.3163177  51.5871285
 126.5204147  96.5342812  51.9017521 131.4790741  90.5191644  56.6035294
 131.3948929  89.9117314  55.8685704 130.6573447  91.0100662  56.6044790
 138.5528025 103.9578808  55.8168462 138.4798196 104.7633780  56.3287766
 138.1105418 104.1570774  54.9916483 138.3417804 103.1950578  49.3271283
 137.5585326 103.7372258  49.4209508 139.0410550 103.7124558  49.7265525
 141.6514455  89.0045208  51.9705489 142.1483154  88.2515170  51.6506559
 140.8801436  89.0409524  51.4048698 149.5044212  94.7085573  53.6123780
 149.4934088  95.5910288  53.2417713 148.6361591  94.3557124  53.4178317
 141.0126708 103.8565642  57.9726621 141.7254680 104.4913107  57.9002522
 140.5216737 103.9529508  57.1566622 142.7344235  97.7616895  49.5443912
 141.8000514  97.8818357  49.3748617 142.9120904  96.8589361  49.2803922
 138.2349423  91.1462590  51.6977173 137.8647211  90.5933631  52.3858079
 138.7308516  90.5420724  51.1452173 146.1216787  93.6034214  50.0793946
 146.5877239  94.4362206  50.0054249 146.5724287  93.1379196  50.7839205
 136.0638622 101.6060086  58.7932191 136.7648081 102.2396568  58.9461586
 135.5933737 101.9474817  58.0327831 144.1893018  99.9478035  47.0780098
 144.4652862  99.8334630  47.9873972 143.3197516  99.5495520  47.0392271
 144.0933449  85.9714801  54.1184848 143.1796529  86.2019028  54.2867055
 144.5226551  86.0553245  54.9698880 143.8639908  94.1604693  56.6184742
 143.2111358  94.4080600  55.9637194 144.2420288  93.3468831  56.2847219
 140.8247082 104.1964386  50.7212912 141.0069476 103.3786042  51.1840664
 141.6480068 104.4132078  50.2837802 141.1589247 103.1232571  47.9827960
 141.6877014 102.6125026  47.3698123 141.4217467 102.8075101  48.8473494
 139.9127481  94.9024504  63.1050779 139.2368118  94.8018633  63.7753154
 140.7355115  94.7463718  63.5686776 131.6606340 101.1396441  55.7263294
 132.2459777 100.3940128  55.8591198 131.4631178 101.4500397  56.6099958
 134.5144995 104.1747688  50.7425736 133.8455370 104.6593816  50.2589776
 134.3757865 104.4216908  51.6569115 138.6550264 106.2091431  57.3408395
 139.2068572 106.3723053  58.1057480 138.9956457 106.7995869  56.6688420
 143.5061138 101.0352689  63.1957049 144.0501042 101.6482647  62.7012004
 142.9247983 101.5932267  63.7124062 129.8832572  92.4366143  47.5221669
 130.1786013  91.5276821  47.4688722 128.9820608  92.4153882  47.2002671
 141.7918651 104.1573407  54.3272077 141.6669790 103.3563147  53.8183022
 142.4497742 104.6519600  53.8386047 133.4126819  90.5122139  53.5049217
 132.6913405  91.1258107  53.3656690 134.2020075  91.0479904  53.4265863
 143.8553559 101.9582427  55.9551627 142.9083895 101.8387778  55.8829954
 144.2036332 101.0704925  56.0377888 136.2153133  87.8476566  59.7789869
 136.7387535  88.0938863  60.5416178 135.9965466  88.6796601  59.3593006
 131.6120414  90.1180241  47.6460994 131.2833120  89.2377619  47.4636100
 131.9659784  90.0627909  48.5337383 140.8599993 101.7535143  52.1555979
 140.7124955 100.8251851  52.3363549 141.6853486 101.7755234  51.6713055
 134.7262237  90.4053210  48.0136471 135.0658309  90.9339132  47.2915080
 135.1734357  90.7433616  48.7895038 144.4634114 102.5763702  53.2420852
 145.3880662 102.3706563  53.1045303 144.2949418 102.3280103  54.1510194
 137.4205678  88.7890261  57.4639539 137.0802498  87.9898074  57.8660219
 136.7144684  89.0891972  56.8916373 138.0722150  85.8739574  55.9166862
 138.8948219  85.4000052  55.7945753 138.3160213  86.6530057  56.4165549
 136.7130384  88.9027832  46.2129764 137.4338747  89.2809085  45.7093481
 136.0895688  89.6216709  46.3164742 140.8561507  89.6072981  47.1488097
 141.0725121  90.4897619  46.8476925 140.3755574  89.2159194  46.4193738
 135.5960728  92.5658694  53.7258841 135.4505309  92.8798997  54.6183123
 135.1185932  93.1843594  53.1729740 137.4557111  89.5561242  53.7739731
 137.4418680  88.6602335  53.4372029 138.1729539  89.5631906  54.4078017
 139.3083242  89.9898582  55.8192858 139.0501020  90.9115653  55.8177189
 138.7768282  89.5929017  56.5093322 144.2529431 103.0949369  48.5982943
 144.4266308 102.5295792  47.8456796 144.7458322 103.8950264  48.4162433
 136.8594007  88.4375622  49.0427301 136.9809918  87.5092269  49.2418188
 136.5696050  88.4514308  48.1305616 139.7285198  86.1230533  52.1794021
 139.7506894  86.1869866  51.2246000 140.1453257  85.2835042  52.3734527
 150.1068822  95.8585792  50.2173243 150.5499968  95.1093118  49.8192366
 149.2295332  95.8495929  49.8346975 145.2404603 102.4116134  45.6979842
 145.9355508 103.0322827  45.9167156 145.5827753 101.5611485  45.9732220
 147.1396026  99.8615839  47.2267173 147.6647350 100.2003112  46.5016493
 147.0518379  98.9262855  47.0430307 138.8016075 103.7749913  59.3557049
 139.1103201 103.5299060  60.2279749 139.5991557 103.9796552  58.8675919
 138.8236687 105.9287823  51.5862426 138.3841677 105.4364201  52.2795282
 139.5744804 105.3860790  51.3454501 131.3029026 102.1199364  51.5887054
 132.1287046 101.8203135  51.2085697 130.9523078 101.3506986  52.0376842
 136.2710559 101.4725832  53.6584727 135.6490568 100.8096537  53.3586955
 136.9415426 101.4986964  52.9758375 129.5037631 100.0385690  52.5475987
 128.6669539  99.6107864  52.3659989 129.4761277 100.2318133  53.4846779
 146.8289932 100.4948743  62.5318370 146.0385476 100.4772882  61.9922870
 146.5923287 101.0337037  63.2867407 146.9487807  97.3441209  59.8451099
 146.9985812  97.1791217  60.7866622 146.8401731  96.4768468  59.4548980
 135.8324066 100.0229755  47.1343188 135.9812186 100.7065220  46.4809861
 136.6390510 100.0034845  47.6492644 144.2391570  93.3272137  61.1610406
 145.1401433  93.1878602  60.8694404 144.3139544  93.4926592  62.1008583
 138.5734375  90.7038992  60.0063592 137.7037685  90.9972558  59.7346181
 138.8093856  91.2879437  60.7270856 148.4506004  99.7638151  60.0893121
 148.1590813 100.1268131  60.9256582 147.8378136  99.0505159  59.9106453
 149.6501687  97.3291031  52.6095691 150.4848578  97.7680835  52.7733251
 149.7860815  96.8529684  51.7903937 146.6993193  94.8870766  58.5573179
 147.1747314  95.0798412  57.7492030 145.7758758  94.9429951  58.3116562
 133.5876699  96.0494933  48.1404257 133.3422741  95.1457263  48.3384467
 133.7572614  96.0512083  47.1983735 141.2773409  86.9218609  57.5229012
 141.7955353  87.6579636  57.1975501 140.9228542  87.2282602  58.3575772
 132.8572347  91.7823290  45.6390418 132.1641592  91.8567645  44.9830454
 132.6124099  91.0183634  46.1611935 141.5286003  83.3418892  53.0429909
 141.8087757  82.6742081  53.6690336 142.3136610  83.5347987  52.5304573
 139.3319472 102.5177886  44.6054935 138.7593439 103.1368073  44.1525407
 139.9052265 103.0677247  45.1394857 145.3994862  91.7636526  56.7901484
 146.3512284  91.8634623  56.8113708 145.2298312  90.9714794  57.2999569
 143.4209241  88.8492109  56.9760885 142.8259173  89.1297122  56.2807374
 143.1358938  89.3386010  57.7477626 142.5516731 102.8015036  45.7363518
 143.4847405 102.7360597  45.9396393 142.4639944 103.6371303  45.2778050
 145.1804748 102.1180906  42.6967465 145.1018380 101.7840770  43.5903223
 146.0014415 102.6102674  42.6958938 147.8782939  94.9842645  55.9043784
 147.8459259  94.0458646  56.0903468 148.4883563  95.0626682  55.1709609
 139.7166270  93.8538698  41.9470988 140.6625375  93.7244906  42.0159406
 139.3380515  93.1153360  42.4240416 148.0277428  91.7753689  55.9502067
 147.5116476  90.9912145  55.7631996 148.9117376  91.4472405  56.1148586
 145.6888155  85.5194704  51.9097880 145.4912976  85.2109793  52.7941212
 146.2987860  86.2456343  52.0395810 153.6959489  96.0458652  55.0449821
 154.4262878  95.7843940  55.6057524 153.0866435  95.3087374  55.0851889
 151.7774786  94.1866515  55.6424272 151.0507950  94.0522480  55.0340763
 151.3622073  94.4943343  56.4480990 139.6004963  97.9056444  63.4071645
 140.5207972  98.0835043  63.6011691 139.5654546  96.9612490  63.2551344
 137.9009187  91.7788675  41.8825873 136.9940643  91.4821787  41.9588587
 138.1785168  91.4818493  41.0160159 128.8187128  93.0995038  52.3324919
 128.4989912  92.2460346  52.0399293 128.2720556  93.3143616  53.0882887
 132.5967035  95.8157479  56.0494426 132.8153045  96.7474587  56.0682460
 133.0092809  95.4565454  56.8349230 139.5171253  86.3225564  48.0370114
 138.7071981  85.9772649  48.4125360 140.2055670  86.0133108  48.6257726
 141.4461801  85.4003611  49.6594411 141.9992840  85.8199065  50.3184434
 141.6831888  84.4739359  49.7017367 136.6707972  88.6375610  42.0237852
 137.5327136  88.9630508  42.2833670 136.8558316  87.8507106  41.5110918
 128.6875388  96.7197950  54.3018041 127.9938859  96.3051902  53.7887995
 129.4348379  96.7618486  53.7051460 144.8240608  87.5104136  49.1673075
 144.2439277  88.1688940  48.7851128 144.5576541  86.6881481  48.7560493
 143.2744175  86.9109194  51.3694396 143.7743953  87.0225729  50.5608714
 143.9179783  86.6070247  52.0095204 130.6012130  96.6516203  52.1784056
 130.5782818  96.7503891  51.2265939 130.9112767  97.4981354  52.5001222
 133.2599508  98.7092358  56.2930670 134.2142762  98.6776301  56.2260602
 133.0612032  98.2482982  57.1080896 133.8498890  97.2793474  58.8601468
 134.6691779  97.7737553  58.8836305 134.1235698  96.3625443  58.8319036
 143.6065486  89.6704227  48.2229424 142.7191341  89.9553877  48.0049618
 144.0219475  89.5097990  47.3756700 146.9580023  89.6950748  51.9383763
 147.7340413  90.1847200  52.2108380 146.2328157  90.1208802  52.3955632
 149.3952581  90.4078367  52.9957703 149.9897072  90.1674103  52.2851012
 149.4679165  89.6885498  53.6231240 131.6149737 104.2511978  53.3100868
 131.4804205 103.4912379  52.7438866 131.1981799 104.9752878  52.8429657
 142.7508700  99.4348901  42.3177444 143.4544550  99.6398904  42.9335099
 142.0271349 100.0025663  42.5826527 143.5806510  95.1858763  48.4379714
 143.5241712  95.6427314  47.5987346 144.1334853  94.4249447  48.2602556
 147.3911316  90.9748495  49.2629833 147.1348250  90.5745130  50.0938041
 146.7664184  91.6892289  49.1379972 151.7023654  93.7144568  51.7701125
 151.1423212  93.7837757  52.5432687 151.0967157  93.5385552  51.0500621
 134.7718863 105.1481295  53.5219311 134.6551247 106.0926727  53.4198001
 133.9511309 104.8454856  53.9105110 144.6595397  99.8731431  44.3675904
 145.4941001  99.4412629  44.1853378 144.4979740  99.7013444  45.2952798
 144.3141289  96.3763544  45.7332243 144.2590093  96.2107815  44.7920687
 143.6887345  97.0839577  45.8894433 141.6287197  98.6812456  65.0585806
 142.4978356  98.8553108  64.6972441 141.1493948  99.5006873  64.9361535
 137.6237415  85.8771653  45.3117561 137.6116085  86.8213493  45.4685832
 138.5160837  85.6941798  45.0177022 135.7973377 105.8009557  56.7375239
 136.7000624 105.8333167  57.0541734 135.5710747 104.8710008  56.7521575
 137.5526979 104.5540543  53.3985318 136.6022610 104.5542405  53.2849690
 137.8559465 103.8073278  52.8821353 141.4389534  82.4714430  49.5663498
 140.6721930  81.9172916  49.7120180 141.8500239  82.5436298  50.4277650
 153.2879672 110.3901082  54.4631080 153.9258082 110.2707829  53.7594420
 153.1700515 111.3381926  54.5219032 150.0969379 110.3428510  54.3992605
 149.7587890 110.2269575  53.5113140 150.9659147 109.9419675  54.3793611
 145.9556194 112.1963986  50.3889496 145.3921059 112.1053923  49.6205784
 145.8408589 111.3763891  50.8691988 150.5789162 111.4963362  60.3578811
 150.5677802 111.1016160  59.4859314 150.7409801 110.7629434  60.9512582
 143.5020626 113.6915178  53.2273716 144.2941918 113.3506003  52.8120016
 143.7417276 113.8010153  54.1475870 151.5355753 115.8634954  45.7003961
 150.8843733 116.4489034  45.3137975 152.3300116 116.3941149  45.7598998
 145.4611380 112.9524091  46.0991095 146.2342256 112.4053078  45.9603971
 145.8136779 113.8168340  46.3105557 147.2996423 114.2800473  59.3057995
 147.0086289 115.1846104  59.1904661 147.9353407 114.3217001  60.0202064
 148.2252630 111.6577322  55.8959354 148.8216202 111.4333344  55.1816317
 148.2827601 110.9162067  56.4984802 147.7977658 109.1116757  43.7309545
 148.0503179 108.5898279  42.9693008 146.8602217 108.9482903  43.8336229
 152.8420941 108.1152536  51.5384288 153.6284030 107.6971959  51.1874705
 153.1059645 109.0198628  51.7065937 153.0131018 113.5525386  46.2372945
 152.3776851 113.6260012  46.9493850 152.6828425 114.1418985  45.5592024
 158.2429368 108.0527769  52.4417267 158.9754540 107.4826986  52.6755096
 157.4868724 107.6649369  52.8823772 147.5173947 111.0144863  45.9333920
 147.4010205 110.3389767  46.6015004 147.6276207 110.5277237  45.1166073
 149.8605488 110.4755010  49.6380609 149.4963695 109.9485631  50.3493531
 150.7172604 110.0853479  49.4647095 155.7654788 101.7649343  56.9011875
 155.4338113 102.6344754  56.6773090 155.1700402 101.4485627  57.5805906
 149.5010975 105.5044910  44.6341958 149.6685377 106.3725146  45.0012429
 149.3108144 105.6672192  43.7103247 152.2586308 113.9661889  56.3007788
 151.9587031 114.8686928  56.1923595 151.9137367 113.6994072  57.1528941
 145.7098789 110.4175686  52.3344493 144.7849286 110.2851900  52.5422184
 145.9583203 111.1969905  52.8314435 155.6583452 106.4844429  53.9805226
 154.7500329 106.4159838  53.6863986 155.6071047 106.9616374  54.8087051
 149.4800196 107.9602567  45.6188625 149.3599821 108.4059618  46.4574105
 148.7852784 108.3087885  45.0602163 143.0707600 110.0608959  53.1688282
 143.1999982 110.3143438  54.0827693 142.3905052 110.6536667  52.8492937
 147.2407088 120.7306209  49.2678756 147.1631117 121.6814034  49.3467236
 146.6368731 120.3852082  49.9253682 149.7324317 107.9034075  61.9240123
 148.9557652 108.4627995  61.9142987 150.3714881 108.3890858  62.4454993
 157.5245098 104.6860867  55.7583099 156.8819478 104.9793401  55.1122894
 157.0200027 104.5713788  56.5636296 155.1785262 108.4324041  46.4468959
 156.0903118 108.6651427  46.2716656 154.6694909 109.0161085  45.8844037
 147.9870690 110.7119528  61.4858090 148.7285374 111.2504572  61.2092913
 147.2807675 111.3385817  61.6429642 153.4626029 112.8548669  60.0830251
 153.8709385 112.4131079  59.3384884 152.7403291 112.2801296  60.3364444
 149.8157099 107.7921275  57.4563808 150.6618295 108.2160689  57.5998457
 149.7555737 107.1354900  58.1502371 153.7854844 113.4149859  53.8382540
 153.1563706 113.5795573  53.1358608 153.3980506 113.8291469  54.6093504
 157.6644076 114.3504297  51.1926904 156.9795114 114.7303198  50.6423937
 157.7487925 114.9599624  51.9258852 152.9656545 105.4525644  59.1144982
 152.7217477 106.2067704  58.5779258 153.2416475 105.8310991  59.9492229
 154.9195008 111.9964256  57.7922247 155.1311903 112.6396016  57.1156629
 154.8724756 111.1626573  57.3244178 152.5221237 104.6082077  54.6958820
 151.6605716 104.9063330  54.9875557 152.5483671 104.8252476  53.7639852
 149.3382806 113.1524267  51.1032625 149.8021151 113.4311970  50.3137248
 149.0739604 112.2507712  50.9205716 146.2306887 112.6995749  54.0412389
 146.8008244 113.1283017  53.4029873 146.8214999 112.4178333  54.7396574
 148.2751692 109.2747420  47.9122190 148.9775735 109.7268463  48.3796117
 147.9432320 108.6331238  48.5402084 146.7232054 107.8659176  62.2873400
 146.0930714 108.5475457  62.5208797 146.6168141 107.7542258  61.3426538
 142.0177026 107.5330972  53.2139324 141.2276080 107.7888501  52.7379435
 142.5088273 108.3479310  53.3191365 156.0340835 114.8736211  55.9644605
 156.8558279 114.4716399  55.6827286 156.0303238 114.7704446  56.9160721
 143.9691771 107.8975551  50.1722801 143.1722935 108.0094246  50.6906296
 143.7417364 108.2362204  49.3063691 149.7997439 114.4220255  58.1205315
 149.8641871 114.8840662  58.9563487 149.0908363 113.7917620  58.2487625
 140.3014729 107.7861463  55.6454315 140.5522767 108.6708473  55.9111891
 140.8374277 107.6066064  54.8729407 149.5145457 116.0888362  47.9884296
 149.3791131 116.9339898  48.4169143 150.0555269 116.2907640  47.2250229
 146.0012796 102.1679942  64.6498651 145.6079742 101.6146141  65.3246295
 146.8178937 102.4790521  65.0405168 142.9674854 113.6063800  48.5612221
 143.4799375 114.4007050  48.7117785 143.6197567 112.9090091  48.4945822
 144.7769739 116.7229557  50.6434974 144.9536367 117.6447521  50.4555958
 145.5726572 116.4087976  51.0729354 148.9180757 103.5837821  62.2418907
 149.6590471 104.1844974  62.1623370 149.1498680 102.8415459  61.6836950
 144.0622095 108.7694188  60.5197137 143.9475610 107.8679446  60.8204236
 143.2066613 109.0157885  60.1681954 151.1413933 116.7111929  62.1184638
 150.6977787 115.9248307  61.8005542 151.8031147 116.8991079  61.4528528
 145.9001054 118.2407730  56.6445316 146.4508479 118.1124794  55.8722310
 145.0612530 118.5402619  56.2940209 153.2395171 116.9914729  60.1466039
 153.2213646 117.8123610  59.6546308 154.1615091 116.8668804  60.3716180
 149.6968225 114.5058858  60.9889547 150.2296562 113.7447146  60.7588855
 149.1682306 114.2132510  61.7313702 152.8637920  99.6118924  56.5183189
 152.5202190 100.5020566  56.4422300 153.2316883  99.4220582  55.6552774
 140.9323771 111.9352455  49.3371791 141.7698993 112.3449463  49.1205499
 141.1102038 110.9951897  49.3071985 152.8288203 109.6027535  45.0255624
 152.3134826 110.3732140  45.2644012 152.5565511 108.9292671  45.6488686
 150.4135314 104.4477236  50.0840863 149.5576910 104.0584086  49.9046501
 150.8262266 104.5269197  49.2240648 151.9434461 101.9823579  54.4832422
 151.4399256 101.9453714  53.6700228 152.2365067 102.8916322  54.5429079
 148.1877346 102.0662309  53.4898604 149.0530343 101.8705118  53.1304494
 148.2554855 101.8372661  54.4167961 157.8022477 112.3559890  46.9608798
 157.0251920 112.0171049  46.5163960 158.4813958 112.3612513  46.2863763
 152.6174506 107.4754627  46.8515405 152.3124642 107.7900776  47.7025549
 153.5704948 107.5536047  46.8942738 151.0620938 113.6344851  48.5008359
 150.5342299 112.8997610  48.1881597 150.5608441 114.4119527  48.2548328
 156.0413784 111.8293871  53.6175406 155.3837458 112.5193132  53.7055534
 156.8454183 112.2190303  53.9609392 145.7939666 104.2964517  50.8614971
 146.3683417 104.0739698  50.1288164 146.3810648 104.3653211  51.6143572
 154.8519243 110.1838244  51.6679347 155.3651124 110.8168236  52.1701057
 155.5020467 109.5839439  51.3022707 146.1209253 106.3268978  44.8810856
 145.2846565 106.6643664  45.2020131 145.9814022 106.1917958  43.9437993
 148.0962333 101.1705766  49.5890040 147.4426746 100.8554783  48.9646655
 148.0542807 100.5481506  50.3149863 149.2073538 111.4525061  41.5043332
 148.3000600 111.2214314  41.7034481 149.7044570 110.6562680  41.6917314
 152.1141617 120.1622568  44.4240019 151.4403316 120.4654265  45.0324976
 152.5007439 120.9651648  44.0745476 151.3300074 107.6587699  53.9137688
 150.4122635 107.8802646  53.7559376 151.7460217 107.7334010  53.0549395
 152.1135121 109.0579115  49.0440368 152.8606940 109.5700512  48.7347490
 152.3826711 108.7363168  49.9044762 150.3861772 111.5537656  46.0267322
 149.4772991 111.2696689  46.1239792 150.4156855 111.9736734  45.1670629
 155.6181039 115.1644245  49.7958490 155.1643366 114.3235155  49.8523681
 154.9875006 115.8005644  50.1333270 154.5613958 106.0936231  51.0259157
 153.8236715 105.5813617  51.3569400 154.8140732 105.6536613  50.2142434
 154.0613978 117.0020742  50.7308308 154.3536953 117.5625799  50.0120674
 154.5712599 117.2949303  51.4861467 154.6625586  98.8712483  51.6200927
 154.9684463  98.0109847  51.3326842 155.3878191  99.4630103  51.4199921
 140.9549942 109.2743170  50.0082525 140.7574342 108.6812531  49.2833591
 140.3996606 108.9695380  50.7258463 148.9346666 109.1666276  52.1277118
 148.9895275 108.2140113  52.0519594 148.1237868 109.3225715  52.6118416
 150.0837859 113.0946399  43.3655401 149.6457289 112.3782258  42.9061038
 150.8248300 113.3222514  42.8040492 146.8739025 107.7843336  49.8867497
 146.0606891 108.0837507  50.2932689 147.3698020 107.3899025  50.6041979
 149.0247603 117.7801093  51.8201761 148.9823782 118.0061939  50.8910293
 149.9410302 117.5464468  51.9687563 152.4713237 108.2485161  58.7182391
 152.8262625 108.4756634  59.5776856 153.1185368 108.5803537  58.0959646
 158.2010974 111.3703596  49.4231720 158.0628873 111.5605192  48.4952909
 157.8447193 112.1322979  49.8799771 146.3653100 105.3561692  55.5028732
 147.0052480 105.2150451  54.8051695 145.5330631 105.0696205  55.1267334
 158.2280354 113.4380123  54.4342991 158.6616860 113.3455413  55.2826045
 158.9411934 113.4137624  53.7963007 147.1413404 114.6564122  51.6163724
 147.9354003 114.1614442  51.4146299 146.4305097 114.1281985  51.2531430
 151.9608249 117.0382218  55.9676092 152.0145271 117.6073154  56.7353808
 151.0923030 117.2084103  55.6030129 143.4496168 108.8007204  47.6923477
 142.5193756 108.7391659  47.9093439 143.5453640 108.2783157  46.8960118
 143.3681717 105.3262017  50.2801718 143.6288534 106.2407350  50.1710879
 144.1898889 104.8586459  50.4298331 144.8406642 106.7399774  57.4500543
 145.5129695 106.5317136  56.8013192 144.0136429 106.5421860  57.0105775
 150.7432214 103.3661715  59.4666204 150.0960129 104.0651664  59.3730680
 151.5133229 103.7997859  59.8342452 154.1511012 113.6310567  62.5416757
 153.9996518 113.4021119  61.6246841 154.1415691 114.5881168  62.5548102
 150.9196348 111.2042480  57.5263024 151.8488408 111.3553639  57.3531991
 150.4987378 111.2926500  56.6711670 149.7184680 115.2293144  55.2961561
 149.5795766 114.8611928  56.1687499 148.9299276 115.7440783  55.1245519
 150.3132832 120.3302240  46.6387098 150.4884588 119.8590284  47.4532720
 149.6265620 120.9568007  46.8668358 151.2689895 114.6074747  52.6850399
 150.9339728 114.5675517  53.5808049 150.7693841 113.9419463  52.2120809
 145.2434139 110.0142377  58.2102980 145.1053937 109.2822616  58.8114519
 146.1539063 109.9251277  57.9287168 154.2049087 111.9530781  42.9587459
 153.5878258 111.2277609  42.8620511 153.7365575 112.7140141  42.6154533
 147.8716440 109.7262336  57.6986660 148.5816058 109.0855528  57.6573278
 147.8285748 109.9775231  58.6212841 155.8603219 116.6629689  60.6193239
 155.8015765 115.9788910  59.9523822 156.2622737 117.4048679  60.1673865
 146.5845374 106.7127554  59.5182299 146.0482731 106.2618292  60.1703896
 145.9962082 106.8473463  58.7752764 144.8793917 123.4791603  53.4126958
 145.1190516 124.1110127  54.0905976 144.0363114 123.1279643  53.6992317
 145.9947633 106.1716205  42.0808763 145.1177099 106.0505006  41.7171010
 146.4705386 105.3802284  41.8287652 155.8620626 114.6269273  58.8507219
 154.9747405 114.2895195  58.9733618 156.4319177 113.8952305  59.0875984
 137.5149773 110.9593365  52.1750270 138.2020813 110.6455095  51.5871285
 137.3597902 111.8634730  51.9017521 142.3184495 105.8483562  56.6035294
 142.2342684 105.2409231  55.8685704 141.4967202 106.3392580  56.6044790
 149.3921779 119.2870726  55.8168462 149.3191951 120.0925697  56.3287766
 148.9499172 119.4862692  54.9916483 149.1811559 118.5242496  49.3271283
 148.3979081 119.0664176  49.4209508 149.8804304 119.0416475  49.7265525
 152.4908209 104.3337125  51.9705489 152.9876909 103.5807088  51.6506559
 151.7195191 104.3701442  51.4048698 151.8520463 119.1857560  57.9726621
 152.5648435 119.8205025  57.9002522 151.3610491 119.2821426  57.1566622
 153.5737990 113.0908812  49.5443912 152.6394268 113.2110275  49.3748617
 153.7514658 112.1881279  49.2803922 149.0743178 106.4754508  51.6977173
 148.7040965 105.9225549  52.3858079 149.5702270 105.8712642  51.1452173
 156.9610541 108.9326132  50.0793946 157.4270993 109.7654123  50.0054249
 157.4118042 108.4671113  50.7839205 146.9032376 116.9352003  58.7932191
 147.6041836 117.5688486  58.9461586 146.4327491 117.2766735  58.0327831
 155.0286772 115.2769953  47.0780098 155.3046616 115.1626548  47.9873972
 154.1591271 114.8787438  47.0392271 154.9327204 101.3006719  54.1184848
 154.0190284 101.5310946  54.2867055 155.3620305 101.3845163  54.9698880
 154.7033662 109.4896611  56.6184742 154.0505113 109.7372518  55.9637194
 155.0814042 108.6760749  56.2847219 151.6640836 119.5256304  50.7212912
 151.8463231 118.7077960  51.1840664 152.4873822 119.7423996  50.2837802
 151.9983002 118.4524489  47.9827960 152.5270768 117.9416944  47.3698123
 152.2611221 118.1367019  48.8473494 150.7521235 110.2316422  63.1050779
 150.0761872 110.1310551  63.7753154 151.5748869 110.0755635  63.5686776
 142.5000094 116.4688358  55.7263294 143.0853531 115.7232046  55.8591198
 142.3024933 116.7792315  56.6099958 145.3538750 119.5039606  50.7425736
 144.6849125 119.9885733  50.2589776 145.2151619 119.7508826  51.6569115
 137.0917749 109.0393958  54.4467737 137.1301849 108.5057549  55.2404855
 136.5858042 108.5129164  53.8278714 149.4944018 121.5383349  57.3408395
 150.0462326 121.7014971  58.1057480 149.8350212 122.1287787  56.6688420
 144.4708511 103.8858499  57.9430279 144.5349838 104.7473330  57.5307677
 144.4075632 103.2732501  57.2102638 143.9460784 105.9581631  61.5903314
 144.5732823 105.5758709  62.2040838 143.0888703 105.7395833  61.9559006
 154.3454893 116.3644607  63.1957049 154.8894796 116.9774565  62.7012004
 153.7641737 116.9224185  63.7124062 140.7226327 107.7658061  47.5221669
 141.0179768 106.8568739  47.4688722 139.8214362 107.7445800  47.2002671
 152.6312405 119.4865325  54.3272077 152.5063545 118.6855065  53.8183022
 153.2891497 119.9811518  53.8386047 144.2520574 105.8414057  53.5049217
 143.5307159 106.4550025  53.3656690 145.0413829 106.3771822  53.4265863
 154.6947314 117.2874345  55.9551627 153.7477649 117.1679696  55.8829954
 155.0430087 116.3996843  56.0377888 147.0546887 103.1768484  59.7789869
 147.5781289 103.4230780  60.5416178 146.8359220 104.0088518  59.3593006
 142.4514168 105.4472158  47.6460994 142.1226874 104.5669537  47.4636100
 142.8053539 105.3919827  48.5337383 151.6993747 117.0827061  52.1555979
 151.5518710 116.1543768  52.3363549 152.5247241 117.1047152  51.6713055
 145.5655991 105.7345128  48.0136471 145.9052064 106.2631049  47.2915080
 146.0128112 106.0725534  48.7895038 155.3027869 117.9055620  53.2420852
 156.2274416 117.6998481  53.1045303 155.1343172 117.6572021  54.1510194
 148.2599432 104.1182179  57.4639539 147.9196253 103.3189992  57.8660219
 147.5538439 104.4183890  56.8916373 148.9115904 101.2031491  55.9166862
 149.7341973 100.7291969  55.7945753 149.1553968 101.9821975  56.4165549
 147.5524139 104.2319750  46.2129764 148.2732501 104.6101002  45.7093481
 146.9289443 104.9508626  46.3164742 151.6955261 104.9364899  47.1488097
 151.9118876 105.8189536  46.8476925 151.2149329 104.5451112  46.4193738
 146.4354483 107.8950612  53.7258841 146.2899064 108.2090915  54.6183123
 145.9579686 108.5135512  53.1729740 148.2950866 104.8853160  53.7739731
 148.2812434 103.9894253  53.4372029 149.0123294 104.8923824  54.4078017
 150.1476996 105.3190500  55.8192858 149.8894774 106.2407571  55.8177189
 149.6162037 104.9220935  56.5093322 155.0923185 118.4241287  48.5982943
 155.2660063 117.8587710  47.8456796 155.5852076 119.2242182  48.4162433
 140.9100145 110.4355956  56.6646502 140.3653613 111.2115764  56.7966777
 141.7879495 110.7826761  56.5065624 147.6987762 103.7667540  49.0427301
 147.8203673 102.8384186  49.2418188 147.4089804 103.7806226  48.1305616
 150.5678952 101.4522451  52.1794021 150.5900649 101.5161784  51.2246000
 150.9847011 100.6126959  52.3734527 156.0798358 117.7408052  45.6979842
 156.7749262 118.3614744  45.9167156 156.4221508 116.8903403  45.9732220
 141.6966167 109.5625853  59.5576659 140.9547903 109.7108488  60.1441290
 141.3758911 109.8234118  58.6943409 157.9789781 115.1907757  47.2267173
 158.5041105 115.5295030  46.5016493 157.8912133 114.2554772  47.0430307
 149.6409830 119.1041831  59.3557049 149.9496956 118.8590977  60.2279749
 150.4385312 119.3088469  58.8675919 149.6630442 121.2579740  51.5862426
 149.2235432 120.7656119  52.2795282 150.4138559 120.7152708  51.3454501
 142.1422781 117.4491281  51.5887054 142.9680800 117.1495053  51.2085697
 141.7916833 116.6798904  52.0376842 147.1104314 116.8017749  53.6584727
 146.4884323 116.1388454  53.3586955 147.7809181 116.8278881  52.9758375
 140.3431386 115.3677608  52.5475987 139.5063294 114.9399782  52.3659989
 140.3155031 115.5610051  53.4846779 147.1828841 105.2799537  63.2517233
 147.2316997 106.1561660  62.8695003 147.7251355 104.7376931  62.6788877
 157.6683687 115.8240661  62.5318370 156.8779231 115.8064800  61.9922870
 157.4317041 116.3628954  63.2867407 157.7881562 112.6733127  59.8451099
 157.8379567 112.5083135  60.7866622 157.6795485 111.8060386  59.4548980
 146.6717821 115.3521673  47.1343188 146.8205941 116.0357137  46.4809861
 147.4784264 115.3326763  47.6492644 155.0785324 108.6564055  61.1610406
 155.9795187 108.5170520  60.8694404 155.1533299 108.8218510  62.1008583
 149.4128130 106.0330910  60.0063592 148.5431439 106.3264476  59.7346181
 149.6487610 106.6171355  60.7270856 157.5386947 110.2162683  58.5573179
 158.0141069 110.4090330  57.7492030 156.6152512 110.2721869  58.3116562
 144.4270454 111.3786850  48.1404257 144.1816496 110.4749180  48.3384467
 144.5966368 111.3804001  47.1983735 152.1167163 102.2510527  57.5229012
 152.6349107 102.9871554  57.1975501 151.7622296 102.5574520  58.3575772
 143.6966101 107.1115208  45.6390418 143.0035346 107.1859563  44.9830454
 143.4517853 106.3475552  46.1611935 152.3679758  98.6710809  53.0429909
 152.6481511  98.0033998  53.6690336 153.1530365  98.8639905  52.5304573
 150.1713226 117.8469803  44.6054935 149.5987193 118.4659990  44.1525407
 150.7446020 118.3969165  45.1394857 156.2388616 107.0928443  56.7901484
 157.1906039 107.1926541  56.8113708 156.0692066 106.3006712  57.2999569
 154.2602995 104.1784027  56.9760885 153.6652928 104.4589039  56.2807374
 153.9752692 104.6677927  57.7477626 153.3910486 118.1306953  45.7363518
 154.3241159 118.0652515  45.9396393 153.3033699 118.9663220  45.2778050
 156.0198503 117.4472824  42.6967465 155.9412134 117.1132687  43.5903223
 156.8408169 117.9394592  42.6958938 150.5560025 109.1830616  41.9470988
 151.5019129 109.0536824  42.0159406 150.1774270 108.4445278  42.4240416
 156.5281909 100.8486622  51.9097880 156.3306730 100.5401710  52.7941212
 157.1381615 101.5748261  52.0395810 150.4398717 113.2348362  63.4071645
 151.3601727 113.4126961  63.6011691 150.4048300 112.2904407  63.2551344
 148.7402942 107.1080592  41.8825873 147.8334397 106.8113705  41.9588587
 149.0178923 106.8110410  41.0160159 139.6580882 108.4286956  52.3324919
 139.3383667 107.5752264  52.0399293 139.1114310 108.6435534  53.0882887
 143.4360790 111.1449397  56.0494426 143.6546799 112.0766505  56.0682460
 143.8486564 110.7857371  56.8349230 150.3565008 101.6517482  48.0370114
 149.5465736 101.3064567  48.4125360 151.0449424 101.3425026  48.6257726
 152.2855556 100.7295529  49.6594411 152.8386594 101.1490982  50.3184434
 152.5225642  99.8031277  49.7017367 148.3088655 106.7182603  65.4397175
 148.2085382 107.6676960  65.3709266 148.0910197 106.3900841  64.5673245
 147.5101726 103.9667528  42.0237852 148.3720890 104.2922426  42.2833670
 147.6952071 103.1799023  41.5110918 139.5269142 112.0489867  54.3018041
 138.8332614 111.6343820  53.7887995 140.2742133 112.0910404  53.7051460
 155.6634363 102.8396054  49.1673075 155.0833032 103.4980858  48.7851128
 155.3970296 102.0173399  48.7560493 154.1137929 102.2401112  51.3694396
 154.6137708 102.3517646  50.5608714 154.7573537 101.9362165  52.0095204
 148.1719925 110.1479741  64.2562237 147.6887007 110.9480101  64.4626126
 148.2580864 110.1587686  63.3029681 141.4405885 111.9808121  52.1784056
 141.4176573 112.0795808  51.2265939 141.7506521 112.8273272  52.5001222
 144.0993263 114.0384276  56.2930670 145.0536516 114.0068218  56.2260602
 143.9005786 113.5774900  57.1080896 144.6892645 112.6085392  58.8601468
 145.5085534 113.1029471  58.8836305 144.9629452 111.6917360  58.8319036
 154.4459241 104.9996144  48.2229424 153.5585096 105.2845795  48.0049618
 154.8613230 104.8389908  47.3756700 157.7973777 105.0242665  51.9383763
 158.5734167 105.5139118  52.2108380 157.0721911 105.4500720  52.3955632
 142.4543491 119.5803896  53.3100868 142.3197959 118.8204296  52.7438866
 142.0375554 120.3044795  52.8429657 153.5902454 114.7640819  42.3177444
 154.2938304 114.9690822  42.9335099 152.8665103 115.3317581  42.5826527
 154.4200265 110.5150680  48.4379714 154.3635466 110.9719232  47.5987346
 154.9728607 109.7541365  48.2602556 158.2305071 106.3040412  49.2629833
 157.9742005 105.9037048  50.0938041 157.6057939 107.0184206  49.1379972
 145.6112617 120.4773213  53.5219311 145.4945001 121.4218645  53.4198001
 144.7905064 120.1746774  53.9105110 155.4989152 115.2023348  44.3675904
 156.3334756 114.7704547  44.1853378 155.3373495 115.0305362  45.2952798
 155.1535044 111.7055462  45.7332243 155.0983848 111.5399733  44.7920687
 154.5281099 112.4131495  45.8894433 139.9427559 106.9423526  59.5593665
 140.5886423 106.4322480  60.0480890 139.7344710 107.6792208  60.1337090
 152.4680951 114.0104373  65.0585806 153.3372111 114.1845026  64.6972441
 151.9887703 114.8298790  64.9361535 148.4631169 101.2063571  45.3117561
 148.4509839 102.1505411  45.4685832 149.3554591 101.0233716  45.0177022
 146.6367131 121.1301474  56.7375239 147.5394378 121.1625085  57.0541734
 146.4104501 120.2001925  56.7521575 148.3920733 119.8832461  53.3985318
 147.4416364 119.8834323  53.2849690 148.6953220 119.1365196  52.8821353
 152.2783289  97.8006347  49.5663498 151.5115685  97.2464834  49.7120180
 152.6893994  97.8728216  50.4277650 144.2825050 104.0891143  63.6568679
 145.1456512 103.7327948  63.8672004 143.7090461 103.7505038  64.3444084
 156.7949949 127.5255904  50.3889496 156.2314814 127.4345841  49.6205784
 156.6802344 126.7055808  50.8691988 154.3414381 129.0207096  53.2273716
 155.1335673 128.6797920  52.8120016 154.5811031 129.1302071  54.1475870
 156.3005135 128.2816009  46.0991095 157.0736011 127.7344996  45.9603971
 156.6530534 129.1460258  46.3105557 158.1390177 129.6092391  59.3057995
 157.8480043 130.5138022  59.1904661 158.7747162 129.6508919  60.0202064
 158.6371413 124.4408675  43.7309545 158.8896933 123.9190196  42.9693008
 157.6995972 124.2774820  43.8336229 158.3567701 126.3436781  45.9333920
 158.2403959 125.6681684  46.6015004 158.4669961 125.8569155  45.1166073
 156.5492544 125.7467603  52.3344493 155.6243040 125.6143818  52.5422184
 156.7976957 126.5261823  52.8314435 153.9101355 125.3900877  53.1688282
 154.0393736 125.6435356  54.0827693 153.2298806 125.9828585  52.8492937
 157.0700641 128.0287666  54.0412389 157.6401999 128.4574935  53.4029873
 157.6608753 127.7470251  54.7396574 157.5625808 123.1951094  62.2873400
 156.9324469 123.8767375  62.5208797 157.4561896 123.0834175  61.3426538
 152.8570780 122.8622890  53.2139324 152.0669834 123.1180418  52.7379435
 153.3482028 123.6771228  53.3191365 154.8085526 123.2267469  50.1722801
 154.0116689 123.3386163  50.6906296 154.5811118 123.5654121  49.3063691
 151.1408483 123.1153380  55.6454315 151.3916522 124.0000390  55.9111891
 151.6768032 122.9357982  54.8729407 156.8406551 117.4971860  64.6498651
 156.4473496 116.9438058  65.3246295 157.6572691 117.8082438  65.0405168
 153.8068608 128.9355718  48.5612221 154.3193129 129.7298968  48.7117785
 154.4591321 128.2382008  48.4945822 155.6163493 132.0521474  50.6434974
 155.7930122 132.9739439  50.4555958 156.4120327 131.7379893  51.0729354
 154.9015850 124.0986106  60.5197137 154.7869365 123.1971363  60.8204236
 154.0460367 124.3449803  60.1681954 156.7394809 133.5699648  56.6445316
 157.2902234 133.4416711  55.8722310 155.9006285 133.8694537  56.2940209
 151.7717525 127.2644372  49.3371791 152.6092747 127.6741381  49.1205499
 151.9495793 126.3243814  49.3071985 156.6333420 119.6256435  50.8614971
 157.2077172 119.4031616  50.1288164 157.2204402 119.6945129  51.6143572
 156.9603007 121.6560896  44.8810856 156.1240319 121.9935582  45.2020131
 156.8207777 121.5209875  43.9437993 158.9356088 116.4997683  49.5890040
 158.2820500 116.1846701  48.9646655 158.8936562 115.8773424  50.3149863
 151.7943696 124.6035088  50.0082525 151.5968096 124.0104448  49.2833591
 151.2390360 124.2987298  50.7258463 157.7132780 123.1135254  49.8867497
 156.9000646 123.4129424  50.2932689 158.2091774 122.7190943  50.6041979
 157.2046855 120.6853609  55.5028732 157.8446234 120.5442368  54.8051695
 156.3724385 120.3988123  55.1267334 157.9807159 129.9856040  51.6163724
 158.7747757 129.4906360  51.4146299 157.2698851 129.4573903  51.2531430
 154.2889922 124.1299121  47.6923477 153.3587510 124.0683577  47.9093439
 154.3847394 123.6075074  46.8960118 154.2075471 120.6553934  50.2801718
 154.4682288 121.5699268  50.1710879 155.0292643 120.1878377  50.4298331
 155.6800396 122.0691691  57.4500543 156.3523450 121.8609054  56.8013192
 154.8530183 121.8713777  57.0105775 156.0827894 125.3434294  58.2102980
 155.9447692 124.6114533  58.8114519 156.9932817 125.2543195  57.9287168
 157.4239128 122.0419472  59.5182299 156.8876485 121.5910210  60.1703896
 156.8355837 122.1765380  58.7752764 156.8341387 121.5008123  42.0808763
 155.9570854 121.3796924  41.7171010 157.3099140 120.7094201  41.8287652
 148.3543527 126.2885283  52.1750270 149.0414567 125.9747013  51.5871285
 148.1991656 127.1926647  51.9017521 153.1578250 121.1775479  56.6035294
 153.0736438 120.5701149  55.8685704 152.3360956 121.6684498  56.6044790
 157.7426131 132.2643921  58.7932191 158.4435590 132.8980404  58.9461586
 157.2721246 132.6058652  58.0327831 153.3393849 131.7980276  55.7263294
 153.9247286 131.0523964  55.8591198 153.1418687 132.1084233  56.6099958
 156.1932504 134.8331523  50.7425736 155.5242879 135.3177651  50.2589776
 156.0545374 135.0800744  51.6569115 147.9311504 124.3685876  54.4467737
 147.9695603 123.8349467  55.2404855 147.4251796 123.8421082  53.8278714
 155.3102266 119.2150417  57.9430279 155.3743592 120.0765248  57.5307677
 155.2469386 118.6024418  57.2102638 154.7854538 121.2873549  61.5903314
 155.4126577 120.9050626  62.2040838 153.9282457 121.0687751  61.9559006
 151.5620081 123.0949978  47.5221669 151.8573522 122.1860657  47.4688722
 150.6608117 123.0737718  47.2002671 155.0914328 121.1705975  53.5049217
 154.3700914 121.7841943  53.3656690 155.8807584 121.7063740  53.4265863
 157.8940642 118.5060401  59.7789869 158.4175044 118.7522698  60.5416178
 157.6752975 119.3380436  59.3593006 153.2907923 120.7764076  47.6460994
 152.9620629 119.8961455  47.4636100 153.6447293 120.7211745  48.5337383
 156.4049746 121.0637046  48.0136471 156.7445818 121.5922967  47.2915080
 156.8521866 121.4017452  48.7895038 159.0993187 119.4474096  57.4639539
 158.7590007 118.6481910  57.8660219 158.3932193 119.7475807  56.8916373
 158.3917893 119.5611667  46.2129764 159.1126256 119.9392920  45.7093481
 157.7683197 120.2800544  46.3164742 157.2748237 123.2242530  53.7258841
 157.1292818 123.5382833  54.6183123 156.7973441 123.8427430  53.1729740
 151.7493899 125.7647874  56.6646502 151.2047368 126.5407682  56.7966777
 152.6273249 126.1118678  56.5065624 158.5381516 119.0959458  49.0427301
 158.6597427 118.1676104  49.2418188 158.2483559 119.1098144  48.1305616
 152.5359921 124.8917770  59.5576659 151.7941657 125.0400406  60.1441290
 152.2152666 125.1526036  58.6943409 152.9816535 132.7783199  51.5887054
 153.8074555 132.4786971  51.2085697 152.6310587 132.0090821  52.0376842
 157.9498068 132.1309667  53.6584727 157.3278077 131.4680372  53.3586955
 158.6202935 132.1570799  52.9758375 151.1825140 130.6969525  52.5475987
 150.3457048 130.2691700  52.3659989 151.1548786 130.8901969  53.4846779
 158.0222596 120.6091455  63.2517233 158.0710751 121.4853578  62.8695003
 158.5645110 120.0668848  62.6788877 157.5111575 130.6813590  47.1343188
 157.6599695 131.3649055  46.4809861 158.3178019 130.6618681  47.6492644
 155.2664208 126.7078768  48.1404257 155.0210250 125.8041098  48.3384467
 155.4360123 126.7095919  47.1983735 154.5359856 122.4407126  45.6390418
 153.8429101 122.5151481  44.9830454 154.2911608 121.6767469  46.1611935
 150.4974637 123.7578873  52.3324919 150.1777421 122.9044182  52.0399293
 149.9508065 123.9727452  53.0882887 154.2754544 126.4741314  56.0494426
 154.4940554 127.4058422  56.0682460 154.6880318 126.1149289  56.8349230
 159.1482410 122.0474520  65.4397175 159.0479136 122.9968877  65.3709266
 158.9303952 121.7192759  64.5673245 158.3495481 119.2959445  42.0237852
 159.2114645 119.6214344  42.2833670 158.5345825 118.5090941  41.5110918
 150.3662897 127.3781785  54.3018041 149.6726368 126.9635738  53.7887995
 151.1135888 127.4202321  53.7051460 159.0113680 125.4771659  64.2562237
 158.5280761 126.2772019  64.4626126 159.0974619 125.4879604  63.3029681
 152.2799639 127.3100039  52.1784056 152.2570327 127.4087726  51.2265939
 152.5900276 128.1565190  52.5001222 154.9387017 129.3676194  56.2930670
 155.8930271 129.3360136  56.2260602 154.7399541 128.9066818  57.1080896
 155.5286399 127.9377310  58.8601468 156.3479288 128.4321388  58.8836305
 155.8023207 127.0209278  58.8319036 153.2937246 134.9095813  53.3100868
 153.1591714 134.1496214  52.7438866 152.8769308 135.6336713  52.8429657
 156.4506372 135.8065130  53.5219311 156.3338756 136.7510563  53.4198001
 155.6298818 135.5038692  53.9105110 150.7821313 122.2715444  59.5593665
 151.4280177 121.7614398  60.0480890 150.5738465 123.0084125  60.1337090
 157.4760886 136.4593392  56.7375239 158.3788133 136.4917002  57.0541734
 157.2498256 135.5293843  56.7521575 155.1218804 119.4183061  63.6568679
 155.9850266 119.0619866  63.8672004 154.5484215 119.0796956  64.3444084
  69.0037637  -6.8189698  40.1372265  69.2434235  -6.1871174  40.8151283
  68.1606834  -7.1701658  40.4237624  80.9193669  -2.7725397  37.1134803
  80.3558534  -2.8635460  36.3451090  80.8046064  -3.5925493  37.5937295
  78.4658101  -1.2774206  39.9519023  79.2579393  -1.6183381  39.5365322
  78.7054751  -1.1679231  40.8721176  86.4993227   0.8945571  32.4249268
  85.8481207   1.4799651  32.0383281  87.2937590   1.4251765  32.4844305
  80.4248855  -2.0165292  32.8236402  81.1979731  -2.5636305  32.6849278
  80.7774253  -1.1521043  33.0350863  82.2633897  -0.6888910  46.0303301
  81.9723763   0.2156721  45.9149967  82.8990881  -0.6472382  46.7447371
  87.9768493  -1.4163998  32.9618252  87.3414326  -1.3429371  33.6739156
  87.6465899  -0.8270399  32.2837331  87.2223782  -1.0027495  43.0253095
  86.9224505  -0.1002456  42.9168902  86.8774842  -1.2695311  43.8774248
  78.0345075  -4.9080424  39.8933588  78.1637456  -4.6545945  40.8073000
  77.3542526  -4.3152716  39.5738243  82.2044562   5.7616826  35.9924063
  82.1268592   6.7124651  36.0712543  81.6006206   5.4162698  36.6498989
  84.3020280  -1.8165116  37.8277932  84.7658626  -1.5377413  37.0382554
  84.0377078  -2.7181672  37.6451023  81.1944361  -2.2693635  40.7657695
  81.7645718  -1.8406366  40.1275180  81.7852473  -2.5511050  41.4641881
  84.7634913  -0.5469129  44.8450622  84.8279346  -0.0848722  45.6808794
  84.0545837  -1.1771764  44.9732932  84.4782931   1.1198979  34.7129602
  84.3428606   1.9650514  35.1414450  85.0192743   1.3218256  33.9495536
  77.9312328  -1.3625583  35.2857527  78.4436849  -0.5682333  35.4363092
  78.5835041  -2.0599293  35.2191129  79.7407213   1.7540173  37.3680281
  79.9173841   2.6758138  37.1801264  80.5364047   1.4398592  37.7974660
  86.1051407   1.7422545  48.8429944  85.6615261   0.9558924  48.5250849
  86.7668621   1.9301696  48.1773835  80.8638528   3.2718347  43.3690623
  81.4145954   3.1435410  42.5967617  80.0250004   3.5713236  43.0185516
  88.2032645   2.0225345  46.8711346  88.1851121   2.8434226  46.3791615
  89.1252565   1.8979420  47.0961487  84.6605700  -0.4630525  47.7134854
  85.1934036  -1.2242237  47.4834162  84.1319781  -0.7556874  48.4559008
  75.8961245  -3.0336929  36.0617098  76.7336467  -2.6239921  35.8450806
  76.0739513  -3.9737487  36.0317292  86.0258412  -1.3344533  35.2253666
  85.4979774  -2.0691773  34.9126903  85.5245915  -0.5569857  34.9793634
  87.0779091   5.1933185  31.1485325  86.4040790   5.4964881  31.7570283
  87.4644913   5.9962265  30.7990782  90.5818513   0.1954862  36.5203797
  90.1280840  -0.6454228  36.5768987  89.9512480   0.8316260  36.8578577
  89.0251452   2.0331358  37.4553615  89.3174427   2.5936416  36.7365980
  89.5350073   2.3259919  38.2106774  85.0475334  -1.8742984  30.0900708
  84.6094764  -2.5907125  29.6306345  85.7885775  -1.6466869  29.5285799
  83.9885078   2.8111710  38.5447068  83.9461256   3.0372556  37.6155600
  84.9047777   2.5775084  38.6932869  82.1050878  -0.3125261  38.3409031
  82.8991477  -0.8074941  38.1391606  81.3942571  -0.8407398  37.9776736
  86.9245723   2.0692834  42.6921398  86.9782745   2.6383770  43.4599114
  86.0560504   2.2394719  42.3275436  84.6822154   0.2603761  42.0206868
  84.5433240  -0.1077455  42.8932806  83.8936751   0.7751400  41.8490826
  85.2770306   5.3612857  33.3632404  85.4522062   4.8900900  34.1778027
  84.5903094   5.9878623  33.5913665  86.2327370  -0.3614637  39.4095706
  85.8977202  -0.4013867  40.3053356  85.7331315  -1.0269921  38.9366116
  90.8240693   1.6940306  47.3438546  90.7653239   1.0099526  46.6769129
  91.2260211   2.4359296  46.8919172  79.8431392   8.5102220  40.1372265
  80.0827990   9.1420744  40.8151283  79.0000588   8.1590260  40.4237624
  72.4787247  -4.0096018  38.8995577  73.1658287  -4.3234288  38.3116592
  72.3235376  -3.1054654  38.6262828  84.3559254   4.3181342  42.5413769
  84.2829425   5.1236314  43.0533073  83.9136647   4.5173308  41.7161790
  84.1449033   3.5553112  36.0516590  83.3616555   4.0974792  36.1454815
  84.8441778   4.0727092  36.4510831  86.8157937   4.2168176  44.6971927
  87.5285909   4.8515641  44.6247829  86.3247966   4.3132042  43.8811929
  81.8669851   1.9662620  45.5177498  82.5679310   2.5999103  45.6706892
  81.3964966   2.3077351  44.7573137  89.9924246   0.3080570  33.8025405
  90.2684090   0.1937164  34.7119279  89.1228745  -0.0901946  33.7637578
  86.6278310   4.5566920  37.4458219  86.8100705   3.7388576  37.9085971
  87.4511296   4.7734613  37.0083109  86.9620476   3.4835105  34.7073267
  87.4908242   2.9727560  34.0943429  87.2248696   3.1677636  35.5718800
  77.4637569   1.4998975  42.4508601  78.0491006   0.7542663  42.5836505
  77.2662407   1.8102931  43.3345265  80.3176224   4.5350222  37.4671043
  79.6486599   5.0196350  36.9835083  80.1789094   4.7819443  38.3814422
  72.0555223  -5.9295425  41.1713044  72.0939323  -6.4631834  41.9650162
  71.5495516  -6.4560220  40.5524021  84.4581493   6.5693966  44.0653701
  85.0099801   6.7325587  44.8302787  84.7987686   7.1598404  43.3933726
  89.3092367   1.3955223  49.9202356  89.8532271   2.0085181  49.4257311
  88.7279212   1.9534802  50.4369369  87.5949880   4.5175941  41.0517384
  87.4701019   3.7165681  40.5428329  88.2528971   5.0122135  40.5631354
  89.6584788   2.3184961  42.6796934  88.7115124   2.1990312  42.6075260
  90.0067561   1.4307459  42.7623195  86.6631221   2.1137678  38.8801286
  86.5156184   1.1854385  39.0608856  87.4884715   2.1357768  38.3958361
  90.2665343   2.9366236  39.9666159  91.1911891   2.7309098  39.8290610
  90.0980647   2.6882637  40.8755500  90.0560660   3.4551904  35.3228250
  90.2297537   2.8898326  34.5702103  90.5489551   4.2552799  35.1407740
  75.8737619  -4.5333427  43.3891809  75.3291087  -3.7573619  43.5212083
  76.7516969  -4.1862623  43.2310930  91.0435832   2.7718668  32.4225148
  91.7386737   3.3925361  32.6412463  91.3858982   1.9214019  32.6977526
  76.6603641  -5.4063531  46.2821966  75.9185377  -5.2580896  46.8686596
  76.3396385  -5.1455265  45.4188715  84.6047304   4.1352447  46.0802356
  84.9134430   3.8901594  46.9525055  85.4022786   4.3399086  45.5921226
  84.6267916   6.2890357  38.3107732  84.1872906   5.7966736  39.0040589
  85.3776033   5.7463325  38.0699808  77.1060255   2.4801898  38.3132360
  77.9318275   2.1805670  37.9331004  76.7554307   1.7109520  38.7622149
  82.0741788   1.8328366  40.3830034  81.4521797   1.1699071  40.0832262
  82.7446655   1.8589498  39.7003682  75.3068860   0.3988224  39.2721294
  74.4700768  -0.0289601  39.0905295  75.2792505   0.5920668  40.2092085
  92.6321161   0.8551277  49.2563677  91.8416705   0.8375416  48.7168177
  92.3954516   1.3939571  50.0112714  81.6355295   0.3832289  33.8588495
  81.7843415   1.0667754  33.2055167  82.4421738   0.3637379  34.3737950
  79.3907928  -3.5902533  34.8649563  79.1453970  -4.4940203  35.0629774
  79.5603842  -3.5885383  33.9229041  85.1350700   2.8780420  31.3300242
  84.5624668   3.4970607  30.8770714  85.7083494   3.4279781  31.8640164
  88.3547960   3.1617570  32.4608824  89.2878633   3.0963132  32.6641700
  88.2671173   3.9973837  32.0023357  90.9835977   2.4783440  29.4212772
  90.9049608   2.1443304  30.3148530  91.8045644   2.9705208  29.4204244
  78.3998264  -3.8239987  42.7739733  78.6184274  -2.8922879  42.7927766
  78.8124038  -4.1832012  43.5594536  74.4906616  -2.9199516  41.0263348
  73.7970088  -3.3345563  40.5133302  75.2379607  -2.8778980  40.4296767
  76.4043359  -2.9881262  38.9029363  76.3814047  -2.8893575  37.9511246
  76.7143996  -2.1416112  39.2246529  79.0630737  -0.9305107  43.0175977
  80.0173990  -0.9621165  42.9505909  78.8643260  -1.3914484  43.8326203
  79.6530119  -2.3603991  45.5846775  80.4723008  -1.8659913  45.6081612
  79.9266927  -3.2772023  45.5564342  77.4180966   4.6114512  40.0346175
  77.2835434   3.8514913  39.4684173  77.0013028   5.3355412  39.5674964
  88.5539929  -0.2048564  29.0422750  89.2575779   0.0001438  29.6580406
  87.8302577   0.3628198  29.3071834  80.5750092   5.5083829  40.2464618
  80.4582476   6.4529262  40.1443308  79.7542538   5.2057391  40.6350417
  90.4626626   0.2333965  31.0921210  91.2972230  -0.1984837  30.9098685
  90.3010969   0.0615979  32.0198105  87.4318425  -0.9585010  51.7831112
  88.3009585  -0.7844358  51.4217747  86.9525177  -0.1390593  51.6606842
  81.6004606   6.1612091  43.4620546  82.5031852   6.1935701  43.7787041
  81.3741976   5.2312542  43.4766882  83.3558208   4.9143078  40.1230625
  82.4053839   4.9144939  40.0094997  83.6590694   4.1675812  39.6066659
  99.0910901  10.7503616  41.1876387  99.7289311  10.6310363  40.4839727
  98.9731744  11.6984460  41.2464339  95.9000607  10.7031044  41.1237912
  95.5619119  10.5872109  40.2358447  96.7690376  10.3022209  41.1038918
  91.7587423  12.5566520  37.1134803  91.1952288  12.4656457  36.3451090
  91.6439818  11.7366425  37.5937295  96.3820390  11.8565896  47.0824117
  96.3709031  11.4618694  46.2104621  96.5441030  11.1231968  47.6757889
  89.3051855  14.0517712  39.9519023  90.0973147  13.7108537  39.5365322
  89.5448505  14.1612687  40.8721176  97.3386982  16.2237488  32.4249268
  96.6874962  16.8091569  32.0383281  98.1331345  16.7543683  32.4844305
  91.2642609  13.3126625  32.8236402  92.0373485  12.7655612  32.6849278
  91.6168008  14.1770875  33.0350863  93.1027652  14.6403008  46.0303301
  92.8117518  15.5448638  45.9149967  93.7384636  14.6819535  46.7447371
  94.0283858  12.0179856  42.6204661  94.6247431  11.7935879  41.9061624
  94.0858830  11.2764602  43.2230109  93.6008887   9.4719291  30.4554852
  93.8534408   8.9500813  29.6938315  92.6633446   9.3085437  30.5581535
  98.6452170   8.4755070  38.2629595  99.4315259   8.0574493  37.9120012
  98.9090874   9.3801162  38.4311243  98.8162247  13.9127920  32.9618252
  98.1808080  13.9862547  33.6739156  98.4859653  14.5021519  32.2837331
 104.0460597   8.4130303  39.1662574 104.7785769   7.8429520  39.4000403
 103.2899953   8.0251903  39.6069079  93.3205176  11.3747397  32.6579227
  93.2041434  10.6992301  33.3260311  93.4307435  10.8879771  31.8411380
  95.6636717  10.8357545  36.3625916  95.2994924  10.3088165  37.0738837
  96.5203832  10.4456014  36.1892401  95.3042204   5.8647444  31.3587264
  95.4716606   6.7327681  31.7257736  95.1139373   6.0274726  30.4348554
  98.0617537  14.3264423  43.0253095  97.7618260  15.2289462  42.9168902
  97.7168596  14.0596606  43.8774248  91.5130018  10.7778220  39.0589799
  90.5880515  10.6454434  39.2667491  91.7614431  11.5572439  39.5559742
 101.4614680   6.8446963  40.7050532 100.5531558   6.7762372  40.4109293
 101.4102276   7.3218908  41.5332358  95.2831424   8.3205102  32.3433931
  95.1631050   8.7662152  33.1819412  94.5884013   8.6690419  31.7847469
  88.8738829  10.4211494  39.8933588  89.0031210  10.6745972  40.8073000
  88.1936281  11.0139202  39.5738243  93.0438316  21.0908743  35.9924063
  92.9662346  22.0416569  36.0712543  92.4399960  20.7454616  36.6498989
  95.5355546   8.2636609  48.6485429  94.7588880   8.8230529  48.6388294
  96.1746109   8.7493392  49.1700300 103.3276327   5.0463402  42.4828406
 102.6850707   5.3395935  41.8368201 102.8231255   4.9316322  43.2881603
 100.9816491   8.7926575  33.1714265 101.8934347   9.0253962  32.9961963
 100.4726138   9.3763619  32.6089344  93.7901919  11.0722062  48.2103396
  94.5316603  11.6107106  47.9338220  93.0838904  11.6988351  48.3674948
  99.2657258  13.2151203  46.8075558  99.6740614  12.7733613  46.0630190
  98.5434520  12.6403830  47.0609751  95.6188328   8.1523809  44.1809115
  96.4649523   8.5763223  44.3243764  95.5586966   7.4957434  44.8747678
  99.5886073  13.7752393  40.5627847  98.9594935  13.9398107  39.8603915
  99.2011735  14.1894003  41.3338811 103.4675305  14.7106831  37.9172211
 102.7826343  15.0905733  37.3669244 103.5519154  15.3202158  38.6504158
  98.7687774   5.8128178  45.8390289  98.5248705   6.5670238  45.3024564
  99.0447704   6.1913525  46.6737536 100.7226236  12.3566790  44.5167554
 100.9343132  12.9998550  43.8401935 100.6755985  11.5229107  44.0489484
  98.3252465   4.9684611  41.4204126  97.4636944   5.2665864  41.7120864
  98.3514900   5.1855010  40.4885159  95.1414035  13.5126801  37.8277932
  95.6052380  13.7914504  37.0382554  94.8770833  12.6110246  37.6451023
  92.0338116  13.0598283  40.7657695  92.6039473  13.4885551  40.1275180
  92.6246228  12.7780868  41.4641881  94.0782921   9.6349954  34.6367497
  94.7806964  10.0870997  35.1041423  93.7463549   8.9933773  35.2647390
  92.5263282   8.2261710  49.0118706  91.8961943   8.9077991  49.2454103
  92.4199370   8.1144792  48.0671845  87.8208255   7.8933506  39.9384631
  87.0307309   8.1491035  39.4624741  88.3119502   8.7081844  40.0436671
 101.8372064  15.2338746  42.6889911 102.6589508  14.8318933  42.4072593
 101.8334467  15.1306980  43.6406027  89.7723000   8.2578086  36.8968107
  88.9754163   8.3696780  37.4151603  89.5448592   8.5964738  36.0308998
  95.6028668  14.7822789  44.8450622  95.6673100  15.2443196  45.6808794
  94.8939592  14.1520154  44.9732932  86.1045958   8.1463997  42.3699621
  86.3553996   9.0311007  42.6357197  86.6405506   7.9668598  41.5974713
 109.9278057  11.5777494  39.0374883 109.1741766  11.0084892  38.8818887
 110.0625599  11.5440159  39.9845518  95.3176685  16.4490896  34.7129602
  95.1822360  17.2942432  35.1414450  95.8586498  16.6510174  33.9495536
  91.8044025   2.5282476  51.3743957  91.4110971   1.9748675  52.0491602
  92.6210165   2.8393055  51.7650475  88.7706083  13.9666334  35.2857527
  89.2830603  14.7609585  35.4363092  89.4228796  13.2692625  35.2191129
  90.5800967  17.0832091  37.3680281  90.7567596  18.0050055  37.1801264
  91.3757801  16.7690510  37.7974660  94.7211986   3.9440355  48.9664214
  95.4621699   4.5447508  48.8868677  94.9529909   3.2017993  48.4082257
  89.8653324   9.1296723  47.2442444  89.7506839   8.2281980  47.5449543
  89.0097842   9.3760419  46.8927260  96.9445162  17.0714463  48.8429944
  96.5009016  16.2850841  48.5250849  97.6062375  17.2593613  48.1773835
  91.7032283  18.6010265  43.3690623  92.2539708  18.4727328  42.5967617
  90.8643759  18.9005154  43.0185516  99.0426400  17.3517263  46.8711346
  99.0244875  18.1726144  46.3791615  99.9646320  17.2271338  47.0961487
  95.4999454  14.8661392  47.7134854  96.0327791  14.1049681  47.4834162
  94.9713535  14.5735044  48.4559008  86.7355000  12.2954989  36.0617098
  87.5730222  12.7051997  35.8450806  86.9133267  11.3554431  36.0317292
  98.6319432   9.9630069  31.7500931  98.1166055  10.7334674  31.9889318
  98.3596740   9.2895206  32.3733992  96.2166543   4.8079770  36.8086169
  95.3608139   4.4186621  36.6291808  96.6293494   4.8871731  35.9485955
  97.7465689   2.3426113  41.2077729  97.2430485   2.3056249  40.3945534
  98.0396296   3.2518856  41.2674386  93.9908575   2.4264843  40.2143911
  94.8561572   2.2307652  39.8549800  94.0586084   2.1975195  41.1413267
 103.6053706  12.7162424  33.6854104 102.8283149  12.3773584  33.2409266
 104.2845187  12.7215047  33.0109069  98.4205735   7.8357162  33.5760712
  98.1155870   8.1503311  34.4270855  99.3736177   7.9138581  33.6188045
  96.8652167  13.9947385  35.2253666  96.3373528  13.2600144  34.9126903
  96.3639669  14.7722061  34.9793634 101.8445013  12.1896405  40.3420712
 101.1868687  12.8795667  40.4300841 102.6485412  12.5792837  40.6854699
  91.5970894   4.6567051  37.5860278  92.1714646   4.4342233  36.8533470
  92.1841877   4.7255746  38.3388879 100.6550472  10.5440778  38.3924654
 101.1682353  11.1770770  38.8946364 101.3051695   9.9441974  38.0268014
  91.9240481   6.6871512  31.6056163  91.0877794   7.0246199  31.9265438
  91.7845251   6.5520492  30.6683300  93.8993562   1.5308300  36.3135347
  93.2457974   1.2157317  35.6891962  93.8574036   0.9084040  37.0395170
  95.0104767  11.8127595  28.2288639  94.1031829  11.5816849  28.4279788
  95.5075799  11.0165214  28.4162621  97.9172846  20.5225102  31.1485325
  97.2434545  20.8256799  31.7570283  98.3038668  21.3254183  30.7990782
  97.1331302   8.0190234  40.6382995  96.2153864   8.2405181  40.4804683
  97.5491446   8.0936544  39.7794702  97.9166350   9.4181649  35.7685675
  98.6638169   9.9303046  35.4592797  98.1857940   9.0965702  36.6290068
  96.1893000  11.9140190  32.7512629  95.2804220  11.6299223  32.8485099
  96.2188084  12.3339269  31.8915936 101.4212268  15.5246779  36.5203797
 100.9674595  14.6837689  36.5768987 100.7906234  16.1608178  36.8578577
 100.3645187   6.4538765  37.7504464  99.6267944   5.9416152  38.0814707
 100.6171961   6.0139147  36.9387741  99.8645207  17.3623276  37.4553615
 100.1568181  17.9228333  36.7365980 100.3743828  17.6551837  38.2106774
  86.7581171   9.6345704  36.7327831  86.5605571   9.0415065  36.0078898
  86.2027835   9.3297914  37.4503770  94.7377894   9.5268811  38.8522424
  94.7926504   8.5742647  38.7764901  93.9269096   9.6828250  39.3363723
  95.8869088  13.4548934  30.0900708  95.4488518  12.7384793  29.6306345
  96.6279529  13.6825048  29.5285799  92.6770254   8.1445870  36.6112803
  91.8638120   8.4440041  37.0177995  93.1729248   7.7501559  37.3287286
  94.8278832  18.1403627  38.5447068  94.7855011  18.3664474  37.6155600
  95.7441531  17.9067002  38.6932869  98.2744466   8.6087695  45.4427697
  98.6293854   8.8359168  46.3022163  98.9216597   8.9406072  44.8204953
 104.0042203  11.7306131  36.1477026 103.8660102  11.9207727  35.2198215
 103.6478422  12.4925513  36.6045077  92.1684329   5.7164226  42.2274038
  92.8083708   5.5752985  41.5297002  91.3361860   5.4298739  41.8512640
 104.0311583  13.7982658  41.1588298 104.4648089  13.7057947  42.0071352
 104.7443163  13.7740158  40.5208314  92.9444633  15.0166656  38.3409031
  93.7385231  14.5216976  38.1391606  92.2336325  14.4884519  37.9776736
  97.7639477  17.3984752  42.6921398  97.8176500  17.9675688  43.4599114
  96.8954259  17.5686637  42.3275436  89.2527396   9.1609738  34.4168783
  88.3224985   9.0994193  34.6338746  89.3484868   8.6385691  33.6205425
  89.1712945   5.6864551  37.0047025  89.4319763   6.6009884  36.8956186
  89.9930118   5.2188993  37.1543638  90.6437871   7.1002308  44.1745850
  91.3160924   6.8919670  43.5258499  89.8167657   6.9024394  43.7351082
 104.8927132  13.8406358  43.6921183 105.0863022  14.7452169  43.9380458
 104.7927750  13.3813777  44.5259768  96.5463443   3.7264249  46.1911511
  95.8991358   4.4254199  46.0975987  97.3164458   4.1600393  46.5587759
  99.9542241  13.9913101  49.2662064  99.8027747  13.7623653  48.3492147
  99.9446920  14.9483702  49.2793409  96.7227577  11.5645014  44.2508330
  97.6519637  11.7156173  44.0777298  96.3018607  11.6529035  43.3956977
  95.5215909  15.5895678  42.0206868  95.3826995  15.2214463  42.8932806
  94.7330505  16.1043318  41.8490826  96.1164061  20.6904775  33.3632404
  96.2915817  20.2192818  34.1778027  95.4296849  21.3170541  33.5913665
  97.0721124  14.9677281  39.4095706  96.7370957  14.9278051  40.3053356
  96.5725070  14.3021997  38.9366116  91.0465368  10.3744911  44.9348287
  90.9085166   9.6425150  45.5359826  91.9570292  10.2853811  44.6532475
 100.0080316  12.3133315  29.6832765  99.3909486  11.5880143  29.5865818
  99.5396804  13.0742676  29.3399840  93.6747669  10.0864870  44.4231966
  94.3847287   9.4458062  44.3818585  93.6316977  10.3377765  45.3458147
 101.6634447  17.0232224  47.3438546 101.6046994  16.3391444  46.6769129
 102.0653966  17.7651214  46.8919172  92.3876603   7.0730088  46.2427606
  91.8513960   6.6220827  46.8949202  91.7993311   7.2075997  45.4998070
  90.6825146  23.8394137  40.1372265  90.9221744  24.4712662  40.8151283
  89.8394343  23.4882177  40.4237624  91.7978862   6.5318740  28.8054070
  90.9208328   6.4107540  28.4416316  92.2736615   5.7404818  28.5532958
 101.6651855  14.9871808  45.5752525 100.7778633  14.6497729  45.6978924
 102.2350406  14.2554839  45.8121291  83.3181002  11.3195899  38.8995577
  84.0052042  11.0057629  38.3116592  83.1629130  12.2237264  38.6262828
  88.1215724   6.2086096  43.3280600  88.0373913   5.6011765  42.5931010
  87.2998430   6.6995114  43.3290097  95.1953008  19.6473260  42.5413769
  95.1223180  20.4528231  43.0533073  94.7530401  19.8465226  41.7161790
  94.9842788  18.8845030  36.0516590  94.2010310  19.4266710  36.1454815
  95.6835533  19.4019010  36.4510831  98.2939438   4.6939659  38.6950795
  98.7908137   3.9409622  38.3751866  97.5226419   4.7303976  38.1294005
 106.1469195  10.3980025  40.3369087 106.1359071  11.2804740  39.9663020
 105.2786575  10.0451576  40.1423624  97.6551692  19.5460094  44.6971927
  98.3679664  20.1807559  44.6247829  97.1641720  19.6423960  43.8811929
  99.3769218  13.4511347  36.2689219  98.4425497  13.5712809  36.0993923
  99.5545887  12.5483813  36.0049229  94.8774407   6.8357042  38.4222480
  94.5072194   6.2828083  39.1103386  95.3733499   6.2315176  37.8697480
 102.7641770   9.2928666  36.8039253 103.2302222  10.1256657  36.7299556
 103.2149270   8.8273647  37.5084511  92.7063605  17.2954537  45.5177498
  93.4073065  17.9291020  45.6706892  92.2358720  17.6369269  44.7573137
 100.8318001  15.6372487  33.8025405 101.1077845  15.5229082  34.7119279
  99.9622500  15.2389972  33.7637578 100.5064891   9.8499145  43.3430048
  99.8536341  10.0975052  42.6882501 100.8845271   9.0363283  43.0092526
  97.4672065  19.8858838  37.4458219  97.6494459  19.0680494  37.9085971
  98.2905051  20.1026530  37.0083109  97.8014230  18.8127023  34.7073267
  98.3301997  18.3019478  34.0943429  98.0642450  18.4969553  35.5718800
  96.5552464  10.5918956  49.8296085  95.8793101  10.4913085  50.4998461
  97.3780098  10.4358170  50.2932083  88.3031323  16.8290892  42.4508601
  88.8884760  16.0834580  42.5836505  88.1056162  17.1394849  43.3345265
  91.1569978  19.8642140  37.4671043  90.4880354  20.3488267  36.9835083
  91.0182848  20.1111360  38.3814422  82.8948978   9.3996493  41.1713044
  82.9333077   8.8660083  41.9650162  82.3889271   8.8731698  40.5524021
  95.2975247  21.8985883  44.0653701  95.8493555  22.0617505  44.8302787
  95.6381440  22.4890321  43.3933726  90.2739740   4.2461033  44.6675586
  90.3381067   5.1075864  44.2552984  90.2106860   3.6335035  43.9347945
  89.7492013   6.3184166  48.3148620  90.3764052   5.9361243  48.9286145
  88.8919932   6.0998368  48.6804313 100.1486121  16.7247141  49.9202356
 100.6926025  17.3377099  49.4257311  99.5672966  17.2826719  50.4369369
  86.5257556   8.1260595  34.2466975  86.8210997   7.2171273  34.1934029
  85.6245591   8.1048334  33.9247978  98.4343634  19.8467859  41.0517384
  98.3094774  19.0457599  40.5428329  99.0922725  20.3414052  40.5631354
  90.0551803   6.2016591  40.2294524  89.3338388   6.8152559  40.0901997
  90.8445058   6.7374356  40.1511170 100.4978543  17.6476879  42.6796934
  99.5508878  17.5282230  42.6075260 100.8461316  16.7599377  42.7623195
  92.8578116   3.5371018  46.5035176  93.3812518   3.7833314  47.2661485
  92.6390449   4.3691053  46.0838313  88.2545397   5.8074692  34.3706300
  87.9258103   4.9272071  34.1881406  88.6084768   5.7522361  35.2582690
  97.5024976  17.4429595  38.8801286  97.3549938  16.5146303  39.0608856
  98.3278469  17.4649686  38.3958361  91.3687220   6.0947662  34.7381778
  91.7083293   6.6233584  34.0160386  91.8159341   6.4328068  35.5140345
 101.1059098  18.2658154  39.9666159 102.0305645  18.0601015  39.8290610
 100.9374401  18.0174555  40.8755500  94.0630661   4.4784713  44.1884846
  93.7227481   3.6792526  44.5905526  93.3569667   4.7786424  43.6161679
  93.3555367   4.5922284  32.9375071  94.0763730   4.9703537  32.4338788
  92.7320672   5.3111161  33.0410049  97.4986490   5.2967433  33.8733403
  97.7150105   6.1792071  33.5722231  97.0180557   4.9053646  33.1439045
  92.2385712   8.2553146  40.4504148  92.0930292   8.5693449  41.3428429
  91.7610915   8.8738046  39.8975046  94.0982095   5.2455694  40.4985037
  94.0843663   4.3496787  40.1617335  94.8154523   5.2526358  41.1323323
  95.9508225   5.6793034  42.5438165  95.6926003   6.6010105  42.5422495
  95.4193266   5.2823469  43.2338629 100.8954414  18.7843821  35.3228250
 101.0691292  18.2190244  34.5702103 101.3883305  19.5844716  35.1407740
  86.7131374  10.7958490  43.3891809  86.1684842  11.5718298  43.5212083
  87.5910724  11.1429295  43.2310930  93.5018990   4.1270074  35.7672607
  93.6234902   3.1986720  35.9663495  93.2121033   4.1408760  34.8550923
 106.7493805  11.5480244  36.9418550 107.1924951  10.7987570  36.5437673
 105.8720315  11.5390381  36.5592282 101.8829586  18.1010586  32.4225148
 102.5780491  18.7217278  32.6412463 102.2252737  17.2505937  32.6977526
  87.4997396   9.9228387  46.2821966  86.7579132  10.0711022  46.8686596
  87.1790140  10.1836652  45.4188715 103.7821010  15.5510291  33.9512479
 104.3072334  15.8897564  33.2261799 103.6943362  14.6157307  33.7675614
  95.4441058  19.4644365  46.0802356  95.7528185  19.2193512  46.9525055
  96.2416540  19.6691003  45.5921226  95.4661670  21.6182275  38.3107732
  95.0266661  21.1258653  39.0040589  96.2169787  21.0755242  38.0699808
  87.9454009  17.8093815  38.3132360  88.7712029  17.5097587  37.9331004
  87.5948061  17.0401438  38.7622149  92.9135543  17.1620284  40.3830034
  92.2915552  16.4990989  40.0832262  93.5840409  17.1881416  39.7003682
  86.1462614  15.7280142  39.2721294  85.3094523  15.3002316  39.0905295
  86.1186260  15.9212585  40.2092085  92.9860070   5.6402072  49.9762540
  93.0348225   6.5164194  49.5940310  93.5282584   5.0979465  49.4034183
 103.4714916  16.1843195  49.2563677 102.6810459  16.1667334  48.7168177
 103.2348270  16.7231489  50.0112714 103.5912791  13.0335661  46.5696406
 103.6410796  12.8685669  47.5111928 103.4826714  12.1662920  46.1794286
  92.4749049  15.7124207  33.8588495  92.6237170  16.3959671  33.2055167
  93.2815493  15.6929297  34.3737950 100.8816553   9.0166589  47.8855712
 101.7826416   8.8773054  47.5939710 100.9564528   9.1821044  48.8253890
  95.2159358   6.3933444  46.7308899  94.3462668   6.6867010  46.4591487
  95.4518839   6.9773889  47.4516162 105.0930988  15.4532603  46.8138427
 104.8015796  15.8162583  47.6501888 104.4803119  14.7399611  46.6351759
 106.2926670  13.0185483  39.3340997 107.1273561  13.4575287  39.4978558
 106.4285799  12.5424136  38.5149243 103.3418176  10.5765217  45.2818485
 103.8172297  10.7692864  44.4737337 102.4183741  10.6324403  45.0361869
  90.2301682  11.7389385  34.8649563  89.9847724  10.8351715  35.0629774
  90.3997597  11.7406535  33.9229041  97.9198392   2.6113061  44.2474319
  98.4380336   3.3474088  43.9220808  97.5653525   2.9177054  45.0821078
  89.4997330   7.4717742  32.3635725  88.8066575   7.5462097  31.7075761
  89.2549082   6.7078086  32.8857242  95.9744455  18.2072337  31.3300242
  95.4018422  18.8262525  30.8770714  96.5477249  18.7571699  31.8640164
 102.0419845   7.4530978  43.5146791 102.9937268   7.5529075  43.5359015
 101.8723295   6.6609246  44.0244875 100.0634224   4.5386561  43.7006192
  99.4684156   4.8191573  43.0052680  99.7783921   5.0280462  44.4722933
  99.1941715  18.4909488  32.4608824 100.1272388  18.4255049  32.6641700
  99.1064928  19.3265754  32.0023357 101.8229731  17.8075358  29.4212772
 101.7443363  17.4735222  30.3148530 102.6439398  18.2997126  29.4204244
 104.5207923  10.6737097  42.6289090 104.4884243   9.7353098  42.8148774
 105.1308546  10.7521134  41.8954915  96.3591253   9.5433150  28.6716294
  97.3050358   9.4139358  28.7404713  95.9805498   8.8047812  29.1485723
 104.6702411   7.4648141  42.6747374 104.1541460   6.6806597  42.4877302
 105.5542360   7.1366857  42.8393893 110.3384472  11.7353104  41.7695127
 111.0687861  11.4738392  42.3302831 109.7291418  10.9981826  41.8097195
 108.4199770   9.8760967  42.3669578 107.6932933   9.7416932  41.7586070
 108.0047056  10.1837795  43.1726296  96.2429946  13.5950896  50.1316951
  97.1632955  13.7729495  50.3256998  96.2079529  12.6506942  49.9796651
  94.5434171   7.4683127  28.6071180  93.6365626   7.1716239  28.6833893
  94.8210152   7.1712945  27.7405466  85.4612111   8.7889490  39.0570226
  85.1414895   7.9354798  38.7644600  84.9145539   9.0038068  39.8128193
  89.2392019  11.5051931  42.7739733  89.4578028  12.4369039  42.7927766
  89.6517792  11.1459905  43.5594536  96.1596236   2.0120016  34.7615421
  95.3496965   1.6667101  35.1370667  96.8480653   1.7027560  35.3503033
  94.1119884   7.0785137  52.1642482  94.0116611   8.0279494  52.0954573
  93.8941426   6.7503376  51.2918552  93.3132955   4.3270062  28.7483159
  94.1752119   4.6524960  29.0078976  93.4983299   3.5401558  28.2356225
  85.3300371  12.4092401  41.0263348  84.6363842  11.9946354  40.5133302
  86.0773362  12.4512938  40.4296767  93.9751154  10.5082276  50.9807543
  93.4918236  11.3082636  51.1871432  94.0612093  10.5190220  50.0274987
  87.2437114  12.3410655  38.9029363  87.2207802  12.4398343  37.9511246
  87.5537750  13.1875806  39.2246529  89.9024491  14.3986810  43.0175977
  90.8567745  14.3670753  42.9505909  89.7037015  13.9377434  43.8326203
  90.4923874  12.9687926  45.5846775  91.3116763  13.4632005  45.6081612
  90.7660681  12.0519894  45.5564342 100.2490470   5.3598679  34.9474730
  99.3616325   5.6448329  34.7294925 100.6644459   5.1992442  34.1002007
 103.6005006   5.3845200  38.6629069 104.3765396   5.8741652  38.9353686
 102.8753140   5.8103254  39.1200939 106.0377564   6.0972819  39.7203010
 106.6322055   5.8568555  39.0096318 106.1104148   5.3779949  40.3476546
  88.2574720  19.9406430  40.0346175  88.1229188  19.1806831  39.4684173
  87.8406782  20.6647330  39.5674964  99.3933683  15.1243353  29.0422750
 100.0969533  15.3293356  29.6580406  98.6696332  15.6920115  29.3071834
 100.2231493  10.8753215  35.1625020 100.1666695  11.3321766  34.3232653
 100.7759836  10.1143899  34.9847863 104.0336299   6.6642946  35.9875140
 103.7773234   6.2639582  36.8183348 103.4089167   7.3786740  35.8625279
 108.3448637   9.4039020  38.4946431 107.7848195   9.4732209  39.2677993
 107.7392141   9.2280004  37.7745927  91.4143846  20.8375747  40.2464618
  91.2976230  21.7821179  40.1443308  90.5936292  20.5349308  40.6350417
 101.3020381  15.5625883  31.0921210 102.1365985  15.1307081  30.9098685
 101.1404724  15.3907896  32.0198105 100.9566273  12.0657996  32.4577550
 100.9015077  11.9002267  31.5165994 100.3312328  12.7734029  32.6139739
  85.7458788   7.3026060  46.2838972  86.3917651   6.7925014  46.7726197
  85.5375939   8.0394742  46.8582397  98.2712180  14.3706908  51.7831112
  99.1403340  14.5447560  51.4217747  97.7918931  15.1901325  51.6606842
  94.2662398   1.5666105  32.0362868  94.2541068   2.5107945  32.1931139
  95.1585820   1.3836250  31.7422329  92.4398360  21.4904009  43.4620546
  93.3425607  21.5227619  43.7787041  92.2135730  20.5604460  43.4766882
  94.1951962  20.2434995  40.1230625  93.2447593  20.2436857  40.0094997
  94.4984448  19.4967730  39.6066659  90.0856279   4.4493677  50.3813986
  90.9487740   4.0930482  50.5917311  89.5121689   4.1107572  51.0689390
 109.9304656  26.0795534  41.1876387 110.5683066  25.9602281  40.4839727
 109.8125499  27.0276378  41.2464339 106.7394362  26.0322962  41.1237912
 106.4012873  25.9164026  40.2358447 107.6084130  25.6314127  41.1038918
 102.5981178  27.8858438  37.1134803 102.0346043  27.7948375  36.3451090
 102.4833573  27.0658343  37.5937295 107.2214145  27.1857813  47.0824117
 107.2102786  26.7910612  46.2104621 107.3834784  26.4523886  47.6757889
 100.1445610  29.3809630  39.9519023 100.9366902  29.0400454  39.5365322
 100.3842260  29.4904605  40.8721176 108.1780736  31.5529406  32.4249268
 107.5268716  32.1383486  32.0383281 108.9725099  32.0835601  32.4844305
 102.1036364  28.6418543  32.8236402 102.8767240  28.0947530  32.6849278
 102.4561762  29.5062792  33.0350863 103.9421406  29.9694925  46.0303301
 103.6511272  30.8740556  45.9149967 104.5778390  30.0111453  46.7447371
 104.8677613  27.3471774  42.6204661 105.4641185  27.1227796  41.9061624
 104.9252584  26.6056519  43.2230109 104.4402641  24.8011209  30.4554852
 104.6928162  24.2792730  29.6938315 103.5027200  24.6377355  30.5581535
 109.4845924  23.8046987  38.2629595 110.2709013  23.3866411  37.9120012
 109.7484628  24.7093080  38.4311243 109.6556002  29.2419838  32.9618252
 109.0201834  29.3154464  33.6739156 109.3253408  29.8313437  32.2837331
 114.8854351  23.7422221  39.1662574 115.6179523  23.1721437  39.4000403
 114.1293707  23.3543821  39.6069079 104.1598930  26.7039315  32.6579227
 104.0435188  26.0284218  33.3260311 104.2701190  26.2171689  31.8411380
 106.5030471  26.1649462  36.3625916 106.1388678  25.6380083  37.0738837
 107.3597587  25.7747931  36.1892401 112.4079772  17.4543795  43.6257182
 112.0763096  18.3239206  43.4018397 111.8125385  17.1380079  44.3051213
 106.1435958  21.1939362  31.3587264 106.3110360  22.0619598  31.7257736
 105.9533127  21.3566644  30.4348554 108.9011291  29.6556341  43.0253095
 108.6012014  30.5581380  42.9168902 108.5562351  29.3888524  43.8774248
 102.3523773  26.1070138  39.0589799 101.4274269  25.9746352  39.2667491
 102.6008186  26.8864357  39.5559742 112.3008435  22.1738881  40.7050532
 111.3925312  22.1054289  40.4109293 112.2496031  22.6510826  41.5332358
 106.1225179  23.6497019  32.3433931 106.0024804  24.0954070  33.1819412
 105.4277767  23.9982337  31.7847469  99.7132584  25.7503411  39.8933588
  99.8424965  26.0037890  40.8073000  99.0330035  26.3431119  39.5738243
 103.8832071  36.4200661  35.9924063 103.8056101  37.3708486  36.0712543
 103.2793715  36.0746534  36.6498989 106.3749301  23.5928527  48.6485429
 105.5982635  24.1522447  48.6388294 107.0139864  24.0785310  49.1700300
 114.1670081  20.3755319  42.4828406 113.5244462  20.6687853  41.8368201
 113.6625010  20.2608240  43.2881603 111.8210245  24.1218493  33.1714265
 112.7328101  24.3545879  32.9961963 111.3119892  24.7055537  32.6089344
 104.6295673  26.4013980  48.2103396 105.3710357  26.9399024  47.9338220
 103.9232659  27.0280269  48.3674948 110.1051013  28.5443120  46.8075558
 110.5134369  28.1025531  46.0630190 109.3828274  27.9695748  47.0609751
 106.4582083  23.4815727  44.1809115 107.3043278  23.9055141  44.3243764
 106.3980720  22.8249351  44.8747678 110.4279827  29.1044311  40.5627847
 109.7988690  29.2690025  39.8603915 110.0405489  29.5185921  41.3338811
 114.3069059  30.0398749  37.9172211 113.6220097  30.4197650  37.3669244
 114.3912909  30.6494076  38.6504158 109.6081528  21.1420096  45.8390289
 109.3642460  21.8962156  45.3024564 109.8841459  21.5205443  46.6737536
 111.5619991  27.6858708  44.5167554 111.7736886  28.3290468  43.8401935
 111.5149739  26.8521024  44.0489484 109.1646220  20.2976529  41.4204126
 108.3030699  20.5957782  41.7120864 109.1908654  20.5146927  40.4885159
 105.9807789  28.8418719  37.8277932 106.4446135  29.1206422  37.0382554
 105.7164587  27.9402164  37.6451023 102.8731870  28.3890201  40.7657695
 103.4433227  28.8177469  40.1275180 103.4639982  28.1072785  41.4641881
 104.9176675  24.9641871  34.6367497 105.6200719  25.4162915  35.1041423
 104.5857304  24.3225690  35.2647390 103.3657037  23.5553628  49.0118706
 102.7355697  24.2369909  49.2454103 103.2593125  23.4436710  48.0671845
  98.6602009  23.2225424  39.9384631  97.8701063  23.4782953  39.4624741
  99.1513257  24.0373762  40.0436671 112.6765819  30.5630663  42.6889911
 113.4983263  30.1610851  42.4072593 112.6728222  30.4598897  43.6406027
 100.6116755  23.5870003  36.8968107  99.8147918  23.6988698  37.4151603
 100.3842347  23.9256656  36.0308998 106.4422422  30.1114707  44.8450622
 106.5066855  30.5735114  45.6808794 105.7333346  29.4812072  44.9732932
  96.9439712  23.4755915  42.3699621  97.1947751  24.3602924  42.6357197
  97.4799261  23.2960516  41.5974713 120.7671812  26.9069412  39.0374883
 120.0135520  26.3376810  38.8818887 120.9019353  26.8732076  39.9845518
 106.1570440  31.7782814  34.7129602 106.0216115  32.6234350  35.1414450
 106.6980252  31.9802092  33.9495536 102.6437780  17.8574394  51.3743957
 102.2504725  17.3040592  52.0491602 103.4603920  18.1684972  51.7650475
  99.6099837  29.2958252  35.2857527 100.1224358  30.0901502  35.4363092
 100.2622550  28.5984543  35.2191129 101.4194722  32.4124008  37.3680281
 101.5961350  33.3341973  37.1801264 102.2151556  32.0982428  37.7974660
 105.5605741  19.2732273  48.9664214 106.3015454  19.8739426  48.8868677
 105.7923663  18.5309911  48.4082257 100.7047079  24.4588640  47.2442444
 100.5900594  23.5573898  47.5449543  99.8491596  24.7052337  46.8927260
 107.7838916  32.4006381  48.8429944 107.3402770  31.6142759  48.5250849
 108.4456130  32.5885531  48.1773835 102.5426037  33.9302182  43.3690623
 103.0933463  33.8019246  42.5967617 101.7037513  34.2297071  43.0185516
 109.8820154  32.6809181  46.8711346 109.8638630  33.5018062  46.3791615
 110.8040074  32.5563256  47.0961487 106.3393209  30.1953310  47.7134854
 106.8721545  29.4341598  47.4834162 105.8107290  29.9026962  48.4559008
 109.5062903  15.3013376  43.2428496 109.1627173  16.1915018  43.1667606
 109.8741866  15.1115034  42.3798081  97.5748754  27.6246906  36.0617098
  98.4123976  28.0343915  35.8450806  97.7527022  26.6846349  36.0317292
 109.4713186  25.2921987  31.7500931 108.9559810  26.0626592  31.9889318
 109.1990495  24.6187123  32.3733992 107.0560297  20.1371688  36.8086169
 106.2001894  19.7478538  36.6291808 107.4687249  20.2163649  35.9485955
 108.5859444  17.6718031  41.2077729 108.0824239  17.6348166  40.3945534
 108.8790051  18.5810774  41.2674386 104.8302330  17.7556761  40.2143911
 105.6955327  17.5599570  39.8549800 104.8979839  17.5267113  41.1413267
 114.4447460  28.0454342  33.6854104 113.6676903  27.7065501  33.2409266
 115.1238941  28.0506965  33.0109069 109.2599489  23.1649079  33.5760712
 108.9549625  23.4795228  34.4270855 110.2129931  23.2430499  33.6188045
 107.7045921  29.3239302  35.2253666 107.1767283  28.5892062  34.9126903
 107.2033424  30.1013979  34.9793634 112.6838767  27.5188323  40.3420712
 112.0262442  28.2087584  40.4300841 113.4879166  27.9084755  40.6854699
 102.4364649  19.9858969  37.5860278 103.0108401  19.7634150  36.8533470
 103.0235631  20.0547663  38.3388879 111.4944226  25.8732696  38.3924654
 112.0076108  26.5062688  38.8946364 112.1445450  25.2733891  38.0268014
 102.7634236  22.0163430  31.6056163 101.9271548  22.3538116  31.9265438
 102.6239006  21.8812410  30.6683300 104.7387317  16.8600218  36.3135347
 104.0851729  16.5449235  35.6891962 104.6967791  16.2375958  37.0395170
 105.8498521  27.1419513  28.2288639 104.9425583  26.9108766  28.4279788
 106.3469553  26.3457132  28.4162621 108.7566600  35.8517020  31.1485325
 108.0828299  36.1548717  31.7570283 109.1432422  36.6546100  30.7990782
 107.9725057  23.3482151  40.6382995 107.0547618  23.5697098  40.4804683
 108.3885201  23.4228462  39.7794702 108.7560105  24.7473567  35.7685675
 109.5031924  25.2594964  35.4592797 109.0251694  24.4257620  36.6290068
 107.0286755  27.2432108  32.7512629 106.1197974  26.9591140  32.8485099
 107.0581839  27.6631186  31.8915936 112.2606022  30.8538697  36.5203797
 111.8068349  30.0129607  36.5768987 111.6299989  31.4900095  36.8578577
 111.2038942  21.7830683  37.7504464 110.4661699  21.2708069  38.0814707
 111.4565715  21.3431065  36.9387741 110.7038961  32.6915194  37.4553615
 110.9961936  33.2520251  36.7365980 111.2137582  32.9843755  38.2106774
 111.3050569  14.5606935  38.3446233 111.6109446  13.7004299  38.0572148
 112.0303174  15.1524555  38.1445227  97.5974925  24.9637622  36.7327831
  97.3999325  24.3706982  36.0078898  97.0421589  24.6589832  37.4503770
 105.5771649  24.8560728  38.8522424 105.6320259  23.9034565  38.7764901
 104.7662851  25.0120167  39.3363723 106.7262843  28.7840851  30.0900708
 106.2882273  28.0676710  29.6306345 107.4673283  29.0116966  29.5285799
 103.5164009  23.4737788  36.6112803 102.7031874  23.7731959  37.0177995
 104.0123003  23.0793477  37.3287286 105.6672587  33.4695545  38.5447068
 105.6248765  33.6956391  37.6155600 106.5835286  33.2358919  38.6932869
 109.1138220  23.9379612  45.4427697 109.4687608  24.1651086  46.3022163
 109.7610352  24.2697989  44.8204953 114.8435957  27.0598048  36.1477026
 114.7053856  27.2499644  35.2198215 114.4872176  27.8217431  36.6045077
 103.0078084  21.0456143  42.2274038 103.6477463  20.9044903  41.5297002
 102.1755614  20.7590657  41.8512640 114.8705337  29.1274575  41.1588298
 115.3041844  29.0349864  42.0071352 115.5836918  29.1032076  40.5208314
 103.7838387  30.3458574  38.3409031 104.5778986  29.8508894  38.1391606
 103.0730080  29.8176437  37.9776736 108.6033232  32.7276669  42.6921398
 108.6570254  33.2967606  43.4599114 107.7348013  32.8978554  42.3275436
 100.0921151  24.4901656  34.4168783  99.1618739  24.4286111  34.6338746
 100.1878623  23.9677608  33.6205425 100.0106700  21.0156468  37.0047025
 100.2713517  21.9301802  36.8956186 100.8323872  20.5480911  37.1543638
 101.4831625  22.4294226  44.1745850 102.1554679  22.2211588  43.5258499
 100.6561412  22.2316312  43.7351082 115.7320887  29.1698276  43.6921183
 115.9256777  30.0744086  43.9380458 115.6321505  28.7105695  44.5259768
 107.3857197  19.0556167  46.1911511 106.7385112  19.7546116  46.0975987
 108.1558213  19.4892310  46.5587759 110.7935995  29.3205019  49.2662064
 110.6421502  29.0915570  48.3492147 110.7840675  30.2775620  49.2793409
 107.5621332  26.8936931  44.2508330 108.4913392  27.0448091  44.0777298
 107.1412362  26.9820952  43.3956977 106.3609663  30.9187596  42.0206868
 106.2220749  30.5506380  42.8932806 105.5724260  31.4335235  41.8490826
 106.9557815  36.0196692  33.3632404 107.1309571  35.5484736  34.1778027
 106.2690603  36.6462459  33.5913665 107.9114879  30.2969199  39.4095706
 107.5764711  30.2569969  40.3053356 107.4118824  29.6313915  38.9366116
 101.8859123  25.7036829  44.9348287 101.7478920  24.9717067  45.5359826
 102.7964046  25.6145729  44.6532475 110.8474070  27.6425233  29.6832765
 110.2303241  26.9172061  29.5865818 110.3790559  28.4034593  29.3399840
 104.5141423  25.4156788  44.4231966 105.2241042  24.7749980  44.3818585
 104.4710731  25.6669683  45.3458147 112.5028202  32.3524141  47.3438546
 112.4440748  31.6683361  46.6769129 112.9047720  33.0943131  46.8919172
 103.2270357  22.4022006  46.2427606 102.6907714  21.9512744  46.8949202
 102.6387066  22.5367915  45.4998070 101.5218901  39.1686055  40.1372265
 101.7615499  39.8004579  40.8151283 100.6788097  38.8174095  40.4237624
 102.6372616  21.8610657  28.8054070 101.7602082  21.7399458  28.4416316
 103.1130369  21.0696736  28.5532958 112.5045609  30.3163725  45.5752525
 111.6172388  29.9789647  45.6978924 113.0744160  29.5846756  45.8121291
  94.1574756  26.6487817  38.8995577  94.8445796  26.3349547  38.3116592
  94.0022885  27.5529182  38.6262828  98.9609478  21.5378014  43.3280600
  98.8767667  20.9303683  42.5931010  98.1392185  22.0287032  43.3290097
 106.0346763  34.9765178  42.5413769 105.9616934  35.7820149  43.0533073
 105.5924156  35.1757143  41.7161790 105.8236542  34.2136948  36.0516590
 105.0404064  34.7558628  36.1454815 106.5229287  34.7310927  36.4510831
 109.1333192  20.0231577  38.6950795 109.6301892  19.2701539  38.3751866
 108.3620174  20.0595894  38.1294005 116.9862950  25.7271943  40.3369087
 116.9752826  26.6096658  39.9663020 116.1180329  25.3743493  40.1423624
 108.4945446  34.8752012  44.6971927 109.2073418  35.5099476  44.6247829
 108.0035475  34.9715878  43.8811929 110.2162973  28.7803264  36.2689219
 109.2819252  28.9004727  36.0993923 110.3939641  27.8775731  36.0049229
 105.7168161  22.1648960  38.4222480 105.3465949  21.6120000  39.1103386
 106.2127254  21.5607094  37.8697480 113.6035524  24.6220584  36.8039253
 114.0695977  25.4548575  36.7299556 114.0543025  24.1565565  37.5084511
 103.5457360  32.6246455  45.5177498 104.2466819  33.2582938  45.6706892
 103.0752475  32.9661187  44.7573137 111.6711755  30.9664405  33.8025405
 111.9471599  30.8520999  34.7119279 110.8016254  30.5681890  33.7637578
 111.5752187  16.9901171  40.8430154 110.6615267  17.2205397  41.0112361
 112.0045289  17.0739615  41.6944187 111.3458646  25.1791063  43.3430048
 110.6930096  25.4266970  42.6882501 111.7239025  24.3655201  43.0092526
 108.3065819  35.2150756  37.4458219 108.4888214  34.3972412  37.9085971
 109.1298805  35.4318448  37.0083109 108.6407985  34.1418941  34.7073267
 109.1695751  33.6311395  34.0943429 108.9036205  33.8261471  35.5718800
 107.3946219  25.9210874  49.8296085 106.7186856  25.8205003  50.4998461
 108.2173852  25.7650087  50.2932083  99.1425078  32.1582810  42.4508601
  99.7278514  31.4126498  42.5836505  98.9449916  32.4686767  43.3345265
 101.9963733  35.1934058  37.4671043 101.3274108  35.6780185  36.9835083
 101.8576603  35.4403278  38.3814422  93.7342732  24.7288410  41.1713044
  93.7726832  24.1952001  41.9650162  93.2283025  24.2023616  40.5524021
 106.1369001  37.2277801  44.0653701 106.6887310  37.3909423  44.8302787
 106.4775195  37.8182239  43.3933726 101.1133495  19.5752951  44.6675586
 101.1774821  20.4367782  44.2552984 101.0500615  18.9626952  43.9347945
 100.5885767  21.6476083  48.3148620 101.2157806  21.2653161  48.9286145
  99.7313686  21.4290285  48.6804313 110.9879876  32.0539059  49.9202356
 111.5319780  32.6669017  49.4257311 110.4066721  32.6118637  50.4369369
  97.3651310  23.4552512  34.2466975  97.6604751  22.5463191  34.1934029
  96.4639346  23.4340252  33.9247978 109.2737389  35.1759777  41.0517384
 109.1488528  34.3749516  40.5428329 109.9316480  35.6705970  40.5631354
 100.8945557  21.5308509  40.2294524 100.1732143  22.1444477  40.0901997
 101.6838813  22.0666274  40.1511170 111.3372297  32.9768797  42.6796934
 110.3902633  32.8574148  42.6075260 111.6855070  32.0891295  42.7623195
 103.6971871  18.8662936  46.5035176 104.2206272  19.1125232  47.2661485
 103.4784204  19.6982970  46.0838313  99.0939152  21.1366610  34.3706300
  98.7651858  20.2563989  34.1881406  99.4478522  21.0814279  35.2582690
 108.3418730  32.7721513  38.8801286 108.1943693  31.8438220  39.0608856
 109.1672224  32.7941604  38.3958361 102.2080975  21.4239580  34.7381778
 102.5477047  21.9525501  34.0160386 102.6553095  21.7619986  35.5140345
 111.9452852  33.5950072  39.9666159 112.8699400  33.3892933  39.8290610
 111.7768156  33.3466473  40.8755500 104.9024416  19.8076631  44.1884846
 104.5621236  19.0084444  44.5905526 104.1963422  20.1078342  43.6161679
 105.5540887  16.8925943  42.6412169 106.3766957  16.4186421  42.5191059
 105.7978951  17.6716427  43.1410855 104.1949122  19.9214202  32.9375071
 104.9157484  20.2995454  32.4338788 103.5714426  20.6403078  33.0410049
 108.3380245  20.6259351  33.8733403 108.5543859  21.5083988  33.5722231
 107.8574312  20.2345564  33.1439045 103.0779466  23.5845064  40.4504148
 102.9324047  23.8985367  41.3428429 102.6004670  24.2029964  39.8975046
 104.9375849  20.5747612  40.4985037 104.9237418  19.6788705  40.1617335
 105.6548277  20.5818275  41.1323323 106.7901980  21.0084952  42.5438165
 106.5319758  21.9302023  42.5422495 106.2587020  20.6115386  43.2338629
 111.7348168  34.1135739  35.3228250 111.9085046  33.5482162  34.5702103
 112.2277060  34.9136634  35.1407740  97.5525128  26.1250408  43.3891809
  97.0078596  26.9010216  43.5212083  98.4304478  26.4721213  43.2310930
 104.3412745  19.4561992  35.7672607 104.4628656  18.5278638  35.9663495
 104.0514787  19.4700678  34.8550923 107.2103935  17.1416902  38.9039327
 107.2325632  17.2056236  37.9491307 107.6271994  16.3021411  39.0979833
 117.5887560  26.8772162  36.9418550 118.0318706  26.1279487  36.5437673
 116.7114070  26.8682298  36.5592282 112.7223341  33.4302503  32.4225148
 113.4174246  34.0509196  32.6412463 113.0646491  32.5797855  32.6977526
  98.3391150  25.2520304  46.2821966  97.5972886  25.4002940  46.8686596
  98.0183894  25.5128570  45.4188715 114.6214764  30.8802209  33.9512479
 115.1466088  31.2189482  33.2261799 114.5337117  29.9449224  33.7675614
 106.2834813  34.7936283  46.0802356 106.5921939  34.5485429  46.9525055
 107.0810295  34.9982921  45.5921226 106.3055425  36.9474192  38.3107732
 105.8660415  36.4550571  39.0040589 107.0563542  36.4047160  38.0699808
  98.7847764  33.1385733  38.3132360  99.6105784  32.8389505  37.9331004
  98.4341816  32.3693356  38.7622149 103.7529297  32.4912201  40.3830034
 103.1309306  31.8282906  40.0832262 104.4234164  32.5173333  39.7003682
  96.9856369  31.0572060  39.2721294  96.1488277  30.6294234  39.0905295
  96.9580014  31.2504503  40.2092085 103.8253824  20.9693989  49.9762540
 103.8741980  21.8456112  49.5940310 104.3676339  20.4271382  49.4034183
 114.3108670  31.5135113  49.2563677 113.5204214  31.4959251  48.7168177
 114.0742025  32.0523406  50.0112714 114.4306545  28.3627579  46.5696406
 114.4804550  28.1977586  47.5111928 114.3220469  27.4954838  46.1794286
 103.3142804  31.0416125  33.8588495 103.4630924  31.7251589  33.2055167
 104.1209247  31.0221215  34.3737950 111.7210308  24.3458507  47.8855712
 112.6220170  24.2064972  47.5939710 111.7958282  24.5112962  48.8253890
 106.0553113  21.7225362  46.7308899 105.1856422  22.0158928  46.4591487
 106.2912593  22.3065807  47.4516162 115.9324742  30.7824521  46.8138427
 115.6409550  31.1454501  47.6501888 115.3196873  30.0691529  46.6351759
 117.1320424  28.3477400  39.3340997 117.9667316  28.7867204  39.4978558
 117.2679553  27.8716053  38.5149243 114.1811930  25.9057135  45.2818485
 114.6566052  26.0984781  44.4737337 113.2577496  25.9616321  45.0361869
 101.0695437  27.0681302  34.8649563 100.8241479  26.1643632  35.0629774
 101.2391351  27.0698453  33.9229041 108.7592147  17.9404979  44.2474319
 109.2774091  18.6766006  43.9220808 108.4047280  18.2468972  45.0821078
 100.3391084  22.8009660  32.3635725  99.6460329  22.8754015  31.7075761
 100.0942836  22.0370004  32.8857242 109.0104741  14.3605261  39.7675216
 109.2906495  13.6928450  40.3935642 109.7955348  14.5534357  39.2549880
 106.8138209  33.5364255  31.3300242 106.2412177  34.1554442  30.8770714
 107.3871003  34.0863617  31.8640164 112.8813599  22.7822895  43.5146791
 113.8331022  22.8820993  43.5359015 112.7117050  21.9901164  44.0244875
 110.9027979  19.8678478  43.7006192 110.3077911  20.1483491  43.0052680
 110.6177675  20.3572379  44.4722933 110.0335469  33.8201405  32.4608824
 110.9666142  33.7546967  32.6641700 109.9458682  34.6557672  32.0023357
 112.6623486  33.1367276  29.4212772 112.5837117  32.8027139  30.3148530
 113.4833153  33.6289044  29.4204244 115.3601677  26.0029015  42.6289090
 115.3277997  25.0645016  42.8148774 115.9702301  26.0813052  41.8954915
 107.1985008  24.8725068  28.6716294 108.1444113  24.7431276  28.7404713
 106.8199253  24.1339730  29.1485723 115.5096166  22.7940058  42.6747374
 114.9935214  22.0098515  42.4877302 116.3936114  22.4658775  42.8393893
 113.1706892  16.5381074  38.6343186 112.9731714  16.2296162  39.5186518
 113.7806598  17.2642713  38.7641116 121.1778227  27.0645022  41.7695127
 121.9081615  26.8030310  42.3302831 120.5685172  26.3273744  41.8097195
 119.2593524  25.2052884  42.3669578 118.5326688  25.0708849  41.7586070
 118.8440811  25.5129713  43.1726296 107.0823700  28.9242814  50.1316951
 108.0026710  29.1021413  50.3256998 107.0473284  27.9798859  49.9796651
 105.3827925  22.7975044  28.6071180 104.4759380  22.5008157  28.6833893
 105.6603906  22.5004862  27.7405466  96.3005865  24.1181408  39.0570226
  95.9808650  23.2646716  38.7644600  95.7539294  24.3329986  39.8128193
 100.0785773  26.8343849  42.7739733 100.2971783  27.7660956  42.7927766
 100.4911547  26.4751823  43.5594536 106.9989991  17.3411934  34.7615421
 106.1890719  16.9959019  35.1370667 107.6874408  17.0319478  35.3503033
 108.9280539  16.4189981  36.3839718 109.4811578  16.8385434  37.0429741
 109.1650625  15.4925729  36.4262674 104.9513638  22.4077054  52.1642482
 104.8510365  23.3571411  52.0954573 104.7335180  22.0795293  51.2918552
 104.1526710  19.6561979  28.7483159 105.0145874  19.9816878  29.0078976
 104.3377054  18.8693475  28.2356225  96.1694125  27.7384319  41.0263348
  95.4757597  27.3238272  40.5133302  96.9167116  27.7804856  40.4296767
 112.3059346  18.5290506  35.8918382 111.7258015  19.1875310  35.5096434
 112.0395279  17.7067851  35.4805799 110.7562913  17.9295564  38.0939702
 111.2562691  18.0412098  37.2854021 111.3998520  17.6256617  38.7340511
 104.8144908  25.8374193  50.9807543 104.3311990  26.6374553  51.1871432
 104.9005847  25.8482138  50.0274987  98.0830868  27.6702573  38.9029363
  98.0601556  27.7690260  37.9511246  98.3931504  28.5167724  39.2246529
 100.7418246  29.7278728  43.0175977 101.6961499  29.6962670  42.9505909
 100.5430769  29.2669352  43.8326203 101.3317628  28.2979844  45.5846775
 102.1510517  28.7923923  45.6081612 101.6054436  27.3811812  45.5564342
 111.0884224  20.6890596  34.9474730 110.2010079  20.9740247  34.7294925
 111.5038213  20.5284360  34.1002007 114.4398760  20.7137117  38.6629069
 115.2159150  21.2033570  38.9353686 113.7146895  21.1395172  39.1200939
 116.8771319  21.4264737  39.7203010 117.4715810  21.1860472  39.0096318
 116.9497903  20.7071867  40.3476546  99.0968475  35.2698347  40.0346175
  98.9622943  34.5098748  39.4684173  98.6800537  35.9939247  39.5674964
 110.2327438  30.4535271  29.0422750 110.9363288  30.6585274  29.6580406
 109.5090086  31.0212033  29.3071834 111.0625248  26.2045132  35.1625020
 111.0060449  26.6613684  34.3232653 111.6153590  25.4435817  34.9847863
 114.8730054  21.9934864  35.9875140 114.6166988  21.5931500  36.8183348
 114.2482922  22.7078658  35.8625279 119.1842392  24.7330937  38.4946431
 118.6241950  24.8024127  39.2677993 118.5785895  24.5571922  37.7745927
 102.2537601  36.1667664  40.2464618 102.1369985  37.1113097  40.1443308
 101.4330047  35.8641226  40.6350417 112.1414135  30.8917800  31.0921210
 112.9759739  30.4598999  30.9098685 111.9798478  30.7199814  32.0198105
 111.7960027  27.3949914  32.4577550 111.7408831  27.2294185  31.5165994
 111.1706083  28.1025946  32.6139739  96.5852542  22.6317978  46.2838972
  97.2311406  22.1216932  46.7726197  96.3769693  23.3686660  46.8582397
 109.1105934  29.6998825  51.7831112 109.9797094  29.8739478  51.4217747
 108.6312686  30.5193242  51.6606842 105.1056153  16.8958023  32.0362868
 105.0934823  17.8399862  32.1931139 105.9979575  16.7128168  31.7422329
 103.2792115  36.8195926  43.4620546 104.1819361  36.8519537  43.7787041
 103.0529485  35.8896377  43.4766882 105.0345717  35.5726913  40.1230625
 104.0841348  35.5728775  40.0094997 105.3378203  34.8259647  39.6066659
 108.9208272  13.4900799  36.2908805 108.1540668  12.9359286  36.4365487
 109.3318977  13.5622668  37.1522956 100.9250033  19.7785595  50.3813986
 101.7881495  19.4222400  50.5917311 100.3515444  19.4399490  51.0689390
 120.7698410  41.4087451  41.1876387 121.4076820  41.2894199  40.4839727
 120.6519253  42.3568295  41.2464339 117.5788116  41.3614879  41.1237912
 117.2406628  41.2455944  40.2358447 118.4477885  40.9606045  41.1038918
 113.4374932  43.2150356  37.1134803 112.8739797  43.1240293  36.3451090
 113.3227327  42.3950260  37.5937295 118.0607899  42.5149731  47.0824117
 118.0496540  42.1202529  46.2104621 118.2228539  41.7815804  47.6757889
 110.9839364  44.7101547  39.9519023 111.7760656  44.3692372  39.5365322
 111.2236014  44.8196522  40.8721176 119.0174491  46.8821324  32.4249268
 118.3662471  47.4675404  32.0383281 119.8118854  47.4127518  32.4844305
 112.9430118  43.9710461  32.8236402 113.7160994  43.4239448  32.6849278
 113.2955517  44.8354710  33.0350863 114.7815161  45.2986843  46.0303301
 114.4905027  46.2032474  45.9149967 115.4172145  45.3403371  46.7447371
 115.7071367  42.6763691  42.6204661 116.3034940  42.4519714  41.9061624
 115.7646339  41.9348437  43.2230109 115.2796396  40.1303127  30.4554852
 115.5321917  39.6084648  29.6938315 114.3420955  39.9669272  30.5581535
 120.3239679  39.1338905  38.2629595 121.1102768  38.7158328  37.9120012
 120.5878383  40.0384997  38.4311243 120.4949756  44.5711755  32.9618252
 119.8595589  44.6446382  33.6739156 120.1647162  45.1605354  32.2837331
 125.7248106  39.0714138  39.1662574 126.4573278  38.5013355  39.4000403
 124.9687461  38.6835739  39.6069079 114.9992685  42.0331233  32.6579227
 114.8828943  41.3576136  33.3260311 115.1094944  41.5463607  31.8411380
 117.3424226  41.4941380  36.3625916 116.9782433  40.9672001  37.0738837
 118.1991341  41.1039849  36.1892401 123.2473526  32.7835712  43.6257182
 122.9156851  33.6531123  43.4018397 122.6519140  32.4671996  44.3051213
 116.9829712  36.5231280  31.3587264 117.1504115  37.3911516  31.7257736
 116.7926882  36.6858561  30.4348554 119.7405046  44.9848258  43.0253095
 119.4405769  45.8873297  42.9168902 119.3956105  44.7180442  43.8774248
 113.1917527  41.4362055  39.0589799 112.2668024  41.3038269  39.2667491
 113.4401940  42.2156275  39.5559742 123.1402189  37.5030799  40.7050532
 122.2319067  37.4346207  40.4109293 123.0889785  37.9802744  41.5332358
 116.9618933  38.9788937  32.3433931 116.8418559  39.4245988  33.1819412
 116.2671522  39.3274255  31.7847469 110.5526338  41.0795329  39.8933588
 110.6818719  41.3329808  40.8073000 109.8723789  41.6723037  39.5738243
 114.7225825  51.7492579  35.9924063 114.6449855  52.7000404  36.0712543
 114.1187469  51.4038451  36.6498989 117.2143055  38.9220444  48.6485429
 116.4376389  39.4814364  48.6388294 117.8533618  39.4077227  49.1700300
 125.0063836  35.7047237  42.4828406 124.3638216  35.9979770  41.8368201
 124.5018764  35.5900157  43.2881603 122.6604000  39.4510410  33.1714265
 123.5721856  39.6837797  32.9961963 122.1513647  40.0347454  32.6089344
 115.4689428  41.7305898  48.2103396 116.2104112  42.2690942  47.9338220
 114.7626413  42.3572186  48.3674948 120.9444767  43.8735038  46.8075558
 121.3528123  43.4317449  46.0630190 120.2222029  43.2987666  47.0609751
 117.2975837  38.8107645  44.1809115 118.1437032  39.2347058  44.3243764
 117.2374475  38.1541269  44.8747678 121.2673582  44.4336229  40.5627847
 120.6382444  44.5981943  39.8603915 120.8799244  44.8477838  41.3338811
 125.1462814  45.3690667  37.9172211 124.4613852  45.7489568  37.3669244
 125.2306663  45.9785993  38.6504158 120.4475283  36.4712013  45.8390289
 120.2036214  37.2254074  45.3024564 120.7235213  36.8497361  46.6737536
 122.4013745  43.0150626  44.5167554 122.6130641  43.6582385  43.8401935
 122.3543494  42.1812942  44.0489484 120.0039974  35.6268446  41.4204126
 119.1424453  35.9249700  41.7120864 120.0302409  35.8438845  40.4885159
 116.8201544  44.1710637  37.8277932 117.2839889  44.4498340  37.0382554
 116.5558342  43.2694081  37.6451023 113.7125625  43.7182118  40.7657695
 114.2826982  44.1469387  40.1275180 114.3033737  43.4364703  41.4641881
 115.7570430  40.2933789  34.6367497 116.4594473  40.7454833  35.1041423
 115.4251058  39.6517608  35.2647390 114.2050791  38.8845546  49.0118706
 113.5749452  39.5661827  49.2454103 114.0986879  38.7728627  48.0671845
 109.4995764  38.5517342  39.9384631 108.7094818  38.8074870  39.4624741
 109.9907011  39.3665680  40.0436671 123.5159573  45.8922581  42.6889911
 124.3377017  45.4902768  42.4072593 123.5121976  45.7890815  43.6406027
 111.4510509  38.9161921  36.8968107 110.6541672  39.0280615  37.4151603
 111.2236101  39.2548573  36.0308998 117.2816177  45.4406624  44.8450622
 117.3460609  45.9027032  45.6808794 116.5727101  44.8103989  44.9732932
 107.7833467  38.8047832  42.3699621 108.0341505  39.6894842  42.6357197
 108.3193015  38.6252434  41.5974713 131.6065566  42.2361329  39.0374883
 130.8529275  41.6668728  38.8818887 131.7413108  42.2023994  39.9845518
 116.9964194  47.1074732  34.7129602 116.8609869  47.9526267  35.1414450
 117.5374007  47.3094009  33.9495536 113.4831534  33.1866312  51.3743957
 113.0898480  32.6332510  52.0491602 114.2997674  33.4976890  51.7650475
 110.4493592  44.6250170  35.2857527 110.9618112  45.4193420  35.4363092
 111.1016305  43.9276460  35.2191129 112.2588476  47.7415926  37.3680281
 112.4355105  48.6633891  37.1801264 113.0545310  47.4274345  37.7974660
 116.3999495  34.6024191  48.9664214 117.1409208  35.2031344  48.8868677
 116.6317418  33.8601829  48.4082257 111.5440833  39.7880558  47.2442444
 111.4294348  38.8865815  47.5449543 110.6885351  40.0344255  46.8927260
 118.6232671  47.7298298  48.8429944 118.1796525  46.9434677  48.5250849
 119.2849884  47.9177449  48.1773835 113.3819792  49.2594100  43.3690623
 113.9327217  49.1311163  42.5967617 112.5431268  49.5588989  43.0185516
 120.7213909  48.0101098  46.8711346 120.7032384  48.8309979  46.3791615
 121.6433829  47.8855173  47.0961487 117.1786963  45.5245228  47.7134854
 117.7115300  44.7633516  47.4834162 116.6501044  45.2318880  48.4559008
 120.3456658  30.6305294  43.2428496 120.0020927  31.5206935  43.1667606
 120.7135621  30.4406951  42.3798081 108.4142509  42.9538824  36.0617098
 109.2517731  43.3635832  35.8450806 108.5920776  42.0138266  36.0317292
 120.3106941  40.6213905  31.7500931 119.7953564  41.3918509  31.9889318
 120.0384249  39.9479041  32.3733992 117.8954052  35.4663606  36.8086169
 117.0395648  35.0770456  36.6291808 118.3081003  35.5455566  35.9485955
 119.4253198  33.0009949  41.2077729 118.9217994  32.9640084  40.3945534
 119.7183805  33.9102692  41.2674386 115.6696084  33.0848679  40.2143911
 116.5349081  32.8891487  39.8549800 115.7373593  32.8559030  41.1413267
 125.2841215  43.3746259  33.6854104 124.5070658  43.0357419  33.2409266
 125.9632696  43.3798883  33.0109069 120.0993244  38.4940997  33.5760712
 119.7943379  38.8087146  34.4270855 121.0523686  38.5722417  33.6188045
 118.5439676  44.6531220  35.2253666 118.0161037  43.9183980  34.9126903
 118.0427178  45.4305897  34.9793634 123.5232522  42.8480241  40.3420712
 122.8656196  43.5379502  40.4300841 124.3272921  43.2376673  40.6854699
 113.2758403  35.3150886  37.5860278 113.8502155  35.0926068  36.8533470
 113.8629386  35.3839581  38.3388879 122.3337981  41.2024613  38.3924654
 122.8469862  41.8354605  38.8946364 122.9839204  40.6025809  38.0268014
 113.6027990  37.3455347  31.6056163 112.7665303  37.6830034  31.9265438
 113.4632760  37.2104327  30.6683300 115.5781071  32.1892135  36.3135347
 114.9245483  31.8741153  35.6891962 115.5361545  31.5667876  37.0395170
 116.6892276  42.4711430  28.2288639 115.7819338  42.2400684  28.4279788
 117.1863308  41.6749050  28.4162621 119.5960355  51.1808938  31.1485325
 118.9222054  51.4840634  31.7570283 119.9826177  51.9838018  30.7990782
 118.8118811  38.6774069  40.6382995 117.8941373  38.8989016  40.4804683
 119.2278955  38.7520379  39.7794702 119.5953859  40.0765485  35.7685675
 120.3425678  40.5886882  35.4592797 119.8645449  39.7549537  36.6290068
 117.8680509  42.5724025  32.7512629 116.9591729  42.2883058  32.8485099
 117.8975593  42.9923104  31.8915936 123.0999777  46.1830615  36.5203797
 122.6462104  45.3421525  36.5768987 122.4693743  46.8192013  36.8578577
 122.0432696  37.1122601  37.7504464 121.3055453  36.5999987  38.0814707
 122.2959470  36.6722982  36.9387741 121.5432716  48.0207111  37.4553615
 121.8355690  48.5812169  36.7365980 122.0531337  48.3135672  38.2106774
 122.1444324  29.8898853  38.3446233 122.4503200  29.0296216  38.0572148
 122.8696928  30.4816473  38.1445227 108.4368680  40.2929539  36.7327831
 108.2393080  39.6998900  36.0078898 107.8815344  39.9881750  37.4503770
 116.4165403  40.1852646  38.8522424 116.4714013  39.2326482  38.7764901
 115.6056605  40.3412085  39.3363723 117.5656597  44.1132769  30.0900708
 117.1276027  43.3968628  29.6306345 118.3067038  44.3408884  29.5285799
 114.3557763  38.8029706  36.6112803 113.5425629  39.1023876  37.0177995
 114.8516757  38.4085394  37.3287286 116.5066341  48.7987463  38.5447068
 116.4642520  49.0248309  37.6155600 117.4229040  48.5650837  38.6932869
 119.9531975  39.2671530  45.4427697 120.3081363  39.4943003  46.3022163
 120.6004106  39.5989907  44.8204953 125.6829712  42.3889966  36.1477026
 125.5447610  42.5791562  35.2198215 125.3265931  43.1509349  36.6045077
 113.8471838  36.3748061  42.2274038 114.4871217  36.2336820  41.5297002
 113.0149369  36.0882575  41.8512640 125.7099092  44.4566493  41.1588298
 126.1435598  44.3641782  42.0071352 126.4230672  44.4323993  40.5208314
 114.6232142  45.6750492  38.3409031 115.4172740  45.1800812  38.1391606
 113.9123834  45.1468355  37.9776736 119.4426986  48.0568587  42.6921398
 119.4964009  48.6259523  43.4599114 118.5741768  48.2270472  42.3275436
 110.9314905  39.8193573  34.4168783 110.0012493  39.7578029  34.6338746
 111.0272377  39.2969526  33.6205425 110.8500454  36.3448386  37.0047025
 111.1107272  37.2593719  36.8956186 111.6717627  35.8772829  37.1543638
 112.3225380  37.7586143  44.1745850 112.9948433  37.5503505  43.5258499
 111.4955166  37.5608229  43.7351082 126.5714641  44.4990194  43.6921183
 126.7650531  45.4036004  43.9380458 126.4715259  44.0397613  44.5259768
 118.2250952  34.3848084  46.1911511 117.5778867  35.0838034  46.0975987
 118.9951967  34.8184228  46.5587759 121.6329750  44.6496936  49.2662064
 121.4815256  44.4207488  48.3492147 121.6234429  45.6067538  49.2793409
 118.4015086  42.2228849  44.2508330 119.3307146  42.3740009  44.0777298
 117.9806116  42.3112870  43.3956977 117.2003418  46.2479514  42.0206868
 117.0614504  45.8798298  42.8932806 116.4118014  46.7627153  41.8490826
 117.7951570  51.3488610  33.3632404 117.9703326  50.8776653  34.1778027
 117.1084358  51.9754376  33.5913665 118.7508633  45.6261116  39.4095706
 118.4158466  45.5861886  40.3053356 118.2512579  44.9605832  38.9366116
 112.7252877  41.0328746  44.9348287 112.5872675  40.3008985  45.5359826
 113.6357801  40.9437646  44.6532475 121.6867825  42.9717151  29.6832765
 121.0696995  42.2463979  29.5865818 121.2184313  43.7326511  29.3399840
 115.3535178  40.7448706  44.4231966 116.0634796  40.1041898  44.3818585
 115.3104486  40.9961600  45.3458147 123.3421956  47.6816059  47.3438546
 123.2834503  46.9975279  46.6769129 123.7441475  48.4235049  46.8919172
 114.0664112  37.7313924  46.2427606 113.5301469  37.2804662  46.8949202
 113.4780820  37.8659832  45.4998070 112.3612655  54.4977973  40.1372265
 112.6009253  55.1296497  40.8151283 111.5181852  54.1466013  40.4237624
 113.4766371  37.1902575  28.8054070 112.5995837  37.0691376  28.4416316
 113.9524124  36.3988653  28.5532958 123.3439364  45.6455643  45.5752525
 122.4566142  45.3081565  45.6978924 123.9137915  44.9138674  45.8121291
 104.9968511  41.9779735  38.8995577 105.6839551  41.6641465  38.3116592
 104.8416639  42.8821099  38.6262828 109.8003233  36.8669931  43.3280600
 109.7161422  36.2595601  42.5931010 108.9785939  37.3578950  43.3290097
 116.8740517  50.3057095  42.5413769 116.8010689  51.1112067  43.0533073
 116.4317910  50.5049061  41.7161790 116.6630297  49.5428865  36.0516590
 115.8797819  50.0850545  36.1454815 117.3623042  50.0602845  36.4510831
 119.9726947  35.3523495  38.6950795 120.4695646  34.5993457  38.3751866
 119.2013928  35.3887811  38.1294005 127.8256704  41.0563860  40.3369087
 127.8146580  41.9388576  39.9663020 126.9574084  40.7035411  40.1423624
 119.3339201  50.2043929  44.6971927 120.0467173  50.8391394  44.6247829
 118.8429229  50.3007795  43.8811929 121.0556727  44.1095182  36.2689219
 120.1213006  44.2296644  36.0993923 121.2333396  43.2067649  36.0049229
 116.5561916  37.4940878  38.4222480 116.1859703  36.9411918  39.1103386
 117.0521008  36.8899011  37.8697480 124.4429279  39.9512501  36.8039253
 124.9089731  40.7840493  36.7299556 124.8936779  39.4857483  37.5084511
 114.3851114  47.9538373  45.5177498 115.0860574  48.5874856  45.6706892
 113.9146229  48.2953104  44.7573137 122.5105510  46.2956323  33.8025405
 122.7865354  46.1812917  34.7119279 121.6410009  45.8973807  33.7637578
 122.4145942  32.3193088  40.8430154 121.5009021  32.5497315  41.0112361
 122.8439043  32.4031532  41.6944187 122.1852400  40.5082980  43.3430048
 121.5323850  40.7558888  42.6882501 122.5632780  39.6947118  43.0092526
 119.1459574  50.5442673  37.4458219 119.3281968  49.7264329  37.9085971
 119.9692560  50.7610366  37.0083109 119.4801739  49.4710859  34.7073267
 120.0089506  48.9603313  34.0943429 119.7429959  49.1553389  35.5718800
 118.2339973  41.2502791  49.8296085 117.5580610  41.1496921  50.4998461
 119.0567607  41.0942005  50.2932083 109.9818832  47.4874728  42.4508601
 110.5672269  46.7418416  42.5836505 109.7843671  47.7978685  43.3345265
 112.8357487  50.5225975  37.4671043 112.1667863  51.0072103  36.9835083
 112.6970357  50.7695196  38.3814422 104.5736487  40.0580328  41.1713044
 104.6120586  39.5243919  41.9650162 104.0676780  39.5315534  40.5524021
 116.9762756  52.5569719  44.0653701 117.5281064  52.7201340  44.8302787
 117.3168949  53.1474157  43.3933726 111.9527249  34.9044869  44.6675586
 112.0168576  35.7659699  44.2552984 111.8894369  34.2918870  43.9347945
 111.4279522  36.9768001  48.3148620 112.0551561  36.5945078  48.9286145
 110.5707441  36.7582203  48.6804313 121.8273630  47.3830976  49.9202356
 122.3713534  47.9960934  49.4257311 121.2460475  47.9410555  50.4369369
 108.2045064  38.7844430  34.2466975 108.4998506  37.8755109  34.1934029
 107.3033100  38.7632170  33.9247978 120.1131143  50.5051694  41.0517384
 119.9882283  49.7041434  40.5428329 120.7710234  50.9997888  40.5631354
 111.7339311  36.8600427  40.2294524 111.0125897  37.4736394  40.0901997
 112.5232567  37.3958192  40.1511170 122.1766052  48.3060714  42.6796934
 121.2296387  48.1866066  42.6075260 122.5248825  47.4183212  42.7623195
 114.5365625  34.1954853  46.5035176 115.0600027  34.4417150  47.2661485
 114.3177958  35.0274888  46.0838313 109.9332906  36.4658528  34.3706300
 109.6045612  35.5855907  34.1881406 110.2872277  36.4106197  35.2582690
 119.1812485  48.1013431  38.8801286 119.0337447  47.1730138  39.0608856
 120.0065978  48.1233521  38.3958361 113.0474729  36.7531498  34.7381778
 113.3870802  37.2817419  34.0160386 113.4946850  37.0911904  35.5140345
 122.7846607  48.9241989  39.9666159 123.7093154  48.7184851  39.8290610
 122.6161910  48.6758390  40.8755500 115.7418170  35.1368548  44.1884846
 115.4014990  34.3376361  44.5905526 115.0357176  35.4370259  43.6161679
 116.3934642  32.2217861  42.6412169 117.2160711  31.7478339  42.5191059
 116.6372705  33.0008345  43.1410855 115.0342876  35.2506119  32.9375071
 115.7551239  35.6287372  32.4338788 114.4108180  35.9694996  33.0410049
 119.1773999  35.9551268  33.8733403 119.3937614  36.8375906  33.5722231
 118.6968066  35.5637482  33.1439045 113.9173221  38.9136981  40.4504148
 113.7717801  39.2277284  41.3428429 113.4398424  39.5321882  39.8975046
 115.7769604  35.9039529  40.4985037 115.7631172  35.0080623  40.1617335
 116.4942032  35.9110193  41.1323323 117.6295734  36.3376870  42.5438165
 117.3713512  37.2593940  42.5422495 117.0980775  35.9407304  43.2338629
 122.5741923  49.4427657  35.3228250 122.7478801  48.8774079  34.5702103
 123.0670814  50.2428552  35.1407740 108.3918883  41.4542326  43.3891809
 107.8472351  42.2302134  43.5212083 109.2698233  41.8013130  43.2310930
 115.1806499  34.7853910  35.7672607 115.3022411  33.8570556  35.9663495
 114.8908542  34.7992596  34.8550923 118.0497690  32.4708820  38.9039327
 118.0719387  32.5348153  37.9491307 118.4665749  31.6313329  39.0979833
 128.4281314  42.2064080  36.9418550 128.8712460  41.4571405  36.5437673
 127.5507824  42.1974216  36.5592282 123.5617095  48.7594421  32.4225148
 124.2568000  49.3801114  32.6412463 123.9040246  47.9089772  32.6977526
 109.1784905  40.5812222  46.2821966 108.4366641  40.7294857  46.8686596
 108.8577649  40.8420488  45.4188715 125.4608519  46.2094127  33.9512479
 125.9859843  46.5481399  33.2261799 125.3730871  45.2741142  33.7675614
 117.1228567  50.1228200  46.0802356 117.4315694  49.8777347  46.9525055
 117.9204049  50.3274839  45.5921226 117.1449179  52.2766110  38.3107732
 116.7054170  51.7842489  39.0040589 117.8957296  51.7339078  38.0699808
 109.6241518  48.4677651  38.3132360 110.4499538  48.1681423  37.9331004
 109.2735570  47.6985273  38.7622149 114.5923051  47.8204119  40.3830034
 113.9703061  47.1574824  40.0832262 115.2627918  47.8465251  39.7003682
 107.8250123  46.3863977  39.2721294 106.9882032  45.9586152  39.0905295
 107.7973769  46.5796421  40.2092085 114.6647579  36.2985907  49.9762540
 114.7135734  37.1748030  49.5940310 115.2070093  35.7563300  49.4034183
 125.1502425  46.8427030  49.2563677 124.3597968  46.8251169  48.7168177
 124.9135779  47.3815324  50.0112714 125.2700300  43.6919497  46.5696406
 125.3198305  43.5269504  47.5111928 125.1614223  42.8246756  46.1794286
 114.1536558  46.3708042  33.8588495 114.3024679  47.0543507  33.2055167
 114.9603002  46.3513132  34.3737950 122.5604062  39.6750425  47.8855712
 123.4613925  39.5356890  47.5939710 122.6352037  39.8404880  48.8253890
 116.8946867  37.0517279  46.7308899 116.0250177  37.3450846  46.4591487
 117.1306348  37.6357724  47.4516162 126.7718497  46.1116438  46.8138427
 126.4803305  46.4746419  47.6501888 126.1590628  45.3983446  46.6351759
 127.9714179  43.6769318  39.3340997 128.8061070  44.1159122  39.4978558
 128.1073308  43.2007971  38.5149243 125.0205685  41.2349053  45.2818485
 125.4959806  41.4276699  44.4737337 124.0971250  41.2908239  45.0361869
 111.9089191  42.3973220  34.8649563 111.6635233  41.4935550  35.0629774
 112.0785106  42.3990370  33.9229041 119.5985901  33.2696896  44.2474319
 120.1167845  34.0057923  43.9220808 119.2441034  33.5760890  45.0821078
 111.1784839  38.1301578  32.3635725 110.4854084  38.2045933  31.7075761
 110.9336591  37.3661921  32.8857242 119.8498495  29.6897179  39.7675216
 120.1300249  29.0220368  40.3935642 120.6349102  29.8826275  39.2549880
 117.6531964  48.8656173  31.3300242 117.0805931  49.4846360  30.8770714
 118.2264758  49.4155534  31.8640164 123.7207354  38.1114813  43.5146791
 124.6724777  38.2112911  43.5359015 123.5510804  37.3193081  44.0244875
 121.7421733  35.1970396  43.7006192 121.1471665  35.4775409  43.0052680
 121.4571430  35.6864297  44.4722933 120.8729224  49.1493323  32.4608824
 121.8059897  49.0838885  32.6641700 120.7852437  49.9849590  32.0023357
 123.5017240  48.4659193  29.4212772 123.4230872  48.1319057  30.3148530
 124.3226907  48.9580961  29.4204244 126.1995432  41.3320933  42.6289090
 126.1671752  40.3936933  42.8148774 126.8096055  41.4104969  41.8954915
 118.0378762  40.2016986  28.6716294 118.9837867  40.0723194  28.7404713
 117.6593007  39.4631647  29.1485723 126.3489920  38.1231976  42.6747374
 125.8328969  37.3390433  42.4877302 127.2329869  37.7950693  42.8393893
 124.0100647  31.8672992  38.6343186 123.8125468  31.5588080  39.5186518
 124.6200353  32.5934630  38.7641116 132.0171981  42.3936939  41.7695127
 132.7475370  42.1322228  42.3302831 131.4078927  41.6565661  41.8097195
 130.0987279  40.5344802  42.3669578 129.3720442  40.4000767  41.7586070
 129.6834565  40.8421631  43.1726296 117.9217455  44.2534732  50.1316951
 118.8420464  44.4313331  50.3256998 117.8867038  43.3090777  49.9796651
 116.2221680  38.1266962  28.6071180 115.3153135  37.8300075  28.6833893
 116.4997661  37.8296780  27.7405466 107.1399620  39.4473325  39.0570226
 106.8202404  38.5938634  38.7644600 106.5933048  39.6621904  39.8128193
 110.9179528  42.1635766  42.7739733 111.1365537  43.0952874  42.7927766
 111.3305301  41.8043741  43.5594536 117.8383745  32.6703852  34.7615421
 117.0284474  32.3250937  35.1370667 118.5268162  32.3611395  35.3503033
 119.7674294  31.7481898  36.3839718 120.3205332  32.1677352  37.0429741
 120.0044380  30.8217647  36.4262674 115.7907393  37.7368972  52.1642482
 115.6904120  38.6863329  52.0954573 115.5728935  37.4087211  51.2918552
 114.9920464  34.9853897  28.7483159 115.8539628  35.3108795  29.0078976
 115.1770808  34.1985393  28.2356225 107.0087880  43.0676237  41.0263348
 106.3151351  42.6530190  40.5133302 107.7560871  43.1096773  40.4296767
 123.1453101  33.8582424  35.8918382 122.5651770  34.5167228  35.5096434
 122.8789033  33.0359768  35.4805799 121.5956667  33.2587481  38.0939702
 122.0956445  33.3704016  37.2854021 122.2392275  32.9548534  38.7340511
 115.6538663  41.1666111  50.9807543 115.1705745  41.9666471  51.1871432
 115.7399602  41.1774056  50.0274987 108.9224622  42.9994491  38.9029363
 108.8995311  43.0982178  37.9511246 109.2325259  43.8459641  39.2246529
 111.5812000  45.0570646  43.0175977 112.5355254  45.0254588  42.9505909
 111.3824524  44.5961269  43.8326203 112.1711382  43.6271762  45.5846775
 112.9904271  44.1215840  45.6081612 112.4448190  42.7103730  45.5564342
 121.9277979  36.0182514  34.9474730 121.0403834  36.3032165  34.7294925
 122.3431968  35.8576277  34.1002007 125.2792515  36.0429035  38.6629069
 126.0552905  36.5325487  38.9353686 124.5540649  36.4687089  39.1200939
 127.7165073  36.7556654  39.7203010 128.3109564  36.5152390  39.0096318
 127.7891657  36.0363785  40.3476546 109.9362229  50.5990265  40.0346175
 109.8016697  49.8390666  39.4684173 109.5194291  51.3231165  39.5674964
 121.0721192  45.7827189  29.0422750 121.7757042  45.9877191  29.6580406
 120.3483841  46.3503951  29.3071834 121.9019002  41.5337050  35.1625020
 121.8454204  41.9905601  34.3232653 122.4547345  40.7727735  34.9847863
 125.7123808  37.3226782  35.9875140 125.4560743  36.9223417  36.8183348
 125.0876676  38.0370576  35.8625279 130.0236146  40.0622855  38.4946431
 129.4635704  40.1316044  39.2677993 129.4179650  39.8863840  37.7745927
 113.0931355  51.4959582  40.2464618 112.9763739  52.4405015  40.1443308
 112.2723801  51.1933144  40.6350417 122.9807890  46.2209718  31.0921210
 123.8153493  45.7890916  30.9098685 122.8192232  46.0491732  32.0198105
 122.6353782  42.7241831  32.4577550 122.5802586  42.5586103  31.5165994
 122.0099837  43.4317864  32.6139739 107.4246297  37.9609896  46.2838972
 108.0705160  37.4508850  46.7726197 107.2163448  38.6978577  46.8582397
 119.9499689  45.0290743  51.7831112 120.8190849  45.2031395  51.4217747
 119.4706440  45.8485160  51.6606842 115.9449907  32.2249940  32.0362868
 115.9328577  33.1691780  32.1931139 116.8373329  32.0420086  31.7422329
 114.1185869  52.1487844  43.4620546 115.0213116  52.1811454  43.7787041
 113.8923239  51.2188295  43.4766882 115.8739471  50.9018831  40.1230625
 114.9235102  50.9020692  40.0094997 116.1771957  50.1551565  39.6066659
 119.7602027  28.8192717  36.2908805 118.9934422  28.2651204  36.4365487
 120.1712732  28.8914586  37.1522956 111.7643788  35.1077513  50.3813986
 112.6275249  34.7514317  50.5917311 111.1909198  34.7691407  51.0689390
 131.6092165  56.7379369  41.1876387 132.2470575  56.6186116  40.4839727
 131.4913008  57.6860213  41.2464339 128.4181871  56.6906797  41.1237912
 128.0800382  56.5747862  40.2358447 129.2871639  56.2897962  41.1038918
 124.2768687  58.5442274  37.1134803 123.7133552  58.4532210  36.3451090
 124.1621082  57.7242178  37.5937295 128.9001654  57.8441649  47.0824117
 128.8890295  57.4494447  46.2104621 129.0622293  57.1107721  47.6757889
 121.8233119  60.0393465  39.9519023 122.6154410  59.6984290  39.5365322
 122.0629769  60.1488440  40.8721176 129.8568245  62.2113241  32.4249268
 129.2056225  62.7967322  32.0383281 130.6512608  62.7419436  32.4844305
 123.7823873  59.3002378  32.8236402 124.5554749  58.7531365  32.6849278
 124.1349271  60.1646628  33.0350863 125.6208915  60.6278761  46.0303301
 125.3298781  61.5324391  45.9149967 126.2565899  60.6695288  46.7447371
 126.5465122  58.0055609  42.6204661 127.1428694  57.7811632  41.9061624
 126.6040093  57.2640355  43.2230109 126.1190150  55.4595044  30.4554852
 126.3715671  54.9376566  29.6938315 125.1814709  55.2961190  30.5581535
 131.1633433  54.4630823  38.2629595 131.9496522  54.0450246  37.9120012
 131.4272137  55.3676915  38.4311243 131.3343510  59.9003673  32.9618252
 130.6989343  59.9738300  33.6739156 131.0040917  60.4897272  32.2837331
 136.5641860  54.4006056  39.1662574 137.2967032  53.8305273  39.4000403
 135.8081216  54.0127656  39.6069079 125.8386439  57.3623150  32.6579227
 125.7222697  56.6868054  33.3260311 125.9488699  56.8755524  31.8411380
 128.1817980  56.8233298  36.3625916 127.8176187  56.2963919  37.0738837
 129.0385096  56.4331767  36.1892401 134.0867281  48.1127630  43.6257182
 133.7550605  48.9823041  43.4018397 133.4912894  47.7963914  44.3051213
 127.8223467  51.8523197  31.3587264 127.9897869  52.7203434  31.7257736
 127.6320636  52.0150479  30.4348554 130.5798800  60.3140176  43.0253095
 130.2799523  61.2165215  42.9168902 130.2349860  60.0472359  43.8774248
 124.0311282  56.7653973  39.0589799 123.1061778  56.6330187  39.2667491
 124.2795695  57.5448192  39.5559742 133.9795944  52.8322716  40.7050532
 133.0712821  52.7638125  40.4109293 133.9283540  53.3094661  41.5332358
 127.8012688  54.3080855  32.3433931 127.6812313  54.7537906  33.1819412
 127.1065276  54.6566172  31.7847469 121.3920093  56.4087247  39.8933588
 121.5212474  56.6621725  40.8073000 120.7117544  57.0014955  39.5738243
 125.5619580  67.0784496  35.9924063 125.4843610  68.0292322  36.0712543
 124.9581224  66.7330369  36.6498989 128.0536810  54.2512362  48.6485429
 127.2770144  54.8106282  48.6388294 128.6927373  54.7369145  49.1700300
 135.8457590  51.0339155  42.4828406 135.2031971  51.3271688  41.8368201
 135.3412519  50.9192075  43.2881603 133.4997754  54.7802328  33.1714265
 134.4115610  55.0129715  32.9961963 132.9907401  55.3639372  32.6089344
 126.3083182  57.0597815  48.2103396 127.0497866  57.5982859  47.9338220
 125.6020168  57.6864104  48.3674948 131.7838522  59.2026956  46.8075558
 132.1921878  58.7609366  46.0630190 131.0615783  58.6279583  47.0609751
 128.1369592  54.1399563  44.1809115 128.9830787  54.5638976  44.3243764
 128.0768229  53.4833187  44.8747678 132.1067336  59.7628146  40.5627847
 131.4776199  59.9273860  39.8603915 131.7192998  60.1769756  41.3338811
 135.9856568  60.6982584  37.9172211 135.3007606  61.0781486  37.3669244
 136.0700418  61.3077911  38.6504158 131.2869037  51.8003931  45.8390289
 131.0429969  52.5545991  45.3024564 131.5628968  52.1789278  46.6737536
 133.2407500  58.3442543  44.5167554 133.4524395  58.9874303  43.8401935
 133.1937248  57.5104860  44.0489484 130.8433729  50.9560364  41.4204126
 129.9818208  51.2541617  41.7120864 130.8696163  51.1730763  40.4885159
 127.6595298  59.5002554  37.8277932 128.1233644  59.7790257  37.0382554
 127.3952096  58.5985999  37.6451023 124.5519379  59.0474036  40.7657695
 125.1220736  59.4761304  40.1275180 125.1427491  58.7656621  41.4641881
 126.5964184  55.6225707  34.6367497 127.2988228  56.0746750  35.1041423
 126.2644813  54.9809526  35.2647390 125.0444546  54.2137463  49.0118706
 124.4143206  54.8953744  49.2454103 124.9380634  54.1020545  48.0671845
 120.3389518  53.8809259  39.9384631 119.5488572  54.1366788  39.4624741
 120.8300766  54.6957597  40.0436671 134.3553328  61.2214499  42.6889911
 135.1770771  60.8194686  42.4072593 134.3515731  61.1182733  43.6406027
 122.2904264  54.2453839  36.8968107 121.4935427  54.3572533  37.4151603
 122.0629856  54.5840491  36.0308998 128.1209931  60.7698542  44.8450622
 128.1854364  61.2318949  45.6808794 127.4120855  60.1395907  44.9732932
 118.6227221  54.1339750  42.3699621 118.8735260  55.0186760  42.6357197
 119.1586770  53.9544351  41.5974713 142.4459321  57.5653247  39.0374883
 141.6923029  56.9960645  38.8818887 142.5806862  57.5315912  39.9845518
 127.8357949  62.4366649  34.7129602 127.7003624  63.2818185  35.1414450
 128.3767761  62.6385927  33.9495536 124.3225289  48.5158229  51.3743957
 123.9292234  47.9624428  52.0491602 125.1391429  48.8268808  51.7650475
 121.2887346  59.9542087  35.2857527 121.8011867  60.7485338  35.4363092
 121.9410059  59.2568378  35.2191129 123.0982231  63.0707844  37.3680281
 123.2748859  63.9925808  37.1801264 123.8939064  62.7566263  37.7974660
 127.2393250  49.9316108  48.9664214 127.9802963  50.5323262  48.8868677
 127.4711172  49.1893746  48.4082257 122.3834588  55.1172476  47.2442444
 122.2688103  54.2157733  47.5449543 121.5279105  55.3636172  46.8927260
 129.4626425  63.0590216  48.8429944 129.0190279  62.2726595  48.5250849
 130.1243639  63.2469366  48.1773835 124.2213546  64.5886018  43.3690623
 124.7720972  64.4603081  42.5967617 123.3825022  64.8880907  43.0185516
 131.5607663  63.3393016  46.8711346 131.5426139  64.1601897  46.3791615
 132.4827583  63.2147091  47.0961487 128.0180717  60.8537145  47.7134854
 128.5509054  60.0925434  47.4834162 127.4894799  60.5610797  48.4559008
 131.1850412  45.9597211  43.2428496 130.8414682  46.8498853  43.1667606
 131.5529375  45.7698869  42.3798081 119.2536263  58.2830742  36.0617098
 120.0911485  58.6927750  35.8450806 119.4314531  57.3430184  36.0317292
 131.1500695  55.9505822  31.7500931 130.6347319  56.7210427  31.9889318
 130.8778004  55.2770959  32.3733992 128.7347806  50.7955523  36.8086169
 127.8789403  50.4062374  36.6291808 129.1474758  50.8747484  35.9485955
 130.2646953  48.3301866  41.2077729 129.7611748  48.2932002  40.3945534
 130.5577560  49.2394609  41.2674386 126.5089839  48.4140596  40.2143911
 127.3742835  48.2183405  39.8549800 126.5767348  48.1850948  41.1413267
 136.1234969  58.7038177  33.6854104 135.3464412  58.3649337  33.2409266
 136.8026450  58.7090800  33.0109069 130.9386998  53.8232915  33.5760712
 130.6337134  54.1379064  34.4270855 131.8917440  53.9014334  33.6188045
 129.3833430  59.9823138  35.2253666 128.8554792  59.2475897  34.9126903
 128.8820933  60.7597814  34.9793634 134.3626276  58.1772158  40.3420712
 133.7049951  58.8671420  40.4300841 135.1666675  58.5668590  40.6854699
 124.1152158  50.6442804  37.5860278 124.6895910  50.4217986  36.8533470
 124.7023140  50.7131499  38.3388879 133.1731735  56.5316531  38.3924654
 133.6863617  57.1646523  38.8946364 133.8232959  55.9317727  38.0268014
 124.4421745  52.6747265  31.6056163 123.6059057  53.0121952  31.9265438
 124.3026515  52.5396245  30.6683300 126.4174826  47.5184053  36.3135347
 125.7639238  47.2033070  35.6891962 126.3755300  46.8959793  37.0395170
 127.5286030  57.8003348  28.2288639 126.6213092  57.5692602  28.4279788
 128.0257062  57.0040967  28.4162621 130.4354109  66.5100855  31.1485325
 129.7615808  66.8132552  31.7570283 130.8219931  67.3129936  30.7990782
 129.6512566  54.0065987  40.6382995 128.7335127  54.2280934  40.4804683
 130.0672709  54.0812297  39.7794702 130.4347614  55.4057402  35.7685675
 131.1819433  55.9178799  35.4592797 130.7039203  55.0841455  36.6290068
 128.7074264  57.9015943  32.7512629 127.7985483  57.6174976  32.8485099
 128.7369348  58.3215022  31.8915936 133.9393531  61.5122532  36.5203797
 133.4855858  60.6713442  36.5768987 133.3087498  62.1483931  36.8578577
 132.8826451  52.4414519  37.7504464 132.1449208  51.9291905  38.0814707
 133.1353224  52.0014900  36.9387741 132.3826470  63.3499029  37.4553615
 132.6749445  63.9104086  36.7365980 132.8925091  63.6427590  38.2106774
 132.9838078  45.2190771  38.3446233 133.2896955  44.3588134  38.0572148
 133.7090683  45.8108391  38.1445227 119.2762434  55.6221457  36.7327831
 119.0786834  55.0290818  36.0078898 118.7209098  55.3173667  37.4503770
 127.2559158  55.5144564  38.8522424 127.3107768  54.5618400  38.7764901
 126.4450360  55.6704003  39.3363723 128.4050352  59.4424687  30.0900708
 127.9669782  58.7260546  29.6306345 129.1460792  59.6700801  29.5285799
 125.1951518  54.1321623  36.6112803 124.3819383  54.4315794  37.0177995
 125.6910512  53.7377312  37.3287286 127.3460096  64.1279380  38.5447068
 127.3036274  64.3540227  37.6155600 128.2622795  63.8942755  38.6932869
 130.7925729  54.5963448  45.4427697 131.1475117  54.8234921  46.3022163
 131.4397861  54.9281825  44.8204953 136.5223466  57.7181884  36.1477026
 136.3841365  57.9083480  35.2198215 136.1659685  58.4801267  36.6045077
 124.6865593  51.7039979  42.2274038 125.3264972  51.5628738  41.5297002
 123.8543123  51.4174492  41.8512640 136.5492846  59.7858411  41.1588298
 136.9829353  59.6933700  42.0071352 137.2624427  59.7615911  40.5208314
 125.4625896  61.0042409  38.3409031 126.2566495  60.5092729  38.1391606
 124.7517589  60.4760272  37.9776736 130.2820741  63.3860505  42.6921398
 130.3357763  63.9551441  43.4599114 129.4135522  63.5562390  42.3275436
 121.7708660  55.1485491  34.4168783 120.8406248  55.0869946  34.6338746
 121.8666132  54.6261444  33.6205425 121.6894209  51.6740304  37.0047025
 121.9501026  52.5885637  36.8956186 122.5111381  51.2064746  37.1543638
 123.1619134  53.0878061  44.1745850 123.8342188  52.8795423  43.5258499
 122.3348921  52.8900147  43.7351082 137.4108396  59.8282111  43.6921183
 137.6044286  60.7327922  43.9380458 137.3109014  59.3689530  44.5259768
 129.0644706  49.7140002  46.1911511 128.4172621  50.4129952  46.0975987
 129.8345722  50.1476146  46.5587759 132.4723504  59.9788854  49.2662064
 132.3209011  59.7499406  48.3492147 132.4628184  60.9359456  49.2793409
 129.2408841  57.5520767  44.2508330 130.1700901  57.7031926  44.0777298
 128.8199871  57.6404788  43.3956977 128.0397172  61.5771431  42.0206868
 127.9008258  61.2090216  42.8932806 127.2511769  62.0919071  41.8490826
 128.6345324  66.6780528  33.3632404 128.8097080  66.2068571  34.1778027
 127.9478112  67.3046294  33.5913665 129.5902388  60.9553034  39.4095706
 129.2552220  60.9153804  40.3053356 129.0906333  60.2897750  38.9366116
 123.5646632  56.3620664  44.9348287 123.4266429  55.6300903  45.5359826
 124.4751555  56.2729564  44.6532475 132.5261579  58.3009068  29.6832765
 131.9090750  57.5755896  29.5865818 132.0578068  59.0618429  29.3399840
 126.1928932  56.0740623  44.4231966 126.9028551  55.4333816  44.3818585
 126.1498240  56.3253518  45.3458147 134.1815711  63.0107977  47.3438546
 134.1228257  62.3267197  46.6769129 134.5835229  63.7526967  46.8919172
 124.9057866  53.0605841  46.2427606 124.3695223  52.6096580  46.8949202
 124.3174575  53.1951750  45.4998070 123.2006410  69.8269890  40.1372265
 123.4403008  70.4588415  40.8151283 122.3575606  69.4757931  40.4237624
 124.3160125  52.5194493  28.8054070 123.4389591  52.3983293  28.4416316
 124.7917878  51.7280571  28.5532958 134.1833118  60.9747561  45.5752525
 133.2959897  60.6373482  45.6978924 134.7531669  60.2430592  45.8121291
 115.8362265  57.3071652  38.8995577 116.5233305  56.9933382  38.3116592
 115.6810394  58.2113017  38.6262828 120.6396987  52.1961849  43.3280600
 120.5555176  51.5887518  42.5931010 119.8179694  52.6870867  43.3290097
 127.7134272  65.6349013  42.5413769 127.6404443  66.4403984  43.0533073
 127.2711665  65.8340979  41.7161790 127.5024051  64.8720783  36.0516590
 126.7191573  65.4142463  36.1454815 128.2016796  65.3894763  36.4510831
 130.8120701  50.6815412  38.6950795 131.3089401  49.9285375  38.3751866
 130.0407683  50.7179729  38.1294005 138.6650459  56.3855778  40.3369087
 138.6540335  57.2680493  39.9663020 137.7967838  56.0327329  40.1423624
 130.1732955  65.5335847  44.6971927 130.8860927  66.1683312  44.6247829
 129.6822984  65.6299713  43.8811929 131.8950482  59.4387100  36.2689219
 130.9606761  59.5588562  36.0993923 132.0727150  58.5359566  36.0049229
 127.3955670  52.8232795  38.4222480 127.0253458  52.2703836  39.1103386
 127.8914762  52.2190929  37.8697480 135.2823033  55.2804419  36.8039253
 135.7483486  56.1132411  36.7299556 135.7330534  54.8149400  37.5084511
 125.2244869  63.2830290  45.5177498 125.9254328  63.9166773  45.6706892
 124.7539984  63.6245022  44.7573137 133.3499264  61.6248240  33.8025405
 133.6259108  61.5104835  34.7119279 132.4803763  61.2265725  33.7637578
 133.2539696  47.6485006  40.8430154 132.3402776  47.8789233  41.0112361
 133.6832798  47.7323450  41.6944187 133.0246155  55.8374898  43.3430048
 132.3717605  56.0850805  42.6882501 133.4026534  55.0239036  43.0092526
 129.9853328  65.8734591  37.4458219 130.1675723  65.0556247  37.9085971
 130.8086314  66.0902283  37.0083109 130.3195494  64.8002776  34.7073267
 130.8483260  64.2895231  34.0943429 130.5823714  64.4845306  35.5718800
 129.0733728  56.5794709  49.8296085 128.3974365  56.4788838  50.4998461
 129.8961361  56.4233923  50.2932083 120.8212587  62.8166645  42.4508601
 121.4066023  62.0710333  42.5836505 120.6237425  63.1270602  43.3345265
 123.6751242  65.8517893  37.4671043 123.0061617  66.3364020  36.9835083
 123.5364112  66.0987113  38.3814422 115.4130241  55.3872246  41.1713044
 115.4514341  54.8535836  41.9650162 114.9070534  54.8607451  40.5524021
 127.8156510  67.8861636  44.0653701 128.3674818  68.0493258  44.8302787
 128.1562704  68.4766074  43.3933726 122.7921004  50.2336786  44.6675586
 122.8562330  51.0951617  44.2552984 122.7288124  49.6210788  43.9347945
 122.2673276  52.3059919  48.3148620 122.8945315  51.9236996  48.9286145
 121.4101195  52.0874121  48.6804313 132.6667385  62.7122894  49.9202356
 133.2107289  63.3252852  49.4257311 132.0854230  63.2702472  50.4369369
 119.0438819  54.1136348  34.2466975 119.3392260  53.2047026  34.1934029
 118.1426855  54.0924087  33.9247978 130.9524898  65.8343612  41.0517384
 130.8276037  65.0333352  40.5428329 131.6103989  66.3289805  40.5631354
 122.5733066  52.1892344  40.2294524 121.8519652  52.8028312  40.0901997
 123.3626322  52.7250109  40.1511170 133.0159806  63.6352632  42.6796934
 132.0690142  63.5157983  42.6075260 133.3642579  62.7475130  42.7623195
 125.3759379  49.5246771  46.5035176 125.8993781  49.7709067  47.2661485
 125.1571713  50.3566806  46.0838313 120.7726661  51.7950445  34.3706300
 120.4439367  50.9147824  34.1881406 121.1266031  51.7398114  35.2582690
 130.0206239  63.4305348  38.8801286 129.8731202  62.5022056  39.0608856
 130.8459733  63.4525439  38.3958361 123.8868484  52.0823415  34.7381778
 124.2264556  52.6109337  34.0160386 124.3340604  52.4203821  35.5140345
 133.6240361  64.2533907  39.9666159 134.5486909  64.0476768  39.8290610
 133.4555665  64.0050308  40.8755500 126.5811925  50.4660466  44.1884846
 126.2408745  49.6668279  44.5905526 125.8750931  50.7662177  43.6161679
 127.2328396  47.5509778  42.6412169 128.0554466  47.0770257  42.5191059
 127.4766460  48.3300262  43.1410855 125.8736631  50.5798037  32.9375071
 126.5944993  50.9579290  32.4338788 125.2501935  51.2986914  33.0410049
 130.0167754  51.2843186  33.8733403 130.2331368  52.1667824  33.5722231
 129.5361821  50.8929399  33.1439045 124.7566975  54.2428899  40.4504148
 124.6111556  54.5569202  41.3428429 124.2792179  54.8613799  39.8975046
 126.6163358  51.2331447  40.4985037 126.6024927  50.3372540  40.1617335
 127.3335786  51.2402111  41.1323323 128.4689489  51.6668787  42.5438165
 128.2107267  52.5885858  42.5422495 127.9374529  51.2699222  43.2338629
 133.4135677  64.7719574  35.3228250 133.5872555  64.2065997  34.5702103
 133.9064569  65.5720469  35.1407740 119.2312637  56.7834243  43.3891809
 118.6866105  57.5594051  43.5212083 120.1091987  57.1305048  43.2310930
 126.0200254  50.1145827  35.7672607 126.1416165  49.1862474  35.9663495
 125.7302296  50.1284513  34.8550923 128.8891444  47.8000738  38.9039327
 128.9113141  47.8640071  37.9491307 129.3059503  46.9605246  39.0979833
 139.2675069  57.5355997  36.9418550 139.7106215  56.7863323  36.5437673
 138.3901579  57.5266134  36.5592282 134.4010850  64.0886339  32.4225148
 135.0961755  64.7093031  32.6412463 134.7434000  63.2381690  32.6977526
 120.0178659  55.9104140  46.2821966 119.2760395  56.0586775  46.8686596
 119.6971403  56.1712405  45.4188715 136.3002273  61.5386044  33.9512479
 136.8253597  61.8773317  33.2261799 136.2124626  60.6033060  33.7675614
 127.9622322  65.4520118  46.0802356 128.2709448  65.2069265  46.9525055
 128.7597804  65.6566756  45.5921226 127.9842934  67.6058028  38.3107732
 127.5447924  67.1134406  39.0040589 128.7351051  67.0630995  38.0699808
 120.4635273  63.7969568  38.3132360 121.2893293  63.4973340  37.9331004
 120.1129325  63.0277191  38.7622149 125.4316806  63.1496037  40.3830034
 124.8096815  62.4866742  40.0832262 126.1021673  63.1757169  39.7003682
 118.6643878  61.7155895  39.2721294 117.8275786  61.2878069  39.0905295
 118.6367523  61.9088338  40.2092085 125.5041333  51.6277825  49.9762540
 125.5529489  52.5039948  49.5940310 126.0463848  51.0855218  49.4034183
 135.9896179  62.1718948  49.2563677 135.1991723  62.1543087  48.7168177
 135.7529534  62.7107242  50.0112714 136.1094054  59.0211414  46.5696406
 136.1592059  58.8561422  47.5111928 136.0007978  58.1538673  46.1794286
 124.9930313  61.6999960  33.8588495 125.1418433  62.3835424  33.2055167
 125.7996756  61.6805050  34.3737950 133.3997817  55.0042342  47.8855712
 134.3007679  54.8648807  47.5939710 133.4745791  55.1696797  48.8253890
 127.7340622  52.3809197  46.7308899 126.8643931  52.6742763  46.4591487
 127.9700102  52.9649642  47.4516162 137.6112251  61.4408356  46.8138427
 137.3197059  61.8038336  47.6501888 136.9984382  60.7275364  46.6351759
 138.8107933  59.0061236  39.3340997 139.6454825  59.4451040  39.4978558
 138.9467062  58.5299889  38.5149243 135.8599439  56.5640970  45.2818485
 136.3353561  56.7568617  44.4737337 134.9365005  56.6200156  45.0361869
 122.7482946  57.7265138  34.8649563 122.5028988  56.8227468  35.0629774
 122.9178860  57.7282288  33.9229041 130.4379656  48.5988814  44.2474319
 130.9561600  49.3349841  43.9220808 130.0834789  48.9052807  45.0821078
 122.0178593  53.4593495  32.3635725 121.3247838  53.5337850  31.7075761
 121.7730345  52.6953839  32.8857242 130.6892250  45.0189097  39.7675216
 130.9694004  44.3512286  40.3935642 131.4742857  45.2118192  39.2549880
 128.4925718  64.1948090  31.3300242 127.9199686  64.8138278  30.8770714
 129.0658512  64.7447452  31.8640164 134.5601108  53.4406731  43.5146791
 135.5118531  53.5404828  43.5359015 134.3904559  52.6484999  44.0244875
 132.5815488  50.5262314  43.7006192 131.9865420  50.8067327  43.0052680
 132.2965184  51.0156215  44.4722933 131.7122978  64.4785241  32.4608824
 132.6453651  64.4130802  32.6641700 131.6246191  65.3141507  32.0023357
 134.3410995  63.7951111  29.4212772 134.2624626  63.4610975  30.3148530
 135.1620662  64.2872879  29.4204244 137.0389186  56.6612850  42.6289090
 137.0065506  55.7228851  42.8148774 137.6489810  56.7396887  41.8954915
 128.8772517  55.5308903  28.6716294 129.8231622  55.4015111  28.7404713
 128.4986762  54.7923565  29.1485723 137.1883675  53.4523894  42.6747374
 136.6722723  52.6682350  42.4877302 138.0723623  53.1242610  42.8393893
 134.8494401  47.1964909  38.6343186 134.6519223  46.8879997  39.5186518
 135.4594107  47.9226548  38.7641116 142.8565736  57.7228857  41.7695127
 143.5869124  57.4614145  42.3302831 142.2472681  56.9857579  41.8097195
 140.9381033  55.8636720  42.3669578 140.2114197  55.7292685  41.7586070
 140.5228320  56.1713548  43.1726296 128.7611209  59.5826649  50.1316951
 129.6814219  59.7605248  50.3256998 128.7260792  58.6382695  49.9796651
 127.0615434  53.4558880  28.6071180 126.1546889  53.1591992  28.6833893
 127.3391415  53.1588698  27.7405466 117.9793374  54.7765243  39.0570226
 117.6596159  53.9230551  38.7644600 117.4326803  54.9913821  39.8128193
 121.7573282  57.4927684  42.7739733 121.9759292  58.4244792  42.7927766
 122.1699056  57.1335658  43.5594536 128.6777500  47.9995769  34.7615421
 127.8678228  47.6542854  35.1370667 129.3661917  47.6903313  35.3503033
 130.6068048  47.0773816  36.3839718 131.1599087  47.4969270  37.0429741
 130.8438134  46.1509564  36.4262674 126.6301147  53.0660890  52.1642482
 126.5297874  54.0155247  52.0954573 126.4122689  52.7379129  51.2918552
 125.8314219  50.3145815  28.7483159 126.6933383  50.6400713  29.0078976
 126.0164563  49.5277311  28.2356225 117.8481634  58.3968155  41.0263348
 117.1545106  57.9822107  40.5133302 118.5954625  58.4388691  40.4296767
 133.9846855  49.1874341  35.8918382 133.4045524  49.8459145  35.5096434
 133.7182788  48.3651686  35.4805799 132.4350422  48.5879399  38.0939702
 132.9350200  48.6995934  37.2854021 133.0786029  48.2840452  38.7340511
 126.4932417  56.4958029  50.9807543 126.0099499  57.2958389  51.1871432
 126.5793356  56.5065973  50.0274987 119.7618377  58.3286408  38.9029363
 119.7389065  58.4274096  37.9511246 120.0719013  59.1751559  39.2246529
 122.4205755  60.3862563  43.0175977 123.3749008  60.3546506  42.9505909
 122.2218278  59.9253187  43.8326203 123.0105137  58.9563679  45.5846775
 123.8298026  59.4507758  45.6081612 123.2841945  58.0395648  45.5564342
 132.7671733  51.3474432  34.9474730 131.8797588  51.6324082  34.7294925
 133.1825722  51.1868195  34.1002007 136.1186269  51.3720953  38.6629069
 136.8946659  51.8617405  38.9353686 135.3934403  51.7979007  39.1200939
 138.5558828  52.0848572  39.7203010 139.1503319  51.8444308  39.0096318
 138.6285412  51.3655702  40.3476546 120.7755984  65.9282183  40.0346175
 120.6410452  65.1682584  39.4684173 120.3588046  66.6523083  39.5674964
 131.9114947  61.1119106  29.0422750 132.6150797  61.3169109  29.6580406
 131.1877595  61.6795868  29.3071834 132.7412757  56.8628968  35.1625020
 132.6847958  57.3197519  34.3232653 133.2941099  56.1019652  34.9847863
 136.5517563  52.6518699  35.9875140 136.2954497  52.2515335  36.8183348
 135.9270431  53.3662493  35.8625279 140.8629901  55.3914773  38.4946431
 140.3029459  55.4607962  39.2677993 140.2573404  55.2155757  37.7745927
 123.9325110  66.8251500  40.2464618 123.8157494  67.7696932  40.1443308
 123.1117556  66.5225061  40.6350417 133.8201644  61.5501636  31.0921210
 134.6547248  61.1182834  30.9098685 133.6585987  61.3783649  32.0198105
 133.4747536  58.0533749  32.4577550 133.4196340  57.8878020  31.5165994
 132.8493592  58.7609782  32.6139739 118.2640051  53.2901813  46.2838972
 118.9098915  52.7800767  46.7726197 118.0557202  54.0270495  46.8582397
 130.7893443  60.3582661  51.7831112 131.6584603  60.5323313  51.4217747
 130.3100195  61.1777078  51.6606842 126.7843662  47.5541858  32.0362868
 126.7722332  48.4983698  32.1931139 127.6767084  47.3712003  31.7422329
 124.9579624  67.4779762  43.4620546 125.8606870  67.5103372  43.7787041
 124.7316994  66.5480213  43.4766882 126.7133226  66.2310748  40.1230625
 125.7628857  66.2312610  40.0094997 127.0165712  65.4843483  39.6066659
 130.5995781  44.1484635  36.2908805 129.8328177  43.5943121  36.4365487
 131.0106486  44.2206503  37.1522956 122.6037542  50.4369430  50.3813986
 123.4669004  50.0806235  50.5917311 122.0302953  50.0983325  51.0689390
 142.4485919  72.0671287  41.1876387 143.0864329  71.9478034  40.4839727
 142.3306762  73.0152131  41.2464339 139.2575625  72.0198715  41.1237912
 138.9194137  71.9039779  40.2358447 140.1265394  71.6189880  41.1038918
 135.1162441  73.8734191  37.1134803 134.5527306  73.7824128  36.3451090
 135.0014836  73.0534096  37.5937295 139.7395408  73.1733566  47.0824117
 139.7284049  72.7786365  46.2104621 139.9016048  72.4399639  47.6757889
 132.6626873  75.3685383  39.9519023 133.4548165  75.0276207  39.5365322
 132.9023523  75.4780358  40.8721176 140.6962000  77.5405159  32.4249268
 140.0449980  78.1259239  32.0383281 141.4906363  78.0711354  32.4844305
 134.6217627  74.6294296  32.8236402 135.3948503  74.0823283  32.6849278
 134.9743026  75.4938545  33.0350863 136.4602670  75.9570678  46.0303301
 136.1692536  76.8616309  45.9149967 137.0959654  75.9987206  46.7447371
 137.3858876  73.3347527  42.6204661 137.9822449  73.1103549  41.9061624
 137.4433848  72.5932272  43.2230109 136.9583905  70.7886962  30.4554852
 137.2109425  70.2668483  29.6938315 136.0208464  70.6253108  30.5581535
 142.0027188  69.7922741  38.2629595 142.7890277  69.3742164  37.9120012
 142.2665892  70.6968833  38.4311243 142.1737265  75.2295591  32.9618252
 141.5383098  75.3030217  33.6739156 141.8434671  75.8189190  32.2837331
 147.4035615  69.7297974  39.1662574 148.1360787  69.1597191  39.4000403
 146.6474970  69.3419574  39.6069079 136.6780194  72.6915068  32.6579227
 136.5616452  72.0159971  33.3260311 136.7882453  72.2047442  31.8411380
 139.0211734  72.1525215  36.3625916 138.6569942  71.6255836  37.0738837
 139.8778850  71.7623684  36.1892401 144.9261035  63.4419548  43.6257182
 144.5944360  64.3114959  43.4018397 144.3306649  63.1255832  44.3051213
 138.6617221  67.1815115  31.3587264 138.8291624  68.0495351  31.7257736
 138.4714391  67.3442397  30.4348554 141.4192555  75.6432094  43.0253095
 141.1193278  76.5457133  42.9168902 141.0743614  75.3764277  43.8774248
 134.8705036  72.0945891  39.0589799 133.9455533  71.9622105  39.2667491
 135.1189449  72.8740110  39.5559742 144.8189698  68.1614634  40.7050532
 143.9106576  68.0930042  40.4109293 144.7677294  68.6386579  41.5332358
 138.6406442  69.6372772  32.3433931 138.5206068  70.0829823  33.1819412
 137.9459031  69.9858090  31.7847469 132.2313847  71.7379164  39.8933588
 132.3606228  71.9913643  40.8073000 131.5511298  72.3306872  39.5738243
 136.4013334  82.4076414  35.9924063 136.3237364  83.3584239  36.0712543
 135.7974978  82.0622287  36.6498989 138.8930564  69.5804280  48.6485429
 138.1163898  70.1398200  48.6388294 139.5321127  70.0661063  49.1700300
 146.6851345  66.3631072  42.4828406 146.0425725  66.6563606  41.8368201
 146.1806273  66.2483993  43.2881603 144.3391509  70.1094246  33.1714265
 145.2509365  70.3421632  32.9961963 143.8301156  70.6931290  32.6089344
 137.1476937  72.3889733  48.2103396 137.8891621  72.9274777  47.9338220
 136.4413922  73.0156022  48.3674948 142.6232276  74.5318873  46.8075558
 143.0315632  74.0901284  46.0630190 141.9009538  73.9571501  47.0609751
 138.9763346  69.4691480  44.1809115 139.8224541  69.8930894  44.3243764
 138.9161984  68.8125105  44.8747678 142.9461091  75.0920064  40.5627847
 142.3169953  75.2565778  39.8603915 142.5586753  75.5061674  41.3338811
 146.8250323  76.0274502  37.9172211 146.1401361  76.4073403  37.3669244
 146.9094172  76.6369829  38.6504158 142.1262792  67.1295849  45.8390289
 141.8823723  67.8837909  45.3024564 142.4022722  67.5081196  46.6737536
 144.0801254  73.6734461  44.5167554 144.2918150  74.3166221  43.8401935
 144.0331003  72.8396777  44.0489484 141.6827483  66.2852282  41.4204126
 140.8211962  66.5833535  41.7120864 141.7089918  66.5022680  40.4885159
 138.4989053  74.8294472  37.8277932 138.9627398  75.1082175  37.0382554
 138.2345851  73.9277917  37.6451023 135.3913134  74.3765954  40.7657695
 135.9614491  74.8053222  40.1275180 135.9821246  74.0948538  41.4641881
 137.4357939  70.9517625  34.6367497 138.1381982  71.4038668  35.1041423
 137.1038567  70.3101443  35.2647390 135.8838300  69.5429381  49.0118706
 135.2536961  70.2245662  49.2454103 135.7774388  69.4312463  48.0671845
 131.1783273  69.2101177  39.9384631 130.3882327  69.4658706  39.4624741
 131.6694520  70.0249515  40.0436671 145.1947082  76.5506416  42.6889911
 146.0164526  76.1486604  42.4072593 145.1909485  76.4474651  43.6406027
 133.1298018  69.5745756  36.8968107 132.3329181  69.6864451  37.4151603
 132.9023610  69.9132409  36.0308998 138.9603686  76.0990460  44.8450622
 139.0248118  76.5610867  45.6808794 138.2514610  75.4687825  44.9732932
 129.4620976  69.4631668  42.3699621 129.7129014  70.3478678  42.6357197
 129.9980524  69.2836269  41.5974713 153.2853075  72.8945165  39.0374883
 152.5316784  72.3252563  38.8818887 153.4200617  72.8607829  39.9845518
 138.6751703  77.7658567  34.7129602 138.5397378  78.6110103  35.1414450
 139.2161516  77.9677845  33.9495536 135.1619043  63.8450147  51.3743957
 134.7685989  63.2916346  52.0491602 135.9785183  64.1560725  51.7650475
 132.1281101  75.2834005  35.2857527 132.6405621  76.0777255  35.4363092
 132.7803814  74.5860296  35.2191129 133.9375985  78.3999761  37.3680281
 134.1142614  79.3217726  37.1801264 134.7332819  78.0858181  37.7974660
 138.0787004  65.2608026  48.9664214 138.8196717  65.8615179  48.8868677
 138.3104927  64.5185664  48.4082257 133.2228342  70.4464393  47.2442444
 133.1081857  69.5449651  47.5449543 132.3672860  70.6928090  46.8927260
 140.3020180  78.3882134  48.8429944 139.8584034  77.6018512  48.5250849
 140.9637393  78.5761284  48.1773835 135.0607301  79.9177935  43.3690623
 135.6114726  79.7894999  42.5967617 134.2218777  80.2172824  43.0185516
 142.4001418  78.6684934  46.8711346 142.3819893  79.4893815  46.3791615
 143.3221338  78.5439009  47.0961487 138.8574472  76.1829063  47.7134854
 139.3902809  75.4217351  47.4834162 138.3288553  75.8902715  48.4559008
 142.0244167  61.2889129  43.2428496 141.6808436  62.1790771  43.1667606
 142.3923130  61.0990787  42.3798081 130.0930018  73.6122659  36.0617098
 130.9305240  74.0219668  35.8450806 130.2708285  72.6722102  36.0317292
 141.9894450  71.2797740  31.7500931 141.4741073  72.0502345  31.9889318
 141.7171758  70.6062876  32.3733992 139.5741561  66.1247441  36.8086169
 138.7183157  65.7354291  36.6291808 139.9868512  66.2039402  35.9485955
 141.1040707  63.6593784  41.2077729 140.6005503  63.6223919  40.3945534
 141.3971314  64.5686527  41.2674386 137.3483593  63.7432514  40.2143911
 138.2136590  63.5475323  39.8549800 137.4161102  63.5142866  41.1413267
 146.9628724  74.0330095  33.6854104 146.1858167  73.6941254  33.2409266
 147.6420205  74.0382718  33.0109069 141.7780753  69.1524832  33.5760712
 141.4730888  69.4670981  34.4270855 142.7311195  69.2306252  33.6188045
 140.2227185  75.3115056  35.2253666 139.6948546  74.5767815  34.9126903
 139.7214687  76.0889732  34.9793634 145.2020031  73.5064076  40.3420712
 144.5443705  74.1963337  40.4300841 146.0060430  73.8960508  40.6854699
 134.9545912  65.9734722  37.5860278 135.5289664  65.7509903  36.8533470
 135.5416895  66.0423416  38.3388879 144.0125489  71.8608449  38.3924654
 144.5257371  72.4938441  38.8946364 144.6626713  71.2609644  38.0268014
 135.2815499  68.0039183  31.6056163 134.4452812  68.3413869  31.9265438
 135.1420269  67.8688163  30.6683300 137.2568580  62.8475971  36.3135347
 136.6032992  62.5324988  35.6891962 137.2149054  62.2251711  37.0395170
 138.3679785  73.1295266  28.2288639 137.4606847  72.8984519  28.4279788
 138.8650817  72.3332885  28.4162621 141.2747864  81.8392773  31.1485325
 140.6009562  82.1424470  31.7570283 141.6613686  82.6421853  30.7990782
 140.4906320  69.3357904  40.6382995 139.5728882  69.5572851  40.4804683
 140.9066464  69.4104215  39.7794702 141.2741368  70.7349320  35.7685675
 142.0213187  71.2470717  35.4592797 141.5432958  70.4133373  36.6290068
 139.5468018  73.2307861  32.7512629 138.6379238  72.9466893  32.8485099
 139.5763102  73.6506939  31.8915936 144.7787286  76.8414450  36.5203797
 144.3249613  76.0005360  36.5768987 144.1481252  77.4775849  36.8578577
 143.7220205  67.7706436  37.7504464 142.9842962  67.2583822  38.0814707
 143.9746979  67.3306818  36.9387741 143.2220225  78.6790947  37.4553615
 143.5143199  79.2396004  36.7365980 143.7318846  78.9719508  38.2106774
 143.8231833  60.5482688  38.3446233 144.1290709  59.6880052  38.0572148
 144.5484437  61.1400308  38.1445227 130.1156189  70.9513375  36.7327831
 129.9180588  70.3582735  36.0078898 129.5602853  70.6465585  37.4503770
 138.0952912  70.8436481  38.8522424 138.1501522  69.8910318  38.7764901
 137.2844114  70.9995920  39.3363723 139.2444106  74.7716604  30.0900708
 138.8063536  74.0552463  29.6306345 139.9854547  74.9992719  29.5285799
 136.0345272  69.4613541  36.6112803 135.2213138  69.7607712  37.0177995
 136.5304266  69.0669230  37.3287286 138.1853850  79.4571298  38.5447068
 138.1430029  79.6832144  37.6155600 139.1016549  79.2234673  38.6932869
 141.6319484  69.9255365  45.4427697 141.9868872  70.1526839  46.3022163
 142.2791615  70.2573742  44.8204953 147.3617221  73.0473801  36.1477026
 147.2235119  73.2375397  35.2198215 147.0053440  73.8093184  36.6045077
 135.5259347  67.0331897  42.2274038 136.1658726  66.8920656  41.5297002
 134.6936878  66.7466410  41.8512640 147.3886600  75.1150328  41.1588298
 147.8223107  75.0225617  42.0071352 148.1018181  75.0907829  40.5208314
 136.3019651  76.3334327  38.3409031 137.0960249  75.8384647  38.1391606
 135.5911343  75.8052190  37.9776736 141.1214495  78.7152422  42.6921398
 141.1751518  79.2843359  43.4599114 140.2529277  78.8854308  42.3275436
 132.6102414  70.4777409  34.4168783 131.6800002  70.4161864  34.6338746
 132.7059886  69.9553361  33.6205425 132.5287963  67.0032222  37.0047025
 132.7894781  67.9177555  36.8956186 133.3505136  66.5356664  37.1543638
 134.0012889  68.4169979  44.1745850 134.6735942  68.2087341  43.5258499
 133.1742675  68.2192065  43.7351082 148.2502150  75.1574029  43.6921183
 148.4438040  76.0619840  43.9380458 148.1502768  74.6981448  44.5259768
 139.9038461  65.0431920  46.1911511 139.2566376  65.7421869  46.0975987
 140.6739476  65.4768064  46.5587759 143.3117259  75.3080772  49.2662064
 143.1602765  75.0791323  48.3492147 143.3021938  76.2651373  49.2793409
 140.0802595  72.8812685  44.2508330 141.0094655  73.0323844  44.0777298
 139.6593625  72.9696705  43.3956977 138.8790927  76.9063349  42.0206868
 138.7402013  76.5382133  42.8932806 138.0905523  77.4210988  41.8490826
 139.4739079  82.0072445  33.3632404 139.6490835  81.5360489  34.1778027
 138.7871867  82.6338212  33.5913665 140.4296142  76.2844952  39.4095706
 140.0945975  76.2445722  40.3053356 139.9300088  75.6189668  38.9366116
 134.4040386  71.6912582  44.9348287 134.2660184  70.9592820  45.5359826
 135.3145309  71.6021482  44.6532475 143.3655334  73.6300986  29.6832765
 142.7484504  72.9047814  29.5865818 142.8971822  74.3910346  29.3399840
 137.0322687  71.4032541  44.4231966 137.7422305  70.7625733  44.3818585
 136.9891995  71.6545436  45.3458147 145.0209465  78.3399894  47.3438546
 144.9622012  77.6559114  46.6769129 145.4228984  79.0818884  46.8919172
 135.7451621  68.3897759  46.2427606 135.2088978  67.9388497  46.8949202
 135.1568329  68.5243668  45.4998070 134.0400164  85.1561808  40.1372265
 134.2796762  85.7880332  40.8151283 133.1969361  84.8049848  40.4237624
 135.1553880  67.8486410  28.8054070 134.2783346  67.7275211  28.4416316
 135.6311633  67.0572489  28.5532958 145.0226873  76.3039478  45.5752525
 144.1353651  75.9665400  45.6978924 145.5925424  75.5722509  45.8121291
 126.6756020  72.6363570  38.8995577 127.3627060  72.3225300  38.3116592
 126.5204148  73.5404935  38.6262828 131.4790742  67.5253767  43.3280600
 131.3948931  66.9179436  42.5931010 130.6573448  68.0162785  43.3290097
 138.5528026  80.9640931  42.5413769 138.4798198  81.7695902  43.0533073
 138.1105419  81.1632896  41.7161790 138.3417806  80.2012701  36.0516590
 137.5585328  80.7434381  36.1454815 139.0410551  80.7186680  36.4510831
 141.6514456  66.0107330  38.6950795 142.1483155  65.2577292  38.3751866
 140.8801437  66.0471647  38.1294005 149.5044213  71.7147696  40.3369087
 149.4934089  72.5972411  39.9663020 148.6361593  71.3619246  40.1423624
 141.0126710  80.8627765  44.6971927 141.7254682  81.4975229  44.6247829
 140.5216738  80.9591631  43.8811929 142.7344236  74.7679017  36.2689219
 141.8000515  74.8880480  36.0993923 142.9120905  73.8651484  36.0049229
 138.2349425  68.1524713  38.4222480 137.8647212  67.5995753  39.1103386
 138.7308517  67.5482847  37.8697480 146.1216788  70.6096337  36.8039253
 146.5877240  71.4424328  36.7299556 146.5724288  70.1441318  37.5084511
 136.0638623  78.6122208  45.5177498 136.7648083  79.2458691  45.6706892
 135.5933738  78.9536940  44.7573137 144.1893019  76.9540158  33.8025405
 144.4652863  76.8396752  34.7119279 143.3197518  76.5557643  33.7637578
 144.0933451  62.9776924  40.8430154 143.1796530  63.2081150  41.0112361
 144.5226552  63.0615368  41.6944187 143.8639909  71.1666816  43.3430048
 143.2111359  71.4142723  42.6882501 144.2420289  70.3530954  43.0092526
 140.8247083  81.2026509  37.4458219 141.0069477  80.3848165  37.9085971
 141.6480069  81.4194201  37.0083109 141.1589248  80.1294694  34.7073267
 141.6877015  79.6187148  34.0943429 141.4217468  79.8137224  35.5718800
 139.9127482  71.9086627  49.8296085 139.2368119  71.8080756  50.4998461
 140.7355116  71.7525840  50.2932083 131.6606341  78.1458563  42.4508601
 132.2459778  77.4002251  42.5836505 131.4631180  78.4562520  43.3345265
 134.5144996  81.1809811  37.4671043 133.8455372  81.6655938  36.9835083
 134.3757866  81.4279031  38.3814422 126.2523996  70.7164163  41.1713044
 126.2908095  70.1827754  41.9650162 125.7464289  70.1899369  40.5524021
 138.6550265  83.2153554  44.0653701 139.2068573  83.3785176  44.8302787
 138.9956458  83.8057992  43.3933726 133.6314758  65.5628704  44.6675586
 133.6956085  66.4243535  44.2552984 133.5681878  64.9502706  43.9347945
 133.1067031  67.6351836  48.3148620 133.7339070  67.2528914  48.9286145
 132.2494950  67.4166038  48.6804313 143.5061139  78.0414812  49.9202356
 144.0501043  78.6544770  49.4257311 142.9247984  78.5994390  50.4369369
 129.8832573  69.4428266  34.2466975 130.1786015  68.5338944  34.1934029
 128.9820609  69.4216005  33.9247978 141.7918652  81.1635530  41.0517384
 141.6669792  80.3625269  40.5428329 142.4497743  81.6581723  40.5631354
 133.4126820  67.5184262  40.2294524 132.6913406  68.1320230  40.0901997
 134.2020076  68.0542027  40.1511170 143.8553561  78.9644550  42.6796934
 142.9083896  78.8449901  42.6075260 144.2036334  78.0767048  42.7623195
 136.2153134  64.8538689  46.5035176 136.7387536  65.1000985  47.2661485
 135.9965467  65.6858723  46.0838313 131.6120415  67.1242363  34.3706300
 131.2833121  66.2439742  34.1881406 131.9659786  67.0690032  35.2582690
 140.8599994  78.7597266  38.8801286 140.7124956  77.8313973  39.0608856
 141.6853487  78.7817357  38.3958361 134.7262238  67.4115333  34.7381778
 135.0658311  67.9401254  34.0160386 135.1734359  67.7495739  35.5140345
 144.4634116  79.5825825  39.9666159 145.3880663  79.3768686  39.8290610
 144.2949419  79.3342226  40.8755500 137.4205679  65.7952384  44.1884846
 137.0802499  64.9960197  44.5905526 136.7144685  66.0954095  43.6161679
 138.0722151  62.8801696  42.6412169 138.8948220  62.4062174  42.5191059
 138.3160214  63.6592180  43.1410855 136.7130385  65.9089955  32.9375071
 137.4338748  66.2871207  32.4338788 136.0895689  66.6278831  33.0410049
 140.8561508  66.6135104  33.8733403 141.0725123  67.4959741  33.5722231
 140.3755575  66.2221317  33.1439045 135.5960730  69.5720817  40.4504148
 135.4505310  69.8861120  41.3428429 135.1185933  70.1905717  39.8975046
 137.4557112  66.5623365  40.4985037 137.4418681  65.6664458  40.1617335
 138.1729541  66.5694028  41.1323323 139.3083243  66.9960705  42.5438165
 139.0501021  67.9177776  42.5422495 138.7768284  66.5991139  43.2338629
 144.2529432  80.1011492  35.3228250 144.4266309  79.5357915  34.5702103
 144.7458323  80.9012387  35.1407740 130.0706392  72.1126161  43.3891809
 129.5259860  72.8885969  43.5212083 130.9485742  72.4596966  43.2310930
 136.8594008  65.4437745  35.7672607 136.9809920  64.5154391  35.9663495
 136.5696051  65.4576431  34.8550923 139.7285199  63.1292655  38.9039327
 139.7506896  63.1931989  37.9491307 140.1453258  62.2897164  39.0979833
 150.1068823  72.8647915  36.9418550 150.5499969  72.1155240  36.5437673
 149.2295333  72.8558051  36.5592282 145.2404604  79.4178256  32.4225148
 145.9355509  80.0384949  32.6412463 145.5827755  78.5673608  32.6977526
 130.8572414  71.2396057  46.2821966 130.1154150  71.3878693  46.8686596
 130.5365158  71.5004323  45.4188715 147.1396028  76.8677962  33.9512479
 147.6647352  77.2065235  33.2261799 147.0518380  75.9324977  33.7675614
 138.8016076  80.7812036  46.0802356 139.1103203  80.5361182  46.9525055
 139.5991558  80.9858674  45.5921226 138.8236688  82.9349945  38.3107732
 138.3841679  82.4426324  39.0040589 139.5744805  82.3922913  38.0699808
 131.3029027  79.1261486  38.3132360 132.1287047  78.8265258  37.9331004
 130.9523079  78.3569109  38.7622149 136.2710560  78.4787954  40.3830034
 135.6490570  77.8158659  40.0832262 136.9415427  78.5049086  39.7003682
 129.5037632  77.0447813  39.2721294 128.6669541  76.6169987  39.0905295
 129.4761278  77.2380256  40.2092085 136.3435088  66.9569742  49.9762540
 136.3923243  67.8331865  49.5940310 136.8857602  66.4147135  49.4034183
 146.8289934  77.5010866  49.2563677 146.0385477  77.4835004  48.7168177
 146.5923288  78.0399159  50.0112714 146.9487809  74.3503332  46.5696406
 146.9985814  74.1853339  47.5111928 146.8401732  73.4830591  46.1794286
 135.8324067  77.0291878  33.8588495 135.9812188  77.7127342  33.2055167
 136.6390511  77.0096968  34.3737950 144.2391571  70.3334260  47.8855712
 145.1401434  70.1940725  47.5939710 144.3139546  70.4988715  48.8253890
 138.5734376  67.7101115  46.7308899 137.7037686  68.0034681  46.4591487
 138.8093857  68.2941560  47.4516162 148.4506006  76.7700274  46.8138427
 148.1590814  77.1330254  47.6501888 147.8378137  76.0567282  46.6351759
 149.6501688  74.3353153  39.3340997 150.4848579  74.7742957  39.4978558
 149.7860817  73.8591807  38.5149243 146.6993194  71.8932888  45.2818485
 147.1747315  72.0860534  44.4737337 145.7758759  71.9492074  45.0361869
 133.5876700  73.0557055  34.8649563 133.3422742  72.1519385  35.0629774
 133.7572615  73.0574206  33.9229041 141.2773410  63.9280732  44.2474319
 141.7955354  64.6641759  43.9220808 140.9228543  64.2344725  45.0821078
 132.8572348  68.7885413  32.3635725 132.1641593  68.8629768  31.7075761
 132.6124100  68.0245757  32.8857242 141.5286004  60.3481014  39.7675216
 141.8087758  59.6804203  40.3935642 142.3136611  60.5410110  39.2549880
 139.3319473  79.5240008  31.3300242 138.7593440  80.1430195  30.8770714
 139.9052267  80.0739370  31.8640164 145.3994863  68.7698648  43.5146791
 146.3512286  68.8696746  43.5359015 145.2298313  67.9776917  44.0244875
 143.4209242  65.8554231  43.7006192 142.8259174  66.1359244  43.0052680
 143.1358939  66.3448132  44.4722933 142.5516733  79.8077158  32.4608824
 143.4847406  79.7422720  32.6641700 142.4639946  80.6433425  32.0023357
 145.1804749  79.1243029  29.4212772 145.1018381  78.7902892  30.3148530
 146.0014416  79.6164797  29.4204244 147.8782941  71.9904768  42.6289090
 147.8459261  71.0520769  42.8148774 148.4883564  72.0688805  41.8954915
 139.7166271  70.8600821  28.6716294 140.6625376  70.7307029  28.7404713
 139.3380516  70.1215483  29.1485723 148.0277429  68.7815811  42.6747374
 147.5116478  67.9974268  42.4877302 148.9117378  68.4534528  42.8393893
 145.6888156  62.5256827  38.6343186 145.4912977  62.2171915  39.5186518
 146.2987862  63.2518466  38.7641116 153.6959490  73.0520775  41.7695127
 154.4262879  72.7906063  42.3302831 153.0866436  72.3149497  41.8097195
 151.7774788  71.1928637  42.3669578 151.0507951  71.0584602  41.7586070
 151.3622074  71.5005466  43.1726296 139.6004964  74.9118567  50.1316951
 140.5207973  75.0897166  50.3256998 139.5654547  73.9674612  49.9796651
 137.9009189  68.7850797  28.6071180 136.9940644  68.4883910  28.6833893
 138.1785170  68.4880615  27.7405466 128.8187129  70.1057161  39.0570226
 128.4989913  69.2522469  38.7644600 128.2720557  70.3205739  39.8128193
 132.5967036  72.8219602  42.7739733 132.8153046  73.7536710  42.7927766
 133.0092810  72.4627576  43.5594536 139.5171254  63.3287687  34.7615421
 138.7071983  62.9834772  35.1370667 140.2055671  63.0195231  35.3503033
 141.4461803  62.4065734  36.3839718 141.9992841  62.8261187  37.0429741
 141.6831889  61.4801482  36.4262674 137.4694902  68.3952807  52.1642482
 137.3691629  69.3447164  52.0954573 137.2516444  68.0671046  51.2918552
 136.6707973  65.6437733  28.7483159 137.5327137  65.9692631  29.0078976
 136.8558317  64.8569228  28.2356225 128.6875389  73.7260072  41.0263348
 127.9938860  73.3114025  40.5133302 129.4348380  73.7680609  40.4296767
 144.8240610  64.5166259  35.8918382 144.2439279  65.1751063  35.5096434
 144.5576542  63.6943604  35.4805799 143.2744176  63.9171317  38.0939702
 143.7743954  64.0287851  37.2854021 143.9179784  63.6132370  38.7340511
 137.3326172  71.8249946  50.9807543 136.8493254  72.6250306  51.1871432
 137.4187111  71.8357891  50.0274987 130.6012131  73.6578326  38.9029363
 130.5782820  73.7566013  37.9511246 130.9112768  74.5043477  39.2246529
 133.2599509  75.7154481  43.0175977 134.2142763  75.6838423  42.9505909
 133.0612033  75.2545105  43.8326203 133.8498891  74.2855597  45.5846775
 134.6691780  74.7799676  45.6081612 134.1235699  73.3687565  45.5564342
 143.6065488  66.6766349  34.9474730 142.7191343  66.9616000  34.7294925
 144.0219477  66.5160113  34.1002007 146.9580024  66.7012870  38.6629069
 147.7340414  67.1909323  38.9353686 146.2328158  67.1270925  39.1200939
 149.3952582  67.4140490  39.7203010 149.9897073  67.1736226  39.0096318
 149.4679166  66.6947620  40.3476546 131.6149738  81.2574101  40.0346175
 131.4804206  80.4974501  39.4684173 131.1981800  81.9815000  39.5674964
 142.7508701  76.4411024  29.0422750 143.4544551  76.6461027  29.6580406
 142.0271350  77.0087786  29.3071834 143.5806511  72.1920885  35.1625020
 143.5241713  72.6489437  34.3232653 144.1334854  71.4311570  34.9847863
 147.3911317  67.9810617  35.9875140 147.1348252  67.5807253  36.8183348
 146.7664185  68.6954411  35.8625279 151.7023655  70.7206690  38.4946431
 151.1423213  70.7899880  39.2677993 151.0967159  70.5447675  37.7745927
 134.7718864  82.1543418  40.2464618 134.6551248  83.0988850  40.1443308
 133.9511310  81.8516979  40.6350417 144.6595399  76.8793553  31.0921210
 145.4941002  76.4474752  30.9098685 144.4979741  76.7075567  32.0198105
 144.3141291  73.3825667  32.4577550 144.2590095  73.2169938  31.5165994
 143.6887346  74.0901699  32.6139739 129.1033806  68.6193731  46.2838972
 129.7492669  68.1092685  46.7726197 128.8950957  69.3562413  46.8582397
 141.6287198  75.6874578  51.7831112 142.4978358  75.8615231  51.4217747
 141.1493949  76.5068995  51.6606842 137.6237416  62.8833776  32.0362868
 137.6116086  63.8275615  32.1931139 138.5160838  62.7003921  31.7422329
 135.7973378  82.8071679  43.4620546 136.7000625  82.8395290  43.7787041
 135.5710748  81.8772130  43.4766882 137.5526980  81.5602666  40.1230625
 136.6022611  81.5604528  40.0094997 137.8559466  80.8135401  39.6066659
 141.4389536  59.4776552  36.2908805 140.6721931  58.9235039  36.4365487
 141.8500241  59.5498421  37.1522956 133.4431297  65.7661348  50.3813986
 134.3062758  65.4098153  50.5917311 132.8696707  65.4275243  51.0689390
 153.2879674  87.3963204  41.1876387 153.9258084  87.2769952  40.4839727
 153.1700517  88.3444048  41.2464339 150.0969380  87.3490632  41.1237912
 149.7587891  87.2331697  40.2358447 150.9659148  86.9481798  41.1038918
 145.9556196  89.2026109  37.1134803 145.3921061  89.1116046  36.3451090
 145.8408591  88.3826013  37.5937295 150.5789163  88.5025484  47.0824117
 150.5677804  88.1078282  46.2104621 150.7409802  87.7691557  47.6757889
 143.5020628  90.6977300  39.9519023 144.2941919  90.3568125  39.5365322
 143.7417278  90.8072276  40.8721176 151.5355754  92.8697077  32.4249268
 150.8843734  93.4551157  32.0383281 152.3300117  93.4003271  32.4844305
 145.4611381  89.9586214  32.8236402 146.2342257  89.4115201  32.6849278
 145.8136780  90.8230463  33.0350863 147.2996424  91.2862596  46.0303301
 147.0086290  92.1908227  45.9149967 147.9353408  91.3279124  46.7447371
 148.2252631  88.6639445  42.6204661 148.8216203  88.4395467  41.9061624
 148.2827602  87.9224190  43.2230109 147.7977659  86.1178880  30.4554852
 148.0503180  85.5960401  29.6938315 146.8602218  85.9545025  30.5581535
 152.8420942  85.1214658  38.2629595 153.6284031  84.7034081  37.9120012
 153.1059646  86.0260750  38.4311243 153.0131019  90.5587509  32.9618252
 152.3776852  90.6322135  33.6739156 152.6828426  91.1481107  32.2837331
 158.2429369  85.0589891  39.1662574 158.9754541  84.4889108  39.4000403
 157.4868725  84.6711492  39.6069079 147.5173948  88.0206986  32.6579227
 147.4010206  87.3451889  33.3260311 147.6276208  87.5339360  31.8411380
 149.8605489  87.4817133  36.3625916 149.4963696  86.9547754  37.0738837
 150.7172605  87.0915602  36.1892401 155.7654790  78.7711466  43.6257182
 155.4338114  79.6406876  43.4018397 155.1700403  78.4547750  44.3051213
 149.5010976  82.5107033  31.3587264 149.6685378  83.3787269  31.7257736
 149.3108145  82.6734314  30.4348554 152.2586309  90.9724011  43.0253095
 151.9587032  91.8749050  42.9168902 151.9137369  90.7056195  43.8774248
 145.7098791  87.4237808  39.0589799 144.7849287  87.2914022  39.2667491
 145.9583204  88.2032028  39.5559742 155.6583453  83.4906552  40.7050532
 154.7500330  83.4221960  40.4109293 155.6071049  83.9678497  41.5332358
 149.4800197  84.9664690  32.3433931 149.3599822  85.4121741  33.1819412
 148.7852785  85.3150008  31.7847469 143.0707602  87.0671082  39.8933588
 143.1999983  87.3205561  40.8073000 142.3905053  87.6598790  39.5738243
 147.2407089  97.7368332  35.9924063 147.1631119  98.6876157  36.0712543
 146.6368733  97.3914204  36.6498989 149.7324319  84.9096197  48.6485429
 148.9557653  85.4690117  48.6388294 150.3714882  85.3952980  49.1700300
 157.5245099  81.6922990  42.4828406 156.8819480  81.9855523  41.8368201
 157.0200028  81.5775910  43.2881603 155.1785263  85.4386163  33.1714265
 156.0903119  85.6713550  32.9961963 154.6694910  86.0223207  32.6089344
 147.9870691  87.7181651  48.2103396 148.7285375  88.2566695  47.9338220
 147.2807676  88.3447939  48.3674948 153.4626031  89.8610791  46.8075558
 153.8709387  89.4193202  46.0630190 152.7403292  89.2863419  47.0609751
 149.8157101  84.7983398  44.1809115 150.6618296  85.2222811  44.3243764
 149.7555738  84.1417022  44.8747678 153.7854845  90.4211982  40.5627847
 153.1563708  90.5857696  39.8603915 153.3980507  90.8353591  41.3338811
 157.6644077  91.3566420  37.9172211 156.9795115  91.7365321  37.3669244
 157.7487927  91.9661746  38.6504158 152.9656546  82.4587766  45.8390289
 152.7217478  83.2129827  45.3024564 153.2416477  82.8373114  46.6737536
 154.9195009  89.0026379  44.5167554 155.1311904  89.6458138  43.8401935
 154.8724757  88.1688695  44.0489484 152.5221238  81.6144199  41.4204126
 151.6605717  81.9125453  41.7120864 152.5483672  81.8314598  40.4885159
 149.3382807  90.1586390  37.8277932 149.8021153  90.4374093  37.0382554
 149.0739605  89.2569834  37.6451023 146.2306888  89.7057871  40.7657695
 146.8008245  90.1345140  40.1275180 146.8215000  89.4240456  41.4641881
 148.2751693  86.2809542  34.6367497 148.9775737  86.7330586  35.1041423
 147.9432322  85.6393361  35.2647390 146.7232055  84.8721299  49.0118706
 146.0930715  85.5537580  49.2454103 146.6168143  84.7604380  48.0671845
 142.0177027  84.5393095  39.9384631 141.2276081  84.7950623  39.4624741
 142.5088275  85.3541433  40.0436671 156.0340837  91.8798334  42.6889911
 156.8558280  91.4778521  42.4072593 156.0303240  91.7766568  43.6406027
 143.9691773  84.9037674  36.8968107 143.1722936  85.0156368  37.4151603
 143.7417365  85.2424326  36.0308998 149.7997440  91.4282377  44.8450622
 149.8641873  91.8902785  45.6808794 149.0908364  90.7979742  44.9732932
 140.3014730  84.7923585  42.3699621 140.5522769  85.6770595  42.6357197
 140.8374279  84.6128187  41.5974713 149.5145458  93.0950485  34.7129602
 149.3791133  93.9402021  35.1414450 150.0555270  93.2969762  33.9495536
 146.0012797  79.1742065  51.3743957 145.6079743  78.6208263  52.0491602
 146.8178938  79.4852643  51.7650475 142.9674855  90.6125923  35.2857527
 143.4799376  91.4069173  35.4363092 143.6197568  89.9152213  35.2191129
 144.7769740  93.7291679  37.3680281 144.9536368  94.6509644  37.1801264
 145.5726573  93.4150098  37.7974660 148.9180758  80.5899944  48.9664214
 149.6590472  81.1907097  48.8868677 149.1498681  79.8477582  48.4082257
 144.0622096  85.7756311  47.2442444 143.9475612  84.8741568  47.5449543
 143.2066614  86.0220008  46.8927260 151.1413934  93.7174051  48.8429944
 150.6977788  92.9310430  48.5250849 151.8031148  93.9053202  48.1773835
 145.9001055  95.2469853  43.3690623 146.4508481  95.1186916  42.5967617
 145.0612531  95.5464742  43.0185516 153.2395172  93.9976851  46.8711346
 153.2213648  94.8185732  46.3791615 154.1615092  93.8730926  47.0961487
 149.6968226  91.5120981  47.7134854 150.2296563  90.7509269  47.4834162
 149.1682308  91.2194633  48.4559008 152.8637921  76.6181047  43.2428496
 152.5202191  77.5082688  43.1667606 153.2316884  76.4282704  42.3798081
 140.9323772  88.9414577  36.0617098 141.7698994  89.3511586  35.8450806
 141.1102040  88.0014019  36.0317292 152.8288204  86.6089658  31.7500931
 152.3134828  87.3794262  31.9889318 152.5565513  85.9354794  32.3733992
 150.4135315  81.4539359  36.8086169 149.5576912  81.0646209  36.6291808
 150.8262267  81.5331319  35.9485955 151.9434462  78.9885702  41.2077729
 151.4399257  78.9515837  40.3945534 152.2365069  79.8978445  41.2674386
 148.1877348  79.0724432  40.2143911 149.0530344  78.8767240  39.8549800
 148.2554857  78.8434783  41.1413267 157.8022478  89.3622012  33.6854104
 157.0251921  89.0233172  33.2409266 158.4813959  89.3674636  33.0109069
 152.6174507  84.4816750  33.5760712 152.3124643  84.7962899  34.4270855
 153.5704949  84.5598170  33.6188045 151.0620939  90.6406973  35.2253666
 150.5342301  89.9059733  34.9126903 150.5608442  91.4181650  34.9793634
 156.0413785  88.8355994  40.3420712 155.3837460  89.5255255  40.4300841
 156.8454184  89.2252426  40.6854699 145.7939667  81.3026639  37.5860278
 146.3683419  81.0801821  36.8533470 146.3810649  81.3715334  38.3388879
 154.8519244  87.1900366  38.3924654 155.3651126  87.8230358  38.8946364
 155.5020468  86.5901562  38.0268014 146.1209254  83.3331101  31.6056163
 145.2846566  83.6705787  31.9265438 145.9814024  83.1980080  30.6683300
 148.0962334  78.1767888  36.3135347 147.4426747  77.8616906  35.6891962
 148.0542809  77.5543629  37.0395170 149.2073539  88.4587183  28.2288639
 148.3000601  88.2276437  28.4279788 149.7044571  87.6624803  28.4162621
 152.1141618  97.1684691  31.1485325 151.4403317  97.4716387  31.7570283
 152.5007440  97.9713771  30.7990782 151.3300075  84.6649822  40.6382995
 150.4122636  84.8864769  40.4804683 151.7460218  84.7396132  39.7794702
 152.1135123  86.0641238  35.7685675 152.8606942  86.5762635  35.4592797
 152.3826712  85.7425290  36.6290068 150.3861773  88.5599778  32.7512629
 149.4772992  88.2758811  32.8485099 150.4156857  88.9798857  31.8915936
 155.6181040  92.1706368  36.5203797 155.1643367  91.3297278  36.5768987
 154.9875007  92.8067766  36.8578577 154.5613960  83.0998354  37.7504464
 153.8236717  82.5875740  38.0814707 154.8140733  82.6598735  36.9387741
 154.0613979  94.0082865  37.4553615 154.3536954  94.5687922  36.7365980
 154.5712600  94.3011426  38.2106774 154.6625587  75.8774606  38.3446233
 154.9684464  75.0171969  38.0572148 155.3878192  76.4692226  38.1445227
 140.9549943  86.2805292  36.7327831 140.7574343  85.6874653  36.0078898
 140.3996607  85.9757503  37.4503770 148.9346667  86.1728399  38.8522424
 148.9895277  85.2202235  38.7764901 148.1237869  86.3287838  39.3363723
 150.0837861  90.1008522  30.0900708 149.6457291  89.3844381  29.6306345
 150.8248301  90.3284637  29.5285799 146.8739027  84.7905459  36.6112803
 146.0606892  85.0899629  37.0177995 147.3698021  84.3961147  37.3287286
 149.0247605  94.7863216  38.5447068 148.9823783  95.0124062  37.6155600
 149.9410303  94.5526590  38.6932869 152.4713238  85.2547283  45.4427697
 152.8262626  85.4818756  46.3022163 153.1185370  85.5865660  44.8204953
 158.2010975  88.3765719  36.1477026 158.0628874  88.5667315  35.2198215
 157.8447194  89.1385102  36.6045077 146.3653101  82.3623814  42.2274038
 147.0052481  82.2212573  41.5297002 145.5330632  82.0758328  41.8512640
 158.2280355  90.4442246  41.1588298 158.6616862  90.3517535  42.0071352
 158.9411936  90.4199747  40.5208314 147.1413405  91.6626245  38.3409031
 147.9354004  91.1676565  38.1391606 146.4305098  91.1344108  37.9776736
 151.9608250  94.0444340  42.6921398 152.0145272  94.6135276  43.4599114
 151.0923031  94.2146225  42.3275436 143.4496169  85.8069326  34.4168783
 142.5193757  85.7453782  34.6338746 143.5453641  85.2845279  33.6205425
 143.3681718  82.3324139  37.0047025 143.6288535  83.2469472  36.8956186
 144.1898890  81.8648582  37.1543638 144.8406643  83.7461896  44.1745850
 145.5129697  83.5379258  43.5258499 144.0136430  83.5483982  43.7351082
 150.7432215  80.3723837  46.1911511 150.0960130  81.0713787  46.0975987
 151.5133231  80.8059981  46.5587759 154.1511013  90.6372689  49.2662064
 153.9996520  90.4083241  48.3492147 154.1415693  91.5943291  49.2793409
 150.9196350  88.2104602  44.2508330 151.8488410  88.3615762  44.0777298
 150.4987380  88.2988623  43.3956977 149.7184681  92.2355267  42.0206868
 149.5795767  91.8674051  42.8932806 148.9299278  92.7502906  41.8490826
 150.3132833  97.3364363  33.3632404 150.4884589  96.8652406  34.1778027
 149.6265621  97.9630129  33.5913665 151.2689897  91.6136869  39.4095706
 150.9339729  91.5737639  40.3053356 150.7693842  90.9481585  38.9366116
 145.2434141  87.0204499  44.9348287 145.1053938  86.2884738  45.5359826
 146.1539064  86.9313399  44.6532475 154.2049088  88.9592904  29.6832765
 153.5878259  88.2339732  29.5865818 153.7365577  89.7202264  29.3399840
 147.8716441  86.7324459  44.4231966 148.5816060  86.0917651  44.3818585
 147.8285749  86.9837354  45.3458147 155.8603220  93.6691812  47.3438546
 155.8015766  92.9851032  46.6769129 156.2622738  94.4110802  46.8919172
 146.5845375  83.7189677  46.2427606 146.0482732  83.2680415  46.8949202
 145.9962084  83.8535585  45.4998070 144.8793919 100.4853726  40.1372265
 145.1190517 101.1172250  40.8151283 144.0363115 100.1341766  40.4237624
 145.9947634  83.1778328  28.8054070 145.1177100  83.0567129  28.4416316
 146.4705387  82.3864406  28.5532958 155.8620627  91.6331396  45.5752525
 154.9747406  91.2957318  45.6978924 156.4319178  90.9014427  45.8121291
 137.5149774  87.9655488  38.8995577 138.2020814  87.6517218  38.3116592
 137.3597903  88.8696852  38.6262828 142.3184496  82.8545684  43.3280600
 142.2342685  82.2471354  42.5931010 141.4967203  83.3454703  43.3290097
 149.3921781  96.2932848  42.5413769 149.3191952  97.0987820  43.0533073
 148.9499174  96.4924814  41.7161790 149.1811560  95.5304618  36.0516590
 148.3979082  96.0726298  36.1454815 149.8804305  96.0478598  36.4510831
 152.4908210  81.3399248  38.6950795 152.9876910  80.5869210  38.3751866
 151.7195192  81.3763564  38.1294005 151.8520464  96.1919682  44.6971927
 152.5648436  96.8267147  44.6247829 151.3610493  96.2883548  43.8811929
 153.5737991  90.0970935  36.2689219 152.6394270  90.2172397  36.0993923
 153.7514659  89.1943402  36.0049229 149.0743179  83.4816631  38.4222480
 148.7040967  82.9287671  39.1103386 149.5702271  82.8774764  37.8697480
 156.9610542  85.9388254  36.8039253 157.4270994  86.7716246  36.7299556
 157.4118043  85.4733236  37.5084511 146.9032378  93.9414126  45.5177498
 147.6041837  94.5750609  45.6706892 146.4327493  94.2828857  44.7573137
 155.0286773  92.2832076  33.8025405 155.3046617  92.1688670  34.7119279
 154.1591272  91.8849560  33.7637578 154.9327205  78.3068841  40.8430154
 154.0190285  78.5373068  41.0112361 155.3620307  78.3907285  41.6944187
 154.7033664  86.4958733  43.3430048 154.0505114  86.7434641  42.6882501
 155.0814043  85.6822871  43.0092526 151.6640837  96.5318426  37.4458219
 151.8463232  95.7140082  37.9085971 152.4873823  96.7486119  37.0083109
 151.9983003  95.4586612  34.7073267 152.5270769  94.9479066  34.0943429
 152.2611223  95.1429142  35.5718800 150.7521237  87.2378544  49.8296085
 150.0761874  87.1372674  50.4998461 151.5748870  87.0817758  50.2932083
 142.5000096  93.4750481  42.4508601 143.0853532  92.7294169  42.5836505
 142.3024934  93.7854438  43.3345265 145.3538751  96.5101728  37.4671043
 144.6849126  96.9947856  36.9835083 145.2151621  96.7570949  38.3814422
 137.0917750  86.0456081  41.1713044 137.1301850  85.5119672  41.9650162
 136.5858043  85.5191287  40.5524021 149.4944019  98.5445472  44.0653701
 150.0462327  98.7077093  44.8302787 149.8350213  99.1349910  43.3933726
 144.4708513  80.8920622  44.6675586 144.5349839  81.7535452  44.2552984
 144.4075633  80.2794623  43.9347945 143.9460785  82.9643754  48.3148620
 144.5732824  82.5820831  48.9286145 143.0888704  82.7457956  48.6804313
 154.3454894  93.3706729  49.9202356 154.8894798  93.9836688  49.4257311
 153.7641739  93.9286308  50.4369369 140.7226328  84.7720183  34.2466975
 141.0179769  83.8630862  34.1934029 139.8214364  84.7507923  33.9247978
 152.6312407  96.4927447  41.0517384 152.5063546  95.6917187  40.5428329
 153.2891498  96.9873641  40.5631354 144.2520575  82.8476180  40.2294524
 143.5307161  83.4612147  40.0901997 145.0413831  83.3833945  40.1511170
 154.6947315  94.2936467  42.6796934 153.7477651  94.1741819  42.6075260
 155.0430088  93.4058965  42.7623195 147.0546888  80.1830606  46.5035176
 147.5781290  80.4292903  47.2661485 146.8359222  81.0150641  46.0838313
 142.4514170  82.4534281  34.3706300 142.1226876  81.5731660  34.1881406
 142.8053540  82.3981950  35.2582690 151.6993748  94.0889184  38.8801286
 151.5518711  93.1605891  39.0608856 152.5247242  94.1109274  38.3958361
 145.5655993  82.7407251  34.7381778 145.9052065  83.2693172  34.0160386
 146.0128113  83.0787657  35.5140345 155.3027870  94.9117742  39.9666159
 156.2274418  94.7060604  39.8290610 155.1343174  94.6634143  40.8755500
 148.2599434  81.1244301  44.1884846 147.9196254  80.3252114  44.5905526
 147.5538440  81.4246012  43.6161679 148.9115905  78.2093614  42.6412169
 149.7341975  77.7354092  42.5191059 149.1553969  78.9884098  43.1410855
 147.5524140  81.2381872  32.9375071 148.2732502  81.6163125  32.4338788
 146.9289444  81.9570749  33.0410049 151.6955263  81.9427021  33.8733403
 151.9118877  82.8251659  33.5722231 151.2149330  81.5513235  33.1439045
 146.4354484  84.9012734  40.4504148 146.2899065  85.2153038  41.3428429
 145.9579688  85.5197635  39.8975046 148.2950867  81.8915282  40.4985037
 148.2812436  80.9956376  40.1617335 149.0123295  81.8985946  41.1323323
 150.1476998  82.3252623  42.5438165 149.8894776  83.2469693  42.5422495
 149.6162038  81.9283057  43.2338629 155.0923186  95.4303410  35.3228250
 155.2660064  94.8649832  34.5702103 155.5852078  96.2304305  35.1407740
 140.9100146  87.4418079  43.3891809 140.3653614  88.2177887  43.5212083
 141.7879496  87.7888883  43.2310930 147.6987763  80.7729663  35.7672607
 147.8203674  79.8446309  35.9663495 147.4089805  80.7868349  34.8550923
 150.5678953  78.4584573  38.9039327 150.5900650  78.5223906  37.9491307
 150.9847012  77.6189082  39.0979833 156.0798359  94.7470174  32.4225148
 156.7749264  95.3676867  32.6412463 156.4221509  93.8965525  32.6977526
 141.6966168  86.5687975  46.2821966 140.9547904  86.7170610  46.8686596
 141.3758912  86.8296241  45.4188715 157.9789782  92.1969880  33.9512479
 158.5041106  92.5357152  33.2261799 157.8912135  91.2616895  33.7675614
 149.6409831  96.1103953  46.0802356 149.9496957  95.8653100  46.9525055
 150.4385313  96.3150592  45.5921226 149.6630443  98.2641863  38.3107732
 149.2235433  97.7718242  39.0040589 150.4138560  97.7214831  38.0699808
 142.1422782  94.4553404  38.3132360 142.9680802  94.1557176  37.9331004
 141.7916834  93.6861026  38.7622149 147.1104315  93.8079872  40.3830034
 146.4884324  93.1450577  40.0832262 147.7809182  93.8341004  39.7003682
 140.3431387  92.3739730  39.2721294 139.5063295  91.9461905  39.0905295
 140.3155032  92.5672174  40.2092085 147.1828842  82.2861660  49.9762540
 147.2316998  83.1623783  49.5940310 147.7251357  81.7439053  49.4034183
 157.6683688  92.8302783  49.2563677 156.8779232  92.8126922  48.7168177
 157.4317043  93.3691077  50.0112714 157.7881563  89.6795250  46.5696406
 157.8379568  89.5145257  47.5111928 157.6795487  88.8122509  46.1794286
 146.6717822  92.3583795  33.8588495 146.8205942  93.0419260  33.2055167
 147.4784265  92.3388885  34.3737950 155.0785326  85.6626178  47.8855712
 155.9795188  85.5232643  47.5939710 155.1533300  85.8280633  48.8253890
 149.4128131  83.0393032  46.7308899 148.5431440  83.3326599  46.4591487
 149.6487611  83.6233477  47.4516162 157.5386948  87.2224806  45.2818485
 158.0141070  87.4152452  44.4737337 156.6152514  87.2783992  45.0361869
 144.4270455  88.3848973  34.8649563 144.1816497  87.4811303  35.0629774
 144.5966369  88.3866123  33.9229041 152.1167165  79.2572649  44.2474319
 152.6349109  79.9933676  43.9220808 151.7622298  79.5636643  45.0821078
 143.6966102  84.1177331  32.3635725 143.0035347  84.1921686  31.7075761
 143.4517854  83.3537674  32.8857242 152.3679759  75.6772932  39.7675216
 152.6481513  75.0096121  40.3935642 153.1530366  75.8702028  39.2549880
 150.1713227  94.8531926  31.3300242 149.5987194  95.4722113  30.8770714
 150.7446021  95.4031288  31.8640164 156.2388617  84.0990566  43.5146791
 157.1906040  84.1988664  43.5359015 156.0692068  83.3068834  44.0244875
 154.2602997  81.1846149  43.7006192 153.6652929  81.4651162  43.0052680
 153.9752693  81.6740050  44.4722933 153.3910487  95.1369076  32.4608824
 154.3241160  95.0714638  32.6641700 153.3033700  95.9725343  32.0023357
 156.0198504  94.4534946  29.4212772 155.9412135  94.1194810  30.3148530
 156.8408171  94.9456714  29.4204244 150.5560026  86.1892739  28.6716294
 151.5019131  86.0598947  28.7404713 150.1774271  85.4507400  29.1485723
 156.5281910  77.8548745  38.6343186 156.3306732  77.5463833  39.5186518
 157.1381616  78.5810384  38.7641116 150.4398718  90.2410485  50.1316951
 151.3601728  90.4189084  50.3256998 150.4048301  89.2966530  49.9796651
 148.7402943  84.1142715  28.6071180 147.8334398  83.8175828  28.6833893
 149.0178924  83.8172533  27.7405466 139.6580883  85.4349078  39.0570226
 139.3383668  84.5814387  38.7644600 139.1114312  85.6497657  39.8128193
 143.4360791  88.1511519  42.7739733 143.6546801  89.0828627  42.7927766
 143.8486565  87.7919494  43.5594536 150.3565009  78.6579605  34.7615421
 149.5465737  78.3126690  35.1370667 151.0449426  78.3487148  35.3503033
 152.2855557  77.7357652  36.3839718 152.8386596  78.1553105  37.0429741
 152.5225643  76.8093400  36.4262674 148.3088656  83.7244725  52.1642482
 148.2085383  84.6739082  52.0954573 148.0910198  83.3962964  51.2918552
 147.5101728  80.9729650  28.7483159 148.3720892  81.2984549  29.0078976
 147.6952072  80.1861146  28.2356225 139.5269143  89.0551990  41.0263348
 138.8332615  88.6405943  40.5133302 140.2742134  89.0972526  40.4296767
 155.6634364  79.8458177  35.8918382 155.0833033  80.5042981  35.5096434
 155.3970297  79.0235521  35.4805799 154.1137931  79.2463234  38.0939702
 154.6137709  79.3579769  37.2854021 154.7573538  78.9424287  38.7340511
 148.1719926  87.1541864  50.9807543 147.6887008  87.9542224  51.1871432
 148.2580865  87.1649809  50.0274987 141.4405886  88.9870244  38.9029363
 141.4176574  89.0857931  37.9511246 141.7506522  89.8335394  39.2246529
 144.0993264  91.0446399  43.0175977 145.0536517  91.0130341  42.9505909
 143.9005787  90.5837022  43.8326203 144.6892646  89.6147515  45.5846775
 145.5085535  90.1091593  45.6081612 144.9629454  88.6979483  45.5564342
 154.4459242  82.0058267  34.9474730 153.5585097  82.2907918  34.7294925
 154.8613231  81.8452030  34.1002007 157.7973778  82.0304788  38.6629069
 158.5734168  82.5201240  38.9353686 157.0721912  82.4562842  39.1200939
 142.4543493  96.5866018  40.0346175 142.3197961  95.8266419  39.4684173
 142.0375555  97.3106918  39.5674964 153.5902456  91.7702942  29.0422750
 154.2938306  91.9752944  29.6580406 152.8665104  92.3379704  29.3071834
 154.4200266  87.5212803  35.1625020 154.3635467  87.9781354  34.3232653
 154.9728608  86.7603488  34.9847863 158.2305072  83.3102535  35.9875140
 157.9742006  82.9099171  36.8183348 157.6057940  84.0246329  35.8625279
 145.6112618  97.4835335  40.2464618 145.4945003  98.4280768  40.1443308
 144.7905065  97.1808897  40.6350417 155.4989153  92.2085471  31.0921210
 156.3334757  91.7766669  30.9098685 155.3373496  92.0367485  32.0198105
 155.1535045  88.7117584  32.4577550 155.0983849  88.5461856  31.5165994
 154.5281100  89.4193617  32.6139739 139.9427560  83.9485649  46.2838972
 140.5886424  83.4384603  46.7726197 139.7344711  84.6854330  46.8582397
 152.4680952  91.0166496  51.7831112 153.3372112  91.1907148  51.4217747
 151.9887704  91.8360913  51.6606842 148.4631171  78.2125693  32.0362868
 148.4509841  79.1567533  32.1931139 149.3554593  78.0295839  31.7422329
 146.6367133  98.1363597  43.4620546 147.5394379  98.1687207  43.7787041
 146.4104503  97.2064048  43.4766882 148.3920735  96.8894584  40.1230625
 147.4416366  96.8896445  40.0094997 148.6953221  96.1427318  39.6066659
 152.2783290  74.8068470  36.2908805 151.5115686  74.2526957  36.4365487
 152.6893995  74.8790339  37.1522956 144.2825051  81.0953266  50.3813986
 145.1456513  80.7390071  50.5917311 143.7090462  80.7567160  51.0689390
 156.7949950 104.5318027  37.1134803 156.2314815 104.4407963  36.3451090
 156.6802345 103.7117931  37.5937295 154.3414382 106.0269218  39.9519023
 155.1335674 105.6860043  39.5365322 154.5811032 106.1364193  40.8721176
 156.3005136 105.2878131  32.8236402 157.0736012 104.7407118  32.6849278
 156.6530535 106.1522381  33.0350863 158.1390179 106.6154514  46.0303301
 157.8480045 107.5200145  45.9149967 158.7747163 106.6571041  46.7447371
 158.6371414 101.4470798  30.4554852 158.8896934 100.9252319  29.6938315
 157.6995973 101.2836943  30.5581535 158.3567703 103.3498903  32.6579227
 158.2403961 102.6743807  33.3260311 158.4669962 102.8631277  31.8411380
 156.5492545 102.7529726  39.0589799 155.6243042 102.6205940  39.2667491
 156.7976958 103.5323945  39.5559742 153.9101356 102.3963000  39.8933588
 154.0393737 102.6497478  40.8073000 153.2298807 102.9890708  39.5738243
 158.0800843 113.0660250  35.9924063 158.0024873 114.0168075  36.0712543
 157.4762487 112.7206122  36.6498989 157.0700643 105.0349789  40.7657695
 157.6402000 105.4637057  40.1275180 157.6608755 104.7532374  41.4641881
 157.5625809 100.2013216  49.0118706 156.9324470 100.8829497  49.2454103
 157.4561897 100.0896298  48.0671845 152.8570782  99.8685013  39.9384631
 152.0669836 100.1242541  39.4624741 153.3482029 100.6833350  40.0436671
 154.8085527 100.2329592  36.8968107 154.0116690 100.3448286  37.4151603
 154.5811119 100.5716244  36.0308998 151.1408485 100.1215503  42.3699621
 151.3916523 101.0062513  42.6357197 151.6768033  99.9420104  41.5974713
 156.8406552  94.5033982  51.3743957 156.4473498  93.9500181  52.0491602
 157.6572692  94.8144561  51.7650475 153.8068610 105.9417841  35.2857527
 154.3193130 106.7361091  35.4363092 154.4591323 105.2444131  35.2191129
 155.6163494 109.0583597  37.3680281 155.7930123 109.9801561  37.1801264
 156.4120328 108.7442016  37.7974660 154.9015851 101.1048229  47.2442444
 154.7869366 100.2033486  47.5449543 154.0460369 101.3511925  46.8927260
 156.7394810 110.5761771  43.3690623 157.2902235 110.4478834  42.5967617
 155.9006286 110.8756660  43.0185516 151.7717527 104.2706495  36.0617098
 152.6092749 104.6803503  35.8450806 151.9495794 103.3305937  36.0317292
 156.6333421  96.6318557  37.5860278 157.2077173  96.4093739  36.8533470
 157.2204404  96.7007252  38.3388879 156.9603008  98.6623018  31.6056163
 156.1240321  98.9997705  31.9265438 156.8207778  98.5271998  30.6683300
 158.9356089  93.5059806  36.3135347 158.2820501  93.1908823  35.6891962
 158.8936563  92.8835547  37.0395170 151.7943698 101.6097210  36.7327831
 151.5968097 101.0166571  36.0078898 151.2390362 101.3049420  37.4503770
 157.7132781 100.1197376  36.6112803 156.9000647 100.4191547  37.0177995
 158.2091775  99.7253065  37.3287286 157.2046856  97.6915732  42.2274038
 157.8446235  97.5504491  41.5297002 156.3724387  97.4050245  41.8512640
 157.9807160 106.9918162  38.3409031 158.7747758 106.4968482  38.1391606
 157.2698852 106.4636025  37.9776736 154.2889923 101.1361244  34.4168783
 153.3587511 101.0745700  34.6338746 154.3847395 100.6137197  33.6205425
 154.2075472  97.6616057  37.0047025 154.4682290  98.5761390  36.8956186
 155.0292645  97.1940499  37.1543638 155.6800398  99.0753814  44.1745850
 156.3523451  98.8671176  43.5258499 154.8530184  98.8775900  43.7351082
 156.0827895 102.3496417  44.9348287 155.9447693 101.6176656  45.5359826
 156.9932818 102.2605317  44.6532475 157.4239130  99.0481594  46.2427606
 156.8876487  98.5972333  46.8949202 156.8355838  99.1827503  45.4998070
 155.7187673 115.8145644  40.1372265 155.9584271 116.4464168  40.8151283
 154.8756870 115.4633684  40.4237624 156.8341389  98.5070246  28.8054070
 155.9570855  98.3859046  28.4416316 157.3099142  97.7156324  28.5532958
 148.3543529 103.2947405  38.8995577 149.0414569 102.9809135  38.3116592
 148.1991657 104.1988770  38.6262828 153.1578251  98.1837602  43.3280600
 153.0736440  97.5763271  42.5931010 152.3360957  98.6746620  43.3290097
 157.7426132 109.2706043  45.5177498 158.4435592 109.9042526  45.6706892
 157.2721247 109.6120775  44.7573137 153.3393850 108.8042398  42.4508601
 153.9247287 108.0586086  42.5836505 153.1418689 109.1146355  43.3345265
 156.1932505 111.8393646  37.4671043 155.5242881 112.3239774  36.9835083
 156.0545375 112.0862866  38.3814422 147.9311505 101.3747999  41.1713044
 147.9695604 100.8411589  41.9650162 147.4251798 100.8483204  40.5524021
 155.3102267  96.2212539  44.6675586 155.3743594  97.0827370  44.2552984
 155.2469387  95.6086541  43.9347945 154.7854540  98.2935672  48.3148620
 155.4126578  97.9112749  48.9286145 153.9282459  98.0749874  48.6804313
 151.5620082 100.1012101  34.2466975 151.8573524  99.1922779  34.1934029
 150.6608118 100.0799840  33.9247978 155.0914329  98.1768097  40.2294524
 154.3700915  98.7904065  40.0901997 155.8807585  98.7125862  40.1511170
 157.8940643  95.5122524  46.5035176 158.4175045  95.7584820  47.2661485
 157.6752976  96.3442559  46.0838313 153.2907924  97.7826199  34.3706300
 152.9620630  96.9023577  34.1881406 153.6447295  97.7273867  35.2582690
 156.4049747  98.0699168  34.7381778 156.7445820  98.5985090  34.0160386
 156.8521868  98.4079574  35.5140345 159.0993188  96.4536219  44.1884846
 158.7590008  95.6544032  44.5905526 158.3932194  96.7537930  43.6161679
 158.3917894  96.5673790  32.9375071 159.1126257  96.9455043  32.4338788
 157.7683198  97.2862667  33.0410049 157.2748239 100.2304652  40.4504148
 157.1292819 100.5444955  41.3428429 156.7973442 100.8489552  39.8975046
 151.7493901 102.7709997  43.3891809 151.2047369 103.5469804  43.5212083
 152.6273251 103.1180801  43.2310930 158.5381517  96.1021580  35.7672607
 158.6597429  95.1738227  35.9663495 158.2483560  96.1160266  34.8550923
 152.5359923 101.8979893  46.2821966 151.7941659 102.0462528  46.8686596
 152.2152667 102.1588158  45.4188715 152.9816536 109.7845321  38.3132360
 153.8074556 109.4849093  37.9331004 152.6310588 109.0152944  38.7622149
 157.9498069 109.1371790  40.3830034 157.3278079 108.4742495  40.0832262
 158.6202936 109.1632922  39.7003682 151.1825141 107.7031648  39.2721294
 150.3457050 107.2753822  39.0905295 151.1548787 107.8964091  40.2092085
 158.0222597  97.6153578  49.9762540 158.0710752  98.4915701  49.5940310
 158.5645111  97.0730971  49.4034183 157.5111576 107.6875713  33.8588495
 157.6599697 108.3711177  33.2055167 158.3178020 107.6680803  34.3737950
 155.2664209 103.7140891  34.8649563 155.0210251 102.8103221  35.0629774
 155.4360124 103.7158041  33.9229041 154.5359857  99.4469248  32.3635725
 153.8429102  99.5213603  31.7075761 154.2911609  98.6829592  32.8857242
 150.4974638 100.7640996  39.0570226 150.1777422  99.9106304  38.7644600
 149.9508066 100.9789574  39.8128193 154.2754545 103.4803437  42.7739733
 154.4940555 104.4120545  42.7927766 154.6880319 103.1211411  43.5594536
 159.1482411  99.0536643  52.1642482 159.0479138 100.0031000  52.0954573
 158.9303953  98.7254882  51.2918552 158.3495482  96.3021568  28.7483159
 159.2114646  96.6276466  29.0078976 158.5345826  95.5153064  28.2356225
 150.3662898 104.3843908  41.0263348 149.6726369 103.9697860  40.5133302
 151.1135889 104.4264444  40.4296767 159.0113681 102.4833782  50.9807543
 158.5280763 103.2834142  51.1871432 159.0974620 102.4941727  50.0274987
 152.2799640 104.3162161  38.9029363 152.2570329 104.4149849  37.9511246
 152.5900277 105.1627312  39.2246529 154.9387018 106.3738316  43.0175977
 155.8930272 106.3422259  42.9505909 154.7399542 105.9128940  43.8326203
 155.5286400 104.9439432  45.5846775 156.3479289 105.4383511  45.6081612
 155.8023208 104.0271401  45.5564342 153.2937247 111.9157936  40.0346175
 153.1591715 111.1558337  39.4684173 152.8769309 112.6398836  39.5674964
 156.4506373 112.8127253  40.2464618 156.3338757 113.7572685  40.1443308
 155.6298819 112.5100814  40.6350417 150.7821315  99.2777566  46.2838972
 151.4280178  98.7676520  46.7726197 150.5738466 100.0146248  46.8582397
 157.4760887 113.4655515  43.4620546 158.3788134 113.4979125  43.7787041
 157.2498257 112.5355966  43.4766882 155.1218806  96.4245183  50.3813986
 155.9850267  96.0681988  50.5917311 154.5484216  96.0859078  51.0689390
 158.7705259 116.7039916  41.1713044 158.8089359 116.1703507  41.9650162
 158.2645552 116.1775122  40.5524021  90.6825147   0.8456260  26.8617571
  90.9221746   1.4774784  27.5396590  89.8394344   0.4944300  27.1482930
 102.5981179   4.8920561  23.8380109 102.0346044   4.8010498  23.0696397
 102.4833574   4.0720465  24.3182602 100.1445611   6.3871752  26.6764330
 100.9366903   6.0462577  26.2610629 100.3842261   6.4966727  27.5966483
 108.1780738   8.5591528  19.1494574 107.5268717   9.1445609  18.7628588
 108.9725100   9.0897723  19.2089612 102.1036365   5.6480666  19.5481708
 102.8767241   5.1009653  19.4094584 102.4561764   6.5124915  19.7596170
 103.9421407   6.9757048  32.7548608 103.6511273   7.8802679  32.6395274
 104.5778392   7.0173575  33.4692677 109.6556003   6.2481960  19.6863558
 109.0201836   6.3216587  20.3984463 109.3253409   6.8375559  19.0082638
 108.9011292   6.6618463  29.7498401 108.6012016   7.5643502  29.6414209
 108.5562352   6.3950647  30.6019554  99.7132585   2.7565534  26.6178895
  99.8424966   3.0100013  27.5318307  99.0330036   3.3493242  26.2983550
 103.8832072  13.4262784  22.7169369 103.8056102  14.3770609  22.7957850
 103.2793716  13.0808656  23.3744295 105.9807790   5.8480842  24.5523239
 106.4446136   6.1268545  23.7627861 105.7164589   4.9464286  24.3696329
 102.8731872   5.3952323  27.4903002 103.4433229   5.8239592  26.8520486
 103.4639983   5.1134908  28.1887187 106.4422423   7.1176829  31.5695929
 106.5066856   7.5797236  32.4054100 105.7333347   6.4874194  31.6978238
 106.1570441   8.7844937  21.4374909 106.0216116   9.6296472  21.8659757
 106.6980254   8.9864214  20.6740843  99.6099839   6.3020375  22.0102834
 100.1224359   7.0963625  22.1608399 100.2622551   5.6046665  21.9436435
 101.4194723   9.4186131  24.0925587 101.5961352  10.3404096  23.9046571
 102.2151557   9.1044550  24.5219967 107.7838918   9.4068503  35.5675251
 107.3402772   8.6204882  35.2496155 108.4456131   9.5947654  34.9019142
 102.5426039  10.9364305  30.0935929 103.0933464  10.8081368  29.3212923
 101.7037515  11.2359194  29.7430822 109.8820156   9.6871303  33.5956652
 109.8638631  10.5080184  33.1036921 110.8040076   9.5625378  33.8206793
 106.3393210   7.2015433  34.4380161 106.8721547   6.4403721  34.2079469
 105.8107291   6.9089084  35.1804315  97.5748755   4.6309029  22.7862405
  98.4123977   5.0406037  22.5696112  97.7527023   3.6908471  22.7562598
 107.7045922   6.3301425  21.9498973 107.1767284   5.5954185  21.6372210
 107.2033425   7.1076101  21.7038941 108.7566602  12.8579143  17.8730632
 108.0828300  13.1610839  18.4815590 109.1432423  13.6608223  17.5236089
 112.2606023   7.8600820  23.2449103 111.8068351   7.0191730  23.3014294
 111.6299990   8.4962218  23.5823883 110.7038963   9.6977316  24.1798921
 110.9961937  10.2582374  23.4611287 111.2137583   9.9905877  24.9352081
 106.7262844   5.7902974  16.8146014 106.2882274   5.0738833  16.3551652
 107.4673285   6.0179089  16.2531106 105.6672588  10.4757667  25.2692375
 105.6248767  10.7018514  24.3400907 106.5835287  10.2421042  25.4178176
 103.7838389   7.3520697  25.0654337 104.5778987   6.8571017  24.8636912
 103.0730081   6.8238560  24.7022043 108.6033233   9.7338792  29.4166705
 108.6570255  10.3029728  30.1844421 107.7348015   9.9040677  29.0520742
 106.3609665   7.9249718  28.7452174 106.2220750   7.5568503  29.6178113
 105.5724261   8.4397358  28.5736132 106.9557817  13.0258815  20.0877711
 107.1309572  12.5546858  20.9023334 106.2690605  13.6524581  20.3158972
 107.9114880   7.3031321  26.1341012 107.5764712   7.2632091  27.0298662
 107.4118826   6.6376037  25.6611422 112.5028203   9.3586264  34.0683852
 112.4440749   8.6745484  33.4014435 112.9047722  10.1005254  33.6164478
 101.5218902  16.1748178  26.8617571 101.7615500  16.8066702  27.5396590
 100.6788098  15.8236218  27.1482930  94.1574758   3.6549940  25.6240883
  94.8445797   3.3411670  25.0361899  94.0022886   4.5591304  25.3508135
 106.0346764  11.9827300  29.2659075 105.9616935  12.7882272  29.7778380
 105.5924157  12.1819266  28.4407097 105.8236543  11.2199070  22.7761897
 105.0404065  11.7620750  22.8700121 106.5229289  11.7373050  23.1756138
 108.4945447  11.8814134  31.4217234 109.2073420  12.5161599  31.3493135
 108.0035476  11.9778000  30.6057236 103.5457361   9.6308578  32.2422805
 104.2466820  10.2645061  32.3952199 103.0752476   9.9723309  31.4818444
 111.6711757   7.9726527  20.5270712 111.9471601   7.8583122  21.4364586
 110.8016255   7.5744012  20.4882885 108.3065821  12.2212878  24.1703525
 108.4888215  11.4034534  24.6331278 109.1298807  12.4380571  23.7328415
 108.6407986  11.1481063  21.4318574 109.1695753  10.6373518  20.8188736
 108.9036206  10.8323594  22.2964107  99.1425079   9.1644933  29.1753907
  99.7278516   8.4188621  29.3081812  98.9449917   9.4748889  30.0590571
 101.9963734  12.1996180  24.1916350 101.3274109  12.6842308  23.7080390
 101.8576604  12.4465401  25.1059728  93.7342734   1.7350533  27.8958350
  93.7726833   1.2014124  28.6895469  93.2283026   1.2085738  27.2769328
 106.1369003  14.2339924  30.7899008 106.6887311  14.3971545  31.5548093
 106.4775196  14.8244361  30.1179033 110.9879877   9.0601181  36.6447662
 111.5319781   9.6731139  36.1502617 110.4066722   9.6180760  37.1614676
 109.2737390  12.1821899  27.7762690 109.1488529  11.3811639  27.2673636
 109.9316481  12.6768093  27.2876660 111.3372298   9.9830919  29.4042240
 110.3902634   9.8636270  29.3320567 111.6855072   9.0953417  29.4868502
 108.3418732   9.7783635  25.6046593 108.1943694   8.8500343  25.7854163
 109.1672225   9.8003726  25.1203668 111.9452854  10.6012194  26.6911465
 112.8699401  10.3955056  26.5535916 111.7768157  10.3528595  27.6000807
 111.7348170  11.1197862  22.0473557 111.9085047  10.5544284  21.2947409
 112.2277061  11.9198757  21.8653047  97.5525130   3.1312531  30.1137116
  97.0078598   3.9072339  30.2457390  98.4304479   3.4783335  29.9556237
 112.7223342  10.4364626  19.1470455 113.4174247  11.0571319  19.3657770
 113.0646492   9.5859977  19.4222833  98.3391151   2.2582427  33.0067272
  97.5972887   2.4065062  33.5931903  98.0183896   2.5190693  32.1434022
 106.2834814  11.7998405  32.8047662 106.5921941  11.5547552  33.6770362
 107.0810296  12.0045044  32.3166533 106.3055426  13.9536315  25.0353039
 105.8660416  13.4612694  25.7285896 107.0563543  13.4109283  24.7945114
  98.7847765  10.1447856  25.0377667  99.6105785   9.8451628  24.6576311
  98.4341817   9.3755478  25.4867456 103.7529298   9.4974324  27.1075341
 103.1309308   8.8345029  26.8077569 104.4234165   9.5235456  26.4248988
  96.9856370   8.0634182  25.9966601  96.1488278   7.6356357  25.8150602
  96.9580016   8.2566626  26.9337392 114.3108671   8.5197235  35.9808984
 113.5204215   8.5021374  35.4413483 114.0742026   9.0585529  36.7358020
 103.3142805   8.0478247  20.5833801 103.4630926   8.7313712  19.9300474
 104.1209249   8.0283337  21.0983257 101.0695438   4.0743425  21.5894870
 100.8241480   3.1705755  21.7875080 101.2391353   4.0760575  20.6474348
 106.8138211  10.5426378  18.0545549 106.2412178  11.1616565  17.6016020
 107.3871004  11.0925739  18.5885471 110.0335470  10.8263528  19.1854131
 110.9666144  10.7609090  19.3887006 109.9458683  11.6619795  18.7268664
 100.0785774   3.8405971  29.4985039 100.2971784   4.7723079  29.5173073
 100.4911548   3.4813946  30.2839843  96.1694127   4.7446442  27.7508654
  95.4757598   4.3300395  27.2378609  96.9167118   4.7866978  27.1542073
  98.0830869   4.6764696  25.6274669  98.0601557   4.7752383  24.6756552
  98.3931506   5.5229846  25.9491835 100.7418247   6.7340851  29.7421284
 101.6961501   6.7024793  29.6751215 100.5430771   6.2731474  30.5571510
 101.3317629   5.3041967  32.3092081 102.1510518   5.7986045  32.3326919
 101.6054437   4.3873935  32.2809649  99.0968476  12.2760470  26.7591481
  98.9622944  11.5160871  26.1929480  98.6800538  13.0001370  26.2920270
 102.2537602  13.1729787  26.9709924 102.1369986  14.1175220  26.8688614
 101.4330048  12.8703349  27.3595723 109.1105936   6.7060948  38.5076419
 109.9797095   6.8801600  38.1463054 108.6312687   7.5255365  38.3852148
 103.2792116  13.8258049  30.1865853 104.1819363  13.8581659  30.5032348
 103.0529486  12.8958500  30.2012188 105.0345718  12.5789036  26.8475931
 104.0841349  12.5790897  26.7340303 105.3378204  11.8321770  26.3311966
 120.7698411  18.4149574  27.9121694 121.4076821  18.2956321  27.2085034
 120.6519254  19.3630418  27.9709646 117.5788118  18.3677002  27.8483218
 117.2406629  18.2518067  26.9603753 118.4477886  17.9668167  27.8284224
 113.4374933  20.2212478  23.8380109 112.8739799  20.1302415  23.0696397
 113.3227328  19.4012383  24.3182602 118.0607901  19.5211854  33.8069424
 118.0496541  19.1264652  32.9349927 118.2228540  18.7877926  34.4003195
 110.9839365  21.7163670  26.6764330 111.7760657  21.3754495  26.2610629
 111.2236015  21.8258645  27.5966483 119.0174492  23.8883446  19.1494574
 118.3662472  24.4737527  18.7628588 119.8118855  24.4189641  19.2089612
 112.9430119  20.9772583  19.5481708 113.7160995  20.4301570  19.4094584
 113.2955518  21.8416833  19.7596170 114.7815162  22.3048966  32.7548608
 114.4905028  23.2094596  32.6395274 115.4172146  22.3465493  33.4692677
 115.7071369  19.6825814  29.3449967 116.3034941  19.4581836  28.6306930
 115.7646340  18.9410560  29.9475415 115.2796397  17.1365249  17.1800158
 115.5321918  16.6146771  16.4183621 114.3420956  16.9731395  17.2826842
 120.3239680  16.1401028  24.9874902 121.1102769  15.7220451  24.6365319
 120.5878384  17.0447120  25.1556550 120.4949757  21.5773878  19.6863558
 119.8595590  21.6508505  20.3984463 120.1647164  22.1667477  19.0082638
 125.7248107  16.0776261  25.8907880 126.4573279  15.5075478  26.1245710
 124.9687463  15.6897861  26.3314386 114.9992686  19.0393355  19.3824533
 114.8828944  18.3638259  20.0505618 115.1094946  18.5525729  18.5656686
 117.3424227  18.5003502  23.0871223 116.9782434  17.9734123  23.7984144
 118.1991343  18.1101972  22.9137708 119.7405047  21.9910381  29.7498401
 119.4405770  22.8935420  29.6414209 119.3956106  21.7242564  30.6019554
 113.1917528  18.4424178  25.7835106 112.2668025  18.3100392  25.9912798
 113.4401942  19.2218397  26.2805048 123.1402191  14.5092921  27.4295839
 122.2319068  14.4408330  27.1354600 123.0889787  14.9864866  28.2577664
 116.9618935  15.9851060  19.0679238 116.8418560  16.4308110  19.9064718
 116.2671523  16.3336377  18.5092776 110.5526339  18.0857451  26.6178895
 110.6818721  18.3391930  27.5318307 109.8723791  18.6785159  26.2983550
 114.7225827  28.7554701  22.7169369 114.6449856  29.7062526  22.7957850
 114.1187470  28.4100574  23.3744295 117.2143056  15.9282567  35.3730736
 116.4376391  16.4876487  35.3633601 117.8533620  16.4139350  35.8945606
 125.0063837  12.7109360  29.2073713 124.3638217  13.0041893  28.5613507
 124.5018766  12.5962280  30.0126909 115.4689429  18.7368020  34.9348703
 116.2104113  19.2753064  34.6583527 114.7626414  19.3634309  35.0920255
 120.9444768  20.8797161  33.5320865 121.3528124  20.4379571  32.7875497
 120.2222030  20.3049788  33.7855057 117.2975838  15.8169767  30.9054422
 118.1437034  16.2409181  31.0489071 117.2374476  15.1603392  31.5992985
 121.2673583  21.4398351  27.2873153 120.6382446  21.6044065  26.5849221
 120.8799245  21.8539961  28.0584117 125.1462815  22.3752789  24.6417517
 124.4613853  22.7551690  24.0914551 125.2306664  22.9848116  25.3749465
 120.4475284  13.4774136  32.5635595 120.2036216  14.2316196  32.0269871
 120.7235214  13.8559483  33.3982842 122.4013747  20.0212748  31.2412861
 122.6130642  20.6644508  30.5647242 122.3543495  19.1875065  30.7734791
 120.0039976  12.6330569  28.1449433 119.1424455  12.9311822  28.4366170
 120.0302410  12.8500968  27.2130466 116.8201545  21.1772759  24.5523239
 117.2839890  21.4560462  23.7627861 116.5558343  20.2756204  24.3696329
 113.7125626  20.7244241  27.4903002 114.2826983  21.1531509  26.8520486
 114.3033738  20.4426826  28.1887187 115.7570431  17.2995912  21.3612804
 116.4594474  17.7516955  21.8286730 115.4251060  16.6579731  21.9892697
 114.2050793  15.8907668  35.7364013 113.5749453  16.5723949  35.9699410
 114.0986880  15.7790750  34.7917151 109.4995765  15.5579464  26.6629937
 108.7094819  15.8136993  26.1870048 109.9907012  16.3727802  26.7681978
 123.5159575  22.8984704  29.4135218 124.3377018  22.4964891  29.1317900
 123.5121977  22.7952938  30.3651334 111.4510510  15.9224044  23.6213414
 110.6541674  16.0342738  24.1396910 111.2236103  16.2610696  22.7554304
 117.2816178  22.4468747  31.5695929 117.3460610  22.9089154  32.4054100
 116.5727102  21.8166112  31.6978238 107.7833468  15.8109955  29.0944928
 108.0341506  16.6956965  29.3602504 108.3193016  15.6314556  28.3220020
 116.9964196  24.1136854  21.4374909 116.8609870  24.9588390  21.8659757
 117.5374008  24.3156132  20.6740843 113.4831535  10.1928434  38.0989264
 113.0898481   9.6394633  38.7736908 114.2997676  10.5039013  38.4895782
 110.4493593  21.6312292  22.0102834 110.9618114  22.4255543  22.1608399
 111.1016306  20.9338583  21.9436435 112.2588478  24.7478049  24.0925587
 112.4355106  25.6696013  23.9046571 113.0545311  24.4336468  24.5219967
 116.3999496  11.6086313  35.6909521 117.1409210  12.2093466  35.6113983
 116.6317419  10.8663951  35.1327563 111.5440834  16.7942681  33.9687750
 111.4294349  15.8927938  34.2694849 110.6885352  17.0406377  33.6172567
 118.6232672  24.7360421  35.5675251 118.1796526  23.9496799  35.2496155
 119.2849886  24.9239571  34.9019142 113.3819793  26.2656222  30.0935929
 113.9327218  26.1373286  29.3212923 112.5431269  26.5651111  29.7430822
 120.7213910  25.0163221  33.5956652 120.7032385  25.8372102  33.1036921
 121.6433830  24.8917296  33.8206793 117.1786964  22.5307350  34.4380161
 117.7115301  21.7695638  34.2079469 116.6501045  22.2381002  35.1804315
 108.4142510  19.9600947  22.7862405 109.2517732  20.3697955  22.5696112
 108.5920778  19.0200389  22.7562598 117.8954053  12.4725728  23.5331476
 117.0395649  12.0832579  23.3537115 118.3081005  12.5517689  22.6731261
 119.4253200  10.0072071  27.9323036 118.9217995   9.9702207  27.1190841
 119.7183806  10.9164814  27.9919692 115.6696085  10.0910801  26.9389217
 116.5349082   9.8953610  26.5795107 115.7373594   9.8621153  27.8658574
 118.5439677  21.6593343  21.9498973 118.0161039  20.9246102  21.6372210
 118.0427180  22.4368019  21.7038941 123.5232523  19.8542363  27.0666019
 122.8656197  20.5441625  27.1546148 124.3272922  20.2438795  27.4100005
 113.2758405  12.3213009  24.3105584 113.8502156  12.0988191  23.5778777
 113.8629387  12.3901704  25.0634185 122.3337982  18.2086736  25.1169961
 122.8469864  18.8416728  25.6191670 122.9839206  17.6087931  24.7513321
 113.6027992  14.3517470  18.3301469 112.7665304  14.6892157  18.6510744
 113.4632761  14.2166450  17.3928606 115.5781072   9.1954258  23.0380654
 114.9245485   8.8803275  22.4137268 115.5361546   8.5729998  23.7640477
 119.5960356  28.1871060  17.8730632 118.9222055  28.4902757  18.4815590
 119.9826178  28.9900141  17.5236089 118.8118813  15.6836191  27.3628301
 117.8941374  15.9051138  27.2049989 119.2278956  15.7582502  26.5040009
 119.5953860  17.0827607  22.4930981 120.3425679  17.5949004  22.1838104
 119.8645450  16.7611660  23.3535375 117.8680511  19.5786148  19.4757936
 116.9591730  19.2945181  19.5730406 117.8975594  19.9985226  18.6161243
 123.0999778  23.1892737  23.2449103 122.6462105  22.3483647  23.3014294
 122.4693745  23.8254136  23.5823883 122.0432698  14.1184723  24.4749771
 121.3055454  13.6062110  24.8060013 122.2959471  13.6785105  23.6633048
 121.5432717  25.0269234  24.1798921 121.8355692  25.5874291  23.4611287
 122.0531338  25.3197795  24.9352081 108.4368681  17.2991662  23.4573138
 108.2393081  16.7061023  22.7324205 107.8815345  16.9943872  24.1749077
 116.4165405  17.1914768  25.5767731 116.4714014  16.2388605  25.5010208
 115.6056607  17.3474208  26.0609030 117.5656598  21.1194892  16.8146014
 117.1276028  20.4030750  16.3551652 118.3067039  21.3471006  16.2531106
 114.3557765  15.8091828  23.3358110 113.5425630  16.1085999  23.7423302
 114.8516759  15.4147517  24.0532592 116.5066342  25.8049585  25.2692375
 116.4642521  26.0310431  24.3400907 117.4229041  25.5712960  25.4178176
 119.9531976  16.2733653  32.1673004 120.3081364  16.5005126  33.0267470
 120.6004107  16.6052030  31.5450259 113.8471839  13.3810184  28.9519345
 114.4871219  13.2398943  28.2542308 113.0149370  13.0944697  28.5757947
 125.7099093  21.4628616  27.8833604 126.1435599  21.3703905  28.7316658
 126.4230673  21.4386116  27.2453620 114.6232143  22.6812614  25.0654337
 115.4172742  22.1862934  24.8636912 113.9123836  22.1530477  24.7022043
 119.4426988  25.0630710  29.4166705 119.4964010  25.6321646  30.1844421
 118.5741769  25.2332595  29.0520742 110.9314907  16.8255696  21.1414090
 110.0012495  16.7640151  21.3584052 111.0272379  16.3031649  20.3450731
 110.8500456  13.3510509  23.7292332 111.1107273  14.2655842  23.6201492
 111.6717628  12.8834951  23.8788945 112.3225381  14.7648266  30.8991156
 112.9948434  14.5565628  30.2503805 111.4955168  14.5670352  30.4596389
 126.5714642  21.5052316  30.4166490 126.7650532  22.4098127  30.6625765
 126.4715260  21.0459735  31.2505075 118.2250953  11.3910207  32.9156817
 117.5778868  12.0900157  32.8221294 118.9951968  11.8246351  33.2833065
 121.6329751  21.6559059  35.9907370 121.4815257  21.4269611  35.0737454
 121.6234430  22.6129660  36.0038715 118.4015087  19.2290972  30.9753637
 119.3307147  19.3802131  30.8022604 117.9806117  19.3174993  30.1202283
 117.2003419  23.2541636  28.7452174 117.0614505  22.8860421  29.6178113
 116.4118015  23.7689276  28.5736132 117.7951571  28.3550733  20.0877711
 117.9703327  27.8838776  20.9023334 117.1084359  28.9816499  20.3158972
 118.7508634  22.6323239  26.1341012 118.4158467  22.5924009  27.0298662
 118.2512580  21.9667955  25.6611422 112.7252878  18.0390869  31.6593593
 112.5872676  17.3071108  32.2605132 113.6357802  17.9499769  31.3777781
 115.3535179  17.7510828  31.1477273 116.0634797  17.1104020  31.1063891
 115.3104487  18.0023723  32.0703454 123.3421958  24.6878182  34.0683852
 123.2834504  24.0037402  33.4014435 123.7441476  25.4297172  33.6164478
 114.0664113  14.7376046  32.9672913 113.5301470  14.2866785  33.6194509
 113.4780821  14.8721955  32.2243377 112.3612656  31.5040095  26.8617571
 112.6009255  32.1358620  27.5396590 111.5181853  31.1528135  27.1482930
 123.3439365  22.6517766  32.2997832 122.4566144  22.3143687  32.4224231
 123.9137916  21.9200797  32.5366597 104.9968512  18.9841857  25.6240883
 105.6839552  18.6703587  25.0361899 104.8416641  19.8883222  25.3508135
 109.8003234  13.8732054  30.0525907 109.7161423  13.2657723  29.3176317
 108.9785941  14.3641072  30.0535403 116.8740518  27.3119218  29.2659075
 116.8010690  28.1174189  29.7778380 116.4317911  27.5111184  28.4407097
 116.6630298  26.5490988  22.7761897 115.8797820  27.0912668  22.8700121
 117.3623043  27.0664968  23.1756138 119.9726948  12.3585617  25.4196102
 120.4695648  11.6055580  25.0997172 119.2013930  12.3949934  24.8539311
 127.8256705  18.0625983  27.0614394 127.8146582  18.9450698  26.6908327
 126.9574085  17.7097534  26.8668931 119.3339202  27.2106052  31.4217234
 120.0467174  27.8453517  31.3493135 118.8429230  27.3069918  30.6057236
 121.0556729  21.1157305  22.9934525 120.1213007  21.2358767  22.8239230
 121.2333397  20.2129771  22.7294535 116.5561917  14.5003000  25.1467787
 116.1859704  13.9474041  25.8348692 117.0521009  13.8961134  24.5942787
 124.4429280  16.9574624  23.5284560 124.9089732  17.7902615  23.4544862
 124.8936781  16.4919605  24.2329818 114.3851115  24.9600495  32.2422805
 115.0860575  25.5936978  32.3952199 113.9146230  25.3015227  31.4818444
 122.5105511  23.3018445  20.5270712 122.7865355  23.1875040  21.4364586
 121.6410010  22.9035930  20.4882885 122.1852401  17.5145103  30.0675355
 121.5323852  17.7621010  29.4127808 122.5632781  16.7009241  29.7337832
 119.1459575  27.5504796  24.1703525 119.3281970  26.7326452  24.6331278
 119.9692561  27.7672488  23.7328415 119.4801741  26.4772981  21.4318574
 120.0089507  25.9665436  20.8188736 119.7429960  26.1615511  22.2964107
 118.2339974  18.2564914  36.5541392 117.5580611  18.1559043  37.2243767
 119.0567608  18.1004128  37.0177389 109.9818833  24.4936850  29.1753907
 110.5672270  23.7480538  29.3081812 109.7843672  24.8040807  30.0590571
 112.8357489  27.5288098  24.1916350 112.1667864  28.0134225  23.7080390
 112.6970358  27.7757318  25.1059728 104.5736488  17.0642451  27.8958350
 104.6120588  16.5306041  28.6895469 104.0676781  16.5377656  27.2769328
 116.9762757  29.5631841  30.7899008 117.5281065  29.7263463  31.5548093
 117.3168951  30.1536279  30.1179033 111.9527250  11.9106991  31.3920893
 112.0168577  12.7721822  30.9798290 111.8894371  11.2980993  30.6593251
 111.4279523  13.9830124  35.0393927 112.0551562  13.6007201  35.6531451
 110.5707442  13.7644326  35.4049620 121.8273632  24.3893099  36.6447662
 122.3713536  25.0023057  36.1502617 121.2460476  24.9472677  37.1614676
 108.2045066  15.7906553  20.9712282 108.4998507  14.8817231  20.9179336
 107.3033101  15.7694292  20.6493284 120.1131144  27.5113817  27.7762690
 119.9882284  26.7103557  27.2673636 120.7710236  28.0060010  27.2876660
 111.7339313  13.8662549  26.9539830 111.0125898  14.4798517  26.8147304
 112.5232568  14.4020314  26.8756476 122.1766053  25.3122837  29.4042240
 121.2296388  25.1928188  29.3320567 122.5248826  24.4245335  29.4868502
 114.5365626  11.2016976  33.2280482 115.0600028  11.4479272  33.9906792
 114.3177960  12.0337011  32.8083620 109.9332907  13.4720650  21.0951607
 109.6045613  12.5918029  20.9126713 110.2872278  13.4168319  21.9827996
 119.1812486  25.1075553  25.6046593 119.0337449  24.1792261  25.7854163
 120.0065980  25.1295644  25.1203668 113.0474730  13.7593620  21.4627085
 113.3870803  14.2879541  20.7405693 113.4946851  14.0974026  22.2385651
 122.7846608  25.9304112  26.6911465 123.7093156  25.7246973  26.5535916
 122.6161911  25.6820513  27.6000807 115.7418171  12.1430671  30.9130153
 115.4014992  11.3438484  31.3150833 115.0357178  12.4432382  30.3406986
 115.0342878  12.2568242  19.6620377 115.7551240  12.6349495  19.1584094
 114.4108182  12.9757119  19.7655355 113.9173222  15.9199104  27.1749454
 113.7717803  16.2339407  28.0673736 113.4398426  16.5384004  26.6220353
 115.7769605  12.9101652  27.2230344 115.7631174  12.0142745  26.8862642
 116.4942033  12.9172316  27.8568630 117.6295735  13.3438992  29.2683471
 117.3713513  14.2656063  29.2667802 117.0980776  12.9469427  29.9583935
 122.5741924  26.4489779  22.0473557 122.7478802  25.8836202  21.2947409
 123.0670815  27.2490674  21.8653047 108.3918884  18.4604448  30.1137116
 107.8472352  19.2364256  30.2457390 109.2698234  18.8075253  29.9556237
 115.1806501  11.7916032  22.4917914 115.3022412  10.8632678  22.6908802
 114.8908543  11.8054718  21.5796229 123.5617097  25.7656544  19.1470455
 124.2568001  26.3863236  19.3657770 123.9040247  24.9151895  19.4222833
 109.1784906  17.5874345  33.0067272 108.4366642  17.7356980  33.5931903
 108.8577650  17.8482610  32.1434022 117.1228569  27.1290323  32.8047662
 117.4315695  26.8839470  33.6770362 117.9204051  27.3336961  32.3166533
 117.1449181  29.2828233  25.0353039 116.7054171  28.7904611  25.7285896
 117.8957298  28.7401200  24.7945114 109.6241520  25.4739773  25.0377667
 110.4499539  25.1743545  24.6576311 109.2735572  24.7047396  25.4867456
 114.5923053  24.8266242  27.1075341 113.9703062  24.1636947  26.8077569
 115.2627920  24.8527374  26.4248988 107.8250125  23.3926100  25.9966601
 106.9882033  22.9648274  25.8150602 107.7973770  23.5858543  26.9337392
 114.6647580  13.3048030  36.7007847 114.7135736  14.1810152  36.3185616
 115.2070094  12.7625423  36.1279490 125.1502426  23.8489153  35.9808984
 124.3597970  23.8313292  35.4413483 124.9135780  24.3877447  36.7358020
 125.2700301  20.6981619  33.2941712 125.3198306  20.5331627  34.2357235
 125.1614224  19.8308878  32.9039593 114.1536560  23.3770165  20.5833801
 114.3024680  24.0605629  19.9300474 114.9603003  23.3575255  21.0983257
 122.5604063  16.6812547  34.6101019 123.4613926  16.5419012  34.3185017
 122.6352038  16.8467002  35.5499196 116.8946869  14.0579402  33.4554205
 116.0250178  14.3512968  33.1836794 117.1306349  14.6419847  34.1761469
 126.7718498  23.1178561  33.5383734 126.4803306  23.4808541  34.3747195
 126.1590629  22.4045569  33.3597066 127.9714180  20.6831441  26.0586304
 128.8061071  21.1221245  26.2223864 128.1073309  20.2070094  25.2394550
 125.0205686  18.2411175  32.0063792 125.4959808  18.4338822  31.1982643
 124.0971251  18.2970361  31.7607175 111.9089193  19.4035343  21.5894870
 111.6635235  18.4997673  21.7875080 112.0785107  19.4052493  20.6474348
 119.5985903  10.2759019  30.9719626 120.1167846  11.0120046  30.6466114
 119.2441035  10.5823012  31.8066385 111.1784840  15.1363700  19.0881032
 110.4854085  15.2108055  18.4321068 110.9336592  14.3724044  19.6102548
 117.6531965  25.8718295  18.0545549 117.0805932  26.4908483  17.6016020
 118.2264759  26.4217657  18.5885471 123.7207355  15.1176935  30.2392097
 124.6724778  15.2175033  30.2604321 123.5510805  14.3255204  30.7490182
 121.7421734  12.2032519  30.4251498 121.1471667  12.4837531  29.7297987
 121.4571431  12.6926420  31.1968239 120.8729225  26.1555446  19.1854131
 121.8059898  26.0901007  19.3887006 120.7852438  26.9911712  18.7268664
 126.1995433  18.3383055  29.3534397 126.1671753  17.3999056  29.5394081
 126.8096056  18.4167092  28.6200222 126.3489921  15.1294099  29.3992680
 125.8328970  14.3452555  29.2122609 127.2329870  14.8012815  29.5639200
 132.0171983  19.3999062  28.4940434 132.7475371  19.1384350  29.0548137
 131.4078928  18.6627784  28.5342502 130.0987280  17.5406925  29.0914885
 129.3720443  17.4062890  28.4831377 129.6834567  17.8483753  29.8971603
 117.9217456  21.2596854  36.8562258 118.8420466  21.4375453  37.0502305
 117.8867039  20.3152900  36.7041957 107.1399621  16.4535448  25.7815533
 106.8202406  15.6000756  25.4889907 106.5933049  16.6684026  26.5373500
 110.9179529  19.1697889  29.4985039 111.1365539  20.1014997  29.5173073
 111.3305303  18.8105863  30.2839843 115.7907394  14.7431095  38.8887788
 115.6904121  15.6925452  38.8199879 115.5728936  14.4149334  38.0163858
 107.0087881  20.0738359  27.7508654 106.3151353  19.6592312  27.2378609
 107.7560872  20.1158896  27.1542073 115.6538664  18.1728234  37.7052850
 115.1705746  18.9728594  37.9116739 115.7399603  18.1836178  36.7520294
 108.9224624  20.0056613  25.6274669 108.8995312  20.1044300  24.6756552
 109.2325260  20.8521764  25.9491835 111.5812002  22.0632768  29.7421284
 112.5355255  22.0316711  29.6751215 111.3824525  21.6023392  30.5571510
 112.1711384  20.6333884  32.3092081 112.9904273  21.1277963  32.3326919
 112.4448191  19.7165852  32.2809649 109.9362230  27.6052388  26.7591481
 109.8016698  26.8452789  26.1929480 109.5194293  28.3293288  26.2920270
 121.9019004  18.5399173  21.8870327 121.8454205  18.9967724  21.0477959
 122.4547346  17.7789857  21.7093170 113.0931356  28.5021705  26.9709924
 112.9763740  29.4467137  26.8688614 112.2723803  28.1995266  27.3595723
 107.4246298  14.9672018  33.0084278 108.0705162  14.4570972  33.4971504
 107.2163449  15.7040700  33.5827704 119.9499690  22.0352866  38.5076419
 120.8190850  22.2093518  38.1463054 119.4706442  22.8547282  38.3852148
 114.1185870  29.1549967  30.1865853 115.0213117  29.1873577  30.5032348
 113.8923240  28.2250418  30.2012188 115.8739472  27.9080953  26.8475931
 114.9235103  27.9082815  26.7340303 116.1771959  27.1613688  26.3311966
 111.7643789  12.1139635  37.1059293 112.6275251  11.7576440  37.3162617
 111.1909200  11.7753530  37.7934697 131.6092166  33.7441492  27.9121694
 132.2470576  33.6248239  27.2085034 131.4913009  34.6922336  27.9709646
 128.4181872  33.6968920  27.8483218 128.0800384  33.5809984  26.9603753
 129.2871640  33.2960085  27.8284224 124.2768688  35.5504396  23.8380109
 123.7133553  35.4594333  23.0696397 124.1621083  34.7304301  24.3182602
 128.9001655  34.8503771  33.8069424 128.8890296  34.4556570  32.9349927
 129.0622295  34.1169844  34.4003195 121.8233120  37.0455588  26.6764330
 122.6154412  36.7046412  26.2610629 122.0629770  37.1550563  27.5966483
 129.8568247  39.2175364  19.1494574 129.2056226  39.8029444  18.7628588
 130.6512609  39.7481559  19.2089612 123.7823874  36.3064501  19.5481708
 124.5554750  35.7593488  19.4094584 124.1349273  37.1708750  19.7596170
 125.6208916  37.6340883  32.7548608 125.3298782  38.5386514  32.6395274
 126.2565901  37.6757411  33.4692677 126.5465123  35.0117732  29.3449967
 127.1428695  34.7873754  28.6306930 126.6040095  34.2702477  29.9475415
 126.1190152  32.4657167  17.1800158 126.3715672  31.9438688  16.4183621
 125.1814711  32.3023313  17.2826842 131.1633434  31.4692945  24.9874902
 131.9496524  31.0512369  24.6365319 131.4272139  32.3739038  25.1556550
 131.3343512  36.9065796  19.6863558 130.6989345  36.9800422  20.3984463
 131.0040918  37.4959395  19.0082638 136.5641862  31.4068179  25.8907880
 137.2967033  30.8367395  26.1245710 135.8081217  31.0189779  26.3314386
 125.8386440  34.3685273  19.3824533 125.7222698  33.6930176  20.0505618
 125.9488700  33.8817647  18.5656686 128.1817981  33.8295420  23.0871223
 127.8176188  33.3026041  23.7984144 129.0385097  33.4393889  22.9137708
 134.0867282  25.1189753  30.3502489 133.7550607  25.9885164  30.1263704
 133.4912895  24.8026037  31.0296519 130.5798801  37.3202299  29.7498401
 130.2799525  38.2227338  29.6414209 130.2349861  37.0534482  30.6019554
 124.0311283  33.7716096  25.7835106 123.1061779  33.6392310  25.9912798
 124.2795696  34.5510315  26.2805048 133.9795945  29.8384839  27.4295839
 133.0712823  29.7700247  27.1354600 133.9283541  30.3156784  28.2577664
 127.8012689  31.3142977  19.0679238 127.6812314  31.7600028  19.9064718
 127.1065277  31.6628295  18.5092776 121.3920094  33.4149369  26.6178895
 121.5212475  33.6683848  27.5318307 120.7117545  34.0077077  26.2983550
 125.5619581  44.0846619  22.7169369 125.4843611  45.0354444  22.7957850
 124.9581225  43.7392492  23.3744295 128.0536811  31.2574485  35.3730736
 127.2770145  31.8168405  35.3633601 128.6927374  31.7431267  35.8945606
 135.8457592  28.0401277  29.2073713 135.2031972  28.3333810  28.5613507
 135.3412520  27.9254198  30.0126909 126.3083183  34.0659938  34.9348703
 127.0497868  34.6044982  34.6583527 125.6020169  34.6926227  35.0920255
 131.7838523  36.2089078  33.5320865 132.1921879  35.7671489  32.7875497
 131.0615784  35.6341706  33.7855057 128.1369593  31.1461685  30.9054422
 128.9830788  31.5701099  31.0489071 128.0768231  30.4895309  31.5992985
 132.1067338  36.7690269  27.2873153 131.4776200  36.9335983  26.5849221
 131.7193000  37.1831879  28.0584117 135.9856569  37.7044707  24.6417517
 135.3007608  38.0843608  24.0914551 136.0700419  38.3140033  25.3749465
 131.2869038  28.8066053  32.5635595 131.0429970  29.5608114  32.0269871
 131.5628969  29.1851401  33.3982842 133.2407501  35.3504666  31.2412861
 133.4524396  35.9936426  30.5647242 133.1937249  34.5166982  30.7734791
 130.8433730  27.9622486  28.1449433 129.9818209  28.2603740  28.4366170
 130.8696165  28.1792885  27.2130466 127.6595299  36.5064677  24.5523239
 128.1233645  36.7852380  23.7627861 127.3952098  35.6048122  24.3696329
 124.5519381  36.0536159  27.4903002 125.1220738  36.4823427  26.8520486
 125.1427492  35.7718743  28.1887187 126.5964186  32.6287829  21.3612804
 127.2988229  33.0808873  21.8286730 126.2644814  31.9871648  21.9892697
 125.0444547  31.2199586  35.7364013 124.4143208  31.9015867  35.9699410
 124.9380635  31.1082668  34.7917151 120.3389519  30.8871382  26.6629937
 119.5488573  31.1428911  26.1870048 120.8300767  31.7019720  26.7681978
 134.3553329  38.2276621  29.4135218 135.1770773  37.8256809  29.1317900
 134.3515732  38.1244855  30.3651334 122.2904265  31.2515961  23.6213414
 121.4935428  31.3634656  24.1396910 122.0629857  31.5902614  22.7554304
 128.1209932  37.7760665  31.5695929 128.1854365  38.2381072  32.4054100
 127.4120856  37.1458029  31.6978238 118.6227222  31.1401873  29.0944928
 118.8735261  32.0248882  29.3602504 119.1586771  30.9606474  28.3220020
 127.8357950  39.4428772  21.4374909 127.7003625  40.2880308  21.8659757
 128.3767763  39.6448050  20.6740843 124.3225290  25.5220352  38.0989264
 123.9292235  24.9686550  38.7736908 125.1391430  25.8330930  38.4895782
 121.2887348  36.9604210  22.0102834 121.8011868  37.7547460  22.1608399
 121.9410060  36.2630501  21.9436435 123.0982232  40.0769966  24.0925587
 123.2748861  40.9987931  23.9046571 123.8939066  39.7628386  24.5219967
 127.2393251  26.9378231  35.6909521 127.9802964  27.5385384  35.6113983
 127.4711174  26.1955869  35.1327563 122.3834589  32.1234598  33.9687750
 122.2688104  31.2219855  34.2694849 121.5279107  32.3698295  33.6172567
 129.4626427  40.0652339  35.5675251 129.0190281  39.2788717  35.2496155
 130.1243640  40.2531489  34.9019142 124.2213548  41.5948140  30.0935929
 124.7720973  41.4665204  29.3212923 123.3825024  41.8943029  29.7430822
 131.5607665  40.3455138  33.5956652 131.5426140  41.1664020  33.1036921
 132.4827585  40.2209214  33.8206793 128.0180719  37.8599268  34.4380161
 128.5509056  37.0987556  34.2079469 127.4894800  37.5672920  35.1804315
 131.1850414  22.9659334  29.9673802 130.8414683  23.8560976  29.8912913
 131.5529376  22.7760992  29.1043387 119.2536264  35.2892864  22.7862405
 120.0911486  35.6989873  22.5696112 119.4314532  34.3492307  22.7562598
 128.7347807  27.8017646  23.5331476 127.8789404  27.4124496  23.3537115
 129.1474759  27.8809607  22.6731261 130.2646954  25.3363989  27.9323036
 129.7611750  25.2994124  27.1190841 130.5577561  26.2456732  27.9919692
 126.5089840  25.4202719  26.9389217 127.3742837  25.2245527  26.5795107
 126.5767349  25.1913071  27.8658574 129.3833431  36.9885260  21.9498973
 128.8554793  36.2538020  21.6372210 128.8820934  37.7659937  21.7038941
 134.3626277  35.1834281  27.0666019 133.7049952  35.8733542  27.1546148
 135.1666677  35.5730713  27.4100005 124.1152159  27.6504927  24.3105584
 124.6895911  27.4280108  23.5778777 124.7023141  27.7193621  25.0634185
 133.1731736  33.5378654  25.1169961 133.6863618  34.1708645  25.6191670
 133.8232960  32.9379849  24.7513321 124.4421746  29.6809388  18.3301469
 123.6059058  30.0184074  18.6510744 124.3026516  29.5458368  17.3928606
 126.4174827  24.5246176  23.0380654 125.7639239  24.2095193  22.4137268
 126.3755301  23.9021916  23.7640477 130.4354111  43.5162978  17.8730632
 129.7615809  43.8194675  18.4815590 130.8219932  44.3192058  17.5236089
 129.6512567  31.0128109  27.3628301 128.7335128  31.2343056  27.2049989
 130.0672711  31.0874420  26.5040009 130.4347615  32.4119525  22.4930981
 131.1819434  32.9240922  22.1838104 130.7039204  32.0903578  23.3535375
 128.7074265  34.9078066  19.4757936 127.7985484  34.6237098  19.5730406
 128.7369349  35.3277144  18.6161243 133.9393532  38.5184655  23.2449103
 133.4855860  37.6775565  23.3014294 133.3087499  39.1546053  23.5823883
 132.8826452  29.4476641  24.4749771 132.1449209  28.9354027  24.8060013
 133.1353226  29.0077023  23.6633048 132.3826472  40.3561152  24.1798921
 132.6749446  40.9166209  23.4611287 132.8925092  40.6489713  24.9352081
 119.2762435  32.6283580  23.4573138 119.0786835  32.0352940  22.7324205
 118.7209099  32.3235790  24.1749077 127.2559159  32.5206686  25.5767731
 127.3107769  31.5680523  25.5010208 126.4450361  32.6766125  26.0609030
 128.4050353  36.4486809  16.8146014 127.9669783  35.7322668  16.3551652
 129.1460794  36.6762924  16.2531106 125.1951519  31.1383746  23.3358110
 124.3819385  31.4377916  23.7423302 125.6910513  30.7439435  24.0532592
 127.3460097  41.1341503  25.2692375 127.3036276  41.3602349  24.3400907
 128.2622796  40.9004877  25.4178176 130.7925731  31.6025570  32.1673004
 131.1475118  31.8297044  33.0267470 131.4397862  31.9343947  31.5450259
 124.6865594  28.7102101  28.9519345 125.3264973  28.5690861  28.2542308
 123.8543124  28.4236615  28.5757947 136.5492847  36.7920533  27.8833604
 136.9829354  36.6995822  28.7316658 137.2624428  36.7678034  27.2453620
 125.4625898  38.0104532  25.0654337 126.2566496  37.5154852  24.8636912
 124.7517590  37.4822395  24.7022043 130.2820742  40.3922627  29.4166705
 130.3357764  40.9613564  30.1844421 129.4135524  40.5624512  29.0520742
 121.7708661  32.1547614  21.1414090 120.8406249  32.0932069  21.3584052
 121.8666133  31.6323566  20.3450731 121.6894210  28.6802426  23.7292332
 121.9501027  29.5947760  23.6201492 122.5111383  28.2126869  23.8788945
 123.1619136  30.0940184  30.8991156 123.8342189  29.8857546  30.2503805
 122.3348922  29.8962270  30.4596389 137.4108397  36.8344234  30.4166490
 137.6044287  37.7390044  30.6625765 137.3109015  36.3751653  31.2505075
 129.0644708  26.7202125  32.9156817 128.4172623  27.4192074  32.8221294
 129.8345723  27.1538268  33.2833065 132.4723505  36.9850977  35.9907370
 132.3209012  36.7561528  35.0737454 132.4628185  37.9421578  36.0038715
 129.2408842  34.5582889  30.9753637 130.1700902  34.7094049  30.8022604
 128.8199872  34.6466910  30.1202283 128.0397174  38.5833554  28.7452174
 127.9008259  38.2152338  29.6178113 127.2511770  39.0981193  28.5736132
 128.6345326  43.6842650  20.0877711 128.8097081  43.2130694  20.9023334
 127.9478114  44.3108417  20.3158972 129.5902389  37.9615157  26.1341012
 129.2552221  37.9215927  27.0298662 129.0906335  37.2959872  25.6611422
 123.5646633  33.3682787  31.6593593 123.4266431  32.6363025  32.2605132
 124.4751556  33.2791687  31.3777781 126.1928933  33.0802746  31.1477273
 126.9028552  32.4395938  31.1063891 126.1498242  33.3315641  32.0703454
 134.1815712  40.0170099  34.0683852 134.1228258  39.3329319  33.4014435
 134.5835231  40.7589089  33.6164478 124.9057867  30.0667964  32.9672913
 124.3695224  29.6158702  33.6194509 124.3174576  30.2013873  32.2243377
 123.2006411  46.8332013  26.8617571 123.4403009  47.4650537  27.5396590
 122.3575607  46.4820053  27.1482930 134.1833119  37.9809683  32.2997832
 133.2959898  37.6435605  32.4224231 134.7531670  37.2492714  32.5366597
 115.8362267  34.3133775  25.6240883 116.5233306  33.9995505  25.0361899
 115.6810395  35.2175140  25.3508135 120.6396989  29.2023971  30.0525907
 120.5555177  28.5949641  29.3176317 119.8179695  29.6932990  30.0535403
 127.7134273  42.6411136  29.2659075 127.6404444  43.4466107  29.7778380
 127.2711666  42.8403101  28.4407097 127.5024052  41.8782906  22.7761897
 126.7191574  42.4204586  22.8700121 128.2016798  42.3956885  23.1756138
 130.8120703  27.6877535  25.4196102 131.3089402  26.9347497  25.0997172
 130.0407684  27.7241852  24.8539311 138.6650460  33.3917901  27.0614394
 138.6540336  34.2742616  26.6908327 137.7967839  33.0389451  26.8668931
 130.1732956  42.5397970  31.4217234 130.8860929  43.1745434  31.3493135
 129.6822985  42.6361836  30.6057236 131.8950483  36.4449222  22.9934525
 130.9606762  36.5650685  22.8239230 132.0727152  35.5421689  22.7294535
 127.3955671  29.8294918  25.1467787 127.0253459  29.2765958  25.8348692
 127.8914764  29.2253051  24.5942787 135.2823035  32.2866542  23.5284560
 135.7483487  33.1194533  23.4544862 135.7330535  31.8211523  24.2329818
 125.2244870  40.2892413  32.2422805 125.9254329  40.9228896  32.3952199
 124.7539985  40.6307145  31.4818444 133.3499266  38.6310363  20.5270712
 133.6259110  38.5166957  21.4364586 132.4803764  38.2327848  20.4882885
 133.2539697  24.6547129  27.5675461 132.3402777  24.8851355  27.7357668
 133.6832799  24.7385573  28.4189493 133.0246156  32.8437020  30.0675355
 132.3717606  33.0912928  29.4127808 133.4026536  32.0301159  29.7337832
 129.9853330  42.8796714  24.1703525 130.1675724  42.0618370  24.6331278
 130.8086316  43.0964406  23.7328415 130.3195495  41.8064899  21.4318574
 130.8483262  41.2957353  20.8188736 130.5823715  41.4907429  22.2964107
 129.0733729  33.5856832  36.5541392 128.3974366  33.4850961  37.2243767
 129.8961363  33.4296045  37.0177389 120.8212588  39.8228768  29.1753907
 121.4066025  39.0772456  29.3081812 120.6237426  40.1332725  30.0590571
 123.6751243  42.8580015  24.1916350 123.0061618  43.3426143  23.7080390
 123.5364113  43.1049236  25.1059728 115.4130243  32.3934368  27.8958350
 115.4514342  31.8597959  28.6895469 114.9070535  31.8669574  27.2769328
 127.8156512  44.8923759  30.7899008 128.3674820  45.0555380  31.5548093
 128.1562705  45.4828197  30.1179033 122.7921005  27.2398909  31.3920893
 122.8562331  28.1013740  30.9798290 122.7288125  26.6272910  30.6593251
 122.2673277  29.3122041  35.0393927 122.8945316  28.9299119  35.6531451
 121.4101196  29.0936243  35.4049620 132.6667386  39.7185016  36.6447662
 133.2107290  40.3314975  36.1502617 132.0854231  40.2764595  37.1614676
 119.0438820  31.1198470  20.9712282 119.3392261  30.2109149  20.9179336
 118.1426856  31.0986210  20.6493284 130.9524899  42.8405735  27.7762690
 130.8276038  42.0395474  27.2673636 131.6103990  43.3351928  27.2876660
 122.5733067  29.1954467  26.9539830 121.8519653  29.8090435  26.8147304
 123.3626323  29.7312232  26.8756476 133.0159807  40.6414755  29.4042240
 132.0690143  40.5220106  29.3320567 133.3642580  39.7537253  29.4868502
 125.3759381  26.5308894  33.2280482 125.8993783  26.7771190  33.9906792
 125.1571714  27.3628928  32.8083620 120.7726662  28.8012568  21.0951607
 120.4439368  27.9209947  20.9126713 121.1266033  28.7460237  21.9827996
 130.0206241  40.4367471  25.6046593 129.8731203  39.5084178  25.7854163
 130.8459734  40.4587562  25.1203668 123.8868485  29.0885538  21.4627085
 124.2264557  29.6171459  20.7405693 124.3340605  29.4265944  22.2385651
 133.6240363  41.2596030  26.6911465 134.5486910  41.0538891  26.5535916
 133.4555666  41.0112431  27.6000807 126.5811926  27.4722589  30.9130153
 126.2408746  26.6730402  31.3150833 125.8750932  27.7724299  30.3406986
 127.2328398  24.5571901  29.3657476 128.0554467  24.0832379  29.2436366
 127.4766461  25.3362385  29.8656162 125.8736632  27.5860159  19.6620377
 126.5944995  27.9641412  19.1584094 125.2501936  28.3049036  19.7655355
 124.7566976  31.2491022  27.1749454 124.6111557  31.5631325  28.0673736
 124.2792180  31.8675922  26.6220353 126.6163359  28.2393570  27.2230344
 126.6024928  27.3434663  26.8862642 127.3335787  28.2464233  27.8568630
 128.4689490  28.6730910  29.2683471 128.2107268  29.5947981  29.2667802
 127.9374530  28.2761344  29.9583935 133.4135679  41.7781697  22.0473557
 133.5872556  41.2128119  21.2947409 133.9064570  42.5782592  21.8653047
 119.2312639  33.7896366  30.1137116 118.6866107  34.5656174  30.2457390
 120.1091988  34.1367171  29.9556237 126.0200255  27.1207950  22.4917914
 126.1416166  26.1924596  22.6908802 125.7302298  27.1346636  21.5796229
 128.8891446  24.8062860  25.6284634 128.9113142  24.8702193  24.6736613
 129.3059505  23.9667369  25.8225140 134.4010851  41.0948461  19.1470455
 135.0961756  41.7155154  19.3657770 134.7434001  40.2443813  19.4222833
 120.0178660  32.9166262  33.0067272 119.2760396  33.0648898  33.5931903
 119.6971405  33.1774528  32.1434022 127.9622323  42.4582241  32.8047662
 128.2709449  42.2131387  33.6770362 128.7597805  42.6628879  32.3166533
 127.9842935  44.6120150  25.0353039 127.5447925  44.1196529  25.7285896
 128.7351052  44.0693118  24.7945114 120.4635274  40.8031691  25.0377667
 121.2893294  40.5035463  24.6576311 120.1129326  40.0339313  25.4867456
 125.4316807  40.1558159  27.1075341 124.8096817  39.4928864  26.8077569
 126.1021674  40.1819291  26.4248988 118.6643879  38.7218018  25.9966601
 117.8275787  38.2940192  25.8150602 118.6367525  38.9150461  26.9337392
 125.5041335  28.6339947  36.7007847 125.5529490  29.5102070  36.3185616
 126.0463849  28.0917340  36.1279490 135.9896180  39.1781071  35.9808984
 135.1991724  39.1605209  35.4413483 135.7529535  39.7169364  36.7358020
 136.1094055  36.0273537  33.2941712 136.1592060  35.8623544  34.2357235
 136.0007979  35.1600796  32.9039593 124.9930314  38.7062083  20.5833801
 125.1418435  39.3897547  19.9300474 125.7996758  38.6867173  21.0983257
 133.3997818  32.0104465  34.6101019 134.3007681  31.8710930  34.3185017
 133.4745792  32.1758920  35.5499196 127.7340623  29.3871320  33.4554205
 126.8643933  29.6804886  33.1836794 127.9700104  29.9711765  34.1761469
 137.6112252  38.4470478  33.5383734 137.3197061  38.8100459  34.3747195
 136.9984384  37.7337487  33.3597066 138.8107935  36.0123358  26.0586304
 139.6454826  36.4513162  26.2223864 138.9467063  35.5362011  25.2394550
 135.8599441  33.5703093  32.0063792 136.3353562  33.7630739  31.1982643
 134.9365006  33.6262279  31.7607175 122.7482947  34.7327260  21.5894870
 122.5028989  33.8289590  21.7875080 122.9178862  34.7344411  20.6474348
 130.4379657  25.6050937  30.9719626 130.9561601  26.3411964  30.6466114
 130.0834790  25.9114930  31.8066385 122.0178595  30.4655618  19.0881032
 121.3247840  30.5399973  18.4321068 121.7730347  29.7015961  19.6102548
 130.6892251  22.0251219  26.4920522 130.9694005  21.3574408  27.1180949
 131.4742858  22.2180315  25.9795186 128.4925720  41.2010213  18.0545549
 127.9199687  41.8200400  17.6016020 129.0658513  41.7509575  18.5885471
 134.5601110  30.4468853  30.2392097 135.5118532  30.5466951  30.2604321
 134.3904560  29.6547122  30.7490182 132.5815489  27.5324436  30.4251498
 131.9865421  27.8129449  29.7297987 132.2965186  28.0218337  31.1968239
 131.7122979  41.4847363  19.1854131 132.6453653  41.4192925  19.3887006
 131.6246192  42.3203630  18.7268664 137.0389187  33.6674973  29.3534397
 137.0065507  32.7290974  29.5394081 137.6489811  33.7459010  28.6200222
 137.1883676  30.4586016  29.3992680 136.6722724  29.6744473  29.2122609
 138.0723624  30.1304733  29.5639200 142.8565737  34.7290980  28.4940434
 143.5869126  34.4676268  29.0548137 142.2472683  33.9919702  28.5342502
 140.9381034  32.8698842  29.0914885 140.2114198  32.7354807  28.4831377
 140.5228321  33.1775671  29.8971603 128.7611211  36.5888772  36.8562258
 129.6814220  36.7667371  37.0502305 128.7260794  35.6444817  36.7041957
 117.9793376  31.7827366  25.7815533 117.6596160  30.9292674  25.4889907
 117.4326804  31.9975944  26.5373500 121.7573283  34.4989807  29.4985039
 121.9759293  35.4306914  29.5173073 122.1699057  34.1397781  30.2839843
 126.6301149  30.0723012  38.8887788 126.5297875  31.0217369  38.8199879
 126.4122691  29.7441251  38.0163858 117.8481636  35.4030277  27.7508654
 117.1545107  34.9884230  27.2378609 118.5954627  35.4450814  27.1542073
 126.4932419  33.5020151  37.7052850 126.0099500  34.3020511  37.9116739
 126.5793358  33.5128096  36.7520294 119.7618378  35.3348531  25.6274669
 119.7389066  35.4336218  24.6756552 120.0719015  36.1813682  25.9491835
 122.4205756  37.3924686  29.7421284 123.3749010  37.3608628  29.6751215
 122.2218280  36.9315310  30.5571510 123.0105138  35.9625802  32.3092081
 123.8298027  36.4569881  32.3326919 123.2841946  35.0457770  32.2809649
 120.7755985  42.9344305  26.7591481 120.6410453  42.1744706  26.1929480
 120.3588047  43.6585205  26.2920270 132.7412758  33.8691090  21.8870327
 132.6847960  34.3259642  21.0477959 133.2941101  33.1081775  21.7093170
 123.9325111  43.8313622  26.9709924 123.8157495  44.7759055  26.8688614
 123.1117557  43.5287184  27.3595723 118.2640052  30.2963936  33.0084278
 118.9098916  29.7862890  33.4971504 118.0557204  31.0332617  33.5827704
 130.7893445  37.3644783  38.5076419 131.6584604  37.5385436  38.1463054
 130.3100196  38.1839200  38.3852148 124.9579625  44.4841884  30.1865853
 125.8606872  44.5165495  30.5032348 124.7316995  43.5542335  30.2012188
 126.7133227  43.2372871  26.8475931 125.7628858  43.2374732  26.7340303
 127.0165713  42.4905605  26.3311966 122.6037543  27.4431553  37.1059293
 123.4669005  27.0868358  37.3162617 122.0302954  27.1045448  37.7934697
 142.4485920  49.0733409  27.9121694 143.0864330  48.9540157  27.2085034
 142.3306763  50.0214253  27.9709646 139.2575627  49.0260837  27.8483218
 138.9194138  48.9101902  26.9603753 140.1265395  48.6252002  27.8284224
 135.1162442  50.8796314  23.8380109 134.5527308  50.7886251  23.0696397
 135.0014837  50.0596218  24.3182602 139.7395410  50.1795689  33.8069424
 139.7284050  49.7848487  32.9349927 139.9016049  49.4461762  34.4003195
 132.6626874  52.3747505  26.6764330 133.4548166  52.0338330  26.2610629
 132.9023524  52.4842480  27.5966483 140.6962001  54.5467281  19.1494574
 140.0449981  55.1321362  18.7628588 141.4906364  55.0773476  19.2089612
 134.6217628  51.6356419  19.5481708 135.3948504  51.0885406  19.4094584
 134.9743027  52.5000668  19.7596170 136.4602671  52.9632801  32.7548608
 136.1692537  53.8678432  32.6395274 137.0959655  53.0049329  33.4692677
 137.3858878  50.3409649  29.3449967 137.9822450  50.1165672  28.6306930
 137.4433849  49.5994395  29.9475415 136.9583906  47.7949085  17.1800158
 137.2109427  47.2730606  16.4183621 136.0208465  47.6315230  17.2826842
 142.0027189  46.7984863  24.9874902 142.7890278  46.3804286  24.6365319
 142.2665893  47.7030955  25.1556550 142.1737266  52.2357713  19.6863558
 141.5383099  52.3092340  20.3984463 141.8434673  52.8251312  19.0082638
 147.4035616  46.7360096  25.8907880 148.1360788  46.1659313  26.1245710
 146.6474972  46.3481697  26.3314386 136.6780195  49.6977191  19.3824533
 136.5616453  49.0222094  20.0505618 136.7882455  49.2109565  18.5656686
 139.0211736  49.1587338  23.0871223 138.6569943  48.6317959  23.7984144
 139.8778852  48.7685807  22.9137708 144.9261036  40.4481670  30.3502489
 144.5944361  41.3177081  30.1263704 144.3306650  40.1317954  31.0296519
 141.4192556  52.6494216  29.7498401 141.1193279  53.5519255  29.6414209
 141.0743615  52.3826400  30.6019554 134.8705037  49.1008013  25.7835106
 133.9455534  48.9684227  25.9912798 135.1189451  49.8802232  26.2805048
 144.8189700  45.1676757  27.4295839 143.9106577  45.0992165  27.1354600
 144.7677295  45.6448702  28.2577664 138.6406444  46.6434895  19.0679238
 138.5206069  47.0891946  19.9064718 137.9459032  46.9920213  18.5092776
 132.2313848  48.7441287  26.6178895 132.3606230  48.9975766  27.5318307
 131.5511300  49.3368995  26.2983550 136.4013336  59.4138537  22.7169369
 136.3237365  60.3646362  22.7957850 135.7974979  59.0684409  23.3744295
 138.8930565  46.5866402  35.3730736 138.1163900  47.1460322  35.3633601
 139.5321129  47.0723185  35.8945606 146.6851346  43.3693195  29.2073713
 146.0425726  43.6625728  28.5613507 146.1806275  43.2546115  30.0126909
 137.1476938  49.3951856  34.9348703 137.8891622  49.9336900  34.6583527
 136.4413923  50.0218144  35.0920255 142.6232277  51.5380996  33.5320865
 143.0315633  51.0963407  32.7875497 141.9009539  50.9633624  33.7855057
 138.9763347  46.4753603  30.9054422 139.8224543  46.8993016  31.0489071
 138.9161985  45.8187227  31.5992985 142.9461092  52.0982187  27.2873153
 142.3169955  52.2627901  26.5849221 142.5586754  52.5123796  28.0584117
 146.8250324  53.0336624  24.6417517 146.1401362  53.4135526  24.0914551
 146.9094173  53.6431951  25.3749465 142.1262793  44.1357971  32.5635595
 141.8823725  44.8900032  32.0269871 142.4022723  44.5143319  33.3982842
 144.0801256  50.6796584  31.2412861 144.2918151  51.3228343  30.5647242
 144.0331004  49.8458900  30.7734791 141.6827485  43.2914404  28.1449433
 140.8211964  43.5895658  28.4366170 141.7089919  43.5084803  27.2130466
 138.4989054  51.8356595  24.5523239 138.9627399  52.1144298  23.7627861
 138.2345852  50.9340039  24.3696329 135.3913135  51.3828076  27.4903002
 135.9614492  51.8115345  26.8520486 135.9821247  51.1010661  28.1887187
 137.4357940  47.9579747  21.3612804 138.1381983  48.4100791  21.8286730
 137.1038568  47.3163566  21.9892697 135.8838302  46.5491504  35.7364013
 135.2536962  47.2307785  35.9699410 135.7774389  46.4374585  34.7917151
 131.1783274  46.2163300  26.6629937 130.3882328  46.4720828  26.1870048
 131.6694521  47.0311638  26.7681978 145.1947084  53.5568539  29.4135218
 146.0164527  53.1548726  29.1317900 145.1909486  53.4536773  30.3651334
 133.1298019  46.5807879  23.6213414 132.3329183  46.6926573  24.1396910
 132.9023612  46.9194531  22.7554304 138.9603687  53.1052582  31.5695929
 139.0248119  53.5672989  32.4054100 138.2514611  52.4749947  31.6978238
 129.4620977  46.4693790  29.0944928 129.7129015  47.3540800  29.3602504
 129.9980525  46.2898392  28.3220020 138.6751705  54.7720690  21.4374909
 138.5397379  55.6172225  21.8659757 139.2161517  54.9739967  20.6740843
 135.1619044  40.8512270  38.0989264 134.7685990  40.2978468  38.7736908
 135.9785185  41.1622848  38.4895782 132.1281102  52.2896128  22.0102834
 132.6405623  53.0839378  22.1608399 132.7803815  51.5922418  21.9436435
 133.9375987  55.4061884  24.0925587 134.1142615  56.3279849  23.9046571
 134.7332820  55.0920303  24.5219967 138.0787005  42.2670149  35.6909521
 138.8196719  42.8677302  35.6113983 138.3104928  41.5247786  35.1327563
 133.2228343  47.4526516  33.9687750 133.1081858  46.5511773  34.2694849
 132.3672861  47.6990213  33.6172567 140.3020181  55.3944256  35.5675251
 139.8584035  54.6080635  35.2496155 140.9637395  55.5823407  34.9019142
 135.0607302  56.9240058  30.0935929 135.6114727  56.7957121  29.3212923
 134.2218778  57.2234947  29.7430822 142.4001419  55.6747056  33.5956652
 142.3819894  56.4955937  33.1036921 143.3221339  55.5501131  33.8206793
 138.8574473  53.1891186  34.4380161 139.3902810  52.4279474  34.2079469
 138.3288554  52.8964837  35.1804315 142.0244168  38.2951252  29.9673802
 141.6808438  39.1852893  29.8912913 142.3923131  38.1052909  29.1043387
 130.0930019  50.6184782  22.7862405 130.9305241  51.0281790  22.5696112
 130.2708286  49.6784224  22.7562598 139.5741562  43.1309563  23.5331476
 138.7183158  42.7416414  23.3537115 139.9868514  43.2101524  22.6731261
 141.1040709  40.6655907  27.9323036 140.6005504  40.6286042  27.1190841
 141.3971315  41.5748649  27.9919692 137.3483594  40.7494636  26.9389217
 138.2136591  40.5537445  26.5795107 137.4161103  40.5204988  27.8658574
 140.2227186  52.3177178  21.9498973 139.6948548  51.5829938  21.6372210
 139.7214689  53.0951854  21.7038941 145.2020032  50.5126199  27.0666019
 144.5443706  51.2025460  27.1546148 146.0060431  50.9022631  27.4100005
 134.9545914  42.9796844  24.3105584 135.5289665  42.7572026  23.5778777
 135.5416896  43.0485539  25.0634185 144.0125491  48.8670571  25.1169961
 144.5257372  49.5000563  25.6191670 144.6626715  48.2671767  24.7513321
 135.2815501  45.0101305  18.3301469 134.4452813  45.3475992  18.6510744
 135.1420270  44.8750285  17.3928606 137.2568581  39.8538093  23.0380654
 136.6032994  39.5387110  22.4137268 137.2149055  39.2313834  23.7640477
 141.2747865  58.8454896  17.8730632 140.6009564  59.1486592  18.4815590
 141.6613687  59.6483976  17.5236089 140.4906322  46.3420027  27.3628301
 139.5728883  46.5634974  27.2049989 140.9066465  46.4166337  26.5040009
 141.2741369  47.7411443  22.4930981 142.0213188  48.2532840  22.1838104
 141.5432959  47.4195495  23.3535375 139.5468020  50.2369983  19.4757936
 138.6379239  49.9529016  19.5730406 139.5763103  50.6569062  18.6161243
 144.7787287  53.8476573  23.2449103 144.3249614  53.0067483  23.3014294
 144.1481254  54.4837971  23.5823883 143.7220207  44.7768559  24.4749771
 142.9842963  44.2645945  24.8060013 143.9746980  44.3368940  23.6633048
 143.2220226  55.6853069  24.1798921 143.5143201  56.2458127  23.4611287
 143.7318847  55.9781630  24.9352081 130.1156190  47.9575497  23.4573138
 129.9180590  47.3644858  22.7324205 129.5602854  47.6527708  24.1749077
 138.0952914  47.8498604  25.5767731 138.1501523  46.8972440  25.5010208
 137.2844116  48.0058043  26.0609030 139.2444107  51.7778727  16.8146014
 138.8063537  51.0614586  16.3551652 139.9854548  52.0054842  16.2531106
 136.0345274  46.4675664  23.3358110 135.2213139  46.7669834  23.7423302
 136.5304268  46.0731352  24.0532592 138.1853851  56.4633421  25.2692375
 138.1430030  56.6894267  24.3400907 139.1016550  56.2296795  25.4178176
 141.6319485  46.9317488  32.1673004 141.9868873  47.1588961  33.0267470
 142.2791616  47.2635865  31.5450259 135.5259348  44.0394019  28.9519345
 136.1658728  43.8982778  28.2542308 134.6936879  43.7528533  28.5757947
 147.3886602  52.1212451  27.8833604 147.8223108  52.0287740  28.7316658
 148.1018182  52.0969951  27.2453620 136.3019652  53.3396450  25.0654337
 137.0960251  52.8446770  24.8636912 135.5911345  52.8114313  24.7022043
 141.1214497  55.7214545  29.4166705 141.1751519  56.2905481  30.1844421
 140.2529278  55.8916430  29.0520742 132.6102416  47.4839531  21.1414090
 131.6800004  47.4223987  21.3584052 132.7059888  46.9615484  20.3450731
 132.5287965  44.0094344  23.7292332 132.7894782  44.9239677  23.6201492
 133.3505137  43.5418787  23.8788945 134.0012890  45.4232101  30.8991156
 134.6735943  45.2149463  30.2503805 133.1742677  45.2254187  30.4596389
 148.2502151  52.1636152  30.4166490 148.4438041  53.0681962  30.6625765
 148.1502769  51.7043571  31.2505075 139.9038462  42.0494042  32.9156817
 139.2566377  42.7483992  32.8221294 140.6739477  42.4830186  33.2833065
 143.3117260  52.3142894  35.9907370 143.1602766  52.0853446  35.0737454
 143.3021939  53.2713496  36.0038715 140.0802596  49.8874807  30.9753637
 141.0094656  50.0385967  30.8022604 139.6593626  49.9758828  30.1202283
 138.8790928  53.9125472  28.7452174 138.7402014  53.5444256  29.6178113
 138.0905524  54.4273111  28.5736132 139.4739080  59.0134568  20.0877711
 139.6490836  58.5422611  20.9023334 138.7871868  59.6400334  20.3158972
 140.4296143  53.2907074  26.1341012 140.0945976  53.2507844  27.0298662
 139.9300089  52.6251790  25.6611422 134.4040387  48.6974704  31.6593593
 134.2660185  47.9654943  32.2605132 135.3145311  48.6083604  31.3777781
 137.0322688  48.4094664  31.1477273 137.7422306  47.7687856  31.1063891
 136.9891996  48.6607558  32.0703454 145.0209467  55.3462017  34.0683852
 144.9622013  54.6621237  33.4014435 145.4228985  56.0881007  33.6164478
 135.7451622  45.3959881  32.9672913 135.2088979  44.9450620  33.6194509
 135.1568330  45.5305790  32.2243377 134.0400165  62.1623931  26.8617571
 134.2796764  62.7942455  27.5396590 133.1969362  61.8111971  27.1482930
 145.0226874  53.3101601  32.2997832 144.1353653  52.9727523  32.4224231
 145.5925425  52.5784632  32.5366597 126.6756021  49.6425693  25.6240883
 127.3627061  49.3287423  25.0361899 126.5204150  50.5467057  25.3508135
 131.4790743  44.5315889  30.0525907 131.3948932  43.9241559  29.3176317
 130.6573450  45.0224907  30.0535403 138.5528027  57.9703053  29.2659075
 138.4798199  58.7758025  29.7778380 138.1105420  58.1695019  28.4407097
 138.3417807  57.2074823  22.7761897 137.5585329  57.7496503  22.8700121
 139.0410552  57.7248803  23.1756138 141.6514457  43.0169453  25.4196102
 142.1483157  42.2639415  25.0997172 140.8801439  43.0533769  24.8539311
 149.5044214  48.7209818  27.0614394 149.4934091  49.6034534  26.6908327
 148.6361594  48.3681369  26.8668931 141.0126711  57.8689887  31.4217234
 141.7254683  58.5037352  31.3493135 140.5216739  57.9653753  30.6057236
 142.7344238  51.7741140  22.9934525 141.8000516  51.8942602  22.8239230
 142.9120906  50.8713607  22.7294535 138.2349426  45.1586836  25.1467787
 137.8647213  44.6057876  25.8348692 138.7308518  44.5544969  24.5942787
 146.1216789  47.6158459  23.5284560 146.5877241  48.4486451  23.4544862
 146.5724290  47.1503441  24.2329818 136.0638624  55.6184331  32.2422805
 136.7648084  56.2520814  32.3952199 135.5933739  55.9599062  31.4818444
 144.1893020  53.9602280  20.5270712 144.4652864  53.8458875  21.4364586
 143.3197519  53.5619765  20.4882885 144.0933452  39.9839046  27.5675461
 143.1796532  40.2143273  27.7357668 144.5226553  40.0677490  28.4189493
 143.8639910  48.1728938  30.0675355 143.2111361  48.4204846  29.4127808
 144.2420290  47.3593076  29.7337832 140.8247084  58.2088631  24.1703525
 141.0069479  57.3910287  24.6331278 141.6480070  58.4256324  23.7328415
 141.1589250  57.1356816  21.4318574 141.6877016  56.6249271  20.8188736
 141.4217469  56.8199347  22.2964107 139.9127483  48.9148749  36.5541392
 139.2368120  48.8142879  37.2243767 140.7355117  48.7587963  37.0177389
 131.6606342  55.1520686  29.1753907 132.2459779  54.4064374  29.3081812
 131.4631181  55.4624642  30.0590571 134.5144998  58.1871933  24.1916350
 133.8455373  58.6718061  23.7080390 134.3757867  58.4341154  25.1059728
 126.2523997  47.7226286  27.8958350 126.2908097  47.1889877  28.6895469
 125.7464290  47.1961491  27.2769328 138.6550266  60.2215677  30.7899008
 139.2068574  60.3847298  31.5548093 138.9956460  60.8120114  30.1179033
 133.6314759  42.5690826  31.3920893 133.6956086  43.4305657  30.9798290
 133.5681880  41.9564828  30.6593251 133.1067032  44.6413959  35.0393927
 133.7339071  44.2591036  35.6531451 132.2494951  44.4228161  35.4049620
 143.5061141  55.0476934  36.6447662 144.0501045  55.6606892  36.1502617
 142.9247985  55.6056513  37.1614676 129.8832575  46.4490388  20.9712282
 130.1786016  45.5401067  20.9179336 128.9820610  46.4278128  20.6493284
 141.7918653  58.1697652  27.7762690 141.6669793  57.3687392  27.2673636
 142.4497745  58.6643846  27.2876660 133.4126822  44.5246385  26.9539830
 132.6913407  45.1382352  26.8147304 134.2020077  45.0604150  26.8756476
 143.8553562  55.9706672  29.4042240 142.9083897  55.8512023  29.3320567
 144.2036335  55.0829170  29.4868502 136.2153135  41.8600811  33.2280482
 136.7387537  42.1063108  33.9906792 135.9965469  42.6920846  32.8083620
 131.6120416  44.1304486  21.0951607 131.2833122  43.2501865  20.9126713
 131.9659787  44.0752154  21.9827996 140.8599995  55.7659388  25.6046593
 140.7124958  54.8376096  25.7854163 141.6853489  55.7879479  25.1203668
 134.7262239  44.4177456  21.4627085 135.0658312  44.9463377  20.7405693
 135.1734360  44.7557862  22.2385651 144.4634117  56.5887947  26.6911465
 145.3880664  56.3830809  26.5535916 144.2949420  56.3404348  27.6000807
 137.4205680  42.8014506  30.9130153 137.0802501  42.0022319  31.3150833
 136.7144687  43.1016217  30.3406986 138.0722152  39.8863819  29.3657476
 138.8948221  39.4124297  29.2436366 138.3160216  40.6654302  29.8656162
 136.7130387  42.9152077  19.6620377 137.4338749  43.2933330  19.1584094
 136.0895691  43.6340954  19.7655355 135.5960731  46.5782939  27.1749454
 135.4505312  46.8923242  28.0673736 135.1185934  47.1967840  26.6220353
 137.4557114  43.5685487  27.2230344 137.4418683  42.6726581  26.8862642
 138.1729542  43.5756151  27.8568630 139.3083244  44.0022828  29.2683471
 139.0501022  44.9239898  29.2667802 138.7768285  43.6053262  29.9583935
 144.2529433  57.1073615  22.0473557 144.4266311  56.5420037  21.2947409
 144.7458324  57.9074510  21.8653047 130.0706393  49.1188284  30.1137116
 129.5259861  49.8948092  30.2457390 130.9485743  49.4659088  29.9556237
 136.8594010  42.4499868  22.4917914 136.9809921  41.5216514  22.6908802
 136.5696052  42.4638554  21.5796229 139.7285200  40.1354778  25.6284634
 139.7506897  40.1994111  24.6736613 140.1453259  39.2959287  25.8225140
 145.2404606  56.4240379  19.1470455 145.9355510  57.0447072  19.3657770
 145.5827756  55.5735730  19.4222833 130.8572415  48.2458180  33.0067272
 130.1154151  48.3940815  33.5931903 130.5365159  48.5066446  32.1434022
 138.8016078  57.7874158  32.8047662 139.1103204  57.5423305  33.6770362
 139.5991560  57.9920797  32.3166533 138.8236690  59.9412068  25.0353039
 138.3841680  59.4488447  25.7285896 139.5744807  59.3985036  24.7945114
 131.3029029  56.1323609  25.0377667 132.1287048  55.8327381  24.6576311
 130.9523081  55.3631231  25.4867456 136.2710562  55.4850077  27.1075341
 135.6490571  54.8220782  26.8077569 136.9415429  55.5111209  26.4248988
 129.5037634  54.0509935  25.9966601 128.6669542  53.6232110  25.8150602
 129.4761279  54.2442379  26.9337392 136.3435089  43.9631865  36.7007847
 136.3923245  44.8393988  36.3185616 136.8857603  43.4209258  36.1279490
 146.8289935  54.5072988  35.9808984 146.0385479  54.4897127  35.4413483
 146.5923289  55.0461282  36.7358020 146.9487810  51.3565455  33.2941712
 146.9985815  51.1915462  34.2357235 146.8401733  50.4892714  32.9039593
 135.8324069  54.0354000  20.5833801 135.9812189  54.7189465  19.9300474
 136.6390512  54.0159090  21.0983257 144.2391572  47.3396383  34.6101019
 145.1401435  47.2002847  34.3185017 144.3139547  47.5050837  35.5499196
 138.5734378  44.7163237  33.4554205 137.7037687  45.0096803  33.1836794
 138.8093858  45.3003682  34.1761469 148.4506007  53.7762396  33.5383734
 148.1590815  54.1392377  34.3747195 147.8378138  53.0629404  33.3597066
 149.6501689  51.3415276  26.0586304 150.4848580  51.7805080  26.2223864
 149.7860818  50.8653929  25.2394550 146.6993195  48.8995011  32.0063792
 147.1747317  49.0922657  31.1982643 145.7758760  48.9554197  31.7607175
 133.5876702  50.0619178  21.5894870 133.3422744  49.1581508  21.7875080
 133.7572616  50.0636328  20.6474348 141.2773411  40.9342854  30.9719626
 141.7955355  41.6703881  30.6466114 140.9228544  41.2406848  31.8066385
 132.8572349  45.7947536  19.0881032 132.1641594  45.8691891  18.4321068
 132.6124101  45.0307879  19.6102548 141.5286006  37.3543137  26.4920522
 141.8087759  36.6866326  27.1180949 142.3136613  37.5472232  25.9795186
 139.3319474  56.5302131  18.0545549 138.7593441  57.1492318  17.6016020
 139.9052268  57.0801492  18.5885471 145.3994864  45.7760771  30.2392097
 146.3512287  45.8758869  30.2604321 145.2298314  44.9839039  30.7490182
 143.4209243  42.8616354  30.4251498 142.8259176  43.1421367  29.7297987
 143.1358940  43.3510255  31.1968239 142.5516734  56.8139281  19.1854131
 143.4847407  56.7484843  19.3887006 142.4639947  57.6495548  18.7268664
 147.8782942  48.9966891  29.3534397 147.8459262  48.0582891  29.5394081
 148.4883565  49.0750927  28.6200222 148.0277430  45.7877934  29.3992680
 147.5116479  45.0036391  29.2122609 148.9117379  45.4596651  29.5639200
 153.6959492  50.0582897  28.4940434 154.4262880  49.7968186  29.0548137
 153.0866437  49.3211619  28.5342502 151.7774789  48.1990760  29.0914885
 151.0507952  48.0646725  28.4831377 151.3622076  48.5067589  29.8971603
 139.6004965  51.9180690  36.8562258 140.5207975  52.0959289  37.0502305
 139.5654548  50.9736735  36.7041957 128.8187130  47.1119283  25.7815533
 128.4989915  46.2584591  25.4889907 128.2720558  47.3267861  26.5373500
 132.5967038  49.8281724  29.4985039 132.8153048  50.7598832  29.5173073
 133.0092812  49.4689699  30.2839843 137.4694903  45.4014930  38.8887788
 137.3691630  46.3509287  38.8199879 137.2516445  45.0733169  38.0163858
 128.6875390  50.7322195  27.7508654 127.9938862  50.3176148  27.2378609
 129.4348381  50.7742731  27.1542073 137.3326173  48.8312069  37.7052850
 136.8493255  49.6312429  37.9116739 137.4187112  48.8420014  36.7520294
 130.6012133  50.6640449  25.6274669 130.5782821  50.7628136  24.6756552
 130.9112769  51.5105599  25.9491835 133.2599511  52.7216604  29.7421284
 134.2142764  52.6900546  29.6751215 133.0612034  52.2607227  30.5571510
 133.8498893  51.2917720  32.3092081 134.6691782  51.7861798  32.3326919
 134.1235700  50.3749688  32.2809649 131.6149739  58.2636223  26.7591481
 131.4804207  57.5036624  26.1929480 131.1981802  58.9877123  26.2920270
 143.5806513  49.1983008  21.8870327 143.5241714  49.6551559  21.0477959
 144.1334855  48.4373692  21.7093170 134.7718865  59.1605540  26.9709924
 134.6551249  60.1050973  26.8688614 133.9511312  58.8579102  27.3595723
 129.1033807  45.6255854  33.0084278 129.7492671  45.1154807  33.4971504
 128.8950958  46.3624535  33.5827704 141.6287199  52.6936701  38.5076419
 142.4978359  52.8677353  38.1463054 141.1493951  53.5131118  38.3852148
 135.7973379  59.8133802  30.1865853 136.7000626  59.8457412  30.5032348
 135.5710749  58.8834253  30.2012188 137.5526981  58.5664789  26.8475931
 136.6022612  58.5666650  26.7340303 137.8559468  57.8197523  26.3311966
 133.4431298  42.7723471  37.1059293 134.3062760  42.4160275  37.3162617
 132.8696709  42.4337365  37.7934697 153.2879675  64.4025327  27.9121694
 153.9258085  64.2832074  27.2085034 153.1700518  65.3506171  27.9709646
 150.0969381  64.3552755  27.8483218 149.7587893  64.2393820  26.9603753
 150.9659149  63.9543920  27.8284224 145.9556197  66.2088231  23.8380109
 145.3921062  66.1178168  23.0696397 145.8408592  65.3888136  24.3182602
 150.5789164  65.5087607  33.8069424 150.5677805  65.1140405  32.9349927
 150.7409804  64.7753679  34.4003195 143.5020629  67.7039423  26.6764330
 144.2941921  67.3630248  26.2610629 143.7417279  67.8134398  27.5966483
 151.5355756  69.8759199  19.1494574 150.8843735  70.4613280  18.7628588
 152.3300118  70.4065394  19.2089612 145.4611383  66.9648336  19.5481708
 146.2342259  66.4177323  19.4094584 145.8136782  67.8292586  19.7596170
 147.2996425  68.2924719  32.7548608 147.0086291  69.1970349  32.6395274
 147.9353410  68.3341246  33.4692677 148.2252632  65.6701567  29.3449967
 148.8216204  65.4457589  28.6306930 148.2827604  64.9286313  29.9475415
 147.7977661  63.1241002  17.1800158 148.0503181  62.6022524  16.4183621
 146.8602220  62.9607148  17.2826842 152.8420943  62.1276781  24.9874902
 153.6284033  61.7096204  24.6365319 153.1059648  63.0322873  25.1556550
 153.0131021  67.5649631  19.6863558 152.3776854  67.6384258  20.3984463
 152.6828427  68.1543230  19.0082638 158.2429371  62.0652014  25.8907880
 158.9754542  61.4951231  26.1245710 157.4868726  61.6773614  26.3314386
 147.5173949  65.0269108  19.3824533 147.4010207  64.3514012  20.0505618
 147.6276209  64.5401482  18.5656686 149.8605490  64.4879255  23.0871223
 149.4963697  63.9609876  23.7984144 150.7172606  64.0977725  22.9137708
 155.7654791  55.7773588  30.3502489 155.4338116  56.6468999  30.1263704
 155.1700404  55.4609872  31.0296519 152.2586310  67.9786134  29.7498401
 151.9587033  68.8811173  29.6414209 151.9137370  67.7118317  30.6019554
 145.7098792  64.4299931  25.7835106 144.7849288  64.2976145  25.9912798
 145.9583205  65.2094150  26.2805048 155.6583454  60.4968674  27.4295839
 154.7500332  60.4284083  27.1354600 155.6071050  60.9740619  28.2577664
 149.4800198  61.9726813  19.0679238 149.3599823  62.4183863  19.9064718
 148.7852786  62.3212130  18.5092776 143.0707603  64.0733204  26.6178895
 143.1999984  64.3267683  27.5318307 142.3905054  64.6660912  26.2983550
 147.2407090  74.7430454  22.7169369 147.1631120  75.6938280  22.7957850
 146.6368734  74.3976327  23.3744295 149.7324320  61.9158320  35.3730736
 148.9557654  62.4752240  35.3633601 150.3714883  62.4015103  35.8945606
 157.5245101  58.6985113  29.2073713 156.8819481  58.9917646  28.5613507
 157.0200029  58.5838033  30.0126909 147.9870692  64.7243773  34.9348703
 148.7285377  65.2628817  34.6583527 147.2807678  65.3510062  35.0920255
 153.4626032  66.8672914  33.5320865 153.8709388  66.4255324  32.7875497
 152.7403293  66.2925541  33.7855057 149.8157102  61.8045520  30.9054422
 150.6618297  62.2284934  31.0489071 149.7555740  61.1479145  31.5992985
 153.7854847  67.4274104  27.2873153 153.1563709  67.5919818  26.5849221
 153.3980509  67.8415714  28.0584117 157.6644078  68.3628542  24.6417517
 156.9795117  68.7427444  24.0914551 157.7487928  68.9723869  25.3749465
 152.9656547  59.4649889  32.5635595 152.7217479  60.2191949  32.0269871
 153.2416478  59.8435236  33.3982842 154.9195010  66.0088501  31.2412861
 155.1311905  66.6520261  30.5647242 154.8724758  65.1750818  30.7734791
 152.5221239  58.6206322  28.1449433 151.6605718  58.9187575  28.4366170
 152.5483674  58.8376721  27.2130466 149.3382808  67.1648512  24.5523239
 149.8021154  67.4436215  23.7627861 149.0739607  66.2631957  24.3696329
 146.2306889  66.7119994  27.4903002 146.8008247  67.1407262  26.8520486
 146.8215001  66.4302579  28.1887187 148.2751694  63.2871665  21.3612804
 148.9775738  63.7392708  21.8286730 147.9432323  62.6455484  21.9892697
 146.7232056  61.8783421  35.7364013 146.0930717  62.5599702  35.9699410
 146.6168144  61.7666503  34.7917151 142.0177028  61.5455217  26.6629937
 141.2276082  61.8012746  26.1870048 142.5088276  62.3603555  26.7681978
 156.0340838  68.8860457  29.4135218 156.8558282  68.4840644  29.1317900
 156.0303241  68.7828691  30.3651334 143.9691774  61.9099797  23.6213414
 143.1722937  62.0218491  24.1396910 143.7417366  62.2486449  22.7554304
 149.7997441  68.4344500  31.5695929 149.8641874  68.8964907  32.4054100
 149.0908365  67.8041865  31.6978238 140.3014731  61.7985708  29.0944928
 140.5522770  62.6832718  29.3602504 140.8374280  61.6190309  28.3220020
 149.5145459  70.1012607  21.4374909 149.3791134  70.9464143  21.8659757
 150.0555272  70.3031885  20.6740843 146.0012799  56.1804187  38.0989264
 145.6079744  55.6270386  38.7736908 146.8178939  56.4914766  38.4895782
 142.9674857  67.6188045  22.0102834 143.4799377  68.4131296  22.1608399
 143.6197569  66.9214336  21.9436435 144.7769741  70.7353802  24.0925587
 144.9536370  71.6571766  23.9046571 145.5726575  70.4212221  24.5219967
 148.9180760  57.5962066  35.6909521 149.6590473  58.1969219  35.6113983
 149.1498683  56.8539704  35.1327563 144.0622098  62.7818434  33.9687750
 143.9475613  61.8803691  34.2694849 143.2066615  63.0282130  33.6172567
 151.1413935  70.7236174  35.5675251 150.6977790  69.9372552  35.2496155
 151.8031149  70.9115324  34.9019142 145.9001057  72.2531975  30.0935929
 146.4508482  72.1249039  29.3212923 145.0612533  72.5526865  29.7430822
 153.2395174  71.0038974  33.5956652 153.2213649  71.8247855  33.1036921
 154.1615094  70.8793049  33.8206793 149.6968228  68.5183103  34.4380161
 150.2296565  67.7571391  34.2079469 149.1682309  68.2256755  35.1804315
 152.8637923  53.6243169  29.9673802 152.5202192  54.5144811  29.8912913
 153.2316885  53.4344827  29.1043387 140.9323773  65.9476700  22.7862405
 141.7698995  66.3573708  22.5696112 141.1102041  65.0076142  22.7562598
 150.4135316  58.4601481  23.5331476 149.5576913  58.0708332  23.3537115
 150.8262268  58.5393442  22.6731261 151.9434463  55.9947824  27.9323036
 151.4399259  55.9577960  27.1190841 152.2365070  56.9040567  27.9919692
 148.1877349  56.0786554  26.9389217 149.0530346  55.8829363  26.5795107
 148.2554858  55.8496906  27.8658574 151.0620940  67.6469096  21.9498973
 150.5342302  66.9121855  21.6372210 150.5608443  68.4243772  21.7038941
 156.0413786  65.8418116  27.0666019 155.3837461  66.5317378  27.1546148
 156.8454186  66.2314548  27.4100005 145.7939668  58.3088762  24.3105584
 146.3683420  58.0863944  23.5778777 146.3810650  58.3777457  25.0634185
 154.8519245  64.1962489  25.1169961 155.3651127  64.8292481  25.6191670
 155.5020469  63.5963684  24.7513321 146.1209255  60.3393223  18.3301469
 145.2846567  60.6767910  18.6510744 145.9814025  60.2042203  17.3928606
 148.0962336  55.1830011  23.0380654 147.4426748  54.8679028  22.4137268
 148.0542810  54.5605751  23.7640477 152.1141619  74.1746813  17.8730632
 151.4403318  74.4778510  18.4815590 152.5007441  74.9775894  17.5236089
 151.3300076  61.6711945  27.3628301 150.4122637  61.8926892  27.2049989
 151.7460220  61.7458255  26.5040009 152.1135124  63.0703360  22.4930981
 152.8606943  63.5824757  22.1838104 152.3826713  62.7487413  23.3535375
 150.3861774  65.5661901  19.4757936 149.4772993  65.2820934  19.5730406
 150.4156858  65.9860979  18.6161243 155.6181041  69.1768490  23.2449103
 155.1643369  68.3359400  23.3014294 154.9875008  69.8129889  23.5823883
 154.5613961  60.1060476  24.4749771 153.8236718  59.5937863  24.8060013
 154.8140735  59.6660858  23.6633048 154.0613981  71.0144987  24.1798921
 154.3536955  71.5750044  23.4611287 154.5712601  71.3073548  24.9352081
 140.9549944  63.2867415  23.4573138 140.7574344  62.6936776  22.7324205
 140.3996608  62.9819625  24.1749077 148.9346668  63.1790522  25.5767731
 148.9895278  62.2264358  25.5010208 148.1237870  63.3349961  26.0609030
 150.0837862  67.1070645  16.8146014 149.6457292  66.3906504  16.3551652
 150.8248303  67.3346759  16.2531106 146.8739028  61.7967581  23.3358110
 146.0606894  62.0961752  23.7423302 147.3698022  61.4023270  24.0532592
 149.0247606  71.7925338  25.2692375 148.9823785  72.0186185  24.3400907
 149.9410305  71.5588713  25.4178176 152.4713240  62.2609406  32.1673004
 152.8262627  62.4880879  33.0267470 153.1185371  62.5927783  31.5450259
 146.3653103  59.3685937  28.9519345 147.0052482  59.2274696  28.2542308
 145.5330633  59.0820450  28.5757947 158.2280356  67.4504369  27.8833604
 158.6616863  67.3579658  28.7316658 158.9411937  67.4261869  27.2453620
 147.1413407  68.6688367  25.0654337 147.9354005  68.1738687  24.8636912
 146.4305099  68.1406230  24.7022043 151.9608251  71.0506463  29.4166705
 152.0145273  71.6197399  30.1844421 151.0923032  71.2208348  29.0520742
 143.4496170  62.8131449  21.1414090 142.5193758  62.7515904  21.3584052
 143.5453642  62.2907402  20.3450731 143.3681719  59.3386262  23.7292332
 143.6288536  60.2531595  23.6201492 144.1898892  58.8710704  23.8788945
 144.8406645  60.7524019  30.8991156 145.5129698  60.5441381  30.2503805
 144.0136431  60.5546105  30.4596389 150.7432217  57.3785960  32.9156817
 150.0960132  58.0775910  32.8221294 151.5133232  57.8122104  33.2833065
 154.1511014  67.6434812  35.9907370 153.9996521  67.4145364  35.0737454
 154.1415694  68.6005413  36.0038715 150.9196351  65.2166725  30.9753637
 151.8488411  65.3677884  30.8022604 150.4987381  65.3050746  30.1202283
 149.7184683  69.2417389  28.7452174 149.5795768  68.8736174  29.6178113
 148.9299279  69.7565029  28.5736132 150.3132835  74.3426486  20.0877711
 150.4884590  73.8714529  20.9023334 149.6265623  74.9692252  20.3158972
 151.2689898  68.6198992  26.1341012 150.9339730  68.5799762  27.0298662
 150.7693843  67.9543708  25.6611422 145.2434142  64.0266622  31.6593593
 145.1053940  63.2946861  32.2605132 146.1539065  63.9375522  31.3777781
 147.8716442  63.7386581  31.1477273 148.5816061  63.0979773  31.1063891
 147.8285751  63.9899476  32.0703454 155.8603221  70.6753935  34.0683852
 155.8015767  69.9913155  33.4014435 156.2622739  71.4172925  33.6164478
 146.5845376  60.7251799  32.9672913 146.0482733  60.2742538  33.6194509
 145.9962085  60.8597708  32.2243377 144.8793920  77.4915848  26.8617571
 145.1190518  78.1234373  27.5396590 144.0363116  77.1403888  27.1482930
 155.8620628  68.6393519  32.2997832 154.9747407  68.3019440  32.4224231
 156.4319179  67.9076550  32.5366597 137.5149775  64.9717610  25.6240883
 138.2020815  64.6579340  25.0361899 137.3597904  65.8758975  25.3508135
 142.3184498  59.8607807  30.0525907 142.2342686  59.2533476  29.3176317
 141.4967204  60.3516825  30.0535403 149.3921782  73.2994971  29.2659075
 149.3191953  74.1049942  29.7778380 148.9499175  73.4986937  28.4407097
 149.1811561  72.5366741  22.7761897 148.3979083  73.0788421  22.8700121
 149.8804307  73.0540721  23.1756138 152.4908212  58.3461370  25.4196102
 152.9876911  57.5931333  25.0997172 151.7195193  58.3825687  24.8539311
 151.8520465  73.1981805  31.4217234 152.5648437  73.8329270  31.3493135
 151.3610494  73.2945671  30.6057236 153.5737992  67.1033058  22.9934525
 152.6394271  67.2234520  22.8239230 153.7514661  66.2005524  22.7294535
 149.0743180  60.4878753  25.1467787 148.7040968  59.9349794  25.8348692
 149.5702273  59.8836887  24.5942787 156.9610544  62.9450377  23.5284560
 157.4270996  63.7778368  23.4544862 157.4118044  62.4795358  24.2329818
 146.9032379  70.9476248  32.2422805 147.6041838  71.5812731  32.3952199
 146.4327494  71.2890980  31.4818444 155.0286775  69.2894198  20.5270712
 155.3046619  69.1750793  21.4364586 154.1591273  68.8911683  20.4882885
 154.9327206  55.3130964  27.5675461 154.0190286  55.5435191  27.7357668
 155.3620308  55.3969408  28.4189493 154.7033665  63.5020856  30.0675355
 154.0505115  63.7496763  29.4127808 155.0814045  62.6884994  29.7337832
 151.6640839  73.5380549  24.1703525 151.8463233  72.7202205  24.6331278
 152.4873825  73.7548241  23.7328415 151.9983004  72.4648734  21.4318574
 152.5270771  71.9541189  20.8188736 152.2611224  72.1491264  22.2964107
 150.7521238  64.2440667  36.5541392 150.0761875  64.1434796  37.2243767
 151.5748872  64.0879881  37.0177389 142.5000097  70.4812603  29.1753907
 143.0853534  69.7356291  29.3081812 142.3024935  70.7916560  30.0590571
 145.3538752  73.5163851  24.1916350 144.6849127  74.0009978  23.7080390
 145.2151622  73.7633071  25.1059728 137.0917752  63.0518204  27.8958350
 137.1301851  62.5181794  28.6895469 136.5858044  62.5253409  27.2769328
 149.4944021  75.5507594  30.7899008 150.0462329  75.7139216  31.5548093
 149.8350214  76.1412032  30.1179033 144.4708514  57.8982744  31.3920893
 144.5349840  58.7597575  30.9798290 144.4075634  57.2856746  30.6593251
 143.9460786  59.9705877  35.0393927 144.5732825  59.5882954  35.6531451
 143.0888705  59.7520079  35.4049620 154.3454895  70.3768852  36.6447662
 154.8894799  70.9898810  36.1502617 153.7641740  70.9348430  37.1614676
 140.7226329  61.7782306  20.9712282 141.0179770  60.8692984  20.9179336
 139.8214365  61.7570045  20.6493284 152.6312408  73.4989570  27.7762690
 152.5063547  72.6979310  27.2673636 153.2891499  73.9935763  27.2876660
 144.2520576  59.8538302  26.9539830 143.5307162  60.4674270  26.8147304
 145.0413832  60.3896067  26.8756476 154.6947316  71.2998590  29.4042240
 153.7477652  71.1803941  29.3320567 155.0430089  70.4121088  29.4868502
 147.0546890  57.1892729  33.2280482 147.5781292  57.4355025  33.9906792
 146.8359223  58.0212764  32.8083620 142.4514171  59.4596403  21.0951607
 142.1226877  58.5793782  20.9126713 142.8053541  59.4044072  21.9827996
 151.6993750  71.0951306  25.6046593 151.5518712  70.1668014  25.7854163
 152.5247243  71.1171397  25.1203668 145.5655994  59.7469373  21.4627085
 145.9052066  60.2755294  20.7405693 146.0128114  60.0849779  22.2385651
 155.3027871  71.9179865  26.6911465 156.2274419  71.7122726  26.5535916
 155.1343175  71.6696266  27.6000807 148.2599435  58.1306424  30.9130153
 147.9196255  57.3314237  31.3150833 147.5538441  58.4308135  30.3406986
 148.9115907  55.2155736  29.3657476 149.7341976  54.7416215  29.2436366
 149.1553970  55.9946220  29.8656162 147.5524141  58.2443995  19.6620377
 148.2732504  58.6225248  19.1584094 146.9289445  58.9632872  19.7655355
 146.4354485  61.9074857  27.1749454 146.2899066  62.2215160  28.0673736
 145.9579689  62.5259757  26.6220353 148.2950868  58.8977405  27.2230344
 148.2812437  58.0018498  26.8862642 149.0123296  58.9048069  27.8568630
 150.1476999  59.3314745  29.2683471 149.8894777  60.2531816  29.2667802
 149.6162039  58.9345180  29.9583935 155.0923188  72.4365532  22.0473557
 155.2660065  71.8711955  21.2947409 155.5852079  73.2366427  21.8653047
 140.9100148  64.4480201  30.1137116 140.3653616  65.2240009  30.2457390
 141.7879497  64.7951006  29.9556237 147.6987764  57.7791785  22.4917914
 147.8203675  56.8508431  22.6908802 147.4089807  57.7930471  21.5796229
 150.5678955  55.4646696  25.6284634 150.5900651  55.5286029  24.6736613
 150.9847014  54.6251204  25.8225140 156.0798360  71.7532297  19.1470455
 156.7749265  72.3738989  19.3657770 156.4221510  70.9027648  19.4222833
 141.6966169  63.5750098  33.0067272 140.9547905  63.7232733  33.5931903
 141.3758914  63.8358363  32.1434022 149.6409832  73.1166076  32.8047662
 149.9496958  72.8715223  33.6770362 150.4385314  73.3212714  32.3166533
 149.6630444  75.2703986  25.0353039 149.2235434  74.7780364  25.7285896
 150.4138561  74.7276953  24.7945114 142.1422783  71.4615526  25.0377667
 142.9680803  71.1619298  24.6576311 141.7916835  70.6923149  25.4867456
 147.1104316  70.8141995  27.1075341 146.4884326  70.1512700  26.8077569
 147.7809183  70.8403127  26.4248988 140.3431388  69.3801853  25.9966601
 139.5063296  68.9524027  25.8150602 140.3155034  69.5734296  26.9337392
 147.1828844  59.2923783  36.7007847 147.2316999  60.1685905  36.3185616
 147.7251358  58.7501176  36.1279490 157.6683689  69.8364906  35.9808984
 156.8779233  69.8189045  35.4413483 157.4317044  70.3753200  36.7358020
 157.7881564  66.6857372  33.2941712 157.8379569  66.5207380  34.2357235
 157.6795488  65.8184631  32.9039593 146.6717823  69.3645918  20.5833801
 146.8205943  70.0481382  19.9300474 147.4784267  69.3451008  21.0983257
 155.0785327  62.6688300  34.6101019 155.9795190  62.5294765  34.3185017
 155.1533301  62.8342755  35.5499196 149.4128132  60.0455155  33.4554205
 148.5431442  60.3388721  33.1836794 149.6487613  60.6295600  34.1761469
 157.5386950  64.2286928  32.0063792 158.0141071  64.4214575  31.1982643
 156.6152515  64.2846114  31.7607175 144.4270456  65.3911096  21.5894870
 144.1816498  64.4873426  21.7875080 144.5966371  65.3928246  20.6474348
 152.1167166  56.2634772  30.9719626 152.6349110  56.9995799  30.6466114
 151.7622299  56.5698765  31.8066385 143.6966104  61.1239453  19.0881032
 143.0035349  61.1983808  18.4321068 143.4517856  60.3599797  19.6102548
 152.3679760  52.6835055  26.4920522 152.6481514  52.0158244  27.1180949
 153.1530367  52.8764150  25.9795186 150.1713229  71.8594048  18.0545549
 149.5987196  72.4784236  17.6016020 150.7446022  72.4093410  18.5885471
 156.2388619  61.1052689  30.2392097 157.1906041  61.2050786  30.2604321
 156.0692069  60.3130957  30.7490182 154.2602998  58.1908272  30.4251498
 153.6652930  58.4713284  29.7297987 153.9752695  58.6802173  31.1968239
 153.3910488  72.1431199  19.1854131 154.3241162  72.0776760  19.3887006
 153.3033701  72.9787465  18.7268664 150.4398720  67.2472607  36.8562258
 151.3601729  67.4251206  37.0502305 150.4048303  66.3028653  36.7041957
 139.6580885  62.4411201  25.7815533 139.3383669  61.5876509  25.4889907
 139.1114313  62.6559779  26.5373500 143.4360792  65.1573642  29.4985039
 143.6546802  66.0890750  29.5173073 143.8486566  64.7981616  30.2839843
 148.3088658  60.7306848  38.8887788 148.2085384  61.6801205  38.8199879
 148.0910200  60.4025087  38.0163858 139.5269145  66.0614112  27.7508654
 138.8332616  65.6468065  27.2378609 140.2742136  66.1034649  27.1542073
 148.1719928  64.1603987  37.7052850 147.6887009  64.9604347  37.9116739
 148.2580867  64.1711931  36.7520294 141.4405887  65.9932366  25.6274669
 141.4176575  66.0920054  24.6756552 141.7506524  66.8397517  25.9491835
 144.0993265  68.0508521  29.7421284 145.0536519  68.0192464  29.6751215
 143.9005789  67.5899145  30.5571510 144.6892647  66.6209637  32.3092081
 145.5085536  67.1153716  32.3326919 144.9629455  65.7041605  32.2809649
 142.4543494  73.5928141  26.7591481 142.3197962  72.8328542  26.1929480
 142.0375556  74.3169041  26.2920270 154.4200267  64.5274926  21.8870327
 154.3635469  64.9843477  21.0477959 154.9728610  63.7665610  21.7093170
 145.6112620  74.4897458  26.9709924 145.4945004  75.4342890  26.8688614
 144.7905066  74.1871019  27.3595723 139.9427561  60.9547771  33.0084278
 140.5886425  60.4446725  33.4971504 139.7344713  61.6916453  33.5827704
 152.4680954  68.0228619  38.5076419 153.3372113  68.1969271  38.1463054
 151.9887705  68.8423036  38.3852148 146.6367134  75.1425720  30.1865853
 147.5394381  75.1749330  30.5032348 146.4104504  74.2126171  30.2012188
 148.3920736  73.8956706  26.8475931 147.4416367  73.8958568  26.7340303
 148.6953222  73.1489441  26.3311966 144.2825052  58.1015388  37.1059293
 145.1456514  57.7452193  37.3162617 143.7090463  57.7629283  37.7934697
 156.7949951  81.5380149  23.8380109 156.2314817  81.4470086  23.0696397
 156.6802346  80.7180054  24.3182602 154.3414383  83.0331341  26.6764330
 155.1335675  82.6922165  26.2610629 154.5811033  83.1426316  27.5966483
 156.3005137  82.2940254  19.5481708 157.0736013  81.7469241  19.4094584
 156.6530536  83.1584503  19.7596170 158.1390180  83.6216636  32.7548608
 157.8480046  84.5262267  32.6395274 158.7747164  83.6633164  33.4692677
 158.6371415  78.4532920  17.1800158 158.8896936  77.9314441  16.4183621
 157.6995974  78.2899066  17.2826842 158.3567704  80.3561026  19.3824533
 158.2403962  79.6805929  20.0505618 158.4669964  79.8693400  18.5656686
 156.5492546  79.7591849  25.7835106 155.6243043  79.6268063  25.9912798
 156.7976960  80.5386068  26.2805048 153.9101357  79.4025122  26.6178895
 154.0393739  79.6559601  27.5318307 153.2298809  79.9952830  26.2983550
 158.0800845  90.0722372  22.7169369 158.0024874  91.0230197  22.7957850
 157.4762488  89.7268245  23.3744295 157.0700644  82.0411912  27.4903002
 157.6402001  82.4699180  26.8520486 157.6608756  81.7594496  28.1887187
 157.5625811  77.2075339  35.7364013 156.9324471  77.8891620  35.9699410
 157.4561898  77.0958421  34.7917151 152.8570783  76.8747135  26.6629937
 152.0669837  77.1304664  26.1870048 153.3482030  77.6895473  26.7681978
 154.8085528  77.2391714  23.6213414 154.0116692  77.3510409  24.1396910
 154.5811121  77.5778367  22.7554304 151.1408486  77.1277626  29.0944928
 151.3916524  78.0124635  29.3602504 151.6768034  76.9482227  28.3220020
 156.8406553  71.5096105  38.0989264 156.4473499  70.9562303  38.7736908
 157.6572694  71.8206683  38.4895782 153.8068611  82.9479963  22.0102834
 154.3193132  83.7423213  22.1608399 154.4591324  82.2506254  21.9436435
 155.6163496  86.0645719  24.0925587 155.7930124  86.9863684  23.9046571
 156.4120329  85.7504139  24.5219967 154.9015852  78.1110351  33.9687750
 154.7869367  77.2095609  34.2694849 154.0460370  78.3574048  33.6172567
 156.7394811  87.5823893  30.0935929 157.2902236  87.4540957  29.3212923
 155.9006287  87.8818782  29.7430822 151.7717528  81.2768617  22.7862405
 152.6092750  81.6865626  22.5696112 151.9495795  80.3368060  22.7562598
 156.6333423  73.6380680  24.3105584 157.2077174  73.4155861  23.5778777
 157.2204405  73.7069374  25.0634185 156.9603010  75.6685141  18.3301469
 156.1240322  76.0059827  18.6510744 156.8207779  75.5334121  17.3928606
 158.9356090  70.5121929  23.0380654 158.2820503  70.1970946  22.4137268
 158.8936564  69.8897669  23.7640477 151.7943699  78.6159333  23.4573138
 151.5968099  78.0228693  22.7324205 151.2390363  78.3111543  24.1749077
 157.7132782  77.1259499  23.3358110 156.9000648  77.4253670  23.7423302
 158.2091777  76.7315188  24.0532592 157.2046857  74.6977854  28.9519345
 157.8446237  74.5566614  28.2542308 156.3724388  74.4112368  28.5757947
 157.9807161  83.9980285  25.0654337 158.7747760  83.5030605  24.8636912
 157.2698854  83.4698148  24.7022043 154.2889925  78.1423367  21.1414090
 153.3587513  78.0807822  21.3584052 154.3847397  77.6199319  20.3450731
 154.2075474  74.6678179  23.7292332 154.4682291  75.5823513  23.6201492
 155.0292646  74.2002622  23.8788945 155.6800399  76.0815937  30.8991156
 156.3523452  75.8733299  30.2503805 154.8530186  75.8838023  30.4596389
 156.0827896  79.3558540  31.6593593 155.9447694  78.6238778  32.2605132
 156.9932820  79.2667440  31.3777781 157.4239131  76.0543717  32.9672913
 156.8876488  75.6034455  33.6194509 156.8355839  76.1889626  32.2243377
 155.7187674  92.8207766  26.8617571 155.9584273  93.4526290  27.5396590
 154.8756871  92.4695806  27.1482930 148.3543530  80.3009528  25.6240883
 149.0414570  79.9871258  25.0361899 148.1991659  81.2050893  25.3508135
 153.1578252  75.1899725  30.0525907 153.0736441  74.5825394  29.3176317
 152.3360959  75.6808743  30.0535403 157.7426133  86.2768166  32.2422805
 158.4435593  86.9104649  32.3952199 157.2721248  86.6182898  31.4818444
 153.3393851  85.8104521  29.1753907 153.9247288  85.0648209  29.3081812
 153.1418690  86.1208478  30.0590571 156.1932507  88.8455768  24.1916350
 155.5242882  89.3301896  23.7080390 156.0545376  89.0924989  25.1059728
 147.9311506  78.3810121  27.8958350 147.9695606  77.8473712  28.6895469
 147.4251799  77.8545327  27.2769328 155.3102268  73.2274662  31.3920893
 155.3743595  74.0889493  30.9798290 155.2469389  72.6148663  30.6593251
 154.7854541  75.2997794  35.0393927 155.4126580  74.9174872  35.6531451
 153.9282460  75.0811996  35.4049620 151.5620084  77.1074223  20.9712282
 151.8573525  76.1984902  20.9179336 150.6608119  77.0861963  20.6493284
 155.0914331  75.1830220  26.9539830 154.3700916  75.7966188  26.8147304
 155.8807586  75.7187985  26.8756476 157.8940644  72.5184647  33.2280482
 158.4175046  72.7646943  33.9906792 157.6752977  73.3504681  32.8083620
 153.2907925  74.7888321  21.0951607 152.9620631  73.9085700  20.9126713
 153.6447296  74.7335990  21.9827996 156.4049748  75.0761291  21.4627085
 156.7445821  75.6047212  20.7405693 156.8521869  75.4141697  22.2385651
 159.0993189  73.4598342  30.9130153 158.7590010  72.6606155  31.3150833
 158.3932196  73.7600052  30.3406986 158.3917896  73.5735913  19.6620377
 159.1126258  73.9517165  19.1584094 157.7683200  74.2924789  19.7655355
 157.2748240  77.2366775  27.1749454 157.1292821  77.5507078  28.0673736
 156.7973443  77.8551675  26.6220353 151.7493902  79.7772119  30.1137116
 151.2047370  80.5531927  30.2457390 152.6273252  80.1242924  29.9556237
 158.5381519  73.1083703  22.4917914 158.6597430  72.1800349  22.6908802
 158.2483561  73.1222389  21.5796229 152.5359924  78.9042015  33.0067272
 151.7941660  79.0524651  33.5931903 152.2152668  79.1650281  32.1434022
 152.9816538  86.7907444  25.0377667 153.8074557  86.4911216  24.6576311
 152.6310590  86.0215067  25.4867456 157.9498071  86.1433912  27.1075341
 157.3278080  85.4804617  26.8077569 158.6202938  86.1695044  26.4248988
 151.1825143  84.7093771  25.9966601 150.3457051  84.2815945  25.8150602
 151.1548788  84.9026214  26.9337392 158.0222598  74.6215700  36.7007847
 158.0710754  75.4977823  36.3185616 158.5645112  74.0793093  36.1279490
 157.5111578  84.6937836  20.5833801 157.6599698  85.3773300  19.9300474
 158.3178021  84.6742926  21.0983257 155.2664211  80.7203013  21.5894870
 155.0210253  79.8165343  21.7875080 155.4360125  80.7220164  20.6474348
 154.5359858  76.4531371  19.0881032 153.8429103  76.5275726  18.4321068
 154.2911610  75.6891715  19.6102548 150.4974639  77.7703119  25.7815533
 150.1777424  76.9168427  25.4889907 149.9508067  77.9851697  26.5373500
 154.2754547  80.4865560  29.4985039 154.4940557  81.4182667  29.5173073
 154.6880321  80.1273534  30.2839843 159.1482412  76.0598765  38.8887788
 159.0479139  77.0093122  38.8199879 158.9303954  75.7317004  38.0163858
 150.3662899  81.3906030  27.7508654 149.6726371  80.9759983  27.2378609
 151.1135890  81.4326567  27.1542073 159.0113682  79.4895904  37.7052850
 158.5280764  80.2896264  37.9116739 159.0974621  79.5003849  36.7520294
 152.2799642  81.3224284  25.6274669 152.2570330  81.4211971  24.6756552
 152.5900278  82.1689435  25.9491835 154.9387020  83.3800439  29.7421284
 155.8930273  83.3484381  29.6751215 154.7399543  82.9191063  30.5571510
 155.5286402  81.9501555  32.3092081 156.3479291  82.4445634  32.3326919
 155.8023209  81.0333523  32.2809649 153.2937248  88.9220058  26.7591481
 153.1591716  88.1620459  26.1929480 152.8769311  89.6460958  26.2920270
 156.4506374  89.8189375  26.9709924 156.3338758  90.7634808  26.8688614
 155.6298821  89.5162937  27.3595723 150.7821316  76.2839689  33.0084278
 151.4280180  75.7738643  33.4971504 150.5738467  77.0208371  33.5827704
 157.4760888  90.4717637  30.1865853 158.3788135  90.5041248  30.5032348
 157.2498258  89.5418088  30.2012188 155.1218807  73.4307306  37.1059293
 155.9850269  73.0744111  37.3162617 154.5484218  73.0921201  37.7934697
 158.7705261  93.7102039  27.8958350 158.8089360  93.1765630  28.6895469
 158.2645553  93.1837244  27.2769328   1.5340504  65.2299212 131.9657733
   0.7804212  64.6606610 131.8101738   1.6688045  65.1961877 132.9128368
   1.9446919  65.3874822 134.6977978   2.6750307  65.1260110 135.2585681
   1.3353864  64.6503544 134.7380046   1.5367102  79.7317252 134.1159237
   2.1745512  79.6123999 133.4122577   1.4187945  80.6798096 134.1747190
   1.0908370  77.4568706 131.1912445   1.8771460  77.0388129 130.8402862
   1.3547075  78.3614798 131.3594094   1.2618448  82.8941556 125.8901102
   0.6264281  82.9676182 126.6022007   0.9315854  83.4835155 125.2120182
   6.4916798  77.3943939 132.0945424   7.2241970  76.8243156 132.3283253
   5.7356153  77.0065539 132.5351930   4.0142218  71.1065513 136.5540033
   3.6825543  71.9760924 136.3301248   3.4187831  70.7901797 137.2334063
   3.9070881  75.8260599 133.6333383   2.9987759  75.7576007 133.3392144
   3.8558477  76.3032544 134.4615208   5.7732528  74.0277037 135.4111257
   5.1306908  74.3209571 134.7651051   5.2687456  73.9129958 136.2164453
   3.4272691  77.7740211 126.0997116   4.3390547  78.0067597 125.9244813
   2.9182338  78.3577255 125.5372194   1.7113459  82.1964838 139.7358408
   2.1196815  81.7547249 138.9913041   0.9890720  81.6217466 139.9892601
   2.0342274  82.7566029 133.4910697   1.4051136  82.9211743 132.7886765
   1.6467936  83.1707639 134.2621661   5.9131506  83.6920467 130.8455061
   5.2282544  84.0719368 130.2952094   5.9975355  84.3015794 131.5787009
   1.2143974  74.7941814 138.7673139   0.9704906  75.5483874 138.2307415
   1.4903905  75.1727161 139.6020386   3.1682437  81.3380426 137.4450405
   3.3799332  81.9812186 136.7684786   3.1212185  80.5042743 136.9772335
   4.2828265  84.2152381 135.6172762   5.1045709  83.8132569 135.3355444
   4.2790668  84.1120616 136.5688878  12.3734258  80.5591130 131.9657733
  11.6197967  79.9898528 131.8101738  12.5081799  80.5253794 132.9128368
   1.4882601  86.3330899 139.7994196   1.4701076  87.1539780 139.3074465
   2.4102521  86.2084974 140.0244337   1.1125350  68.9535094 136.1711346
   0.7689619  69.8436736 136.0950457   1.4804312  68.7636752 135.3080931
   1.0775632  78.9443705 124.6783781   0.5622256  79.7148310 124.9172169
   0.8052941  78.2708841 125.3016843   6.0509907  81.6976060 126.6136955
   5.2739349  81.3587219 126.1692117   6.7301388  81.7028683 125.9391920
   0.8661936  76.8170797 126.5043562   0.5612071  77.1316946 127.3553706
   1.8192378  76.8952217 126.5470895   4.2901214  81.1710041 133.2703563
   3.6324888  81.8609302 133.3583691   5.0941613  81.5606473 133.6137549
   3.1006672  79.5254414 131.3207504   3.6138554  80.1584406 131.8229214
   3.7507896  78.9255609 130.9550865   3.8668469  84.5060415 129.4486647
   3.4130796  83.6651325 129.5051838   3.2362435  85.1421814 129.7861427
   2.8101388  75.4352401 130.6787315   2.0724145  74.9229787 131.0097557
   3.0628162  74.9952783 129.8670591   2.3101408  86.3436912 130.3836465
   2.6024382  86.9041969 129.6648831   2.8200028  86.6365473 131.1389624
   2.9113015  68.2128653 131.2729084   3.2171892  67.3526017 130.9854999
   3.6365620  68.8046273 131.0728078   0.7200667  77.5901331 138.3710548
   1.0750054  77.8172804 139.2305013   1.3672798  77.9219707 137.7487803
   6.4498404  80.7119766 129.0759877   6.3116302  80.9021362 128.1481066
   6.0934623  81.4739149 129.5327928   6.4767783  82.7796293 134.0871148
   6.9104290  82.6871583 134.9354202   7.1899364  82.7553794 133.4491164
   7.3383333  82.8219994 136.6204034   7.5319223  83.7265805 136.8663309
   7.2383951  82.3627413 137.4542619   2.3998442  82.9726737 142.1944914
   2.2483948  82.7437289 141.2774998   2.3903121  83.9297338 142.2076259
   2.4536517  81.2946951 122.6115616   1.8365687  80.5693779 122.5148668
   1.9853005  82.0556311 122.2682690   4.1090648  86.0045859 140.2721396
   4.0503194  85.3205080 139.6051979   4.5110167  86.7464849 139.8202022
   4.1108055  83.9685443 138.5035376   3.2234834  83.6311365 138.6261775
   4.6806607  83.2368475 138.7404141   8.5925396  79.3793661 133.2651937
   8.5815272  80.2618376 132.8945871   7.7242775  79.0265212 133.0706474
   1.8225419  82.4324982 129.1972069   0.8881698  82.5526445 129.0276774
   2.0002088  81.5297449 128.9332079   5.2097971  78.2742302 129.7322103
   5.6758423  79.1070293 129.6582406   5.6605471  77.8087283 130.4367362
   3.2774202  84.6186123 126.7308255   3.5534046  84.5042718 127.6402130
   2.4078700  84.2203608 126.6920429   3.1814633  70.6422889 133.7713005
   2.2677713  70.8727115 133.9395212   3.6107735  70.7261333 134.6227037
   2.9521092  78.8312781 136.2712899   2.2992542  79.0788688 135.6165352
   3.3301472  78.0176919 135.9375376   0.8799835  88.8281495 133.9800234
   0.7550975  88.0271234 133.4711180   1.5378926  89.3227688 133.4914204
   2.9434743  86.6290515 135.6079784   1.9965079  86.5095866 135.5358111
   3.2917517  85.7413013 135.6906046   3.5515299  87.2471790 132.8949009
   4.4761846  87.0414651 132.7573460   3.3830602  86.9988191 133.8038351
   3.3410615  87.7657457 128.2511101   3.5147492  87.2003880 127.4984953
   3.8339506  88.5658352 128.0690591   9.1950006  80.5293880 129.8701400
   9.6381152  79.7801205 129.4720524   8.3176516  80.5204016 129.4875132
   4.3285787  87.0824222 125.3507999   5.0236692  87.7030914 125.5695313
   4.6708937  86.2319573 125.6260377   6.2277210  84.5323927 126.8795330
   6.7528534  84.8711200 126.1544650   6.1399563  83.5970942 126.6958464
   5.9171116  85.1656831 142.1846528   5.1266660  85.1480970 141.6451027
   5.6804471  85.7045124 142.9395564   6.0368992  82.0149297 139.4979256
   6.0866996  81.8499305 140.4394779   5.9282915  81.1476556 139.1077137
   3.3272754  77.9980225 140.8138563   4.2282617  77.8586690 140.5222561
   3.4020728  78.1634680 141.7536740   7.5387188  84.4346239 139.7421278
   7.2471997  84.7976219 140.5784739   6.9259320  83.7213247 139.5634610
   8.7382871  81.9999118 132.2623848   9.5729762  82.4388922 132.4261408
   8.8741999  81.5237772 131.4432094   5.7874377  79.5578853 138.2101336
   6.2628498  79.7506500 137.4020187   4.8639942  79.6138039 137.9644719
   0.6167187  68.0126979 132.6958066   0.8968941  67.3450168 133.3218493
   1.4017794  68.2056075 132.1832730   4.4876046  76.4344613 136.4429641
   5.4393468  76.5342711 136.4641865   4.3179496  75.6422882 136.9527726
   2.5090425  73.5200197 136.6289042   1.9140357  73.8005209 135.9335531
   2.2240122  74.0094097 137.4005783   1.6397916  87.4723123 125.3891675
   2.5728589  87.4068685 125.5924550   1.5521128  88.3079390 124.9306207
   4.2685932  86.7888994 122.3495622   4.1899564  86.4548857 123.2431380
   5.0895599  87.2810762 122.3487095   6.9664123  79.6550733 135.5571941
   6.9340443  78.7166734 135.7431625   7.5764747  79.7334770 134.8237766
   7.1158612  76.4461776 135.6030224   6.5997660  75.6620233 135.4160153
   7.9998560  76.1180493 135.7676744   4.7769339  70.1902792 131.5626037
   4.5794160  69.8817880 132.4469369   5.3869044  70.9164431 131.6923967
  12.7840673  80.7166740 134.6977978  13.5144062  80.4552028 135.2585681
  12.1747619  79.9795462 134.7380046  10.8655970  78.8574602 135.2952429
  10.1389134  78.7230567 134.6868920  10.4503257  79.1651431 136.1009147
   0.5342985  70.0711699 129.3122568   1.0874024  70.4907152 129.9712591
   0.7713072  69.1447447 129.3545524   3.9121792  72.1812224 128.8201232
   3.3320462  72.8397028 128.4379285   3.6457725  71.3589569 128.4088650
   2.3625359  71.5817282 131.0222553   2.8625137  71.6933816 130.2136872
   3.0060967  71.2778335 131.6623361   2.6946670  74.3412314 127.8757581
   1.8072526  74.6261965 127.6577775   3.1100660  74.1806078 127.0284858
   6.0461207  74.3658835 131.5911920   6.8221597  74.8555288 131.8636537
   5.3209341  74.7916890 132.0483789   8.4833765  75.0786455 132.6485860
   9.0778256  74.8382191 131.9379169   8.5560349  74.3593585 133.2759397
   1.8389884  84.1056989 121.9705601   2.5425734  84.3106992 122.5863256
   1.1152533  84.6733751 122.2354684   2.6687694  79.8566850 128.0907871
   2.6122896  80.3135402 127.2515503   3.2216037  79.0957535 127.9130714
   6.4792500  75.6456582 128.9157990   6.2229434  75.2453218 129.7466198
   5.8545368  76.3600376 128.7908129  10.7904838  78.3852655 131.4229282
  10.2304396  78.4545845 132.1960844  10.1848341  78.2093640 130.7028778
   3.7476581  84.5439518 124.0204061   4.5822185  84.1120717 123.8381535
   3.5860924  84.3721532 124.9480955   3.4022474  81.0471632 125.3860400
   3.3471277  80.8815903 124.4448844   2.7768529  81.7547665 125.5422590
  12.3760856  95.0609169 134.1159237  13.0139266  94.9415917 133.4122577
  12.2581699  96.0090013 134.1747190   9.1850563  95.0136598 134.0520762
   8.8469074  94.8977662 133.1641297  10.0540331  94.6127763 134.0321768
   5.0437378  96.8672074 130.0417653   4.4802244  96.7762011 129.2733941
   4.9289773  96.0471978 130.5220146   9.6670346  96.1671449 140.0106968
   9.6558987  95.7724248 139.1387471   9.8290985  95.4337522 140.6040739
   2.5901810  98.3623266 132.8801874   3.3823102  98.0214090 132.4648173
   2.8298461  98.4718241 133.8004027  10.6236937 100.5343042 125.3532118
   9.9724917 101.1197122 124.9666132  11.4181300 101.0649237 125.4127155
   4.5492564  97.6232179 125.7519252   5.3223440  97.0761166 125.6132128
   4.9017963  98.4876428 125.9633714   7.3133814  96.3285410 135.5487511
   7.9097386  96.1041432 134.8344474   7.3708785  95.5870155 136.1512959
   6.8858842  93.7824845 123.3837702   7.1384363  93.2606366 122.6221165
   5.9483401  93.6190990 123.4864386  11.9302125  92.7860623 131.1912445
  12.7165214  92.3680046 130.8402862  12.1940829  93.6906715 131.3594094
  12.1012202  98.2233474 125.8901102  11.4658035  98.2968100 126.6022007
  11.7709609  98.8127072 125.2120182  17.3310552  92.7235856 132.0945424
  18.0635724  92.1535073 132.3283253  16.5749908  92.3357457 132.5351930
   6.6055131  95.6852951 125.5862077   6.4891389  95.0097854 126.2543161
   6.7157391  95.1985325 124.7694230   8.9486672  95.1463098 129.2908766
   8.5844879  94.6193719 130.0021688   9.8053788  94.7561567 129.1175252
  14.8535972  86.4357431 136.5540033  14.5219297  87.3052842 136.3301248
  14.2581586  86.1193715 137.2334063   8.5892159  90.1752998 124.2870115
   8.7566561  91.0433234 124.6540586   8.3989328  90.3380279 123.3631404
  11.3467492  98.6369977 135.9535945  11.0468215  99.5395015 135.8451753
  11.0018551  98.3702160 136.8057098   4.7979973  95.0883773 131.9872650
   3.8730470  94.9559988 132.1950341   5.0464387  95.8677993 132.4842592
  14.7464636  91.1552517 133.6333383  13.8381513  91.0867925 133.3392144
  14.6952232  91.6324462 134.4615208   8.5681380  92.6310655 125.2716782
   8.4481005  93.0767706 126.1102262   7.8733968  92.9795973 124.7130320
   2.1588784  94.7317047 132.8216439   2.2881166  94.9851526 133.7355851
   1.4786236  95.3244755 132.5021094   6.3288272 105.4014297 128.9206913
   6.2512301 106.3522122 128.9995394   5.7249915 105.0560169 129.5781839
   8.8205502  92.5742162 141.5768280   8.0438836  93.1336082 141.5671145
   9.4596065  93.0598945 142.0983150  16.6126282  89.3568955 135.4111257
  15.9700662  89.6501488 134.7651051  16.1081211  89.2421875 136.2164453
  14.2666446  93.1032128 126.0997116  15.1784302  93.3359515 125.9244813
  13.7576093  93.6869173 125.5372194  12.5507213  97.5256756 139.7358408
  12.9590570  97.0839167 138.9913041  11.8284475  96.9509384 139.9892601
   8.9038284  92.4629363 137.1091965   9.7499479  92.8868776 137.2526614
   8.8436921  91.8062987 137.8030528  12.8736028  98.0857947 133.4910697
  12.2444891  98.2503661 132.7886765  12.4861690  98.4999556 134.2621661
  16.7525260  99.0212385 130.8455061  16.0676298  99.4011286 130.2952094
  16.8369109  99.6307711 131.5787009  12.0537729  90.1233731 138.7673139
  11.8098661  90.8775792 138.2307415  12.3297659  90.5019079 139.6020386
  14.0076192  96.6672344 137.4450405  14.2193087  97.3104104 136.7684786
  13.9605940  95.8334660 136.9772335  11.6102421  89.2790164 134.3486977
  10.7486900  89.5771418 134.6403714  11.6364855  89.4960563 133.4168009
   8.4263990  97.8232355 130.7560782   8.8902336  98.1020058 129.9665405
   8.1620788  96.9215799 130.5733873   5.3188071  97.3703836 133.6940546
   5.8889428  97.7991105 133.0558030   5.9096183  97.0886421 134.3924731
   7.3632876  93.9455507 127.5650347   8.0656919  94.3976551 128.0324274
   7.0313505  93.3039326 128.1930241  15.1222020  99.5444299 135.6172762
  15.9439463  99.1424486 135.3355444  15.1184422  99.4412533 136.5688878
   3.0572955  92.5683639 129.8250958   2.2604119  92.6802333 130.3434453
   2.8298548  92.9070291 128.9591848   8.8878623  99.0928342 137.7733472
   8.9523056  99.5548750 138.6091644   8.1789547  98.4625707 137.9015782
  23.2128013  95.8883048 131.9657733  22.4591721  95.3190446 131.8101738
  23.3475554  95.8545712 132.9128368   8.6026641 100.7596450 127.6412453
   8.4672315 101.6047986 128.0697301   9.1436453 100.9615728 126.8778387
   2.0556038  98.2771888 128.2140378   2.5680559  99.0715138 128.3645942
   2.7078751  97.5798178 128.1473979   3.8650923 101.3937644 130.2963131
   4.0417551 102.3155609 130.1084115   4.6607756 101.0796063 130.7257511
   8.0061941  88.2545909 141.8947064   8.7471655  88.8553062 141.8151527
   8.2379864  87.5123547 141.3365107  12.3276355 101.6622816 139.7994196
  12.3094830 102.4831697 139.3074465  13.2496275 101.5376892 140.0244337
  11.9519104  84.2827012 136.1711346  11.6083374  85.1728653 136.0950457
  12.3198067  84.0928669 135.3080931  11.9169387  94.2735623 124.6783781
  11.4016010  95.0440227 124.9172169  11.6446695  93.6000759 125.3016843
   9.5016498  89.1185324 129.7369020   8.6458094  88.7292174 129.5574658
   9.9143450  89.1977284 128.8768805  11.0315645  86.6531667 134.1360579
  10.5280440  86.6161802 133.3228385  11.3246251  87.5624410 134.1957236
   7.2758531  86.7370397 133.1426761   8.1411527  86.5413205 132.7832651
   7.3436039  86.5080748 134.0696118  16.8903661  97.0267978 126.6136955
  16.1133104  96.6879137 126.1692117  17.5695142  97.0320601 125.9391920
  11.7055690  92.1462715 126.5043562  11.4005826  92.4608864 127.3553706
  12.6586132  92.2244135 126.5470895  10.1502122  98.3052938 128.1536516
   9.6223484  97.5705698 127.8409754   9.6489625  99.0827615 127.9076485
  15.1294968  96.5001959 133.2703563  14.4718642  97.1901220 133.3583691
  15.9335367  96.8898391 133.6137549   4.8820850  88.9672605 130.5143128
   5.4564601  88.7447786 129.7816321   5.4691832  89.0361299 131.2671729
  13.9400427  94.8546331 131.3207504  14.4532309  95.4876323 131.8229214
  14.5901651  94.2547527 130.9550865   5.2090437  90.9977066 124.5339013
   4.3727749  91.3351752 124.8548288   5.0695206  90.8626045 123.5966150
   7.1843517  85.8413853 129.2418197   6.5307930  85.5262871 128.6174812
   7.1423991  85.2189594 129.9678020   8.2954722  96.1233149 121.1571489
   7.3881784  95.8922402 121.3562638   8.7925754  95.3270768 121.3445471
  11.2022801 104.8330656 124.0768176  10.5284500 105.1362352 124.6853133
  11.5888623 105.6359736 123.7273633  10.4181258  92.3295787 133.5665845
   9.5003819  92.5510734 133.4087533  10.8341401  92.4042097 132.7077552
  11.2016305  93.7287203 128.6968525  11.9488124  94.2408600 128.3875647
  11.4707895  93.4071255 129.5572919   9.4742956  96.2245743 125.6795480
   8.5654175  95.9404776 125.7767949   9.5038039  96.6444822 124.8198786
  14.7062223  99.8352333 129.4486647  14.2524550  98.9943243 129.5051838
  14.0756190 100.4713731 129.7861427  13.6495143  90.7644319 130.6787315
  12.9117899  90.2521705 131.0097557  13.9021916  90.3244701 129.8670591
  13.1495162 101.6728830 130.3836465  13.4418137 102.2333887 129.6648831
  13.6593783 101.9657391 131.1389624  13.7506770  83.5420571 131.2729084
  14.0565647  82.6817934 130.9854999  14.4759375  84.1338191 131.0728078
   8.0227850  93.8374364 131.7805275   8.0776459  92.8848200 131.7047752
   7.2119052  93.9933803 132.2646573   9.1719043  97.7654487 123.0183558
   8.7338473  97.0490346 122.5589195   9.9129484  97.9930602 122.4568650
   5.9620210  92.4551424 129.5395654   5.1488075  92.7545594 129.9460846
   6.4579204  92.0607113 130.2570136   8.1128787 102.4509181 131.4729918
   8.0704966 102.6770027 130.5438451   9.0291486 102.2172555 131.6215720
  11.5594421  92.9193248 138.3710548  11.9143809  93.1464721 139.2305013
  12.2066552  93.2511625 137.7487803  17.2892158  96.0411684 129.0759877
  17.1510057  96.2313280 128.1481066  16.9328377  96.8031067 129.5327928
   5.4534284  90.0269779 135.1556889   6.0933664  89.8858538 134.4579852
   4.6211815  89.7404293 134.7795491  17.3161538  98.1088211 134.0871148
  17.7498044  98.0163500 134.9354202  18.0293118  98.0845712 133.4491164
   6.2294588  99.3272210 131.2691881   7.0235187  98.8322530 131.0674456
   5.5186281  98.7990073 130.9059587  11.0489433 101.7090305 135.6204249
  11.1026455 102.2781242 136.3881965  10.1804214 101.8792190 135.2558286
   2.5377352  93.4715291 127.3451634   1.6074940  93.4099747 127.5621596
   2.6334824  92.9491244 126.5488275   2.4562901  89.9970104 129.9329876
   2.7169718  90.9115438 129.8239036   3.2780073  89.5294547 130.0826488
   3.9287826  91.4107861 137.1028700   4.6010879  91.2025224 136.4541349
   3.1017613  91.2129947 136.6633932  18.1777087  98.1511912 136.6204034
  18.3712977  99.0557722 136.8663309  18.0777706  97.6919331 137.4542619
   9.8313398  88.0369802 139.1194361   9.1841313  88.7359752 139.0258837
  10.6014413  88.4705946 139.4870609  13.2392196  98.3018655 142.1944914
  13.0877702  98.0729206 141.2774998  13.2296875  99.2589256 142.2076259
  10.0077532  95.8750567 137.1791181  10.9369592  96.0261727 137.0060148
   9.5868562  95.9634588 136.3239827   8.8065864  99.9001232 134.9489718
   8.6676950  99.5320016 135.8215656   8.0180460 100.4148871 134.7773676
   9.4014016 105.0010328 126.2915255   9.5765772 104.5298371 127.1060878
   8.7146804 105.6276094 126.5196516  10.3571079  99.2782834 132.3378556
  10.0220912  99.2383604 133.2336206   9.8575025  98.6127550 131.8648966
   4.3315323  94.6850464 137.8631137   4.1935121  93.9530703 138.4642676
   5.2420247  94.5959365 137.5815325  13.2930271  96.6238869 122.6115616
  12.6759442  95.8985697 122.5148668  12.8246759  97.3848229 122.2682690
   6.9597624  94.3970424 137.3514817   7.6697243  93.7563616 137.3101435
   6.9166932  94.6483319 138.2740998  14.9484403 101.3337777 140.2721396
  14.8896949 100.6496997 139.6051979  15.3503921 102.0756767 139.8202022
   5.6726558  91.3835642 139.1710456   5.1363915  90.9326380 139.8232053
   5.0843266  91.5181550 138.4280921   5.0828817  90.8424293 121.7336920
   4.2058283  90.7213094 121.3699167   5.5586570  90.0510371 121.4815809
  14.9501810  99.2977361 138.5035376  14.0628589  98.9603283 138.6261775
  15.5200361  98.5660392 138.7404141   1.4065679  90.5191649 136.2563451
   1.3223868  89.9117319 135.5213861   0.5848386  91.0100668 136.2572947
   8.4802963 103.9578813 135.4696619   8.4073135 104.7633785 135.9815924
   8.0380356 104.1570779 134.6444640   8.2692743 103.1950583 128.9799441
   7.4860265 103.7372264 129.0737665   8.9685488 103.7124563 129.3793682
  11.5789393  89.0045213 131.6233646  12.0758093  88.2515175 131.3034716
  10.8076375  89.0409529 131.0576855  19.4319150  94.7085578 133.2651937
  19.4209027  95.5910294 132.8945871  18.5636530  94.3557129 133.0706474
  10.9401647 103.8565647 137.6254778  11.6529619 104.4913112 137.5530679
  10.4491675 103.9529513 136.8094779  12.6619174  97.7616900 129.1972069
  11.7275452  97.8818363 129.0276774  12.8395842  96.8589367 128.9332079
   8.1624362  91.1462596 131.3505331   7.7922149  90.5933636 132.0386236
   8.6583454  90.5420729 130.7980331  16.0491725  93.6034219 129.7322103
  16.5152177  94.4362211 129.6582406  16.4999226  93.1379201 130.4367362
  14.1167956  99.9478041 126.7308255  14.3927800  99.8334635 127.6402130
  13.2472455  99.5495525 126.6920429  14.0208388  85.9714806 133.7713005
  13.1071468  86.2019033 133.9395212  14.4501489  86.0553250 134.6227037
  13.7914846  94.1604698 136.2712899  13.1386297  94.4080606 135.6165352
  14.1695226  93.3468836 135.9375376  10.7522020 104.1964391 130.3741069
  10.9344415 103.3786047 130.8368821  11.5755006 104.4132084 129.9365959
  11.0864186 103.1232577 127.6356118  11.6151952 102.6125031 127.0226280
  11.3492405 102.8075107 128.5001651   4.4419934 104.1747693 130.3953894
   3.7730309 104.6593821 129.9117934   4.3032803 104.4216914 131.3097272
   3.5589695  88.5566587 137.5958437   3.6231022  89.4181418 137.1835834
   3.4956816  87.9440588 136.8630795  11.7193590 104.1573412 133.9800234
  11.5944729 103.3563152 133.4711180  12.3772681 104.6519606 133.4914204
   3.3401758  90.5122145 133.1577374   2.6188344  91.1258113 133.0184848
   4.1295014  91.0479910 133.0794020  13.7828498 101.9582432 135.6079784
  12.8358833 101.8387784 135.5358111  14.1311271 101.0704930 135.6906046
   6.1428071  87.8476571 139.4318026   6.6662473  88.0938868 140.1944335
   5.9240405  88.6796606 139.0121163   1.5395352  90.1180246 127.2989151
   1.2108059  89.2377625 127.1164257   1.8934723  90.0627915 128.1865540
  10.7874931 101.7535149 131.8084136  10.6399894 100.8251856 131.9891706
  11.6128425 101.7755239 131.3241212   4.6537176  90.4053216 127.6664629
   4.9933248  90.9339137 126.9443237   5.1009296  90.7433622 128.4423195
  14.3909053 102.5763707 132.8949009  15.3155601 102.3706569 132.7573460
  14.2224356 102.3280109 133.8038351   7.3480616  88.7890266 137.1167697
   7.0077437  87.9898079 137.5188376   6.6419623  89.0891977 136.5444530
   7.9997088  85.8739579 135.5695020   8.8223157  85.4000057 135.4473910
   8.2435152  86.6530063 136.0693706   6.6405323  88.9027837 125.8657921
   7.3613685  89.2809090 125.3621638   6.0170627  89.6216714 125.9692899
  10.7836446  89.6072986 126.8016254  11.0000060  90.4897624 126.5005082
  10.3030513  89.2159200 126.0721896   5.5235667  92.5658700 133.3786998
   5.3780248  92.8799003 134.2711280   5.0460871  93.1843600 132.8257897
   7.3832050  89.5561247 133.4267888   7.3693619  88.6602341 133.0900186
   8.1004478  89.5631911 134.0606174   9.2358181  89.9898588 135.4721015
   8.9775958  90.9115658 135.4705346   8.7043221  89.5929022 136.1621479
  14.1804369 103.0949375 128.2511101  14.3541247 102.5295797 127.4984953
  14.6733261 103.8950270 128.0690591   6.7868946  88.4375628 128.6955458
   6.9084857  87.5092274 128.8946345   6.4970988  88.4514314 127.7833773
   9.6560136  86.1230538 131.8322178   9.6781833  86.1869871 130.8774157
  10.0728195  85.2835047 132.0262684  20.0343760  95.8585798 129.8701400
  20.4774906  95.1093123 129.4720524  19.1570271  95.8495934 129.4875132
  15.1679542 102.4116139 125.3507999  15.8630446 103.0322832 125.5695313
  15.5102692 101.5611490 125.6260377  17.0670965  99.8615845 126.8795330
  17.5922289 100.2003118 126.1544650  16.9793317  98.9262860 126.6958464
   8.7511626 105.9287828 131.2390583   8.3116616 105.4364207 131.9323440
   9.5019743 105.3860796 130.9982658   1.2303965 102.1199369 131.2415211
   2.0561985 101.8203141 130.8613854   0.8798017 101.3506991 131.6905000
   6.1985498 101.4725837 133.3112884   5.5765507 100.8096542 133.0115112
   6.8690365 101.4986969 132.6286532   6.2710025  89.9507625 142.9045391
   6.3198181  90.8269748 142.5223160   6.8132539  89.4085018 142.3317034
  16.7564871 100.4948748 142.1846528  15.9660415 100.4772887 141.6451027
  16.5198226 101.0337042 142.9395564  16.8762746  97.3441215 139.4979256
  16.9260751  97.1791222 140.4394779  16.7676669  96.4768474 139.1077137
   5.7599005 100.0229760 126.7871345   5.9087125 100.7065225 126.1338018
   6.5665448 100.0034851 127.3020801  14.1666508  93.3272143 140.8138563
  15.0676371  93.1878608 140.5222561  14.2414483  93.4926598 141.7536740
   8.5009314  90.7038998 139.6591749   7.6312623  90.9972564 139.3874338
   8.7368794  91.2879443 140.3799013  18.3780943  99.7638156 139.7421278
  18.0865751 100.1268137 140.5784739  17.7653074  99.0505165 139.5634610
  19.5776625  97.3291036 132.2623848  20.4123517  97.7680840 132.4261408
  19.7135754  96.8529689 131.4432094  16.6268131  94.8870771 138.2101336
  17.1022253  95.0798417 137.4020187  15.7033696  94.9429957 137.9644719
   3.5151638  96.0494938 127.7932414   3.2697680  95.1457268 127.9912624
   3.6847552  96.0512089 126.8511892  11.2048348  86.9218614 137.1757170
  11.7230291  87.6579641 136.8503658  10.8503480  87.2282608 138.0103929
   2.7847285  91.7823296 125.2918575   2.0916530  91.8567651 124.6358611
   2.5399037  91.0183639 125.8140092  11.4560942  83.3418897 132.6958066
  11.7362695  82.6742086 133.3218493  12.2411549  83.5347993 132.1832730
   9.2594410 102.5177891 124.2583092   8.6868377 103.1368078 123.8053564
   9.8327204 103.0677253 124.7923014  15.3269800  91.7636531 136.4429641
  16.2787223  91.8634629 136.4641865  15.1573250  90.9714800 136.9527726
  13.3484180  88.8492114 136.6289042  12.7534112  89.1297127 135.9335531
  13.0633876  89.3386015 137.4005783  12.4791670 102.8015041 125.3891675
  13.4122343 102.7360603 125.5924550  12.3914883 103.6371308 124.9306207
  15.1079687 102.1180911 122.3495622  15.0293318 101.7840775 123.2431380
  15.9289353 102.6102679 122.3487095  17.8057878  94.9842651 135.5571941
  17.7734198  94.0458651 135.7431625  18.4158502  95.0626687 134.8237766
   9.6441209  93.8538704 121.5999145  10.5900313  93.7244912 121.6687563
   9.2655454  93.1153366 122.0768573  17.9552366  91.7753694 135.6030224
  17.4391415  90.9912151 135.4160153  18.8392315  91.4472411 135.7676744
  15.6163093  85.5194710 131.5626037  15.4187914  85.2109798 132.4469369
  16.2262799  86.2456349 131.6923967  23.6234428  96.0458658 134.6977978
  24.3537816  95.7843946 135.2585681  23.0141373  95.3087379 134.7380046
  21.7049725  94.1866520 135.2952429  20.9782888  94.0522485 134.6868920
  21.2897012  94.4943349 136.1009147   7.8284126  91.7788680 121.5354030
   6.9215581  91.4821793 121.6116744   8.1060107  91.4818498 120.6688316
   2.5241974  95.8157484 135.7022583   2.7427984  96.7474592 135.7210617
   2.9367748  95.4565459 136.4877387   9.4446192  86.3225570 127.6898271
   8.6346920  85.9772655 128.0653518  10.1330609  86.0133113 128.2785883
  11.3736740  85.4003617 129.3122568  11.9267778  85.8199070 129.9712591
  11.6106826  84.4739365 129.3545524   6.5982910  88.6375615 121.6766009
   7.4602074  88.9630514 121.9361827   6.7833255  87.8507111 121.1639075
  14.7515547  87.5104142 128.8201232  14.1714216  88.1688946 128.4379285
  14.4851480  86.6881486 128.4088650  13.2019113  86.9109199 131.0222553
  13.7018892  87.0225734 130.2136872  13.8454721  86.6070252 131.6623361
   0.5287069  96.6516209 131.8312213   0.5057757  96.7503896 130.8794096
   0.8387705  97.4981360 132.1529379  13.5340425  89.6704232 127.8757581
  12.6466280  89.9553883 127.6577775  13.9494414  89.5097995 127.0284858
  16.8854961  89.6950753 131.5911920  17.6615351  90.1847206 131.8636537
  16.1603095  90.1208807 132.0483789  19.3227520  90.4078372 132.6485860
  19.9172011  90.1674108 131.9379169  19.3954103  89.6885503 133.2759397
  12.6783638  99.4348907 121.9705601  13.3819489  99.6398909 122.5863256
  11.9546287 100.0025669 122.2354684  13.5081449  95.1858768 128.0907871
  13.4516650  95.6427319 127.2515503  14.0609791  94.4249453 127.9130714
  17.3186255  90.9748500 128.9157990  17.0623189  90.5745136 129.7466198
  16.6939123  91.6892294 128.7908129  21.6298593  93.7144573 131.4229282
  21.0698150  93.7837762 132.1960844  21.0242096  93.5385558 130.7028778
  14.5870336  99.8731436 124.0204061  15.4215940  99.4412634 123.8381535
  14.4254679  99.7013450 124.9480955  14.2416228  96.3763549 125.3860400
  14.1865032  96.2107821 124.4448844  13.6162283  97.0839582 125.5422590
   7.5512354  85.8771658 124.9645718   7.5391023  86.8213498 125.1213989
   8.4435775  85.6941804 124.6705180   7.4801917 104.5540549 133.0513475
   6.5297548 104.5542410 132.9377847   7.7834404 103.8073283 132.5349510
  11.3664473  82.4714435 129.2191655  10.5996869  81.9172922 129.3648338
  11.7775178  82.5436304 130.0805807  23.2154611 110.3901087 134.1159237
  23.8533021 110.2707834 133.4122577  23.0975454 111.3381931 134.1747190
  20.0244317 110.3428515 134.0520762  19.6862829 110.2269580 133.1641297
  20.8934085 109.9419680 134.0321768  15.8831133 112.1963992 130.0417653
  15.3195998 112.1053929 129.2733941  15.7683528 111.3763896 130.5220146
  20.5064100 111.4963367 140.0106968  20.4952741 111.1016165 139.1387471
  20.6684740 110.7629440 140.6040739  13.4295565 113.6915183 132.8801874
  14.2216857 113.3506008 132.4648173  13.6692215 113.8010158 133.8004027
  21.4630692 115.8634959 125.3532118  20.8118671 116.4489040 124.9666132
  22.2575054 116.3941154 125.4127155  15.3886319 112.9524096 125.7519252
  16.1617195 112.4053084 125.6132128  15.7411718 113.8168346 125.9633714
  18.1527568 111.6577327 135.5487511  18.7491140 111.4333350 134.8344474
  18.2102540 110.9162073 136.1512959  17.7252597 109.1116763 123.3837702
  17.9778117 108.5898284 122.6221165  16.7877156 108.9482908 123.4864386
  22.7695879 108.1152541 131.1912445  23.5558969 107.6971964 130.8402862
  23.0334584 109.0198633 131.3594094  22.9405957 113.5525391 125.8901102
  22.3051790 113.6260018 126.6022007  22.6103363 114.1418990 125.2120182
  28.1704307 108.0527774 132.0945424  28.9029479 107.4826991 132.3283253
  27.4143662 107.6649375 132.5351930  17.4448885 111.0144869 125.5862077
  17.3285143 110.3389772 126.2543161  17.5551145 110.5277242 124.7694230
  19.7880426 110.4755016 129.2908766  19.4238634 109.9485637 130.0021688
  20.6447542 110.0853485 129.1175252  25.6929727 101.7649348 136.5540033
  25.3613052 102.6344759 136.3301248  25.0975340 101.4485632 137.2334063
  19.4285913 105.5044915 124.2870115  19.5960316 106.3725152 124.6540586
  19.2383082 105.6672197 123.3631404  22.1861246 113.9661894 135.9535945
  21.8861970 114.8686933 135.8451753  21.8412306 113.6994077 136.8057098
  15.6373728 110.4175691 131.9872650  14.7124224 110.2851905 132.1950341
  15.8858141 111.1969910 132.4842592  25.5858390 106.4844434 133.6333383
  24.6775268 106.4159843 133.3392144  25.5345986 106.9616379 134.4615208
  19.4075134 107.9602573 125.2716782  19.2874759 108.4059624 126.1102262
  18.7127723 108.3087891 124.7130320  12.9982539 110.0608965 132.8216439
  13.1274920 110.3143444 133.7355851  12.3179990 110.6536673 132.5021094
  17.1682026 120.7306215 128.9206913  17.0906056 121.6814040 128.9995394
  16.5643670 120.3852087 129.5781839  19.6599256 107.9034080 141.5768280
  18.8832590 108.4628000 141.5671145  20.2989819 108.3890863 142.0983150
  27.4520037 104.6860873 135.4111257  26.8094417 104.9793406 134.7651051
  26.9474965 104.5713793 136.2164453  25.1060200 108.4324046 126.0997116
  26.0178056 108.6651433 125.9244813  24.5969847 109.0161090 125.5372194
  23.3900968 112.8548674 139.7358408  23.7984324 112.4131084 138.9913041
  22.6678229 112.2801301 139.9892601  19.7432038 107.7921281 137.1091965
  20.5893233 108.2160694 137.2526614  19.6830676 107.1354905 137.8030528
  23.7129783 113.4149864 133.4910697  23.0838645 113.5795579 132.7886765
  23.3255445 113.8291474 134.2621661  27.5919015 114.3504302 130.8455061
  26.9070053 114.7303204 130.2952094  27.6762864 114.9599629 131.5787009
  22.8931483 105.4525649 138.7673139  22.6492415 106.2067709 138.2307415
  23.1691414 105.8310997 139.6020386  24.8469946 111.9964261 137.4450405
  25.0586841 112.6396021 136.7684786  24.7999694 111.1626578 136.9772335
  22.4496175 104.6082082 134.3486977  21.5880654 104.9063336 134.6403714
  22.4758610 104.8252481 133.4168009  19.2657744 113.1524273 130.7560782
  19.7296090 113.4311976 129.9665405  19.0014543 112.2507717 130.5733873
  16.1581826 112.6995754 133.6940546  16.7283183 113.1283022 133.0558030
  16.7489937 112.4178339 134.3924731  18.2026631 109.2747425 127.5650347
  18.9050674 109.7268469 128.0324274  17.8707259 108.6331244 128.1930241
  11.9451965 107.5330978 132.8667481  11.1551018 107.7888506 132.3907592
  12.4363212 108.3479315 132.9719522  25.9615774 114.8736217 135.6172762
  26.7833218 114.4716404 135.3355444  25.9578177 114.7704451 136.5688878
  13.8966710 107.8975557 129.8250958  13.0997873 108.0094251 130.3434453
  13.6692302 108.2362209 128.9591848  19.7272378 114.4220260 137.7733472
  19.7916810 114.8840667 138.6091644  19.0183301 113.7917625 137.9015782
  10.2289667 107.7861468 135.2982472  10.4797706 108.6708478 135.5640048
  10.7649216 107.6066070 134.5257564  34.0521767 111.2174965 131.9657733
  33.2985476 110.6482363 131.8101738  34.1869308 111.1837630 132.9128368
  19.4420395 116.0888368 127.6412453  19.3066070 116.9339903 128.0697301
  19.9830208 116.2907645 126.8778387  12.8949793 113.6063806 128.2140378
  13.4074313 114.4007056 128.3645942  13.5472505 112.9090096 128.1473979
  14.7044677 116.7229562 130.2963131  14.8811306 117.6447527 130.1084115
  15.5001511 116.4087981 130.7257511  18.8455696 103.5837826 141.8947064
  19.5865409 104.1844980 141.8151527  19.0773619 102.8415464 141.3365107
  23.1670110 116.9914734 139.7994196  23.1488585 117.8123615 139.3074465
  24.0890030 116.8668809 140.0244337  22.7912859  99.6118929 136.1711346
  22.4477128 100.5020571 136.0950457  23.1591821  99.4220587 135.3080931
  10.8598709 111.9352460 128.9899948  11.6973931 112.3449468 128.7733656
  11.0376977 110.9951902 128.9600142  22.7563141 109.6027541 124.6783781
  22.2409765 110.3732145 124.9172169  22.4840450 108.9292677 125.3016843
  20.3410252 104.4477241 129.7369020  19.4851849 104.0584092 129.5574658
  20.7537204 104.5269202 128.8768805  21.8709399 101.9823585 134.1360579
  21.3674195 101.9453720 133.3228385  22.1640006 102.8916327 134.1957236
  18.1152285 102.0662314 133.1426761  18.9805282 101.8705123 132.7832651
  18.1829794 101.8372666 134.0696118  27.7297416 112.3559895 126.6136955
  26.9526858 112.0171055 126.1692117  28.4088897 112.3612518 125.9391920
  22.5449445 107.4754633 126.5043562  22.2399580 107.7900782 127.3553706
  23.4979887 107.5536053 126.5470895  20.9895876 113.6344856 128.1536516
  20.4617238 112.8997616 127.8409754  20.4883379 114.4119532 127.9076485
  25.9688722 111.8293876 133.2703563  25.3112397 112.5193138 133.3583691
  26.7729122 112.2190308 133.6137549  15.7214604 104.2964522 130.5143128
  16.2958356 104.0739704 129.7816321  16.3085587 104.3653217 131.2671729
  24.7794181 110.1838249 131.3207504  25.2926063 110.8168241 131.8229214
  25.4295405 109.5839445 130.9550865  16.0484191 106.3268983 124.5339013
  15.2121503 106.6643670 124.8548288  15.9088961 106.1917963 123.5966150
  18.0237272 101.1705771 129.2418197  17.3701684 100.8554788 128.6174812
  17.9817746 100.5481512 129.9678020  19.1348477 111.4525066 121.1571489
  18.2275538 111.2214320 121.3562638  19.6319509 110.6562685 121.3445471
  22.0416556 120.1622573 124.0768176  21.3678254 120.4654270 124.6853133
  22.4282378 120.9651654 123.7273633  21.2575012 107.6587705 133.5665845
  20.3397574 107.8802652 133.4087533  21.6735156 107.7334015 132.7077552
  22.0410060 109.0579120 128.6968525  22.7881879 109.5700518 128.3875647
  22.3101649 108.7363173 129.5572919  20.3136710 111.5537661 125.6795480
  19.4047929 111.2696694 125.7767949  20.3431794 111.9736740 124.8198786
  25.5455978 115.1644251 129.4486647  25.0918305 114.3235160 129.5051838
  24.9149944 115.8005649 129.7861427  24.4888897 106.0936237 130.6787315
  23.7511654 105.5813623 131.0097557  24.7415671 105.6536618 129.8670591
  23.9888917 117.0020747 130.3836465  24.2811891 117.5625804 129.6648831
  24.4987537 117.2949308 131.1389624  24.5900524  98.8712489 131.2729084
  24.8959401  98.0109852 130.9854999  25.3153129  99.4630109 131.0728078
  10.8824880 109.2743175 129.6610682  10.6849280 108.6812536 128.9361748
  10.3271544 108.9695385 130.3786621  18.8621604 109.1666282 131.7805275
  18.9170214 108.2140118 131.7047752  18.0512806 109.3225721 132.2646573
  20.0112798 113.0946405 123.0183558  19.5732228 112.3782264 122.5589195
  20.7523239 113.3222520 122.4568650  16.8013964 107.7843341 129.5395654
  15.9881830 108.0837512 129.9460846  17.2972958 107.3899030 130.2570136
  18.9522542 117.7801098 131.4729918  18.9098721 118.0061945 130.5438451
  19.8685241 117.5464473 131.6215720  22.3988176 108.2485166 138.3710548
  22.7537563 108.4756639 139.2305013  23.0460307 108.5803543 137.7487803
  28.1285913 111.3703602 129.0759877  27.9903811 111.5605198 128.1481066
  27.7722131 112.1322985 129.5327928  16.2928039 105.3561697 135.1556889
  16.9327418 105.2150456 134.4579852  15.4605569 105.0696210 134.7795491
  28.1555292 113.4380129 134.0871148  28.5891799 113.3455418 134.9354202
  28.8686873 113.4137629 133.4491164  17.0688343 114.6564127 131.2691881
  17.8628941 114.1614448 131.0674456  16.3580035 114.1281990 130.9059587
  21.8883187 117.0382223 135.6204249  21.9420209 117.6073159 136.3881965
  21.0197969 117.2084108 135.2558286  13.3771106 108.8007209 127.3451634
  12.4468694 108.7391665 127.5621596  13.4728578 108.2783162 126.5488275
  13.2956655 105.3262022 129.9329876  13.5563473 106.2407355 129.8239036
  14.1173828 104.8586464 130.0826488  14.7681581 106.7399779 137.1028700
  15.4404634 106.5317141 136.4541349  13.9411367 106.5421865 136.6633932
  29.0170842 113.4803829 136.6204034  29.2106732 114.3849640 136.8663309
  28.9171460 113.0211249 137.4542619  20.6707153 103.3661720 139.1194361
  20.0235068 104.0651670 139.0258837  21.4408168 103.7997864 139.4870609
  24.0785951 113.6310572 142.1944914  23.9271457 113.4021124 141.2774998
  24.0690630 114.5881174 142.2076259  20.8471287 111.2042485 137.1791181
  21.7763347 111.3553645 137.0060148  20.4262317 111.2926506 136.3239827
  19.6459619 115.2293149 134.9489718  19.5070704 114.8611934 135.8215656
  18.8574215 115.7440789 134.7773676  20.2407771 120.3302246 126.2915255
  20.4159526 119.8590289 127.1060878  19.5540559 120.9568012 126.5196516
  21.1964834 114.6074752 132.3378556  20.8614666 114.5675522 133.2336206
  20.6968780 113.9419468 131.8648966  15.1709078 110.0142382 137.8631137
  15.0328876 109.2822621 138.4642676  16.0814001 109.9251282 137.5815325
  24.1324026 111.9530786 122.6115616  23.5153196 111.2277615 122.5148668
  23.6640514 112.7140147 122.2682690  17.7991378 109.7262341 137.3514817
  18.5090997 109.0855534 137.3101435  17.7560687 109.9775236 138.2740998
  25.7878157 116.6629695 140.2721396  25.7290703 115.9788915 139.6051979
  26.1897676 117.4048685 139.8202022  16.5120312 106.7127559 139.1710456
  15.9757669 106.2618298 139.8232053  15.9237021 106.8473468 138.4280921
  15.9222571 106.1716211 121.7336920  15.0452038 106.0505011 121.3699167
  16.3980324 105.3802289 121.4815809  25.7895564 114.6269279 138.5035376
  24.9022343 114.2895200 138.6261775  26.3594115 113.8952310 138.7404141
  12.2459434 105.8483567 136.2563451  12.1617622 105.2409237 135.5213861
  11.4242140 106.3392585 136.2572947  19.3196718 119.2870731 135.4696619
  19.2466889 120.0925703 135.9815924  18.8774111 119.4862697 134.6444640
  19.1086497 118.5242501 128.9799441  18.3254019 119.0664181 129.0737665
  19.8079243 119.0416481 129.3793682  22.4183148 104.3337131 131.6233646
  22.9151847 103.5807093 131.3034716  21.6470129 104.3701447 131.0576855
  30.2712905 110.0377496 133.2651937  30.2602781 110.9202211 132.8945871
  29.4030284 109.6849047 133.0706474  21.7795401 119.1857565 137.6254778
  22.4923374 119.8205030 137.5530679  21.2885430 119.2821431 136.8094779
  23.5012928 113.0908818 129.1972069  22.5669207 113.2110280 129.0276774
  23.6789597 112.1881285 128.9332079  19.0018116 106.4754514 131.3505331
  18.6315904 105.9225554 132.0386236  19.4977209 105.8712647 130.7980331
  26.8885480 108.9326137 129.7322103  27.3545932 109.7654129 129.6582406
  27.3392980 108.4671119 130.4367362  24.9561711 115.2769958 126.7308255
  25.2321555 115.1626553 127.6402130  24.0866209 114.8787443 126.6920429
  24.8602142 101.3006724 133.7713005  23.9465222 101.5310951 133.9395212
  25.2895244 101.3845168 134.6227037  24.6308601 109.4896616 136.2712899
  23.9780051 109.7372523 135.6165352  25.0088981 108.6760754 135.9375376
  21.5915775 119.5256309 130.3741069  21.7738169 118.7077965 130.8368821
  22.4148761 119.7424001 129.9365959  21.9257940 118.4524494 127.6356118
  22.4545707 117.9416949 127.0226280  22.1886160 118.1367024 128.5001651
  15.2813688 119.5039611 130.3953894  14.6124063 119.9885739 129.9117934
  15.1426558 119.7508831 131.3097272  14.3983450 103.8858504 137.5958437
  14.4624776 104.7473335 137.1835834  14.3350570 103.2732506 136.8630795
  10.6501265 107.7658066 127.1749826  10.9454706 106.8568744 127.1216879
   9.7489301 107.7445805 126.8530828  22.5587344 119.4865330 133.9800234
  22.4338483 118.6855070 133.4711180  23.2166435 119.9811523 133.4914204
  14.1795512 105.8414063 133.1577374  13.4582098 106.4550030 133.0184848
  14.9688768 106.3771827 133.0794020  24.6222252 117.2874350 135.6079784
  23.6752588 117.1679701 135.5358111  24.9705026 116.3996848 135.6906046
  16.9821826 103.1768489 139.4318026  17.5056228 103.4230786 140.1944335
  16.7634159 104.0088524 139.0121163  12.3789107 105.4472164 127.2989151
  12.0501813 104.5669543 127.1164257  12.7328478 105.3919832 128.1865540
  21.6268686 117.0827066 131.8084136  21.4793648 116.1543774 131.9891706
  22.4522179 117.1047157 131.3241212  15.4930930 105.7345133 127.6664629
  15.8327003 106.2631055 126.9443237  15.9403050 106.0725540 128.4423195
  25.2302808 117.9055625 132.8949009  26.1549355 117.6998486 132.7573460
  25.0618111 117.6572026 133.8038351  18.1874371 104.1182184 137.1167697
  17.8471191 103.3189997 137.5188376  17.4813377 104.4183895 136.5444530
  18.8390843 101.2031497 135.5695020  19.6616912 100.7291975 135.4473910
  19.0828906 101.9821980 136.0693706  17.4799077 104.2319755 125.8657921
  18.2007440 104.6101008 125.3621638  16.8564381 104.9508632 125.9692899
  21.6230200 104.9364904 126.8016254  21.8393814 105.8189542 126.5005082
  21.1424267 104.5451117 126.0721896  16.3629421 107.8950617 133.3786998
  16.2174002 108.2090920 134.2711280  15.8854625 108.5135518 132.8257897
  18.2225804 104.8853165 133.4267888  18.2087373 103.9894258 133.0900186
  18.9398232 104.8923829 134.0606174  20.0751935 105.3190505 135.4721015
  19.8169713 106.2407576 135.4705346  19.5436975 104.9220940 136.1621479
  25.0198124 118.4241292 128.2511101  25.1935001 117.8587715 127.4984953
  25.5127015 119.2242187 128.0690591  17.6262700 103.7667545 128.6955458
  17.7478611 102.8384192 128.8946345  17.3364743 103.7806231 127.7833773
  20.4953891 101.4522456 131.8322178  20.5175587 101.5161789 130.8774157
  20.9121950 100.6126965 132.0262684  30.8737515 111.1877715 129.8701400
  31.3168661 110.4385041 129.4720524  29.9964025 111.1787852 129.4875132
  26.0073296 117.7408057 125.3507999  26.7024201 118.3614750 125.5695313
  26.3496446 116.8903408 125.6260377  27.9064719 115.1907762 126.8795330
  28.4316043 115.5295035 126.1544650  27.8187072 114.2554778 126.6958464
  19.5905380 121.2579746 131.2390583  19.1510370 120.7656124 131.9323440
  20.3413497 120.7152713 130.9982658  12.0697719 117.4491287 131.2415211
  12.8955739 117.1495058 130.8613854  11.7191771 116.6798909 131.6905000
  17.0379252 116.8017755 133.3112884  16.4159262 116.1388460 133.0115112
  17.7084119 116.8278887 132.6286532  17.1103780 105.2799543 142.9045391
  17.1591935 106.1561666 142.5223160  17.6526294 104.7376936 142.3317034
  27.5958625 115.8240666 142.1846528  26.8054169 115.8064805 141.6451027
  27.3591980 116.3628960 142.9395564  27.7156500 112.6733132 139.4979256
  27.7654505 112.5083140 140.4394779  27.6070424 111.8060391 139.1077137
  16.5992759 115.3521678 126.7871345  16.7480880 116.0357143 126.1338018
  17.4059203 115.3326768 127.3020801  25.0060263 108.6564060 140.8138563
  25.9070126 108.5170525 140.5222561  25.0808237 108.8218515 141.7536740
  19.3403068 106.0330915 139.6591749  18.4706378 106.3264481 139.3874338
  19.5762549 106.6171360 140.3799013  29.2174697 115.0930074 139.7421278
  28.9259506 115.4560055 140.5784739  28.6046829 114.3797082 139.5634610
  30.4170380 112.6582954 132.2623848  31.2517271 113.0972758 132.4261408
  30.5529508 112.1821607 131.4432094  27.4661886 110.2162689 138.2101336
  27.9416007 110.4090335 137.4020187  26.5427451 110.2721874 137.9644719
  14.3545392 111.3786856 127.7932414  14.1091434 110.4749186 127.9912624
  14.5241307 111.3804006 126.8511892  22.0442102 102.2510532 137.1757170
  22.5624046 102.9871559 136.8503658  21.6897235 102.5574525 138.0103929
  13.6241040 107.1115213 125.2918575  12.9310285 107.1859568 124.6358611
  13.3792792 106.3475557 125.8140092  22.2954696  98.6710815 132.6958066
  22.5756450  98.0034004 133.3218493  23.0805303  98.8639910 132.1832730
  20.0988165 117.8469809 124.2583092  19.5262132 118.4659996 123.8053564
  20.6720958 118.3969170 124.7923014  26.1663555 107.0928449 136.4429641
  27.1180977 107.1926546 136.4641865  25.9967005 106.3006717 136.9527726
  24.1877934 104.1784032 136.6289042  23.5927866 104.4589045 135.9335531
  23.9027631 104.6677933 137.4005783  23.3185424 118.1306959 125.3891675
  24.2516098 118.0652520 125.5924550  23.2308637 118.9663226 124.9306207
  25.9473441 117.4472829 122.3495622  25.8687073 117.1132693 123.2431380
  26.7683108 117.9394597 122.3487095  28.6451632 110.3134568 135.5571941
  28.6127952 109.3750569 135.7431625  29.2552256 110.3918605 134.8237766
  20.4834963 109.1830621 121.5999145  21.4294068 109.0536829 121.6687563
  20.1049208 108.4445283 122.0768573  28.7946121 107.1045612 135.6030224
  28.2785169 106.3204068 135.4160153  29.6786069 106.7764328 135.7676744
  26.4556848 100.8486627 131.5626037  26.2581669 100.5401716 132.4469369
  27.0656553 101.5748266 131.6923967  34.4628182 111.3750575 134.6977978
  35.1931571 111.1135863 135.2585681  33.8535128 110.6379297 134.7380046
  32.5443479 109.5158438 135.2952429  31.8176643 109.3814403 134.6868920
  32.1290766 109.8235266 136.1009147  18.6677880 107.1080598 121.5354030
  17.7609336 106.8113710 121.6116744  18.9453861 106.8110416 120.6688316
   9.5855821 108.4286961 131.9853077   9.2658605 107.5752269 131.6927451
   9.0389249 108.6435539 132.7411044  13.3635728 111.1449402 135.7022583
  13.5821738 112.0766510 135.7210617  13.7761502 110.7857377 136.4877387
  20.2839946 101.6517487 127.6898271  19.4740674 101.3064572 128.0653518
  20.9724363 101.3425031 128.2785883  22.2130494 100.7295534 129.3122568
  22.7661533 101.1490988 129.9712591  22.4500581  99.8031282 129.3545524
  17.4376665 103.9667533 121.6766009  18.2995829 104.2922431 121.9361827
  17.6227009 103.1799029 121.1639075  25.5909301 102.8396059 128.8201232
  25.0107971 103.4980863 128.4379285  25.3245234 102.0173404 128.4088650
  24.0412868 102.2401117 131.0222553  24.5412646 102.3517652 130.2136872
  24.6848476 101.9362170 131.6623361  11.3680823 111.9808126 131.8312213
  11.3451511 112.0795814 130.8794096  11.6781460 112.8273277 132.1529379
  24.3734179 104.9996150 127.8757581  23.4860035 105.2845800 127.6577775
  24.7888169 104.8389913 127.0284858  27.7248716 105.0242671 131.5911920
  28.5009106 105.5139123 131.8636537  26.9996850 105.4500725 132.0483789
  30.1621274 105.7370290 132.6485860  30.7565765 105.4966026 131.9379169
  30.2347858 105.0177421 133.2759397  23.5177393 114.7640824 121.9705601
  24.2213243 114.9690827 122.5863256  22.7940042 115.3317586 122.2354684
  24.3475203 110.5150686 128.0907871  24.2910405 110.9719237 127.2515503
  24.9003546 109.7541370 127.9130714  28.1580009 106.3040418 128.9157990
  27.9016943 105.9037053 129.7466198  27.5332877 107.0184212 128.7908129
  32.4692347 109.0436491 131.4229282  31.9091905 109.1129680 132.1960844
  31.8635850 108.8677475 130.7028778  25.4264090 115.2023354 124.0204061
  26.2609694 114.7704552 123.8381535  25.2648433 115.0305367 124.9480955
  25.0809983 111.7055467 125.3860400  25.0258786 111.5399738 124.4448844
  24.4556038 112.4131500 125.5422590  18.3906108 101.2063576 124.9645718
  18.3784778 102.1505416 125.1213989  19.2829530 101.0233721 124.6705180
  18.3195672 119.8832466 133.0513475  17.3691303 119.8834328 132.9377847
  18.6228158 119.1365201 132.5349510  22.2058227  97.8006353 129.2191655
  21.4390623  97.2464839 129.3648338  22.6168932  97.8728221 130.0805807
  34.0548365 125.7193005 134.1159237  34.6926775 125.5999752 133.4122577
  33.9369208 126.6673849 134.1747190  30.8638072 125.6720433 134.0520762
  30.5256583 125.5561498 133.1641297  31.7327840 125.2711598 134.0321768
  26.7224887 127.5255909 130.0417653  26.1589753 127.4345846 129.2733941
  26.6077282 126.7055814 130.5220146  31.3457855 126.8255285 140.0106968
  31.3346495 126.4308083 139.1387471  31.5078494 126.0921357 140.6040739
  24.2689319 129.0207101 132.8801874  25.0610611 128.6797926 132.4648173
  24.5085970 129.1302076 133.8004027  32.3024446 131.1926877 125.3532118
  31.6512426 131.7780957 124.9666132  33.0968809 131.7233072 125.4127155
  26.2280073 128.2816014 125.7519252  27.0010949 127.7345001 125.6132128
  26.5805472 129.1460263 125.9633714  28.9921323 126.9869245 135.5487511
  29.5884895 126.7625267 134.8344474  29.0496294 126.2453990 136.1512959
  28.5646351 124.4408680 123.3837702  28.8171872 123.9190202 122.6221165
  27.6270910 124.2774826 123.4864386  33.6089634 123.4444459 131.1912445
  34.3952723 123.0263882 130.8402862  33.8728338 124.3490551 131.3594094
  33.7799711 128.8817309 125.8901102  33.1445544 128.9551935 126.6022007
  33.4497118 129.4710908 125.2120182  39.0098061 123.3819692 132.0945424
  39.7423233 122.8118909 132.3283253  38.2537417 122.9941292 132.5351930
  28.2842640 126.3436786 125.5862077  28.1678898 125.6681690 126.2543161
  28.3944900 125.8569160 124.7694230  30.6274181 125.8046933 129.2908766
  30.2632388 125.2777554 130.0021688  31.4841297 125.4145402 129.1175252
  36.5323481 117.0941266 136.5540033  36.2006806 117.9636677 136.3301248
  35.9369095 116.7777550 137.2334063  30.2679668 120.8336833 124.2870115
  30.4354070 121.7017069 124.6540586  30.0776837 120.9964115 123.3631404
  33.0255001 129.2953812 135.9535945  32.7255724 130.1978851 135.8451753
  32.6806060 129.0285995 136.8057098  26.4767482 125.7467609 131.9872650
  25.5517979 125.6143823 132.1950341  26.7251896 126.5261828 132.4842592
  36.4252145 121.8136352 133.6333383  35.5169022 121.7451761 133.3392144
  36.3739741 122.2908297 134.4615208  30.2468889 123.2894491 125.2716782
  30.1268514 123.7351541 126.1102262  29.5521477 123.6379808 124.7130320
  23.8376293 125.3900882 132.8216439  23.9668675 125.6435361 133.7355851
  23.1573745 125.9828590 132.5021094  28.0075781 136.0598132 128.9206913
  27.9299810 137.0105957 128.9995394  27.4037424 135.7144005 129.5781839
  30.4993011 123.2325998 141.5768280  29.7226345 123.7919918 141.5671145
  31.1383574 123.7182781 142.0983150  38.2913791 120.0152790 135.4111257
  37.6488171 120.3085324 134.7651051  37.7868720 119.9005711 136.2164453
  35.9453955 123.7615964 126.0997116  36.8571811 123.9943350 125.9244813
  35.4363602 124.3453008 125.5372194  34.2294722 128.1840592 139.7358408
  34.6378078 127.7423002 138.9913041  33.5071984 127.6093219 139.9892601
  30.5825793 123.1213198 137.1091965  31.4286988 123.5452612 137.2526614
  30.5224430 122.4646823 137.8030528  34.5523537 128.7441782 133.4910697
  33.9232400 128.9087496 132.7886765  34.1649199 129.1583392 134.2621661
  38.4312769 129.6796220 130.8455061  37.7463807 130.0595121 130.2952094
  38.5156618 130.2891547 131.5787009  33.7325238 120.7817567 138.7673139
  33.4886170 121.5359627 138.2307415  34.0085168 121.1602914 139.6020386
  35.6863701 127.3256179 137.4450405  35.8980596 127.9687939 136.7684786
  35.6393449 126.4918496 136.9772335  33.2889930 119.9374000 134.3486977
  32.4274409 120.2355253 134.6403714  33.3152364 120.1544399 133.4168009
  30.1051499 128.4816190 130.7560782  30.5689845 128.7603893 129.9665405
  29.8408297 127.5799635 130.5733873  26.9975580 128.0287672 133.6940546
  27.5676937 128.4574940 133.0558030  27.5883692 127.7470256 134.3924731
  29.0420385 124.6039343 127.5650347  29.7444428 125.0560386 128.0324274
  28.7101014 123.9623161 128.1930241  22.7845719 122.8622895 132.8667481
  21.9944773 123.1180424 132.3907592  23.2756966 123.6771233 132.9719522
  36.8009529 130.2028134 135.6172762  37.6226972 129.8008322 135.3355444
  36.7971931 130.0996369 136.5688878  24.7360464 123.2267475 129.8250958
  23.9391628 123.3386169 130.3434453  24.5086057 123.5654127 128.9591848
  30.5666132 129.7512178 137.7733472  30.6310565 130.2132585 138.6091644
  29.8577056 129.1209543 137.9015782  21.0683422 123.1153386 135.2982472
  21.3191460 124.0000396 135.5640048  21.6042970 122.9357987 134.5257564
  44.8915522 126.5466883 131.9657733  44.1379230 125.9774281 131.8101738
  45.0263063 126.5129547 132.9128368  30.2814150 131.4180285 127.6412453
  30.1459824 132.2631821 128.0697301  30.8223962 131.6199563 126.8778387
  23.7343547 128.9355723 128.2140378  24.2468068 129.7298974 128.3645942
  24.3866260 128.2382014 128.1473979  25.5438432 132.0521480 130.2963131
  25.7205060 132.9739444 130.1084115  26.3395265 131.7379899 130.7257511
  29.6849450 118.9129744 141.8947064  30.4259164 119.5136897 141.8151527
  29.9167373 118.1707382 141.3365107  34.0063864 132.3206652 139.7994196
  33.9882339 133.1415533 139.3074465  34.9283784 132.1960727 140.0244337
  33.6306613 114.9410847 136.1711346  33.2870883 115.8312489 136.0950457
  33.9985576 114.7512505 135.3080931  21.6992464 127.2644378 128.9899948
  22.5367686 127.6741386 128.7733656  21.8770732 126.3243820 128.9600142
  33.5956896 124.9319458 124.6783781  33.0803519 125.7024063 124.9172169
  33.3234204 124.2584594 125.3016843  31.1804007 119.7769159 129.7369020
  30.3245603 119.3876009 129.5574658  31.5930959 119.8561120 128.8768805
  32.7103154 117.3115502 134.1360579  32.2067949 117.2745637 133.3228385
  33.0033760 118.2208245 134.1957236  28.9546039 117.3954232 133.1426761
  29.8199036 117.1997041 132.7832651  29.0223548 117.1664584 134.0696118
  38.5691170 127.6851813 126.6136955  37.7920613 127.3462972 126.1692117
  39.2482651 127.6904436 125.9391920  33.3843199 122.8046550 126.5043562
  33.0793335 123.1192699 127.3553706  34.3373641 122.8827970 126.5470895
  31.8289631 128.9636774 128.1536516  31.3010993 128.2289533 127.8409754
  31.3277134 129.7411450 127.9076485  36.8082477 127.1585794 133.2703563
  36.1506151 127.8485055 133.3583691  37.6122876 127.5482226 133.6137549
  26.5608359 119.6256440 130.5143128  27.1352110 119.4031621 129.7816321
  27.1479341 119.6945134 131.2671729  35.6187936 125.5130167 131.3207504
  36.1319818 126.1460159 131.8229214  36.2689160 124.9131362 130.9550865
  26.8877946 121.6560901 124.5339013  26.0515258 121.9935587 124.8548288
  26.7482715 121.5209881 123.5966150  28.8631026 116.4997689 129.2418197
  28.2095439 116.1846706 128.6174812  28.8211500 115.8773429 129.9678020
  29.9742231 126.7816984 121.1571489  29.0669293 126.5506237 121.3562638
  30.4713263 125.9854603 121.3445471  32.8810310 135.4914491 124.0768176
  32.2072009 135.7946188 124.6853133  33.2676132 136.2943571 123.7273633
  32.0968767 122.9879622 133.5665845  31.1791328 123.2094569 133.4087533
  32.5128910 123.0625933 132.7077552  32.8803814 124.3871038 128.6968525
  33.6275633 124.8992435 128.3875647  33.1495404 124.0655091 129.5572919
  31.1530465 126.8829579 125.6795480  30.2441684 126.5988612 125.7767949
  31.1825548 127.3028657 124.8198786  36.3849732 130.4936168 129.4486647
  35.9312059 129.6527078 129.5051838  35.7543699 131.1297567 129.7861427
  35.3282652 121.4228154 130.6787315  34.5905408 120.9105540 131.0097557
  35.5809425 120.9828536 129.8670591  34.8282671 132.3312665 130.3836465
  35.1205646 132.8917722 129.6648831  35.3381292 132.6241226 131.1389624
  35.4294279 114.2004406 131.2729084  35.7353156 113.3401770 130.9854999
  36.1546884 114.7922026 131.0728078  21.7218635 124.6035093 129.6610682
  21.5243035 124.0104454 128.9361748  21.1665299 124.2987303 130.3786621
  29.7015359 124.4958199 131.7805275  29.7563968 123.5432036 131.7047752
  28.8906561 124.6517638 132.2646573  30.8506552 128.4238322 123.0183558
  30.4125982 127.7074181 122.5589195  31.5916993 128.6514437 122.4568650
  27.6407719 123.1135259 129.5395654  26.8275584 123.4129430 129.9460846
  28.1366713 122.7190948 130.2570136  29.7916296 133.1093016 131.4729918
  29.7492475 133.3353862 130.5438451  30.7078995 132.8756391 131.6215720
  33.2381930 123.5777084 138.3710548  33.5931318 123.8048557 139.2305013
  33.8854061 123.9095460 137.7487803  38.9679667 126.6995519 129.0759877
  38.8297566 126.8897115 128.1481066  38.6115886 127.4614902 129.5327928
  27.1321793 120.6853615 135.1556889  27.7721173 120.5442374 134.4579852
  26.2999324 120.3988128 134.7795491  38.9949047 128.7672046 134.0871148
  39.4285553 128.6747336 134.9354202  39.7080627 128.7429547 133.4491164
  27.9082097 129.9856045 131.2691881  28.7022696 129.4906365 131.0674456
  27.1973790 129.4573908 130.9059587  32.7276942 132.3674141 135.6204249
  32.7813964 132.9365077 136.3881965  31.8591723 132.5376026 135.2558286
  24.2164861 124.1299127 127.3451634  23.2862449 124.0683582 127.5621596
  24.3122333 123.6075080 126.5488275  24.1350410 120.6553940 129.9329876
  24.3957227 121.5699273 129.8239036  24.9567582 120.1878382 130.0826488
  25.6075335 122.0691697 137.1028700  26.2798388 121.8609059 136.4541349
  24.7805122 121.8713783 136.6633932  39.8564596 128.8095747 136.6204034
  40.0500486 129.7141558 136.8663309  39.7565214 128.3503166 137.4542619
  31.5100907 118.6953638 139.1194361  30.8628822 119.3943587 139.0258837
  32.2801922 119.1289782 139.4870609  34.9179705 128.9602490 142.1944914
  34.7665211 128.7313042 141.2774998  34.9084384 129.9173091 142.2076259
  31.6865041 126.5334403 137.1791181  32.6157101 126.6845562 137.0060148
  31.2656071 126.6218423 136.3239827  30.4853373 130.5585067 134.9489718
  30.3464459 130.1903851 135.8215656  29.6967969 131.0732706 134.7773676
  31.0801525 135.6594163 126.2915255  31.2553281 135.1882207 127.1060878
  30.3934313 136.2859930 126.5196516  32.0358588 129.9366670 132.3378556
  31.7008421 129.8967440 133.2336206  31.5362534 129.2711386 131.8648966
  26.0102832 125.3434300 137.8631137  25.8722630 124.6114539 138.4642676
  26.9207756 125.2543200 137.5815325  34.9717780 127.2822704 122.6115616
  34.3546951 126.5569532 122.5148668  34.5034268 128.0432064 122.2682690
  28.6385133 125.0554259 137.3514817  29.3484752 124.4147451 137.3101435
  28.5954441 125.3067154 138.2740998  36.6271912 131.9921612 140.2721396
  36.5684458 131.3080833 139.6051979  37.0291430 132.7340602 139.8202022
  27.3514067 122.0419477 139.1710456  26.8151424 121.5910215 139.8232053
  26.7630775 122.1765386 138.4280921  26.7616326 121.5008128 121.7336920
  25.8845792 121.3796929 121.3699167  27.2374079 120.7094207 121.4815809
  36.6289319 129.9561196 138.5035376  35.7416098 129.6187118 138.6261775
  37.1987870 129.2244228 138.7404141  23.0853188 121.1775485 136.2563451
  23.0011377 120.5701154 135.5213861  22.2635895 121.6684503 136.2572947
  30.1590472 134.6162649 135.4696619  30.0860644 135.4217620 135.9815924
  29.7167865 134.8154615 134.6444640  29.9480252 133.8534419 128.9799441
  29.1647774 134.3956099 129.0737665  30.6472997 134.3708398 129.3793682
  33.2576902 119.6629048 131.6233646  33.7545602 118.9099011 131.3034716
  32.4863884 119.6993365 131.0576855  41.1106659 125.3669414 133.2651937
  41.0996536 126.2494129 132.8945871  40.2424039 125.0140965 133.0706474
  32.6189156 134.5149483 137.6254778  33.3317128 135.1496948 137.5530679
  32.1279184 134.6113349 136.8094779  34.3406683 128.4200735 129.1972069
  33.4062961 128.5402198 129.0276774  34.5183351 127.5173202 128.9332079
  29.8411871 121.8046431 131.3505331  29.4709658 121.2517472 132.0386236
  30.3370963 121.2004565 130.7980331  37.7279234 124.2618055 129.7322103
  38.1939686 125.0946046 129.6582406  38.1786735 123.7963036 130.4367362
  35.7955465 130.6061876 126.7308255  36.0715309 130.4918471 127.6402130
  34.9259964 130.2079361 126.6920429  35.6995897 116.6298642 133.7713005
  34.7858977 116.8602869 133.9395212  36.1288998 116.7137086 134.6227037
  35.4702355 124.8188534 136.2712899  34.8173806 125.0664441 135.6165352
  35.8482735 124.0052672 135.9375376  32.4309529 134.8548227 130.3741069
  32.6131924 134.0369883 130.8368821  33.2542515 135.0715919 129.9365959
  32.7651695 133.7816412 127.6356118  33.2939461 133.2708867 127.0226280
  33.0279914 133.4658942 128.5001651  26.1207443 134.8331529 130.3953894
  25.4517818 135.3177656 129.9117934  25.9820312 135.0800749 131.3097272
  25.2377204 119.2150422 137.5958437  25.3018531 120.0765253 137.1835834
  25.1744325 118.6024424 136.8630795  21.4895020 123.0949984 127.1749826
  21.7848461 122.1860662 127.1216879  20.5883056 123.0737723 126.8530828
  33.3981099 134.8157248 133.9800234  33.2732238 134.0146988 133.4711180
  34.0560190 135.3103441 133.4914204  25.0189267 121.1705980 133.1577374
  24.2975853 121.7841948 133.0184848  25.8082523 121.7063745 133.0794020
  35.4616007 132.6166268 135.6079784  34.5146342 132.4971619 135.5358111
  35.8098780 131.7288766 135.6906046  27.8215580 118.5060407 139.4318026
  28.3449982 118.7522703 140.1944335  27.6027914 119.3380441 139.0121163
  23.2182861 120.7764081 127.2989151  22.8895567 119.8961460 127.1164257
  23.5722232 120.7211750 128.1865540  32.4662440 132.4118984 131.8084136
  32.3187403 131.4835691 131.9891706  33.2915934 132.4339075 131.3241212
  26.3324684 121.0637051 127.6664629  26.6720757 121.5922972 126.9443237
  26.7796805 121.4017457 128.4423195  36.0696562 133.2347543 132.8949009
  36.9943110 133.0290404 132.7573460  35.9011865 132.9863944 133.8038351
  29.0268125 119.4474102 137.1167697  28.6864946 118.6481915 137.5188376
  28.3207132 119.7475813 136.5444530  29.6784597 116.5323414 135.5695020
  30.5010666 116.0583892 135.4473910  29.9222661 117.3113898 136.0693706
  28.3192832 119.5611673 125.8657921  29.0401194 119.9392925 125.3621638
  27.6958136 120.2800549 125.9692899  32.4623955 120.2656822 126.8016254
  32.6787569 121.1481460 126.5005082  31.9818022 119.8743035 126.0721896
  27.2023176 123.2242535 133.3786998  27.0567757 123.5382838 134.2711280
  26.7248380 123.8427435 132.8257897  29.0619559 120.2145083 133.4267888
  29.0481128 119.3186176 133.0900186  29.7791987 120.2215747 134.0606174
  30.9145689 120.6482423 135.4721015  30.6563467 121.5699494 135.4705346
  30.3830730 120.2512858 136.1621479  35.8591878 133.7533210 128.2511101
  36.0328756 133.1879633 127.4984953  36.3520769 134.5534105 128.0690591
  28.4656455 119.0959463 128.6955458  28.5872366 118.1676109 128.8946345
  28.1758497 119.1098149 127.7833773  31.3347645 116.7814374 131.8322178
  31.3569342 116.8453707 130.8774157  31.7515704 115.9418882 132.0262684
  41.7131269 126.5169633 129.8701400  42.1562415 125.7676958 129.4720524
  40.8357780 126.5079769 129.4875132  36.8467051 133.0699975 125.3507999
  37.5417955 133.6906667 125.5695313  37.1890201 132.2195326 125.6260377
  38.7458474 130.5199680 126.8795330  39.2709798 130.8586953 126.1544650
  38.6580826 129.5846695 126.6958464  30.4299135 136.5871663 131.2390583
  29.9904125 136.0948042 131.9323440  31.1807252 136.0444631 130.9982658
  22.9091474 132.7783204 131.2415211  23.7349494 132.4786976 130.8613854
  22.5585526 132.0090827 131.6905000  27.8773007 132.1309672 133.3112884
  27.2553016 131.4680377 133.0115112  28.5477874 132.1570804 132.6286532
  27.9497534 120.6091460 142.9045391  27.9985690 121.4853583 142.5223160
  28.4920048 120.0668854 142.3317034  38.4352380 131.1532584 142.1846528
  37.6447924 131.1356723 141.6451027  38.1985735 131.6920877 142.9395564
  38.5550255 128.0025050 139.4979256  38.6048260 127.8375058 140.4394779
  38.4464178 127.1352309 139.1077137  27.4386514 130.6813596 126.7871345
  27.5874634 131.3649060 126.1338018  28.2452957 130.6618686 127.3020801
  35.8454017 123.9855978 140.8138563  36.7463880 123.8462443 140.5222561
  35.9201992 124.1510433 141.7536740  30.1796823 121.3622833 139.6591749
  29.3100132 121.6556399 139.3874338  30.4156303 121.9463278 140.3799013
  40.0568452 130.4221992 139.7421278  39.7653260 130.7851972 140.5784739
  39.4440583 129.7089000 139.5634610  41.2564134 127.9874871 132.2623848
  42.0911026 128.4264675 132.4261408  41.3923263 127.5113525 131.4432094
  38.3055640 125.5454606 138.2101336  38.7809762 125.7382253 137.4020187
  37.3821205 125.6013792 137.9644719  25.1939147 126.7078773 127.7932414
  24.9485189 125.8041103 127.9912624  25.3635061 126.7095924 126.8511892
  32.8835857 117.5802450 137.1757170  33.4017800 118.3163477 136.8503658
  32.5290989 117.8866443 138.0103929  24.4634794 122.4407131 125.2918575
  23.7704039 122.5151486 124.6358611  24.2186546 121.6767475 125.8140092
  33.1348451 114.0002732 132.6958066  33.4150204 113.3325921 133.3218493
  33.9199058 114.1931828 132.1832730  30.9381919 133.1761726 124.2583092
  30.3655886 133.7951913 123.8053564  31.5114713 133.7261088 124.7923014
  37.0057309 122.4220366 136.4429641  37.9574732 122.5218464 136.4641865
  36.8360759 121.6298635 136.9527726  35.0271689 119.5075950 136.6289042
  34.4321621 119.7880962 135.9335531  34.7421385 119.9969850 137.4005783
  34.1579179 133.4598876 125.3891675  35.0909852 133.3944438 125.5924550
  34.0702392 134.2955143 124.9306207  36.7867196 132.7764747 122.3495622
  36.7080827 132.4424610 123.2431380  37.6076862 133.2686515 122.3487095
  39.4845387 125.6426486 135.5571941  39.4521707 124.7042487 135.7431625
  40.0946010 125.7210523 134.8237766  31.3228718 124.5122539 121.5999145
  32.2687822 124.3828747 121.6687563  30.9442963 123.7737201 122.0768573
  39.6339875 122.4337529 135.6030224  39.1178924 121.6495986 135.4160153
  40.5179824 122.1056246 135.7676744  37.2950602 116.1778545 131.5626037
  37.0975423 115.8693633 132.4469369  37.9050308 116.9040184 131.6923967
  45.3021937 126.7042493 134.6977978  46.0325325 126.4427781 135.2585681
  44.6928882 125.9671215 134.7380046  43.3837234 124.8450355 135.2952429
  42.6570397 124.7106320 134.6868920  42.9684521 125.1527184 136.1009147
  29.5071635 122.4372515 121.5354030  28.6003090 122.1405628 121.6116744
  29.7847616 122.1402333 120.6688316  20.4249575 123.7578879 131.9853077
  20.1052360 122.9044187 131.6927451  19.8783003 123.9727457 132.7411044
  24.2029483 126.4741320 135.7022583  24.4215493 127.4058428 135.7210617
  24.6155257 126.1149294 136.4877387  31.1233701 116.9809405 127.6898271
  30.3134429 116.6356490 128.0653518  31.8118118 116.6716949 128.2785883
  33.0524249 116.0587452 129.3122568  33.6055287 116.4782905 129.9712591
  33.2894335 115.1323200 129.3545524  28.2770419 119.2959451 121.6766009
  29.1389583 119.6214349 121.9361827  28.4620764 118.5090947 121.1639075
  36.4303056 118.1687977 128.8201232  35.8501725 118.8272781 128.4379285
  36.1638989 117.3465322 128.4088650  34.8806622 117.5693035 131.0222553
  35.3806401 117.6809569 130.2136872  35.5242230 117.2654088 131.6623361
  22.2074578 127.3100044 131.8312213  22.1845266 127.4087731 130.8794096
  22.5175214 128.1565195 132.1529379  35.2127934 120.3288067 127.8757581
  34.3253789 120.6137718 127.6577775  35.6281923 120.1681831 127.0284858
  38.5642470 120.3534588 131.5911920  39.3402860 120.8431041 131.8636537
  37.8390604 120.7792643 132.0483789  41.0015029 121.0662208 132.6485860
  41.5959520 120.8257944 131.9379169  41.0741612 120.3469338 133.2759397
  34.3571147 130.0932742 121.9705601  35.0606998 130.2982745 122.5863256
  33.6333796 130.6609504 122.2354684  35.1868958 125.8442603 128.0907871
  35.1304159 126.3011155 127.2515503  35.7397300 125.0833288 127.9130714
  38.9973764 121.6332335 128.9157990  38.7410698 121.2328971 129.7466198
  38.3726632 122.3476129 128.7908129  43.3086101 124.3728408 131.4229282
  42.7485659 124.4421598 132.1960844  42.7029605 124.1969393 130.7028778
  36.2657845 130.5315271 124.0204061  37.1003449 130.0996470 123.8381535
  36.1042188 130.3597285 124.9480955  35.9203737 127.0347385 125.3860400
  35.8652541 126.8691656 124.4448844  35.2949792 127.7423418 125.5422590
  29.2299862 116.5355494 124.9645718  29.2178532 117.4797334 125.1213989
  30.1223284 116.3525639 124.6705180  29.1589426 135.2124384 133.0513475
  28.2085057 135.2126246 132.9377847  29.4621913 134.4657119 132.5349510
  33.0451982 113.1298270 129.2191655  32.2784378 112.5756757 129.3648338
  33.4562687 113.2020139 130.0805807  44.8942120 141.0484922 134.1159237
  45.5320530 140.9291670 133.4122577  44.7762963 141.9965766 134.1747190
  41.7031826 141.0012351 134.0520762  41.3650338 140.8853415 133.1641297
  42.5721594 140.6003516 134.0321768  37.5618642 142.8547827 130.0417653
  36.9983507 142.7637764 129.2733941  37.4471037 142.0347731 130.5220146
  42.1851609 142.1547202 140.0106968  42.1740250 141.7600001 139.1387471
  42.3472249 141.4213275 140.6040739  35.1083074 144.3499019 132.8801874
  35.9004366 144.0089843 132.4648173  35.3479724 144.4593994 133.8004027
  43.1418201 146.5218795 125.3532118  42.4906180 147.1072875 124.9666132
  43.9362563 147.0524990 125.4127155  37.0673828 143.6107932 125.7519252
  37.8404704 143.0636919 125.6132128  37.4199227 144.4752181 125.9633714
  39.8315077 142.3161163 135.5487511  40.4278649 142.0917185 134.8344474
  39.8890049 141.5745908 136.1512959  39.4040106 139.7700598 123.3837702
  39.6565626 139.2482119 122.6221165  38.4664665 139.6066743 123.4864386
  44.4483388 138.7736376 131.1912445  45.2346478 138.3555799 130.8402862
  44.7122093 139.6782468 131.3594094  44.6193466 144.2109227 125.8901102
  43.9839299 144.2843853 126.6022007  44.2890872 144.8002825 125.2120182
  49.8491816 138.7111609 132.0945424  50.5816987 138.1410826 132.3283253
  49.0931171 138.3233210 132.5351930  39.1236394 141.6728704 125.5862077
  39.0072652 140.9973607 126.2543161  39.2338654 141.1861078 124.7694230
  41.4667935 141.1338851 129.2908766  41.1026143 140.6069472 130.0021688
  42.3235051 140.7437320 129.1175252  47.3717236 132.4233184 136.5540033
  47.0400561 133.2928595 136.3301248  46.7762849 132.1069468 137.2334063
  41.1073422 136.1628751 124.2870115  41.2747825 137.0308987 124.6540586
  40.9170591 136.3256032 123.3631404  43.8648755 144.6245730 135.9535945
  43.5649479 145.5270768 135.8451753  43.5199815 144.3577913 136.8057098
  37.3161237 141.0759526 131.9872650  36.3911733 140.9435741 132.1950341
  37.5645650 141.8553746 132.4842592  47.2645899 137.1428270 133.6333383
  46.3562777 137.0743678 133.3392144  47.2133495 137.6200215 134.4615208
  41.0862643 138.6186408 125.2716782  40.9662268 139.0643459 126.1102262
  40.3915232 138.9671726 124.7130320  34.6770048 140.7192800 132.8216439
  34.8062429 140.9727279 133.7355851  33.9967499 141.3120508 132.5021094
  41.3386765 138.5617915 141.5768280  40.5620099 139.1211835 141.5671145
  41.9777328 139.0474698 142.0983150  49.1307546 135.3444708 135.4111257
  48.4881926 135.6377241 134.7651051  48.6262474 135.2297629 136.2164453
  46.7847709 139.0907881 126.0997116  47.6965565 139.3235268 125.9244813
  46.2757356 139.6744926 125.5372194  45.0688477 143.5132509 139.7358408
  45.4771833 143.0714920 138.9913041  44.3465738 142.9385137 139.9892601
  41.4219547 138.4505116 137.1091965  42.2680742 138.8744530 137.2526614
  41.3618185 137.7938740 137.8030528  45.3917292 144.0733700 133.4910697
  44.7626154 144.2379414 132.7886765  45.0042954 144.4875309 134.2621661
  49.2706523 145.0088138 130.8455061  48.5857562 145.3887039 130.2952094
  49.3550373 145.6183464 131.5787009  44.5718992 136.1109484 138.7673139
  44.3279924 136.8651545 138.2307415  44.8478923 136.4894832 139.6020386
  46.5257455 142.6548097 137.4450405  46.7374350 143.2979857 136.7684786
  46.4787203 141.8210413 136.9772335  44.1283684 135.2665917 134.3486977
  43.2668163 135.5647171 134.6403714  44.1546119 135.4836316 133.4168009
  40.9445253 143.8108108 130.7560782  41.4083599 144.0895811 129.9665405
  40.6802052 142.9091552 130.5733873  37.8369335 143.3579589 133.6940546
  38.4070692 143.7866858 133.0558030  38.4277446 143.0762174 134.3924731
  39.8814140 139.9331260 127.5650347  40.5838183 140.3852304 128.0324274
  39.5494768 139.2915079 128.1930241  33.6239473 138.1914813 132.8667481
  32.8338527 138.4472341 132.3907592  34.1150721 139.0063151 132.9719522
  47.6403283 145.5320052 135.6172762  48.4620727 145.1300239 135.3355444
  47.6365686 145.4288286 136.5688878  35.5754219 138.5559392 129.8250958
  34.7785382 138.6678086 130.3434453  35.3479811 138.8946044 128.9591848
  41.4059886 145.0804095 137.7733472  41.4704319 145.5424503 138.6091644
  40.6970810 144.4501460 137.9015782  31.9077176 138.4445303 135.2982472
  32.1585215 139.3292313 135.5640048  32.4436725 138.2649905 134.5257564
  55.7309276 141.8758801 131.9657733  54.9772984 141.3066199 131.8101738
  55.8656817 141.8421465 132.9128368  41.1207904 146.7472203 127.6412453
  40.9853579 147.5923739 128.0697301  41.6617717 146.9491481 126.8778387
  34.5737302 144.2647641 128.2140378  35.0861822 145.0590891 128.3645942
  35.2260014 143.5673931 128.1473979  36.3832186 147.3813397 130.2963131
  36.5598815 148.3031362 130.1084115  37.1789020 147.0671816 130.7257511
  40.5243205 134.2421662 141.8947064  41.2652918 134.8428815 141.8151527
  40.7561128 133.4999300 141.3365107  44.8457619 147.6498569 139.7994196
  44.8276094 148.4707450 139.3074465  45.7677539 147.5252645 140.0244337
  44.4700368 130.2702765 136.1711346  44.1264637 131.1604406 136.0950457
  44.8379330 130.0804422 135.3080931  32.5386218 142.5936295 128.9899948
  33.3761440 143.0033304 128.7733656  32.7164486 141.6535737 128.9600142
  44.4350650 140.2611376 124.6783781  43.9197274 141.0315981 124.9172169
  44.1627959 139.5876512 125.3016843  42.0197761 135.1061077 129.7369020
  41.1639358 134.7167927 129.5574658  42.4324713 135.1853037 128.8768805
  43.5496908 132.6407420 134.1360579  43.0461704 132.6037555 133.3228385
  43.8427515 133.5500163 134.1957236  39.7939794 132.7246150 133.1426761
  40.6592791 132.5288958 132.7832651  39.8617303 132.4956501 134.0696118
  49.4084925 143.0143731 126.6136955  48.6314367 142.6754890 126.1692117
  50.0876406 143.0196354 125.9391920  44.2236954 138.1338468 126.5043562
  43.9187089 138.4484617 127.3553706  45.1767396 138.2119888 126.5470895
  42.6683385 144.2928691 128.1536516  42.1404747 143.5581451 127.8409754
  42.1670888 145.0703368 127.9076485  47.6476231 142.4877712 133.2703563
  46.9899906 143.1776973 133.3583691  48.4516631 142.8774144 133.6137549
  37.4002113 134.9548358 130.5143128  37.9745865 134.7323539 129.7816321
  37.9873096 135.0237052 131.2671729  46.4581690 140.8422084 131.3207504
  46.9713572 141.4752076 131.8229214  47.1082914 140.2423280 130.9550865
  37.7271700 136.9852819 124.5339013  36.8909012 137.3227505 124.8548288
  37.5876470 136.8501798 123.5966150  39.7024781 131.8289606 129.2418197
  39.0489193 131.5138624 128.6174812  39.6605255 131.2065347 129.9678020
  40.8135986 142.1108902 121.1571489  39.9063047 141.8798155 121.3562638
  41.3107018 141.3146521 121.3445471  42.9362521 138.3171540 133.5665845
  42.0185083 138.5386487 133.4087533  43.3522665 138.3917850 132.7077552
  43.7197569 139.7162956 128.6968525  44.4669388 140.2284353 128.3875647
  43.9889158 139.3947008 129.5572919  41.9924219 142.2121496 125.6795480
  41.0835438 141.9280529 125.7767949  42.0219303 142.6320575 124.8198786
  47.2243486 145.8228086 129.4486647  46.7705814 144.9818996 129.5051838
  46.5937453 146.4589484 129.7861427  46.1676406 136.7520072 130.6787315
  45.4299163 136.2397458 131.0097557  46.4203180 136.3120454 129.8670591
  45.6676426 147.6604583 130.3836465  45.9599400 148.2209640 129.6648831
  46.1775046 147.9533144 131.1389624  46.2688033 129.5296324 131.2729084
  46.5746910 128.6693687 130.9854999  46.9940638 130.1213944 131.0728078
  32.5612389 139.9327011 129.6610682  32.3636789 139.3396371 128.9361748
  32.0059053 139.6279221 130.3786621  40.5409113 139.8250117 131.7805275
  40.5957723 138.8723953 131.7047752  39.7300315 139.9809556 132.2646573
  41.6900307 143.7530240 123.0183558  41.2519737 143.0366099 122.5589195
  42.4310748 143.9806355 122.4568650  38.4801473 138.4427177 129.5395654
  37.6669339 138.7421347 129.9460846  38.9760467 138.0482866 130.2570136
  40.6310051 148.4384934 131.4729918  40.5886230 148.6645780 130.5438451
  41.5472750 148.2048308 131.6215720  44.0775685 138.9069001 138.3710548
  44.4325072 139.1340474 139.2305013  44.7247816 139.2387378 137.7487803
  49.8073422 142.0287437 129.0759877  49.6691320 142.2189033 128.1481066
  49.4509640 142.7906820 129.5327928  37.9715548 136.0145532 135.1556889
  38.6114927 135.8734291 134.4579852  37.1393078 135.7280046 134.7795491
  49.8342801 144.0963964 134.0871148  50.2679308 144.0039253 134.9354202
  50.5474382 144.0721465 133.4491164  38.7475852 145.3147963 131.2691881
  39.5416450 144.8198283 131.0674456  38.0367544 144.7865826 130.9059587
  43.5670696 147.6966058 135.6204249  43.6207718 148.2656995 136.3881965
  42.6985478 147.8667943 135.2558286  35.0558615 139.4591044 127.3451634
  34.1256203 139.3975500 127.5621596  35.1516087 138.9366997 126.5488275
  34.9744164 135.9845857 129.9329876  35.2350982 136.8991191 129.8239036
  35.7961337 135.5170300 130.0826488  36.4469090 137.3983614 137.1028700
  37.1192143 137.1900977 136.4541349  35.6198876 137.2005700 136.6633932
  50.6958351 144.1387665 136.6204034  50.8894241 145.0433475 136.8663309
  50.5958969 143.6795084 137.4542619  42.3494662 134.0245555 139.1194361
  41.7022577 134.7235505 139.0258837  43.1195677 134.4581699 139.4870609
  45.7573460 144.2894408 142.1944914  45.6058966 144.0604959 141.2774998
  45.7478139 145.2465009 142.2076259  42.5258796 141.8626320 137.1791181
  43.4550856 142.0137480 137.0060148  42.1049826 141.9510341 136.3239827
  41.3247128 145.8876985 134.9489718  41.1858213 145.5195769 135.8215656
  40.5361724 146.4024624 134.7773676  42.8752343 145.2658587 132.3378556
  42.5402175 145.2259357 133.2336206  42.3756289 144.6003303 131.8648966
  36.8496587 140.6726217 137.8631137  36.7116385 139.9406456 138.4642676
  37.7601510 140.5835118 137.5815325  45.8111534 142.6114622 122.6115616
  45.1940705 141.8861450 122.5148668  45.3428023 143.3723982 122.2682690
  39.4778887 140.3846177 137.3514817  40.1878506 139.7439369 137.3101435
  39.4348196 140.6359072 138.2740998  47.4665666 147.3213530 140.2721396
  47.4078212 146.6372750 139.6051979  47.8685185 148.0632520 139.8202022
  38.1907821 137.3711395 139.1710456  37.6545178 136.9202133 139.8232053
  37.6024530 137.5057303 138.4280921  37.6010080 136.8300046 121.7336920
  36.7239547 136.7088847 121.3699167  38.0767833 136.0386124 121.4815809
  47.4683073 145.2853114 138.5035376  46.5809852 144.9479036 138.6261775
  48.0381624 144.5536145 138.7404141  33.9246943 136.5067402 136.2563451
  33.8405131 135.8993072 135.5213861  33.1029649 136.9976421 136.2572947
  40.7874006 149.1826336 128.9799441  40.0041528 149.7248017 129.0737665
  41.4866752 149.7000316 129.3793682  44.0970657 134.9920966 131.6233646
  44.5939356 134.2390928 131.3034716  43.3257638 135.0285283 131.0576855
  51.9500414 140.6961331 133.2651937  51.9390290 141.5786047 132.8945871
  51.0817793 140.3432882 133.0706474  43.4582910 149.8441400 137.6254778
  44.1710883 150.4788865 137.5530679  42.9672939 149.9405266 136.8094779
  45.1800437 143.7492653 129.1972069  44.2456716 143.8694116 129.0276774
  45.3577106 142.8465120 128.9332079  40.6805625 137.1338349 131.3505331
  40.3103413 136.5809389 132.0386236  41.1764718 136.5296482 130.7980331
  48.5672989 139.5909972 129.7322103  49.0333441 140.4237964 129.6582406
  49.0180489 139.1254954 130.4367362  46.6349220 145.9353794 126.7308255
  46.9109064 145.8210388 127.6402130  45.7653718 145.5371279 126.6920429
  46.5389651 131.9590559 133.7713005  45.6252731 132.1894786 133.9395212
  46.9682753 132.0429003 134.6227037  46.3096110 140.1480451 136.2712899
  45.6567560 140.3956359 135.6165352  46.6876490 139.3344590 135.9375376
  43.2703284 150.1840145 130.3741069  43.4525678 149.3661800 130.8368821
  44.0936270 150.4007837 129.9365959  43.6045449 149.1108330 127.6356118
  44.1333216 148.6000784 127.0226280  43.8673669 148.7950860 128.5001651
  36.0770959 134.5442340 137.5958437  36.1412285 135.4057171 137.1835834
  36.0138079 133.9316341 136.8630795  32.3288774 138.4241901 127.1749826
  32.6242215 137.5152580 127.1216879  31.4276810 138.4029641 126.8530828
  44.2374853 150.1449165 133.9800234  44.1125992 149.3438905 133.4711180
  44.8953944 150.6395359 133.4914204  35.8583021 136.4997898 133.1577374
  35.1369607 137.1133866 133.0184848  36.6476277 137.0355663 133.0794020
  46.3009761 147.9458185 135.6079784  45.3540097 147.8263537 135.5358111
  46.6492535 147.0580683 135.6906046  38.6609335 133.8352324 139.4318026
  39.1843737 134.0814621 140.1944335  38.4421668 134.6672359 139.0121163
  34.0576616 136.1055999 127.2989151  33.7289322 135.2253378 127.1164257
  34.4115987 136.0503668 128.1865540  43.3056195 147.7410902 131.8084136
  43.1581157 146.8127609 131.9891706  44.1309688 147.7630992 131.3241212
  37.1718439 136.3928969 127.6664629  37.5114511 136.9214890 126.9443237
  37.6190559 136.7309375 128.4423195  46.9090317 148.5639460 132.8949009
  47.8336864 148.3582322 132.7573460  46.7405620 148.3155862 133.8038351
  39.8661880 134.7766019 137.1167697  39.5258700 133.9773833 137.5188376
  39.1600886 135.0767730 136.5444530  40.5178352 131.8615332 135.5695020
  41.3404421 131.3875810 135.4473910  40.7616415 132.6405816 136.0693706
  39.1586586 134.8903590 125.8657921  39.8794949 135.2684843 125.3621638
  38.5351890 135.6092467 125.9692899  43.3017709 135.5948739 126.8016254
  43.5181323 136.4773377 126.5005082  42.8211776 135.2034953 126.0721896
  38.0416930 138.5534453 133.3786998  37.8961511 138.8674756 134.2711280
  37.5642134 139.1719353 132.8257897  39.9013313 135.5437001 133.4267888
  39.8874882 134.6478094 133.0900186  40.6185741 135.5507664 134.0606174
  41.7539444 135.9774341 135.4721015  41.4957222 136.8991411 135.4705346
  41.2224484 135.5804775 136.1621479  46.6985633 149.0825128 128.2511101
  46.8722510 148.5171550 127.4984953  47.1914524 149.8826023 128.0690591
  39.3050209 134.4251381 128.6955458  39.4266120 133.4968027 128.8946345
  39.0152252 134.4390067 127.7833773  42.1741400 132.1106291 131.8322178
  42.1963096 132.1745624 130.8774157  42.5909459 131.2710800 132.0262684
  52.5525024 141.8461551 129.8701400  52.9956170 141.0968876 129.4720524
  51.6751534 141.8371687 129.4875132  47.6860805 148.3991892 125.3507999
  48.3811710 149.0198585 125.5695313  48.0283955 147.5487243 125.6260377
  49.5852228 145.8491598 126.8795330  50.1103552 146.1878871 126.1544650
  49.4974581 144.9138613 126.6958464  38.7166761 147.4601590 133.3112884
  38.0946771 146.7972295 133.0115112  39.3871628 147.4862722 132.6286532
  38.7891289 135.9383378 142.9045391  38.8379444 136.8145501 142.5223160
  39.3313803 135.3960771 142.3317034  49.2746134 146.4824501 142.1846528
  48.4841678 146.4648640 141.6451027  49.0379489 147.0212795 142.9395564
  49.3944009 143.3316968 139.4979256  49.4442014 143.1666975 140.4394779
  49.2857933 142.4644227 139.1077137  38.2780268 146.0105513 126.7871345
  38.4268389 146.6940978 126.1338018  39.0846712 145.9910604 127.3020801
  46.6847772 139.3147896 140.8138563  47.5857635 139.1754361 140.5222561
  46.7595746 139.4802351 141.7536740  41.0190577 136.6914751 139.6591749
  40.1493887 136.9848317 139.3874338  41.2550058 137.2755196 140.3799013
  50.8962206 145.7513909 139.7421278  50.6047015 146.1143890 140.5784739
  50.2834338 145.0380918 139.5634610  52.0957889 143.3166789 132.2623848
  52.9304780 143.7556593 132.4261408  52.2317017 142.8405442 131.4432094
  49.1449395 140.8746524 138.2101336  49.6203516 141.0674170 137.4020187
  48.2214960 140.9305710 137.9644719  36.0332901 142.0370691 127.7932414
  35.7878943 141.1333021 127.9912624  36.2028816 142.0387842 126.8511892
  43.7229611 132.9094367 137.1757170  44.2411555 133.6455394 136.8503658
  43.3684744 133.2158361 138.0103929  35.3028549 137.7699049 125.2918575
  34.6097794 137.8443404 124.6358611  35.0580301 137.0059392 125.8140092
  43.9742205 129.3294650 132.6958066  44.2543959 128.6617839 133.3218493
  44.7592812 129.5223746 132.1832730  41.7775674 148.5053644 124.2583092
  41.2049641 149.1243831 123.8053564  42.3508467 149.0553006 124.7923014
  47.8451064 137.7512284 136.4429641  48.7968486 137.8510382 136.4641865
  47.6754514 136.9590553 136.9527726  45.8665443 134.8367867 136.6289042
  45.2715375 135.1172880 135.9335531  45.5815140 135.3261768 137.4005783
  44.9972933 148.7890794 125.3891675  45.9303607 148.7236356 125.5924550
  44.9096146 149.6247061 124.9306207  47.6260950 148.1056664 122.3495622
  47.5474582 147.7716528 123.2431380  48.4470617 148.5978432 122.3487095
  50.3239141 140.9718404 135.5571941  50.2915461 140.0334404 135.7431625
  50.9339765 141.0502440 134.8237766  42.1622472 139.8414457 121.5999145
  43.1081577 139.7120665 121.6687563  41.7836717 139.1029119 122.0768573
  50.4733630 137.7629447 135.6030224  49.9572678 136.9787904 135.4160153
  51.3573578 137.4348164 135.7676744  48.1344357 131.5070463 131.5626037
  47.9369178 131.1985551 132.4469369  48.7444062 132.2332102 131.6923967
  56.1415691 142.0334411 134.6977978  56.8719080 141.7719699 135.2585681
  55.5322637 141.2963132 134.7380046  54.2230988 140.1742273 135.2952429
  53.4964152 140.0398238 134.6868920  53.8078275 140.4819102 136.1009147
  40.3465389 137.7664433 121.5354030  39.4396845 137.4697546 121.6116744
  40.6241370 137.4694251 120.6688316  31.2643330 139.0870796 131.9853077
  30.9446114 138.2336105 131.6927451  30.7176758 139.3019375 132.7411044
  35.0423237 141.8033237 135.7022583  35.2609247 142.7350345 135.7210617
  35.4549011 141.4441212 136.4877387  41.9627455 132.3101323 127.6898271
  41.1528183 131.9648408 128.0653518  42.6511872 132.0008867 128.2785883
  43.8918003 131.3879370 129.3122568  44.4449042 131.8074823 129.9712591
  44.1288090 130.4615118 129.3545524  39.1164174 134.6251368 121.6766009
  39.9783338 134.9506267 121.9361827  39.3014518 133.8382864 121.1639075
  47.2696810 133.4979895 128.8201232  46.6895479 134.1564699 128.4379285
  47.0032743 132.6757239 128.4088650  45.7200377 132.8984952 131.0222553
  46.2200155 133.0101487 130.2136872  46.3635985 132.5946005 131.6623361
  33.0468332 142.6391962 131.8312213  33.0239020 142.7379649 130.8794096
  33.3568969 143.4857113 132.1529379  46.0521688 135.6579985 127.8757581
  45.1647543 135.9429636 127.6577775  46.4675678 135.4973749 127.0284858
  49.4036225 135.6826506 131.5911920  50.1796615 136.1722959 131.8636537
  48.6784359 136.1084560 132.0483789  51.8408783 136.3954125 132.6485860
  52.4353274 136.1549861 131.9379169  51.9135367 135.6761256 133.2759397
  45.1964902 145.4224660 121.9705601  45.9000752 145.6274662 122.5863256
  44.4727551 145.9901422 122.2354684  46.0262712 141.1734521 128.0907871
  45.9697914 141.6303072 127.2515503  46.5791055 140.4125206 127.9130714
  49.8367518 136.9624253 128.9157990  49.5804452 136.5620889 129.7466198
  49.2120386 137.6768047 128.7908129  54.1479856 139.7020326 131.4229282
  53.5879414 139.7713515 132.1960844  53.5423359 139.5261311 130.7028778
  47.1051599 145.8607189 124.0204061  47.9397203 145.4288387 123.8381535
  46.9435942 145.6889203 124.9480955  46.7597492 142.3639302 125.3860400
  46.7046295 142.1983574 124.4448844  46.1343547 143.0715335 125.5422590
  40.0693617 131.8647411 124.9645718  40.0572287 132.8089251 125.1213989
  40.9617039 131.6817557 124.6705180  43.8845736 128.4590188 129.2191655
  43.1178132 127.9048675 129.3648338  44.2956441 128.5312057 130.0805807
  55.2877143 154.1028294 131.1912445  56.0740232 153.6847717 130.8402862
  55.5515847 155.0074386 131.3594094  60.6885570 154.0403527 132.0945424
  61.4210742 153.4702744 132.3283253  59.9324926 153.6525128 132.5351930
  58.2110990 147.7525101 136.5540033  57.8794315 148.6220512 136.3301248
  57.6156604 147.4361385 137.2334063  51.9467177 151.4920668 124.2870115
  52.1141579 152.3600905 124.6540586  51.7564346 151.6547950 123.3631404
  58.1039654 152.4720187 133.6333383  57.1956531 152.4035596 133.3392144
  58.0527250 152.9492132 134.4615208  59.9701300 150.6736626 135.4111257
  59.3275680 150.9669159 134.7651051  59.4656229 150.5589546 136.2164453
  57.6241464 154.4199799 126.0997116  58.5359320 154.6527186 125.9244813
  57.1151111 155.0036843 125.5372194  52.2613301 153.7797034 137.1091965
  53.1074497 154.2036447 137.2526614  52.2011939 153.1230658 137.8030528
  55.4112747 151.4401402 138.7673139  55.1673679 152.1943463 138.2307415
  55.6872677 151.8186750 139.6020386  54.9677439 150.5957835 134.3486977
  54.1061918 150.8939089 134.6403714  54.9939873 150.8128234 133.4168009
  66.5703031 157.2050718 131.9657733  65.8166739 156.6358116 131.8101738
  66.7050572 157.1713383 132.9128368  51.3636959 149.5713580 141.8947064
  52.1046673 150.1720733 141.8151527  51.5954882 148.8291217 141.3365107
  55.3094122 145.5994682 136.1711346  54.9658392 146.4896324 136.0950457
  55.6773085 145.4096340 135.3080931  52.8591516 150.4352994 129.7369020
  52.0033112 150.0459845 129.5574658  53.2718468 150.5144955 128.8768805
  54.3890663 147.9699338 134.1360579  53.8855458 147.9329473 133.3228385
  54.6821269 148.8792080 134.1957236  50.6333548 148.0538067 133.1426761
  51.4986545 147.8580876 132.7832651  50.7011057 147.8248419 134.0696118
  55.0630708 153.4630386 126.5043562  54.7580844 153.7776535 127.3553706
  56.0161150 153.5411806 126.5470895  48.2395868 150.2840275 130.5143128
  48.8139619 150.0615457 129.7816321  48.8266850 150.3528970 131.2671729
  48.5665455 152.3144736 124.5339013  47.7302767 152.6519423 124.8548288
  48.4270224 152.1793716 123.5966150  50.5418535 147.1581524 129.2418197
  49.8882948 146.8430541 128.6174812  50.4999009 146.5357265 129.9678020
  53.7756276 153.6463458 133.5665845  52.8578837 153.8678405 133.4087533
  54.1916419 153.7209768 132.7077552  57.0070161 152.0811990 130.6787315
  56.2692917 151.5689376 131.0097557  57.2596934 151.6412371 129.8670591
  57.1081788 144.8588242 131.2729084  57.4140665 143.9985605 130.9854999
  57.8334393 145.4505862 131.0728078  54.9169439 154.2360919 138.3710548
  55.2718827 154.4632392 139.2305013  55.5641570 154.5679296 137.7487803
  48.8109302 151.3437450 135.1556889  49.4508682 151.2026209 134.4579852
  47.9786833 151.0571963 134.7795491  53.1888416 149.3537473 139.1194361
  52.5416331 150.0527423 139.0258837  53.9589431 149.7873617 139.4870609
  49.0301576 152.7003312 139.1710456  48.4938933 152.2494051 139.8232053
  48.4418284 152.8349221 138.4280921  48.4403835 152.1591964 121.7336920
  47.5633301 152.0380765 121.3699167  48.9161588 151.3678042 121.4815809
  54.9364411 150.3212884 131.6233646  55.4333111 149.5682846 131.3034716
  54.1651393 150.3577200 131.0576855  62.7894168 156.0253249 133.2651937
  62.7784045 156.9077965 132.8945871  61.9211548 155.6724800 133.0706474
  51.5199380 152.4630267 131.3505331  51.1497167 151.9101307 132.0386236
  52.0158472 151.8588400 130.7980331  59.4066743 154.9201890 129.7322103
  59.8727195 155.7529882 129.6582406  59.8574244 154.4546872 130.4367362
  57.3783406 147.2882477 133.7713005  56.4646486 147.5186704 133.9395212
  57.8076507 147.3720921 134.6227037  57.1489864 155.4772369 136.2712899
  56.4961315 155.7248276 135.6165352  57.5270244 154.6636507 135.9375376
  46.9164713 149.8734257 137.5958437  46.9806040 150.7349088 137.1835834
  46.8531834 149.2608259 136.8630795  49.5003089 149.1644242 139.4318026
  50.0237491 149.4106539 140.1944335  49.2815423 149.9964277 139.0121163
  44.8970370 151.4347917 127.2989151  44.5683076 150.5545296 127.1164257
  45.2509741 151.3795585 128.1865540  48.0112193 151.7220886 127.6664629
  48.3508266 152.2506808 126.9443237  48.4584314 152.0601293 128.4423195
  50.7055634 150.1057937 137.1167697  50.3652455 149.3065750 137.5188376
  49.9994641 150.4059648 136.5444530  51.3572106 147.1907250 135.5695020
  52.1798175 146.7167728 135.4473910  51.6010170 147.9697733 136.0693706
  49.9980341 150.2195508 125.8657921  50.7188703 150.5976761 125.3621638
  49.3745645 150.9384385 125.9692899  54.1411463 150.9240657 126.8016254
  54.3575078 151.8065295 126.5005082  53.6605531 150.5326870 126.0721896
  50.7407068 150.8728918 133.4267888  50.7268637 149.9770011 133.0900186
  51.4579496 150.8799582 134.0606174  52.5933198 151.3066258 135.4721015
  52.3350976 152.2283329 135.4705346  52.0618239 150.9096693 136.1621479
  50.1443964 149.7543298 128.6955458  50.2659875 148.8259945 128.8946345
  49.8546006 149.7681984 127.7833773  53.0135154 147.4398209 131.8322178
  53.0356851 147.5037542 130.8774157  53.4303213 146.6002718 132.0262684
  63.3918778 157.1753468 129.8701400  63.8349924 156.4260794 129.4720524
  62.5145289 157.1663605 129.4875132  49.6285043 151.2675296 142.9045391
  49.6773199 152.1437419 142.5223160  50.1707557 150.7252689 142.3317034
  57.5241526 154.6439813 140.8138563  58.4251389 154.5046278 140.5222561
  57.5989501 154.8094268 141.7536740  51.8584332 152.0206668 139.6591749
  50.9887641 152.3140234 139.3874338  52.0943812 152.6047113 140.3799013
  59.9843149 156.2038442 138.2101336  60.4597271 156.3966088 137.4020187
  59.0608714 156.2597627 137.9644719  54.5623366 148.2386285 137.1757170
  55.0805309 148.9747312 136.8503658  54.2078498 148.5450278 138.0103929
  54.8135960 144.6586568 132.6958066  55.0937713 143.9909757 133.3218493
  55.5986567 144.8515663 132.1832730  58.6844818 153.0804202 136.4429641
  59.6362241 153.1802299 136.4641865  58.5148268 152.2882470 136.9527726
  56.7059197 150.1659785 136.6289042  56.1109130 150.4464798 135.9335531
  56.4208894 150.6553686 137.4005783  61.1632896 156.3010321 135.5571941
  61.1309216 155.3626322 135.7431625  61.7733519 156.3794358 134.8237766
  61.3127384 153.0921365 135.6030224  60.7966433 152.3079821 135.4160153
  62.1967333 152.7640081 135.7676744  58.9738111 146.8362380 131.5626037
  58.7762932 146.5277469 132.4469369  59.5837817 147.5624019 131.6923967
  66.9809446 157.3626328 134.6977978  67.7112834 157.1011616 135.2585681
  66.3716391 156.6255050 134.7380046  65.0624743 155.5034191 135.2952429
  64.3357906 155.3690156 134.6868920  64.6472030 155.8111019 136.1009147
  51.1859144 153.0956351 121.5354030  50.2790599 152.7989463 121.6116744
  51.4635125 152.7986169 120.6688316  52.8021210 147.6393240 127.6898271
  51.9921938 147.2940325 128.0653518  53.4905626 147.3300784 128.2785883
  54.7311758 146.7171287 129.3122568  55.2842796 147.1366741 129.9712591
  54.9681844 145.7907035 129.3545524  49.9557928 149.9543286 121.6766009
  50.8177092 150.2798184 121.9361827  50.1408273 149.1674782 121.1639075
  58.1090565 148.8271812 128.8201232  57.5289234 149.4856616 128.4379285
  57.8426498 148.0049157 128.4088650  56.5594131 148.2276870 131.0222553
  57.0593910 148.3393405 130.2136872  57.2029739 147.9237923 131.6623361
  56.8915443 150.9871903 127.8757581  56.0041298 151.2721553 127.6577775
  57.3069432 150.8265666 127.0284858  60.2429979 151.0118424 131.5911920
  61.0190369 151.5014876 131.8636537  59.5178113 151.4376478 132.0483789
  62.6802538 151.7246043 132.6485860  63.2747029 151.4841779 131.9379169
  62.7529121 151.0053174 133.2759397  60.6761273 152.2916171 128.9157990
  60.4198207 151.8912806 129.7466198  60.0514141 153.0059965 128.7908129
  64.9873610 155.0312244 131.4229282  64.4273168 155.1005433 132.1960844
  64.3817114 154.8553228 130.7028778  50.9087371 147.1939329 124.9645718
  50.8966041 148.1381169 125.1213989  51.8010793 147.0109474 124.6705180
  54.7239491 143.7882106 129.2191655  53.9571887 143.2340592 129.3648338
  55.1350196 143.8603974 130.0805807   1.5340505  42.2361335 118.6903040
   0.7804213  41.6668733 118.5347044   1.6688046  42.2023999 119.6373675
   1.9446920  42.3936945 121.4223284   2.6750308  42.1322233 121.9830988
   1.3353865  41.6565667 121.4625352   1.5367103  56.7379374 120.8404544
   2.1745513  56.6186122 120.1367884   1.4187946  57.6860218 120.8992496
   1.0908372  54.4630828 117.9157752   1.8771461  54.0450251 117.5648169
   1.3547076  55.3676920 118.0839400   1.2618449  59.9003678 112.6146409
   0.6264282  59.9738305 113.3267314   0.9315855  60.4897277 111.9365488
   6.4916799  54.4006061 118.8190731   7.2241971  53.8305278 119.0528560
   5.7356155  54.0127662 119.2597236   4.0142219  48.1127635 123.2785339
   3.6825544  48.9823046 123.0546554   3.4187833  47.7963919 123.9579370
   3.9070883  52.8322722 120.3578689   2.9987760  52.7638130 120.0637450
   3.8558478  53.3094667 121.1860515   5.7732529  51.0339160 122.1356563
   5.1306909  51.3271693 121.4896358   5.2687457  50.9192080 122.9409760
   3.4272693  54.7802333 112.8242422   4.3390549  55.0129720 112.6490120
   2.9182340  55.3639377 112.2617501   1.7113460  59.2026961 126.4603715
   2.1196816  58.7609372 125.7158347   0.9890722  58.6279589 126.7137908
   2.0342275  59.7628152 120.2156004   1.4051137  59.9273866 119.5132072
   1.6467937  60.1769761 120.9866968   5.9131507  60.6982590 117.5700368
   5.2282545  61.0781491 117.0197401   5.9975356  61.3077916 118.3032315
   1.2143976  51.8003936 125.4918446   0.9704908  52.5545997 124.9552721
   1.4903906  52.1789284 126.3265693   3.1682438  58.3442549 124.1695711
   3.3799334  58.9874308 123.4930092   3.1212187  57.5104865 123.7017641
   4.2828266  61.2214504 122.3418069   5.1045710  60.8194691 122.0600750
   4.2790669  61.1182738 123.2934184  12.3734259  57.5653252 118.6903040
  11.6197968  56.9960651 118.5347044  12.5081801  57.5315917 119.6373675
   1.4882602  63.3393021 126.5239503   1.4701077  64.1601902 126.0319772
   2.4102522  63.2147096 126.7489644   1.1125351  45.9597217 122.8956653
   0.7689620  46.8498858 122.8195763   1.4804314  45.7698874 122.0326238
   1.0775634  55.9505828 111.4029088   0.5622257  56.7210432 111.6417475
   0.8052942  55.2770964 112.0262149   6.0509908  58.7038182 113.3382261
   5.2739351  58.3649342 112.8937423   6.7301389  58.7090806 112.6637226
   0.8661937  53.8232920 113.2288869   0.5612072  54.1379069 114.0799012
   1.8192379  53.9014340 113.2716202   4.2901215  58.1772164 119.9948869
   3.6324889  58.8671425 120.0828998   5.0941614  58.5668596 120.3382856
   3.1006674  56.5316536 118.0452811   3.6138555  57.1646528 118.5474521
   3.7507897  55.9317732 117.6796171   3.8668470  61.5122538 116.1731954
   3.4130797  60.6713448 116.2297144   3.2362436  62.1483936 116.5106734
   2.8101389  52.4414524 117.4032621   2.0724146  51.9291910 117.7342864
   3.0628163  52.0014905 116.5915898   2.3101409  63.3499035 117.1081772
   2.6024383  63.9104092 116.3894138   2.8200030  63.6427596 117.8634931
   2.9113017  45.2190776 117.9974390   3.2171893  44.3588139 117.7100306
   3.6365621  45.8108396 117.7973384   0.7200668  54.5963453 125.0955854
   1.0750056  54.8234926 125.9550320   1.3672799  54.9281830 124.4733110
   6.4498405  57.7181889 115.8005183   6.3116304  57.9083485 114.8726373
   6.0934624  58.4801272 116.2573234   6.4767785  59.7858416 120.8116455
   6.9104291  59.6933705 121.6599509   7.1899365  59.7615916 120.1736471
   7.3383334  59.8282117 123.3449340   7.5319224  60.7327927 123.5908615
   7.2383952  59.3689536 124.1787925   2.3998443  59.9788859 128.9190221
   2.2483949  59.7499411 128.0020305   2.3903122  60.9359461 128.9321566
   2.4536518  58.3009074 109.3360922   1.8365688  57.5755902 109.2393975
   1.9853006  59.0618434 108.9927997   4.1090649  63.0107982 126.9966703
   4.0503196  62.3267202 126.3297286   4.5110168  63.7526972 126.5447329
   4.1108057  60.9747566 125.2280682   3.2234835  60.6373488 125.3507081
   4.6806608  60.2430597 125.4649448   8.5925397  56.3855783 119.9897244
   8.5815273  57.2680499 119.6191177   7.7242777  56.0327334 119.7951781
   1.8225421  59.4387105 115.9217376   0.8881699  59.5588567 115.7522080
   2.0002089  58.5359572 115.6577386   5.2097972  55.2804424 116.4567410
   5.6758424  56.1132416 116.3827713   5.6605472  54.8149406 117.1612669
   3.2774203  61.6248246 113.4553562   3.5534047  61.5104840 114.3647436
   2.4078702  61.2265730 113.4165735   3.1814635  47.6485011 120.4958311
   2.2677714  47.8789238 120.6640518   3.6107736  47.7323455 121.3472344
   2.9521093  55.8374903 122.9958205   2.2992543  56.0850811 122.3410658
   3.3301473  55.0239041 122.6620683   2.5942323  62.7122899 129.5730513
   3.1382227  63.3252858 129.0785468   2.0129168  63.2702478 130.0897526
   0.8799836  65.8343617 120.7045541   0.7550976  65.0333357 120.1956486
   1.5378927  66.3289811 120.2159511   2.9434745  63.6352637 122.3325091
   1.9965080  63.5157989 122.2603418   3.2917518  62.7475135 122.4151352
   3.5515300  64.2533912 119.6194316   4.4761847  64.0476774 119.4818767
   3.3830603  64.0050313 120.5283657   3.3410616  64.7719580 114.9756407
   3.5147494  64.2066002 114.2230260   3.8339507  65.5720475 114.7935897
   9.1950007  57.5356003 116.5946707   9.6381153  56.7863328 116.1965830
   8.3176518  57.5266139 116.2120439   4.3285789  64.0886344 112.0753305
   5.0236693  64.7093037 112.2940620   4.6708939  63.2381695 112.3505683
   6.2277212  61.5386050 113.6040636   6.7528536  61.8773322 112.8789956
   6.1399564  60.6033065 113.4203771   5.9171118  62.1718953 128.9091834
   5.1266661  62.1543092 128.3696334   5.6804472  62.7107247 129.6640871
   6.0368993  59.0211420 126.2224563   6.0866998  58.8561427 127.1640086
   5.9282916  58.1538679 125.8322444   3.3272755  55.0042348 127.5383869
   4.2282618  54.8648813 127.2467867   3.4020730  55.1696803 128.4782047
   7.5387190  61.4408361 126.4666584   7.2471998  61.8038342 127.3030045
   6.9259321  60.7275369 126.2879916   8.7382872  59.0061241 118.9869155
   9.5729763  59.4451045 119.1506715   8.8742001  58.5299894 118.1677400
   5.7874378  56.5640976 124.9346642   6.2628499  56.7568622 124.1265494
   4.8639943  56.6200162 124.6890026   0.6167188  45.0189102 119.4203373
   0.8968942  44.3512291 120.0463799   1.4017795  45.2118198 118.9078037
   4.4876047  53.4406736 123.1674948   5.4393470  53.5404834 123.1887172
   4.3179497  52.6485004 123.6773032   2.5090426  50.5262319 123.3534349
   1.9140358  50.8067332 122.6580837   2.2240123  51.0156220 124.1251090
   1.6397917  64.4785246 112.1136981   2.5728590  64.4130808 112.3169857
   1.5521130  65.3141513 111.6551514   4.2685933  63.7951116 109.0740929
   4.1899565  63.4610980 109.9676687   5.0895600  64.2872884 109.0732401
   6.9664125  56.6612856 122.2817248   6.9340445  55.7228856 122.4676931
   7.5764748  56.7396892 121.5483072   7.1158613  53.4523899 122.3275531
   6.5997662  52.6682356 122.1405460   7.9998562  53.1242616 122.4922050
   4.7769340  47.1964915 118.2871343   4.5794161  46.8880003 119.1714675
   5.3869046  47.9226554 118.4169273  12.7840674  57.7228862 121.4223284
  13.5144063  57.4614151 121.9830988  12.1747620  56.9857584 121.4625352
  10.8655972  55.8636725 122.0197736  10.1389135  55.7292690 121.4114227
  10.4503258  56.1713554 122.8254454   0.5342987  47.0773821 116.0367875
   1.0874025  47.4969275 116.6957898   0.7713073  46.1509570 116.0790831
   3.9121794  49.1874347 115.5446539   3.3320463  49.8459151 115.1624591
   3.6457726  48.3651691 115.1333956   2.3625360  48.5879404 117.7467859
   2.8625138  48.6995939 116.9382178   3.0060968  48.2840457 118.3868668
   2.6946672  51.3474437 114.6002887   1.8072527  51.6324088 114.3823082
   3.1100661  51.1868200 113.7530164   6.0461208  51.3720958 118.3157226
   6.8221598  51.8617410 118.5881843   5.3209342  51.7979012 118.7729096
   8.4833767  52.0848577 119.3731167   9.0778257  51.8444313 118.6624475
   8.5560350  51.3655708 120.0004703   1.8389885  61.1119112 108.6950907
   2.5425735  61.3169114 109.3108563   1.1152534  61.6795874 108.9599991
   2.6687695  56.8628973 114.8153177   2.6122897  57.3197524 113.9760810
   3.2216038  56.1019658 114.6376020   6.4792501  52.6518705 115.6403297
   6.2229436  52.2515340 116.4711505   5.8545369  53.3662499 115.5153436
  10.7904839  55.3914778 118.1474588  10.2304397  55.4607967 118.9206150
  10.1848343  55.2155763 117.4274085   3.7476583  61.5501641 110.7449367
   4.5822187  61.1182839 110.5626842   3.5860926  61.3783655 111.6726262
   3.4022475  58.0533754 112.1105707   3.3471279  57.8878026 111.1694151
   2.7768530  58.7609787 112.2667896  12.3760858  72.0671292 120.8404544
  13.0139268  71.9478039 120.1367884  12.2581701  73.0152136 120.8992496
   9.1850564  72.0198720 120.7766069   8.8469076  71.9039785 119.8886604
  10.0540332  71.6189885 120.7567075   5.0437380  73.8734197 116.7662960
   4.4802245  73.7824133 115.9979247   4.9289775  73.0534101 117.2465452
   9.6670347  73.1733572 126.7352274   9.6558988  72.7786370 125.8632778
   9.8290986  72.4399644 127.3286046   2.5901812  75.3685388 119.6047180
   3.3823104  75.0276213 119.1893479   2.8298462  75.4780363 120.5249333
  10.6236938  77.5405164 112.0777425   9.9724918  78.1259245 111.6911438
  11.4181301  78.0711359 112.1372462   4.5492566  74.6294301 112.4764559
   5.3223442  74.0823288 112.3377435   4.9017964  75.4938551 112.6879020
   6.3877608  75.9570684 125.6831458   6.0967474  76.8616314 125.5678125
   7.0234592  75.9987211 126.3975528   7.3133815  73.3347532 122.2732818
   7.9097387  73.1103555 121.5589781   7.3708787  72.5932278 122.8758266
   6.8858843  70.7886967 110.1083009   7.1384364  70.2668489 109.3466472
   5.9483402  70.6253113 110.2109692  11.9302126  69.7922746 117.9157752
  12.7165215  69.3742169 117.5648169  12.1940831  70.6968838 118.0839400
  12.1012204  75.2295596 112.6146409  11.4658037  75.3030223 113.3267314
  11.7709610  75.8189195 111.9365488  17.3310553  69.7297979 118.8190731
  18.0635725  69.1597196 119.0528560  16.5749909  69.3419580 119.2597236
   6.6055132  72.6915073 112.3107384   6.4891390  72.0159977 112.9788468
   6.7157392  72.2047447 111.4939537   8.9486673  72.1525221 116.0154073
   8.5844880  71.6255842 116.7266995   9.8053789  71.7623690 115.8420558
  14.8535974  63.4419553 123.2785339  14.5219298  64.3114964 123.0546554
  14.2581587  63.1255837 123.9579370   8.5892160  67.1815120 111.0115422
   8.7566562  68.0495357 111.3785893   8.3989329  67.3442402 110.0876711
  11.3467493  75.6432099 122.6781252  11.0468216  76.5457138 122.5697059
  11.0018553  75.3764282 123.5302405   4.7979975  72.0945896 118.7117956
   3.8730471  71.9622110 118.9195648   5.0464388  72.8740115 119.2087899
  14.7464637  68.1614639 120.3578689  13.8381514  68.0930048 120.0637450
  14.6952233  68.6386584 121.1860515   8.5681381  69.6372778 111.9962088
   8.4481006  70.0829829 112.8347569   7.8733969  69.9858095 111.4375627
   2.1588786  71.7379170 119.5461745   2.2881167  71.9913648 120.4601157
   1.4786237  72.3306878 119.2266400   6.3288273  82.4076420 115.6452220
   6.2512303  83.3584245 115.7240700   5.7249917  82.0622292 116.3027146
   8.8205503  69.5804285 128.3013587   8.0438837  70.1398205 128.2916451
   9.4596066  70.0661068 128.8228457  16.6126283  66.3631078 122.1356563
  15.9700664  66.6563611 121.4896358  16.1081212  66.2483998 122.9409760
  14.2666447  70.1094251 112.8242422  15.1784303  70.3421638 112.6490120
  13.7576094  70.6931295 112.2617501   7.0751875  72.3889738 127.8631554
   7.8166559  72.9274782 127.5866377   6.3688861  73.0156027 128.0203105
  12.5507215  74.5318879 126.4603715  12.9590571  74.0901289 125.7158347
  11.8284476  73.9571506 126.7137908   8.9038285  69.4691486 123.8337272
   9.7499480  69.8930899 123.9771921   8.8436922  68.8125110 124.5275835
  12.8736029  75.0920069 120.2156004  12.2444892  75.2565784 119.5132072
  12.4861691  75.5061679 120.9866968  16.7525261  76.0274507 117.5700368
  16.0676299  76.4073409 117.0197401  16.8369111  76.6369834 118.3032315
  12.0537730  67.1295854 125.4918446  11.8098662  67.8837914 124.9552721
  12.3297661  67.5081201 126.3265693  14.0076193  73.6734466 124.1695711
  14.2193088  74.3166226 123.4930092  13.9605941  72.8396783 123.7017641
  11.6102422  66.2852287 121.0732283  10.7486901  66.5833540 121.3649021
  11.6364856  66.5022686 120.1413316   8.4263991  74.8294477 117.4806089
   8.8902337  75.1082180 116.6910711   8.1620789  73.9277922 117.2979180
   5.3188072  74.3765959 120.4185852   5.8889429  74.8053227 119.7803337
   5.9096184  74.0948544 121.1170038   7.3632877  70.9517630 114.2895654
   8.0656921  71.4038674 114.7569580   7.0313506  70.3101449 114.9175547
   5.8113239  69.5429386 128.6646864   5.1811899  70.2245667 128.8982260
   5.7049327  69.4312468 127.7200002  15.1222021  76.5506422 122.3418069
  15.9439465  76.1486609 122.0600750  15.1184424  76.4474656 123.2934184
   3.0572957  69.5745762 116.5496264   2.2604120  69.6864456 117.0679760
   2.8298549  69.9132414 115.6837155   8.8878624  76.0990465 124.4978779
   8.9523057  76.5610872 125.3336951   8.1789548  75.4687830 124.6261089
  23.2128014  72.8945170 118.6903040  22.4591722  72.3252568 118.5347044
  23.3475555  72.8607835 119.6373675   8.6026642  77.7658572 114.3657759
   8.4672317  78.6110108 114.7942607   9.1436454  77.9677850 113.6023693
   5.0893982  63.8450152 131.0272115   4.6960927  63.2916351 131.7019759
   5.9060122  64.1560731 131.4178632   2.0556039  75.2834010 114.9385684
   2.5680560  76.0777261 115.0891249   2.7078752  74.5860301 114.8719286
   3.8650924  78.3999767 117.0208438   4.0417552  79.3217731 116.8329422
   4.6607758  78.0858186 117.4502817   8.0061943  65.2608031 128.6192371
   8.7471656  65.8615185 128.5396834   8.2379865  64.5185669 128.0610414
   3.1503281  70.4464399 126.8970601   3.0356796  69.5449656 127.1977700
   2.2947798  70.6928095 126.5455417  10.2295118  78.3882139 128.4958101
   9.7858973  77.6018518 128.1779006  10.8912332  78.5761289 127.8301992
   4.9882239  79.9177941 123.0218780   5.5389665  79.7895004 122.2495774
   4.1493715  80.2172830 122.6713673  12.3276356  78.6684939 126.5239503
  12.3094832  79.4893820 126.0319772  13.2496276  78.5439014 126.7489644
   8.7849411  76.1829068 127.3663011   9.3177747  75.4217357 127.1362319
   8.2563492  75.8902720 128.1087166  11.9519106  61.2889134 122.8956653
  11.6083375  62.1790776 122.8195763  12.3198068  61.0990792 122.0326238
  11.9169388  71.2797745 111.4029088  11.4016012  72.0502350 111.6417475
  11.6446697  70.6062882 112.0262149   9.5016499  66.1247446 116.4614326
   8.6458096  65.7354297 116.2819965   9.9143451  66.2039407 115.6014112
  11.0315646  63.6593789 120.8605886  10.5280441  63.6223925 120.0473691
  11.3246253  64.5686532 120.9202543   7.2758532  63.7432519 119.8672068
   8.1411529  63.5475328 119.5077957   7.3436041  63.5142871 120.7941425
  16.8903662  74.0330100 113.3382261  16.1133105  73.6941260 112.8937423
  17.5695143  74.0382723 112.6637226  11.7055691  69.1524838 113.2288869
  11.4005827  69.4670987 114.0799012  12.6586134  69.2306257 113.2716202
  10.1502123  75.3115061 114.8781823   9.6223485  74.5767820 114.5655061
   9.6489626  76.0889737 114.6321791  15.1294969  73.5064081 119.9948869
  14.4718644  74.1963343 120.0828998  15.9335368  73.8960513 120.3382856
   4.8820851  65.9734727 117.2388435   5.4564603  65.7509909 116.5061628
   5.4691833  66.0423422 117.9917036  13.9400428  71.8608454 118.0452811
  14.4532310  72.4938446 118.5474521  14.5901652  71.2609650 117.6796171
   5.2090438  68.0039188 111.2584320   4.3727750  68.3413875 111.5793595
   5.0695208  67.8688168 110.3211457   7.1843519  62.8475976 115.9663504
   6.5307931  62.5324993 115.3420119   7.1423993  62.2251717 116.6923327
   8.2954723  73.1295271 107.8816796   7.3881785  72.8984525 108.0807945
   8.7925755  72.3332890 108.0690778  11.2022802  81.8392778 110.8013482
  10.5284501  82.1424475 111.4098440  11.5888624  82.6421859 110.4518939
  10.4181259  69.3357910 120.2911152   9.5003820  69.5572857 120.1332840
  10.8341403  69.4104220 119.4322859  11.2016307  70.7349325 115.4213832
  11.9488126  71.2470722 115.1120954  11.4707896  70.4133378 116.2818225
   9.4742957  73.2307866 112.4040786   8.5654176  72.9466899 112.5013256
   9.5038041  73.6506945 111.5444093  14.7062224  76.8414455 116.1731954
  14.2524551  76.0005365 116.2297144  14.0756191  77.4775854 116.5106734
  13.6495144  67.7706442 117.4032621  12.9117901  67.2583828 117.7342864
  13.9021917  67.3306823 116.5915898  13.1495164  78.6790952 117.1081772
  13.4418138  79.2396009 116.3894138  13.6593784  78.9719513 117.8634931
  13.7506771  60.5482694 117.9974390  14.0565648  59.6880057 117.7100306
  14.4759376  61.1400314 117.7973384   8.0227851  70.8436487 118.5050582
   8.0776461  69.8910323 118.4293058   7.2119053  70.9995926 118.9891880
   9.1719045  74.7716610 109.7428865   8.7338475  74.0552469 109.2834502
   9.9129486  74.9992724 109.1813956   5.9620211  69.4613546 116.2640960
   5.1488076  69.7607717 116.6706153   6.4579205  69.0669235 116.9815443
   8.1128789  79.4571303 118.1975225   8.0704968  79.6832150 117.2683757
   9.0291488  79.2234678 118.3461026  11.5594423  69.9255371 125.0955854
  11.9143810  70.1526844 125.9550320  12.2066554  70.2573748 124.4733110
  17.2892159  73.0473807 115.8005183  17.1510058  73.2375403 114.8726373
  16.9328378  73.8093190 116.2573234   5.4534286  67.0331902 121.8802195
   6.0933665  66.8920661 121.1825159   4.6211816  66.7466415 121.5040797
  17.3161539  75.1150334 120.8116455  17.7498046  75.0225623 121.6599509
  18.0293120  75.0907834 120.1736471   6.2294589  76.3334332 117.9937188
   7.0235188  75.8384652 117.7919763   5.5186282  75.8052195 117.6304893
  11.0489434  78.7152428 122.3449555  11.1026456  79.2843364 123.1127271
  10.1804215  78.8854313 121.9803593   2.5377353  70.4777414 114.0696941
   1.6074941  70.4161870 114.2866903   2.6334825  69.9553367 113.2733582
   2.4562902  67.0032227 116.6575182   2.7169719  67.9177560 116.5484343
   3.2780074  66.5356669 116.8071795   3.9287827  68.4169984 123.8274007
   4.6010881  68.2087346 123.1786656   3.1017614  68.2192070 123.3879239
  18.1777089  75.1574034 123.3449340  18.3712979  76.0619845 123.5908615
  18.0777707  74.6981453 124.1787925   9.8313399  65.0431925 125.8439668
   9.1841314  65.7421875 125.7504144  10.6014415  65.4768069 126.2115916
  13.2392197  75.3080777 128.9190221  13.0877704  75.0791329 128.0020305
  13.2296877  76.2651379 128.9321566  10.0077534  72.8812690 123.9036487
  10.9369594  73.0323849 123.7305455   9.5868564  72.9696711 123.0485134
   8.8065865  76.9063354 121.6735025   8.6676951  76.5382139 122.5460963
   8.0180462  77.4210994 121.5018983   9.4014017  82.0072451 113.0160561
   9.5765773  81.5360494 113.8306184   8.7146805  82.6338217 113.2441822
  10.3571081  76.2844957 119.0623863  10.0220913  76.2445727 119.9581513
   9.8575026  75.6189673 118.5894273   4.3315325  71.6912587 124.5876444
   4.1935123  70.9592826 125.1887983   5.2420248  71.6021487 124.3060632
  13.2930272  73.6300991 109.3360922  12.6759443  72.9047819 109.2393975
  12.8246761  74.3910352 108.9927997   6.9597625  71.4032546 124.0760124
   7.6697244  70.7625739 124.0346742   6.9166933  71.6545441 124.9986304
  14.9484404  78.3399900 126.9966703  14.8896950  77.6559120 126.3297286
  15.3503922  79.0818890 126.5447329   5.6726559  68.3897764 125.8955763
   5.1363916  67.9388503 126.5477359   5.0843268  68.5243673 125.1526227
   3.9675103  85.1561814 119.7900422   4.2071701  85.7880338 120.4679440
   3.1244299  84.8049854 120.0765781   5.0828818  67.8486416 108.4582227
   4.2058285  67.7275216 108.0944473   5.5586571  67.0572494 108.2061115
  14.9501811  76.3039484 125.2280682  14.0628590  75.9665405 125.3507081
  15.5200362  75.5722515 125.4649448   1.4065680  67.5253772 122.9808757
   1.3223869  66.9179441 122.2459167   0.5848387  68.0162790 122.9818254
   8.4802965  80.9640936 122.1941926   8.4073136  81.7695907 122.7061230
   8.0380358  81.1632902 121.3689947   8.2692744  80.2012706 115.7044747
   7.4860266  80.7434386 115.7982972   8.9685489  80.7186686 116.1038988
  11.5789394  66.0107335 118.3478953  12.0758094  65.2577298 118.0280023
  10.8076376  66.0471652 117.7822162  19.4319152  71.7147701 119.9897244
  19.4209028  72.5972416 119.6191177  18.5636531  71.3619252 119.7951781
  10.9401648  80.8627770 124.3500084  11.6529620  81.4975235 124.2775986
  10.4491677  80.9591636 123.5340086  12.6619175  74.7679023 115.9217376
  11.7275454  74.8880485 115.7522080  12.8395843  73.8651489 115.6577386
   8.1624363  68.1524718 118.0750637   7.7922151  67.5995759 118.7631543
   8.6583456  67.5482852 117.5225637  16.0491726  70.6096342 116.4567410
  16.5152179  71.4424334 116.3827713  16.4999227  70.1441324 117.1612669
   5.9913562  78.6122213 125.1705655   6.6923021  79.2458696 125.3235049
   5.5208677  78.9536945 124.4101294  14.1167957  76.9540163 113.4553562
  14.3927801  76.8396758 114.3647436  13.2472456  76.5557648 113.4165735
  14.0208389  62.9776929 120.4958311  13.1071469  63.2081156 120.6640518
  14.4501491  63.0615373 121.3472344  13.7914848  71.1666821 122.9958205
  13.1386298  71.4142728 122.3410658  14.1695228  70.3530959 122.6620683
  10.7522021  81.2026514 117.0986376  10.9344416  80.3848170 117.5614128
  11.5755008  81.4194206 116.6611266  11.0864187  80.1294699 114.3601424
  11.6151953  79.6187154 113.7471586  11.3492407  79.8137229 115.2246957
   9.8402421  71.9086632 129.4824243   9.1643058  71.8080761 130.1526618
  10.6630055  71.7525846 129.9460240   1.5881280  78.1458568 122.1036758
   2.1734717  77.4002256 122.2364662   1.3906118  78.4562525 122.9873422
   4.4419935  81.1809816 117.1199200   3.7730310  81.6655944 116.6363240
   4.3032805  81.4279036 118.0342579   8.5825204  83.2153559 123.7181859
   9.1343512  83.3785181 124.4830944   8.9231397  83.8057997 123.0461883
   3.5589697  65.5628709 124.3203743   3.6231023  66.4243540 123.9081141
   3.4956817  64.9502711 123.5876102   3.0341969  67.6351842 127.9676777
   3.6614008  67.2528919 128.5814302   2.1769888  67.4166044 128.3332470
  13.4336078  78.0414817 129.5730513  13.9775982  78.6544775 129.0785468
  12.8522923  78.5994395 130.0897526  11.7193591  81.1635535 120.7045541
  11.5944730  80.3625275 120.1956486  12.3772682  81.6581728 120.2159511
   3.3401759  67.5184267 119.8822681   2.6188345  68.1320235 119.7430154
   4.1295015  68.0542032 119.8039327  13.7828499  78.9644555 122.3325091
  12.8358835  78.8449906 122.2603418  14.1311272  78.0767053 122.4151352
   6.1428073  64.8538694 126.1563333   6.6662474  65.1000990 126.9189642
   5.9240406  65.6858729 125.7366470   1.5395354  67.1242369 114.0234457
   1.2108060  66.2439747 113.8409563   1.8934724  67.0690037 114.9110847
  10.7874932  78.7597271 118.5329443  10.6399895  77.8313979 118.7137013
  11.6128426  78.7817362 118.0486518   4.6537177  67.4115338 114.3909935
   4.9933249  67.9401260 113.6688544   5.1009297  67.7495744 115.1668502
  14.3909054  79.5825830 119.6194316  15.3155602  79.3768691 119.4818767
  14.2224358  79.3342231 120.5283657   7.3480618  65.7952389 123.8413003
   7.0077438  64.9960202 124.2433683   6.6419624  66.0954100 123.2689836
   7.9997089  62.8801701 122.2940326   8.8223159  62.4062180 122.1719217
   8.2435153  63.6592185 122.7939013   6.6405324  65.9089960 112.5903228
   7.3613686  66.2871213 112.0866945   6.0170628  66.6278837 112.6938206
  10.7836447  66.6135109 113.5261560  11.0000061  67.4959747 113.2250388
  10.3030514  66.2221322 112.7967202   5.5235668  69.5720822 120.1032305
   5.3780249  69.8861125 120.9956586   5.0460872  70.1905722 119.5503203
   7.3832051  66.5623370 120.1513194   7.3693620  65.6664463 119.8145492
   8.1004479  66.5694034 120.7851480   9.2358182  66.9960710 122.1966322
   8.9775960  67.9177781 122.1950652   8.7043222  66.5991145 122.8866786
  14.1804371  80.1011497 114.9756407  14.3541248  79.5357920 114.2230260
  14.6733262  80.9012392 114.7935897   6.7868947  65.4437750 115.4200765
   6.9084858  64.5154397 115.6191652   6.4970989  65.4576436 114.5079080
   9.6560137  63.1292661 118.5567484   9.6781834  63.1931994 117.6019464
  10.0728196  62.2897169 118.7507991  20.0343762  72.8647920 116.5946707
  20.4774908  72.1155246 116.1965830  19.1570272  72.8558057 116.2120439
  15.1679543  79.4178262 112.0753305  15.8630448  80.0384954 112.2940620
  15.5102693  78.5673613 112.3505683  17.0670966  76.8677967 113.6040636
  17.5922290  77.2065240 112.8789956  16.9793319  75.9324983 113.4203771
   8.7291015  80.7812041 125.7330513   9.0378141  80.5361188 126.6053212
   9.5266497  80.9858679 125.2449383   8.7511627  82.9349951 117.9635889
   8.3116617  82.4426329 118.6568746   9.5019744  82.3922918 117.7227965
   1.2303966  79.1261491 117.9660518   2.0561986  78.8265263 117.5859161
   0.8798018  78.3569114 118.4150306   6.1985499  78.4787960 120.0358191
   5.5765508  77.8158665 119.7360419   6.8690366  78.5049092 119.3531839
   6.2710027  66.9569748 129.6290697   6.3198182  67.8331871 129.2468467
   6.8132541  66.4147141 129.0562340  16.7564872  77.5010871 128.9091834
  15.9660416  77.4835010 128.3696334  16.5198227  78.0399165 129.6640871
  16.8762747  74.3503337 126.2224563  16.9260752  74.1853345 127.1640086
  16.7676671  73.4830596 125.8322444   5.7599006  77.0291883 113.5116652
   5.9087126  77.7127347 112.8583324   6.5665449  77.0096973 114.0266107
  14.1666510  70.3334265 127.5383869  15.0676372  70.1940730 127.2467867
  14.2414484  70.4988720 128.4782047   8.5009315  67.7101120 126.3837056
   7.6312624  68.0034686 126.1119644   8.7368795  68.2941565 127.1044319
  18.3780944  76.7700279 126.4666584  18.0865752  77.1330259 127.3030045
  17.7653075  76.0567287 126.2879916  19.5776626  74.3353159 118.9869155
  20.4123518  74.7742963 119.1506715  19.7135755  73.8591812 118.1677400
  16.6268132  71.8932893 124.9346642  17.1022254  72.0860540 124.1265494
  15.7033698  71.9492079 124.6890026   3.5151639  73.0557061 114.5177721
   3.2697681  72.1519391 114.7157931   3.6847553  73.0574211 113.5757199
  11.2048349  63.9280737 123.9002476  11.7230293  64.6641764 123.5748965
  10.8503482  64.2344730 124.7349235   2.7847286  68.7885418 112.0163882
   2.0916531  68.8629773 111.3603918   2.5399038  68.0245762 112.5385399
  11.4560943  60.3481020 119.4203373  11.7362697  59.6804209 120.0463799
  12.2411550  60.5410115 118.9078037   9.2594411  79.5240013 110.9828399
   8.6868379  80.1430201 110.5298871   9.8327205  80.0739375 111.5168321
  15.3269801  68.7698654 123.1674948  16.2787224  68.8696751 123.1887172
  15.1573252  67.9776922 123.6773032  13.3484181  65.8554237 123.3534349
  12.7534113  66.1359250 122.6580837  13.0633877  66.3448138 124.1251090
  12.4791671  79.8077164 112.1136981  13.4122344  79.7422725 112.3169857
  12.3914884  80.6433430 111.6551514  15.1079688  79.1243034 109.0740929
  15.0293319  78.7902898 109.9676687  15.9289355  79.6164802 109.0732401
  17.8057879  71.9904773 122.2817248  17.7734199  71.0520774 122.4676931
  18.4158503  72.0688810 121.5483072   9.6441210  70.8600826 108.3244452
  10.5900315  70.7307034 108.3932870   9.2655455  70.1215488 108.8013880
  17.9552368  68.7815817 122.3275531  17.4391416  67.9974273 122.1405460
  18.8392316  68.4534533 122.4922050  15.6163095  62.5256832 118.2871343
  15.4187916  62.2171920 119.1714675  16.2262800  63.2518471 118.4169273
  23.6234429  73.0520780 121.4223284  24.3537817  72.7906068 121.9830988
  23.0141374  72.3149502 121.4625352  21.7049726  71.1928643 122.0197736
  20.9782890  71.0584608 121.4114227  21.2897013  71.5005471 122.8254454
   9.5279903  74.9118572 129.7845109  10.4482912  75.0897171 129.9785155
   9.4929486  73.9674618 129.6324808   7.8284127  68.7850803 108.2599337
   6.9215583  68.4883915 108.3362050   8.1060108  68.4880621 107.3933623
   2.5241975  72.8219607 122.4267890   2.7427985  73.7536715 122.4455924
   2.9367749  72.4627581 123.2122694   9.4446193  63.3287692 114.4143578
   8.6346921  62.9834777 114.7898824  10.1330610  63.0195236 115.0031190
  11.3736741  62.4065739 116.0367875  11.9267780  62.8261193 116.6957898
  11.6106827  61.4801487 116.0790831   7.3969840  68.3952813 131.8170639
   7.2966567  69.3447170 131.7482730   7.1791382  68.0671052 130.9446709
   6.5982912  65.6437738 108.4011316   7.4602076  65.9692636 108.6607133
   6.7833256  64.8569234 107.8884382  14.7515548  64.5166264 115.5446539
  14.1714217  65.1751068 115.1624591  14.4851481  63.6943609 115.1333956
  13.2019115  63.9171322 117.7467859  13.7018893  64.0287857 116.9382178
  13.8454723  63.6132375 118.3868668   7.2601110  71.8249952 130.6335700
   6.7768192  72.6250312 130.8399589   7.3462049  71.8357897 129.6803144
   0.5287070  73.6578331 118.5557520   0.5057758  73.7566019 117.6039403
   0.8387707  74.5043482 118.8774686   3.1874448  75.7154486 122.6704134
   4.1417701  75.6838429 122.6034066   2.9886971  75.2545110 123.4854360
   3.7773830  74.2855602 125.2374932   4.5966719  74.7799681 125.2609769
   4.0510638  73.3687571 125.2092499  13.5340426  66.6766355 114.6002887
  12.6466281  66.9616005 114.3823082  13.9494415  66.5160118 113.7530164
  16.8854962  66.7012876 118.3157226  17.6615352  67.1909328 118.5881843
  16.1603097  67.1270930 118.7729096  19.3227521  67.4140495 119.3731167
  19.9172012  67.1736231 118.6624475  19.3954105  66.6947625 120.0004703
   1.5424677  81.2574106 119.6874332   1.4079145  80.4974507 119.1212330
   1.1256739  81.9815006 119.2203121  12.6783640  76.4411029 108.6950907
  13.3819490  76.6461032 109.3108563  11.9546288  77.0087791 108.9599991
  13.5081450  72.1920891 114.8153177  13.4516651  72.6489442 113.9760810
  14.0609792  71.4311575 114.6376020  17.3186256  67.9810622 115.6403297
  17.0623190  67.5807258 116.4711505  16.6939124  68.6954416 115.5153436
  21.6298594  70.7206696 118.1474588  21.0698152  70.7899885 118.9206150
  21.0242097  70.5447680 117.4274085   4.6993803  82.1543423 119.8992775
   4.5826187  83.0988855 119.7971465   3.8786249  81.8516984 120.2878574
  14.5870337  76.8793559 110.7449367  15.4215941  76.4474757 110.5626842
  14.4254680  76.7075572 111.6726262  14.2416229  73.3825672 112.1105707
  14.1865033  73.2169943 111.1694151  13.6162285  74.0901705 112.2667896
  11.5562136  75.6874584 131.4359269  12.4253296  75.8615236 131.0745904
  11.0768888  76.5069001 131.3134999   7.5512355  62.8833781 111.6891025
   7.5391025  63.8275621 111.8459296   8.4435777  62.7003926 111.3950486
   5.7248317  82.8071685 123.1148703   6.6275563  82.8395295 123.4315198
   5.4985687  81.8772136 123.1295039   7.4801919  81.5602671 119.7758782
   6.5297550  81.5604533 119.6623154   7.7834405  80.8135406 119.2594816
  11.3664474  59.4776558 115.9436962  10.5996870  58.9235044 116.0893644
  11.7775179  59.5498426 116.8051113   3.3706235  65.7661353 130.0342143
   4.2337697  65.4098158 130.2445468   2.7971646  65.4275248 130.7217547
  23.2154612  87.3963210 120.8404544  23.8533022  87.2769957 120.1367884
  23.0975455  88.3444054 120.8992496  20.0244318  87.3490638 120.7766069
  19.6862830  87.2331702 119.8886604  20.8934087  86.9481803 120.7567075
  15.8831134  89.2026114 116.7662960  15.3195999  89.1116051 115.9979247
  15.7683529  88.3826019 117.2465452  20.5064101  88.5025490 126.7352274
  20.4952742  88.1078288 125.8632778  20.6684741  87.7691562 127.3286046
  13.4295566  90.6977306 119.6047180  14.2216858  90.3568130 119.1893479
  13.6692216  90.8072281 120.5249333  21.4630693  92.8697082 112.0777425
  20.8118673  93.4551162 111.6911438  22.2575056  93.4003277 112.1372462
  15.3886320  89.9586219 112.4764559  16.1617196  89.4115206 112.3377435
  15.7411719  90.8230468 112.6879020  17.2271363  91.2862601 125.6831458
  16.9361229  92.1908232 125.5678125  17.8628347  91.3279129 126.3975528
  18.1527569  88.6639450 122.2732818  18.7491142  88.4395472 121.5589781
  18.2102541  87.9224195 122.8758266  17.7252598  86.1178885 110.1083009
  17.9778119  85.5960406 109.3466472  16.7877157  85.9545031 110.2109692
  22.7695881  85.1214664 117.9157752  23.5558970  84.7034087 117.5648169
  23.0334585  86.0260756 118.0839400  22.9405958  90.5587514 112.6146409
  22.3051791  90.6322140 113.3267314  22.6103364  91.1481113 111.9365488
  28.1704308  85.0589897 118.8190731  28.9029480  84.4889114 119.0528560
  27.4143664  84.6711497 119.2597236  17.4448887  88.0206991 112.3107384
  17.3285145  87.3451895 112.9788468  17.5551147  87.5339365 111.4939537
  19.7880428  87.4817138 116.0154073  19.4238635  86.9547759 116.7266995
  20.6447543  87.0915607 115.8420558  25.6929728  78.7711471 123.2785339
  25.3613053  79.6406882 123.0546554  25.0975342  78.4547755 123.9579370
  19.4285915  82.5107038 111.0115422  19.5960317  83.3787274 111.3785893
  19.2383084  82.6734320 110.0876711  22.1861248  90.9724017 122.6781252
  21.8861971  91.8749056 122.5697059  21.8412307  90.7056200 123.5302405
  15.6373729  87.4237814 118.7117956  14.7124226  87.2914028 118.9195648
  15.8858142  88.2032033 119.2087899  25.5858392  83.4906557 120.3578689
  24.6775269  83.4221965 120.0637450  25.5345987  83.9678502 121.1860515
  19.4075135  84.9664695 111.9962088  19.2874761  85.4121746 112.8347569
  18.7127724  85.3150013 111.4375627  12.9982540  87.0671087 119.5461745
  13.1274921  87.3205566 120.4601157  12.3179992  87.6598795 119.2266400
  17.1682028  97.7368337 115.6452220  17.0906057  98.6876162 115.7240700
  16.5643671  97.3914210 116.3027146  19.6599257  84.9096203 128.3013587
  18.8832591  85.4690123 128.2916451  20.2989820  85.3952986 128.8228457
  27.4520038  81.6922995 122.1356563  26.8094418  81.9855529 121.4896358
  26.9474966  81.5775916 122.9409760  25.1060202  85.4386169 112.8242422
  26.0178058  85.6713555 112.6490120  24.5969849  86.0223213 112.2617501
  17.9145630  87.7181656 127.8631554  18.6560314  88.2566700 127.5866377
  17.2082615  88.3447945 128.0203105  23.3900969  89.8610796 126.4603715
  23.7984325  89.4193207 125.7158347  22.6678231  89.2863424 126.7137908
  19.7432039  84.7983403 123.8337272  20.5893234  85.2222817 123.9771921
  19.6830677  84.1417028 124.5275835  23.7129784  90.4211987 120.2156004
  23.0838646  90.5857701 119.5132072  23.3255446  90.8353597 120.9866968
  27.5919016  91.3566425 117.5700368  26.9070054  91.7365326 117.0197401
  27.6762865  91.9661752 118.3032315  22.8931485  82.4587772 125.4918446
  22.6492416  83.2129832 124.9552721  23.1691415  82.8373119 126.3265693
  24.8469947  89.0026384 124.1695711  25.0586843  89.6458144 123.4930092
  24.7999696  88.1688700 123.7017641  22.4496176  81.6144205 121.0732283
  21.5880655  81.9125458 121.3649021  22.4758611  81.8314603 120.1413316
  19.2657746  90.1586395 117.4806089  19.7296091  90.4374098 116.6910711
  19.0014544  89.2569840 117.2979180  16.1581827  89.7057877 120.4185852
  16.7283184  90.1345145 119.7803337  16.7489939  89.4240461 121.1170038
  18.2026632  86.2809548 114.2895654  18.9050675  86.7330591 114.7569580
  17.8707260  85.6393366 114.9175547  16.6506993  84.8721304 128.6646864
  16.0205654  85.5537585 128.8982260  16.5443081  84.7604386 127.7200002
  11.9451966  84.5393100 119.5912788  11.1551020  84.7950629 119.1152898
  12.4363213  85.3541438 119.6964828  25.9615775  91.8798339 122.3418069
  26.7833219  91.4778527 122.0600750  25.9578178  91.7766574 123.2934184
  13.8966711  84.9037679 116.5496264  13.0997874  85.0156374 117.0679760
  13.6692303  85.2424332 115.6837155  19.7272379  91.4282383 124.4978779
  19.7916811  91.8902790 125.3336951  19.0183303  90.7979748 124.6261089
  10.2289669  84.7923591 122.0227778  10.4797707  85.6770601 122.2885354
  10.7649217  84.6128192 121.2502870  34.0521768  88.2237088 118.6903040
  33.2985477  87.6544486 118.5347044  34.1869310  88.1899752 119.6373675
  19.4420396  93.0950490 114.3657759  19.3066071  93.9402026 114.7942607
  19.9830209  93.2969768 113.6023693  15.9287736  79.1742070 131.0272115
  15.5354682  78.6208269 131.7019759  16.7453876  79.4852648 131.4178632
  12.8949794  90.6125928 114.9385684  13.4074314  91.4069178 115.0891249
  13.5472507  89.9152219 114.8719286  14.7044679  93.7291684 117.0208438
  14.8811307  94.6509649 116.8329422  15.5001512  93.4150104 117.4502817
  18.8455697  80.5899949 128.6192371  19.5865410  81.1907102 128.5396834
  19.0773620  79.8477587 128.0610414  13.9897035  85.7756316 126.8970601
  13.8750550  84.8741574 127.1977700  13.1341553  86.0220013 126.5455417
  21.0688873  93.7174057 128.4958101  20.6252727  92.9310435 128.1779006
  21.7306086  93.9053207 127.8301992  15.8275994  95.2469858 123.0218780
  16.3783419  95.1186922 122.2495774  14.9887470  95.5464747 122.6713673
  23.1670111  93.9976857 126.5239503  23.1488586  94.8185738 126.0319772
  24.0890031  93.8730932 126.7489644  19.6243165  91.5120986 127.3663011
  20.1571502  90.7509274 127.1362319  19.0957246  91.2194638 128.1087166
  22.7912860  76.6181052 122.8956653  22.4477129  77.5082694 122.8195763
  23.1591823  76.4282710 122.0326238  10.8598711  88.9414582 115.7145255
  11.6973933  89.3511591 115.4978963  11.0376978  88.0014025 115.6845449
  22.7563143  86.6089663 111.4029088  22.2409766  87.3794268 111.6417475
  22.4840451  85.9354799 112.0262149  20.3410254  81.4539364 116.4614326
  19.4851850  81.0646214 116.2819965  20.7537206  81.5331325 115.6014112
  21.8709400  78.9885707 120.8605886  21.3674196  78.9515842 120.0473691
  22.1640007  79.8978450 120.9202543  18.1152286  79.0724437 119.8672068
  18.9805283  78.8767246 119.5077957  18.1829795  78.8434789 120.7941425
  27.7297417  89.3622018 113.3382261  26.9526860  89.0233177 112.8937423
  28.4088898  89.3674641 112.6637226  22.5449446  84.4816755 113.2288869
  22.2399581  84.7962904 114.0799012  23.4979888  84.5598175 113.2716202
  20.9895878  90.6406979 114.8781823  20.4617239  89.9059738 114.5655061
  20.4883380  91.4181655 114.6321791  25.9688724  88.8355999 119.9948869
  25.3112398  89.5255260 120.0828998  26.7729123  89.2252431 120.3382856
  15.7214605  81.3026645 117.2388435  16.2958357  81.0801826 116.5061628
  16.3085588  81.3715339 117.9917036  24.7794183  87.1900372 118.0452811
  25.2926064  87.8230364 118.5474521  25.4295406  86.5901567 117.6796171
  16.0484192  83.3331106 111.2584320  15.2121505  83.6705792 111.5793595
  15.9088962  83.1980086 110.3211457  18.0237273  78.1767894 115.9663504
  17.3701685  77.8616911 115.3420119  17.9817747  77.5543634 116.6923327
  19.1348478  88.4587189 107.8816796  18.2275540  88.2276442 108.0807945
  19.6319510  87.6624808 108.0690778  22.0416557  97.1684696 110.8013482
  21.3678256  97.4716393 111.4098440  22.4282379  97.9713776 110.4518939
  21.2575013  84.6649827 120.2911152  20.3397575  84.8864774 120.1332840
  21.6735157  84.7396138 119.4322859  22.0410061  86.0641243 115.4213832
  22.7881880  86.5762640 115.1120954  22.3101651  85.7425296 116.2818225
  20.3136711  88.5599784 112.4040786  19.4047931  88.2758816 112.5013256
  20.3431795  88.9798862 111.5444093  25.5455979  92.1706373 116.1731954
  25.0918306  91.3297283 116.2297144  24.9149945  92.8067772 116.5106734
  24.4888898  83.0998359 117.4032621  23.7511655  82.5875745 117.7342864
  24.7415672  82.6598741 116.5915898  23.9888918  94.0082870 117.1081772
  24.2811892  94.5687927 116.3894138  24.4987539  94.3011431 117.8634931
  24.5900526  75.8774611 117.9974390  24.8959402  75.0171975 117.7100306
  25.3153130  76.4692231 117.7973384  10.8824882  86.2805298 116.3855988
  10.6849282  85.6874658 115.6607055  10.3271546  85.9757508 117.1031927
  18.8621605  86.1728404 118.5050582  18.9170215  85.2202241 118.4293058
  18.0512807  86.3287843 118.9891880  20.0112799  90.1008527 109.7428865
  19.5732229  89.3844386 109.2834502  20.7523240  90.3284642 109.1813956
  16.8013965  84.7905464 116.2640960  15.9881831  85.0899635 116.6706153
  17.2972959  84.3961153 116.9815443  18.9522543  94.7863221 118.1975225
  18.9098722  95.0124067 117.2683757  19.8685242  94.5526596 118.3461026
  22.3988177  85.2547288 125.0955854  22.7537565  85.4818762 125.9550320
  23.0460308  85.5865665 124.4733110  28.1285914  88.3765724 115.8005183
  27.9903813  88.5667320 114.8726373  27.7722133  89.1385107 116.2573234
  16.2928040  82.3623820 121.8802195  16.9327419  82.2212579 121.1825159
  15.4605571  82.0758333 121.5040797  28.1555294  90.4442251 120.8116455
  28.5891800  90.3517540 121.6599509  28.8686874  90.4199752 120.1736471
  17.0688344  91.6626250 117.9937188  17.8628942  91.1676570 117.7919763
  16.3580036  91.1344113 117.6304893  21.8883188  94.0444345 122.3449555
  21.9420211  94.6135282 123.1127271  21.0197970  94.2146231 121.9803593
  13.3771107  85.8069332 114.0696941  12.4468696  85.7453787 114.2866903
  13.4728579  85.2845284 113.2733582  13.2956656  82.3324145 116.6575182
  13.5563474  83.2469478 116.5484343  14.1173829  81.8648587 116.8071795
  14.7681582  83.7461902 123.8274007  15.4404635  83.5379264 123.1786656
  13.9411368  83.5483988 123.3879239  29.0170843  90.4865952 123.3449340
  29.2106733  91.3911763 123.5908615  28.9171461  90.0273371 124.1787925
  20.6707154  80.3723843 125.8439668  20.0235069  81.0713792 125.7504144
  21.4408169  80.8059987 126.2115916  24.0785952  90.6372695 128.9190221
  23.9271458  90.4083246 128.0020305  24.0690631  91.5943296 128.9321566
  20.8471288  88.2104608 123.9036487  21.7763348  88.3615767 123.7305455
  20.4262318  88.2988628 123.0485134  19.6459620  92.2355272 121.6735025
  19.5070706  91.8674056 122.5460963  18.8574216  92.7502911 121.5018983
  20.2407772  97.3364368 113.0160561  20.4159528  96.8652412 113.8306184
  19.5540560  97.9630135 113.2441822  21.1964835  91.6136875 119.0623863
  20.8614668  91.5737645 119.9581513  20.6968781  90.9481591 118.5894273
  15.1709079  87.0204505 124.5876444  15.0328877  86.2884743 125.1887983
  16.0814003  86.9313405 124.3060632  24.1324027  88.9592909 109.3360922
  23.5153197  88.2339737 109.2393975  23.6640515  89.7202269 108.9927997
  17.7991380  86.7324464 124.0760124  18.5090998  86.0917656 124.0346742
  17.7560688  86.9837359 124.9986304  25.7878158  93.6691817 126.9966703
  25.7290705  92.9851037 126.3297286  26.1897677  94.4110807 126.5447329
  16.5120314  83.7189682 125.8955763  15.9757671  83.2680420 126.5477359
  15.9237022  83.8535591 125.1526227  14.8068857 100.4853731 119.7900422
  15.0465455 101.1172255 120.4679440  13.9638054 100.1341771 120.0765781
  15.9222573  83.1778333 108.4582227  15.0452039  83.0567134 108.0944473
  16.3980326  82.3864412 108.2061115  25.7895566  91.6331401 125.2280682
  24.9022344  91.2957323 125.3507081  26.3594117  90.9014433 125.4649448
   7.4424713  87.9655493 118.5523734   8.1295753  87.6517223 117.9644749
   7.2872842  88.8696858 118.2790985  12.2459435  82.8545690 122.9808757
  12.1617624  82.2471359 122.2459167  11.4242141  83.3454708 122.9818254
  19.3196719  96.2932854 122.1941926  19.2466891  97.0987825 122.7061230
  18.8774112  96.4924819 121.3689947  19.1086499  95.5304624 115.7044747
  18.3254021  96.0726304 115.7982972  19.8079244  96.0478603 116.1038988
  22.4183149  81.3399253 118.3478953  22.9151848  80.5869215 118.0280023
  21.6470130  81.3763570 117.7822162  30.2712906  87.0439619 119.9897244
  30.2602782  87.9264334 119.6191177  29.4030286  86.6911169 119.7951781
  21.7795403  96.1919688 124.3500084  22.4923375  96.8267152 124.2775986
  21.2885431  96.2883554 123.5340086  23.5012930  90.0970940 115.9217376
  22.5669208  90.2172403 115.7522080  23.6789598  89.1943407 115.6577386
  19.0018118  83.4816636 118.0750637  18.6315905  82.9287676 118.7631543
  19.4977210  82.8774770 117.5225637  26.8885481  85.9388260 116.4567410
  27.3545933  86.7716251 116.3827713  27.3392981  85.4733241 117.1612669
  16.8307316  93.9414131 125.1705655  17.5316776  94.5750614 125.3235049
  16.3602431  94.2828863 124.4101294  24.9561712  92.2832081 113.4553562
  25.2321556  92.1688675 114.3647436  24.0866211  91.8849566 113.4165735
  24.8602144  78.3068847 120.4958311  23.9465223  78.5373073 120.6640518
  25.2895245  78.3907291 121.3472344  24.6308602  86.4958739 122.9958205
  23.9780052  86.7434646 122.3410658  25.0088982  85.6822877 122.6620683
  21.5915776  96.5318432 117.0986376  21.7738171  95.7140088 117.5614128
  22.4148762  96.7486124 116.6611266  21.9257941  95.4586617 114.3601424
  22.4545708  94.9479071 113.7471586  22.1886161  95.1429147 115.2246957
  20.6796175  87.2378550 129.4824243  20.0036812  87.1372679 130.1526618
  21.5023809  87.0817763 129.9460240  12.4275034  93.4750486 122.1036758
  13.0128471  92.7294174 122.2364662  12.2299873  93.7854443 122.9873422
  15.2813689  96.5101734 117.1199200  14.6124065  96.9947861 116.6363240
  15.1426559  96.7570954 118.0342579   7.0192689  86.0456086 120.8241201
   7.0576788  85.5119677 121.6178319   6.5132982  85.5191292 120.2052178
  19.4218958  98.5445477 123.7181859  19.9737266  98.7077099 124.4830944
  19.7625151  99.1349915 123.0461883  14.3983451  80.8920627 124.3203743
  14.4624778  81.7535458 123.9081141  14.3350571  80.2794629 123.5876102
  13.8735724  82.9643759 127.9676777  14.5007763  82.5820837 128.5814302
  13.0163643  82.7457961 128.3332470  24.2729832  93.3706735 129.5730513
  24.8169736  93.9836693 129.0785468  23.6916677  93.9286313 130.0897526
  10.6501267  84.7720189 113.8995132  10.9454708  83.8630867 113.8462186
   9.7489302  84.7507928 113.5776135  22.5587345  96.4927453 120.7045541
  22.4338485  95.6917192 120.1956486  23.2166436  96.9873646 120.2159511
  14.1795514  82.8476185 119.8822681  13.4582099  83.4612153 119.7430154
  14.9688769  83.3833950 119.8039327  24.6222254  94.2936473 122.3325091
  23.6752589  94.1741824 122.2603418  24.9705027  93.4058971 122.4151352
  16.9821827  80.1830612 126.1563333  17.5056229  80.4292908 126.9189642
  16.7634160  81.0150646 125.7366470  12.3789108  82.4534286 114.0234457
  12.0501814  81.5731665 113.8409563  12.7328479  82.3981955 114.9110847
  21.6268687  94.0889189 118.5329443  21.4793649  93.1605896 118.7137013
  22.4522180  94.1109280 118.0486518  15.4930931  82.7407256 114.3909935
  15.8327004  83.2693177 113.6688544  15.9403052  83.0787662 115.1668502
  25.2302809  94.9117748 119.6194316  26.1549356  94.7060609 119.4818767
  25.0618112  94.6634149 120.5283657  18.1874372  81.1244307 123.8413003
  17.8471192  80.3252120 124.2433683  17.4813378  81.4246018 123.2689836
  18.8390844  78.2093619 122.2940326  19.6616913  77.7354097 122.1719217
  19.0828907  78.9884103 122.7939013  17.4799078  81.2381878 112.5903228
  18.2007441  81.6163130 112.0866945  16.8564383  81.9570754 112.6938206
  21.6230201  81.9427027 113.5261560  21.8393816  82.8251664 113.2250388
  21.1424268  81.5513240 112.7967202  16.3629423  84.9012740 120.1032305
  16.2174003  85.2153043 120.9956586  15.8854626  85.5197640 119.5503203
  18.2225806  81.8915288 120.1513194  18.2087374  80.9956381 119.8145492
  18.9398234  81.8985952 120.7851480  20.0751936  82.3252628 122.1966322
  19.8169714  83.2469699 122.1950652  19.5436977  81.9283062 122.8866786
  25.0198125  95.4303415 114.9756407  25.1935003  94.8649838 114.2230260
  25.5127016  96.2304310 114.7935897  10.8375085  87.4418084 123.0419966
  10.2928553  88.2177892 123.1740240  11.7154435  87.7888889 122.8839087
  17.6262701  80.7729668 115.4200765  17.7478613  79.8446314 115.6191652
  17.3364744  80.7868354 114.5079080  20.4953892  78.4584578 118.5567484
  20.5175589  78.5223912 117.6019464  20.9121951  77.6189087 118.7507991
  30.8737516  88.1939838 116.5946707  31.3168662  87.4447163 116.1965830
  29.9964026  88.1849974 116.2120439  26.0073298  94.7470179 112.0753305
  26.7024202  95.3676872 112.2940620  26.3496448  93.8965531 112.3505683
  11.6241107  86.5687980 125.9350123  10.8822843  86.7170616 126.5214753
  11.3033851  86.8296246 125.0716872  27.9064721  92.1969885 113.6040636
  28.4316045  92.5357158 112.8789956  27.8187073  91.2616900 113.4203771
  19.5684769  96.1103959 125.7330513  19.8771896  95.8653105 126.6053212
  20.3660251  96.3150597 125.2449383  19.5905381  98.2641868 117.9635889
  19.1510372  97.7718247 118.6568746  20.3413498  97.7214836 117.7227965
  12.0697720  94.4553409 117.9660518  12.8955740  94.1557181 117.5859161
  11.7191772  93.6861032 118.4150306  17.0379254  93.8079877 120.0358191
  16.4159263  93.1450582 119.7360419  17.7084120  93.8341009 119.3531839
  10.2706325  92.3739736 118.9249451   9.4338234  91.9461910 118.7433452
  10.2429971  92.5672179 119.8620242  17.1103781  82.2861665 129.6290697
  17.1591936  83.1623788 129.2468467  17.6526295  81.7439058 129.0562340
  27.5958627  92.8302789 128.9091834  26.8054170  92.8126928 128.3696334
  27.3591981  93.3691082 129.6640871  27.7156502  89.6795255 126.2224563
  27.7654507  89.5145262 127.1640086  27.6070425  88.8122514 125.8322444
  16.5992760  92.3583801 113.5116652  16.7480881  93.0419265 112.8583324
  17.4059204  92.3388891 114.0266107  25.0060264  85.6626183 127.5383869
  25.9070127  85.5232648 127.2467867  25.0808239  85.8280638 128.4782047
  19.3403069  83.0393038 126.3837056  18.4706379  83.3326604 126.1119644
  19.5762550  83.6233483 127.1044319  29.2174699  92.0992197 126.4666584
  28.9259507  92.4622177 127.3030045  28.6046830  91.3859205 126.2879916
  30.4170381  89.6645076 118.9869155  31.2517272  90.1034880 119.1506715
  30.5529510  89.1883730 118.1677400  27.4661887  87.2224811 124.9346642
  27.9416008  87.4152457 124.1265494  26.5427452  87.2783997 124.6890026
  14.3545393  88.3848978 114.5177721  14.1091435  87.4811308 114.7157931
  14.5241308  88.3866129 113.5757199  22.0442103  79.2572655 123.9002476
  22.5624047  79.9933682 123.5748965  21.6897236  79.5636648 124.7349235
  13.6241041  84.1177336 112.0163882  12.9310286  84.1921691 111.3603918
  13.3792793  83.3537680 112.5385399  22.2954697  75.6772937 119.4203373
  22.5756451  75.0096126 120.0463799  23.0805304  75.8702033 118.9078037
  20.0988166  94.8531931 110.9828399  19.5262133  95.4722118 110.5298871
  20.6720960  95.4031293 111.5168321  26.1663556  84.0990571 123.1674948
  27.1180979  84.1988669 123.1887172  25.9967006  83.3068840 123.6773032
  24.1877935  81.1846154 123.3534349  23.5927867  81.4651167 122.6580837
  23.9027632  81.6740055 124.1251090  23.3185426  95.1369081 112.1136981
  24.2516099  95.0714643 112.3169857  23.2308639  95.9725348 111.6551514
  25.9473442  94.4534952 109.0740929  25.8687074  94.1194815 109.9676687
  26.7683109  94.9456720 109.0732401  28.6451634  87.3196691 122.2817248
  28.6127954  86.3812692 122.4676931  29.2552257  87.3980728 121.5483072
  20.4834964  86.1892744 108.3244452  21.4294069  86.0598952 108.3932870
  20.1049209  85.4507406 108.8013880  28.7946122  84.1107734 122.3275531
  28.2785171  83.3266191 122.1405460  29.6786071  83.7826451 122.4922050
  26.4556849  77.8548750 118.2871343  26.2581670  77.5463838 119.1714675
  27.0656555  78.5810389 118.4169273  34.4628183  88.3812698 121.4223284
  35.1931572  88.1197986 121.9830988  33.8535129  87.6441420 121.4625352
  32.5443481  86.5220560 122.0197736  31.8176644  86.3876525 121.4114227
  32.1290767  86.8297389 122.8254454  20.3673657  90.2410490 129.7845109
  21.2876666  90.4189089 129.9785155  20.3323240  89.2966535 129.6324808
  18.6677882  84.1142720 108.2599337  17.7609337  83.8175833 108.3362050
  18.9453863  83.8172538 107.3933623   9.5855822  85.4349084 118.7098383
   9.2658606  84.5814392 118.4172757   9.0389250  85.6497662 119.4656351
  13.3635730  88.1511525 122.4267890  13.5821739  89.0828633 122.4455924
  13.7761503  87.7919499 123.2122694  20.2839947  78.6579610 114.4143578
  19.4740676  78.3126695 114.7898824  20.9724364  78.3487154 115.0031190
  22.2130496  77.7357657 116.0367875  22.7661534  78.1553110 116.6957898
  22.4500582  76.8093405 116.0790831  18.2363595  83.7244730 131.8170639
  18.1360322  84.6739087 131.7482730  18.0185137  83.3962969 130.9446709
  17.4376666  80.9729656 108.4011316  18.2995830  81.2984554 108.6607133
  17.6227010  80.1861151 107.8884382   9.4544082  89.0551995 120.6791505
   8.7607553  88.6405948 120.1661459  10.2017073  89.0972532 120.0824924
  25.5909303  79.8458182 115.5446539  25.0107972  80.5042986 115.1624591
  25.3245235  79.0235527 115.1333956  24.0412869  79.2463240 117.7467859
  24.5412647  79.3579774 116.9382178  24.6848477  78.9424293 118.3868668
  18.0994865  87.1541869 130.6335700  17.6161947  87.9542229 130.8399589
  18.1855804  87.1649814 129.6803144  11.3680825  88.9870249 118.5557520
  11.3451513  89.0857936 117.6039403  11.6781461  89.8335400 118.8774686
  14.0268202  91.0446404 122.6704134  14.9811456  91.0130346 122.6034066
  13.8280726  90.5837028 123.4854360  14.6167585  89.6147520 125.2374932
  15.4360474  90.1091599 125.2609769  14.8904392  88.6979488 125.2092499
  24.3734181  82.0058272 114.6002887  23.4860036  82.2907923 114.3823082
  24.7888170  81.8452036 113.7530164  27.7248717  82.0304793 118.3157226
  28.5009107  82.5201246 118.5881843  26.9996851  82.4562848 118.7729096
  30.1621275  82.7432413 119.3731167  30.7565766  82.5028149 118.6624475
  30.2347859  82.0239543 120.0004703  12.3818431  96.5866024 119.6874332
  12.2472899  95.8266424 119.1212330  11.9650493  97.3106923 119.2203121
  23.5177394  91.7702947 108.6950907  24.2213244  91.9752950 109.3108563
  22.7940043  92.3379709 108.9599991  24.3475204  87.5212808 114.8153177
  24.2910406  87.9781360 113.9760810  24.9003547  86.7603493 114.6376020
  28.1580010  83.3102540 115.6403297  27.9016945  82.9099176 116.4711505
  27.5332878  84.0246334 115.5153436  32.4692348  86.0498613 118.1474588
  31.9091906  86.1191803 118.9206150  31.8635852  85.8739598 117.4274085
  15.5387557  97.4835341 119.8992775  15.4219941  98.4280773 119.7971465
  14.7180003  97.1808902 120.2878574  25.4264092  92.2085476 110.7449367
  26.2609696  91.7766675 110.5626842  25.2648435  92.0367490 111.6726262
  25.0809984  88.7117590 112.1105707  25.0258788  88.5461861 111.1694151
  24.4556039  89.4193622 112.2667896   9.8702499  83.9485654 125.9367129
  10.5161362  83.4384608 126.4254354   9.6619650  84.6854336 126.5110554
  22.3955891  91.0166501 131.4359269  23.2647051  91.1907154 131.0745904
  21.9162642  91.8360918 131.3134999  18.3906109  78.2125699 111.6891025
  18.3784779  79.1567538 111.8459296  19.2829531  78.0295844 111.3950486
  16.5642071  98.1363602 123.1148703  17.4669318  98.1687213 123.4315198
  16.3379441  97.2064053 123.1295039  18.3195673  96.8894589 119.7758782
  17.3691304  96.8896451 119.6623154  18.6228159  96.1427324 119.2594816
  22.2058229  74.8068475 115.9436962  21.4390625  74.2526962 116.0893644
  22.6168934  74.8790344 116.8051113  14.2099990  81.0953271 130.0342143
  15.0731451  80.7390076 130.2445468  13.6365400  80.7567166 130.7217547
  34.0548367 102.7255127 120.8404544  34.6926777 102.6061875 120.1367884
  33.9369210 103.6735971 120.8992496  30.8638073 102.6782555 120.7766069
  30.5256585 102.5623620 119.8886604  31.7327841 102.2773721 120.7567075
  26.7224889 104.5318032 116.7662960  26.1589754 104.4407969 115.9979247
  26.6077284 103.7117936 117.2465452  31.3457856 103.8317407 126.7352274
  31.3346497 103.4370205 125.8632778  31.5078495 103.0983480 127.3286046
  24.2689321 106.0269223 119.6047180  25.0610613 105.6860048 119.1893479
  24.5085971 106.1364199 120.5249333  32.3024447 108.1989000 112.0777425
  31.6512427 108.7843080 111.6911438  33.0968810 108.7295194 112.1372462
  26.2280075 105.2878137 112.4764559  27.0010951 104.7407124 112.3377435
  26.5805473 106.1522386 112.6879020  28.0665117 106.6154519 125.6831458
  27.7754983 107.5200150 125.5678125  28.7022101 106.6571047 126.3975528
  28.9921324 103.9931368 122.2732818  29.5884896 103.7687390 121.5589781
  29.0496296 103.2516113 122.8758266  28.5646352 101.4470803 110.1083009
  28.8171873 100.9252324 109.3466472  27.6270911 101.2836948 110.2109692
  33.6089635 100.4506581 117.9157752  34.3952724 100.0326004 117.5648169
  33.8728340 101.3552673 118.0839400  33.7799713 105.8879432 112.6146409
  33.1445546 105.9614058 113.3267314  33.4497119 106.4773030 111.9365488
  39.0098062 100.3881814 118.8190731  39.7423234  99.8181031 119.0528560
  38.2537418 100.0003415 119.2597236  28.2842641 103.3498909 112.3107384
  28.1678899 102.6743812 112.9788468  28.3944901 102.8631283 111.4939537
  30.6274182 102.8109056 116.0154073  30.2632389 102.2839677 116.7266995
  31.4841298 102.4207525 115.8420558  36.5323483  94.1003389 123.2785339
  36.2006807  94.9698799 123.0546554  35.9369096  93.7839673 123.9579370
  30.2679669  97.8398956 111.0115422  30.4354071  98.7079192 111.3785893
  30.0776838  98.0026237 110.0876711  33.0255002 106.3015935 122.6781252
  32.7255725 107.2040973 122.5697059  32.6806062 106.0348118 123.5302405
  26.4767484 102.7529731 118.7117956  25.5517980 102.6205945 118.9195648
  26.7251897 103.5323951 119.2087899  36.4252146  98.8198475 120.3578689
  35.5169023  98.7513883 120.0637450  36.3739742  99.2970420 121.1860515
  30.2468890 100.2956613 111.9962088  30.1268515 100.7413664 112.8347569
  29.5521478 100.6441931 111.4375627  23.8376295 102.3963005 119.5461745
  23.9668676 102.6497484 120.4601157  23.1573746 102.9890713 119.2266400
  28.0075782 113.0660255 115.6452220  27.9299812 114.0168080 115.7240700
  27.4037426 112.7206127 116.3027146  30.4993012 100.2388120 128.3013587
  29.7226346 100.7982040 128.2916451  31.1383575 100.7244903 128.8228457
  38.2913792  97.0214913 122.1356563  37.6488173  97.3147446 121.4896358
  37.7868721  96.9067833 122.9409760  35.9453956 100.7678086 112.8242422
  36.8571812 101.0005473 112.6490120  35.4363603 101.3515130 112.2617501
  28.7539384 103.0473574 127.8631554  29.4954068 103.5858618 127.5866377
  28.0476370 103.6739862 128.0203105  34.2294724 105.1902714 126.4603715
  34.6378080 104.7485125 125.7158347  33.5071985 104.6155342 126.7137908
  30.5825794 100.1275321 123.8337272  31.4286989 100.5514734 123.9771921
  30.5224431  99.4708945 124.5275835  34.5523538 105.7503905 120.2156004
  33.9232401 105.9149619 119.5132072  34.1649200 106.1645514 120.9866968
  38.4312770 106.6858343 117.5700368  37.7463808 107.0657244 117.0197401
  38.5156620 107.2953669 118.3032315  33.7325239  97.7879689 125.4918446
  33.4886171  98.5421750 124.9552721  34.0085170  98.1665037 126.3265693
  35.6863702 104.3318302 124.1695711  35.8980597 104.9750061 123.4930092
  35.6393450 103.4980618 123.7017641  33.2889931  96.9436122 121.0732283
  32.4274410  97.2417376 121.3649021  33.3152365  97.1606521 120.1413316
  30.1051500 105.4878313 117.4806089  30.5689846 105.7666016 116.6910711
  29.8408298 104.5861757 117.2979180  26.9975581 105.0349794 120.4185852
  27.5676938 105.4637063 119.7803337  27.5883693 104.7532379 121.1170038
  29.0420386 101.6101465 114.2895654  29.7444430 102.0622509 114.7569580
  28.7101015 100.9685284 114.9175547  27.4900748 100.2013222 128.6646864
  26.8599408 100.8829503 128.8982260  27.3836836 100.0896303 127.7200002
  22.7845720  99.8685018 119.5912788  21.9944774 100.1242546 119.1152898
  23.2756968 100.6833356 119.6964828  36.8009530 107.2090257 122.3418069
  37.6226974 106.8070444 122.0600750  36.7971933 107.1058491 123.2934184
  24.7360466 100.2329597 116.5496264  23.9391629 100.3448291 117.0679760
  24.5086058 100.5716249 115.6837155  30.5666133 106.7574300 124.4978779
  30.6310566 107.2194708 125.3336951  29.8577057 106.1271665 124.6261089
  21.0683423 100.1215508 122.0227778  21.3191462 101.0062518 122.2885354
  21.6042972  99.9420110 121.2502870  44.8915523 103.5529006 118.6903040
  44.1379231 102.9836404 118.5347044  45.0263064 103.5191670 119.6373675
  30.2814151 108.4242408 114.3657759  30.1459826 109.2693944 114.7942607
  30.8223963 108.6261685 113.6023693  26.7681491  94.5033988 131.0272115
  26.3748436  93.9500186 131.7019759  27.5847631  94.8144566 131.4178632
  23.7343548 105.9417846 114.9385684  24.2468069 106.7361096 115.0891249
  24.3866261 105.2444136 114.8719286  25.5438433 109.0583602 117.0208438
  25.7205061 109.9801567 116.8329422  26.3395267 108.7442021 117.4502817
  29.6849452  95.9191867 128.6192371  30.4259165  96.5199020 128.5396834
  29.9167374  95.1769505 128.0610414  24.8290790 101.1048234 126.8970601
  24.7144305 100.2033491 127.1977700  23.9735307 101.3511931 126.5455417
  31.9082627 109.0465974 128.4958101  31.4646481 108.2602353 128.1779006
  32.5699841 109.2345125 127.8301992  26.6669748 110.5761776 123.0218780
  27.2177174 110.4478839 122.2495774  25.8281224 110.8756665 122.6713673
  34.0063865 109.3268774 126.5239503  33.9882341 110.1477655 126.0319772
  34.9283785 109.2022849 126.7489644  30.4636920 106.8412904 127.3663011
  30.9965256 106.0801192 127.1362319  29.9351001 106.5486556 128.1087166
  33.6306614  91.9472970 122.8956653  33.2870884  92.8374611 122.8195763
  33.9985577  91.7574627 122.0326238  21.6992465 104.2706500 115.7145255
  22.5367687 104.6803509 115.4978963  21.8770733 103.3305942 115.6845449
  33.5956897 101.9381581 111.4029088  33.0803521 102.7086185 111.6417475
  33.3234206 101.2646717 112.0262149  31.1804008  96.7831282 116.4614326
  30.3245605  96.3938132 116.2819965  31.5930960  96.8623242 115.6014112
  32.7103155  94.3177625 120.8605886  32.2067950  94.2807760 120.0473691
  33.0033762  95.2270368 120.9202543  28.9546041  94.4016355 119.8672068
  29.8199038  94.2059163 119.5077957  29.0223550  94.1726706 120.7941425
  38.5691171 104.6913935 113.3382261  37.7920614 104.3525095 112.8937423
  39.2482652 104.6966559 112.6637226  33.3843200  99.8108673 113.2288869
  33.0793336 100.1254822 114.0799012  34.3373643  99.8890093 113.2716202
  31.8289632 105.9698896 114.8781823  31.3010994 105.2351656 114.5655061
  31.3277135 106.7473573 114.6321791  36.8082478 104.1647917 119.9948869
  36.1506153 104.8547178 120.0828998  37.6122877 104.5544349 120.3382856
  26.5608360  96.6318562 117.2388435  27.1352112  96.4093744 116.5061628
  27.1479342  96.7007257 117.9917036  35.6187937 102.5192289 118.0452811
  36.1319819 103.1522281 118.5474521  36.2689161 101.9193485 117.6796171
  26.8877947  98.6623024 111.2584320  26.0515259  98.9997710 111.5793595
  26.7482717  98.5272003 110.3211457  28.8631028  93.5059811 115.9663504
  28.2095440  93.1908829 115.3420119  28.8211502  92.8835552 116.6923327
  29.9742232 103.7879106 107.8816796  29.0669294 103.5568360 108.0807945
  30.4713264 102.9916726 108.0690778  32.8810311 112.4976614 110.8013482
  32.2072010 112.8008310 111.4098440  33.2676133 113.3005694 110.4518939
  32.0968768  99.9941745 120.2911152  31.1791329 100.2156692 120.1332840
  32.5128912 100.0688055 119.4322859  32.8803816 101.3933161 115.4213832
  33.6275635 101.9054558 115.1120954  33.1495405 101.0717213 116.2818225
  31.1530466 103.8891701 112.4040786  30.2441685 103.6050734 112.5013256
  31.1825550 104.3090780 111.5444093  36.3849733 107.4998291 116.1731954
  35.9312060 106.6589201 116.2297144  35.7543700 108.1359689 116.5106734
  35.3282653  98.4290277 117.4032621  34.5905410  97.9167663 117.7342864
  35.5809426  97.9890658 116.5915898  34.8282673 109.3374788 117.1081772
  35.1205647 109.8979845 116.3894138  35.3381293 109.6303349 117.8634931
  35.4294280  91.2066529 117.9974390  35.7353157  90.3463892 117.7100306
  36.1546885  91.7984149 117.7973384  21.7218636 101.6097215 116.3855988
  21.5243036 101.0166576 115.6607055  21.1665300 101.3049426 117.1031927
  29.7015360 101.5020322 118.5050582  29.7563970 100.5494158 118.4293058
  28.8906562 101.6579761 118.9891880  30.8506554 105.4300445 109.7428865
  30.4125984 104.7136304 109.2834502  31.5916995 105.6576560 109.1813956
  27.6407720 100.1197382 116.2640960  26.8275585 100.4191552 116.6706153
  28.1366714  99.7253070 116.9815443  29.7916298 110.1155139 118.1975225
  29.7492476 110.3415985 117.2683757  30.7078997 109.8818513 118.3461026
  33.2381931 100.5839206 125.0955854  33.5931319 100.8110679 125.9550320
  33.8854063 100.9157583 124.4733110  38.9679668 103.7057642 115.8005183
  38.8297567 103.8959238 114.8726373  38.6115887 104.4677025 116.2573234
  27.1321795  97.6915737 121.8802195  27.7721174  97.5504496 121.1825159
  26.2999325  97.4050251 121.5040797  38.9949048 105.7734169 120.8116455
  39.4285555 105.6809458 121.6599509  39.7080629 105.7491670 120.1736471
  27.9082098 106.9918168 117.9937188  28.7022697 106.4968488 117.7919763
  27.1973791 106.4636031 117.6304893  32.7276943 109.3736263 122.3449555
  32.7813965 109.9427199 123.1127271  31.8591724 109.5438148 121.9803593
  24.2164862 101.1361249 114.0696941  23.2862450 101.0745705 114.2866903
  24.3122334 100.6137202 113.2733582  24.1350411  97.6616062 116.6575182
  24.3957228  98.5761395 116.5484343  24.9567583  97.1940505 116.8071795
  25.6075336  99.0753819 123.8274007  26.2798390  98.8671182 123.1786656
  24.7805123  98.8775905 123.3879239  39.8564598 105.8157870 123.3449340
  40.0500488 106.7203680 123.5908615  39.7565216 105.3565289 124.1787925
  31.5100908  95.7015760 125.8439668  30.8628823  96.4005710 125.7504144
  32.2801924  96.1351904 126.2115916  34.9179706 105.9664612 128.9190221
  34.7665213 105.7375164 128.0020305  34.9084386 106.9235214 128.9321566
  31.6865043 103.5396525 123.9036487  32.6157103 103.6907685 123.7305455
  31.2656073 103.6280546 123.0485134  30.4853374 107.5647190 121.6735025
  30.3464460 107.1965974 122.5460963  29.6967971 108.0794829 121.5018983
  31.0801526 112.6656286 113.0160561  31.2553282 112.1944329 113.8306184
  30.3934314 113.2922052 113.2441822  32.0358590 106.9428792 119.0623863
  31.7008422 106.9029562 119.9581513  31.5362535 106.2773508 118.5894273
  26.0102834 102.3496422 124.5876444  25.8722632 101.6176661 125.1887983
  26.9207757 102.2605322 124.3060632  34.9717781 104.2884827 109.3360922
  34.3546952 103.5631655 109.2393975  34.5034270 105.0494187 108.9927997
  28.6385134 102.0616382 124.0760124  29.3484753 101.4209574 124.0346742
  28.5954442 102.3129277 124.9986304  36.6271913 108.9983735 126.9966703
  36.5684459 108.3142955 126.3297286  37.0291431 109.7402725 126.5447329
  27.3514068  99.0481600 125.8955763  26.8151425  98.5972338 126.5477359
  26.7630777  99.1827508 125.1526227  25.6462612 115.8145649 119.7900422
  25.8859210 116.4464173 120.4679440  24.8031808 115.4633689 120.0765781
  26.7616327  98.5070251 108.4582227  25.8845793  98.3859052 108.0944473
  27.2374080  97.7156329 108.2061115  36.6289320 106.9623319 125.2280682
  35.7416099 106.6249241 125.3507081  37.1987871 106.2306350 125.4649448
  18.2818467 103.2947411 118.5523734  18.9689507 102.9809141 117.9644749
  18.1266596 104.1988775 118.2790985  23.0853189  98.1837607 122.9808757
  23.0011378  97.5763277 122.2459167  22.2635896  98.6746626 122.9818254
  30.1590474 111.6224771 122.1941926  30.0860645 112.4279743 122.7061230
  29.7167867 111.8216737 121.3689947  29.9480253 110.8596541 115.7044747
  29.1647775 111.4018222 115.7982972  30.6472998 111.3770521 116.1038988
  33.2576903  96.6691171 118.3478953  33.7545603  95.9161133 118.0280023
  32.4863885  96.7055487 117.7822162  41.1106661 102.3731536 119.9897244
  41.0996537 103.2556252 119.6191177  40.2424040 102.0203087 119.7951781
  32.6189157 111.5211605 124.3500084  33.3317129 112.1559070 124.2775986
  32.1279186 111.6175471 123.5340086  34.3406684 105.4262858 115.9217376
  33.4062963 105.5464320 115.7522080  34.5183352 104.5235325 115.6577386
  29.8411872  98.8108554 118.0750637  29.4709660  98.2579594 118.7631543
  30.3370965  98.2066687 117.5225637  37.7279235 101.2680177 116.4567410
  38.1939688 102.1008169 116.3827713  38.1786736 100.8025159 117.1612669
  27.6701071 109.2706049 125.1705655  28.3710530 109.9042532 125.3235049
  27.1996186 109.6120780 124.4101294  35.7955466 107.6123999 113.4553562
  36.0715310 107.4980593 114.3647436  34.9259965 107.2141483 113.4165735
  35.6995898  93.6360764 120.4958311  34.7858978  93.8664991 120.6640518
  36.1289000  93.7199208 121.3472344  35.4702357 101.8250656 122.9958205
  34.8173807 102.0726564 122.3410658  35.8482737 101.0114794 122.6620683
  32.4309530 111.8610349 117.0986376  32.6131925 111.0432005 117.5614128
  33.2542516 112.0778042 116.6611266  32.7651696 110.7878535 114.3601424
  33.2939462 110.2770989 113.7471586  33.0279916 110.4721065 115.2246957
  31.5189930 102.5670467 129.4824243  30.8430567 102.4664597 130.1526618
  32.3417564 102.4109681 129.9460240  23.2668789 108.8042404 122.1036758
  23.8522226 108.0586092 122.2364662  23.0693627 109.1146361 122.9873422
  26.1207444 111.8393651 117.1199200  25.4517819 112.3239779 116.6363240
  25.9820314 112.0862872 118.0342579  17.8586443 101.3748004 120.8241201
  17.8970543 100.8411595 121.6178319  17.3526736 100.8483210 120.2052178
  30.2612713 113.8737395 123.7181859  30.8131021 114.0369016 124.4830944
  30.6018906 114.4641833 123.0461883  25.2377206  96.2212545 124.3203743
  25.3018532  97.0827375 123.9081141  25.1744326  95.6086546 123.5876102
  24.7129478  98.2935677 127.9676777  25.3401517  97.9112754 128.5814302
  23.8557397  98.0749879 128.3332470  35.1123587 108.6998652 129.5730513
  35.6563491 109.3128611 129.0785468  34.5310432 109.2578231 130.0897526
  21.4895021 100.1012106 113.8995132  21.7848462  99.1922785 113.8462186
  20.5883057 100.0799846 113.5776135  33.3981100 111.8219370 120.7045541
  33.2732239 111.0209110 120.1956486  34.0560191 112.3165564 120.2159511
  25.0189268  98.1768103 119.8822681  24.2975854  98.7904070 119.7430154
  25.8082524  98.7125868 119.8039327  35.4616008 109.6228390 122.3325091
  34.5146344 109.5033742 122.2603418  35.8098781 108.7350888 122.4151352
  27.8215582  95.5122529 126.1563333  28.3449983  95.7584826 126.9189642
  27.6027915  96.3442564 125.7366470  23.2182863  97.7826204 114.0234457
  22.8895569  96.9023583 113.8409563  23.5722233  97.7273873 114.9110847
  32.4662441 109.4181107 118.5329443  32.3187404 108.4897814 118.7137013
  33.2915935 109.4401197 118.0486518  26.3324686  98.0699174 114.3909935
  26.6720758  98.5985095 113.6688544  26.7796806  98.4079580 115.1668502
  36.0696563 110.2409665 119.6194316  36.9943111 110.0352527 119.4818767
  35.9011867 109.9926066 120.5283657  29.0268127  96.4536224 123.8413003
  28.6864947  95.6544037 124.2433683  28.3207133  96.7537935 123.2689836
  29.6784598  93.5385537 122.2940326  30.5010668  93.0646015 122.1719217
  29.9222662  94.3176021 122.7939013  28.3192833  96.5673795 112.5903228
  29.0401195  96.9455048 112.0866945  27.6958137  97.2862672 112.6938206
  32.4623956  97.2718944 113.5261560  32.6787570  98.1543582 113.2250388
  31.9818023  96.8805158 112.7967202  27.2023177 100.2304657 120.1032305
  27.0567758 100.5444961 120.9956586  26.7248381 100.8489558 119.5503203
  29.0619560  97.2207205 120.1513194  29.0481129  96.3248299 119.8145492
  29.7791988  97.2277869 120.7851480  30.9145691  97.6544546 122.1966322
  30.6563469  98.5761616 122.1950652  30.3830731  97.2574980 122.8866786
  35.8591880 110.7595333 114.9756407  36.0328757 110.1941755 114.2230260
  36.3520771 111.5596228 114.7935897  21.6768839 102.7710002 123.0419966
  21.1322307 103.5469810 123.1740240  22.5548189 103.1180806 122.8839087
  28.4656456  96.1021586 115.4200765  28.5872367  95.1738232 115.6191652
  28.1758498  96.1160272 114.5079080  31.3347646  93.7876496 118.5567484
  31.3569343  93.8515829 117.6019464  31.7515705  92.9481005 118.7507991
  41.7131271 103.5231756 116.5946707  42.1562417 102.7739081 116.1965830
  40.8357781 103.5141892 116.2120439  36.8467052 110.0762097 112.0753305
  37.5417957 110.6968790 112.2940620  37.1890202 109.2257448 112.3505683
  22.4634861 101.8979898 125.9350123  21.7216597 102.0462533 126.5214753
  22.1427605 102.1588164 125.0716872  38.7458475 107.5261803 113.6040636
  39.2709799 107.8649075 112.8789956  38.6580828 106.5908818 113.4203771
  30.4078524 111.4395876 125.7330513  30.7165650 111.1945023 126.6053212
  31.2054006 111.6442515 125.2449383  30.4299136 113.5933786 117.9635889
  29.9904126 113.1010165 118.6568746  31.1807253 113.0506754 117.7227965
  22.9091475 109.7845327 117.9660518  23.7349495 109.4849099 117.5859161
  22.5585527 109.0152949 118.4150306  27.8773008 109.1371795 120.0358191
  27.2553017 108.4742500 119.7360419  28.5477875 109.1632927 119.3531839
  21.1100080 107.7031653 118.9249451  20.2731988 107.2753828 118.7433452
  21.0823725 107.8964097 119.8620242  27.9497536  97.6153583 129.6290697
  27.9985691  98.4915706 129.2468467  28.4920050  97.0730976 129.0562340
  38.4352381 108.1594706 128.9091834  37.6447925 108.1418845 128.3696334
  38.1985736 108.6983000 129.6640871  38.5550256 105.0087173 126.2224563
  38.6048261 104.8437180 127.1640086  38.4464180 104.1414432 125.8322444
  27.4386515 107.6875718 113.5116652  27.5874635 108.3711183 112.8583324
  28.2452958 107.6680808 114.0266107  35.8454019 100.9918101 127.5383869
  36.7463881 100.8524566 127.2467867  35.9201993 101.1572556 128.4782047
  30.1796824  98.3684955 126.3837056  29.3100133  98.6618522 126.1119644
  30.4156304  98.9525400 127.1044319  40.0568453 107.4284114 126.4666584
  39.7653261 107.7914095 127.3030045  39.4440584 106.7151123 126.2879916
  41.2564135 104.9936994 118.9869155  42.0911027 105.4326798 119.1506715
  41.3923264 104.5175647 118.1677400  38.3055641 102.5516729 124.9346642
  38.7809763 102.7444375 124.1265494  37.3821207 102.6075915 124.6890026
  25.1939148 103.7140896 114.5177721  24.9485190 102.8103226 114.7157931
  25.3635062 103.7158046 113.5757199  32.8835858  94.5864572 123.9002476
  33.4017802  95.3225599 123.5748965  32.5290991  94.8928566 124.7349235
  24.4634795  99.4469254 112.0163882  23.7704040  99.5213609 111.3603918
  24.2186547  98.6829597 112.5385399  33.1348452  91.0064855 119.4203373
  33.4150206  90.3388044 120.0463799  33.9199059  91.1993951 118.9078037
  30.9381920 110.1823849 110.9828399  30.3655888 110.8014036 110.5298871
  31.5114714 110.7323211 111.5168321  37.0057310  99.4282489 123.1674948
  37.9574733  99.5280587 123.1887172  36.8360761  98.6360757 123.6773032
  35.0271690  96.5138072 123.3534349  34.4321622  96.7943085 122.6580837
  34.7421386  97.0031973 124.1251090  34.1579180 110.4660999 112.1136981
  35.0909853 110.4006561 112.3169857  34.0702393 111.3017266 111.6551514
  36.7867197 109.7826869 109.0740929  36.7080828 109.4486733 109.9676687
  37.6076864 110.2748637 109.0732401  39.4845388 102.6488609 122.2817248
  39.4521708 101.7104609 122.4676931  40.0946012 102.7272645 121.5483072
  31.3228719 101.5184662 108.3244452  32.2687824 101.3890870 108.3932870
  30.9442964 100.7799324 108.8013880  39.6339877  99.4399652 122.3275531
  39.1178925  98.6558109 122.1405460  40.5179825  99.1118369 122.4922050
  37.2950603  93.1840668 118.2871343  37.0975425  92.8755756 119.1714675
  37.9050309  93.9102307 118.4169273  45.3021938 103.7104615 121.4223284
  46.0325326 103.4489904 121.9830988  44.6928883 102.9733337 121.4625352
  43.3837235 101.8512478 122.0197736  42.6570399 101.7168443 121.4114227
  42.9684522 102.1589307 122.8254454  31.2067411 105.5702408 129.7845109
  32.1270421 105.7481007 129.9785155  31.1716995 104.6258453 129.6324808
  29.5071636  99.4434638 108.2599337  28.6003092  99.1467751 108.3362050
  29.7847617  99.1464456 107.3933623  20.4249576 100.7641001 118.7098383
  20.1052361  99.9106310 118.4172757  19.8783005 100.9789580 119.4656351
  24.2029484 103.4803442 122.4267890  24.4215494 104.4120550 122.4455924
  24.6155258 103.1211417 123.2122694  31.1233702  93.9871528 114.4143578
  30.3134430  93.6418613 114.7898824  31.8118119  93.6779071 115.0031190
  33.0524250  93.0649575 116.0367875  33.6055289  93.4845028 116.6957898
  33.2894336  92.1385323 116.0790831  29.0757349  99.0536648 131.8170639
  28.9754076 100.0031005 131.7482730  28.8578891  98.7254887 130.9446709
  28.2770421  96.3021573 108.4011316  29.1389585  96.6276472 108.6607133
  28.4620765  95.5153069 107.8884382  20.2937836 104.3843913 120.6791505
  19.6001308 103.9697866 120.1661459  21.0410827 104.4264449 120.0824924
  36.4303057  95.1750100 115.5446539  35.8501726  95.8334904 115.1624591
  36.1638990  94.3527444 115.1333956  34.8806624  94.5755157 117.7467859
  35.3806402  94.6871692 116.9382178  35.5242232  94.2716210 118.3868668
  28.9388619 102.4833787 130.6335700  28.4555701 103.2834147 130.8399589
  29.0249558 102.4941732 129.6803144  22.2074579 104.3162167 118.5557520
  22.1845267 104.4149854 117.6039403  22.5175216 105.1627317 118.8774686
  24.8661957 106.3738322 122.6704134  25.8205210 106.3422264 122.6034066
  24.6674480 105.9128945 123.4854360  25.4561339 104.9439438 125.2374932
  26.2754228 105.4383516 125.2609769  25.7298147 104.0271406 125.2092499
  35.2127935  97.3350190 114.6002887  34.3253790  97.6199841 114.3823082
  35.6281924  97.1743953 113.7530164  38.5642471  97.3596711 118.3157226
  39.3402861  97.8493163 118.5881843  37.8390606  97.7854765 118.7729096
  41.0015030  98.0724330 119.3731167  41.5959521  97.8320066 118.6624475
  41.0741614  97.3531461 120.0004703  23.2212186 111.9157941 119.6874332
  23.0866654 111.1558342 119.1212330  22.8044248 112.6398841 119.2203121
  34.3571149 107.0994865 108.6950907  35.0606999 107.3044867 109.3108563
  33.6333797 107.6671627 108.9599991  35.1868959 102.8504726 114.8153177
  35.1304160 103.3073277 113.9760810  35.7397301 102.0895411 114.6376020
  38.9973765  98.6394458 115.6403297  38.7410699  98.2391094 116.4711505
  38.3726633  99.3538252 115.5153436  43.3086103 101.3790531 118.1474588
  42.7485661 101.4483720 118.9206150  42.7029606 101.2031516 117.4274085
  26.3781312 112.8127258 119.8992775  26.2613696 113.7572691 119.7971465
  25.5573758 112.5100820 120.2878574  36.2657846 107.5377394 110.7449367
  37.1003450 107.1058592 110.5626842  36.1042189 107.3659408 111.6726262
  35.9203738 104.0409507 112.1105707  35.8652542 103.8753779 111.1694151
  35.2949794 104.7485540 112.2667896  20.7096253  99.2777572 125.9367129
  21.3555117  98.7676526 126.4254354  20.5013404 100.0146253 126.5110554
  33.2349645 106.3458419 131.4359269  34.1040805 106.5199071 131.0745904
  32.7556397 107.1652836 131.3134999  29.2299864  93.5417616 111.6891025
  29.2178534  94.4859456 111.8459296  30.1223286  93.3587762 111.3950486
  27.4035826 113.4655520 123.1148703  28.3063072 113.4979130 123.4315198
  27.1773196 112.5355971 123.1295039  29.1589428 112.2186507 119.7758782
  28.2085059 112.2188368 119.6623154  29.4621914 111.4719241 119.2594816
  33.0451983  90.1360393 115.9436962  32.2784379  89.5818880 116.0893644
  33.4562688  90.2082262 116.8051113  25.0493744  96.4245189 130.0342143
  25.9125206  96.0681994 130.2445468  24.4759155  96.0859084 130.7217547
  44.8942121 118.0547045 120.8404544  45.5320531 117.9353792 120.1367884
  44.7762964 119.0027889 120.8992496  41.7031827 118.0074473 120.7766069
  41.3650339 117.8915538 119.8886604  42.5721596 117.6065638 120.7567075
  37.5618643 119.8609950 116.7662960  36.9983508 119.7699886 115.9979247
  37.4471038 119.0409854 117.2465452  42.1851610 119.1609325 126.7352274
  42.1740251 118.7662123 125.8632778  42.3472250 118.4275397 127.3286046
  35.1083075 121.3561141 119.6047180  35.9004367 121.0151966 119.1893479
  35.3479725 121.4656116 120.5249333  43.1418202 123.5280917 112.0777425
  42.4906182 124.1134998 111.6911438  43.9362565 124.0587112 112.1372462
  37.0673829 120.6170054 112.4764559  37.8404705 120.0699041 112.3377435
  37.4199228 121.4814304 112.6879020  38.9058872 121.9446437 125.6831458
  38.6148738 122.8492068 125.5678125  39.5415856 121.9862964 126.3975528
  39.8315078 119.3223285 122.2732818  40.4278651 119.0979308 121.5589781
  39.8890050 118.5808031 122.8758266  39.4040107 116.7762721 110.1083009
  39.6565628 116.2544242 109.3466472  38.4664666 116.6128866 110.2109692
  44.4483390 115.7798499 117.9157752  45.2346479 115.3617922 117.5648169
  44.7122094 116.6844591 118.0839400  44.6193467 121.2171349 112.6146409
  43.9839300 121.2905976 113.3267314  44.2890873 121.8064948 111.9365488
  49.8491817 115.7173732 118.8190731  50.5816989 115.1472949 119.0528560
  49.0931173 115.3295333 119.2597236  39.1236396 118.6790826 112.3107384
  39.0072654 118.0035730 112.9788468  39.2338655 118.1923200 111.4939537
  41.4667937 118.1400974 116.0154073  41.1026144 117.6131595 116.7266995
  42.3235052 117.7499443 115.8420558  47.3717237 109.4295306 123.2785339
  47.0400562 110.2990717 123.0546554  46.7762851 109.1131590 123.9579370
  41.1073424 113.1690873 111.0115422  41.2747826 114.0371110 111.3785893
  40.9170593 113.3318155 110.0876711  43.8648757 121.6307852 122.6781252
  43.5649480 122.5332891 122.5697059  43.5199816 121.3640035 123.5302405
  37.3161238 118.0821649 118.7117956  36.3911735 117.9497863 118.9195648
  37.5645651 118.8615868 119.2087899  47.2645900 114.1490392 120.3578689
  46.3562778 114.0805801 120.0637450  47.2133496 114.6262337 121.1860515
  41.0862644 115.6248531 111.9962088  40.9662270 116.0705582 112.8347569
  40.3915233 115.9733848 111.4375627  34.6770049 117.7254923 119.5461745
  34.8062430 117.9789402 120.4601157  33.9967501 118.3182631 119.2266400
  38.8469536 128.3952173 115.6452220  38.7693566 129.3459998 115.7240700
  38.2431180 128.0498045 116.3027146  41.3386766 115.5680038 128.3013587
  40.5620100 116.1273958 128.2916451  41.9777329 116.0536821 128.8228457
  49.1307547 112.3506831 122.1356563  48.4881927 112.6439364 121.4896358
  48.6262475 112.2359751 122.9409760  46.7847711 116.0970004 112.8242422
  47.6965567 116.3297391 112.6490120  46.2757358 116.6807048 112.2617501
  39.5933139 118.3765491 127.8631554  40.3347823 118.9150535 127.5866377
  38.8870124 119.0031780 128.0203105  45.0688478 120.5194632 126.4603715
  45.4771834 120.0777042 125.7158347  44.3465740 119.9447259 126.7137908
  41.4219548 115.4567239 123.8337272  42.2680743 115.8806652 123.9771921
  41.3618186 114.8000863 124.5275835  45.3917293 121.0795822 120.2156004
  44.7626155 121.2441537 119.5132072  45.0042955 121.4937432 120.9866968
  49.2706525 122.0150260 117.5700368  48.5857563 122.3949162 117.0197401
  49.3550374 122.6245587 118.3032315  44.5718994 113.1171607 125.4918446
  44.3279925 113.8713667 124.9552721  44.8478924 113.4956955 126.3265693
  46.5257456 119.6610219 124.1695711  46.7374352 120.3041979 123.4930092
  46.4787205 118.8272536 123.7017641  44.1283685 112.2728040 121.0732283
  43.2668164 112.5709293 121.3649021  44.1546120 112.4898439 120.1413316
  40.9445255 120.8170230 117.4806089  41.4083600 121.0957933 116.6910711
  40.6802053 119.9153675 117.2979180  37.8369336 120.3641712 120.4185852
  38.4070693 120.7928980 119.7803337  38.4277448 120.0824297 121.1170038
  39.8814141 116.9393383 114.2895654  40.5838184 117.3914427 114.7569580
  39.5494769 116.2977202 114.9175547  38.3294502 115.5305139 128.6646864
  37.6993163 116.2121420 128.8982260  38.2230590 115.4188221 127.7200002
  33.6239475 115.1976936 119.5912788  32.8338529 115.4534464 119.1152898
  34.1150722 116.0125273 119.6964828  47.6403284 122.5382175 122.3418069
  48.4620728 122.1362362 122.0600750  47.6365687 122.4350409 123.2934184
  35.5754220 115.5621515 116.5496264  34.7785383 115.6740209 117.0679760
  35.3479812 115.9008167 115.6837155  41.4059888 122.0866218 124.4978779
  41.4704320 122.5486625 125.3336951  40.6970812 121.4563583 124.6261089
  31.9077178 115.4507426 122.0227778  32.1585216 116.3354436 122.2885354
  32.4436726 115.2712028 121.2502870  55.7309277 118.8820923 118.6903040
  54.9772986 118.3128321 118.5347044  55.8656819 118.8483588 119.6373675
  41.1207905 123.7534325 114.3657759  40.9853580 124.5985861 114.7942607
  41.6617718 123.9553603 113.6023693  37.6075245 109.8325905 131.0272115
  37.2142191 109.2792104 131.7019759  38.4241385 110.1436484 131.4178632
  34.5737303 121.2709764 114.9385684  35.0861823 122.0653014 115.0891249
  35.2260016 120.5736054 114.8719286  36.3832188 124.3875520 117.0208438
  36.5598816 125.3093485 116.8329422  37.1789021 124.0733939 117.4502817
  40.5243206 111.2483784 128.6192371  41.2652919 111.8490938 128.5396834
  40.7561129 110.5061422 128.0610414  35.6684544 116.4340152 126.8970601
  35.5538059 115.5325409 127.1977700  34.8129062 116.6803848 126.5455417
  42.7476382 124.3757892 128.4958101  42.3040236 123.5894271 128.1779006
  43.4093595 124.5637043 127.8301992  37.5063503 125.9053694 123.0218780
  38.0570928 125.7770757 122.2495774  36.6674979 126.2048583 122.6713673
  44.8457620 124.6560692 126.5239503  44.8276095 125.4769573 126.0319772
  45.7677540 124.5314767 126.7489644  41.3030674 122.1704821 127.3663011
  41.8359011 121.4093110 127.1362319  40.7744755 121.8778473 128.1087166
  44.4700369 107.2764887 122.8956653  44.1264638 108.1666529 122.8195763
  44.8379332 107.0866545 122.0326238  32.5386220 119.5998418 115.7145255
  33.3761442 120.0095426 115.4978963  32.7164487 118.6597860 115.6845449
  44.4350652 117.2673498 111.4029088  43.9197275 118.0378103 111.6417475
  44.1627960 116.5938635 112.0262149  42.0197763 112.1123199 116.4614326
  41.1639359 111.7230050 116.2819965  42.4324714 112.1915160 115.6014112
  43.5496909 109.6469543 120.8605886  43.0461705 109.6099678 120.0473691
  43.8427516 110.5562285 120.9202543  39.7939795 109.7308272 119.8672068
  40.6592792 109.5351081 119.5077957  39.8617304 109.5018624 120.7941425
  49.4084926 120.0205853 113.3382261  48.6314369 119.6817013 112.8937423
  50.0876407 120.0258476 112.6637226  44.2236955 115.1400591 113.2288869
  43.9187090 115.4546740 114.0799012  45.1767397 115.2182010 113.2716202
  42.6683387 121.2990814 114.8781823  42.1404748 120.5643573 114.5655061
  42.1670889 122.0765490 114.6321791  47.6476233 119.4939834 119.9948869
  46.9899907 120.1839096 120.0828998  48.4516632 119.8836266 120.3382856
  37.4002114 111.9610480 117.2388435  37.9745866 111.7385662 116.5061628
  37.9873097 112.0299175 117.9917036  46.4581692 117.8484207 118.0452811
  46.9713573 118.4814199 118.5474521  47.1082915 117.2485403 117.6796171
  37.7271701 113.9914941 111.2584320  36.8909014 114.3289628 111.5793595
  37.5876471 113.8563921 110.3211457  39.7024782 108.8351729 115.9663504
  39.0489194 108.5200746 115.3420119  39.6605256 108.2127470 116.6923327
  40.8135987 119.1171024 107.8816796  39.9063049 118.8860278 108.0807945
  41.3107019 118.3208643 108.0690778  43.7204066 127.8268531 110.8013482
  43.0465765 128.1300228 111.4098440  44.1069888 128.6297612 110.4518939
  42.9362522 115.3233663 120.2911152  42.0185084 115.5448610 120.1332840
  43.3522666 115.3979973 119.4322859  43.7197570 116.7225078 115.4213832
  44.4669389 117.2346476 115.1120954  43.9889160 116.4009131 116.2818225
  41.9924220 119.2183619 112.4040786  41.0835440 118.9342652 112.5013256
  42.0219304 119.6382698 111.5444093  47.2243488 122.8290209 116.1731954
  46.7705815 121.9881118 116.2297144  46.5937454 123.4651607 116.5106734
  46.1676407 113.7582195 117.4032621  45.4299164 113.2459581 117.7342864
  46.4203181 113.3182576 116.5915898  45.6676427 124.6666705 117.1081772
  45.9599401 125.2271762 116.3894138  46.1775048 124.9595266 117.8634931
  46.2688035 106.5358447 117.9974390  46.5746911 105.6755810 117.7100306
  46.9940639 107.1276067 117.7973384  32.5612391 116.9389133 116.3855988
  32.3636791 116.3458494 115.6607055  32.0059055 116.6341343 117.1031927
  40.5409114 116.8312240 118.5050582  40.5957724 115.8786076 118.4293058
  39.7300316 116.9871679 118.9891880  41.6900308 120.7592363 109.7428865
  41.2519738 120.0428222 109.2834502  42.4310749 120.9868478 109.1813956
  38.4801474 115.4489299 116.2640960  37.6669340 115.7483470 116.6706153
  38.9760468 115.0544988 116.9815443  40.6310052 125.4447056 118.1975225
  40.5886231 125.6707903 117.2683757  41.5472751 125.2110431 118.3461026
  44.0775686 115.9131124 125.0955854  44.4325074 116.1402597 125.9550320
  44.7247817 116.2449501 124.4733110  49.8073423 119.0349560 115.8005183
  49.6691322 119.2251156 114.8726373  49.4509642 119.7968943 116.2573234
  37.9715549 113.0207655 121.8802195  38.6114928 112.8796414 121.1825159
  37.1393080 112.7342168 121.5040797  49.8342803 121.1026087 120.8116455
  50.2679309 121.0101376 121.6599509  50.5474383 121.0783587 120.1736471
  38.7475853 122.3210085 117.9937188  39.5416451 121.8260405 117.7919763
  38.0367545 121.7927948 117.6304893  43.5670697 124.7028181 122.3449555
  43.6207720 125.2719117 123.1127271  42.6985479 124.8730066 121.9803593
  35.0558616 116.4653167 114.0696941  34.1256205 116.4037623 114.2866903
  35.1516088 115.9429120 113.2733582  34.9744165 112.9907980 116.6575182
  35.2350983 113.9053313 116.5484343  35.7961338 112.5232422 116.8071795
  36.4469091 114.4045737 123.8274007  37.1192144 114.1963099 123.1786656
  35.6198877 114.2067823 123.3879239  50.6958352 121.1449787 123.3449340
  50.8894242 122.0495598 123.5908615  50.5958970 120.6857206 124.1787925
  42.3494663 111.0307678 125.8439668  41.7022578 111.7297628 125.7504144
  43.1195678 111.4643822 126.2115916  45.7573461 121.2956530 128.9190221
  45.6058967 121.0667082 128.0020305  45.7478140 122.2527132 128.9321566
  42.5258797 118.8688443 123.9036487  43.4550857 119.0199602 123.7305455
  42.1049827 118.9572464 123.0485134  41.3247129 122.8939107 121.6735025
  41.1858215 122.5257892 122.5460963  40.5361725 123.4086747 121.5018983
  41.9195281 127.9948204 113.0160561  42.0947037 127.5236247 113.8306184
  41.2328069 128.6213970 113.2441822  42.8752344 122.2720710 119.0623863
  42.5402177 122.2321480 119.9581513  42.3756290 121.6065426 118.5894273
  36.8496588 117.6788340 124.5876444  36.7116386 116.9468579 125.1887983
  37.7601512 117.5897240 124.3060632  45.8111536 119.6176744 109.3360922
  45.1940706 118.8923572 109.2393975  45.3428024 120.3786105 108.9927997
  39.4778889 117.3908299 124.0760124  40.1878507 116.7501492 124.0346742
  39.4348197 117.6421194 124.9986304  47.4665667 124.3275653 126.9966703
  47.4078214 123.6434873 126.3297286  47.8685186 125.0694643 126.5447329
  38.1907823 114.3773517 125.8955763  37.6545180 113.9264256 126.5477359
  37.6024531 114.5119426 125.1526227  36.4856366 131.1437567 119.7900422
  36.7252964 131.7756091 120.4679440  35.6425563 130.7925607 120.0765781
  37.6010082 113.8362169 108.4582227  36.7239548 113.7150969 108.0944473
  38.0767835 113.0448247 108.2061115  47.4683075 122.2915237 125.2280682
  46.5809853 121.9541158 125.3507081  48.0381626 121.5598268 125.4649448
  29.1212222 118.6239328 118.5523734  29.8083262 118.3101058 117.9644749
  28.9660350 119.5280693 118.2790985  33.9246944 113.5129525 122.9808757
  33.8405133 112.9055194 122.2459167  33.1029650 114.0038543 122.9818254
  40.9984228 126.9516689 122.1941926  40.9254400 127.7571660 122.7061230
  40.5561621 127.1508655 121.3689947  40.7874008 126.1888459 115.7044747
  40.0041530 126.7310139 115.7982972  41.4866753 126.7062439 116.1038988
  44.0970658 111.9983088 118.3478953  44.5939357 111.2453051 118.0280023
  43.3257639 112.0347405 117.7822162  51.9500415 117.7023454 119.9897244
  51.9390291 118.5848169 119.6191177  51.0817795 117.3495005 119.7951781
  43.4582912 126.8503523 124.3500084  44.1710884 127.4850988 124.2775986
  42.9672940 126.9467389 123.5340086  45.1800438 120.7554776 115.9217376
  44.2456717 120.8756238 115.7522080  45.3577107 119.8527242 115.6577386
  40.6805627 114.1400471 118.0750637  40.3103414 113.5871512 118.7631543
  41.1764719 113.5358605 117.5225637  48.5672990 116.5972095 116.4567410
  49.0333442 117.4300087 116.3827713  49.0180490 116.1317077 117.1612669
  38.5094825 124.5997966 125.1705655  39.2104285 125.2334449 125.3235049
  38.0389940 124.9412698 124.4101294  46.6349221 122.9415916 113.4553562
  46.9109065 122.8272511 114.3647436  45.7653720 122.5433401 113.4165735
  46.5389653 108.9652682 120.4958311  45.6252732 109.1956909 120.6640518
  46.9682754 109.0491126 121.3472344  46.3096111 117.1542574 122.9958205
  45.6567561 117.4018481 122.3410658  46.6876491 116.3406712 122.6620683
  43.2703285 127.1902267 117.0986376  43.4525680 126.3723923 117.5614128
  44.0936271 127.4069959 116.6611266  43.6045450 126.1170452 114.3601424
  44.1333217 125.6062907 113.7471586  43.8673670 125.8012982 115.2246957
  42.3583684 117.8962385 129.4824243  41.6824321 117.7956514 130.1526618
  43.1811318 117.7401599 129.9460240  34.1062543 124.1334322 122.1036758
  34.6915980 123.3878009 122.2364662  33.9087382 124.4438278 122.9873422
  36.9601198 127.1685569 117.1199200  36.2911574 127.6531697 116.6363240
  36.8214068 127.4154789 118.0342579  28.6980198 116.7039922 120.8241201
  28.7364297 116.1703512 121.6178319  28.1920491 116.1775127 120.2052178
  41.1006467 129.2029312 123.7181859  41.6524775 129.3660934 124.4830944
  41.4412660 129.7933750 123.0461883  36.0770960 111.5504462 124.3203743
  36.1412287 112.4119293 123.9081141  36.0138080 110.9378464 123.5876102
  35.5523233 113.6227595 127.9676777  36.1795272 113.2404672 128.5814302
  34.6951152 113.4041797 128.3332470  45.9517341 124.0290570 129.5730513
  46.4957245 124.6420528 129.0785468  45.3704186 124.5870148 130.0897526
  32.3288776 115.4304024 113.8995132  32.6242217 114.5214702 113.8462186
  31.4276811 115.4091763 113.5776135  44.2374854 127.1511288 120.7045541
  44.1125994 126.3501028 120.1956486  44.8953945 127.6457481 120.2159511
  35.8583023 113.5060020 119.8822681  35.1369608 114.1195988 119.7430154
  36.6476278 114.0417785 119.8039327  46.3009763 124.9520308 122.3325091
  45.3540098 124.8325659 122.2603418  46.6492536 124.0642806 122.4151352
  38.6609336 110.8414447 126.1563333  39.1843738 111.0876743 126.9189642
  38.4421669 111.6734482 125.7366470  34.0576617 113.1118122 114.0234457
  33.7289323 112.2315500 113.8409563  34.4115988 113.0565790 114.9110847
  43.3056196 124.7473024 118.5329443  43.1581158 123.8189732 118.7137013
  44.1309689 124.7693115 118.0486518  37.1718440 113.3991091 114.3909935
  37.5114513 113.9277013 113.6688544  37.6190561 113.7371497 115.1668502
  46.9090318 125.5701583 119.6194316  47.8336865 125.3644444 119.4818767
  46.7405621 125.3217984 120.5283657  39.8661881 111.7828142 123.8413003
  39.5258701 110.9835955 124.2433683  39.1600887 112.0829853 123.2689836
  40.5178353 108.8677454 122.2940326  41.3404422 108.3937933 122.1719217
  40.7616416 109.6467938 122.7939013  39.1586587 111.8965713 112.5903228
  39.8794950 112.2746966 112.0866945  38.5351892 112.6154590 112.6938206
  43.3017710 112.6010862 113.5261560  43.5181325 113.4835500 113.2250388
  42.8211777 112.2097075 112.7967202  38.0416932 115.5596575 120.1032305
  37.8961512 115.8736878 120.9956586  37.5642135 116.1781475 119.5503203
  39.9013315 112.5499123 120.1513194  39.8874883 111.6540216 119.8145492
  40.6185743 112.5569787 120.7851480  41.7539445 112.9836463 122.1966322
  41.4957223 113.9053534 122.1950652  41.2224486 112.5866898 122.8866786
  46.6985634 126.0887250 114.9756407  46.8722512 125.5233673 114.2230260
  47.1914525 126.8888145 114.7935897  32.5162594 118.1001920 123.0419966
  31.9716062 118.8761727 123.1740240  33.3941944 118.4472724 122.8839087
  39.3050210 111.4313503 115.4200765  39.4266122 110.5030150 115.6191652
  39.0152253 111.4452189 114.5079080  42.1741401 109.1168414 118.5567484
  42.1963098 109.1807747 117.6019464  42.5909460 108.2772922 118.7507991
  52.5525025 118.8523673 116.5946707  52.9956171 118.1030999 116.1965830
  51.6751535 118.8433810 116.2120439  47.6860806 125.4054015 112.0753305
  48.3811711 126.0260708 112.2940620  48.0283957 124.5549366 112.3505683
  33.3028616 117.2271816 125.9350123  32.5610352 117.3754451 126.5214753
  32.9821360 117.4880081 125.0716872  49.5852230 122.8553720 113.6040636
  50.1103554 123.1940993 112.8789956  49.4974582 121.9200736 113.4203771
  41.2472278 126.7687794 125.7330513  41.5559405 126.5236941 126.6053212
  42.0447760 126.9734432 125.2449383  41.2692890 128.9225704 117.9635889
  40.8297881 128.4302082 118.6568746  42.0201007 128.3798671 117.7227965
  33.7485229 125.1137245 117.9660518  34.5743249 124.8141016 117.5859161
  33.3979281 124.3444867 118.4150306  38.7166763 124.4663713 120.0358191
  38.0946772 123.8034418 119.7360419  39.3871629 124.4924845 119.3531839
  31.9493834 123.0323571 118.9249451  31.1125743 122.6045745 118.7433452
  31.9217480 123.2256014 119.8620242  38.7891290 112.9445501 129.6290697
  38.8379445 113.8207624 129.2468467  39.3313804 112.4022894 129.0562340
  49.2746136 123.4886624 128.9091834  48.4841679 123.4710763 128.3696334
  49.0379490 124.0274918 129.6640871  49.3944011 120.3379090 126.2224563
  49.4442016 120.1729098 127.1640086  49.2857934 119.4706349 125.8322444
  38.2780269 123.0167636 113.5116652  38.4268390 123.7003100 112.8583324
  39.0846713 122.9972726 114.0266107  46.6847773 116.3210018 127.5383869
  47.5857636 116.1816483 127.2467867  46.7595748 116.4864473 128.4782047
  41.0190578 113.6976873 126.3837056  40.1493888 113.9910439 126.1119644
  41.2550059 114.2817318 127.1044319  50.8962208 122.7576032 126.4666584
  50.6047016 123.1206012 127.3030045  50.2834339 122.0443040 126.2879916
  52.0957890 120.3228912 118.9869155  52.9304781 120.7618716 119.1506715
  52.2317019 119.8467565 118.1677400  49.1449396 117.8808647 124.9346642
  49.6203517 118.0736293 124.1265494  48.2214961 117.9367832 124.6890026
  36.0332902 119.0432814 114.5177721  35.7878944 118.1395144 114.7157931
  36.2028817 119.0449964 113.5757199  43.7229612 109.9156490 123.9002476
  44.2411556 110.6517517 123.5748965  43.3684745 110.2220483 124.7349235
  35.3028550 114.7761171 112.0163882  34.6097795 114.8505526 111.3603918
  35.0580302 114.0121515 112.5385399  43.9742206 106.3356773 119.4203373
  44.2543960 105.6679962 120.0463799  44.7592813 106.5285868 118.9078037
  41.7775675 125.5115767 110.9828399  41.2049642 126.1305954 110.5298871
  42.3508469 126.0615128 111.5168321  47.8451065 114.7574407 123.1674948
  48.7968488 114.8572504 123.1887172  47.6754515 113.9652675 123.6773032
  45.8665444 111.8429990 123.3534349  45.2715376 112.1235003 122.6580837
  45.5815141 112.3323891 124.1251090  44.9972935 125.7952917 112.1136981
  45.9303608 125.7298478 112.3169857  44.9096148 126.6309184 111.6551514
  47.6260951 125.1118787 109.0740929  47.5474583 124.7778651 109.9676687
  48.4470618 125.6040555 109.0732401  50.3239143 117.9780526 122.2817248
  50.2915463 117.0396527 122.4676931  50.9339766 118.0564563 121.5483072
  42.1622473 116.8476579 108.3244452  43.1081578 116.7182787 108.3932870
  41.7836718 116.1091241 108.8013880  50.4733631 114.7691570 122.3275531
  49.9572680 113.9850026 122.1405460  51.3573580 114.4410286 122.4922050
  48.1344358 108.5132585 118.2871343  47.9369179 108.2047673 119.1714675
  48.7444064 109.2394224 118.4169273  56.1415692 119.0396533 121.4223284
  56.8719081 118.7781821 121.9830988  55.5322638 118.3025255 121.4625352
  54.2230990 117.1804396 122.0197736  53.4964153 117.0460361 121.4114227
  53.8078276 117.4881224 122.8254454  42.0461166 120.8994325 129.7845109
  42.9664175 121.0772924 129.9785155  42.0110749 119.9550371 129.6324808
  40.3465391 114.7726556 108.2599337  39.4396846 114.4759668 108.3362050
  40.6241372 114.4756374 107.3933623  31.2643331 116.0932919 118.7098383
  30.9446115 115.2398227 118.4172757  30.7176759 116.3081497 119.4656351
  35.0423239 118.8095360 122.4267890  35.2609248 119.7412468 122.4455924
  35.4549012 118.4503334 123.2122694  41.9627456 109.3163445 114.4143578
  41.1528185 108.9710530 114.7898824  42.6511873 109.0070989 115.0031190
  43.8918005 108.3941492 116.0367875  44.4449043 108.8136946 116.6957898
  44.1288091 107.4677240 116.0790831  39.9151104 114.3828566 131.8170639
  39.8147831 115.3322923 131.7482730  39.6972646 114.0546805 130.9446709
  39.1164175 111.6313491 108.4011316  39.9783339 111.9568389 108.6607133
  39.3014519 110.8444987 107.8884382  31.1331591 119.7135831 120.6791505
  30.4395062 119.2989783 120.1661459  31.8804582 119.7556367 120.0824924
  47.2696812 110.5042017 115.5446539  46.6895481 111.1626821 115.1624591
  47.0032744 109.6819362 115.1333956  45.7200378 109.9047075 117.7467859
  46.2200156 110.0163610 116.9382178  46.3635986 109.6008128 118.3868668
  39.7782374 117.8125705 130.6335700  39.2949456 118.6126065 130.8399589
  39.8643313 117.8233650 129.6803144  33.0468334 119.6454084 118.5557520
  33.0239022 119.7441772 117.6039403  33.3568970 120.4919235 118.8774686
  35.7055711 121.7030239 122.6704134  36.6598965 121.6714182 122.6034066
  35.5068235 121.2420863 123.4854360  36.2955094 120.2731355 125.2374932
  37.1147983 120.7675434 125.2609769  36.5691901 119.3563324 125.2092499
  46.0521690 112.6642108 114.6002887  45.1647545 112.9491758 114.3823082
  46.4675679 112.5035871 113.7530164  49.4036226 112.6888629 118.3157226
  50.1796616 113.1785081 118.5881843  48.6784360 113.1146683 118.7729096
  51.8408784 113.4016248 119.3731167  52.4353275 113.1611984 118.6624475
  51.9135368 112.6823378 120.0004703  34.0605940 127.2449859 119.6874332
  33.9260408 126.4850260 119.1212330  33.6438002 127.9690759 119.2203121
  45.1964903 122.4286782 108.6950907  45.9000753 122.6336785 109.3108563
  44.4727552 122.9963544 108.9599991  46.0262713 118.1796644 114.8153177
  45.9697915 118.6365195 113.9760810  46.5791056 117.4187328 114.6376020
  49.8367519 113.9686376 115.6403297  49.5804454 113.5683011 116.4711505
  49.2120387 114.6830169 115.5153436  54.1479857 116.7082449 118.1474588
  53.5879415 116.7775638 118.9206150  53.5423361 116.5323433 117.4274085
  37.2175066 128.1419176 119.8992775  37.1007450 129.0864608 119.7971465
  36.3967512 127.8392737 120.2878574  47.1051601 122.8669312 110.7449367
  47.9397205 122.4350510 110.5626842  46.9435944 122.6951325 111.6726262
  46.7597493 119.3701425 112.1105707  46.7046297 119.2045696 111.1694151
  46.1343548 120.0777458 112.2667896  31.5490008 114.6069489 125.9367129
  32.1948871 114.0968443 126.4254354  31.3407159 115.3438171 126.5110554
  44.0743400 121.6750337 131.4359269  44.9434560 121.8490989 131.0745904
  43.5950151 122.4944754 131.3134999  40.0693618 108.8709534 111.6891025
  40.0572288 109.8151374 111.8459296  40.9617040 108.6879679 111.3950486
  38.2429580 128.7947438 123.1148703  39.1456827 128.8271048 123.4315198
  38.0166950 127.8647889 123.1295039  39.9983182 127.5478424 119.7758782
  39.0478813 127.5480286 119.6623154  40.3015668 126.8011159 119.2594816
  43.8845738 105.4652311 115.9436962  43.1178133 104.9110797 116.0893644
  44.2956443 105.5374179 116.8051113  35.8887499 111.7537106 130.0342143
  36.7518960 111.3973911 130.2445468  35.3152909 111.4151001 130.7217547
  55.7335876 133.3838963 120.8404544  56.3714286 133.2645710 120.1367884
  55.6156719 134.3319807 120.8992496  52.5425582 133.3366391 120.7766069
  52.2044093 133.2207456 119.8886604  53.4115350 132.9357556 120.7567075
  48.4012398 135.1901867 116.7662960  47.8377263 135.0991804 115.9979247
  48.2864793 134.3701772 117.2465452  53.0245365 134.4901243 126.7352274
  53.0134006 134.0954041 125.8632778  53.1866004 133.7567315 127.3286046
  45.9476830 136.6853059 119.6047180  46.7398122 136.3443883 119.1893479
  46.1873480 136.7948034 120.5249333  53.9811956 138.8572835 112.0777425
  53.3299936 139.4426915 111.6911438  54.7756319 139.3879030 112.1372462
  47.9067584 135.9461972 112.4764559  48.6798460 135.3990959 112.3377435
  48.2592982 136.8106221 112.6879020  49.7452626 137.2738354 125.6831458
  49.4542492 138.1783985 125.5678125  50.3809610 137.3154882 126.3975528
  50.6708833 134.6515203 122.2732818  51.2672405 134.4271225 121.5589781
  50.7283804 133.9099948 122.8758266  50.2433861 132.1054638 110.1083009
  50.4959382 131.5836159 109.3466472  49.3058420 131.9420784 110.2109692
  55.2877144 131.1090417 117.9157752  56.0740233 130.6909840 117.5648169
  55.5515848 132.0136509 118.0839400  55.4587222 136.5463267 112.6146409
  54.8233055 136.6197893 113.3267314  55.1284628 137.1356866 111.9365488
  60.6885571 131.0465650 118.8190731  61.4210743 130.4764867 119.0528560
  59.9324927 130.6587250 119.2597236  49.9630150 134.0082744 112.3107384
  49.8466408 133.3327648 112.9788468  50.0732410 133.5215118 111.4939537
  52.3061691 133.4692891 116.0154073  51.9419898 132.9423512 116.7266995
  53.1628807 133.0791360 115.8420558  58.2110992 124.7587224 123.2785339
  57.8794316 125.6282635 123.0546554  57.6156605 124.4423508 123.9579370
  51.9467178 128.4982791 111.0115422  52.1141580 129.3663027 111.3785893
  51.7564347 128.6610073 110.0876711  54.7042511 136.9599770 122.6781252
  54.4043234 137.8624809 122.5697059  54.3593571 136.6931953 123.5302405
  48.1554993 133.4113567 118.7117956  47.2305489 133.2789781 118.9195648
  48.4039406 134.1907786 119.2087899  58.1039655 129.4782310 120.3578689
  57.1956532 129.4097718 120.0637450  58.0527251 129.9554255 121.1860515
  51.9256399 130.9540448 111.9962088  51.8056024 131.3997499 112.8347569
  51.2308987 131.3025766 111.4375627  45.5163804 133.0546840 119.5461745
  45.6456185 133.3081319 120.4601157  44.8361255 133.6474548 119.2266400
  49.6863291 143.7244090 115.6452220  49.6087321 144.6751915 115.7240700
  49.0824935 143.3789963 116.3027146  52.1780521 130.8971956 128.3013587
  51.4013855 131.4565876 128.2916451  52.8171084 131.3828739 128.8228457
  59.9701301 127.6798748 122.1356563  59.3275682 127.9731282 121.4896358
  59.4656230 127.5651669 122.9409760  57.6241465 131.4261922 112.8242422
  58.5359321 131.6589308 112.6490120  57.1151112 132.0098966 112.2617501
  50.4326893 133.7057409 127.8631554  51.1741577 134.2442453 127.5866377
  49.7263879 134.3323698 128.0203105  55.9082233 135.8486549 126.4603715
  56.3165589 135.4068960 125.7158347  55.1859494 135.2739177 126.7137908
  52.2613303 130.7859156 123.8337272  53.1074498 131.2098570 123.9771921
  52.2011940 130.1292781 124.5275835  56.2311047 136.4087740 120.2156004
  55.6019910 136.5733454 119.5132072  55.8436709 136.8229350 120.9866968
  60.1100279 137.3442178 117.5700368  59.4251317 137.7241079 117.0197401
  60.1944129 137.9537505 118.3032315  55.4112748 128.4463525 125.4918446
  55.1673680 129.2005585 124.9552721  55.6872679 128.8248872 126.3265693
  57.3651211 134.9902137 124.1695711  57.5768106 135.6333897 123.4930092
  57.3180959 134.1564454 123.7017641  54.9677440 127.6019958 121.0732283
  54.1061919 127.9001211 121.3649021  54.9939874 127.8190357 120.1413316
  51.7839009 136.1462148 117.4806089  52.2477355 136.4249851 116.6910711
  51.5195807 135.2445593 117.2979180  48.6763090 135.6933630 120.4185852
  49.2464447 136.1220898 119.7803337  49.2671202 135.4116214 121.1170038
  50.7207895 132.2685301 114.2895654  51.4231939 132.7206344 114.7569580
  50.3888524 131.6269119 114.9175547  49.1688257 130.8597057 128.6646864
  48.5386917 131.5413338 128.8982260  49.0624345 130.7480139 127.7200002
  44.4633229 130.5268853 119.5912788  43.6732283 130.7826382 119.1152898
  44.9544477 131.3417191 119.6964828  58.4797039 137.8674092 122.3418069
  59.3014483 137.4654280 122.0600750  58.4759442 137.7642327 123.2934184
  46.4147975 130.8913432 116.5496264  45.6179138 131.0032127 117.0679760
  46.1873567 131.2300085 115.6837155  52.2453642 137.4158136 124.4978779
  52.3098075 137.8778543 125.3336951  51.5364566 136.7855501 124.6261089
  42.7470932 130.7799344 122.0227778  42.9978971 131.6646354 122.2885354
  43.2830481 130.6003945 121.2502870  66.5703032 134.2112841 118.6903040
  65.8166740 133.6420239 118.5347044  66.7050573 134.1775505 119.6373675
  51.9601660 139.0826243 114.3657759  51.8247335 139.9277779 114.7942607
  52.5011472 139.2845521 113.6023693  48.4469000 125.1617823 131.0272115
  48.0535945 124.6084022 131.7019759  49.2635140 125.4728401 131.4178632
  45.4131057 136.6001681 114.9385684  45.9255578 137.3944931 115.0891249
  46.0653770 135.9027972 114.8719286  47.2225942 139.7167437 117.0208438
  47.3992570 140.6385402 116.8329422  48.0182776 139.4025857 117.4502817
  51.3636961 126.5775702 128.6192371  52.1046674 127.1782855 128.5396834
  51.5954883 125.8353340 128.0610414  46.5078299 131.7632069 126.8970601
  46.3931814 130.8617327 127.1977700  45.6522816 132.0095766 126.5455417
  53.5870136 139.7049810 128.4958101  53.1433990 138.9186188 128.1779006
  54.2487350 139.8928960 127.8301992  48.3457257 141.2345611 123.0218780
  48.8964683 141.1062675 122.2495774  47.5068733 141.5340500 122.6713673
  55.6851374 139.9852610 126.5239503  55.6669850 140.8061491 126.0319772
  56.6071294 139.8606685 126.7489644  52.1424429 137.4996739 127.3663011
  52.6752765 136.7385027 127.1362319  51.6138510 137.2070391 128.1087166
  55.3094123 122.6056805 122.8956653  54.9658393 123.4958447 122.8195763
  55.6773086 122.4158463 122.0326238  43.3779974 134.9290336 115.7145255
  44.2155196 135.3387344 115.4978963  43.5558242 133.9889778 115.6845449
  55.2744406 132.5965416 111.4029088  54.7591030 133.3670021 111.6417475
  55.0021715 131.9230552 112.0262149  52.8591517 127.4415117 116.4614326
  52.0033114 127.0521967 116.2819965  53.2718469 127.5207078 115.6014112
  54.3890664 124.9761460 120.8605886  53.8855459 124.9391595 120.0473691
  54.6821271 125.8854203 120.9202543  50.6333550 125.0600190 119.8672068
  51.4986547 124.8642999 119.5077957  50.7011059 124.8310542 120.7941425
  60.2478680 135.3497771 113.3382261  59.4708123 135.0108930 112.8937423
  60.9270161 135.3550394 112.6637226  55.0630709 130.4692508 113.2288869
  54.7580845 130.7838657 114.0799012  56.0161151 130.5473928 113.2716202
  53.5077141 136.6282732 114.8781823  52.9798503 135.8935491 114.5655061
  53.0064644 137.4057408 114.6321791  58.4869987 134.8231752 119.9948869
  57.8293662 135.5131013 120.0828998  59.2910386 135.2128184 120.3382856
  48.2395869 127.2902398 117.2388435  48.8139621 127.0677579 116.5061628
  48.8266851 127.3591092 117.9917036  57.2975446 133.1776125 118.0452811
  57.8107328 133.8106117 118.5474521  57.9476670 132.5777320 117.6796171
  48.5665456 129.3206859 111.2584320  47.7302768 129.6581545 111.5793595
  48.4270226 129.1855839 110.3211457  50.5418537 124.1643647 115.9663504
  49.8882949 123.8492664 115.3420119  50.4999011 123.5419387 116.6923327
  51.6529741 134.4462942 107.8816796  50.7456803 134.2152195 108.0807945
  52.1500773 133.6500561 108.0690778  54.5597820 143.1560449 110.8013482
  53.8859519 143.4592146 111.4098440  54.9463642 143.9589529 110.4518939
  53.7756277 130.6525580 120.2911152  52.8578838 130.8740527 120.1332840
  54.1916421 130.7271891 119.4322859  54.5591325 132.0516996 115.4213832
  55.3063144 132.5638393 115.1120954  54.8282914 131.7301049 116.2818225
  52.8317975 134.5475537 112.4040786  51.9229194 134.2634570 112.5013256
  52.8613059 134.9674615 111.5444093  58.0637242 138.1582126 116.1731954
  57.6099569 137.3173036 116.2297144  57.4331209 138.7943525 116.5106734
  57.0070162 129.0874112 117.4032621  56.2692919 128.5751498 117.7342864
  57.2596935 128.6474494 116.5915898  56.5070181 139.9958623 117.1081772
  56.7993156 140.5563680 116.3894138  57.0168802 140.2887184 117.8634931
  57.1081789 121.8650364 117.9974390  57.4140666 121.0047728 117.7100306
  57.8334394 122.4567984 117.7973384  43.4006145 132.2681051 116.3855988
  43.2030545 131.6750412 115.6607055  42.8452809 131.9633261 117.1031927
  51.3802869 132.1604157 118.5050582  51.4351479 131.2077994 118.4293058
  50.5694071 132.3163596 118.9891880  52.5294063 136.0884280 109.7428865
  52.0913493 135.3720139 109.2834502  53.2704503 136.3160395 109.1813956
  49.3195229 130.7781217 116.2640960  48.5063094 131.0775388 116.6706153
  49.8154223 130.3836906 116.9815443  51.4703807 140.7738974 118.1975225
  51.4279985 140.9999820 117.2683757  52.3866506 140.5402349 118.3461026
  54.9169440 131.2423042 125.0955854  55.2718828 131.4694515 125.9550320
  55.5641572 131.5741418 124.4733110  60.6467177 134.3641477 115.8005183
  60.5085076 134.5543073 114.8726373  60.2903396 135.1260860 116.2573234
  48.8109304 128.3499573 121.8802195  49.4508683 128.2088332 121.1825159
  47.9786834 128.0634086 121.5040797  60.6736557 136.4318004 120.8116455
  61.1073064 136.3393294 121.6599509  61.3868138 136.4075505 120.1736471
  49.5869607 137.6502003 117.9937188  50.3810206 137.1552323 117.7919763
  48.8761300 137.1219866 117.6304893  54.4064452 140.0320099 122.3449555
  54.4601474 140.6011035 123.1127271  53.5379233 140.2021984 121.9803593
  45.8952371 131.7945085 114.0696941  44.9649959 131.7329540 114.2866903
  45.9909843 131.2721037 113.2733582  45.8137920 128.3199898 116.6575182
  46.0744737 129.2345231 116.5484343  46.6355092 127.8524340 116.8071795
  47.2862845 129.7337655 123.8274007  47.9585899 129.5255017 123.1786656
  46.4592632 129.5359741 123.3879239  61.5352107 136.4741705 123.3449340
  61.7287997 137.3787516 123.5908615  61.4352725 136.0149124 124.1787925
  53.1888417 126.3599596 125.8439668  52.5416332 127.0589545 125.7504144
  53.9589433 126.7935740 126.2115916  56.5967215 136.6248448 128.9190221
  56.4452722 136.3959000 128.0020305  56.5871895 137.5819049 128.9321566
  53.3652552 134.1980361 123.9036487  54.2944612 134.3491520 123.7305455
  52.9443582 134.2864381 123.0485134  52.1640883 138.2231025 121.6735025
  52.0251969 137.8549809 122.5460963  51.3755480 138.7378664 121.5018983
  52.7589035 143.3240121 113.0160561  52.9340791 142.8528165 113.8306184
  52.0721823 143.9505888 113.2441822  53.7146099 137.6012628 119.0623863
  53.3795931 137.5613398 119.9581513  53.2150044 136.9357344 118.5894273
  47.6890343 133.0080258 124.5876444  47.5510140 132.2760497 125.1887983
  48.5995266 132.9189158 124.3060632  56.6505290 134.9468662 109.3360922
  56.0334461 134.2215490 109.2393975  56.1821779 135.7078022 108.9927997
  50.3172643 132.7200217 124.0760124  51.0272262 132.0793409 124.0346742
  50.2741951 132.9713112 124.9986304  58.3059422 139.6567570 126.9966703
  58.2471968 138.9726790 126.3297286  58.7078940 140.3986560 126.5447329
  49.0301577 129.7065435 125.8955763  48.4938934 129.2556173 126.5477359
  48.4418286 129.8411344 125.1526227  47.3250121 146.4729484 119.7900422
  47.5646719 147.1048008 120.4679440  46.4819317 146.1217524 120.0765781
  48.4403836 129.1654086 108.4582227  47.5633302 129.0442887 108.0944473
  48.9161589 128.3740165 108.2061115  58.3076829 137.6207154 125.2280682
  57.4203608 137.2833076 125.3507081  58.8775380 136.8890186 125.4649448
  39.9605976 133.9531246 118.5523734  40.6477016 133.6392976 117.9644749
  39.8054105 134.8572611 118.2790985  44.7640698 128.8421443 122.9808757
  44.6798887 128.2347112 122.2459167  43.9423405 129.3330461 122.9818254
  51.8377983 142.2808607 122.1941926  51.7648154 143.0863578 122.7061230
  51.3955376 142.4800572 121.3689947  51.6267762 141.5180377 115.7044747
  50.8435284 142.0602057 115.7982972  52.3260507 142.0354356 116.1038988
  54.9364412 127.3275006 118.3478953  55.4333112 126.5744968 118.0280023
  54.1651394 127.3639323 117.7822162  62.7894170 133.0315372 119.9897244
  62.7784046 133.9140087 119.6191177  61.9211549 132.6786922 119.7951781
  54.2976666 142.1795441 124.3500084  55.0104638 142.8142906 124.2775986
  53.8066695 142.2759307 123.5340086  56.0194193 136.0846693 115.9217376
  55.0850472 136.2048156 115.7522080  56.1970861 135.1819160 115.6577386
  51.5199381 129.4692389 118.0750637  51.1497169 128.9163430 118.7631543
  52.0158474 128.8650523 117.5225637  59.4066744 131.9264013 116.4567410
  59.8727197 132.7592004 116.3827713  59.8574245 131.4608994 117.1612669
  49.3488580 139.9289884 125.1705655  50.0498039 140.5626367 125.3235049
  48.8783695 140.2704616 124.4101294  57.4742975 138.2707834 113.4553562
  57.7502819 138.1564429 114.3647436  56.6047474 137.8725319 113.4165735
  57.3783407 124.2944600 120.4958311  56.4646487 124.5248826 120.6640518
  57.8076509 124.3783044 121.3472344  57.1489866 132.4834492 122.9958205
  56.4961316 132.7310399 122.3410658  57.5270245 131.6698630 122.6620683
  54.1097039 142.5194185 117.0986376  54.2919434 141.7015841 117.5614128
  54.9330025 142.7361877 116.6611266  54.4439205 141.4462370 114.3601424
  54.9726971 140.9354824 113.7471586  54.7067425 141.1304900 115.2246957
  53.1977439 133.2254303 129.4824243  52.5218076 133.1248432 130.1526618
  54.0205072 133.0693516 129.9460240  44.9456298 139.4626239 122.1036758
  45.5309734 138.7169927 122.2364662  44.7481136 139.7730196 122.9873422
  47.7994953 142.4977487 117.1199200  47.1305328 142.9823614 116.6363240
  47.6607823 142.7446707 118.0342579  39.5373952 132.0331839 120.8241201
  39.5758052 131.4995430 121.6178319  39.0314245 131.5067045 120.2052178
  51.9400221 144.5321230 123.7181859  52.4918530 144.6952852 124.4830944
  52.2806415 145.1225668 123.0461883  46.9164715 126.8796380 124.3203743
  46.9806041 127.7411211 123.9081141  46.8531835 126.2670382 123.5876102
  46.3916987 128.9519512 127.9676777  47.0189026 128.5696590 128.5814302
  45.5344906 128.7333714 128.3332470  56.7911096 139.3582488 129.5730513
  57.3351000 139.9712446 129.0785468  56.2097941 139.9162066 130.0897526
  43.1682530 130.7595942 113.8995132  43.4635971 129.8506620 113.8462186
  42.2670566 130.7383681 113.5776135  55.0768609 142.4803206 120.7045541
  54.9519748 141.6792945 120.1956486  55.7347700 142.9749399 120.2159511
  46.6976777 128.8351938 119.8822681  45.9763363 129.4487906 119.7430154
  47.4870033 129.3709703 119.8039327  57.1403517 140.2812226 122.3325091
  56.1933853 140.1617577 122.2603418  57.4886290 139.3934724 122.4151352
  49.5003091 126.1706365 126.1563333  50.0237492 126.4168661 126.9189642
  49.2815424 127.0026399 125.7366470  44.8970372 128.4410039 114.0234457
  44.5683078 127.5607418 113.8409563  45.2509742 128.3857708 114.9110847
  54.1449950 140.0764942 118.5329443  53.9974913 139.1481649 118.7137013
  54.9703444 140.0985033 118.0486518  48.0112195 128.7283009 114.3909935
  48.3508267 129.2568930 113.6688544  48.4584315 129.0663415 115.1668502
  57.7484072 140.8993501 119.6194316  58.6730620 140.6936362 119.4818767
  57.5799376 140.6509902 120.5283657  50.7055636 127.1120060 123.8413003
  50.3652456 126.3127873 124.2433683  49.9994642 127.4121771 123.2689836
  51.3572107 124.1969372 122.2940326  52.1798177 123.7229850 122.1719217
  51.6010171 124.9759856 122.7939013  49.9980342 127.2257631 112.5903228
  50.7188704 127.6038883 112.0866945  49.3745646 127.9446507 112.6938206
  54.1411465 127.9302780 113.5261560  54.3575079 128.8127417 113.2250388
  53.6605532 127.5388993 112.7967202  48.8810686 130.8888493 120.1032305
  48.7355267 131.2028796 120.9956586  48.4035890 131.5073393 119.5503203
  50.7407069 127.8791041 120.1513194  50.7268638 126.9832134 119.8145492
  51.4579497 127.8861705 120.7851480  52.5933200 128.3128381 122.1966322
  52.3350978 129.2345452 122.1950652  52.0618240 127.9158816 122.8866786
  57.5379389 141.4179168 114.9756407  57.7116266 140.8525591 114.2230260
  58.0308280 142.2180063 114.7935897  43.3556348 133.4293837 123.0419966
  42.8109816 134.2053645 123.1740240  44.2335698 133.7764642 122.8839087
  50.1443965 126.7605421 115.4200765  50.2659876 125.8322067 115.6191652
  49.8546007 126.7744107 114.5079080  53.0135155 124.4460332 118.5567484
  53.0356852 124.5099665 117.6019464  53.4303214 123.6064840 118.7507991
  63.3918780 134.1815591 116.5946707  63.8349926 133.4322916 116.1965830
  62.5145290 134.1725727 116.2120439  58.5254561 140.7345933 112.0753305
  59.2205466 141.3552625 112.2940620  58.8677711 139.8841284 112.3505683
  44.1422370 132.5563733 125.9350123  43.4004106 132.7046369 126.5214753
  43.8215114 132.8171999 125.0716872  60.4245984 138.1845638 113.6040636
  60.9497308 138.5232911 112.8789956  60.3368337 137.2492653 113.4203771
  52.0866033 142.0979712 125.7330513  52.3953159 141.8528858 126.6053212
  52.8841515 142.3026350 125.2449383  52.1086645 144.2517621 117.9635889
  51.6691635 143.7594000 118.6568746  52.8594762 143.7090589 117.7227965
  44.5878984 140.4429162 117.9660518  45.4137004 140.1432934 117.5859161
  44.2373036 139.6736785 118.4150306  49.5560517 139.7955630 120.0358191
  48.9340526 139.1326335 119.7360419  50.2265384 139.8216762 119.3531839
  42.7887589 138.3615489 118.9249451  41.9519497 137.9337663 118.7433452
  42.7611234 138.5547932 119.8620242  49.6285045 128.2737418 129.6290697
  49.6773200 129.1499541 129.2468467  50.1707559 127.7314811 129.0562340
  60.1139890 138.8178542 128.9091834  59.3235434 138.8002681 128.3696334
  59.8773245 139.3566835 129.6640871  60.2337765 135.6671008 126.2224563
  60.2835770 135.5021016 127.1640086  60.1251689 134.7998267 125.8322444
  49.1174024 138.3459554 113.5116652  49.2662144 139.0295018 112.8583324
  49.9240467 138.3264644 114.0266107  57.5241528 131.6501936 127.5383869
  58.4251390 131.5108401 127.2467867  57.5989502 131.8156391 128.4782047
  51.8584333 129.0268791 126.3837056  50.9887642 129.3202357 126.1119644
  52.0943813 129.6109236 127.1044319  61.7355962 138.0867950 126.4666584
  61.4440770 138.4497930 127.3030045  61.1228093 137.3734958 126.2879916
  62.9351644 135.6520829 118.9869155  63.7698536 136.0910633 119.1506715
  63.0710773 135.1759483 118.1677400  59.9843150 133.2100564 124.9346642
  60.4597272 133.4028211 124.1265494  59.0608716 133.2659750 124.6890026
  46.8726657 134.3724731 114.5177721  46.6272699 133.4687061 114.7157931
  47.0422571 134.3741882 113.5757199  54.5623367 125.2448408 123.9002476
  55.0805311 125.9809435 123.5748965  54.2078500 125.5512401 124.7349235
  46.1422304 130.1053089 112.0163882  45.4491549 130.1797444 111.3603918
  45.8974056 129.3413433 112.5385399  54.8135961 121.6648690 119.4203373
  55.0937715 120.9971879 120.0463799  55.5986568 121.8577786 118.9078037
  52.6169429 140.8407684 110.9828399  52.0443397 141.4597871 110.5298871
  53.1902223 141.3907046 111.5168321  58.6844819 130.0866324 123.1674948
  59.6362242 130.1864422 123.1887172  58.5148270 129.2944593 123.6773032
  56.7059199 127.1721908 123.3534349  56.1109131 127.4526920 122.6580837
  56.4208895 127.6615808 124.1251090  55.8366689 141.1244834 112.1136981
  56.7697362 141.0590396 112.3169857  55.7489902 141.9601101 111.6551514
  58.4654706 140.4410705 109.0740929  58.3868337 140.1070568 109.9676687
  59.2864373 140.9332473 109.0732401  61.1632897 133.3072444 122.2817248
  61.1309217 132.3688445 122.4676931  61.7733521 133.3856481 121.5483072
  53.0016228 132.1768497 108.3244452  53.9475333 132.0474705 108.3932870
  52.6230473 131.4383159 108.8013880  61.3127386 130.0983487 122.3275531
  60.7966434 129.3141944 122.1405460  62.1967334 129.7702204 122.4922050
  58.9738112 123.8424503 118.2871343  58.7762934 123.5339591 119.1714675
  59.5837818 124.5686142 118.4169273  66.9809447 134.3688451 121.4223284
  67.7112835 134.1073739 121.9830988  66.3716392 133.6317173 121.4625352
  65.0624744 132.5096313 122.0197736  64.3357908 132.3752278 121.4114227
  64.6472031 132.8173142 122.8254454  52.8854920 136.2286243 129.7845109
  53.8057930 136.4064842 129.9785155  52.8504504 135.2842288 129.6324808
  51.1859145 130.1018473 108.2599337  50.2790600 129.8051586 108.3362050
  51.4635126 129.8048291 107.3933623  42.1037085 131.4224837 118.7098383
  41.7839870 130.5690145 118.4172757  41.5570514 131.6373415 119.4656351
  45.8816993 134.1387278 122.4267890  46.1003003 135.0704386 122.4455924
  46.2942767 133.7795252 123.2122694  52.8021211 124.6455363 114.4143578
  51.9921939 124.3002448 114.7898824  53.4905628 124.3362907 115.0031190
  54.7311759 123.7233410 116.0367875  55.2842798 124.1428863 116.6957898
  54.9681845 122.7969158 116.0790831  50.7544858 129.7120484 131.8170639
  50.6541585 130.6614840 131.7482730  50.5366400 129.3838722 130.9446709
  49.9557930 126.9605409 108.4011316  50.8177094 127.2860307 108.6607133
  50.1408274 126.1736904 107.8884382  41.9725345 135.0427748 120.6791505
  41.2788817 134.6281701 120.1661459  42.7198336 135.0848285 120.0824924
  58.1090566 125.8333935 115.5446539  57.5289235 126.4918739 115.1624591
  57.8426499 125.0111280 115.1333956  56.5594133 125.2338993 117.7467859
  57.0593911 125.3455527 116.9382178  57.2029740 124.9300046 118.3868668
  50.6176128 133.1417622 130.6335700  50.1343210 133.9417982 130.8399589
  50.7037067 133.1525567 129.6803144  43.8862088 134.9746002 118.5557520
  43.8632776 135.0733689 117.6039403  44.1962724 135.8211153 118.8774686
  46.5449466 137.0322157 122.6704134  47.4992719 137.0006099 122.6034066
  46.3461989 136.5712781 123.4854360  47.1348848 135.6023273 125.2374932
  47.9541737 136.0967352 125.2609769  47.4085656 134.6855241 125.2092499
  56.8915444 127.9934025 114.6002887  56.0041299 128.2783676 114.3823082
  57.3069433 127.8327789 113.7530164  60.2429980 128.0180546 118.3157226
  61.0190370 128.5076999 118.5881843  59.5178115 128.4438601 118.7729096
  62.6802539 128.7308166 119.3731167  63.2747030 128.4903902 118.6624475
  62.7529123 128.0115296 120.0004703  44.8999695 142.5741777 119.6874332
  44.7654163 141.8142177 119.1212330  44.4831757 143.2982676 119.2203121
  56.0358658 137.7578700 108.6950907  56.7394508 137.9628703 109.3108563
  55.3121306 138.3255462 108.9599991  56.8656468 133.5088561 114.8153177
  56.8091669 133.9657113 113.9760810  57.4184810 132.7479246 114.6376020
  60.6761274 129.2978293 115.6403297  60.4198208 128.8974929 116.4711505
  60.0514142 130.0122087 115.5153436  64.9873612 132.0374366 118.1474588
  64.4273170 132.1067556 118.9206150  64.3817115 131.8615351 117.4274085
  48.0568821 143.4711094 119.8992775  47.9401205 144.4156526 119.7971465
  47.2361267 143.1684655 120.2878574  57.9445355 138.1961229 110.7449367
  58.7790959 137.7642428 110.5626842  57.7829698 138.0243243 111.6726262
  57.5991247 134.6993343 112.1105707  57.5440051 134.5337614 111.1694151
  56.9737303 135.4069375 112.2667896  42.3883762 129.9361407 125.9367129
  43.0342626 129.4260361 126.4254354  42.1800913 130.6730089 126.5110554
  54.9137154 137.0042254 131.4359269  55.7828314 137.1782907 131.0745904
  54.4343906 137.8236671 131.3134999  50.9087373 124.2001452 111.6891025
  50.8966043 125.1443292 111.8459296  51.8010795 124.0171597 111.3950486
  49.0823335 144.1239355 123.1148703  49.9850581 144.1562966 123.4315198
  48.8560705 143.1939806 123.1295039  50.8376937 142.8770342 119.7758782
  49.8872568 142.8772204 119.6623154  51.1409423 142.1303077 119.2594816
  54.7239492 120.7944228 115.9436962  53.9571888 120.2402715 116.0893644
  55.1350197 120.8666097 116.8051113  46.7281253 127.0829024 130.0342143
  47.5912715 126.7265829 130.2445468  46.1546664 126.7442919 130.7217547
  66.5729630 148.7130880 120.8404544  67.2108040 148.5937628 120.1367884
  66.4550473 149.6611724 120.8992496  63.3819336 148.6658308 120.7766069
  63.0437848 148.5499373 119.8886604  64.2509105 148.2649474 120.7567075
  59.2406152 150.5193785 116.7662960  58.6771017 150.4283722 115.9979247
  59.1258547 149.6993689 117.2465452  63.8639119 149.8193160 126.7352274
  63.8527760 149.4245958 125.8632778  64.0259759 149.0859233 127.3286046
  56.7870584 152.0144977 119.6047180  57.5791876 151.6735801 119.1893479
  57.0267234 152.1239952 120.5249333  64.8205711 154.1864753 112.0777425
  64.1693691 154.7718833 111.6911438  65.6150074 154.7170948 112.1372462
  58.7461338 151.2753890 112.4764559  59.5192214 150.7282877 112.3377435
  59.0986737 152.1398139 112.6879020  60.5846381 152.6030272 125.6831458
  60.2936247 153.5075903 125.5678125  61.2203365 152.6446800 126.3975528
  61.5102587 149.9807121 122.2732818  62.1066160 149.7563143 121.5589781
  61.5677559 149.2391866 122.8758266  61.0827616 147.4346556 110.1083009
  61.3353137 146.9128077 109.3466472  60.1452175 147.2712701 110.2109692
  66.1270899 146.4382334 117.9157752  66.9133988 146.0201757 117.5648169
  66.3909603 147.3428426 118.0839400  66.2980976 151.8755185 112.6146409
  65.6626809 151.9489811 113.3267314  65.9678382 152.4648783 111.9365488
  71.5279326 146.3757567 118.8190731  72.2604498 145.8056784 119.0528560
  70.7718681 145.9879168 119.2597236  60.8023905 149.3374662 112.3107384
  60.6860163 148.6619565 112.9788468  60.9126164 148.8507036 111.4939537
  63.1455446 148.7984809 116.0154073  62.7813653 148.2715430 116.7266995
  64.0022561 148.4083278 115.8420558  69.0504746 140.0879142 123.2785339
  68.7188071 140.9574553 123.0546554  68.4550360 139.7715426 123.9579370
  62.7860932 143.8274709 111.0115422  62.9535335 144.6954945 111.3785893
  62.5958102 143.9901990 110.0876711  65.5436266 152.2891688 122.6781252
  65.2436989 153.1916726 122.5697059  65.1987325 152.0223871 123.5302405
  58.9948747 148.7405484 118.7117956  58.0699244 148.6081698 118.9195648
  59.2433160 149.5199704 119.2087899  68.9433409 144.8074228 120.3578689
  68.0350287 144.7389636 120.0637450  68.8921005 145.2846173 121.1860515
  62.7650153 146.2832366 111.9962088  62.6449779 146.7289417 112.8347569
  62.0702742 146.6317684 111.4375627  56.3557558 148.3838758 119.5461745
  56.4849939 148.6373237 120.4601157  55.6755009 148.9766466 119.2266400
  63.0174275 146.2263873 128.3013587  62.2407609 146.7857793 128.2916451
  63.6564838 146.7120656 128.8228457  70.8095056 143.0090666 122.1356563
  70.1669436 143.3023199 121.4896358  70.3049984 142.8943586 122.9409760
  68.4635220 146.7553839 112.8242422  69.3753076 146.9881226 112.6490120
  67.9544867 147.3390884 112.2617501  61.2720648 149.0349327 127.8631554
  62.0135332 149.5734371 127.5866377  60.5657633 149.6615615 128.0203105
  66.7475987 151.1778467 126.4603715  67.1559343 150.7360878 125.7158347
  66.0253249 150.6031095 126.7137908  63.1007057 146.1151074 123.8337272
  63.9468252 146.5390487 123.9771921  63.0405695 145.4584698 124.5275835
  67.0704802 151.7379658 120.2156004  66.4413664 151.9025372 119.5132072
  66.6830464 152.1521267 120.9866968  70.9494034 152.6734096 117.5700368
  70.2645072 153.0532997 117.0197401  71.0337883 153.2829422 118.3032315
  66.2506503 143.7755442 125.4918446  66.0067434 144.5297503 124.9552721
  66.5266433 144.1540790 126.3265693  68.2044965 150.3194055 124.1695711
  68.4161861 150.9625815 123.4930092  68.1574714 149.4856371 123.7017641
  65.8071194 142.9311875 121.0732283  64.9455673 143.2293129 121.3649021
  65.8333629 143.1482274 120.1413316  62.6232764 151.4754066 117.4806089
  63.0871109 151.7541769 116.6910711  62.3589562 150.5737510 117.2979180
  59.5156845 151.0225547 120.4185852  60.0858202 151.4512816 119.7803337
  60.1064957 150.7408132 121.1170038  61.5601650 147.5977218 114.2895654
  62.2625693 148.0498262 114.7569580  61.2282278 146.9561037 114.9175547
  60.0082011 146.1888975 128.6646864  59.3780672 146.8705256 128.8982260
  59.9018099 146.0772056 127.7200002  55.3026984 145.8560771 119.5912788
  54.5126038 146.1118299 119.1152898  55.7938231 146.6709109 119.6964828
  69.3190793 153.1966010 122.3418069  70.1408237 152.7946197 122.0600750
  69.3153196 153.0934244 123.2934184  57.2541729 146.2205350 116.5496264
  56.4572892 146.3324044 117.0679760  57.0267321 146.5592002 115.6837155
  63.0847397 152.7450053 124.4978779  63.1491829 153.2070461 125.3336951
  62.3758321 152.1147418 124.6261089  53.5864687 146.1091261 122.0227778
  53.8372725 146.9938271 122.2885354  54.1224235 145.9295863 121.2502870
  77.4096786 149.5404759 118.6903040  76.6560495 148.9712157 118.5347044
  77.5444328 149.5067423 119.6373675  62.7995414 154.4118161 114.3657759
  62.6641089 155.2569697 114.7942607  63.3405227 154.6137438 113.6023693
  59.2862754 140.4909741 131.0272115  58.8929700 139.9375939 131.7019759
  60.1028894 140.8020319 131.4178632  56.2524812 151.9293599 114.9385684
  56.7649332 152.7236849 115.0891249  56.9047525 151.2319889 114.8719286
  58.0619696 155.0459355 117.0208438  58.2386325 155.9677320 116.8329422
  58.8576530 154.7317774 117.4502817  62.2030715 141.9067620 128.6192371
  62.9440428 142.5074773 128.5396834  62.4348638 141.1645258 128.0610414
  57.3472053 147.0923987 126.8970601  57.2325568 146.1909244 127.1977700
  56.4916571 147.3387684 126.5455417  64.4263891 155.0341727 128.4958101
  63.9827745 154.2478106 128.1779006  65.0881104 155.2220878 127.8301992
  66.5245129 155.3144527 126.5239503  66.5063604 156.1353408 126.0319772
  67.4465049 155.1898602 126.7489644  62.9818183 152.8288657 127.3663011
  63.5146520 152.0676945 127.1362319  62.4532264 152.5362309 128.1087166
  66.1487878 137.9348723 122.8956653  65.8052147 138.8250364 122.8195763
  66.5166841 137.7450380 122.0326238  54.2173729 150.2582253 115.7145255
  55.0548951 150.6679262 115.4978963  54.3951996 149.3181695 115.6845449
  66.1138161 147.9257334 111.4029088  65.5984784 148.6961938 111.6417475
  65.8415469 147.2522470 112.0262149  63.6985272 142.7707035 116.4614326
  62.8426868 142.3813885 116.2819965  64.1112223 142.8498995 115.6014112
  65.2284418 140.3053378 120.8605886  64.7249214 140.2683513 120.0473691
  65.5215025 141.2146121 120.9202543  61.4727304 140.3892108 119.8672068
  62.3380301 140.1934916 119.5077957  61.5404813 140.1602459 120.7941425
  71.0872435 150.6789688 113.3382261  70.3101878 150.3400848 112.8937423
  71.7663916 150.6842312 112.6637226  65.9024464 145.7984426 113.2288869
  65.5974599 146.1130575 114.0799012  66.8554906 145.8765846 113.2716202
  64.3470896 151.9574649 114.8781823  63.8192257 151.2227409 114.5655061
  63.8458398 152.7349326 114.6321791  69.3263742 150.1523670 119.9948869
  68.6687416 150.8422931 120.0828998  70.1304141 150.5420102 120.3382856
  59.0789623 142.6194316 117.2388435  59.6533375 142.3969497 116.5061628
  59.6660606 142.6883010 117.9917036  68.1369201 148.5068042 118.0452811
  68.6501082 149.1398034 118.5474521  68.7870424 147.9069238 117.6796171
  59.4059210 144.6498777 111.2584320  58.5696523 144.9873463 111.5793595
  59.2663980 144.5147756 110.3211457  61.3812291 139.4935564 115.9663504
  60.7276703 139.1784582 115.3420119  61.3392765 138.8711305 116.6923327
  62.4923496 149.7754860 107.8816796  61.5850558 149.5444113 108.0807945
  62.9894528 148.9792479 108.0690778  64.6150031 145.9817498 120.2911152
  63.6972593 146.2032445 120.1332840  65.0310175 146.0563808 119.4322859
  65.3985079 147.3808914 115.4213832  66.1456898 147.8930311 115.1120954
  65.6676669 147.0592966 116.2818225  63.6711729 149.8767454 112.4040786
  62.7622949 149.5926487 112.5013256  63.7006813 150.2966533 111.5444093
  68.9030997 153.4874044 116.1731954  68.4493324 152.6464954 116.2297144
  68.2724963 154.1235442 116.5106734  67.8463916 144.4166030 117.4032621
  67.1086673 143.9043416 117.7342864  68.0990690 143.9766412 116.5915898
  67.3463936 155.3250541 117.1081772  67.6386910 155.8855598 116.3894138
  67.8562557 155.6179102 117.8634931  67.9475544 137.1942282 117.9974390
  68.2534420 136.3339645 117.7100306  68.6728148 137.7859902 117.7973384
  54.2399900 147.5972968 116.3855988  54.0424300 147.0042329 115.6607055
  53.6846564 147.2925179 117.1031927  62.2196623 147.4896075 118.5050582
  62.2745233 146.5369911 118.4293058  61.4087825 147.6455514 118.9891880
  63.3687817 151.4176198 109.7428865  62.9307247 150.7012057 109.2834502
  64.1098258 151.6452313 109.1813956  60.1588983 146.1073135 116.2640960
  59.3456849 146.4067305 116.6706153  60.6547977 145.7128823 116.9815443
  62.3097561 156.1030892 118.1975225  62.2673740 156.3291738 117.2683757
  63.2260260 155.8694266 118.3461026  65.7563195 146.5714959 125.0955854
  66.1112583 146.7986432 125.9550320  66.4035326 146.9033336 124.4733110
  71.4860932 149.6933395 115.8005183  71.3478830 149.8834991 114.8726373
  71.1297151 150.4552778 116.2573234  59.6503058 143.6791490 121.8802195
  60.2902437 143.5380249 121.1825159  58.8180589 143.3926004 121.5040797
  71.5130312 151.7609922 120.8116455  71.9466818 151.6685211 121.6599509
  72.2261892 151.7367423 120.1736471  60.4263362 152.9793921 117.9937188
  61.2203960 152.4844241 117.7919763  59.7155054 152.4511784 117.6304893
  65.2458206 155.3612016 122.3449555  65.2995229 155.9302953 123.1127271
  64.3772988 155.5313901 121.9803593  56.7346125 147.1237002 114.0696941
  55.8043714 147.0621458 114.2866903  56.8303597 146.6012955 113.2733582
  56.6531674 143.6491815 116.6575182  56.9138492 144.5637148 116.5484343
  57.4748847 143.1816258 116.8071795  58.1256600 145.0629572 123.8274007
  58.7979653 144.8546935 123.1786656  57.2986386 144.8651658 123.3879239
  72.3745861 151.8033623 123.3449340  72.5681751 152.7079433 123.5908615
  72.2746479 151.3441042 124.1787925  64.0282172 141.6891513 125.8439668
  63.3810087 142.3881463 125.7504144  64.7983187 142.1227657 126.2115916
  67.4360970 151.9540365 128.9190221  67.2846476 151.7250917 128.0020305
  67.4265649 152.9110967 128.9321566  64.2046306 149.5272278 123.9036487
  65.1338366 149.6783438 123.7305455  63.7837336 149.6156299 123.0485134
  63.0034638 153.5522943 121.6735025  62.8645724 153.1841727 122.5460963
  62.2149234 154.0670582 121.5018983  64.5539853 152.9304545 119.0623863
  64.2189686 152.8905315 119.9581513  64.0543799 152.2649261 118.5894273
  58.5284097 148.3372175 124.5876444  58.3903895 147.6052414 125.1887983
  59.4389021 148.2481075 124.3060632  67.4899045 150.2760580 109.3360922
  66.8728215 149.5507408 109.2393975  67.0215533 151.0369940 108.9927997
  61.1566398 148.0492135 124.0760124  61.8666016 147.4085327 124.0346742
  61.1135706 148.3005030 124.9986304  69.1453176 154.9859488 126.9966703
  69.0865723 154.3018708 126.3297286  69.5472695 155.7278478 126.5447329
  59.8695332 145.0357353 125.8955763  59.3332689 144.5848091 126.5477359
  59.2812040 145.1703261 125.1526227  59.2797591 144.4946004 108.4582227
  58.4027057 144.3734805 108.0944473  59.7555344 143.7032082 108.2061115
  69.1470584 152.9499072 125.2280682  68.2597362 152.6124994 125.3507081
  69.7169135 152.2182103 125.4649448  50.7999731 149.2823164 118.5523734
  51.4870771 148.9684894 117.9644749  50.6447859 150.1864528 118.2790985
  55.6034453 144.1713360 122.9808757  55.5192642 143.5639030 122.2459167
  54.7817159 144.6622379 122.9818254  62.4661517 156.8472294 115.7044747
  61.6829039 157.3893975 115.7982972  63.1654262 157.3646274 116.1038988
  65.7758167 142.6566924 118.3478953  66.2726866 141.9036886 118.0280023
  65.0045148 142.6931240 117.7822162  73.6287924 148.3607289 119.9897244
  73.6177800 149.2432005 119.6191177  72.7605304 148.0078840 119.7951781
  65.1370421 157.5087358 124.3500084  65.8498393 158.1434823 124.2775986
  64.6460449 157.6051224 123.5340086  66.8587947 151.4138611 115.9217376
  65.9244226 151.5340073 115.7522080  67.0364616 150.5111078 115.6577386
  62.3593136 144.7984307 118.0750637  61.9890923 144.2455347 118.7631543
  62.8552228 144.1942440 117.5225637  70.2460499 147.2555930 116.4567410
  70.7120951 148.0883922 116.3827713  70.6967999 146.7900912 117.1612669
  60.1882334 155.2581802 125.1705655  60.8891794 155.8918285 125.3235049
  59.7177449 155.5996533 124.4101294  68.3136730 153.5999752 113.4553562
  68.5896574 153.4856346 114.3647436  67.4441229 153.2017236 113.4165735
  68.2177162 139.6236517 120.4958311  67.3040241 139.8540744 120.6640518
  68.6470263 139.7074961 121.3472344  67.9883620 147.8126409 122.9958205
  67.3355070 148.0602317 122.3410658  68.3664000 146.9990547 122.6620683
  64.9490794 157.8486102 117.0986376  65.1313188 157.0307758 117.5614128
  65.7723780 158.0653795 116.6611266  65.2832959 156.7754288 114.3601424
  65.8120726 156.2646742 113.7471586  65.5461179 156.4596818 115.2246957
  64.0371193 148.5546220 129.4824243  63.3611830 148.4540350 130.1526618
  64.8598827 148.3985434 129.9460240  55.7850052 154.7918157 122.1036758
  56.3703489 154.0461845 122.2364662  55.5874891 155.1022114 122.9873422
  50.3767707 147.3623757 120.8241201  50.4151806 146.8287348 121.6178319
  49.8708000 146.8358963 120.2052178  57.7558469 142.2088298 124.3203743
  57.8199796 143.0703128 123.9081141  57.6925589 141.5962299 123.5876102
  57.2310742 144.2811430 127.9676777  57.8582781 143.8988507 128.5814302
  56.3738661 144.0625632 128.3332470  67.6304850 154.6874405 129.5730513
  68.1744754 155.3004364 129.0785468  67.0491695 155.2453984 130.0897526
  54.0076284 146.0887859 113.8995132  54.3029726 145.1798538 113.8462186
  53.1064320 146.0675599 113.5776135  65.9162363 157.8095123 120.7045541
  65.7913503 157.0084863 120.1956486  66.5741454 158.3041317 120.2159511
  57.5370531 144.1643856 119.8822681  56.8157117 144.7779824 119.7430154
  58.3263787 144.7001621 119.8039327  67.9797272 155.6104143 122.3325091
  67.0327607 155.4909495 122.2603418  68.3280045 154.7226641 122.4151352
  60.3396845 141.4998282 126.1563333  60.8631247 141.7460579 126.9189642
  60.1209178 142.3318317 125.7366470  55.7364126 143.7701957 114.0234457
  55.4076832 142.8899336 113.8409563  56.0903497 143.7149626 114.9110847
  64.9843705 155.4056860 118.5329443  64.8368667 154.4773567 118.7137013
  65.8097198 155.4276950 118.0486518  58.8505949 144.0574927 114.3909935
  59.1902022 144.5860848 113.6688544  59.2978070 144.3955333 115.1668502
  68.5877827 156.2285418 119.6194316  69.5124374 156.0228280 119.4818767
  68.4193130 155.9801820 120.5283657  61.5449390 142.4411977 123.8413003
  61.2046210 141.6419790 124.2433683  60.8388396 142.7413688 123.2689836
  62.1965862 139.5261290 122.2940326  63.0191931 139.0521768 122.1719217
  62.4403925 140.3051774 122.7939013  60.8374096 142.5549548 112.5903228
  61.5582459 142.9330801 112.0866945  60.2139400 143.2738425 112.6938206
  64.9805219 143.2594697 113.5261560  65.1968834 144.1419335 113.2250388
  64.4999286 142.8680911 112.7967202  59.7204441 146.2180410 120.1032305
  59.5749021 146.5320714 120.9956586  59.2429644 146.8365311 119.5503203
  61.5800824 143.2082958 120.1513194  61.5662392 142.3124052 119.8145492
  62.2973252 143.2153622 120.7851480  63.4326954 143.6420299 122.1966322
  63.1744732 144.5637369 122.1950652  62.9011995 143.2450733 122.8866786
  68.3773143 156.7471086 114.9756407  68.5510021 156.1817508 114.2230260
  68.8702034 157.5471981 114.7935897  54.1950103 148.7585755 123.0419966
  53.6503571 149.5345563 123.1740240  55.0729453 149.1056559 122.8839087
  60.9837719 142.0897339 115.4200765  61.1053631 141.1613985 115.6191652
  60.6939762 142.1036025 114.5079080  63.8528910 139.7752249 118.5567484
  63.8750607 139.8391582 117.6019464  64.2696969 138.9356758 118.7507991
  74.2312534 149.5107509 116.5946707  74.6743680 148.7614834 116.1965830
  73.3539044 149.5017645 116.2120439  69.3648315 156.0637850 112.0753305
  70.0599220 156.6844543 112.2940620  69.7071466 155.2133201 112.3505683
  54.9816125 147.8855651 125.9350123  54.2397861 148.0338286 126.5214753
  54.6608869 148.1463917 125.0716872  71.2639739 153.5137556 113.6040636
  71.7891063 153.8524828 112.8789956  71.1762091 152.5784571 113.4203771
  62.9259787 157.4271629 125.7330513  63.2346914 157.1820776 126.6053212
  63.7235269 157.6318268 125.2449383  60.3954271 155.1247548 120.0358191
  59.7734281 154.4618253 119.7360419  61.0659138 155.1508680 119.3531839
  53.6281343 153.6907406 118.9249451  52.7913252 153.2629581 118.7433452
  53.6004989 153.8839850 119.8620242  60.4678799 143.6029336 129.6290697
  60.5166954 144.4791459 129.2468467  61.0101313 143.0606729 129.0562340
  70.9533645 154.1470459 128.9091834  70.1629188 154.1294598 128.3696334
  70.7166999 154.6858753 129.6640871  71.0731520 150.9962926 126.2224563
  71.1229525 150.8312933 127.1640086  70.9645443 150.1290185 125.8322444
  59.9567778 153.6751471 113.5116652  60.1055899 154.3586936 112.8583324
  60.7634222 153.6556561 114.0266107  68.3635282 146.9793854 127.5383869
  69.2645145 146.8400319 127.2467867  68.4383257 147.1448309 128.4782047
  62.6978087 144.3560709 126.3837056  61.8281397 144.6494275 126.1119644
  62.9337568 144.9401154 127.1044319  72.5749717 153.4159867 126.4666584
  72.2834525 153.7789848 127.3030045  71.9621848 152.7026876 126.2879916
  73.7745399 150.9812747 118.9869155  74.6092290 151.4202551 119.1506715
  73.9104528 150.5051400 118.1677400  70.8236905 148.5392482 124.9346642
  71.2991026 148.7320128 124.1265494  69.9002470 148.5951668 124.6890026
  57.7120411 149.7016649 114.5177721  57.4666453 148.7978979 114.7157931
  57.8816326 149.7033800 113.5757199  65.4017121 140.5740325 123.9002476
  65.9199065 141.3101352 123.5748965  65.0472254 140.8804319 124.7349235
  56.9816059 145.4345007 112.0163882  56.2885304 145.5089362 111.3603918
  56.7367811 144.6705350 112.5385399  65.6529715 136.9940608 119.4203373
  65.9331469 136.3263797 120.0463799  66.4380322 137.1869704 118.9078037
  63.4563184 156.1699602 110.9828399  62.8837151 156.7889789 110.5298871
  64.0295978 156.7198964 111.5168321  69.5238574 145.4158242 123.1674948
  70.4755997 145.5156340 123.1887172  69.3542024 144.6236511 123.6773032
  67.5452953 142.5013825 123.3534349  66.9502885 142.7818838 122.6580837
  67.2602650 142.9907726 124.1251090  66.6760444 156.4536752 112.1136981
  67.6091117 156.3882314 112.3169857  66.5883657 157.2893019 111.6551514
  69.3048460 155.7702622 109.0740929  69.2262092 155.4362486 109.9676687
  70.1258127 156.2624390 109.0732401  72.0026652 148.6364362 122.2817248
  71.9702972 147.6980362 122.4676931  72.6127275 148.7148398 121.5483072
  63.8409982 147.5060415 108.3244452  64.7869087 147.3766623 108.3932870
  63.4624227 146.7675077 108.8013880  72.1521140 145.4275405 122.3275531
  71.6360189 144.6433862 122.1405460  73.0361089 145.0994122 122.4922050
  69.8131867 139.1716421 118.2871343  69.6156688 138.8631509 119.1714675
  70.4231573 139.8978060 118.4169273  77.8203201 149.6980368 121.4223284
  78.5506590 149.4365657 121.9830988  77.2110147 148.9609090 121.4625352
  75.9018499 147.8388231 122.0197736  75.1751662 147.7044196 121.4114227
  75.4865785 148.1465060 122.8254454  63.7248675 151.5578161 129.7845109
  64.6451684 151.7356760 129.9785155  63.6898258 150.6134206 129.6324808
  62.0252900 145.4310391 108.2599337  61.1184355 145.1343504 108.3362050
  62.3028881 145.1340209 107.3933623  52.9430840 146.7516754 118.7098383
  52.6233624 145.8982063 118.4172757  52.3964268 146.9665333 119.4656351
  56.7210748 149.4679195 122.4267890  56.9396757 150.3996303 122.4455924
  57.1336521 149.1087170 123.2122694  63.6414965 139.9747281 114.4143578
  62.8315694 139.6294366 114.7898824  64.3299382 139.6654824 115.0031190
  65.5705514 139.0525328 116.0367875  66.1236552 139.4720781 116.6957898
  65.8075600 138.1261076 116.0790831  61.5938613 145.0412401 131.8170639
  61.4935340 145.9906758 131.7482730  61.3760155 144.7130640 130.9446709
  60.7951684 142.2897326 108.4011316  61.6570848 142.6152225 108.6607133
  60.9802028 141.5028822 107.8884382  52.8119100 150.3719666 120.6791505
  52.1182571 149.9573619 120.1661459  53.5592091 150.4140202 120.0824924
  68.9484321 141.1625853 115.5446539  68.3682990 141.8210657 115.1624591
  68.6820253 140.3403197 115.1333956  67.3987887 140.5630910 117.7467859
  67.8987665 140.6747445 116.9382178  68.0423495 140.2591963 118.3868668
  61.4569883 148.4709540 130.6335700  60.9736965 149.2709900 130.8399589
  61.5430822 148.4817485 129.6803144  54.7255842 150.3037920 118.5557520
  54.7026531 150.4025607 117.6039403  55.0356479 151.1503070 118.8774686
  57.3843220 152.3614075 122.6704134  58.3386474 152.3298017 122.6034066
  57.1855744 151.9004698 123.4854360  57.9742602 150.9315191 125.2374932
  58.7935491 151.4259269 125.2609769  58.2479410 150.0147159 125.2092499
  67.7309199 143.3225943 114.6002887  66.8435054 143.6075594 114.3823082
  68.1463188 143.1619706 113.7530164  71.0823735 143.3472464 118.3157226
  71.8584125 143.8368917 118.5881843  70.3571869 143.7730518 118.7729096
  73.5196293 144.0600083 119.3731167  74.1140784 143.8195819 118.6624475
  73.5922877 143.3407214 120.0004703  66.8752412 153.0870618 108.6950907
  67.5788262 153.2920620 109.3108563  66.1515061 153.6547380 108.9599991
  67.7050222 148.8380479 114.8153177  67.6485424 149.2949030 113.9760810
  68.2578565 148.0771164 114.6376020  71.5155028 144.6270211 115.6403297
  71.2591963 144.2266847 116.4711505  70.8907896 145.3414005 115.5153436
  75.8267366 147.3666284 118.1474588  75.2666924 147.4359473 118.9206150
  75.2210870 147.1907269 117.4274085  68.7839110 153.5253147 110.7449367
  69.6184714 153.0934345 110.5626842  68.6223452 153.3535161 111.6726262
  68.4385002 150.0285260 112.1105707  68.3833806 149.8629532 111.1694151
  67.8131057 150.7361293 112.2667896  53.2277517 145.2653325 125.9367129
  53.8736380 144.7552279 126.4254354  53.0194668 146.0022006 126.5110554
  65.7530909 152.3334172 131.4359269  66.6222069 152.5074824 131.0745904
  65.2737660 153.1528589 131.3134999  61.7481127 139.5293369 111.6891025
  61.7359797 140.4735209 111.8459296  62.6404549 139.3463515 111.3950486
  65.5633247 136.1236146 115.9436962  64.7965642 135.5694633 116.0893644
  65.9743952 136.1958015 116.8051113  57.5675008 142.4120942 130.0342143
  58.4306469 142.0557747 130.2445468  56.9940418 142.0734837 130.7217547
  76.9664653 161.7674252 117.9157752  77.7527742 161.3493675 117.5648169
  77.2303357 162.6720344 118.0839400  82.3673080 161.7049485 118.8190731
  83.0998252 161.1348702 119.0528560  81.6112436 161.3171086 119.2597236
  79.8898501 155.4171059 123.2785339  79.5581825 156.2866470 123.0546554
  79.2944114 155.1007343 123.9579370  73.6254687 159.1566626 111.0115422
  73.7929089 160.0246863 111.3785893  73.4351856 159.3193908 110.0876711
  79.7827164 160.1366145 120.3578689  78.8744041 160.0681554 120.0637450
  79.7314760 160.6138090 121.1860515  81.6488810 158.3382584 122.1356563
  81.0063191 158.6315117 121.4896358  81.1443739 158.2235504 122.9409760
  79.3028974 162.0845757 112.8242422  80.2146830 162.3173144 112.6490120
  78.7938621 162.6682801 112.2617501  73.9400812 161.4442992 123.8337272
  74.7862007 161.8682405 123.9771921  73.8799449 160.7876616 124.5275835
  77.0900257 159.1047360 125.4918446  76.8461189 159.8589420 124.9552721
  77.3660188 159.4832708 126.3265693  76.6464949 158.2603793 121.0732283
  75.7849428 158.5585047 121.3649021  76.6727383 158.4774192 120.1413316
  88.2490541 164.8696676 118.6903040  87.4954249 164.3004074 118.5347044
  88.3838082 164.8359341 119.6373675  70.1256509 155.8201658 131.0272115
  69.7323454 155.2667857 131.7019759  70.9422649 156.1312237 131.4178632
  73.0424470 157.2359537 128.6192371  73.7834183 157.8366691 128.5396834
  73.2742392 156.4937175 128.0610414  76.9881632 153.2640640 122.8956653
  76.6445902 154.1542282 122.8195763  77.3560595 153.0742298 122.0326238
  74.5379026 158.0998952 116.4614326  73.6820623 157.7105803 116.2819965
  74.9505978 158.1790913 115.6014112  76.0678173 155.6345296 120.8605886
  75.5642968 155.5975431 120.0473691  76.3608780 156.5438038 120.9202543
  72.3121059 155.7184025 119.8672068  73.1774055 155.5226834 119.5077957
  72.3798568 155.4894377 120.7941425  76.7418218 161.1276344 113.2288869
  76.4368354 161.4422493 114.0799012  77.6948660 161.2057763 113.2716202
  69.9183378 157.9486233 117.2388435  70.4927130 157.7261415 116.5061628
  70.5054360 158.0174928 117.9917036  70.2452965 159.9790694 111.2584320
  69.4090277 160.3165381 111.5793595  70.1057735 159.8439674 110.3211457
  72.2206046 154.8227482 115.9663504  71.5670458 154.5076499 115.3420119
  72.1786520 154.2003223 116.6923327  75.4543786 161.3109416 120.2911152
  74.5366347 161.5324363 120.1332840  75.8703929 161.3855726 119.4322859
  78.6857671 159.7457948 117.4032621  77.9480428 159.2335334 117.7342864
  78.9384444 159.3058329 116.5915898  78.7869298 152.5234200 117.9974390
  79.0928175 151.6631563 117.7100306  79.5121903 153.1151820 117.7973384
  76.5956949 161.9006877 125.0955854  76.9506337 162.1278350 125.9550320
  77.2429081 162.2325254 124.4733110  70.4896813 159.0083408 121.8802195
  71.1296192 158.8672167 121.1825159  69.6574343 158.7217921 121.5040797
  74.8675926 157.0183431 125.8439668  74.2203841 157.7173381 125.7504144
  75.6376942 157.4519575 126.2115916  70.7089086 160.3649270 125.8955763
  70.1726443 159.9140009 126.5477359  70.1205795 160.4995179 125.1526227
  70.1191345 159.8237922 108.4582227  69.2420811 159.7026722 108.0944473
  70.5949098 159.0324000 108.2061115  76.6151921 157.9858841 118.3478953
  77.1120621 157.2328804 118.0280023  75.8438903 158.0223158 117.7822162
  84.4681679 163.6899207 119.9897244  84.4571555 164.5723922 119.6191177
  83.5999058 163.3370758 119.7951781  73.1986890 160.1276224 118.0750637
  72.8284678 159.5747265 118.7631543  73.6945982 159.5234358 117.5225637
  81.0854253 162.5847848 116.4567410  81.5514706 163.4175840 116.3827713
  81.5361754 162.1192830 117.1612669  79.0570916 154.9528435 120.4958311
  78.1433996 155.1832662 120.6640518  79.4864018 155.0366879 121.3472344
  78.8277375 163.1418327 122.9958205  78.1748825 163.3894234 122.3410658
  79.2057754 162.3282465 122.6620683  68.5952224 157.5380215 124.3203743
  68.6593550 158.3995046 123.9081141  68.5319344 156.9254217 123.5876102
  68.0704496 159.6103348 127.9676777  68.6976535 159.2280425 128.5814302
  67.2132415 159.3917550 128.3332470  71.1790599 156.8290200 126.1563333
  71.7025001 157.0752497 126.9189642  70.9602933 157.6610235 125.7366470
  66.5757881 159.0993875 114.0234457  66.2470587 158.2191253 113.8409563
  66.9297251 159.0441543 114.9110847  69.6899704 159.3866844 114.3909935
  70.0295776 159.9152766 113.6688544  70.1371824 159.7247250 115.1668502
  72.3843145 157.7703895 123.8413003  72.0439965 156.9711708 124.2433683
  71.6782151 158.0705606 123.2689836  73.0359616 154.8553208 122.2940326
  73.8585686 154.3813686 122.1719217  73.2797680 155.6343691 122.7939013
  71.6767851 157.8841466 112.5903228  72.3976213 158.2622719 112.0866945
  71.0533155 158.6030343 112.6938206  75.8198974 158.5886615 113.5261560
  76.0362588 159.4711253 113.2250388  75.3393041 158.1972828 112.7967202
  72.4194578 158.5374876 120.1513194  72.4056147 157.6415969 119.8145492
  73.1367006 158.5445540 120.7851480  74.2720709 158.9712216 122.1966322
  74.0138487 159.8929287 122.1950652  73.7405749 158.5742651 122.8866786
  71.8231474 157.4189256 115.4200765  71.9447385 156.4905903 115.6191652
  71.5333516 157.4327942 114.5079080  74.6922664 155.1044167 118.5567484
  74.7144361 155.1683500 117.6019464  75.1090723 154.2648675 118.7507991
  85.0706289 164.8399426 116.5946707  85.5137435 164.0906752 116.1965830
  84.1932799 164.8309563 116.2120439  71.3072553 158.9321254 129.6290697
  71.3560709 159.8083377 129.2468467  71.8495068 158.3898647 129.0562340
  79.2029037 162.3085771 127.5383869  80.1038899 162.1692236 127.2467867
  79.2777011 162.4740226 128.4782047  73.5371842 159.6852626 126.3837056
  72.6675151 159.9786192 126.1119644  73.7731322 160.2693071 127.1044319
  81.6630659 163.8684400 124.9346642  82.1384781 164.0612046 124.1265494
  80.7396225 163.9243585 124.6890026  76.2410876 155.9032243 123.9002476
  76.7592820 156.6393270 123.5748965  75.8866009 156.2096236 124.7349235
  76.4923470 152.3232526 119.4203373  76.7725224 151.6555715 120.0463799
  77.2774077 152.5161621 118.9078037  80.3632328 160.7450160 123.1674948
  81.3149751 160.8448257 123.1887172  80.1935779 159.9528428 123.6773032
  78.3846708 157.8305743 123.3534349  77.7896640 158.1110756 122.6580837
  78.0996404 158.3199644 124.1251090  82.8420406 163.9656279 122.2817248
  82.8096726 163.0272280 122.4676931  83.4521030 164.0440316 121.5483072
  82.9914895 160.7567323 122.3275531  82.4753943 159.9725779 122.1405460
  83.8754843 160.4286039 122.4922050  80.6525621 154.5008338 118.2871343
  80.4550443 154.1923427 119.1714675  81.2625327 155.2269977 118.4169273
  88.6596956 165.0272286 121.4223284  89.3900344 164.7657574 121.9830988
  88.0503901 164.2901008 121.4625352  86.7412253 163.1680149 122.0197736
  86.0145417 163.0336114 121.4114227  86.3259540 163.4756977 122.8254454
  72.8646654 160.7602309 108.2599337  71.9578109 160.4635421 108.3362050
  73.1422635 160.4632127 107.3933623  74.4808720 155.3039198 114.4143578
  73.6709448 154.9586283 114.7898824  75.1693137 154.9946742 115.0031190
  76.4099268 154.3817245 116.0367875  76.9630307 154.8012699 116.6957898
  76.6469354 153.4552993 116.0790831  72.4332367 160.3704319 131.8170639
  72.3329094 161.3198676 131.7482730  72.2153909 160.0422558 130.9446709
  71.6345439 157.6189244 108.4011316  72.4964603 157.9444142 108.6607133
  71.8195783 156.8320740 107.8884382  79.7878075 156.4917770 115.5446539
  79.2076744 157.1502574 115.1624591  79.5214008 155.6695115 115.1333956
  78.2381642 155.8922828 117.7467859  78.7381420 156.0039363 116.9382178
  78.8817249 155.5883881 118.3868668  78.5702953 158.6517861 114.6002887
  77.6828808 158.9367511 114.3823082  78.9856942 158.4911624 113.7530164
  81.9217489 158.6764382 118.3157226  82.6977879 159.1660834 118.5881843
  81.1965623 159.1022436 118.7729096  84.3590048 159.3892001 119.3731167
  84.9534539 159.1487737 118.6624475  84.4316632 158.6699132 120.0004703
  82.3548783 159.9562129 115.6403297  82.0985717 159.5558764 116.4711505
  81.7301651 160.6705922 115.5153436  86.6661121 162.6958202 118.1474588
  86.1060679 162.7651391 118.9206150  86.0604624 162.5199186 117.4274085
  72.5874882 154.8585287 111.6891025  72.5753552 155.8027127 111.8459296
  73.4798304 154.6755432 111.3950486  76.4027001 151.4528064 115.9436962
  75.6359397 150.8986550 116.0893644  76.8137706 151.5249932 116.8051113
  68.4068762 157.7412859 130.0342143  69.2700224 157.3849664 130.2445468
  67.8334173 157.4026754 130.7217547   1.5367104  33.7441497 107.5649851
   2.1745514  33.6248244 106.8613191   1.4187947  34.6922341 107.6237803
   1.0908373  31.4692951 104.6403059   1.8771462  31.0512374 104.2893476
   1.3547077  32.3739043 104.8084707   1.2618450  36.9065801  99.3391716
   0.6264283  36.9800428 100.0512620   0.9315857  37.4959400  98.6610795
   6.4916800  31.4068184 105.5436037   7.2241972  30.8367401 105.7773867
   5.7356156  31.0189784 105.9842543   4.0142220  25.1189758 110.0030646
   3.6825545  25.9885169 109.7791861   3.4187834  24.8026042 110.6824676
   3.9070884  29.8384844 107.0823996   2.9987761  29.7700253 106.7882757
   3.8558480  30.3156789 107.9105821   5.7732530  28.0401283 108.8601870
   5.1306910  28.3333816 108.2141664   5.2687459  27.9254203 109.6655066
   3.4272694  31.7864456  99.5487729   4.3390550  32.0191843  99.3735427
   2.9182341  32.3701500  98.9862808   1.7113461  36.2089084 113.1849022
   2.1196818  35.7671494 112.4403654   0.9890723  35.6341711 113.4383215
   2.0342276  36.7690274 106.9401311   1.4051139  36.9335988 106.2377378
   1.6467938  37.1831884 107.7112275   5.9131508  37.7044712 104.2945674
   5.2282546  38.0843614 103.7442708   5.9975357  38.3140039 105.0277622
   1.2143977  28.8066059 112.2163752   0.9704909  29.5608119 111.6798028
   1.4903907  29.1851406 113.0510999   3.1682440  35.3504671 110.8941018
   3.3799335  35.9936431 110.2175399   3.1212188  34.5166988 110.4262948
   4.2828268  38.2276627 109.0663375   5.1045711  37.8256814 108.7846057
   4.2790670  38.1244861 110.0179491  12.3734261  34.5715375 105.4148347
  11.6197969  34.0022773 105.2592351  12.5081802  34.5378040 106.3618981
   1.4882603  40.3455144 113.2484809   1.4701078  41.1664025 112.7565079
   2.4102523  40.2209219 113.4734951   1.0775635  32.9567950  98.1274395
   0.5622258  33.7272555  98.3662782   0.8052943  32.2833087  98.7507456
   6.0509909  35.7100305 100.0627568   5.2739352  35.3711465  99.6182730
   6.7301390  35.7152928  99.3882533   0.8661938  30.8295042  99.9534176
   0.5612074  31.1441192 100.8044319   1.8192380  30.9076462  99.9961509
   4.2901216  35.1834286 106.7194176   3.6324890  35.8733548 106.8074305
   5.0941615  35.5730718 107.0628162   3.1006675  33.5378659 104.7698118
   3.6138557  34.1708651 105.2719828   3.7507899  32.9379854 104.4041478
   3.8668471  38.5184660 102.8977260   3.4130798  37.6775570 102.9542451
   3.2362438  39.1546059 103.2352041   2.8101391  29.4476646 104.1277928
   2.0724147  28.9354033 104.4588170   3.0628164  29.0077028 103.3161205
   2.3101410  40.3561157 103.8327079   2.6024385  40.9166214 103.1139444
   2.8200031  40.6489718 104.5880238   0.7200669  31.6025576 111.8201161
   1.0750057  31.8297049 112.6795627   1.3672800  31.9343953 111.1978416
   6.4498406  34.7244012 102.5250490   6.3116305  34.9145608 101.5971679
   6.0934625  35.4863394 102.9818541   6.4767786  36.7920539 107.5361762
   6.9104292  36.6995828 108.3844816   7.1899367  36.7678039 106.8981777
   7.3383335  36.8344239 110.0694647   7.5319225  37.7390050 110.3153922
   7.2383954  36.3751658 110.9033232   2.3998444  36.9850982 115.6435528
   2.2483950  36.7561534 114.7265611   2.3903124  37.9421583 115.6566873
   2.4536519  35.3071196  96.0606229   1.8365690  34.5818024  95.9639282
   1.9853008  36.0680557  95.7173303   4.1090651  40.0170105 113.7212009
   4.0503197  39.3329325 113.0542592   4.5110169  40.7589095 113.2692635
   4.1108058  37.9809689 111.9525989   3.2234837  37.6435610 112.0752388
   4.6806609  37.2492720 112.1894754   8.5925399  33.3917906 106.7142551
   8.5815275  34.2742621 106.3436484   7.7242778  33.0389457 106.5197088
   1.8225422  36.4449228 102.6462683   0.8881701  36.5650690 102.4767387
   2.0002090  35.5421694 102.3822692   5.2097973  32.2866547 103.1812717
   5.6758425  33.1194538 103.1073019   5.6605474  31.8211528 103.8857975
   3.2774204  38.6310368 100.1798869   3.5534048  38.5166963 101.0892743
   2.4078703  38.2327853 100.1411042   3.1814636  24.6547134 107.2203618
   2.2677716  24.8851361 107.3885825   3.6107737  24.7385578 108.0717650
   2.9521094  32.8437026 109.7203512   2.2992545  33.0912933 109.0655965
   3.3301474  32.0301164 109.3865989   2.5942325  39.7185022 116.2975820
   3.1382229  40.3314980 115.8030774   2.0129169  40.2764600 116.8142833
   0.8799838  42.8405740 107.4290847   0.7550977  42.0395480 106.9201793
   1.5378929  43.3351933 106.9404817   2.9434746  40.6414760 109.0570397
   1.9965081  40.5220111 108.9848724   3.2917519  39.7537258 109.1396659
   3.5515301  41.2596035 106.3439622   4.4761849  41.0538896 106.2064074
   3.3830604  41.0112436 107.2528964   3.3410617  41.7781702 101.7001714
   3.5147495  41.2128125 100.9475566   3.8339509  42.5782597 101.5181204
   9.1950008  34.5418125 103.3192014   9.6381155  33.7925450 102.9211137
   8.3176519  34.5328262 102.9365746   4.3285790  41.0948467  98.7998612
   5.0236694  41.7155159  99.0185927   4.6708940  40.2443818  99.0750990
   6.2277213  38.5448172 100.3285943   6.7528537  38.8835445  99.6035263
   6.1399565  37.6095188 100.1449078   5.9171119  39.1781076 115.6337141
   5.1266663  39.1605215 115.0941640   5.6804474  39.7169370 116.3886177
   6.0368994  36.0273542 112.9469869   6.0866999  35.8623550 113.8885392
   5.9282917  35.1600801 112.5567750   3.3272756  32.0104470 114.2629176
   4.2282619  31.8710935 113.9713174   3.4020731  32.1758925 115.2027354
   7.5387191  38.4470484 113.1911891   7.2471999  38.8100464 114.0275352
   6.9259322  37.7337492 113.0125223   8.7382873  36.0123364 105.7114461
   9.5729765  36.4513168 105.8752022   8.8742002  35.5362017 104.8922707
   5.7874379  33.5703098 111.6591949   6.2628501  33.7630745 110.8510800
   4.8639944  33.6262284 111.4135333   4.4876048  30.4468859 109.8920255
   5.4393471  30.5466956 109.9132479   4.3179499  29.6547127 110.4018339
   2.5090428  27.5324442 110.0779655   1.9140360  27.8129454 109.3826144
   2.2240124  28.0218343 110.8496397   1.6397918  41.4847369  98.8382288
   2.5728591  41.4192930  99.0415164   1.5521131  42.3203635  98.3796821
   4.2685935  40.8013239  95.7986236   4.1899566  40.4673102  96.6921993
   5.0895601  41.2935007  95.7977708   6.9664126  33.6674978 109.0062554
   6.9340446  32.7290979 109.1922238   7.5764750  33.7459015 108.2728379
   7.1158614  30.4586022 109.0520837   6.5997663  29.6744478 108.8650766
   7.9998563  30.1304738 109.2167357   4.7769341  24.2027037 105.0116650
   4.5794162  23.8942125 105.8959982   5.3869047  24.9288676 105.1414580
  12.7840676  34.7290985 108.1468591  13.5144064  34.4676273 108.7076294
  12.1747621  33.9919707 108.1870659  10.8655973  32.8698848 108.7443042
  10.1389136  32.7354813 108.1359534  10.4503260  33.1775676 109.5499760
   3.9121795  26.1936469 102.2691846   3.3320464  26.8521273 101.8869898
   3.6457728  25.3713814 101.8579263   2.3625361  25.5941527 104.4713166
   2.8625140  25.7058061 103.6627485   3.0060969  25.2902580 105.1113974
   2.6946673  28.3536560 101.3248194   1.8072528  28.6386210 101.1068389
   3.1100662  28.1930323 100.4775471   6.0461209  28.3783081 105.0402533
   6.8221599  28.8679533 105.3127150   5.3209343  28.8041135 105.4974403
   8.4833768  29.0910700 106.0976474   9.0778259  28.8506436 105.3869782
   8.5560351  28.3717830 106.7250010   1.8389886  38.1181234  95.4196214
   2.5425737  38.3231237  96.0353869   1.1152535  38.6857996  95.6845297
   2.6687697  33.8691096 101.5398484   2.6122898  34.3259647 100.7006116
   3.2216039  33.1081780 101.3621327   6.4792503  29.6580827 102.3648604
   6.2229437  29.2577463 103.1956811   5.8545371  30.3724621 102.2398743
  10.7904841  32.3976901 104.8719895  10.2304399  32.4670090 105.6451457
  10.1848344  32.2217885 104.1519391   3.7476584  38.5563763  97.4694674
   4.5822188  38.1244962  97.2872149   3.5860927  38.3845777  98.3971568
   3.4022476  35.0595877  98.8351013   3.3471280  34.8940148  97.8939457
   2.7768531  35.7671910  98.9913203  12.3760859  49.0733415 107.5649851
  13.0139269  48.9540162 106.8613191  12.2581702  50.0214259 107.6237803
   9.1850565  49.0260843 107.5011375   8.8469077  48.9101907 106.6131910
  10.0540333  48.6252008 107.4812382   5.0437381  50.8796319 103.4908266
   4.4802246  50.7886256 102.7224554   4.9289776  50.0596224 103.9710759
   9.6670348  50.1795694 113.4597581   9.6558989  49.7848493 112.5878085
   9.8290988  49.4461767 114.0531352   2.5901813  52.3747511 106.3292487
   3.3823105  52.0338335 105.9138786   2.8298463  52.4842486 107.2494640
  10.6236940  54.5467287  98.8022731   9.9724919  55.1321367  98.4156745
  11.4181302  55.0773482  98.8617769   4.5492567  51.6356424  99.2009866
   5.3223443  51.0885411  99.0622741   4.9017966  52.5000673  99.4124327
   6.3877609  52.9632806 112.4076765   6.0967475  53.8678437 112.2923431
   7.0234594  53.0049334 113.1220834   7.3133816  50.3409655 108.9978125
   7.9097388  50.1165677 108.2835087   7.3708788  49.5994400 109.6003572
   6.8858845  47.7949090  96.8328315   7.1384365  47.2730611  96.0711778
   5.9483404  47.6315236  96.9354999  11.9302127  46.7984868 104.6403059
  12.7165217  46.3804292 104.2893476  12.1940832  47.7030961 104.8084707
  12.1012205  52.2357719  99.3391716  11.4658038  52.3092345 100.0512620
  11.7709611  52.8251318  98.6610795  17.3310555  46.7360102 105.5436037
  18.0635727  46.1659318 105.7773867  16.5749910  46.3481702 105.9842543
   6.6055133  49.6977196  99.0352690   6.4891391  49.0222099  99.7033775
   6.7157393  49.2109570  98.2184843   8.9486674  49.1587343 102.7399380
   8.5844882  48.6317964 103.4512301   9.8053790  48.7685812 102.5665865
  14.8535975  40.4481676 110.0030646  14.5219300  41.3177087 109.7791861
  14.2581588  40.1317960 110.6824676   8.5892161  44.1877243  97.7360728
   8.7566564  45.0557479  98.1031199   8.3989330  44.3504525  96.8122017
  11.3467494  52.6494222 109.4026559  11.0468218  53.5519261 109.2942366
  11.0018554  52.3826405 110.2547711   4.7979976  49.1008019 105.4363263
   3.8730472  48.9684233 105.6440955   5.0464389  49.8802238 105.9333205
  14.7464638  45.1676762 107.0823996  13.8381516  45.0992170 106.7882757
  14.6952234  45.6448707 107.9105821   8.5681382  46.6434900  98.7207395
   8.4481007  47.0891951  99.5592875   7.8733971  46.9920218  98.1620933
   2.1588787  48.7441292 106.2707052   2.2881168  48.9975771 107.1846464
   1.4786238  49.3369000 105.9511707   6.3288274  59.4138542 102.3697526
   6.2512304  60.3646367 102.4486007   5.7249918  59.0684415 103.0272453
   8.8205504  46.5866408 115.0258893   8.0438838  47.1460328 115.0161758
   9.4596067  47.0723191 115.5473763  16.6126285  43.3693200 108.8601870
  15.9700665  43.6625733 108.2141664  16.1081213  43.2546121 109.6655066
  14.2666448  47.1156374  99.5487729  15.1784304  47.3483760  99.3735427
  13.7576095  47.6993418  98.9862808   7.0751876  49.3951861 114.5876860
   7.8166561  49.9336905 114.3111684   6.3688862  50.0218150 114.7448412
  12.5507216  51.5381001 113.1849022  12.9590572  51.0963412 112.4403654
  11.8284477  50.9633629 113.4383215   8.9038286  46.4753608 110.5582579
   9.7499481  46.8993022 110.7017228   8.8436924  45.8187232 111.2521142
  12.8736031  52.0982192 106.9401311  12.2444893  52.2627906 106.2377378
  12.4861693  52.5123802 107.7112275  16.7525263  53.0336630 104.2945674
  16.0676301  53.4135531 103.7442708  16.8369112  53.6431956 105.0277622
  12.0537731  44.1357976 112.2163752  11.8098663  44.8900037 111.6798028
  12.3297662  44.5143324 113.0510999  14.0076194  50.6796589 110.8941018
  14.2193089  51.3228349 110.2175399  13.9605942  49.8458905 110.4262948
  11.6102423  43.2914409 107.7977590  10.7486902  43.5895663 108.0894328
  11.6364858  43.5084808 106.8658623   8.4263993  51.8356600 104.2051396
   8.8902338  52.1144303 103.4156018   8.1620791  50.9340045 104.0224486
   5.3188074  51.3828082 107.1431159   5.8889431  51.8115350 106.5048643
   5.9096185  51.1010666 107.8415345   7.3632879  47.9579752 101.0140961
   8.0656922  48.4100796 101.4814887   7.0313507  47.3163571 101.6420854
   5.8113240  46.5491509 115.3892170   5.1811901  47.2307790 115.6227567
   5.7049328  46.4374591 114.4445308  15.1222022  53.5568544 109.0663375
  15.9439466  53.1548732 108.7846057  15.1184425  53.4536778 110.0179491
   3.0572958  46.5807884 103.2741571   2.2604121  46.6926579 103.7925067
   2.8298550  46.9194537 102.4082462   8.8878626  53.1052588 111.2224086
   8.9523058  53.5672995 112.0582258   8.1789549  52.4749952 111.3506396
  23.2128015  49.9007293 105.4148347  22.4591724  49.3314691 105.2592351
  23.3475556  49.8669957 106.3618981   8.6026643  54.7720695 101.0903066
   8.4672318  55.6172231 101.5187914   9.1436456  54.9739973 100.3269000
   5.0893983  40.8512275 117.7517421   4.6960928  40.2978473 118.4265065
   5.9060123  41.1622853 118.1423939   2.0556041  52.2896133 101.6630991
   2.5680561  53.0839383 101.8136556   2.7078753  51.5922424 101.5964593
   3.8650925  55.4061889 103.7453744   4.0417554  56.3279854 103.5574728
   4.6607759  55.0920309 104.1748124   8.0061944  42.2670154 115.3437678
   8.7471657  42.8677307 115.2642140   8.2379867  41.5247792 114.7855720
   3.1503282  47.4526521 113.6215907   3.0356797  46.5511778 113.9223006
   2.2947800  47.6990218 113.2700724  10.2295120  55.3944262 115.2203408
   9.7858974  54.6080640 114.9024313  10.8912333  55.5823412 114.5547299
   4.9882241  56.9240063 109.7464087   5.5389666  56.7957127 108.9741081
   4.1493717  57.2234952 109.3958979  12.3276358  55.6747061 113.2484809
  12.3094833  56.4955943 112.7565079  13.2496278  55.5501137 113.4734951
   8.7849412  53.1891191 114.0908318   9.3177749  52.4279479 113.8607626
   8.2563493  52.8964843 114.8332472  11.9519107  38.2951257 109.6201959
  11.6083376  39.1852899 109.5441070  12.3198069  38.1052915 108.7571544
  11.9169389  48.2859868  98.1274395  11.4016013  49.0564473  98.3662782
  11.6446698  47.6125004  98.7507456   9.5016501  43.1309569 103.1859633
   8.6458097  42.7416419 103.0065272   9.9143452  43.2101530 102.3259418
  11.0315647  40.6655912 107.5851193  10.5280443  40.6286047 106.7718998
  11.3246254  41.5748655 107.6447849   7.2758533  40.7494642 106.5917374
   8.1411530  40.5537450 106.2323264   7.3436042  40.5204994 107.5186731
  16.8903664  51.0392223 100.0627568  16.1133106  50.7003382  99.6182730
  17.5695145  51.0444846  99.3882533  11.7055693  46.1586960  99.9534176
  11.4005828  46.4733109 100.8044319  12.6586135  46.2368380  99.9961509
  10.1502125  52.3177183 101.6027130   9.6223486  51.5829943 101.2900367
   9.6489627  53.0951860 101.3567098  15.1294971  50.5126204 106.7194176
  14.4718645  51.2025465 106.8074305  15.9335370  50.9022636 107.0628162
   4.8820852  42.9796850 103.9633741   5.4564604  42.7572031 103.2306934
   5.4691835  43.0485544 104.7162343  13.9400429  48.8670577 104.7698118
  14.4532311  49.5000568 105.2719828  14.5901653  48.2671772 104.4041478
   5.2090439  45.0101311  97.9829627   4.3727751  45.3475997  98.3038901
   5.0695209  44.8750291  97.0456763   7.1843520  39.8538099 102.6908811
   6.5307932  39.5387116 102.0665425   7.1423994  39.2313839 103.4168634
   8.2954725  50.1357394  94.6062103   7.3881786  49.9046647  94.8053252
   8.7925757  49.3395013  94.7936084  11.2022804  58.8454901  97.5258789
  10.5284502  59.1486598  98.1343747  11.5888626  59.6483981  97.1764246
  10.4181260  46.3420032 107.0156458   9.5003822  46.5634979 106.8578146
  10.8341404  46.4166343 106.1568166  11.2016308  47.7411448 102.1459139
  11.9488127  48.2532845 101.8366261  11.4707897  47.4195501 103.0063532
   9.4742958  50.2369989  99.1286093   8.5654177  49.9529021  99.2258563
   9.5038042  50.6569067  98.2689400  14.7062226  53.8476578 102.8977260
  14.2524553  53.0067488 102.9542451  14.0756192  54.4837976 103.2352041
  13.6495145  44.7768564 104.1277928  12.9117902  44.2645950 104.4588170
  13.9021919  44.3368946 103.3161205  13.1495165  55.6853075 103.8327079
  13.4418139  56.2458132 103.1139444  13.6593785  55.9781636 104.5880238
  13.7506772  37.5544816 104.7219697  14.0565649  36.6942180 104.4345612
  14.4759377  38.1462436 104.5218691   8.0227852  47.8498609 105.2295888
   8.0776462  46.8972446 105.1538365   7.2119054  48.0058048 105.7137187
   9.1719046  51.7778732  96.4674171   8.7338476  51.0614591  96.0079809
   9.9129487  52.0054847  95.9059263   5.9620212  46.4675669 102.9886267
   5.1488078  46.7669839 103.3951459   6.4579206  46.0731358 103.7060749
   8.1128790  56.4633426 104.9220532   8.0704969  56.6894272 103.9929064
   9.0291489  56.2296800 105.0706333  11.5594424  46.9317493 111.8201161
  11.9143811  47.1588967 112.6795627  12.2066555  47.2635870 111.1978416
  17.2892161  50.0535929 102.5250490  17.1510059  50.2437525 101.5971679
  16.9328380  50.8155312 102.9818541   5.4534287  44.0394024 108.6047502
   6.0933666  43.8982784 107.9070465   4.6211817  43.7528538 108.2286104
  17.3161540  52.1212456 107.5361762  17.7498047  52.0287745 108.3844816
  18.0293121  52.0969957 106.8981777   6.2294591  53.3396455 104.7182494
   7.0235189  52.8446775 104.5165069   5.5186283  52.8114318 104.3550200
  11.0489435  55.7214550 109.0694862  11.1026457  56.2905487 109.8372578
  10.1804217  55.8916435 108.7048899   2.5377354  47.4839537 100.7942247
   1.6074942  47.4223992 101.0112209   2.6334826  46.9615489  99.9978888
   2.4562903  44.0094349 103.3820489   2.7169721  44.9239683 103.2729649
   3.2780076  43.5418792 103.5317102   3.9287829  45.4232107 110.5519313
   4.6010882  45.2149469 109.9031962   3.1017615  45.2254193 110.1124546
  18.1777090  52.1636157 110.0694647  18.3712980  53.0681967 110.3153922
  18.0777708  51.7043576 110.9033232   9.8313401  42.0494048 112.5684974
   9.1841316  42.7483997 112.4749451  10.6014416  42.4830191 112.9361222
  13.2392199  52.3142900 115.6435528  13.0877705  52.0853451 114.7265611
  13.2296878  53.2713501 115.6566873  10.0077535  49.8874812 110.6281794
  10.9369595  50.0385972 110.4550761   9.5868565  49.9758833 109.7730440
   8.8065867  53.9125477 108.3980332   8.6676952  53.5444261 109.2706270
   8.0180463  54.4273116 108.2264289   9.4014019  59.0134573  99.7405868
   9.5765774  58.5422617 100.5551491   8.7146807  59.6400340  99.9687129
  10.3571082  53.2907080 105.7869169  10.0220914  53.2507850 106.6826819
   9.8575028  52.6251795 105.3139580   4.3315326  48.6974710 111.3121751
   4.1935124  47.9654948 111.9133290   5.2420249  48.6083610 111.0305938
  13.2930274  50.6363114  96.0606229  12.6759444  49.9109942  95.9639282
  12.8246762  51.3972474  95.7173303   6.9597627  48.4094669 110.8005430
   7.6697245  47.7687861 110.7592049   6.9166935  48.6607564 111.7231611
  14.9484405  55.3462022 113.7212009  14.8896951  54.6621242 113.0542592
  15.3503924  56.0881012 113.2692635   5.6726560  45.3959887 112.6201070
   5.1363918  44.9450625 113.2722666   5.0843269  45.5305796 111.8771534
   3.9675104  62.1623936 106.5145728   4.2071702  62.7942460 107.1924747
   3.1244300  61.8111976 106.8011088   5.0828819  44.8548538  95.1827533
   4.2058286  44.7337339  94.8189780   5.5586573  44.0634617  94.9306422
  14.9501812  53.3101606 111.9525989  14.0628591  52.9727528 112.0752388
  15.5200364  52.5784637 112.1894754   1.4065682  44.5315894 109.7054064
   1.3223870  43.9241564 108.9704474   0.5848388  45.0224913 109.7063560
   8.4802966  57.9703059 108.9187232   8.4073137  58.7758030 109.4306537
   8.0380359  58.1695024 108.0935254   8.2692745  57.2074829 102.4290054
   7.4860267  57.7496509 102.5228278   8.9685491  57.7248808 102.8284295
  11.5789396  43.0169458 105.0724259  12.0758095  42.2639420 104.7525329
  10.8076377  43.0533775 104.5067469  19.4319153  48.7209824 106.7142551
  19.4209029  49.6034539 106.3436484  18.5636532  48.3681374 106.5197088
  10.9401649  57.8689893 111.0745391  11.6529622  58.5037357 111.0021292
  10.4491678  57.9653759 110.2585393  12.6619176  51.7741145 102.6462683
  11.7275455  51.8942608 102.4767387  12.8395845  50.8713612 102.3822692
   8.1624364  45.1586841 104.7995944   7.7922152  44.6057881 105.4876849
   8.6583457  44.5544974 104.2470944  16.0491728  47.6158465 103.1812717
  16.5152180  48.4486456 103.1073019  16.4999228  47.1503446 103.8857975
   5.9913563  55.6184336 111.8950962   6.6923022  56.2520819 112.0480356
   5.5208678  55.9599068 111.1346601  14.1167959  53.9602286 100.1798869
  14.3927803  53.8458880 101.0892743  13.2472457  53.5619771 100.1411042
  14.0208390  39.9839052 107.2203618  13.1071470  40.2143278 107.3885825
  14.4501492  40.0677496 108.0717650  13.7914849  48.1728943 109.7203512
  13.1386299  48.4204851 109.0655965  14.1695229  47.3593082 109.3865989
  10.7522023  58.2088637 103.8231682  10.9344417  57.3910293 104.2859435
  11.5755009  58.4256329 103.3856572  11.0864188  57.1356822 101.0846731
  11.6151955  56.6249276 100.4716893  11.3492408  56.8199352 101.9492264
   9.8402422  48.9148755 116.2069549   9.1643059  48.8142884 116.8771924
  10.6630056  48.7587968 116.6705546   1.5881281  55.1520691 108.8282064
   2.1734718  54.4064379 108.9609969   1.3906119  55.4624648 109.7118728
   4.4419936  58.1871938 103.8444507   3.7730311  58.6718066 103.3608547
   4.3032806  58.4341159 104.7587885   8.5825205  60.2215682 110.4427165
   9.1343513  60.3847303 111.2076250   8.9231398  60.8120120 109.7707190
   3.5589698  42.5690832 111.0449050   3.6231024  43.4305663 110.6326448
   3.4956818  41.9564833 110.3121408   3.0341971  44.6413964 114.6922084
   3.6614009  44.2591042 115.3059608   2.1769889  44.4228166 115.0577777
  13.4336079  55.0476940 116.2975820  13.9775983  55.6606898 115.8030774
  12.8522924  55.6056518 116.8142833  11.7193592  58.1697658 107.4290847
  11.5944732  57.3687397 106.9201793  12.3772683  58.6643851 106.9404817
   3.3401760  44.5246390 106.6067988   2.6188346  45.1382358 106.4675461
   4.1295016  45.0604155 106.5284633  13.7828500  55.9706678 109.0570397
  12.8358836  55.8512029 108.9848724  14.1311274  55.0829176 109.1396659
   6.1428074  41.8600817 112.8808639   6.6662476  42.1063113 113.6434949
   5.9240407  42.6920851 112.4611777   1.5395355  44.1304491 100.7479764
   1.2108061  43.2501870 100.5654870   1.8934726  44.0752160 101.6356153
  10.7874934  55.7659394 105.2574750  10.6399896  54.8376101 105.4382320
  11.6128427  55.7879485 104.7731825   4.6537178  44.4177461 101.1155242
   4.9933251  44.9463382 100.3933850   5.1009299  44.7557867 101.8913808
  14.3909056  56.5887953 106.3439622  15.3155603  56.3830814 106.2064074
  14.2224359  56.3404354 107.2528964   7.3480619  42.8014512 110.5658310
   7.0077439  42.0022325 110.9678990   6.6419625  43.1016222 109.9935143
   7.9997091  39.8863824 109.0185633   8.8223160  39.4124302 108.8964523
   8.2435154  40.6654308 109.5184319   6.6405325  42.9152082  99.3148535
   7.3613688  43.2933335  98.8112251   6.0170629  43.6340959  99.4183512
  10.7836448  43.6197231 100.2506867  11.0000062  44.5021869  99.9495695
  10.3030515  43.2283445  99.5212509   5.5235669  46.5782945 106.8277611
   5.3780250  46.8923248 107.7201893   5.0460873  47.1967845 106.2748510
   7.3832052  43.5685493 106.8758501   7.3693621  42.6726586 106.5390799
   8.1004480  43.5756156 107.5096787   9.2358183  44.0022833 108.9211628
   8.9775961  44.9239904 108.9195959   8.7043223  43.6053267 109.6112093
  14.1804372  57.1073620 101.7001714  14.3541249  56.5420042 100.9475566
  14.6733263  57.9074515 101.5181204   6.7868948  42.4499873 102.1446071
   6.9084859  41.5216519 102.3436959   6.4970991  42.4638559 101.2324387
   9.6560139  40.1354783 105.2812791   9.6781835  40.1994116 104.3264771
  10.0728198  39.2959292 105.4753297  20.0343763  49.8710043 103.3192014
  20.4774909  49.1217368 102.9211137  19.1570273  49.8620179 102.9365746
  15.1679544  56.4240384  98.7998612  15.8630449  57.0447077  99.0185927
  15.5102694  55.5735736  99.0750990  17.0670967  53.8740090 100.3285943
  17.5922291  54.2127363  99.6035263  16.9793320  52.9387105 100.1449078
   8.7291016  57.7874164 112.4575820   9.0378143  57.5423310 113.3298519
   9.5266498  57.9920802 111.9694690   8.7511628  59.9412073 104.6881196
   8.3116618  59.4488452 105.3814053   9.5019745  59.3985041 104.4473271
   1.2303967  56.1323614 104.6905824   2.0561987  55.8327386 104.3104468
   0.8798019  55.3631237 105.1395613   6.1985500  55.4850082 106.7603498
   5.5765510  54.8220787 106.4605726   6.8690367  55.5111214 106.0777146
   6.2710028  43.9631870 116.3536004   6.3198183  44.8393993 115.9713773
   6.8132542  43.4209263 115.7807647  16.7564873  54.5072994 115.6337141
  15.9660417  54.4897132 115.0941640  16.5198228  55.0461287 116.3886177
  16.8762749  51.3565460 112.9469869  16.9260753  51.1915467 113.8885392
  16.7676672  50.4892719 112.5567750   5.7599007  54.0354006 100.2361958
   5.9087128  54.7189470  99.5828631   6.5665451  54.0159096 100.7511414
  14.1666511  47.3396388 114.2629176  15.0676374  47.2002853 113.9713174
  14.2414485  47.5050843 115.2027354   8.5009316  44.7163243 113.1082362
   7.6312626  45.0096809 112.8364951   8.7368797  45.3003688 113.8289626
  18.3780945  53.7762401 113.1911891  18.0865754  54.1392382 114.0275352
  17.7653077  53.0629410 113.0125223  19.5776628  51.3415281 105.7114461
  20.4123519  51.7805085 105.8752022  19.7135756  50.8653934 104.8922707
  16.6268134  48.8995016 111.6591949  17.1022255  49.0922662 110.8510800
  15.7033699  48.9554202 111.4135333   3.5151640  50.0619183 101.2423027
   3.2697682  49.1581513 101.4403237   3.6847555  50.0636334 100.3002505
  11.2048350  40.9342860 110.6247783  11.7230294  41.6703887 110.2994271
  10.8503483  41.2406853 111.4594542   2.7847288  45.7947541  98.7409189
   2.0916533  45.8691896  98.0849225   2.5399040  45.0307884  99.2630706
  11.4560944  37.3543142 106.1448679  11.7362698  36.6866331 106.7709106
  12.2411551  37.5472238 105.6323343   9.2594413  56.5302136  97.7073706
   8.6868380  57.1492323  97.2544178   9.8327206  57.0801498  98.2413628
  15.3269803  45.7760776 109.8920255  16.2787225  45.8758874 109.9132479
  15.1573253  44.9839045 110.4018339  13.3484182  42.8616359 110.0779655
  12.7534114  43.1421372 109.3826144  13.0633879  43.3510260 110.8496397
  12.4791673  56.8139286  98.8382288  13.4122346  56.7484848  99.0415164
  12.3914885  57.6495553  98.3796821  15.1079689  56.1305157  95.7986236
  15.0293321  55.7965020  96.6921993  15.9289356  56.6226924  95.7977708
  17.8057880  48.9966896 109.0062554  17.7734200  48.0582897 109.1922238
  18.4158504  49.0750933 108.2728379   9.6441211  47.8662949  95.0489758
  10.5900316  47.7369157  95.1178176   9.2655456  47.1277611  95.5259186
  17.9552369  45.7877939 109.0520837  17.4391418  45.0036396 108.8650766
  18.8392317  45.4596656 109.2167357  15.6163096  39.5318955 105.0116650
  15.4187917  39.2234043 105.8959982  16.2262801  40.2580594 105.1414580
  23.6234430  50.0582903 108.1468591  24.3537819  49.7968191 108.7076294
  23.0141376  49.3211625 108.1870659  21.7049727  48.1990765 108.7443042
  20.9782891  48.0646730 108.1359534  21.2897014  48.5067594 109.5499760
   9.5279904  51.9180695 116.5090415  10.4482913  52.0959294 116.7030462
   9.4929487  50.9736740 116.3570114   7.8284128  45.7912925  94.9844643
   6.9215584  45.4946038  95.0607357   8.1060109  45.4942743  94.1178930
   2.5241976  49.8281730 109.1513196   2.7427986  50.7598837 109.1701230
   2.9367750  49.4689704 109.9368000   9.4446194  40.3349815 101.1388885
   8.6346922  39.9896900 101.5144131  10.1330611  40.0257359 101.7276496
  11.3736742  39.4127862 102.7613181  11.9267781  39.8323315 103.4203204
  11.6106829  38.4863610 102.8036137   7.3969842  45.4014935 118.5415945
   7.2966569  46.3509292 118.4728036   7.1791384  45.0733174 117.6692015
   6.5982913  42.6499860  95.1256623   7.4602077  42.9754759  95.3852440
   6.7833257  41.8631356  94.6129688  14.7515549  41.5228387 102.2691846
  14.1714219  42.1813191 101.8869898  14.4851482  40.7005732 101.8579263
  13.2019116  40.9233445 104.4713166  13.7018894  41.0349979 103.6627485
  13.8454724  40.6194497 105.1113974   7.2601112  48.8312074 117.3581007
   6.7768193  49.6312434 117.5644896   7.3462051  48.8420019 116.4048451
   0.5287071  50.6640454 105.2802826   0.5057759  50.7628141 104.3284709
   0.8387708  51.5105605 105.6019992   3.1874449  52.7216609 109.3949441
   4.1417703  52.6900551 109.3279372   2.9886973  52.2607233 110.2099667
   3.7773831  51.2917725 111.9620238   4.5966720  51.7861804 111.9855076
   4.0510639  50.3749693 111.9337806  13.5340428  43.6828477 101.3248194
  12.6466283  43.9678128 101.1068389  13.9494417  43.5222241 100.4775471
  16.8854964  43.7074998 105.0402533  17.6615354  44.1971451 105.3127150
  16.1603098  44.1333052 105.4974403  19.3227522  44.4202617 106.0976474
  19.9172013  44.1798353 105.3869782  19.3954106  43.7009748 106.7250010
   1.5424678  58.2636228 106.4119639   1.4079146  57.5036629 105.8457637
   1.1256740  58.9877128 105.9448427  12.6783641  53.4473152  95.4196214
  13.3819491  53.6523154  96.0353869  11.9546290  54.0149914  95.6845297
  13.5081451  49.1983013 101.5398484  13.4516653  49.6551565 100.7006116
  14.0609794  48.4373698 101.3621327  17.3186257  44.9872745 102.3648604
  17.0623191  44.5869381 103.1956811  16.6939125  45.7016539 102.2398743
  21.6298595  47.7268818 104.8719895  21.0698153  47.7962008 105.6451457
  21.0242098  47.5509803 104.1519391   4.6993804  59.1605545 106.6238081
   4.5826188  60.1050978 106.5216771   3.8786250  58.8579107 107.0123880
  14.5870338  53.8855681  97.4694674  15.4215942  53.4536880  97.2872149
  14.4254681  53.7137695  98.3971568  14.2416231  50.3887794  98.8351013
  14.1865034  50.2232066  97.8939457  13.6162286  51.0963827  98.9913203
  11.5562138  52.6936706 118.1604576  12.4253297  52.8677359 117.7991211
  11.0768889  53.5131123 118.0380305   7.5512356  39.8895903  98.4136332
   7.5391026  40.8337743  98.5704602   8.4435778  39.7066049  98.1195793
   5.7248318  59.8133807 109.8394010   6.6275565  59.8457418 110.1560505
   5.4985688  58.8834258 109.8540345   7.4801920  58.5664794 106.5004088
   6.5297551  58.5666655 106.3868461   7.7834406  57.8197528 105.9840123
  11.3664475  36.4838680 102.6682268  10.5996871  35.9297167 102.8138951
  11.7775180  36.5560549 103.5296420   3.3706237  42.7723476 116.7587450
   4.2337698  42.4160281 116.9690774   2.7971647  42.4337371 117.4462854
  23.2154613  64.4025332 107.5649851  23.8533023  64.2832080 106.8613191
  23.0975456  65.3506176 107.6237803  20.0244320  64.3552760 107.5011375
  19.6862831  64.2393825 106.6131910  20.8934088  63.9543925 107.4812382
  15.8831135  66.2088237 103.4908266  15.3196001  66.1178174 102.7224554
  15.7683530  65.3888141 103.9710759  20.5064103  65.5087612 113.4597581
  20.4952744  65.1140410 112.5878085  20.6684742  64.7753685 114.0531352
  13.4295567  67.7039428 106.3292487  14.2216859  67.3630253 105.9138786
  13.6692218  67.8134403 107.2494640  21.4630694  69.8759204  98.8022731
  20.8118674  70.4613285  98.4156745  22.2575057  70.4065399  98.8617769
  15.3886321  66.9648342  99.2009866  16.1617197  66.4177329  99.0622741
  15.7411720  67.8292591  99.4124327  17.2271364  68.2924724 112.4076765
  16.9361230  69.1970355 112.2923431  17.8628348  68.3341252 113.1220834
  18.1527571  65.6701572 108.9978125  18.7491143  65.4457595 108.2835087
  18.2102542  64.9286318 109.6003572  17.7252599  63.1241008  96.8328315
  17.9778120  62.6022529  96.0711778  16.7877158  62.9607153  96.9354999
  22.7695882  62.1276786 104.6403059  23.5558971  61.7096209 104.2893476
  23.0334586  63.0322878 104.8084707  22.9405959  67.5649636  99.3391716
  22.3051792  67.6384263 100.0512620  22.6103366  68.1543235  98.6610795
  28.1704309  62.0652019 105.5436037  28.9029481  61.4951236 105.7773867
  27.4143665  61.6773620 105.9842543  17.4448888  65.0269114  99.0352690
  17.3285146  64.3514017  99.7033775  17.5551148  64.5401488  98.2184843
  19.7880429  64.4879261 102.7399380  19.4238636  63.9609882 103.4512301
  20.6447545  64.0977730 102.5665865  25.6929729  55.7773593 110.0030646
  25.3613054  56.6469004 109.7791861  25.0975343  55.4609877 110.6824676
  19.4285916  59.5169161  97.7360728  19.5960318  60.3849397  98.1031199
  19.2383085  59.6796442  96.8122017  22.1861249  67.9786139 109.4026559
  21.8861972  68.8811178 109.2942366  21.8412308  67.7118323 110.2547711
  15.6373730  64.4299936 105.4363263  14.7124227  64.2976150 105.6440955
  15.8858144  65.2094156 105.9333205  25.5858393  60.4968680 107.0823996
  24.6775270  60.4284088 106.7882757  25.5345989  60.9740625 107.9105821
  19.4075137  61.9726818  98.7207395  19.2874762  62.4183869  99.5592875
  18.7127725  62.3212136  98.1620933  12.9982541  64.0733210 106.2707052
  13.1274923  64.3267689 107.1846464  12.3179993  64.6660918 105.9511707
  17.1682029  74.7430460 102.3697526  17.0906058  75.6938285 102.4486007
  16.5643672  74.3976332 103.0272453  19.6599259  61.9158325 115.0258893
  18.8832593  62.4752245 115.0161758  20.2989822  62.4015108 115.5473763
  27.4520039  58.6985118 108.8601870  26.8094419  58.9917651 108.2141664
  26.9474968  58.5838038 109.6655066  25.1060203  62.4448291  99.5487729
  26.0178059  62.6775678  99.3735427  24.5969850  63.0285335  98.9862808
  17.9145631  64.7243779 114.5876860  18.6560315  65.2628823 114.3111684
  17.2082616  65.3510067 114.7448412  23.3900970  66.8672919 113.1849022
  23.7984327  66.4255330 112.4403654  22.6678232  66.2925547 113.4383215
  19.7432041  61.8045526 110.5582579  20.5893236  62.2284939 110.7017228
  19.6830678  61.1479150 111.2521142  23.7129785  67.4274110 106.9401311
  23.0838648  67.5919824 106.2377378  23.3255447  67.8415719 107.7112275
  27.5919017  68.3628548 104.2945674  26.9070055  68.7427449 103.7442708
  27.6762866  68.9723874 105.0277622  22.8931486  59.4649894 112.2163752
  22.6492418  60.2191955 111.6798028  23.1691416  59.8435242 113.0510999
  24.8469949  66.0088507 110.8941018  25.0586844  66.6520266 110.2175399
  24.7999697  65.1750823 110.4262948  22.4496178  58.6206327 107.7977590
  21.5880657  58.9187581 108.0894328  22.4758612  58.8376726 106.8658623
  19.2657747  67.1648518 104.2051396  19.7296093  67.4436221 103.4156018
  19.0014545  66.2631962 104.0224486  16.1581828  66.7119999 107.1431159
  16.7283185  67.1407268 106.5048643  16.7489940  66.4302584 107.8415345
  18.2026633  63.2871670 101.0140961  18.9050676  63.7392714 101.4814887
  17.8707262  62.6455489 101.6420854  16.6506995  61.8783427 115.3892170
  16.0205655  62.5599708 115.6227567  16.5443082  61.7666508 114.4445308
  11.9451967  61.5455223 106.3158094  11.1551021  61.8012751 105.8398205
  12.4363214  62.3603561 106.4210135  25.9615777  68.8860462 109.0663375
  26.7833220  68.4840649 108.7846057  25.9578179  68.7828696 110.0179491
  13.8966712  61.9099802 103.2741571  13.0997876  62.0218496 103.7925067
  13.6692305  62.2486454 102.4082462  19.7272380  68.4344505 111.2224086
  19.7916813  68.8964912 112.0582258  19.0183304  67.8041870 111.3506396
  10.2289670  61.7985713 108.7473085  10.4797708  62.6832723 109.0130661
  10.7649218  61.6190315 107.9748177  34.0521770  65.2299210 105.4148347
  33.2985478  64.6606608 105.2592351  34.1869311  65.1961875 106.3618981
  19.4420398  70.1012613 101.0903066  19.3066072  70.9464148 101.5187914
  19.9830210  70.3031890 100.3269000  15.9287737  56.1804193 117.7517421
  15.5354683  55.6270391 118.4265065  16.7453878  56.4914771 118.1423939
  12.8949795  67.6188051 101.6630991  13.4074316  68.4131301 101.8136556
  13.5472508  66.9214341 101.5964593  14.7044680  70.7353807 103.7453744
  14.8811308  71.6571772 103.5574728  15.5001513  70.4212226 104.1748124
  18.8455698  57.5962072 115.3437678  19.5865412  58.1969225 115.2642140
  19.0773621  56.8539709 114.7855720  13.9897036  62.7818439 113.6215907
  13.8750551  61.8803696 113.9223006  13.1341554  63.0282136 113.2700724
  21.0688874  70.7236179 115.2203408  20.6252728  69.9372558 114.9024313
  21.7306088  70.9115330 114.5547299  15.8275995  72.2531981 109.7464087
  16.3783420  72.1249044 108.9741081  14.9887471  72.5526870 109.3958979
  23.1670112  71.0038979 113.2484809  23.1488587  71.8247860 112.7565079
  24.0890032  70.8793054 113.4734951  19.6243166  68.5183109 114.0908318
  20.1571503  67.7571397 113.8607626  19.0957247  68.2256760 114.8332472
  22.7912861  53.6243175 109.6201959  22.4477131  54.5144816 109.5441070
  23.1591824  53.4344832 108.7571544  10.8598712  65.9476705 102.4390562
  11.6973934  66.3573713 102.2224269  11.0376980  65.0076147 102.4090755
  22.7563144  63.6151786  98.1274395  22.2409767  64.3856390  98.3662782
  22.4840452  62.9416922  98.7507456  20.3410255  58.4601486 103.1859633
  19.4851851  58.0708337 103.0065272  20.7537207  58.5393447 102.3259418
  21.8709402  55.9947830 107.5851193  21.3674197  55.9577965 106.7718998
  22.1640009  56.9040572 107.6447849  18.1152288  56.0786559 106.5917374
  18.9805284  55.8829368 106.2323264  18.1829796  55.8496911 107.5186731
  27.7297418  66.3684140 100.0627568  26.9526861  66.0295300  99.6182730
  28.4088899  66.3736764  99.3882533  22.5449447  61.4878878  99.9534176
  22.2399583  61.8025027 100.8044319  23.4979889  61.5660298  99.9961509
  20.9895879  67.6469101 101.6027130  20.4617241  66.9121861 101.2900367
  20.4883382  68.4243777 101.3567098  25.9688725  65.8418122 106.7194176
  25.3112399  66.5317383 106.8074305  26.7729124  66.2314554 107.0628162
  15.7214607  58.3088767 103.9633741  16.2958359  58.0863949 103.2306934
  16.3085589  58.3777462 104.7162343  24.7794184  64.1962494 104.7698118
  25.2926066  64.8292486 105.2719828  25.4295408  63.5963690 104.4041478
  16.0484194  60.3393228  97.9829627  15.2121506  60.6767915  98.3038901
  15.9088963  60.2042208  97.0456763  18.0237274  55.1830016 102.6908811
  17.3701687  54.8679033 102.0665425  17.9817748  54.5605757 103.4168634
  19.1348479  65.4649311  94.6062103  18.2275541  65.2338565  94.8053252
  19.6319511  64.6686931  94.7936084  22.0416558  74.1746819  97.5258789
  21.3678257  74.4778515  98.1343747  22.4282380  74.9775899  97.1764246
  21.2575015  61.6711950 107.0156458  20.3397576  61.8926897 106.8578146
  21.6735158  61.7458260 106.1568166  22.0410062  63.0703366 102.1459139
  22.7881881  63.5824763 101.8366261  22.3101652  62.7487418 103.0063532
  20.3136713  65.5661906  99.1286093  19.4047932  65.2820939  99.2258563
  20.3431796  65.9860985  98.2689400  25.5455980  69.1768496 102.8977260
  25.0918307  68.3359406 102.9542451  24.9149947  69.8129894 103.2352041
  24.4888900  60.1060482 104.1277928  23.7511656  59.5937868 104.4588170
  24.7415673  59.6660863 103.3161205  23.9888919  71.0144992 103.8327079
  24.2811894  71.5750050 103.1139444  24.4987540  71.3073553 104.5880238
  24.5900527  52.8836734 104.7219697  24.8959404  52.0234097 104.4345612
  25.3153132  53.4754354 104.5218691  10.8824883  63.2867420 103.1101295
  10.6849283  62.6936781 102.3852362  10.3271547  62.9819631 103.8277234
  18.8621607  63.1790527 105.2295888  18.9170216  62.2264363 105.1538365
  18.0512809  63.3349966 105.7137187  20.0112800  67.1070650  96.4674171
  19.5732230  66.3906509  96.0079809  20.7523241  67.3346765  95.9059263
  16.8013967  61.7967587 102.9886267  15.9881832  62.0961757 103.3951459
  17.2972961  61.4023275 103.7060749  18.9522544  71.7925344 104.9220532
  18.9098723  72.0186190 103.9929064  19.8685243  71.5588718 105.0706333
  22.3988178  62.2609411 111.8201161  22.7537566  62.4880884 112.6795627
  23.0460309  62.5927788 111.1978416  28.1285915  65.3827847 102.5250490
  27.9903814  65.5729443 101.5971679  27.7722134  66.1447230 102.9818541
  16.2928041  59.3685942 108.6047502  16.9327421  59.2274701 107.9070465
  15.4605572  59.0820456 108.2286104  28.1555295  67.4504374 107.5361762
  28.5891801  67.3579663 108.3844816  28.8686875  67.4261874 106.8981777
  17.0688345  68.6688373 104.7182494  17.8628944  68.1738693 104.5165069
  16.3580038  68.1406236 104.3550200  21.8883190  71.0506468 109.0694862
  21.9420212  71.6197404 109.8372578  21.0197971  71.2208353 108.7048899
  13.3771109  62.8131454 100.7942247  12.4468697  62.7515910 101.0112209
  13.4728581  62.2907407  99.9978888  13.2956658  59.3386267 103.3820489
  13.5563475  60.2531600 103.2729649  14.1173830  58.8710710 103.5317102
  14.7681583  60.7524024 110.5519313  15.4404637  60.5441386 109.9031962
  13.9411370  60.5546110 110.1124546  29.0170844  67.4928075 110.0694647
  29.2106734  68.3973885 110.3153922  28.9171463  67.0335494 110.9033232
  20.6707155  57.3785965 112.5684974  20.0235070  58.0775915 112.4749451
  21.4408170  57.8122109 112.9361222  24.0785953  67.6434817 115.6435528
  23.9271459  67.4145369 114.7265611  24.0690633  68.6005419 115.6566873
  20.8471289  65.2166730 110.6281794  21.7763349  65.3677890 110.4550761
  20.4262319  65.3050751 109.7730440  19.6459621  69.2417395 108.3980332
  19.5070707  68.8736179 109.2706270  18.8574217  69.7565034 108.2264289
  20.2407773  74.3426491  99.7405868  20.4159529  73.8714534 100.5551491
  19.5540561  74.9692257  99.9687129  21.1964836  68.6198997 105.7869169
  20.8614669  68.5799767 106.6826819  20.6968782  67.9543713 105.3139580
  15.1709080  64.0266627 111.3121751  15.0328878  63.2946866 111.9133290
  16.0814004  63.9375527 111.0305938  24.1324028  65.9655032  96.0606229
  23.5153199  65.2401860  95.9639282  23.6640516  66.7264392  95.7173303
  17.7991381  63.7386587 110.8005430  18.5091000  63.0979779 110.7592049
  17.7560689  63.9899481 111.7231611  25.7878160  70.6753940 113.7212009
  25.7290706  69.9913160 113.0542592  26.1897678  71.4172930 113.2692635
  16.5120315  60.7251804 112.6201070  15.9757672  60.2742543 113.2722666
  15.9237023  60.8597713 111.8771534  14.8068858  77.4915854 106.5145728
  15.0465457  78.1234378 107.1924747  13.9638055  77.1403894 106.8011088
  15.9222574  60.1840456  95.1827533  15.0452040  60.0629257  94.8189780
  16.3980327  59.3926534  94.9306422  25.7895567  68.6393524 111.9525989
  24.9022346  68.3019446 112.0752388  26.3594118  67.9076555 112.1894754
   7.4424714  64.9717616 105.2769040   8.1295754  64.6579346 104.6890056
   7.2872843  65.8758980 105.0036292  12.2459436  59.8607812 109.7054064
  12.1617625  59.2533482 108.9704474  11.4242143  60.3516830 109.7063560
  19.3196720  73.2994976 108.9187232  19.2466892  74.1049948 109.4306537
  18.8774113  73.4986942 108.0935254  19.1086500  72.5366746 102.4290054
  18.3254022  73.0788426 102.5228278  19.8079245  73.0540726 102.8284295
  22.4183150  58.3461376 105.0724259  22.9151850  57.5931338 104.7525329
  21.6470132  58.3825692 104.5067469  30.2712907  64.0501741 106.7142551
  30.2602784  64.9326457 106.3436484  29.4030287  63.6973292 106.5197088
  21.7795404  73.1981810 111.0745391  22.4923376  73.8329275 111.0021292
  21.2885433  73.2945676 110.2585393  23.5012931  67.1033063 102.6462683
  22.5669210  67.2234525 102.4767387  23.6789599  66.2005530 102.3822692
  19.0018119  60.4878759 104.7995944  18.6315906  59.9349799 105.4876849
  19.4977211  59.8836892 104.2470944  26.8885482  62.9450382 103.1812717
  27.3545934  63.7778374 103.1073019  27.3392983  62.4795364 103.8857975
  16.8307317  70.9476254 111.8950962  17.5316777  71.5812737 112.0480356
  16.3602432  71.2890985 111.1346601  24.9561713  69.2894203 100.1798869
  25.2321557  69.1750798 101.0892743  24.0866212  68.8911688 100.1411042
  24.8602145  55.3130969 107.2203618  23.9465225  55.5435196 107.3885825
  25.2895246  55.3969413 108.0717650  24.6308603  63.5020861 109.7203512
  23.9780054  63.7496769 109.0655965  25.0088983  62.6884999 109.3865989
  21.5915777  73.5380554 103.8231682  21.7738172  72.7202210 104.2859435
  22.4148763  73.7548247 103.3856572  21.9257943  72.4648739 101.0846731
  22.4545709  71.9541194 100.4716893  22.1886162  72.1491270 101.9492264
  20.6796176  64.2440672 116.2069549  20.0036813  64.1434802 116.8771924
  21.5023810  64.0879886 116.6705546  12.4275035  70.4812609 108.8282064
  13.0128472  69.7356297 108.9609969  12.2299874  70.7916565 109.7118728
  15.2813691  73.5163856 103.8444507  14.6124066  74.0009984 103.3608547
  15.1426560  73.7633077 104.7587885   7.0192690  63.0518209 107.5486508
   7.0576790  62.5181800 108.3423626   6.5132983  62.5253414 106.9297485
  19.4218959  75.5507600 110.4427165  19.9737267  75.7139221 111.2076250
  19.7625153  76.1412037 109.7707190  14.3983452  57.8982749 111.0449050
  14.4624779  58.7597580 110.6326448  14.3350573  57.2856751 110.3121408
  13.8735725  59.9705882 114.6922084  14.5007764  59.5882959 115.3059608
  13.0163644  59.7520084 115.0577777  24.2729834  70.3768857 116.2975820
  24.8169738  70.9898815 115.8030774  23.6916678  70.9348436 116.8142833
  10.6501268  61.7782311 100.6240439  10.9454709  60.8692990 100.5707493
   9.7489304  61.7570051 100.3021441  22.5587347  73.4989575 107.4290847
  22.4338486  72.6979315 106.9201793  23.2166438  73.9935769 106.9404817
  14.1795515  59.8538308 106.6067988  13.4582101  60.4674275 106.4675461
  14.9688771  60.3896073 106.5284633  24.6222255  71.2998595 109.0570397
  23.6752590  71.1803946 108.9848724  24.9705028  70.4121093 109.1396659
  16.9821828  57.1892734 112.8808639  17.5056230  57.4355031 113.6434949
  16.7634162  58.0212769 112.4611777  12.3789109  59.4596409 100.7479764
  12.0501816  58.5793788 100.5654870  12.7328480  59.4044077 101.6356153
  21.6268688  71.0951311 105.2574750  21.4793651  70.1668019 105.4382320
  22.4522182  71.1171402 104.7731825  15.4930933  59.7469379 101.1155242
  15.8327005  60.2755300 100.3933850  15.9403053  60.0849785 101.8913808
  25.2302810  71.9179870 106.3439622  26.1549358  71.7122732 106.2064074
  25.0618113  71.6696271 107.2528964  18.1874373  58.1306429 110.5658310
  17.8471194  57.3314242 110.9678990  17.4813380  58.4308140 109.9935143
  18.8390845  55.2155742 109.0185633  19.6616914  54.7416220 108.8964523
  19.0828909  55.9946225 109.5184319  17.4799080  58.2444000  99.3148535
  18.2007442  58.6225253  98.8112251  16.8564384  58.9632877  99.4183512
  21.6230203  58.9489149 100.2506867  21.8393817  59.8313787  99.9495695
  21.1424270  58.5575363  99.5212509  16.3629424  61.9074862 106.8277611
  16.2174005  62.2215165 107.7201893  15.8854628  62.5259763 106.2748510
  18.2225807  58.8977410 106.8758501  18.2087376  58.0018504 106.5390799
  18.9398235  58.9048074 107.5096787  20.0751938  59.3314751 108.9211628
  19.8169715  60.2531821 108.9195959  19.5436978  58.9345185 109.6112093
  25.0198126  72.4365538 101.7001714  25.1935004  71.8711960 100.9475566
  25.5127018  73.2366433 101.5181204  10.8375086  64.4480207 109.7665273
  10.2928554  65.2240015 109.8985547  11.7154436  64.7951011 109.6084394
  17.6262703  57.7791791 102.1446071  17.7478614  56.8508437 102.3436959
  17.3364745  57.7930477 101.2324387  20.4953893  55.4646701 105.2812791
  20.5175590  55.5286034 104.3264771  20.9121952  54.6251210 105.4753297
  30.8737517  65.2001961 103.3192014  31.3168663  64.4509286 102.9211137
  29.9964028  65.1912097 102.9365746  26.0073299  71.7532302  98.7998612
  26.7024203  72.3738995  99.0185927  26.3496449  70.9027653  99.0750990
  11.6241108  63.5750103 112.6595430  10.8822844  63.7232738 113.2460060
  11.3033852  63.8358369 111.7962179  27.9064722  69.2032008 100.3285943
  28.4316046  69.5419280  99.6035263  27.8187074  68.2679023 100.1449078
  19.5684771  73.1166081 112.4575820  19.8771897  72.8715228 113.3298519
  20.3660253  73.3212720 111.9694690  19.5905383  75.2703991 104.6881196
  19.1510373  74.7780370 105.3814053  20.3413500  74.7276959 104.4473271
  12.0697722  71.4615532 104.6905824  12.8955742  71.1619304 104.3104468
  11.7191774  70.6923154 105.1395613  17.0379255  70.8142000 106.7603498
  16.4159264  70.1512705 106.4605726  17.7084122  70.8403132 106.0777146
  10.2706327  69.3801858 105.6494758   9.4338235  68.9524033 105.4678759
  10.2429972  69.5734302 106.5865549  17.1103782  59.2923788 116.3536004
  17.1591938  60.1685911 115.9713773  17.6526296  58.7501181 115.7807647
  27.5958628  69.8364911 115.6337141  26.8054172  69.8189050 115.0941640
  27.3591983  70.3753205 116.3886177  27.7156503  66.6857378 112.9469869
  27.7654508  66.5207385 113.8885392  27.6070426  65.8184637 112.5567750
  16.5992762  69.3645923 100.2361958  16.7480882  70.0481388  99.5828631
  17.4059205  69.3451013 100.7511414  25.0060265  62.6688306 114.2629176
  25.9070128  62.5294771 113.9713174  25.0808240  62.8342760 115.2027354
  19.3403071  60.0455160 113.1082362  18.4706380  60.3388726 112.8364951
  19.5762551  60.6295605 113.8289626  29.2174700  69.1054319 113.1911891
  28.9259508  69.4684300 114.0275352  28.6046831  68.3921327 113.0125223
  30.4170382  66.6707199 105.7114461  31.2517274  67.1097003 105.8752022
  30.5529511  66.1945852 104.8922707  27.4661888  64.2286934 111.6591949
  27.9416010  64.4214580 110.8510800  26.5427453  64.2846120 111.4135333
  14.3545395  65.3911101 101.2423027  14.1091437  64.4873431 101.4403237
  14.5241309  65.3928251 100.3002505  22.0442105  56.2634777 110.6247783
  22.5624048  56.9995804 110.2994271  21.6897237  56.5698771 111.4594542
  13.6241042  61.1239459  98.7409189  12.9310287  61.1983814  98.0849225
  13.3792794  60.3599802  99.2630706  22.2954699  52.6835060 106.1448679
  22.5756452  52.0158249 106.7709106  23.0805306  52.8764155 105.6323343
  20.0988167  71.8594054  97.7073706  19.5262134  72.4784241  97.2544178
  20.6720961  72.4093415  98.2413628  26.1663557  61.1052694 109.8920255
  27.1180980  61.2050792 109.9132479  25.9967007  60.3130962 110.4018339
  24.1877937  58.1908277 110.0779655  23.5927869  58.4713290 109.3826144
  23.9027633  58.6802178 110.8496397  23.3185427  72.1431204  98.8382288
  24.2516100  72.0776766  99.0415164  23.2308640  72.9787471  98.3796821
  25.9473444  71.4597074  95.7986236  25.8687075  71.1256938  96.6921993
  26.7683110  71.9518842  95.7977708  28.6451635  64.3258814 109.0062554
  28.6127955  63.3874814 109.1922238  29.2552259  64.4042850 108.2728379
  20.4834966  63.1954867  95.0489758  21.4294070  63.0661075  95.1178176
  20.1049211  62.4569528  95.5259186  28.7946123  61.1169857 109.0520837
  28.2785172  60.3328314 108.8650766  29.6786072  60.7888574 109.2167357
  26.4556850  54.8610873 105.0116650  26.2581671  54.5525961 105.8959982
  27.0656556  55.5872511 105.1414580  34.4628185  65.3874820 108.1468591
  35.1931573  65.1260109 108.7076294  33.8535130  64.6503542 108.1870659
  32.5443482  63.5282683 108.7443042  31.8176645  63.3938648 108.1359534
  32.1290769  63.8359512 109.5499760  20.3673658  67.2472613 116.5090415
  21.2876668  67.4251212 116.7030462  20.3323241  66.3028658 116.3570114
  18.6677883  61.1204843  94.9844643  17.7609338  60.8237956  95.0607357
  18.9453864  60.8234661  94.1178930   9.5855823  62.4411206 105.4343690
   9.2658608  61.5876515 105.1418064   9.0389251  62.6559784 106.1901657
  13.3635731  65.1573647 109.1513196  13.5821741  66.0890755 109.1701230
  13.7761505  64.7981622 109.9368000  20.2839949  55.6641733 101.1388885
  19.4740677  55.3188818 101.5144131  20.9724366  55.3549276 101.7276496
  22.2130497  54.7419779 102.7613181  22.7661535  55.1615233 103.4203204
  22.4500583  53.8155528 102.8036137  18.2363596  60.7306853 118.5415945
  18.1360323  61.6801210 118.4728036  18.0185138  60.4025092 117.6692015
  17.4376668  57.9791778  95.1256623  18.2995831  58.3046676  95.3852440
  17.6227012  57.1923274  94.6129688   9.4544083  66.0614118 107.4036811
   8.7607555  65.6468071 106.8906766  10.2017074  66.1034654 106.8070230
  25.5909304  56.8520305 102.2691846  25.0107973  57.5105109 101.8869898
  25.3245237  56.0297649 101.8579263  24.0412870  56.2525362 104.4713166
  24.5412649  56.3641897 103.6627485  24.6848478  55.9486415 105.1113974
  18.0994866  64.1603992 117.3581007  17.6161948  64.9604352 117.5644896
  18.1855805  64.1711937 116.4048451  11.3680826  65.9932372 105.2802826
  11.3451514  66.0920059 104.3284709  11.6781462  66.8397522 105.6019992
  14.0268204  68.0508527 109.3949441  14.9811457  68.0192469 109.3279372
  13.8280727  67.5899150 110.2099667  14.6167586  66.6209643 111.9620238
  15.4360475  67.1153721 111.9855076  14.8904394  65.7041611 111.9337806
  24.3734182  59.0120395 101.3248194  23.4860037  59.2970046 101.1068389
  24.7888171  58.8514158 100.4775471  27.7248718  59.0366916 105.0402533
  28.5009108  59.5263368 105.3127150  26.9996852  59.4624970 105.4974403
  30.1621277  59.7494535 106.0976474  30.7565768  59.5090271 105.3869782
  30.2347860  59.0301666 106.7250010  12.3818432  73.5928146 106.4119639
  12.2472900  72.8328547 105.8457637  11.9650495  74.3169046 105.9448427
  23.5177395  68.7765070  95.4196214  24.2213246  68.9815072  96.0353869
  22.7940044  69.3441832  95.6845297  24.3475206  64.5274931 101.5398484
  24.2910407  64.9843482 100.7006116  24.9003548  63.7665616 101.3621327
  28.1580012  60.3164663 102.3648604  27.9016946  59.9161298 103.1956811
  27.5332880  61.0308457 102.2398743  32.4692350  63.0560736 104.8719895
  31.9091907  63.1253925 105.6451457  31.8635853  62.8801721 104.1519391
  15.5387558  74.4897463 106.6238081  15.4219942  75.4342896 106.5216771
  14.7180005  74.1871025 107.0123880  25.4264093  69.2147599  97.4694674
  26.2609697  68.7828797  97.2872149  25.2648436  69.0429613  98.3971568
  25.0809985  65.7179712  98.8351013  25.0258789  65.5523984  97.8939457
  24.4556040  66.4255745  98.9913203   9.8702500  60.9547777 112.6612435
  10.5161364  60.4446731 113.1499661   9.6619651  61.6916458 113.2355861
  22.3955892  68.0228624 118.1604576  23.2647052  68.1969276 117.7991211
  21.9162644  68.8423041 118.0380305  18.3906111  55.2187821  98.4136332
  18.3784780  56.1629661  98.5704602  19.2829532  55.0357967  98.1195793
  16.5642072  75.1425725 109.8394010  17.4669319  75.1749335 110.1560505
  16.3379443  74.2126176 109.8540345  18.3195674  73.8956712 106.5004088
  17.3691305  73.8958573 106.3868461  18.6228161  73.1489446 105.9840123
  22.2058230  51.8130598 102.6682268  21.4390626  51.2589084 102.8138951
  22.6168935  51.8852467 103.5296420  14.2099991  58.1015394 116.7587450
  15.0731453  57.7452198 116.9690774  13.6365402  57.7629288 117.4462854
  34.0548368  79.7317250 107.5649851  34.6926778  79.6123997 106.8613191
  33.9369211  80.6798094 107.6237803  30.8638074  79.6844678 107.5011375
  30.5256586  79.5685743 106.6131910  31.7327842  79.2835843 107.4812382
  26.7224890  81.5380154 103.4908266  26.1589755  81.4470091 102.7224554
  26.6077285  80.7180059 103.9710759  31.3457857  80.8379530 113.4597581
  31.3346498  80.4432328 112.5878085  31.5078497  80.1045602 114.0531352
  24.2689322  83.0331346 106.3292487  25.0610614  82.6922171 105.9138786
  24.5085972  83.1426321 107.2494640  32.3024449  85.2051122  98.8022731
  31.6512428  85.7905203  98.4156745  33.0968811  85.7357317  98.8617769
  26.2280076  82.2940259  99.2009866  27.0010952  81.7469246  99.0622741
  26.5805475  83.1584509  99.4124327  28.0665118  83.6216642 112.4076765
  27.7754984  84.5262272 112.2923431  28.7022103  83.6633169 113.1220834
  28.9921325  80.9993490 108.9978125  29.5884897  80.7749513 108.2835087
  29.0496297  80.2578236 109.6003572  28.5646354  78.4532925  96.8328315
  28.8171874  77.9314447  96.0711778  27.6270913  78.2899071  96.9354999
  33.6089636  77.4568704 104.6403059  34.3952726  77.0388127 104.2893476
  33.8728341  78.3614796 104.8084707  33.7799714  82.8941554  99.3391716
  33.1445547  82.9676181 100.0512620  33.4497120  83.4835153  98.6610795
  39.0098064  77.3943937 105.5436037  39.7423236  76.8243154 105.7773867
  38.2537419  77.0065537 105.9842543  28.2842642  80.3561031  99.0352690
  28.1678900  79.6805935  99.7033775  28.3944902  79.8693405  98.2184843
  30.6274183  79.8171179 102.7399380  30.2632391  79.2901799 103.4512301
  31.4841299  79.4269648 102.5665865  36.5323484  71.1065511 110.0030646
  36.2006809  71.9760922 109.7791861  35.9369097  70.7901795 110.6824676
  30.2679670  74.8461078  97.7360728  30.4354073  75.7141315  98.1031199
  30.0776839  75.0088360  96.8122017  33.0255003  83.3078057 109.4026559
  32.7255727  84.2103096 109.2942366  32.6806063  83.0410240 110.2547711
  26.4767485  79.7591854 105.4363263  25.5517981  79.6268068 105.6440955
  26.7251898  80.5386073 105.9333205  36.4252147  75.8260597 107.0823996
  35.5169025  75.7576006 106.7882757  36.3739743  76.3032542 107.9105821
  30.2468891  77.3018736  98.7207395  30.1268516  77.7475786  99.5592875
  29.5521480  77.6504053  98.1620933  23.8376296  79.4025127 106.2707052
  23.9668677  79.6559606 107.1846464  23.1573747  79.9952835 105.9511707
  28.0075783  90.0722377 102.3697526  27.9299813  91.0230203 102.4486007
  27.4037427  89.7268250 103.0272453  30.4993013  77.2450243 115.0258893
  29.7226347  77.8044163 115.0161758  31.1383576  77.7307026 115.5473763
  38.2913794  74.0277036 108.8601870  37.6488174  74.3209569 108.2141664
  37.7868722  73.9129956 109.6655066  35.9453957  77.7740209  99.5487729
  36.8571813  78.0067596  99.3735427  35.4363604  78.3577253  98.9862808
  28.7539385  80.0535696 114.5876860  29.4954070  80.5920740 114.3111684
  28.0476371  80.6801985 114.7448412  34.2294725  82.1964837 113.1849022
  34.6378081  81.7547247 112.4403654  33.5071986  81.6217464 113.4383215
  30.5825795  77.1337443 110.5582579  31.4286990  77.5576857 110.7017228
  30.5224433  76.4771068 111.2521142  34.5523540  82.7566027 106.9401311
  33.9232402  82.9211741 106.2377378  34.1649202  83.1707637 107.7112275
  38.4312772  83.6920465 104.2945674  37.7463810  84.0719367 103.7442708
  38.5156621  84.3015792 105.0277622  33.7325240  74.7941812 112.2163752
  33.4886172  75.5483872 111.6798028  34.0085171  75.1727159 113.0510999
  35.6863703  81.3380424 110.8941018  35.8980598  81.9812184 110.2175399
  35.6393451  80.5042741 110.4262948  33.2889932  73.9498245 107.7977590
  32.4274411  74.2479498 108.0894328  33.3152367  74.1668644 106.8658623
  30.1051501  82.4940435 104.2051396  30.5689847  82.7728138 103.4156018
  29.8408300  81.5923880 104.0224486  26.9975583  82.0411917 107.1431159
  27.5676940  82.4699185 106.5048643  27.5883694  81.7594502 107.8415345
  29.0420388  78.6163588 101.0140961  29.7444431  79.0684631 101.4814887
  28.7101016  77.9747407 101.6420854  27.4900749  77.2075344 115.3892170
  26.8599410  77.8891625 115.6227567  27.3836837  77.0958426 114.4445308
  22.7845722  76.8747140 106.3158094  21.9944775  77.1304669 105.8398205
  23.2756969  77.6895478 106.4210135  36.8009531  84.2152380 109.0663375
  37.6226975  83.8132567 108.7846057  36.7971934  84.1120614 110.0179491
  24.7360467  77.2391720 103.2741571  23.9391630  77.3510414 103.7925067
  24.5086059  77.5778372 102.4082462  30.5666135  83.7636423 111.2224086
  30.6310567  84.2256830 112.0582258  29.8577058  83.1333788 111.3506396
  21.0683424  77.1277631 108.7473085  21.3191463  78.0124641 109.0130661
  21.6042973  76.9482232 107.9748177  44.8915524  80.5591128 105.4148347
  44.1379233  79.9898526 105.2592351  45.0263065  80.5253793 106.3618981
  30.2814152  85.4304530 101.0903066  30.1459827  86.2756066 101.5187914
  30.8223965  85.6323808 100.3269000  26.7681492  71.5096110 117.7517421
  26.3748437  70.9562309 118.4265065  27.5847632  71.8206689 118.1423939
  23.7343550  82.9479968 101.6630991  24.2468070  83.7423219 101.8136556
  24.3866262  82.2506259 101.5964593  25.5438434  86.0645725 103.7453744
  25.7205063  86.9863689 103.5574728  26.3395268  85.7504144 104.1748124
  29.6849453  72.9253989 115.3437678  30.4259166  73.5261142 115.2642140
  29.9167376  72.1831627 114.7855720  24.8290791  78.1110357 113.6215907
  24.7144306  77.2095614 113.9223006  23.9735309  78.3574053 113.2700724
  31.9082629  86.0528097 115.2203408  31.4646483  85.2664475 114.9024313
  32.5699842  86.2407247 114.5547299  26.6669750  87.5823899 109.7464087
  27.2177175  87.4540962 108.9741081  25.8281226  87.8818788 109.3958979
  34.0063867  86.3330897 113.2484809  33.9882342  87.1539778 112.7565079
  34.9283787  86.2084972 113.4734951  30.4636921  83.8475026 114.0908318
  30.9965258  83.0863315 113.8607626  29.9351002  83.5548678 114.8332472
  33.6306616  68.9535092 109.6201959  33.2870885  69.8436734 109.5441070
  33.9985578  68.7636750 108.7571544  21.6992466  81.2768623 102.4390562
  22.5367688  81.6865631 102.2224269  21.8770734  80.3368065 102.4090755
  33.5956898  78.9443703  98.1274395  33.0803522  79.7148308  98.3662782
  33.3234207  78.2708840  98.7507456  31.1804009  73.7893404 103.1859633
  30.3245606  73.4000255 103.0065272  31.5930961  73.8685365 102.3259418
  32.7103156  71.3239747 107.5851193  32.2067952  71.2869883 106.7718998
  33.0033763  72.2332490 107.6447849  28.9546042  71.4078477 106.5917374
  29.8199039  71.2121286 106.2323264  29.0223551  71.1788829 107.5186731
  38.5691173  81.6976058 100.0627568  37.7920615  81.3587218  99.6182730
  39.2482654  81.7028681  99.3882533  33.3843202  76.8170795  99.9534176
  33.0793337  77.1316945 100.8044319  34.3373644  76.8952215  99.9961509
  31.8289633  82.9761019 101.6027130  31.3010995  82.2413778 101.2900367
  31.3277136  83.7535695 101.3567098  36.8082480  81.1710039 106.7194176
  36.1506154  81.8609301 106.8074305  37.6122879  81.5606471 107.0628162
  26.5608361  73.6380685 103.9633741  27.1352113  73.4155867 103.2306934
  27.1479344  73.7069380 104.7162343  35.6187938  79.5254412 104.7698118
  36.1319820  80.1584404 105.2719828  36.2689162  78.9255607 104.4041478
  26.8877948  75.6685146  97.9829627  26.0515260  76.0059833  98.3038901
  26.7482718  75.5334126  97.0456763  28.8631029  70.5121934 102.6908811
  28.2095441  70.1970951 102.0665425  28.8211503  69.8897674 103.4168634
  29.9742234  80.7941229  94.6062103  29.0669295  80.5630483  94.8053252
  30.4713266  79.9978848  94.7936084  32.8810313  89.5038736  97.5258789
  32.2072011  89.8070433  98.1343747  33.2676135  90.3067817  97.1764246
  32.0968769  77.0003868 107.0156458  31.1791331  77.2218815 106.8578146
  32.5128913  77.0750178 106.1568166  32.8803817  78.3995283 102.1459139
  33.6275636  78.9116680 101.8366261  33.1495406  78.0779336 103.0063532
  31.1530467  80.8953824  99.1286093  30.2441686  80.6112857  99.2258563
  31.1825551  81.3152903  98.2689400  36.3849735  84.5060413 102.8977260
  35.9312062  83.6651323 102.9542451  35.7543701  85.1421812 103.2352041
  35.3282654  75.4352399 104.1277928  34.5905411  74.9229786 104.4588170
  35.5809428  74.9952781 103.3161205  34.8282674  86.3436910 103.8327079
  35.1205648  86.9041967 103.1139444  35.3381294  86.6365471 104.5880238
  35.4294281  68.2128651 104.7219697  35.7353158  67.3526015 104.4345612
  36.1546886  68.8046272 104.5218691  21.7218637  78.6159338 103.1101295
  21.5243037  78.0228699 102.3852362  21.1665301  78.3111548 103.8277234
  29.7015361  78.5082445 105.2295888  29.7563971  77.5556281 105.1538365
  28.8906563  78.6641884 105.7137187  30.8506555  82.4362568  96.4674171
  30.4125985  81.7198427  96.0079809  31.5916996  82.6638682  95.9059263
  27.6407721  77.1259504 102.9886267  26.8275587  77.4253675 103.3951459
  28.1366715  76.7315193 103.7060749  29.7916299  87.1217261 104.9220532
  29.7492478  87.3478108 103.9929064  30.7078998  86.8880636 105.0706333
  33.2381933  77.5901329 111.8201161  33.5931320  77.8172802 112.6795627
  33.8854064  77.9219706 111.1978416  38.9679670  80.7119765 102.5250490
  38.8297568  80.9021361 101.5971679  38.6115888  81.4739147 102.9818541
  27.1321796  74.6977860 108.6047502  27.7721175  74.5566619 107.9070465
  26.2999326  74.4112373 108.2286104  38.9949049  82.7796292 107.5361762
  39.4285556  82.6871581 108.3844816  39.7080630  82.7553792 106.8981777
  27.9082100  83.9980290 104.7182494  28.7022698  83.5030610 104.5165069
  27.1973792  83.4698153 104.3550200  32.7276944  86.3798386 109.0694862
  32.7813966  86.9489322 109.8372578  31.8591726  86.5500271 108.7048899
  24.2164863  78.1423372 100.7942247  23.2862451  78.0807827 101.0112209
  24.3122335  77.6199325  99.9978888  24.1350412  74.6678185 103.3820489
  24.3957230  75.5823518 103.2729649  24.9567585  74.2002627 103.5317102
  25.6075338  76.0815942 110.5519313  26.2798391  75.8733304 109.9031962
  24.7805124  75.8838028 110.1124546  39.8564599  82.8219992 110.0694647
  40.0500489  83.7265803 110.3153922  39.7565217  82.3627411 110.9033232
  31.5100910  72.7077883 112.5684974  30.8628825  73.4067833 112.4749451
  32.2801925  73.1414027 112.9361222  34.9179708  82.9726735 115.6435528
  34.7665214  82.7437287 114.7265611  34.9084387  83.9297336 115.6566873
  31.6865044  80.5458648 110.6281794  32.6157104  80.6969807 110.4550761
  31.2656074  80.6342669 109.7730440  30.4853376  84.5709312 108.3980332
  30.3464461  84.2028097 109.2706270  29.6967972  85.0856952 108.2264289
  31.0801528  89.6718409  99.7405868  31.2553283  89.2006452 100.5551491
  30.3934316  90.2984175  99.9687129  32.0358591  83.9490915 105.7869169
  31.7008423  83.9091685 106.6826819  31.5362537  83.2835631 105.3139580
  26.0102835  79.3558545 111.3121751  25.8722633  78.6238784 111.9133290
  26.9207758  79.2667445 111.0305938  34.9717783  81.2946949  96.0606229
  34.3546953  80.5693777  95.9639282  34.5034271  82.0556310  95.7173303
  28.6385135  79.0678504 110.8005430  29.3484754  78.4271696 110.7592049
  28.5954444  79.3191399 111.7231611  36.6271914  86.0045858 113.7212009
  36.5684460  85.3205078 113.0542592  37.0291433  86.7464848 113.2692635
  27.3514069  76.0543722 112.6201070  26.8151426  75.6034461 113.2722666
  26.7630778  76.1889631 111.8771534  25.6462613  92.8207771 106.5145728
  25.8859211  93.4526296 107.1924747  24.8031809  92.4695811 106.8011088
  26.7616328  75.5132374  95.1827533  25.8845795  75.3921174  94.8189780
  27.2374081  74.7218452  94.9306422  36.6289321  83.9685442 111.9525989
  35.7416100  83.6311363 112.0752388  37.1987873  83.2368473 112.1894754
  18.2818469  80.3009533 105.2769040  18.9689508  79.9871263 104.6890056
  18.1266597  81.2050898 105.0036292  23.0853191  75.1899730 109.7054064
  23.0011379  74.5825399 108.9704474  22.2635897  75.6808748 109.7063560
  30.1590475  88.6286894 108.9187232  30.0860646  89.4341865 109.4306537
  29.7167868  88.8278860 108.0935254  29.9480254  87.8658664 102.4290054
  29.1647776  88.4080344 102.5228278  30.6473000  88.3832644 102.8284295
  33.2576905  73.6753293 105.0724259  33.7545604  72.9223256 104.7525329
  32.4863886  73.7117610 104.5067469  41.1106662  79.3793659 106.7142551
  41.0996538  80.2618374 106.3436484  40.2424041  79.0265210 106.5197088
  32.6189158  88.5273728 111.0745391  33.3317131  89.1621193 111.0021292
  32.1279187  88.6237594 110.2585393  34.3406685  82.4324981 102.6462683
  33.4062964  82.5526443 102.4767387  34.5183354  81.5297447 102.3822692
  29.8411873  75.8170676 104.7995944  29.4709661  75.2641717 105.4876849
  30.3370966  75.2128810 104.2470944  37.7279237  78.2742300 103.1812717
  38.1939689  79.1070291 103.1073019  38.1786737  77.8087281 103.8857975
  27.6701072  86.2768171 111.8950962  28.3710531  86.9104654 112.0480356
  27.1996187  86.6182903 111.1346601  35.7955468  84.6186121 100.1798869
  36.0715312  84.5042716 101.0892743  34.9259966  84.2203606 100.1411042
  35.6995899  70.6422887 107.2203618  34.7858979  70.8727114 107.3885825
  36.1289001  70.7261331 108.0717650  35.4702358  78.8312779 109.7203512
  34.8173808  79.0788686 109.0655965  35.8482738  78.0176917 109.3865989
  32.4309532  88.8672472 103.8231682  32.6131926  88.0494128 104.2859435
  33.2542518  89.0840164 103.3856572  32.7651697  87.7940657 101.0846731
  33.2939464  87.2833112 100.4716893  33.0279917  87.4783187 101.9492264
  31.5189931  79.5732590 116.2069549  30.8430568  79.4726719 116.8771924
  32.3417565  79.4171804 116.6705546  23.2668790  85.8104526 108.8282064
  23.8522227  85.0648214 108.9609969  23.0693628  86.1208483 109.7118728
  26.1207445  88.8455774 103.8444507  25.4517820  89.3301901 103.3608547
  25.9820315  89.0924994 104.7587885  17.8586445  78.3810127 107.5486508
  17.8970544  77.8473717 108.3423626  17.3526738  77.8545332 106.9297485
  30.2612714  90.8799517 110.4427165  30.8131022  91.0431139 111.2076250
  30.6018907  91.4703955 109.7707190  25.2377207  73.2274667 111.0449050
  25.3018533  74.0889498 110.6326448  25.1744327  72.6148669 110.3121408
  24.7129480  75.2997800 114.6922084  25.3401518  74.9174877 115.3059608
  23.8557398  75.0812002 115.0577777  35.1123588  85.7060775 116.2975820
  35.6563492  86.3190733 115.8030774  34.5310433  86.2640353 116.8142833
  21.4895022  77.1074229 100.6240439  21.7848463  76.1984907 100.5707493
  20.5883058  77.0861968 100.3021441  33.3981101  88.8281493 107.4290847
  33.2732240  88.0271233 106.9201793  34.0560192  89.3227686 106.9404817
  25.0189269  75.1830225 106.6067988  24.2975855  75.7966193 106.4675461
  25.8082525  75.7187990 106.5284633  35.4616009  86.6290513 109.0570397
  34.5146345  86.5095864 108.9848724  35.8098783  85.7413011 109.1396659
  27.8215583  72.5184652 112.8808639  28.3449985  72.7646948 113.6434949
  27.6027916  73.3504687 112.4611777  23.2182864  74.7888326 100.7479764
  22.8895570  73.9085705 100.5654870  23.5722235  74.7335995 101.6356153
  32.4662443  86.4243229 105.2574750  32.3187405  85.4959937 105.4382320
  33.2915936  86.4463320 104.7731825  26.3324687  75.0761296 101.1155242
  26.6720760  75.6047218 100.3933850  26.7796807  75.4141702 101.8913808
  36.0696565  87.2471788 106.3439622  36.9943112  87.0414649 106.2064074
  35.9011868  86.9988189 107.2528964  29.0268128  73.4598347 110.5658310
  28.6864948  72.6606160 110.9678990  28.3207134  73.7600058 109.9935143
  29.6784600  70.5447659 109.0185633  30.5010669  70.0708138 108.8964523
  29.9222663  71.3238143 109.5184319  28.3192834  73.5735918  99.3148535
  29.0401197  73.9517171  98.8112251  27.6958138  74.2924795  99.4183512
  32.4623957  74.2781067 100.2506867  32.6787571  75.1605705  99.9495695
  31.9818024  73.8867280  99.5212509  27.2023178  77.2366780 106.8277611
  27.0567759  77.5507083 107.7201893  26.7248382  77.8551680 106.2748510
  29.0619561  74.2269328 106.8758501  29.0481130  73.3310421 106.5390799
  29.7791989  74.2339992 107.5096787  30.9145692  74.6606668 108.9211628
  30.6563470  75.5823739 108.9195959  30.3830732  74.2637103 109.6112093
  35.8591881  87.7657455 101.7001714  36.0328758  87.2003878 100.9475566
  36.3520772  88.5658350 101.5181204  21.6768841  79.7772124 109.7665273
  21.1322309  80.5531932 109.8985547  22.5548190  80.1242929 109.6084394
  28.4656457  73.1083708 102.1446071  28.5872368  72.1800354 102.3436959
  28.1758500  73.1222394 101.2324387  31.3347648  70.7938619 105.2812791
  31.3569344  70.8577952 104.3264771  31.7515707  69.9543127 105.4753297
  41.7131272  80.5293878 103.3192014  42.1562418  79.7801203 102.9211137
  40.8357782  80.5204015 102.9365746  36.8467053  87.0824220  98.7998612
  37.5417958  87.7030912  99.0185927  37.1890203  86.2319571  99.0750990
  22.4634862  78.9042021 112.6595430  21.7216598  79.0524656 113.2460060
  22.1427607  79.1650286 111.7962179  38.7458476  84.5323925 100.3285943
  39.2709800  84.8711198  99.6035263  38.6580829  83.5970941 100.1449078
  30.4078525  88.4457999 112.4575820  30.7165652  88.2007146 113.3298519
  31.2054007  88.6504637 111.9694690  30.4299137  90.5995909 104.6881196
  29.9904127  90.1072287 105.3814053  31.1807254  90.0568876 104.4473271
  22.9091476  86.7907449 104.6905824  23.7349496  86.4911221 104.3104468
  22.5585528  86.0215072 105.1395613  27.8773009  86.1433918 106.7603498
  27.2553019  85.4804623 106.4605726  28.5477876  86.1695050 106.0777146
  21.1100081  84.7093776 105.6494758  20.2731989  84.2815950 105.4678759
  21.0823727  84.9026219 106.5865549  27.9497537  74.6215706 116.3536004
  27.9985692  75.4977828 115.9713773  28.4920051  74.0793099 115.7807647
  38.4352382  85.1656829 115.6337141  37.6447926  85.1480968 115.0941640
  38.1985737  85.7045123 116.3886177  38.5550257  82.0149295 112.9469869
  38.6048262  81.8499303 113.8885392  38.4464181  81.1476554 112.5567750
  27.4386516  84.6937841 100.2361958  27.5874637  85.3773305  99.5828631
  28.2452960  84.6742931 100.7511414  35.8454020  77.9980223 114.2629176
  36.7463883  77.8586688 113.9713174  35.9201994  78.1634678 115.2027354
  30.1796825  75.3747078 113.1082362  29.3100135  75.6680644 112.8364951
  30.4156306  75.9587523 113.8289626  40.0568454  84.4346237 113.1911891
  39.7653263  84.7976217 114.0275352  39.4440586  83.7213245 113.0125223
  41.2564137  81.9999117 105.7114461  42.0911028  82.4388921 105.8752022
  41.3923265  81.5237770 104.8922707  38.3055643  79.5578851 111.6591949
  38.7809764  79.7506498 110.8510800  37.3821208  79.6138037 111.4135333
  25.1939149  80.7203019 101.2423027  24.9485191  79.8165349 101.4403237
  25.3635064  80.7220169 100.3002505  32.8835859  71.5926695 110.6247783
  33.4017803  72.3287722 110.2994271  32.5290992  71.8990688 111.4594542
  24.4634797  76.4531376  98.7409189  23.7704042  76.5275731  98.0849225
  24.2186549  75.6891720  99.2630706  33.1348453  68.0126978 106.1448679
  33.4150207  67.3450167 106.7709106  33.9199060  68.2056073 105.6323343
  30.9381922  87.1885971  97.7073706  30.3655889  87.8076159  97.2544178
  31.5114715  87.7385333  98.2413628  37.0057312  76.4344612 109.8920255
  37.9574734  76.5342709 109.9132479  36.8360762  75.6422880 110.4018339
  35.0271691  73.5200195 110.0779655  34.4321623  73.8005207 109.3826144
  34.7421388  74.0094096 110.8496397  34.1579181  87.4723122  98.8382288
  35.0909855  87.4068683  99.0415164  34.0702394  88.3079388  98.3796821
  36.7867198  86.7888992  95.7986236  36.7080830  86.4548856  96.6921993
  37.6076865  87.2810760  95.7977708  39.4845389  79.6550731 109.0062554
  39.4521709  78.7166732 109.1922238  40.0946013  79.7334768 108.2728379
  31.3228720  78.5246784  95.0489758  32.2687825  78.3952992  95.1178176
  30.9442965  77.7861446  95.5259186  39.6339878  76.4461775 109.0520837
  39.1178926  75.6620231 108.8650766  40.5179826  76.1180491 109.2167357
  37.2950605  70.1902790 105.0116650  37.0975426  69.8817878 105.8959982
  37.9050310  70.9164429 105.1414580  45.3021939  80.7166738 108.1468591
  46.0325328  80.4552026 108.7076294  44.6928885  79.9795460 108.1870659
  43.3837236  78.8574601 108.7443042  42.6570400  78.7230566 108.1359534
  42.9684523  79.1651429 109.5499760  31.2067413  82.5764530 116.5090415
  32.1270422  82.7543129 116.7030462  31.1716996  81.6320576 116.3570114
  29.5071637  76.4496761  94.9844643  28.6003093  76.1529873  95.0607357
  29.7847618  76.1526579  94.1178930  20.4249578  77.7703124 105.4343690
  20.1052362  76.9168432 105.1418064  19.8783006  77.9851702 106.1901657
  24.2029485  80.4865565 109.1513196  24.4215495  81.4182673 109.1701230
  24.6155259  80.1273539 109.9368000  31.1233703  70.9933650 101.1388885
  30.3134431  70.6480735 101.5144131  31.8118120  70.6841194 101.7276496
  33.0524251  70.0711697 102.7613181  33.6055290  70.4907151 103.4203204
  33.2894338  69.1447445 102.8036137  29.0757351  76.0598771 118.5415945
  28.9754078  77.0093128 118.4728036  28.8578893  75.7317010 117.6692015
  28.2770422  73.3083696  95.1256623  29.1389586  73.6338594  95.3852440
  28.4620766  72.5215192  94.6129688  20.2937838  81.3906035 107.4036811
  19.6001309  80.9759988 106.8906766  21.0410829  81.4326572 106.8070230
  36.4303058  72.1812222 102.2691846  35.8501728  72.8397026 101.8869898
  36.1638991  71.3589567 101.8579263  34.8806625  71.5817280 104.4713166
  35.3806403  71.6933815 103.6627485  35.5242233  71.2778333 105.1113974
  28.9388621  79.4895910 117.3581007  28.4555702  80.2896270 117.5644896
  29.0249560  79.5003854 116.4048451  22.2074580  81.3224289 105.2802826
  22.1845268  81.4211977 104.3284709  22.5175217  82.1689440 105.6019992
  24.8661958  83.3800444 109.3949441  25.8205212  83.3484387 109.3279372
  24.6674482  82.9191068 110.2099667  25.4561340  81.9501560 111.9620238
  26.2754229  82.4445639 111.9855076  25.7298148  81.0333528 111.9337806
  35.2127936  74.3412313 101.3248194  34.3253792  74.6261963 101.1068389
  35.6281926  74.1806076 100.4775471  38.5642473  74.3658834 105.0402533
  39.3402863  74.8555286 105.3127150  37.8390607  74.7916888 105.4974403
  41.0015031  75.0786453 106.0976474  41.5959522  74.8382189 105.3869782
  41.0741615  74.3593583 106.7250010  23.2212187  88.9220064 106.4119639
  23.0866655  88.1620465 105.8457637  22.8044249  89.6460964 105.9448427
  34.3571150  84.1056987  95.4196214  35.0607000  84.3106990  96.0353869
  33.6333799  84.6733749  95.6845297  35.1868960  79.8566849 101.5398484
  35.1304162  80.3135400 100.7006116  35.7397303  79.0957533 101.3621327
  38.9973766  75.6456580 102.3648604  38.7410700  75.2453216 103.1956811
  38.3726634  76.3600374 102.2398743  43.3086104  78.3852654 104.8719895
  42.7485662  78.4545843 105.6451457  42.7029607  78.2093638 104.1519391
  26.3781313  89.8189381 106.6238081  26.2613697  90.7634813 106.5216771
  25.5573759  89.5162942 107.0123880  36.2657847  84.5439517  97.4694674
  37.1003451  84.1120715  97.2872149  36.1042190  84.3721530  98.3971568
  35.9203740  81.0471630  98.8351013  35.8652543  80.8815901  97.8939457
  35.2949795  81.7547663  98.9913203  20.7096255  76.2839694 112.6612435
  21.3555118  75.7738648 113.1499661  20.5013406  77.0208376 113.2355861
  33.2349647  83.3520542 118.1604576  34.1040806  83.5261194 117.7991211
  32.7556398  84.1714959 118.0380305  29.2299865  70.5479739  98.4136332
  29.2178535  71.4921579  98.5704602  30.1223287  70.3649884  98.1195793
  27.4035827  90.4717643 109.8394010  28.3063074  90.5041253 110.1560505
  27.1773197  89.5418094 109.8540345  29.1589429  89.2248629 106.5004088
  28.2085060  89.2250491 106.3868461  29.4621915  88.4781364 105.9840123
  33.0451984  67.1422515 102.6682268  32.2784380  66.5881002 102.8138951
  33.4562689  67.2144384 103.5296420  25.0493746  73.4307311 116.7587450
  25.9125207  73.0744116 116.9690774  24.4759156  73.0921206 117.4462854
  44.8942122  95.0609168 107.5649851  45.5320532  94.9415915 106.8613191
  44.7762965  96.0090012 107.6237803  41.7031829  95.0136596 107.5011375
  41.3650340  94.8977660 106.6131910  42.5721597  94.6127761 107.4812382
  37.5618644  96.8672072 103.4908266  36.9983510  96.7762009 102.7224554
  37.4471039  96.0471977 103.9710759  42.1851612  96.1671447 113.4597581
  42.1740252  95.7724246 112.5878085  42.3472251  95.4337520 114.0531352
  35.1083076  98.3623264 106.3292487  35.9004368  98.0214088 105.9138786
  35.3479727  98.4718239 107.2494640  43.1418203 100.5343040  98.8022731
  42.4906183 101.1197120  98.4156745  43.9362566 101.0649235  98.8617769
  37.0673830  97.6232177  99.2009866  37.8404706  97.0761164  99.0622741
  37.4199229  98.4876426  99.4124327  38.9058873  98.9508559 112.4076765
  38.6148739  99.8554190 112.2923431  39.5415857  98.9925087 113.1220834
  39.8315080  96.3285408 108.9978125  40.4278652  96.1041430 108.2835087
  39.8890051  95.5870153 109.6003572  39.4040108  93.7824843  96.8328315
  39.6565629  93.2606364  96.0711778  38.4664667  93.6190989  96.9354999
  44.4483391  92.7860621 104.6403059  45.2346480  92.3680045 104.2893476
  44.7122095  93.6906714 104.8084707  44.6193468  98.2233472  99.3391716
  43.9839301  98.2968098 100.0512620  44.2890875  98.8127071  98.6610795
  49.8491818  92.7235855 105.5436037  50.5816990  92.1535071 105.7773867
  49.0931174  92.3357455 105.9842543  39.1236397  95.6852949  99.0352690
  39.0072655  95.0097852  99.7033775  39.2338657  95.1985323  98.2184843
  41.4667938  95.1463096 102.7399380  41.1026145  94.6193717 103.4512301
  42.3235054  94.7561565 102.5665865  47.3717238  86.4357429 110.0030646
  47.0400563  87.3052840 109.7791861  46.7762852  86.1193713 110.6824676
  41.1073425  90.1752996  97.7360728  41.2747827  91.0433232  98.1031199
  40.9170594  90.3380278  96.8122017  43.8648758  98.6369975 109.4026559
  43.5649481  99.5395014 109.2942366  43.5199817  98.3702158 110.2547711
  37.3161239  95.0883772 105.4363263  36.3911736  94.9559986 105.6440955
  37.5645653  95.8677991 105.9333205  47.2645902  91.1552515 107.0823996
  46.3562779  91.0867923 106.7882757  47.2133498  91.6324460 107.9105821
  41.0862646  92.6310653  98.7207395  40.9662271  93.0767704  99.5592875
  40.3915234  92.9795971  98.1620933  34.6770050  94.7317045 106.2707052
  34.8062432  94.9851524 107.1846464  33.9967502  95.3244753 105.9511707
  38.8469538 105.4014295 102.3697526  38.7693567 106.3522120 102.4486007
  38.2431181 105.0560168 103.0272453  41.3386768  92.5742161 115.0258893
  40.5620102  93.1336081 115.0161758  41.9777331  93.0598944 115.5473763
  49.1307548  89.3568953 108.8601870  48.4881928  89.6501487 108.2141664
  48.6262477  89.2421874 109.6655066  46.7847712  93.1032127  99.5487729
  47.6965568  93.3359513  99.3735427  46.2757359  93.6869171  98.9862808
  39.5933140  95.3827614 114.5876860  40.3347824  95.9212658 114.3111684
  38.8870125  96.0093903 114.7448412  45.0688479  97.5256754 113.1849022
  45.4771835  97.0839165 112.4403654  44.3465741  96.9509382 113.4383215
  41.4219550  92.4629361 110.5582579  42.2680745  92.8868775 110.7017228
  41.3618187  91.8062985 111.2521142  45.3917294  98.0857945 106.9401311
  44.7626157  98.2503659 106.2377378  45.0042956  98.4999555 107.7112275
  49.2706526  99.0212383 104.2945674  48.5857564  99.4011284 103.7442708
  49.3550375  99.6307710 105.0277622  44.5718995  90.1233730 112.2163752
  44.3279927  90.8775790 111.6798028  44.8478925  90.5019077 113.0510999
  46.5257458  96.6672342 110.8941018  46.7374353  97.3104102 110.2175399
  46.4787206  95.8334658 110.4262948  44.1283687  89.2790163 107.7977590
  43.2668166  89.5771416 108.0894328  44.1546121  89.4960561 106.8658623
  40.9445256  97.8232353 104.2051396  41.4083602  98.1020056 103.4156018
  40.6802054  96.9215798 104.0224486  37.8369337  97.3703835 107.1431159
  38.4070694  97.7991103 106.5048643  38.4277449  97.0886419 107.8415345
  39.8814142  93.9455505 101.0140961  40.5838185  94.3976549 101.4814887
  39.5494771  93.3039324 101.6420854  38.3294504  92.5367262 115.3892170
  37.6993164  93.2183543 115.6227567  38.2230591  92.4250344 114.4445308
  33.6239476  92.2039058 106.3158094  32.8338530  92.4596587 105.8398205
  34.1150723  93.0187396 106.4210135  47.6403286  99.5444297 109.0663375
  48.4620729  99.1424485 108.7846057  47.6365688  99.4412531 110.0179491
  35.5754221  92.5683637 103.2741571  34.7785385  92.6802332 103.7925067
  35.3479814  92.9070290 102.4082462  41.4059889  99.0928341 111.2224086
  41.4704322  99.5548748 112.0582258  40.6970813  98.4625706 111.3506396
  31.9077179  92.4569549 108.7473085  32.1585217  93.3416558 109.0130661
  32.4436727  92.2774150 107.9748177  55.7309279  95.8883046 105.4148347
  54.9772987  95.3190444 105.2592351  55.8656820  95.8545710 106.3618981
  41.1207907 100.7596448 101.0903066  40.9853581 101.6047984 101.5187914
  41.6617719 100.9615726 100.3269000  37.6075246  86.8388028 117.7517421
  37.2142192  86.2854226 118.4265065  38.4241387  87.1498606 118.1423939
  34.5737304  98.2771886 101.6630991  35.0861825  99.0715136 101.8136556
  35.2260017  97.5798177 101.5964593  36.3832189 101.3937642 103.7453744
  36.5598817 102.3155607 103.5574728  37.1789022 101.0796062 104.1748124
  40.5243207  88.2545907 115.3437678  41.2652921  88.8553060 115.2642140
  40.7561130  87.5123545 114.7855720  35.6684545  93.4402274 113.6215907
  35.5538060  92.5387532 113.9223006  34.8129063  93.6865971 113.2700724
  42.7476383 101.3820015 115.2203408  42.3040237 100.5956393 114.9024313
  43.4093597 101.5699165 114.5547299  37.5063504 102.9115816 109.7464087
  38.0570929 102.7832880 108.9741081  36.6674980 103.2110705 109.3958979
  44.8457621 101.6622815 113.2484809  44.8276096 102.4831696 112.7565079
  45.7677541 101.5376890 113.4734951  41.3030675  99.1766944 114.0908318
  41.8359012  98.4155232 113.8607626  40.7744756  98.8840596 114.8332472
  44.4700370  84.2827010 109.6201959  44.1264640  85.1728652 109.5441070
  44.8379333  84.0928668 108.7571544  32.5386221  96.6060540 102.4390562
  33.3761443  97.0157549 102.2224269  32.7164489  95.6659983 102.4090755
  44.4350653  94.2735621  98.1274395  43.9197276  95.0440226  98.3662782
  44.1627961  93.6000757  98.7507456  42.0197764  89.1185322 103.1859633
  41.1639360  88.7292172 103.0065272  42.4324716  89.1977283 102.3259418
  43.5496911  86.6531665 107.5851193  43.0461706  86.6161800 106.7718998
  43.8427517  87.5624408 107.6447849  39.7939797  86.7370395 106.5917374
  40.6592793  86.5413204 106.2323264  39.8617305  86.5080747 107.5186731
  49.4084927  97.0267976 100.0627568  48.6314370  96.6879135  99.6182730
  50.0876408  97.0320599  99.3882533  44.2236956  92.1462713  99.9534176
  43.9187092  92.4608862 100.8044319  45.1767398  92.2244133  99.9961509
  42.6683388  98.3052936 101.6027130  42.1404750  97.5705696 101.2900367
  42.1670891  99.0827613 101.3567098  47.6476234  96.5001957 106.7194176
  46.9899908  97.1901218 106.8074305  48.4516633  96.8898389 107.0628162
  37.4002116  88.9672603 103.9633741  37.9745867  88.7447784 103.2306934
  37.9873098  89.0361297 104.7162343  46.4581693  94.8546330 104.7698118
  46.9713575  95.4876321 105.2719828  47.1082917  94.2547525 104.4041478
  37.7271703  90.9977064  97.9829627  36.8909015  91.3351750  98.3038901
  37.5876472  90.8626044  97.0456763  39.7024783  85.8413852 102.6908811
  39.0489196  85.5262869 102.0665425  39.6605257  85.2189592 103.4168634
  40.8135988  96.1233147  94.6062103  39.9063050  95.8922400  94.8053252
  41.3107020  95.3270766  94.7936084  43.7204067 104.8330654  97.5258789
  43.0465766 105.1362351  98.1343747  44.1069889 105.6359734  97.1764246
  42.9362524  92.3295785 107.0156458  42.0185085  92.5510732 106.8578146
  43.3522667  92.4042096 106.1568166  43.7197571  93.7287201 102.1459139
  44.4669390  94.2408598 101.8366261  43.9889161  93.4071254 103.0063532
  41.9924222  96.2245742  99.1286093  41.0835441  95.9404774  99.2258563
  42.0219305  96.6444820  98.2689400  47.2243489  99.8352331 102.8977260
  46.7705816  98.9943241 102.9542451  46.5937456 100.4713729 103.2352041
  46.1676409  90.7644317 104.1277928  45.4299165  90.2521703 104.4588170
  46.4203182  90.3244699 103.3161205  45.6676428 101.6728828 103.8327079
  45.9599403 102.2333885 103.1139444  46.1775049 101.9657389 104.5880238
  46.2688036  83.5420569 104.7219697  46.5746913  82.6817933 104.4345612
  46.9940641  84.1338189 104.5218691  32.5612392  93.9451256 103.1101295
  32.3636792  93.3520616 102.3852362  32.0059056  93.6403466 103.8277234
  40.5409116  93.8374362 105.2295888  40.5957725  92.8848199 105.1538365
  39.7300318  93.9933801 105.7137187  41.6900309  97.7654485  96.4674171
  41.2519739  97.0490344  96.0079809  42.4310750  97.9930600  95.9059263
  38.4801476  92.4551422 102.9886267  37.6669341  92.7545593 103.3951459
  38.9760470  92.0607111 103.7060749  40.6310053 102.4509179 104.9220532
  40.5886232 102.6770025 103.9929064  41.5472752 102.2172553 105.0706333
  44.0775687  92.9193246 111.8201161  44.4325075  93.1464720 112.6795627
  44.7247818  93.2511623 111.1978416  49.8073424  96.0411682 102.5250490
  49.6691323  96.2313278 101.5971679  49.4509643  96.8031065 102.9818541
  37.9715550  90.0269777 108.6047502  38.6114930  89.8858537 107.9070465
  37.1393081  89.7404291 108.2286104  49.8342804  98.1088209 107.5361762
  50.2679310  98.0163498 108.3844816  50.5474384  98.0845710 106.8981777
  38.7475854  99.3272208 104.7182494  39.5416453  98.8322528 104.5165069
  38.0367547  98.7990071 104.3550200  43.5670699 101.7090303 109.0694862
  43.6207721 102.2781240 109.8372578  42.6985480 101.8792188 108.7048899
  35.0558618  93.4715290 100.7942247  34.1256206  93.4099745 101.0112209
  35.1516090  92.9491242  99.9978888  34.9744167  89.9970102 103.3820489
  35.2350984  90.9115436 103.2729649  35.7961339  89.5294545 103.5317102
  36.4469092  91.4107860 110.5519313  37.1192145  91.2025222 109.9031962
  35.6198879  91.2129946 110.1124546  50.6958353  98.1511910 110.0694647
  50.8894243  99.0557720 110.3153922  50.5958972  97.6919329 110.9033232
  42.3494664  88.0369801 112.5684974  41.7022579  88.7359750 112.4749451
  43.1195679  88.4705944 112.9361222  45.7573462  98.3018653 115.6435528
  45.6058968  98.0729204 114.7265611  45.7478141  99.2589254 115.6566873
  42.5258798  95.8750565 110.6281794  43.4550858  96.0261725 110.4550761
  42.1049828  95.9634586 109.7730440  41.3247130  99.9001230 108.3980332
  41.1858216  99.5320014 109.2706270  40.5361726 100.4148869 108.2264289
  41.9195282 105.0010326  99.7405868  42.0947038 104.5298370 100.5551491
  41.2328070 105.6276093  99.9687129  42.8752345  99.2782833 105.7869169
  42.5402178  99.2383603 106.6826819  42.3756291  98.6127549 105.3139580
  36.8496589  94.6850463 111.3121751  36.7116387  93.9530701 111.9133290
  37.7601513  94.5959363 111.0305938  45.8111537  96.6238867  96.0606229
  45.1940708  95.8985695  95.9639282  45.3428025  97.3848227  95.7173303
  39.4778890  94.3970422 110.8005430  40.1878509  93.7563614 110.7592049
  39.4348198  94.6483317 111.7231611  47.4665669 101.3337775 113.7212009
  47.4078215 100.6496995 113.0542592  47.8685187 102.0756765 113.2692635
  38.1907824  91.3835640 112.6201070  37.6545181  90.9326378 113.2722666
  37.6024532  91.5181549 111.8771534  36.4856367 108.1499689 106.5145728
  36.7252966 108.7818213 107.1924747  35.6425564 107.7987729 106.8011088
  37.6010083  90.8424291  95.1827533  36.7239549  90.7213092  94.8189780
  38.0767836  90.0510370  94.9306422  47.4683076  99.2977359 111.9525989
  46.5809855  98.9603281 112.0752388  48.0381627  98.5660390 112.1894754
  29.1212223  95.6301451 105.2769040  29.8083263  95.3163181 104.6890056
  28.9660352  96.5342816 105.0036292  33.9246945  90.5191648 109.7054064
  33.8405134  89.9117317 108.9704474  33.1029652  91.0100666 109.7063560
  40.9984229 103.9578812 108.9187232  40.9254401 104.7633783 109.4306537
  40.5561622 104.1570777 108.0935254  40.7874009 103.1950582 102.4290054
  40.0041531 103.7372262 102.5228278  41.4866754 103.7124561 102.8284295
  44.0970659  89.0045211 105.0724259  44.5939359  88.2515173 104.7525329
  43.3257641  89.0409528 104.5067469  51.9500416  94.7085577 106.7142551
  51.9390293  95.5910292 106.3436484  51.0817796  94.3557127 106.5197088
  43.4582913 103.8565646 111.0745391  44.1710885 104.4913110 111.0021292
  42.9672941 103.9529512 110.2585393  45.1800440  97.7616898 102.6462683
  44.2456718  97.8818361 102.4767387  45.3577108  96.8589365 102.3822692
  40.6805628  91.1462594 104.7995944  40.3103415  90.5933634 105.4876849
  41.1764720  90.5420728 104.2470944  48.5672991  93.6034218 103.1812717
  49.0333443  94.4362209 103.1073019  49.0180492  93.1379199 103.8857975
  38.5094826 101.6060089 111.8950962  39.2104286 102.2396572 112.0480356
  38.0389941 101.9474821 111.1346601  46.6349222  99.9478039 100.1798869
  46.9109066  99.8334633 101.0892743  45.7653721  99.5495524 100.1411042
  46.5389654  85.9714805 107.2203618  45.6252734  86.2019031 107.3885825
  46.9682755  86.0553249 108.0717650  46.3096112  94.1604697 109.7203512
  45.6567563  94.4080604 109.0655965  46.6876492  93.3468835 109.3865989
  43.2703286 104.1964390 103.8231682  43.4525681 103.3786046 104.2859435
  44.0936272 104.4132082 103.3856572  43.6045452 103.1232575 101.0846731
  44.1333218 102.6125029 100.4716893  43.8673671 102.8075105 101.9492264
  42.3583685  94.9024508 116.2069549  41.6824322  94.8018637 116.8771924
  43.1811319  94.7463721 116.6705546  34.1062544 101.1396444 108.8282064
  34.6915981 100.3940132 108.9609969  33.9087383 101.4500401 109.7118728
  36.9601200 104.1747692 103.8444507  36.2911575 104.6593819 103.3608547
  36.8214069 104.4216912 104.7587885  28.6980199  93.7102044 107.5486508
  28.7364299  93.1765635 108.3423626  28.1920492  93.1837250 106.9297485
  41.1006468 106.2091435 110.4427165  41.6524776 106.3723057 111.2076250
  41.4412662 106.7995873 109.7707190  36.0770961  88.5566585 111.0449050
  36.1412288  89.4181416 110.6326448  36.0138082  87.9440586 110.3121408
  35.5523234  90.6289717 114.6922084  36.1795273  90.2466795 115.3059608
  34.6951153  90.4103919 115.0577777  45.9517343 101.0352693 116.2975820
  46.4957247 101.6482651 115.8030774  45.3704187 101.5932271 116.8142833
  32.3288777  92.4366146 100.6240439  32.6242218  91.5276825 100.5707493
  31.4276813  92.4153886 100.3021441  44.2374856 104.1573411 107.4290847
  44.1125995 103.3563150 106.9201793  44.8953947 104.6519604 106.9404817
  35.8583024  90.5122143 106.6067988  35.1369610  91.1258111 106.4675461
  36.6476280  91.0479908 106.5284633  46.3009764 101.9582431 109.0570397
  45.3540099 101.8387782 108.9848724  46.6492537 101.0704929 109.1396659
  38.6609337  87.8476570 112.8808639  39.1843739  88.0938866 113.6434949
  38.4421671  88.6796604 112.4611777  34.0576618  90.1180244 100.7479764
  33.7289324  89.2377623 100.5654870  34.4115989  90.0627913 101.6356153
  43.3056197 101.7535147 105.2574750  43.1581160 100.8251854 105.4382320
  44.1309691 101.7755238 104.7731825  37.1718442  90.4053214 101.1155242
  37.5114514  90.9339135 100.3933850  37.6190562  90.7433620 101.8913808
  46.9090319 102.5763706 106.3439622  47.8336867 102.3706567 106.2064074
  46.7405622 102.3280107 107.2528964  39.8661882  88.7890265 110.5658310
  39.5258703  87.9898078 110.9678990  39.1600889  89.0891975 109.9935143
  40.5178354  85.8739577 109.0185633  41.3404423  85.4000055 108.8964523
  40.7616418  86.6530061 109.5184319  39.1586589  88.9027836  99.3148535
  39.8794951  89.2809088  98.8112251  38.5351893  89.6216712  99.4183512
  43.3017712  89.6072984 100.2506867  43.5181326  90.4897622  99.9495695
  42.8211779  89.2159198  99.5212509  38.0416933  92.5658698 106.8277611
  37.8961514  92.8799001 107.7201893  37.5642137  93.1843598 106.2748510
  39.9013316  89.5561246 106.8758501  39.8874885  88.6602339 106.5390799
  40.6185744  89.5631909 107.5096787  41.7539447  89.9898586 108.9211628
  41.4957224  90.9115657 108.9195959  41.2224487  89.5929020 109.6112093
  46.6985635 103.0949373 101.7001714  46.8722513 102.5295796 100.9475566
  47.1914526 103.8950268 101.5181204  32.5162595  95.1064042 109.7665273
  31.9716063  95.8823850 109.8985547  33.3941945  95.4534847 109.6084394
  39.3050212  88.4375626 102.1446071  39.4266123  87.5092272 102.3436959
  39.0152254  88.4514312 101.2324387  42.1741402  86.1230536 105.2812791
  42.1963099  86.1869870 104.3264771  42.5909461  85.2835045 105.4753297
  52.5525026  95.8585796 103.3192014  52.9956172  95.1093121 102.9211137
  51.6751537  95.8495932 102.9365746  47.6860808 102.4116137  98.7998612
  48.3811712 103.0322830  99.0185927  48.0283958 101.5611489  99.0750990
  33.3028617  94.2333938 112.6595430  32.5610353  94.3816574 113.2460060
  32.9821361  94.4942204 111.7962179  49.5852231  99.8615843 100.3285943
  50.1103555 100.2003116  99.6035263  49.4974583  98.9262858 100.1449078
  41.2472280 103.7749917 112.4575820  41.5559406 103.5299063 113.3298519
  42.0447762 103.9796555 111.9694690  41.2692892 105.9287826 104.6881196
  40.8297882 105.4364205 105.3814053  42.0201009 105.3860794 104.4473271
  33.7485231 102.1199367 104.6905824  34.5743251 101.8203139 104.3104468
  33.3979283 101.3506990 105.1395613  38.7166764 101.4725835 106.7603498
  38.0946773 100.8096540 106.4605726  39.3871631 101.4986967 106.0777146
  31.9493836 100.0385694 105.6494758  31.1125744  99.6107868 105.4678759
  31.9217481 100.2318137 106.5865549  38.7891291  89.9507623 116.3536004
  38.8379447  90.8269746 115.9713773  39.3313805  89.4085016 115.7807647
  49.2746137 100.4948747 115.6337141  48.4841681 100.4772885 115.0941640
  49.0379492 101.0337040 116.3886177  49.3944012  97.3441213 112.9469869
  49.4442017  97.1791220 113.8885392  49.2857935  96.4768472 112.5567750
  38.2780271 100.0229759 100.2361958  38.4268391 100.7065223  99.5828631
  39.0846714 100.0034849 100.7511414  46.6847774  93.3272141 114.2629176
  47.5857637  93.1878606 113.9713174  46.7595749  93.4926596 115.2027354
  41.0190580  90.7038996 113.1082362  40.1493889  90.9972562 112.8364951
  41.2550060  91.2879441 113.8289626  50.8962209  99.7638154 113.1911891
  50.6047017 100.1268135 114.0275352  50.2834340  99.0505163 113.0125223
  52.0957891  97.3291034 105.7114461  52.9304783  97.7680838 105.8752022
  52.2317020  96.8529687 104.8922707  49.1449397  94.8870769 111.6591949
  49.6203519  95.0798415 110.8510800  48.2214962  94.9429955 111.4135333
  36.0332904  96.0494936 101.2423027  35.7878946  95.1457266 101.4403237
  36.2028818  96.0512087 100.3002505  43.7229614  86.9218613 110.6247783
  44.2411557  87.6579640 110.2994271  43.3684746  87.2282606 111.4594542
  35.3028551  91.7823294  98.7409189  34.6097796  91.8567649  98.0849225
  35.0580303  91.0183638  99.2630706  43.9742208  83.3418895 106.1448679
  44.2543961  82.6742084 106.7709106  44.7592815  83.5347991 105.6323343
  41.7775676 102.5177889  97.7073706  41.2049643 103.1368076  97.2544178
  42.3508470 103.0677251  98.2413628  47.8451066  91.7636529 109.8920255
  48.7968489  91.8634627 109.9132479  47.6754516  90.9714798 110.4018339
  45.8665446  88.8492112 110.0779655  45.2715378  89.1297125 109.3826144
  45.5815142  89.3386013 110.8496397  44.9972936 102.8015039  98.8382288
  45.9303609 102.7360601  99.0415164  44.9096149 103.6371306  98.3796821
  47.6260953 102.1180910  95.7986236  47.5474584 101.7840773  96.6921993
  48.4470619 102.6102678  95.7977708  50.3239144  94.9842649 109.0062554
  50.2915464  94.0458650 109.1922238  50.9339767  95.0626686 108.2728379
  42.1622475  93.8538702  95.0489758  43.1081579  93.7244910  95.1178176
  41.7836720  93.1153364  95.5259186  50.4733632  91.7753692 109.0520837
  49.9572681  90.9912149 108.8650766  51.3573581  91.4472409 109.2167357
  48.1344359  85.5194708 105.0116650  47.9369180  85.2109796 105.8959982
  48.7444065  86.2456347 105.1414580  56.1415694  96.0458656 108.1468591
  56.8719082  95.7843944 108.7076294  55.5322639  95.3087378 108.1870659
  54.2230991  94.1866518 108.7443042  53.4964154  94.0522483 108.1359534
  53.8078278  94.4943347 109.5499760  42.0461167  97.9056448 116.5090415
  42.9664177  98.0835047 116.7030462  42.0110750  96.9612493 116.3570114
  40.3465392  91.7788678  94.9844643  39.4396847  91.4821791  95.0607357
  40.6241373  91.4818496  94.1178930  31.2643332  93.0995042 105.4343690
  30.9446117  92.2460350 105.1418064  30.7176760  93.3143620 106.1901657
  35.0423240  95.8157483 109.1513196  35.2609250  96.7474590 109.1701230
  35.4549014  95.4565457 109.9368000  41.9627458  86.3225568 101.1388885
  41.1528186  85.9772653 101.5144131  42.6511875  86.0133112 101.7276496
  43.8918006  85.4003615 102.7613181  44.4449044  85.8199068 103.4203204
  44.1288092  84.4739363 102.8036137  39.9151105  91.3890688 118.5415945
  39.8147832  92.3385045 118.4728036  39.6972647  91.0608927 117.6692015
  39.1164176  88.6375613  95.1256623  39.9783340  88.9630512  95.3852440
  39.3014521  87.8507109  94.6129688  31.1331592  96.7197953 107.4036811
  30.4395064  96.3051906 106.8906766  31.8804583  96.7618490 106.8070230
  47.2696813  87.5104140 102.2691846  46.6895482  88.1688944 101.8869898
  47.0032746  86.6881485 101.8579263  45.7200379  86.9109198 104.4713166
  46.2200158  87.0225732 103.6627485  46.3635987  86.6070250 105.1113974
  39.7782375  94.8187827 117.3581007  39.2949457  95.6188187 117.5644896
  39.8643314  94.8295772 116.4048451  33.0468335  96.6516207 105.2802826
  33.0239023  96.7503894 104.3284709  33.3568971  97.4981358 105.6019992
  35.7055713  98.7092362 109.3949441  36.6598966  98.6776304 109.3279372
  35.5068236  98.2482986 110.2099667  36.2955095  97.2793478 111.9620238
  37.1147984  97.7737557 111.9855076  36.5691902  96.3625446 111.9337806
  46.0521691  89.6704230 101.3248194  45.1647546  89.9553881 101.1068389
  46.4675680  89.5097994 100.4775471  49.4036227  89.6950751 105.0402533
  50.1796617  90.1847204 105.3127150  48.6784361  90.1208805 105.4974403
  51.8408786  90.4078371 106.0976474  52.4353277  90.1674106 105.3869782
  51.9135369  89.6885501 106.7250010  34.0605941 104.2511981 106.4119639
  33.9260409 103.4912382 105.8457637  33.6438004 104.9752881 105.9448427
  45.1964904  99.4348905  95.4196214  45.9000755  99.6398907  96.0353869
  44.4727553 100.0025667  95.6845297  46.0262715  95.1858766 101.5398484
  45.9697916  95.6427318 100.7006116  46.5791057  94.4249451 101.3621327
  49.8367521  90.9748498 102.3648604  49.5804455  90.5745134 103.1956811
  49.2120389  91.6892292 102.2398743  54.1479858  93.7144571 104.8719895
  53.5879416  93.7837761 105.6451457  53.5423362  93.5385556 104.1519391
  37.2175067 105.1481298 106.6238081  37.1007451 106.0926731 106.5216771
  36.3967514 104.8454860 107.0123880  47.1051602  99.8731434  97.4694674
  47.9397206  99.4412633  97.2872149  46.9435945  99.7013448  98.3971568
  46.7597494  96.3763548  98.8351013  46.7046298  96.2107819  97.8939457
  46.1343549  97.0839580  98.9913203  31.5490009  91.6131612 112.6612435
  32.1948873  91.1030566 113.1499661  31.3407160  92.3500294 113.2355861
  44.0743401  98.6812459 118.1604576  44.9434561  98.8553112 117.7991211
  43.5950153  99.5006876 118.0380305  40.0693619  85.8771657  98.4136332
  40.0572289  86.8213496  98.5704602  40.9617041  85.6941802  98.1195793
  38.2429581 105.8009560 109.8394010  39.1456828 105.8333171 110.1560505
  38.0166951 104.8710011 109.8540345  39.9983183 104.5540547 106.5004088
  39.0478814 104.5542409 106.3868461  40.3015670 103.8073281 105.9840123
  43.8845739  82.4714433 102.6682268  43.1178135  81.9172920 102.8138951
  44.2956444  82.5436302 103.5296420  35.8887500  88.7599229 116.7587450
  36.7518962  88.4036034 116.9690774  35.3152911  88.4213124 117.4462854
  55.7335877 110.3901085 107.5649851  56.3714287 110.2707833 106.8613191
  55.6156720 111.3381929 107.6237803  52.5425583 110.3428513 107.5011375
  52.2044095 110.2269578 106.6131910  53.4115351 109.9419679 107.4812382
  48.4012399 112.1963990 103.4908266  47.8377264 112.1053927 102.7224554
  48.2864794 111.3763894 103.9710759  53.0245366 111.4963365 113.4597581
  53.0134007 111.1016163 112.5878085  53.1866006 110.7629438 114.0531352
  45.9476831 113.6915181 106.3292487  46.7398123 113.3506006 105.9138786
  46.1873481 113.8010156 107.2494640  53.9811958 115.8634958  98.8022731
  53.3299937 116.4489038  98.4156745  54.7756320 116.3941152  98.8617769
  47.9067585 112.9524095  99.2009866  48.6798461 112.4053082  99.0622741
  48.2592984 113.8168344  99.4124327  49.7452627 114.2800477 112.4076765
  49.4542493 115.1846108 112.2923431  50.3809612 114.3217005 113.1220834
  50.6708834 111.6577325 108.9978125  51.2672406 111.4333348 108.2835087
  50.7283806 110.9162071 109.6003572  50.2433863 109.1116761  96.8328315
  50.4959383 108.5898282  96.0711778  49.3058422 108.9482906  96.9354999
  55.2877145 108.1152539 104.6403059  56.0740235 107.6971962 104.2893476
  55.5515850 109.0198631 104.8084707  55.4587223 113.5525389  99.3391716
  54.8233056 113.6260016 100.0512620  55.1284629 114.1418988  98.6610795
  60.6885573 108.0527772 105.5436037  61.4210744 107.4826989 105.7773867
  59.9324928 107.6649373 105.9842543  49.9630151 111.0144867  99.0352690
  49.8466409 110.3389770  99.7033775  50.0732411 110.5277241  98.2184843
  52.3061692 110.4755014 102.7399380  51.9419900 109.9485635 103.4512301
  53.1628808 110.0853483 102.5665865  58.2110993 101.7649346 110.0030646
  57.8794318 102.6344757 109.7791861  57.6156606 101.4485630 110.6824676
  51.9467179 105.5044914  97.7360728  52.1141582 106.3725150  98.1031199
  51.7564348 105.6672195  96.8122017  54.7042512 113.9661892 109.4026559
  54.4043236 114.8686931 109.2942366  54.3593572 113.6994076 110.2547711
  48.1554994 110.4175689 105.4363263  47.2305490 110.2851903 105.6440955
  48.4039407 111.1969909 105.9333205  58.1039656 106.4844433 107.0823996
  57.1956534 106.4159841 106.7882757  58.0527252 106.9616378 107.9105821
  51.9256400 107.9602571  98.7207395  51.8056025 108.4059622  99.5592875
  51.2308989 108.3087889  98.1620933  45.5163805 110.0608963 106.2707052
  45.6456186 110.3143442 107.1846464  44.8361256 110.6536671 105.9511707
  49.6863292 120.7306213 102.3697526  49.6087322 121.6814038 102.4486007
  49.0824936 120.3852085 103.0272453  52.1780522 107.9034078 115.0258893
  51.4013856 108.4627998 115.0161758  52.8171085 108.3890861 115.5473763
  59.9701303 104.6860871 108.8601870  59.3275683 104.9793404 108.2141664
  59.4656231 104.5713791 109.6655066  57.6241466 108.4324044  99.5487729
  58.5359322 108.6651431  99.3735427  57.1151113 109.0161088  98.9862808
  50.4326894 110.7119532 114.5876860  51.1741579 111.2504576 114.3111684
  49.7263880 111.3385820 114.7448412  55.9082234 112.8548672 113.1849022
  56.3165590 112.4131083 112.4403654  55.1859495 112.2801300 113.4383215
  52.2613304 107.7921279 110.5582579  53.1074499 108.2160692 110.7017228
  52.2011942 107.1354903 111.2521142  56.2311049 113.4149863 106.9401311
  55.6019911 113.5795577 106.2377378  55.8436711 113.8291472 107.7112275
  60.1100280 114.3504301 104.2945674  59.4251319 114.7303202 103.7442708
  60.1944130 114.9599627 105.0277622  55.4112749 105.4525647 112.2163752
  55.1673681 106.2067708 111.6798028  55.6872680 105.8310995 113.0510999
  57.3651212 111.9964260 110.8941018  57.5768107 112.6396019 110.2175399
  57.3180960 111.1626576 110.4262948  54.9677441 104.6082080 107.7977590
  54.1061920 104.9063334 108.0894328  54.9939876 104.8252479 106.8658623
  51.7839010 113.1524271 104.2051396  52.2477356 113.4311974 103.4156018
  51.5195809 112.2507715 104.0224486  48.6763092 112.6995752 107.1431159
  49.2464449 113.1283021 106.5048643  49.2671203 112.4178337 107.8415345
  50.7207897 109.2747423 101.0140961  51.4231940 109.7268467 101.4814887
  50.3888525 108.6331242 101.6420854  49.1688258 107.8659180 115.3892170
  48.5386919 108.5475461 115.6227567  49.0624346 107.7542261 114.4445308
  44.4633230 107.5330976 106.3158094  43.6732284 107.7888504 105.8398205
  44.9544478 108.3479314 106.4210135  58.4797040 114.8736215 109.0663375
  59.3014484 114.4716402 108.7846057  58.4759443 114.7704449 110.0179491
  46.4147976 107.8975555 103.2741571  45.6179139 108.0094249 103.7925067
  46.1873568 108.2362207 102.4082462  52.2453643 114.4220258 111.2224086
  52.3098076 114.8840666 112.0582258  51.5364567 113.7917623 111.3506396
  42.7470933 107.7861466 108.7473085  42.9978972 108.6708476 109.0130661
  43.2830482 107.6066068 107.9748177  66.5703033 111.2174963 105.4148347
  65.8166741 110.6482362 105.2592351  66.7050574 111.1837628 106.3618981
  51.9601661 116.0888366 101.0903066  51.8247336 116.9339901 101.5187914
  52.5011474 116.2907643 100.3269000  48.4469001 102.1679946 117.7517421
  48.0535946 101.6146144 118.4265065  49.2635141 102.4790524 118.1423939
  45.4131059 113.6063804 101.6630991  45.9255579 114.4007054 101.8136556
  46.0653771 112.9090094 101.5964593  47.2225943 116.7229560 103.7453744
  47.3992572 117.6447525 103.5574728  48.0182777 116.4087979 104.1748124
  51.3636962 103.5837825 115.3437678  52.1046675 104.1844978 115.2642140
  51.5954885 102.8415462 114.7855720  46.5078300 108.7694192 113.6215907
  46.3931815 107.8679449 113.9223006  45.6522818 109.0157889 113.2700724
  53.5870138 116.7111932 115.2203408  53.1433992 115.9248311 114.9024313
  54.2487351 116.8991083 114.5547299  48.3457259 118.2407734 109.7464087
  48.8964684 118.1124797 108.9741081  47.5068735 118.5402623 109.3958979
  55.6851376 116.9914732 113.2484809  55.6669851 117.8123613 112.7565079
  56.6071296 116.8668807 113.4734951  52.1424430 114.5058862 114.0908318
  52.6752767 113.7447150 113.8607626  51.6138511 114.2132513 114.8332472
  55.3094125  99.6118928 109.6201959  54.9658394 100.5020569 109.5441070
  55.6773087  99.4220585 108.7571544  43.3779975 111.9352458 102.4390562
  44.2155197 112.3449466 102.2224269  43.5558243 110.9951900 102.4090755
  55.2744407 109.6027539  98.1274395  54.7591031 110.3732143  98.3662782
  55.0021716 108.9292675  98.7507456  52.8591518 104.4477240 103.1859633
  52.0033115 104.0584090 103.0065272  53.2718470 104.5269200 102.3259418
  54.3890665 101.9823583 107.5851193  53.8855461 101.9453718 106.7718998
  54.6821272 102.8916326 107.6447849  50.6333551 102.0662313 106.5917374
  51.4986548 101.8705121 106.2323264  50.7011060 101.8372664 107.5186731
  60.2478682 112.3559893 100.0627568  59.4708124 112.0171053  99.6182730
  60.9270163 112.3612517  99.3882533  55.0630711 107.4754631  99.9534176
  54.7580846 107.7900780 100.8044319  56.0161153 107.5536051  99.9961509
  53.5077142 113.6344854 101.6027130  52.9798504 112.8997614 101.2900367
  53.0064645 114.4119531 101.3567098  58.4869988 111.8293875 106.7194176
  57.8293663 112.5193136 106.8074305  59.2910388 112.2190307 107.0628162
  48.2395870 104.2964520 103.9633741  48.8139622 104.0739702 103.2306934
  48.8266853 104.3653215 104.7162343  57.2975447 110.1838247 104.7698118
  57.8107329 110.8168239 105.2719828  57.9476671 109.5839443 104.4041478
  48.5665457 106.3268981  97.9829627  47.7302769 106.6643668  98.3038901
  48.4270227 106.1917961  97.0456763  50.5418538 101.1705769 102.6908811
  49.8882950 100.8554787 102.0665425  50.4999012 100.5481510 103.4168634
  51.6529743 111.4525064  94.6062103  50.7456804 111.2214318  94.8053252
  52.1500775 110.6562684  94.7936084  54.5597822 120.1622572  97.5258789
  53.8859520 120.4654268  98.1343747  54.9463643 120.9651652  97.1764246
  53.7756278 107.6587703 107.0156458  52.8578840 107.8802650 106.8578146
  54.1916422 107.7334013 106.1568166  54.5591326 109.0579119 102.1459139
  55.3063145 109.5700516 101.8366261  54.8282915 108.7363171 103.0063532
  52.8317976 111.5537659  99.1286093  51.9229195 111.2696692  99.2258563
  52.8613060 111.9736738  98.2689400  58.0637243 115.1644249 102.8977260
  57.6099571 114.3235159 102.9542451  57.4331210 115.8005647 103.2352041
  57.0070163 106.0936235 104.1277928  56.2692920 105.5813621 104.4588170
  57.2596937 105.6536616 103.3161205  56.5070183 117.0020745 103.8327079
  56.7993157 117.5625803 103.1139444  57.0168803 117.2949306 104.5880238
  57.1081790  98.8712487 104.7219697  57.4140667  98.0109850 104.4345612
  57.8334395  99.4630107 104.5218691  43.4006146 109.2743173 103.1101295
  43.2030546 108.6812534 102.3852362  42.8452810 108.9695384 103.8277234
  51.3802870 109.1666280 105.2295888  51.4351480 108.2140116 105.1538365
  50.5694072 109.3225719 105.7137187  52.5294064 113.0946403  96.4674171
  52.0913494 112.3782262  96.0079809  53.2704505 113.3222518  95.9059263
  49.3195230 107.7843340 102.9886267  48.5063096 108.0837510 103.3951459
  49.8154224 107.3899028 103.7060749  51.4703808 117.7801097 104.9220532
  51.4279987 118.0061943 103.9929064  52.3866507 117.5464471 105.0706333
  54.9169442 108.2485164 111.8201161  55.2718829 108.4756637 112.6795627
  55.5641573 108.5803541 111.1978416  60.6467179 111.3703600 102.5250490
  60.5085077 111.5605196 101.5971679  60.2903397 112.1322983 102.9818541
  48.8109305 105.3561695 108.6047502  49.4508684 105.2150454 107.9070465
  47.9786835 105.0696209 108.2286104  60.6736558 113.4380127 107.5361762
  61.1073065 113.3455416 108.3844816  61.3868139 113.4137627 106.8981777
  49.5869609 114.6564126 104.7182494  50.3810207 114.1614446 104.5165069
  48.8761301 114.1281989 104.3550200  54.4064453 117.0382221 109.0694862
  54.4601475 117.6073157 109.8372578  53.5379235 117.2084106 108.7048899
  45.8952372 108.8007207 100.7942247  44.9649960 108.7391663 101.0112209
  45.9909844 108.2783160  99.9978888  45.8137921 105.3262020 103.3820489
  46.0744739 106.2407353 103.2729649  46.6355094 104.8586463 103.5317102
  47.2862847 106.7399777 110.5519313  47.9585900 106.5317139 109.9031962
  46.4592633 106.5421863 110.1124546  61.5352108 113.4803828 110.0694647
  61.7287998 114.3849638 110.3153922  61.4352726 113.0211247 110.9033232
  53.1888419 103.3661718 112.5684974  52.5416334 104.0651668 112.4749451
  53.9589434 103.7997862 112.9361222  56.5967217 113.6310570 115.6435528
  56.4452723 113.4021122 114.7265611  56.5871896 114.5881172 115.6566873
  53.3652553 111.2042483 110.6281794  54.2944613 111.3553643 110.4550761
  52.9443583 111.2926504 109.7730440  52.1640885 115.2293148 108.3980332
  52.0251970 114.8611932 109.2706270  51.3755481 115.7440787 108.2264289
  52.7589037 120.3302244  99.7405868  52.9340792 119.8590287 100.5551491
  52.0721825 120.9568010  99.9687129  53.7146100 114.6074750 105.7869169
  53.3795932 114.5675520 106.6826819  53.2150046 113.9419466 105.3139580
  47.6890344 110.0142380 111.3121751  47.5510142 109.2822619 111.9133290
  48.5995267 109.9251280 111.0305938  56.6505291 111.9530785  96.0606229
  56.0334462 111.2277613  95.9639282  56.1821780 112.7140145  95.7173303
  50.3172644 109.7262340 110.8005430  51.0272263 109.0855532 110.7592049
  50.2741953 109.9775234 111.7231611  58.3059423 116.6629693 113.7212009
  58.2471969 115.9788913 113.0542592  58.7078942 117.4048683 113.2692635
  49.0301578 106.7127558 112.6201070  48.4938935 106.2618296 113.2722666
  48.4418287 106.8473466 111.8771534  47.3250122 123.4791607 106.5145728
  47.5646720 124.1110131 107.1924747  46.4819318 123.1279647 106.8011088
  48.4403837 106.1716209  95.1827533  47.5633304 106.0505010  94.8189780
  48.9161590 105.3802287  94.9306422  58.3076830 114.6269277 111.9525989
  57.4203609 114.2895199 112.0752388  58.8775381 113.8952308 112.1894754
  39.9605978 110.9593369 105.2769040  40.6477017 110.6455099 104.6890056
  39.8054106 111.8634733 105.0036292  44.7640700 105.8483565 109.7054064
  44.6798888 105.2409235 108.9704474  43.9423406 106.3392584 109.7063560
  51.8377984 119.2870729 108.9187232  51.7648155 120.0925701 109.4306537
  51.3955377 119.4862695 108.0935254  51.6267763 118.5242499 102.4290054
  50.8435285 119.0664179 102.5228278  52.3260509 119.0416479 102.8284295
  54.9364414 104.3337129 105.0724259  55.4333113 103.5807091 104.7525329
  54.1651395 104.3701445 104.5067469  62.7894171 110.0377494 106.7142551
  62.7784047 110.9202210 106.3436484  61.9211550 109.6849045 106.5197088
  54.2976667 119.1857563 111.0745391  55.0104640 119.8205028 111.0021292
  53.8066696 119.2821429 110.2585393  56.0194194 113.0908816 102.6462683
  55.0850473 113.2110278 102.4767387  56.1970863 112.1881283 102.3822692
  51.5199382 106.4754512 104.7995944  51.1497170 105.9225552 105.4876849
  52.0158475 105.8712645 104.2470944  59.4066746 108.9326135 103.1812717
  59.8727198 109.7654127 103.1073019  59.8574246 108.4671117 103.8857975
  49.3488581 116.9352007 111.8950962  50.0498040 117.5688490 112.0480356
  48.8783696 117.2766738 111.1346601  57.4742977 115.2769957 100.1798869
  57.7502821 115.1626551 101.0892743  56.6047475 114.8787441 100.1411042
  57.3783408 101.3006722 107.2203618  56.4646488 101.5310949 107.3885825
  57.8076510 101.3845166 108.0717650  57.1489867 109.4896614 109.7203512
  56.4961317 109.7372522 109.0655965  57.5270247 108.6760752 109.3865989
  54.1097041 119.5256307 103.8231682  54.2919435 118.7077963 104.2859435
  54.9330027 119.7424000 103.3856572  54.4439206 118.4524492 101.0846731
  54.9726973 117.9416947 100.4716893  54.7067426 118.1367023 101.9492264
  53.1977440 110.2316425 116.2069549  52.5218077 110.1310555 116.8771924
  54.0205074 110.0755639 116.6705546  44.9456299 116.4688362 108.8282064
  45.5309736 115.7232050 108.9609969  44.7481137 116.7792318 109.7118728
  47.7994954 119.5039609 103.8444507  47.1305329 119.9885737 103.3608547
  47.6607824 119.7508830 104.7587885  39.5373954 109.0393962 107.5486508
  39.5758053 108.5057553 108.3423626  39.0314246 108.5129168 106.9297485
  51.9400223 121.5383353 110.4427165  52.4918531 121.7014974 111.2076250
  52.2806416 122.1287791 109.7707190  46.9164716 103.8858503 111.0449050
  46.9806042 104.7473333 110.6326448  46.8531836 103.2732504 110.3121408
  46.3916988 105.9581635 114.6922084  47.0189027 105.5758712 115.3059608
  45.5344907 105.7395837 115.0577777  56.7911097 116.3644610 116.2975820
  57.3351001 116.9774568 115.8030774  56.2097942 116.9224189 116.8142833
  43.1682531 107.7658064 100.6240439  43.4635972 106.8568743 100.5707493
  42.2670567 107.7445804 100.3021441  55.0768610 119.4865328 107.4290847
  54.9519749 118.6855068 106.9201793  55.7347701 119.9811522 106.9404817
  46.6976778 105.8414061 106.6067988  45.9763364 106.4550028 106.4675461
  47.4870034 106.3771826 106.5284633  57.1403518 117.2874348 109.0570397
  56.1933854 117.1679699 108.9848724  57.4886292 116.3996846 109.1396659
  49.5003092 103.1768487 112.8808639  50.0237494 103.4230784 113.6434949
  49.2815425 104.0088522 112.4611777  44.8970373 105.4472162 100.7479764
  44.5683079 104.5669541 100.5654870  45.2509744 105.3919831 101.6356153
  54.1449952 117.0827065 105.2574750  53.9974914 116.1543772 105.4382320
  54.9703445 117.1047155 104.7731825  48.0112196 105.7345132 101.1155242
  48.3508268 106.2631053 100.3933850  48.4584316 106.0725538 101.8913808
  57.7484074 117.9055623 106.3439622  58.6730621 117.6998485 106.2064074
  57.5799377 117.6572024 107.2528964  50.7055637 104.1182182 110.5658310
  50.3652457 103.3189995 110.9678990  49.9994643 104.4183893 109.9935143
  51.3572109 101.2031495 109.0185633  52.1798178 100.7291973 108.8964523
  51.6010172 101.9821979 109.5184319  49.9980343 104.2319753  99.3148535
  50.7188706 104.6101006  98.8112251  49.3745647 104.9508630  99.4183512
  54.1411466 104.9364902 100.2506867  54.3575080 105.8189540  99.9495695
  53.6605533 104.5451116  99.5212509  48.8810687 107.8950615 106.8277611
  48.7355268 108.2090918 107.7201893  48.4035891 108.5135516 106.2748510
  50.7407070 104.8853163 106.8758501  50.7268639 103.9894257 106.5390799
  51.4579498 104.8923827 107.5096787  52.5933201 105.3190504 108.9211628
  52.3350979 106.2407574 108.9195959  52.0618241 104.9220938 109.6112093
  57.5379390 118.4241291 101.7001714  57.7116267 117.8587713 100.9475566
  58.0308281 119.2242186 101.5181204  43.3556350 110.4355960 109.7665273
  42.8109818 111.2115768 109.8985547  44.2335699 110.7826764 109.6084394
  50.1443966 103.7667544 102.1446071  50.2659877 102.8384190 102.3436959
  49.8546009 103.7806230 101.2324387  53.0135157 101.4522454 105.2812791
  53.0356853 101.5161787 104.3264771  53.4303216 100.6126963 105.4753297
  63.3918781 111.1877714 103.3192014  63.8349927 110.4385039 102.9211137
  62.5145291 111.1787850 102.9365746  58.5254562 117.7408055  98.7998612
  59.2205467 118.3614748  99.0185927  58.8677712 116.8903406  99.0750990
  44.1422371 109.5625856 112.6595430  43.4004107 109.7108491 113.2460060
  43.8215116 109.8234122 111.7962179  60.4245985 115.1907761 100.3285943
  60.9497309 115.5295033  99.6035263  60.3368338 114.2554776 100.1449078
  52.0866034 119.1041834 112.4575820  52.3953161 118.8590981 113.3298519
  52.8841516 119.3088473 111.9694690  52.1086646 121.2579744 104.6881196
  51.6691636 120.7656123 105.3814053  52.8594763 120.7152712 104.4473271
  44.5878985 117.4491285 104.6905824  45.4137005 117.1495057 104.3104468
  44.2373037 116.6798907 105.1395613  49.5560518 116.8017753 106.7603498
  48.9340528 116.1388458 106.4605726  50.2265385 116.8278885 106.0777146
  42.7887590 115.3677611 105.6494758  41.9519498 114.9399786 105.4678759
  42.7611236 115.5610055 106.5865549  49.6285046 105.2799541 116.3536004
  49.6773201 106.1561664 115.9713773  50.1707560 104.7376934 115.7807647
  60.1139891 115.8240664 115.6337141  59.3235435 115.8064803 115.0941640
  59.8773246 116.3628958 116.3886177  60.2337766 112.6733131 112.9469869
  60.2835771 112.5083138 113.8885392  60.1251690 111.8060390 112.5567750
  49.1174025 115.3521676 100.2361958  49.2662146 116.0357141  99.5828631
  49.9240469 115.3326766 100.7511414  57.5241529 108.6564059 114.2629176
  58.4251392 108.5170524 113.9713174  57.5989503 108.8218514 115.2027354
  51.8584334 106.0330913 113.1082362  50.9887644 106.3264479 112.8364951
  52.0943815 106.6171358 113.8289626  61.7355963 115.0930072 113.1911891
  61.4440772 115.4560053 114.0275352  61.1228095 114.3797080 113.0125223
  62.9351646 112.6582952 105.7114461  63.7698537 113.0972756 105.8752022
  63.0710774 112.1821605 104.8922707  59.9843152 110.2162687 111.6591949
  60.4597273 110.4090333 110.8510800  59.0608717 110.2721873 111.4135333
  46.8726658 111.3786854 101.2423027  46.6272700 110.4749184 101.4403237
  47.0422573 111.3804004 100.3002505  54.5623368 102.2510530 110.6247783
  55.0805312 102.9871557 110.2994271  54.2078501 102.5574524 111.4594542
  46.1422306 107.1115212  98.7409189  45.4491551 107.1859567  98.0849225
  45.8974058 106.3475555  99.2630706  54.8135962  98.6710813 106.1448679
  55.0937716  98.0034002 106.7709106  55.5986569  98.8639909 105.6323343
  52.6169431 117.8469807  97.7073706  52.0443398 118.4659994  97.2544178
  53.1902224 118.3969168  98.2413628  58.6844821 107.0928447 109.8920255
  59.6362243 107.1926545 109.9132479  58.5148271 106.3006715 110.4018339
  56.7059200 104.1784030 110.0779655  56.1109132 104.4589043 109.3826144
  56.4208897 104.6677931 110.8496397  55.8366690 118.1306957  98.8382288
  56.7697364 118.0652519  99.0415164  55.7489903 118.9663224  98.3796821
  58.4654707 117.4472827  95.7986236  58.3868339 117.1132691  96.6921993
  59.2864374 117.9394595  95.7977708  61.1632898 110.3134567 109.0062554
  61.1309218 109.3750567 109.1922238  61.7733522 110.3918603 108.2728379
  53.0016229 109.1830620  95.0489758  53.9475334 109.0536828  95.1178176
  52.6230474 108.4445281  95.5259186  61.3127387 107.1045610 109.0520837
  60.7966435 106.3204067 108.8650766  62.1967335 106.7764327 109.2167357
  58.9738114 100.8486626 105.0116650  58.7762935 100.5401714 105.8959982
  59.5837819 101.5748264 105.1414580  66.9809448 111.3750573 108.1468591
  67.7112837 111.1135862 108.7076294  66.3716394 110.6379295 108.1870659
  65.0624745 109.5158436 108.7443042  64.3357909 109.3814401 108.1359534
  64.6472032 109.8235265 109.5499760  52.8854922 113.2348366 116.5090415
  53.8057931 113.4126965 116.7030462  52.8504505 112.2904411 116.3570114
  51.1859146 107.1080596  94.9844643  50.2790602 106.8113709  95.0607357
  51.4635127 106.8110414  94.1178930  42.1037087 108.4286959 105.4343690
  41.7839871 107.5752268 105.1418064  41.5570515 108.6435537 106.1901657
  45.8816994 111.1449400 109.1513196  46.1003004 112.0766508 109.1701230
  46.2942768 110.7857375 109.9368000  52.8021212 101.6517486 101.1388885
  51.9921940 101.3064571 101.5144131  53.4905629 101.3425029 101.7276496
  54.7311760 100.7295532 102.7613181  55.2842799 101.1490986 103.4203204
  54.9681847  99.8031281 102.8036137  50.7544860 106.7182606 118.5415945
  50.6541586 107.6676963 118.4728036  50.5366402 106.3900845 117.6692015
  49.9557931 103.9667531  95.1256623  50.8177095 104.2922429  95.3852440
  50.1408275 103.1799027  94.6129688  41.9725347 112.0489871 107.4036811
  41.2788818 111.6343824 106.8906766  42.7198338 112.0910407 106.8070230
  58.1090567 102.8396058 102.2691846  57.5289236 103.4980862 101.8869898
  57.8426500 102.0173402 101.8579263  56.5594134 102.2401115 104.4713166
  57.0593912 102.3517650 103.6627485  57.2029742 101.9362168 105.1113974
  50.6176130 110.1479745 117.3581007  50.1343211 110.9480105 117.5644896
  50.7037069 110.1587690 116.4048451  43.8862089 111.9808125 105.2802826
  43.8632777 112.0795812 104.3284709  44.1962726 112.8273275 105.6019992
  46.5449467 114.0384280 109.3949441  47.4992721 114.0068222 109.3279372
  46.3461991 113.5774903 110.2099667  47.1348849 112.6085396 111.9620238
  47.9541738 113.1029474 111.9855076  47.4085657 111.6917364 111.9337806
  56.8915445 104.9996148 101.3248194  56.0041300 105.2845799 101.1068389
  57.3069435 104.8389911 100.4775471  60.2429982 105.0242669 105.0402533
  61.0190372 105.5139121 105.3127150  59.5178116 105.4500723 105.4974403
  62.6802540 105.7370288 106.0976474  63.2747031 105.4966024 105.3869782
  62.7529124 105.0177419 106.7250010  44.8999696 119.5803899 106.4119639
  44.7654164 118.8204300 105.8457637  44.4831758 120.3044799 105.9448427
  56.0358659 114.7640823  95.4196214  56.7394509 114.9690825  96.0353869
  55.3121308 115.3317585  95.6845297  56.8656469 110.5150684 101.5398484
  56.8091671 110.9719235 100.7006116  57.4184812 109.7541369 101.3621327
  60.6761275 106.3040416 102.3648604  60.4198209 105.9037051 103.1956811
  60.0514143 107.0184210 102.2398743  64.9873613 109.0436489 104.8719895
  64.4273171 109.1129678 105.6451457  64.3817116 108.8677474 104.1519391
  48.0568822 120.4773216 106.6238081  47.9401206 121.4218649 106.5216771
  47.2361268 120.1746778 107.0123880  57.9445356 115.2023352  97.4694674
  58.7790960 114.7704550  97.2872149  57.7829699 115.0305366  98.3971568
  57.5991249 111.7055465  98.8351013  57.5440052 111.5399737  97.8939457
  56.9737304 112.4131498  98.9913203  42.3883764 106.9423530 112.6612435
  43.0342627 106.4322484 113.1499661  42.1800915 107.6792211 113.2355861
  54.9137156 114.0104377 118.1604576  55.7828315 114.1845029 117.7991211
  54.4343907 114.8298794 118.0380305  50.9087374 101.2063574  98.4136332
  50.8966044 102.1505414  98.5704602  51.8010796 101.0233720  98.1195793
  49.0823336 121.1301478 109.8394010  49.9850583 121.1625088 110.1560505
  48.8560706 120.2001929 109.8540345  50.8376938 119.8832465 106.5004088
  49.8872569 119.8834326 106.3868461  51.1409424 119.1365199 105.9840123
  54.7239493  97.8006351 102.6682268  53.9571889  97.2464838 102.8138951
  55.1350198  97.8728220 103.5296420  46.7281255 104.0891147 116.7587450
  47.5912716 103.7327951 116.9690774  46.1546665 103.7505041 117.4462854
  66.5729631 125.7193003 107.5649851  67.2108041 125.5999750 106.8613191
  66.4550474 126.6673847 107.6237803  63.3819338 125.6720431 107.5011375
  63.0437849 125.5561496 106.6131910  64.2509106 125.2711596 107.4812382
  59.2406153 127.5255908 103.4908266  58.6771019 127.4345844 102.7224554
  59.1258548 126.7055812 103.9710759  63.8639121 126.8255283 113.4597581
  63.8527761 126.4308081 112.5878085  64.0259760 126.0921355 114.0531352
  56.7870585 129.0207099 106.3292487  57.5791877 128.6797924 105.9138786
  57.0267236 129.1302074 107.2494640  64.8205712 131.1926875  98.8022731
  64.1693692 131.7780956  98.4156745  65.6150075 131.7233070  98.8617769
  58.7461339 128.2816012  99.2009866  59.5192215 127.7344999  99.0622741
  59.0986738 129.1460262  99.4124327  60.5846382 129.6092395 112.4076765
  60.2936248 130.5138025 112.2923431  61.2203366 129.6508922 113.1220834
  61.5102589 126.9869243 108.9978125  62.1066161 126.7625266 108.2835087
  61.5677560 126.2453989 109.6003572  61.0827617 124.4408678  96.8328315
  61.3353138 123.9190200  96.0711778  60.1452176 124.2774824  96.9354999
  66.1270900 123.4444457 104.6403059  66.9133989 123.0263880 104.2893476
  66.3909604 124.3490549 104.8084707  66.2980977 128.8817307  99.3391716
  65.6626810 128.9551934 100.0512620  65.9678384 129.4710906  98.6610795
  71.5279327 123.3819690 105.5436037  72.2604499 122.8118907 105.7773867
  70.7718683 122.9941290 105.9842543  60.8023906 126.3436784  99.0352690
  60.6860164 125.6681688  99.7033775  60.9126166 125.8569158  98.2184843
  63.1455447 125.8046932 102.7399380  62.7813654 125.2777553 103.4512301
  64.0022563 125.4145401 102.5665865  69.0504747 117.0941264 110.0030646
  68.7188072 117.9636675 109.7791861  68.4550361 116.7777548 110.6824676
  62.7860934 120.8336831  97.7360728  62.9535336 121.7017068  98.1031199
  62.5958103 120.9964113  96.8122017  65.5436267 129.2953810 109.4026559
  65.2436990 130.1978849 109.2942366  65.1987326 129.0285993 110.2547711
  58.9948748 125.7467607 105.4363263  58.0699245 125.6143821 105.6440955
  59.2433162 126.5261826 105.9333205  68.9433411 121.8136350 107.0823996
  68.0350288 121.7451759 106.7882757  68.8921007 122.2908295 107.9105821
  62.7650155 123.2894489  98.7207395  62.6449780 123.7351539  99.5592875
  62.0702743 123.6379806  98.1620933  56.3557559 125.3900881 106.2707052
  56.4849941 125.6435359 107.1846464  55.6755011 125.9828589 105.9511707
  60.5257047 136.0598130 102.3697526  60.4481076 137.0105956 102.4486007
  59.9218690 135.7144003 103.0272453  63.0174276 123.2325996 115.0258893
  62.2407611 123.7919916 115.0161758  63.6564840 123.7182779 115.5473763
  70.8095057 120.0152789 108.8601870  70.1669437 120.3085322 108.2141664
  70.3049986 119.9005709 109.6655066  68.4635221 123.7615962  99.5487729
  69.3753077 123.9943349  99.3735427  67.9544868 124.3453006  98.9862808
  61.2720649 126.0411449 114.5876860  62.0135333 126.5796493 114.3111684
  60.5657634 126.6677738 114.7448412  66.7475988 128.1840590 113.1849022
  67.1559344 127.7423000 112.4403654  66.0253250 127.6093217 113.4383215
  63.1007058 123.1213196 110.5582579  63.9468254 123.5452610 110.7017228
  63.0405696 122.4646821 111.2521142  67.0704803 128.7441780 106.9401311
  66.4413666 128.9087494 106.2377378  66.6830465 129.1583390 107.7112275
  70.9494035 129.6796218 104.2945674  70.2645073 130.0595120 103.7442708
  71.0337884 130.2891545 105.0277622  66.2506504 120.7817565 112.2163752
  66.0067436 121.5359625 111.6798028  66.5266434 121.1602912 113.0510999
  68.2044967 127.3256177 110.8941018  68.4161862 127.9687937 110.2175399
  68.1574715 126.4918494 110.4262948  65.8071196 119.9373998 107.7977590
  64.9455675 120.2355251 108.0894328  65.8333630 120.1544397 106.8658623
  62.6232765 128.4816188 104.2051396  63.0871110 128.7603891 103.4156018
  62.3589563 127.5799633 104.0224486  59.5156846 128.0287670 107.1431159
  60.0858203 128.4574938 106.5048643  60.1064958 127.7470255 107.8415345
  61.5601651 124.6039341 101.0140961  62.2625694 125.0560384 101.4814887
  61.2282280 123.9623160 101.6420854  60.0082013 123.1951097 115.3892170
  59.3780673 123.8767378 115.6227567  59.9018100 123.0834179 114.4445308
  55.3026985 122.8622893 106.3158094  54.5126039 123.1180422 105.8398205
  55.7938232 123.6771231 106.4210135  69.3190795 130.2028133 109.0663375
  70.1408238 129.8008320 108.7846057  69.3153197 130.0996367 110.0179491
  57.2541730 123.2267473 103.2741571  56.4572894 123.3386167 103.7925067
  57.0267323 123.5654125 102.4082462  63.0847398 129.7512176 111.2224086
  63.1491831 130.2132583 112.0582258  62.3758322 129.1209541 111.3506396
  53.5864688 123.1153384 108.7473085  53.8372726 124.0000394 109.0130661
  54.1224236 122.9357985 107.9748177  77.4096788 126.5466881 105.4148347
  76.6560496 125.9774279 105.2592351  77.5444329 126.5129546 106.3618981
  62.7995416 131.4180283 101.0903066  62.6641090 132.2631819 101.5187914
  63.3405228 131.6199561 100.3269000  59.2862755 117.4971863 117.7517421
  58.8929701 116.9438062 118.4265065  60.1028896 117.8082442 118.1423939
  56.2524813 128.9355721 101.6630991  56.7649334 129.7298972 101.8136556
  56.9047526 128.2382012 101.5964593  58.0619698 132.0521478 103.7453744
  58.2386326 132.9739442 103.5574728  58.8576531 131.7379897 104.1748124
  62.2030716 118.9129742 115.3437678  62.9440430 119.5136896 115.2642140
  62.4348639 118.1707380 114.7855720  57.3472054 124.0986110 113.6215907
  57.2325569 123.1971367 113.9223006  56.4916572 124.3449806 113.2700724
  64.4263892 132.0403850 115.2203408  63.9827746 131.2540229 114.9024313
  65.0881106 132.2283000 114.5547299  59.1851013 133.5699652 109.7464087
  59.7358438 133.4416715 108.9741081  58.3462489 133.8694541 109.3958979
  66.5245130 132.3206650 113.2484809  66.5063605 133.1415531 112.7565079
  67.4465050 132.1960725 113.4734951  62.9818184 129.8350779 114.0908318
  63.5146521 129.0739068 113.8607626  62.4532265 129.5424431 114.8332472
  66.1487879 114.9410845 109.6201959  65.8052149 115.8312487 109.5441070
  66.5166842 114.7512503 108.7571544  54.2173730 127.2644376 102.4390562
  55.0548952 127.6741384 102.2224269  54.3951998 126.3243818 102.4090755
  66.1138162 124.9319456  98.1274395  65.5984785 125.7024061  98.3662782
  65.8415470 124.2584593  98.7507456  63.6985273 119.7769157 103.1859633
  62.8426869 119.3876008 103.0065272  64.1112225 119.8561118 102.3259418
  65.2284420 117.3115500 107.5851193  64.7249215 117.2745636 106.7718998
  65.5215026 118.2208243 107.6447849  61.4727305 117.3954230 106.5917374
  62.3380302 117.1997039 106.2323264  61.5404814 117.1664582 107.5186731
  71.0872436 127.6851811 100.0627568  70.3101879 127.3462971  99.6182730
  71.7663917 127.6904434  99.3882533  65.9024465 122.8046549  99.9534176
  65.5974601 123.1192698 100.8044319  66.8554907 122.8827968  99.9961509
  64.3470897 128.9636772 101.6027130  63.8192259 128.2289531 101.2900367
  63.8458400 129.7411448 101.3567098  69.3263743 127.1585792 106.7194176
  68.6687417 127.8485054 106.8074305  70.1304142 127.5482224 107.0628162
  59.0789625 119.6256438 103.9633741  59.6533376 119.4031620 103.2306934
  59.6660607 119.6945133 104.7162343  68.1369202 125.5130165 104.7698118
  68.6501084 126.1460157 105.2719828  68.7870426 124.9131361 104.4041478
  59.4059212 121.6560899  97.9829627  58.5696524 121.9935586  98.3038901
  59.2663981 121.5209879  97.0456763  61.3812292 116.4997687 102.6908811
  60.7276705 116.1846704 102.0665425  61.3392766 115.8773427 103.4168634
  62.4923497 126.7816982  94.6062103  61.5850559 126.5506236  94.8053252
  62.9894529 125.9854601  94.7936084  65.3991576 135.4914489  97.5258789
  64.7253275 135.7946186  98.1343747  65.7857398 136.2943570  97.1764246
  64.6150033 122.9879621 107.0156458  63.6972594 123.2094568 106.8578146
  65.0310176 123.0625931 106.1568166  65.3985080 124.3871036 102.1459139
  66.1456899 124.8992433 101.8366261  65.6676670 124.0655089 103.0063532
  63.6711731 126.8829577  99.1286093  62.7622950 126.5988610  99.2258563
  63.7006814 127.3028656  98.2689400  68.9030998 130.4936166 102.8977260
  68.4493325 129.6527076 102.9542451  68.2724965 131.1297565 103.2352041
  67.8463918 121.4228153 104.1277928  67.1086674 120.9105539 104.4588170
  68.0990691 120.9828534 103.3161205  67.3463937 132.3312663 103.8327079
  67.6386912 132.8917720 103.1139444  67.8562558 132.6241224 104.5880238
  67.9475545 114.2004405 104.7219697  68.2534422 113.3401768 104.4345612
  68.6728150 114.7922025 104.5218691  54.2399901 124.6035091 103.1101295
  54.0424301 124.0104452 102.3852362  53.6846565 124.2987301 103.8277234
  62.2196625 124.4958198 105.2295888  62.2745234 123.5432034 105.1538365
  61.4087827 124.6517637 105.7137187  63.3687818 128.4238321  96.4674171
  62.9307248 127.7074180  96.0079809  64.1098259 128.6514435  95.9059263
  60.1588985 123.1135257 102.9886267  59.3456850 123.4129428 103.3951459
  60.6547979 122.7190946 103.7060749  62.3097562 133.1093014 104.9220532
  62.2673741 133.3353861 103.9929064  63.2260261 132.8756389 105.0706333
  65.7563196 123.5777082 111.8201161  66.1112584 123.8048555 112.6795627
  66.4035327 123.9095459 111.1978416  71.4860933 126.6995518 102.5250490
  71.3478832 126.8897114 101.5971679  71.1297152 127.4614900 102.9818541
  59.6503059 120.6853613 108.6047502  60.2902439 120.5442372 107.9070465
  58.8180590 120.3988126 108.2286104  71.5130313 128.7672045 107.5361762
  71.9466819 128.6747334 108.3844816  72.2261893 128.7429545 106.8981777
  60.4263363 129.9856043 104.7182494  61.2203962 129.4906363 104.5165069
  59.7155056 129.4573906 104.3550200  65.2458208 132.3674139 109.0694862
  65.2995230 132.9365075 109.8372578  64.3772989 132.5376024 108.7048899
  56.7346127 124.1299125 100.7942247  55.8043715 124.0683580 101.0112209
  56.8303599 123.6075078  99.9978888  56.6531676 120.6553938 103.3820489
  56.9138493 121.5699271 103.2729649  57.4748848 120.1878380 103.5317102
  58.1256601 122.0691695 110.5519313  58.7979654 121.8609057 109.9031962
  57.2986388 121.8713781 110.1124546  72.3745862 128.8095745 110.0694647
  72.5681752 129.7141556 110.3153922  72.2746480 128.3503164 110.9033232
  64.0282173 118.6953636 112.5684974  63.3810088 119.3943586 112.4749451
  64.7983188 119.1289780 112.9361222  67.4360971 128.9602488 115.6435528
  67.2846477 128.7313040 114.7265611  67.4265650 129.9173090 115.6566873
  64.2046307 126.5334401 110.6281794  65.1338367 126.6845560 110.4550761
  63.7837337 126.6218422 109.7730440  63.0034639 130.5585065 108.3980332
  62.8645725 130.1903850 109.2706270  62.2149235 131.0732705 108.2264289
  63.5982791 135.6594162  99.7405868  63.7734547 135.1882205 100.5551491
  62.9115579 136.2859928  99.9687129  64.5539854 129.9366668 105.7869169
  64.2189687 129.8967438 106.6826819  64.0543800 129.2711384 105.3139580
  58.5284098 125.3434298 111.3121751  58.3903896 124.6114537 111.9133290
  59.4389022 125.2543198 111.0305938  67.4899046 127.2822702  96.0606229
  66.8728217 126.5569530  95.9639282  67.0215534 128.0432063  95.7173303
  61.1566399 125.0554257 110.8005430  61.8666017 124.4147449 110.7592049
  61.1135707 125.3067152 111.7231611  69.1453178 131.9921611 113.7212009
  69.0865724 131.3080831 113.0542592  69.5472696 132.7340601 113.2692635
  59.8695333 122.0419475 112.6201070  59.3332690 121.5910214 113.2722666
  59.2812041 122.1765384 111.8771534  58.1643876 138.8083524 106.5145728
  58.4040475 139.4402049 107.1924747  57.3213073 138.4571564 106.8011088
  59.2797592 121.5008127  95.1827533  58.4027058 121.3796927  94.8189780
  59.7555345 120.7094205  94.9306422  69.1470585 129.9561195 111.9525989
  68.2597364 129.6187116 112.0752388  69.7169136 129.2244226 112.1894754
  50.7999732 126.2885286 105.2769040  51.4870772 125.9747016 104.6890056
  50.6447861 127.1926651 105.0036292  55.6034454 121.1775483 109.7054064
  55.5192643 120.5701152 108.9704474  54.7817161 121.6684501 109.7063560
  62.6771738 134.6162647 108.9187232  62.6041910 135.4217618 109.4306537
  62.2349131 134.8154613 108.0935254  62.4661518 133.8534417 102.4290054
  61.6829040 134.3956097 102.5228278  63.1654263 134.3708397 102.8284295
  65.7758168 119.6629046 105.0724259  66.2726868 118.9099009 104.7525329
  65.0045150 119.6993363 104.5067469  73.6287925 125.3669412 106.7142551
  73.6177802 126.2494127 106.3436484  72.7605305 125.0140963 106.5197088
  65.1370422 134.5149481 111.0745391  65.8498394 135.1496946 111.0021292
  64.6460450 134.6113347 110.2585393  66.8587949 128.4200734 102.6462683
  65.9244227 128.5402196 102.4767387  67.0364617 127.5173200 102.3822692
  62.3593137 121.8046429 104.7995944  61.9890924 121.2517470 105.4876849
  62.8552229 121.2004563 104.2470944  70.2460500 124.2618053 103.1812717
  70.7120952 125.0946045 103.1073019  70.6968001 123.7963034 103.8857975
  60.1882335 132.2643924 111.8950962  60.8891795 132.8980407 112.0480356
  59.7177450 132.6058656 111.1346601  68.3136731 130.6061874 100.1798869
  68.5896575 130.4918469 101.0892743  67.4441230 130.2079359 100.1411042
  68.2177163 116.6298640 107.2203618  67.3040243 116.8602867 107.3885825
  68.6470264 116.7137084 108.0717650  67.9883621 124.8188532 109.7203512
  67.3355072 125.0664439 109.0655965  68.3664001 124.0052670 109.3865989
  64.9490795 134.8548225 103.8231682  65.1313190 134.0369881 104.2859435
  65.7723781 135.0715917 103.3856572  65.2832961 133.7816410 101.0846731
  65.8120727 133.2708865 100.4716893  65.5461180 133.4658940 101.9492264
  64.0371194 125.5608343 116.2069549  63.3611831 125.4602472 116.8771924
  64.8598828 125.4047557 116.6705546  55.7850053 131.7980279 108.8282064
  56.3703490 131.0523967 108.9609969  55.5874892 132.1084236 109.7118728
  58.6388709 134.8331527 103.8444507  57.9699084 135.3177654 103.3608547
  58.5001578 135.0800747 104.7587885  50.3767708 124.3685880 107.5486508
  50.4151808 123.8349470 108.3423626  49.8708001 123.8421085 106.9297485
  62.7793977 136.8675270 110.4427165  63.3312285 137.0306892 111.2076250
  63.1200171 137.4579708 109.7707190  57.7558470 119.2150420 111.0449050
  57.8199797 120.0765251 110.6326448  57.6925591 118.6024422 110.3121408
  57.2310743 121.2873553 114.6922084  57.8582782 120.9050630 115.3059608
  56.3738662 121.0687755 115.0577777  67.6304852 131.6936528 116.2975820
  68.1744756 132.3066486 115.8030774  67.0491696 132.2516106 116.8142833
  54.0076286 123.0949982 100.6240439  54.3029727 122.1860660 100.5707493
  53.1064321 123.0737721 100.3021441  65.9162365 134.8157246 107.4290847
  65.7913504 134.0146986 106.9201793  66.5741456 135.3103439 106.9404817
  57.5370533 121.1705978 106.6067988  56.8157118 121.7841946 106.4675461
  58.3263789 121.7063743 106.5284633  67.9797273 132.6166266 109.0570397
  67.0327608 132.4971617 108.9848724  68.3280046 131.7288764 109.1396659
  60.3396846 118.5060405 112.8808639  60.8631248 118.7522701 113.6434949
  60.1209180 119.3380440 112.4611777  55.7364127 120.7764079 100.7479764
  55.4076833 119.8961458 100.5654870  56.0903498 120.7211748 101.6356153
  64.9843706 132.4118982 105.2574750  64.8368669 131.4835690 105.4382320
  65.8097200 132.4339073 104.7731825  58.8505950 121.0637049 101.1155242
  59.1902023 121.5922971 100.3933850  59.2978071 121.4017455 101.8913808
  68.5877828 133.2347541 106.3439622  69.5124376 133.0290402 106.2064074
  68.4193131 132.9863942 107.2528964  61.5449391 119.4474100 110.5658310
  61.2046212 118.6481913 110.9678990  60.8388398 119.7475811 109.9935143
  62.1965863 116.5323412 109.0185633  63.0191932 116.0583891 108.8964523
  62.4403927 117.3113896 109.5184319  60.8374098 119.5611671  99.3148535
  61.5582460 119.9392924  98.8112251  60.2139402 120.2800548  99.4183512
  64.9805221 120.2656820 100.2506867  65.1968835 121.1481458  99.9495695
  64.4999288 119.8743033  99.5212509  59.7204442 123.2242533 106.8277611
  59.5749023 123.5382836 107.7201893  59.2429646 123.8427433 106.2748510
  61.5800825 120.2145081 106.8758501  61.5662394 119.3186174 106.5390799
  62.2973253 120.2215745 107.5096787  63.4326955 120.6482421 108.9211628
  63.1744733 121.5699492 108.9195959  62.9011996 120.2512856 109.6112093
  68.3773144 133.7533208 101.7001714  68.5510022 133.1879631 100.9475566
  68.8702035 134.5534103 101.5181204  54.1950104 125.7647877 109.7665273
  53.6503572 126.5407685 109.8985547  55.0729454 126.1118682 109.6084394
  60.9837721 119.0959461 102.1446071  61.1053632 118.1676108 102.3436959
  60.6939763 119.1098147 101.2324387  63.8528911 116.7814372 105.2812791
  63.8750608 116.8453705 104.3264771  64.2696970 115.9418880 105.4753297
  74.2312535 126.5169631 103.3192014  74.6743681 125.7676957 102.9211137
  73.3539046 126.5079768 102.9365746  69.3648317 133.0699973  98.7998612
  70.0599221 133.6906665  99.0185927  69.7071467 132.2195324  99.0750990
  54.9816126 124.8917774 112.6595430  54.2397862 125.0400409 113.2460060
  54.6608870 125.1526039 111.7962179  71.2639740 130.5199678 100.3285943
  71.7891064 130.8586951  99.6035263  71.1762092 129.5846694 100.1449078
  62.9259789 134.4333752 112.4575820  63.2346915 134.1882899 113.3298519
  63.7235271 134.6380390 111.9694690  62.9480401 136.5871662 104.6881196
  62.5085391 136.0948040 105.3814053  63.6988518 136.0444629 104.4473271
  55.4272740 132.7783202 104.6905824  56.2530759 132.4786974 104.3104468
  55.0766792 132.0090825 105.1395613  60.3954273 132.1309671 106.7603498
  59.7734282 131.4680376 106.4605726  61.0659140 132.1570803 106.0777146
  53.6281345 130.6969529 105.6494758  52.7913253 130.2691703 105.4678759
  53.6004990 130.8901972 106.5865549  60.4678800 120.6091459 116.3536004
  60.5166956 121.4853582 115.9713773  61.0101314 120.0668852 115.7807647
  70.9533646 131.1532582 115.6337141  70.1629190 131.1356721 115.0941640
  70.7167000 131.6920876 116.3886177  71.0731521 128.0025048 112.9469869
  71.1229526 127.8375056 113.8885392  70.9645444 127.1352307 112.5567750
  59.9567780 130.6813594 100.2361958  60.1055900 131.3649058  99.5828631
  60.7634223 130.6618684 100.7511414  68.3635283 123.9855976 114.2629176
  69.2645146 123.8462441 113.9713174  68.4383258 124.1510431 115.2027354
  62.6978089 121.3622831 113.1082362  61.8281398 121.6556397 112.8364951
  62.9337569 121.9463276 113.8289626  72.5749718 130.4221990 113.1911891
  72.2834526 130.7851970 114.0275352  71.9621849 129.7088998 113.0125223
  73.7745400 127.9874870 105.7114461  74.6092291 128.4264674 105.8752022
  73.9104529 127.5113523 104.8922707  70.8236906 125.5454604 111.6591949
  71.2991028 125.7382251 110.8510800  69.9002471 125.6013790 111.4135333
  57.7120413 126.7078772 101.2423027  57.4666455 125.8041102 101.4403237
  57.8816327 126.7095922 100.3002505  65.4017123 117.5802448 110.6247783
  65.9199066 118.3163475 110.2994271  65.0472255 117.8866441 111.4594542
  56.9816060 122.4407129  98.7409189  56.2885305 122.5151484  98.0849225
  56.7367812 121.6767473  99.2630706  65.6529717 114.0002731 106.1448679
  65.9331470 113.3325920 106.7709106  66.4380324 114.1931826 105.6323343
  63.4563185 133.1761724  97.7073706  62.8837152 133.7951912  97.2544178
  64.0295979 133.7261086  98.2413628  69.5238575 122.4220365 109.8920255
  70.4755998 122.5218462 109.9132479  69.3542025 121.6298633 110.4018339
  67.5452955 119.5075948 110.0779655  66.9502887 119.7880960 109.3826144
  67.2602651 119.9969849 110.8496397  66.6760445 133.4598875  98.8382288
  67.6091118 133.3944436  99.0415164  66.5883658 134.2955141  98.3796821
  69.3048462 132.7764745  95.7986236  69.2262093 132.4424609  96.6921993
  70.1258128 133.2686513  95.7977708  72.0026653 125.6426484 109.0062554
  71.9702973 124.7042485 109.1922238  72.6127276 125.7210521 108.2728379
  63.8409984 124.5122537  95.0489758  64.7869088 124.3828745  95.1178176
  63.4624229 123.7737199  95.5259186  72.1521141 122.4337528 109.0520837
  71.6360190 121.6495984 108.8650766  73.0361090 122.1056244 109.2167357
  69.8131868 116.1778543 105.0116650  69.6156689 115.8693631 105.8959982
  70.4231574 116.9040182 105.1414580  77.8203203 126.7042491 108.1468591
  78.5506591 126.4427779 108.7076294  77.2110148 125.9671213 108.1870659
  75.9018500 124.8450354 108.7443042  75.1751663 124.7106319 108.1359534
  75.4865787 125.1527182 109.5499760  63.7248676 128.5640283 116.5090415
  64.6451686 128.7418882 116.7030462  63.6898259 127.6196329 116.3570114
  62.0252901 122.4372514  94.9844643  61.1184356 122.1405626  95.0607357
  62.3028882 122.1402332  94.1178930  52.9430841 123.7578877 105.4343690
  52.6233626 122.9044185 105.1418064  52.3964269 123.9727455 106.1901657
  56.7210749 126.4741318 109.1513196  56.9396759 127.4058426 109.1701230
  57.1336523 126.1149292 109.9368000  63.6414967 116.9809403 101.1388885
  62.8315695 116.6356488 101.5144131  64.3299383 116.6716947 101.7276496
  65.5705515 116.0587450 102.7613181  66.1236553 116.4782904 103.4203204
  65.8075601 115.1323198 102.8036137  61.5938614 122.0474524 118.5415945
  61.4935341 122.9968881 118.4728036  61.3760156 121.7192763 117.6692015
  60.7951685 119.2959449  95.1256623  61.6570849 119.6214347  95.3852440
  60.9802030 118.5090945  94.6129688  52.8119101 127.3781789 107.4036811
  52.1182573 126.9635741 106.8906766  53.5592092 127.4202325 106.8070230
  68.9484322 118.1687975 102.2691846  68.3682991 118.8272779 101.8869898
  68.6820255 117.3465320 101.8579263  67.3987888 117.5693033 104.4713166
  67.8987667 117.6809568 103.6627485  68.0423496 117.2654086 105.1113974
  61.4569884 125.4771663 117.3581007  60.9736966 126.2772023 117.5644896
  61.5430823 125.4879607 116.4048451  54.7255844 127.3100042 105.2802826
  54.7026532 127.4087730 104.3284709  55.0356480 128.1565193 105.6019992
  57.3843222 129.3676197 109.3949441  58.3386475 129.3360140 109.3279372
  57.1855745 128.9066821 110.2099667  57.9742604 127.9377313 111.9620238
  58.7935493 128.4321392 111.9855076  58.2479411 127.0209282 111.9337806
  67.7309200 120.3288066 101.3248194  66.8435055 120.6137716 101.1068389
  68.1463189 120.1681829 100.4775471  71.0823736 120.3534587 105.0402533
  71.8584126 120.8431039 105.3127150  70.3571870 120.7792641 105.4974403
  73.5196295 121.0662206 106.0976474  74.1140786 120.8257942 105.3869782
  73.5922878 120.3469336 106.7250010  55.7393450 134.9095817 106.4119639
  55.6047918 134.1496218 105.8457637  55.3225513 135.6336717 105.9448427
  66.8752413 130.0932740  95.4196214  67.5788264 130.2982743  96.0353869
  66.1515062 130.6609502  95.6845297  67.7050224 125.8442602 101.5398484
  67.6485425 126.3011153 100.7006116  68.2578566 125.0833286 101.3621327
  71.5155030 121.6332333 102.3648604  71.2591964 121.2328969 103.1956811
  70.8907898 122.3476127 102.2398743  75.8267367 124.3728407 104.8719895
  75.2666925 124.4421596 105.6451457  75.2210871 124.1969391 104.1519391
  58.8962576 135.8065134 106.6238081  58.7794960 136.7510566 106.5216771
  58.0755023 135.5038695 107.0123880  68.7839111 130.5315270  97.4694674
  69.6184715 130.0996468  97.2872149  68.6223454 130.3597283  98.3971568
  68.4385003 127.0347383  98.8351013  68.3833807 126.8691654  97.8939457
  67.8131058 127.7423416  98.9913203  53.2277518 122.2715447 112.6612435
  53.8736382 121.7614401 113.1499661  53.0194669 123.0084129 113.2355861
  65.7530910 129.3396295 118.1604576  66.6222070 129.5136947 117.7991211
  65.2737662 130.1590712 118.0380305  61.7481128 116.5355492  98.4136332
  61.7359798 117.4797332  98.5704602  62.6404550 116.3525637  98.1195793
  59.9217090 136.4593396 109.8394010  60.8244337 136.4917006 110.1560505
  59.6954460 135.5293847 109.8540345  61.6770692 135.2124382 106.5004088
  60.7266323 135.2126244 106.3868461  61.9803179 134.4657117 105.9840123
  65.5633248 113.1298268 102.6682268  64.7965644 112.5756755 102.8138951
  65.9743953 113.2020137 103.5296420  57.5675009 119.4183064 116.7587450
  58.4306471 119.0619869 116.9690774  56.9940420 119.0796959 117.4462854
  77.4123386 141.0484921 107.5649851  78.0501796 140.9291668 106.8613191
  77.2944229 141.9965765 107.6237803  74.2213092 141.0012349 107.5011375
  73.8831604 140.8853413 106.6131910  75.0902860 140.6003514 107.4812382
  70.0799908 142.8547825 103.4908266  69.5164773 142.7637762 102.7224554
  69.9652303 142.0347730 103.9710759  74.7032875 142.1547200 113.4597581
  74.6921516 141.7599999 112.5878085  74.8653515 141.4213273 114.0531352
  67.6264340 144.3499017 106.3292487  68.4185632 144.0089841 105.9138786
  67.8660990 144.4593992 107.2494640  75.6599467 146.5218793  98.8022731
  75.0087446 147.1072873  98.4156745  76.4543829 147.0524988  98.8617769
  69.5855094 143.6107930  99.2009866  70.3585970 143.0636917  99.0622741
  69.9380493 144.4752179  99.4124327  71.4240136 144.9384312 112.4076765
  71.1330002 145.8429943 112.2923431  72.0597121 144.9800840 113.1220834
  72.3496343 142.3161161 108.9978125  72.9459915 142.0917183 108.2835087
  72.4071315 141.5745906 109.6003572  71.9221372 139.7700596  96.8328315
  72.1746892 139.2482117  96.0711778  70.9845931 139.6066742  96.9354999
  76.9664654 138.7736375 104.6403059  77.7527744 138.3555798 104.2893476
  77.2303359 139.6782467 104.8084707  77.1374732 144.2109225  99.3391716
  76.5020565 144.2843851 100.0512620  76.8072138 144.8002824  98.6610795
  82.3673082 138.7111608 105.5436037  83.0998253 138.1410825 105.7773867
  81.6112437 138.3233208 105.9842543  71.6417660 141.6728702  99.0352690
  71.5253918 140.9973605  99.7033775  71.7519920 141.1861076  98.2184843
  73.9849201 141.1338849 102.7399380  73.6207408 140.6069470 103.4512301
  74.8416317 140.7437318 102.5665865  79.8898502 132.4233182 110.0030646
  79.5581827 133.2928593 109.7791861  79.2944115 132.1069466 110.6824676
  73.6254688 136.1628749  97.7360728  73.7929091 137.0308985  98.1031199
  73.4351857 136.3256031  96.8122017  76.3830021 144.6245728 109.4026559
  76.0830745 145.5270767 109.2942366  76.0381081 144.3577911 110.2547711
  69.8342503 141.0759525 105.4363263  68.9092999 140.9435739 105.6440955
  70.0826916 141.8553744 105.9333205  79.7827165 137.1428268 107.0823996
  78.8744043 137.0743676 106.7882757  79.7314761 137.6200213 107.9105821
  73.6043909 138.6186406  98.7207395  73.4843534 139.0643457  99.5592875
  72.9096497 138.9671724  98.1620933  67.1951314 140.7192798 106.2707052
  67.3243695 140.9727277 107.1846464  66.5148765 141.3120506 105.9511707
  71.3650801 151.3890048 102.3697526  71.2874831 152.3397873 102.4486007
  70.7612445 151.0435921 103.0272453  73.8568031 138.5617914 115.0258893
  73.0801365 139.1211834 115.0161758  74.4958594 139.0474697 115.5473763
  81.6488812 135.3444706 108.8601870  81.0063192 135.6377240 108.2141664
  81.1443740 135.2297627 109.6655066  79.3028975 139.0907880  99.5487729
  80.2146831 139.3235266  99.3735427  78.7938622 139.6744924  98.9862808
  72.1114403 141.3703367 114.5876860  72.8529088 141.9088411 114.3111684
  71.4051389 141.9969656 114.7448412  77.5869743 143.5132507 113.1849022
  77.9953099 143.0714918 112.4403654  76.8647004 142.9385135 113.4383215
  73.9400813 138.4505114 110.5582579  74.7862008 138.8744528 110.7017228
  73.8799451 137.7938738 111.2521142  77.9098558 144.0733698 106.9401311
  77.2807420 144.2379412 106.2377378  77.5224220 144.4875308 107.7112275
  81.7887789 145.0088136 104.2945674  81.1038828 145.3887037 103.7442708
  81.8731639 145.6183463 105.0277622  77.0900258 136.1109483 112.2163752
  76.8461190 136.8651543 111.6798028  77.3660189 136.4894830 113.0510999
  79.0438721 142.6548095 110.8941018  79.2555616 143.2979855 110.2175399
  78.9968469 141.8210411 110.4262948  76.6464950 135.2665916 107.7977590
  75.7849429 135.5647169 108.0894328  76.6727385 135.4836314 106.8658623
  73.4626519 143.8108106 104.2051396  73.9264865 144.0895809 103.4156018
  73.1983318 142.9091551 104.0224486  70.3550601 143.3579588 107.1431159
  70.9251958 143.7866856 106.5048643  70.9458712 143.0762172 107.8415345
  72.3995406 139.9331258 101.0140961  73.1019449 140.3852302 101.4814887
  72.0676034 139.2915077 101.6420854  70.8475767 138.5243015 115.3892170
  70.2174428 139.2059296 115.6227567  70.7411855 138.4126097 114.4445308
  66.1420739 138.1914811 106.3158094  65.3519793 138.4472340 105.8398205
  66.6331987 139.0063149 106.4210135  80.1584549 145.5320050 109.0663375
  80.9801993 145.1300238 108.7846057  80.1546952 145.4288284 110.0179491
  68.0935485 138.5559390 103.2741571  67.2966648 138.6678085 103.7925067
  67.8661077 138.8946043 102.4082462  73.9241152 145.0804094 111.2224086
  73.9885585 145.5424501 112.0582258  73.2152076 144.4501459 111.3506396
  64.4258442 138.4445302 108.7473085  64.6766481 139.3292312 109.0130661
  64.9617991 138.2649903 107.9748177  88.2490542 141.8758799 105.4148347
  87.4954250 141.3066197 105.2592351  88.3838083 141.8421463 106.3618981
  73.6389170 146.7472201 101.0903066  73.5034845 147.5923737 101.5187914
  74.1798983 146.9491479 100.3269000  70.1256510 132.8263781 117.7517421
  69.7323455 132.2729980 118.4265065  70.9422650 133.1374359 118.1423939
  67.0918568 144.2647639 101.6630991  67.6043088 145.0590889 101.8136556
  67.7441280 143.5673930 101.5964593  68.9013452 147.3813395 103.7453744
  69.0780081 148.3031360 103.5574728  69.6970286 147.0671815 104.1748124
  73.0424471 134.2421660 115.3437678  73.7834184 134.8428813 115.2642140
  73.2742394 133.4999298 114.7855720  68.1865809 139.4278027 113.6215907
  68.0719324 138.5263285 113.9223006  67.3310327 139.6741724 113.2700724
  75.2657647 147.3695768 115.2203408  74.8221501 146.5832146 114.9024313
  75.9274860 147.5574918 114.5547299  70.0244768 148.8991569 109.7464087
  70.5752193 148.7708633 108.9741081  69.1856244 149.1986458 109.3958979
  77.3638885 147.6498568 113.2484809  77.3457360 148.4707449 112.7565079
  78.2858805 147.5252643 113.4734951  73.8211939 145.1642697 114.0908318
  74.3540276 144.4030985 113.8607626  73.2926020 144.8716349 114.8332472
  76.9881634 130.2702763 109.6201959  76.6445903 131.1604405 109.5441070
  77.3560596 130.0804421 108.7571544  65.0567484 142.5936293 102.4390562
  65.8942706 143.0033302 102.2224269  65.2345752 141.6535736 102.4090755
  76.9531916 140.2611374  98.1274395  76.4378540 141.0315979  98.3662782
  76.6809225 139.5876510  98.7507456  74.5379027 135.1061075 103.1859633
  73.6820624 134.7167925 103.0065272  74.9505979 135.1853036 102.3259418
  76.0678174 132.6407418 107.5851193  75.5642970 132.6037553 106.7718998
  76.3608781 133.5500161 107.6447849  72.3121060 132.7246148 106.5917374
  73.1774057 132.5288957 106.2323264  72.3798569 132.4956500 107.5186731
  81.9266191 143.0143729 100.0627568  81.1495633 142.6754888  99.6182730
  82.6057672 143.0196352  99.3882533  76.7418220 138.1338466  99.9534176
  76.4368355 138.4484615 100.8044319  77.6948662 138.2119886  99.9961509
  75.1864651 144.2928690 101.6027130  74.6586013 143.5581449 101.2900367
  74.6852154 145.0703366 101.3567098  80.1657497 142.4877710 106.7194176
  79.5081172 143.1776971 106.8074305  80.9697897 142.8774142 107.0628162
  69.9183379 134.9548356 103.9633741  70.4927131 134.7323537 103.2306934
  70.5054361 135.0237050 104.7162343  78.9762956 140.8422083 104.7698118
  79.4894838 141.4752075 105.2719828  79.6264180 140.2423278 104.4041478
  70.2452966 136.9852817  97.9829627  69.4090278 137.3227503  98.3038901
  70.1057736 136.8501797  97.0456763  72.2206047 131.8289605 102.6908811
  71.5670459 131.5138622 102.0665425  72.1786521 131.2065345 103.4168634
  73.3317252 142.1108900  94.6062103  72.4244313 141.8798153  94.8053252
  73.8288284 141.3146519  94.7936084  76.2385331 150.8206407  97.5258789
  75.5647029 151.1238104  98.1343747  76.6251152 151.6235487  97.1764246
  75.4543787 138.3171538 107.0156458  74.5366348 138.5386485 106.8578146
  75.8703931 138.3917849 106.1568166  76.2378835 139.7162954 102.1459139
  76.9850654 140.2284351 101.8366261  76.5070424 139.3947007 103.0063532
  74.5105485 142.2121495  99.1286093  73.6016704 141.9280527  99.2258563
  74.5400569 142.6320573  98.2689400  79.7424752 145.8228084 102.8977260
  79.2887080 144.9818994 102.9542451  79.1118719 146.4589483 103.2352041
  78.6857672 136.7520070 104.1277928  77.9480429 136.2397456 104.4588170
  78.9384446 136.3120452 103.3161205  78.1857692 147.6604581 103.8327079
  78.4780666 148.2209638 103.1139444  78.6956312 147.9533142 104.5880238
  78.7869299 129.5296322 104.7219697  79.0928176 128.6693686 104.4345612
  79.5121904 130.1213942 104.5218691  65.0793655 139.9327009 103.1101295
  64.8818055 139.3396369 102.3852362  64.5240319 139.6279219 103.8277234
  73.0590379 139.8250115 105.2295888  73.1138989 138.8723952 105.1538365
  72.2481581 139.9809554 105.7137187  74.2081573 143.7530238  96.4674171
  73.7701003 143.0366097  96.0079809  74.9492014 143.9806353  95.9059263
  70.9982739 138.4427175 102.9886267  70.1850605 138.7421346 103.3951459
  71.4941733 138.0482864 103.7060749  73.1491317 148.4384932 104.9220532
  73.1067496 148.6645778 103.9929064  74.0654016 148.2048307 105.0706333
  76.5956951 138.9068999 111.8201161  76.9506338 139.1340473 112.6795627
  77.2429082 139.2387376 111.1978416  82.3254688 142.0287435 102.5250490
  82.1872586 142.2189031 101.5971679  81.9690906 142.7906818 102.9818541
  70.4896814 136.0145531 108.6047502  71.1296193 135.8734290 107.9070465
  69.6574344 135.7280044 108.2286104  82.3524067 144.0963962 107.5361762
  82.7860574 144.0039251 108.3844816  83.0655648 144.0721463 106.8981777
  71.2657118 145.3147961 104.7182494  72.0597716 144.8198281 104.5165069
  70.5548810 144.7865824 104.3550200  76.0851962 147.6966056 109.0694862
  76.1388984 148.2656993 109.8372578  75.2166744 147.8667942 108.7048899
  67.5739881 139.4591043 100.7942247  66.6437469 139.3975498 101.0112209
  67.6697353 138.9366995  99.9978888  67.4925430 135.9845856 103.3820489
  67.7532248 136.8991189 103.2729649  68.3142603 135.5170298 103.5317102
  68.9650356 137.3983613 110.5519313  69.6373409 137.1900975 109.9031962
  68.1380142 137.2005699 110.1124546  83.2139617 144.1387663 110.0694647
  83.4075507 145.0433474 110.3153922  83.1140235 143.6795082 110.9033232
  74.8675928 134.0245554 112.5684974  74.2203843 134.7235503 112.4749451
  75.6376943 134.4581698 112.9361222  78.2754725 144.2894406 115.6435528
  78.1240232 144.0604957 114.7265611  78.2659405 145.2465007 115.6566873
  75.0440062 141.8626319 110.6281794  75.9732122 142.0137478 110.4550761
  74.6231092 141.9510339 109.7730440  73.8428394 145.8876983 108.3980332
  73.7039479 145.5195767 109.2706270  73.0542990 146.4024622 108.2264289
  74.4376546 150.9886079  99.7405868  74.6128301 150.5174123 100.5551491
  73.7509334 151.6151846  99.9687129  75.3933609 145.2658586 105.7869169
  75.0583441 145.2259356 106.6826819  74.8937555 144.6003302 105.3139580
  69.3677853 140.6726216 111.3121751  69.2297651 139.9406454 111.9133290
  70.2782776 140.5835116 111.0305938  78.3292800 142.6114620  96.0606229
  77.7121971 141.8861448  95.9639282  77.8609289 143.3723980  95.7173303
  71.9960153 140.3846175 110.8005430  72.7059772 139.7439367 110.7592049
  71.9529462 140.6359070 111.7231611  79.9846932 147.3213528 113.7212009
  79.9259478 146.6372748 113.0542592  80.3866451 148.0632518 113.2692635
  70.7089087 137.3711393 112.6201070  70.1726444 136.9202131 113.2722666
  70.1205796 137.5057302 111.8771534  69.0037631 154.1375442 106.5145728
  69.2434229 154.7693966 107.1924747  68.1606827 153.7863482 106.8011088
  70.1191346 136.8300044  95.1827533  69.2420813 136.7088845  94.8189780
  70.5949099 136.0386123  94.9306422  79.9864339 145.2853112 111.9525989
  79.0991118 144.9479034 112.0752388  80.5562890 144.5536143 112.1894754
  61.6393487 141.6177204 105.2769040  62.3264526 141.3038934 104.6890056
  61.4841615 142.5218569 105.0036292  66.4428209 136.5067401 109.7054064
  66.3586397 135.8993070 108.9704474  65.6210915 136.9976419 109.7063560
  73.5165493 149.9454565 108.9187232  73.4435664 150.7509536 109.4306537
  73.0742886 150.1446530 108.0935254  73.3055272 149.1826335 102.4290054
  72.5222794 149.7248015 102.5228278  74.0048018 149.7000314 102.8284295
  76.6151923 134.9920964 105.0724259  77.1120622 134.2390926 104.7525329
  75.8438904 135.0285281 104.5067469  84.4681680 140.6961330 106.7142551
  84.4571556 141.5786045 106.3436484  83.5999059 140.3432880 106.5197088
  75.9764176 149.8441399 111.0745391  76.6892149 150.4788863 111.0021292
  75.4854205 149.9405265 110.2585393  77.6981703 143.7492651 102.6462683
  76.7637982 143.8694114 102.4767387  77.8758372 142.8465118 102.3822692
  73.1986891 137.1338347 104.7995944  72.8284679 136.5809387 105.4876849
  73.6945984 136.5296481 104.2470944  81.0854255 139.5909971 103.1812717
  81.5514707 140.4237962 103.1073019  81.5361755 139.1254952 103.8857975
  71.0276090 147.5935842 111.8950962  71.7285549 148.2272325 112.0480356
  70.5571205 147.9350574 111.1346601  79.1530486 145.9353792 100.1798869
  79.4290330 145.8210386 101.0892743  78.2834984 145.5371277 100.1411042
  79.0570917 131.9590558 107.2203618  78.1433997 132.1894784 107.3885825
  79.4864019 132.0429002 108.0717650  78.8277376 140.1480450 109.7203512
  78.1748826 140.3956357 109.0655965  79.2057756 139.3344588 109.3865989
  75.7884550 150.1840143 103.8231682  75.9706944 149.3661799 104.2859435
  76.6117536 150.4007835 103.3856572  76.1226715 149.1108328 101.0846731
  76.6514482 148.6000782 100.4716893  76.3854935 148.7950858 101.9492264
  74.8764949 140.8900261 116.2069549  74.2005586 140.7894390 116.8771924
  75.6992583 140.7339474 116.6705546  66.6243808 147.1272197 108.8282064
  67.2097245 146.3815885 108.9609969  66.4268646 147.4376154 109.7118728
  69.4782463 150.1623445 103.8444507  68.8092838 150.6469572 103.3608547
  69.3395333 150.4092665 104.7587885  61.2161463 139.6977797 107.5486508
  61.2545562 139.1641388 108.3423626  60.7101755 139.1713003 106.9297485
  73.6187732 152.1967188 110.4427165  74.1706040 152.3598810 111.2076250
  73.9593925 152.7871626 109.7707190  68.5952225 134.5442338 111.0449050
  68.6593551 135.4057169 110.6326448  68.5319345 133.9316340 110.3121408
  68.0704497 136.6165470 114.6922084  68.6976536 136.2342548 115.3059608
  67.2132416 136.3979672 115.0577777  78.4698606 147.0228446 116.2975820
  79.0138510 147.6358404 115.8030774  77.8885451 147.5808024 116.8142833
  64.8470040 138.4241900 100.6240439  65.1423481 137.5152578 100.5707493
  63.9458076 138.4029639 100.3021441  76.7556119 150.1449164 107.4290847
  76.6307258 149.3438903 106.9201793  77.4135210 150.6395357 106.9404817
  68.3764287 136.4997896 106.6067988  67.6550873 137.1133864 106.4675461
  69.1657543 137.0355661 106.5284633  78.8191027 147.9458184 109.0570397
  77.8721363 147.8263535 108.9848724  79.1673800 147.0580682 109.1396659
  71.1790601 133.8352323 112.8808639  71.7025003 134.0814619 113.6434949
  70.9602934 134.6672357 112.4611777  66.5757882 136.1055997 100.7479764
  66.2470588 135.2253376 100.5654870  66.9297253 136.0503666 101.6356153
  75.8237461 147.7410900 105.2574750  75.6762423 146.8127607 105.4382320
  76.6490954 147.7630991 104.7731825  69.6899705 136.3928967 101.1155242
  70.0295777 136.9214888 100.3933850  70.1371825 136.7309373 101.8913808
  79.4271583 148.5639459 106.3439622  80.3518130 148.3582320 106.2064074
  79.2586886 148.3155860 107.2528964  72.3843146 134.7766018 110.5658310
  72.0439966 133.9773831 110.9678990  71.6782152 135.0767729 109.9935143
  73.0359618 131.8615330 109.0185633  73.8585687 131.3875808 108.8964523
  73.2797681 132.6405814 109.5184319  71.6767852 134.8903589  99.3148535
  72.3976215 135.2684841  98.8112251  71.0533156 135.6092465  99.4183512
  75.8198975 135.5948738 100.2506867  76.0362589 136.4773375  99.9495695
  75.3393042 135.2034951  99.5212509  70.5598196 138.5534451 106.8277611
  70.4142777 138.8674754 107.7201893  70.0823400 139.1719351 106.2748510
  72.4194579 135.5436999 106.8758501  72.4056148 134.6478092 106.5390799
  73.1367007 135.5507662 107.5096787  74.2720710 135.9774339 108.9211628
  74.0138488 136.8991410 108.9195959  73.7405750 135.5804773 109.6112093
  79.2166899 149.0825126 101.7001714  79.3903776 148.5171549 100.9475566
  79.7095790 149.8826021 101.5181204  65.0343859 141.0939795 109.7665273
  64.4897327 141.8699603 109.8985547  65.9123208 141.4410600 109.6084394
  71.8231475 134.4251379 102.1446071  71.9447386 133.4968025 102.3436959
  71.5333518 134.4390065 101.2324387  74.6922666 132.1106289 105.2812791
  74.7144362 132.1745623 104.3264771  75.1090725 131.2710798 105.4753297
  85.0706290 141.8461549 103.3192014  85.5137436 141.0968874 102.9211137
  84.1932800 141.8371685 102.9365746  80.2042071 148.3991890  98.7998612
  80.8992976 149.0198583  99.0185927  80.5465221 147.5487242  99.0750990
  65.8209880 140.2209691 112.6595430  65.0791616 140.3692327 113.2460060
  65.5002625 140.4817957 111.7962179  82.1033494 145.8491596 100.3285943
  82.6284818 146.1878869  99.6035263  82.0155847 144.9138611 100.1449078
  73.7653543 149.7625670 112.4575820  74.0740669 149.5174816 113.3298519
  74.5629025 149.9672308 111.9694690  73.7874155 151.9163579 104.6881196
  73.3479145 151.4239958 105.3814053  74.5382272 151.3736547 104.4473271
  66.2666494 148.1075120 104.6905824  67.0924514 147.8078892 104.3104468
  65.9160546 147.3382743 105.1395613  71.2348027 147.4601588 106.7603498
  70.6128037 146.7972293 106.4605726  71.9052894 147.4862720 106.0777146
  64.4675099 146.0261447 105.6494758  63.6307007 145.5983621 105.4678759
  64.4398745 146.2193890 106.5865549  71.3072555 135.9383376 116.3536004
  71.3560710 136.8145499 115.9713773  71.8495069 135.3960769 115.7807647
  81.7927400 146.4824500 115.6337141  81.0022944 146.4648638 115.0941640
  81.5560755 147.0212793 116.3886177  81.9125275 143.3316966 112.9469869
  81.9623280 143.1666973 113.8885392  81.8039199 142.4644225 112.5567750
  70.7961534 146.0105512 100.2361958  70.9449655 146.6940976  99.5828631
  71.6027978 145.9910602 100.7511414  79.2029038 139.3147894 114.2629176
  80.1038901 139.1754359 113.9713174  79.2777012 139.4802349 115.2027354
  73.5371843 136.6914749 113.1082362  72.6675153 136.9848315 112.8364951
  73.7731324 137.2755194 113.8289626  83.4143472 145.7513908 113.1911891
  83.1228281 146.1143888 114.0275352  82.8015604 145.0380916 113.0125223
  84.6139155 143.3166787 105.7114461  85.4486046 143.7556591 105.8752022
  84.7498283 142.8405441 104.8922707  81.6630661 140.8746522 111.6591949
  82.1384782 141.0674168 110.8510800  80.7396226 140.9305708 111.4135333
  68.5514167 142.0370689 101.2423027  68.3060209 141.1333019 101.4403237
  68.7210082 142.0387840 100.3002505  76.2410877 132.9094366 110.6247783
  76.7592821 133.6455393 110.2994271  75.8866010 133.2158359 111.4594542
  67.8209815 137.7699047  98.7409189  67.1279060 137.8443402  98.0849225
  67.5761567 137.0059391  99.2630706  76.4923471 129.3294648 106.1448679
  76.7725225 128.6617837 106.7709106  77.2774078 129.5223744 105.6323343
  74.2956940 148.5053642  97.7073706  73.7230907 149.1243829  97.2544178
  74.8689733 149.0553004  98.2413628  80.3632330 137.7512282 109.8920255
  81.3149752 137.8510380 109.9132479  80.1935780 136.9590551 110.4018339
  78.3846709 134.8367865 110.0779655  77.7896641 135.1172878 109.3826144
  78.0996406 135.3261766 110.8496397  77.5154199 148.7890792  98.8382288
  78.4484873 148.7236354  99.0415164  77.4277412 149.6247059  98.3796821
  80.1442216 148.1056663  95.7986236  80.0655848 147.7716526  96.6921993
  80.9651883 148.5978431  95.7977708  82.8420407 140.9718402 109.0062554
  82.8096727 140.0334403 109.1922238  83.4521031 141.0502439 108.2728379
  74.6803738 139.8414455  95.0489758  75.6262843 139.7120663  95.1178176
  74.3017983 139.1029117  95.5259186  82.9914896 137.7629445 109.0520837
  82.4753944 136.9787902 108.8650766  83.8754844 137.4348162 109.2167357
  88.6596957 142.0334409 108.1468591  89.3900346 141.7719697 108.7076294
  88.0503903 141.2963131 108.1870659  74.5642431 143.8932201 116.5090415
  75.4845440 144.0710800 116.7030462  74.5292014 142.9488246 116.3570114
  72.8646655 137.7664431  94.9844643  71.9578111 137.4697544  95.0607357
  73.1422636 137.4694249  94.1178930  63.7824596 139.0870795 105.4343690
  63.4627380 138.2336103 105.1418064  63.2358024 139.3019373 106.1901657
  67.5604503 141.8033236 109.1513196  67.7790513 142.7350344 109.1701230
  67.9730277 141.4441210 109.9368000  74.4808721 132.3101321 101.1388885
  73.6709449 131.9648406 101.5144131  75.1693138 132.0008865 101.7276496
  76.4099269 131.3879368 102.7613181  76.9630308 131.8074821 103.4203204
  76.6469356 130.4615116 102.8036137  72.4332369 137.3766441 118.5415945
  72.3329095 138.3260798 118.4728036  72.2153911 137.0484680 117.6692015
  71.6345440 134.6251367  95.1256623  72.4964604 134.9506265  95.3852440
  71.8195784 133.8382862  94.6129688  63.6512856 142.7073706 107.4036811
  62.9576327 142.2927659 106.8906766  64.3985847 142.7494243 106.8070230
  79.7878076 133.4979893 102.2691846  79.2076745 134.1564697 101.8869898
  79.5214009 132.6757238 101.8579263  78.2381643 132.8984951 104.4713166
  78.7381421 133.0101485 103.6627485  78.8817251 132.5946004 105.1113974
  72.2963639 140.8063580 117.3581007  71.8130720 141.6063940 117.5644896
  72.3824578 140.8171525 116.4048451  65.5649598 142.6391960 105.2802826
  65.5420286 142.7379647 104.3284709  65.8750235 143.4857111 105.6019992
  68.2236976 144.6968115 109.3949441  69.1780230 144.6652057 109.3279372
  68.0249500 144.2358739 110.2099667  68.8136358 143.2669231 111.9620238
  69.6329247 143.7613310 111.9855076  69.0873166 142.3501199 111.9337806
  78.5702954 135.6579983 101.3248194  77.6828809 135.9429634 101.1068389
  78.9856944 135.4973747 100.4775471  81.9217491 135.6826504 105.0402533
  82.6977881 136.1722957 105.3127150  81.1965625 136.1084559 105.4974403
  66.5787205 150.2387734 106.4119639  66.4441673 149.4788135 105.8457637
  66.1619267 150.9628634 105.9448427  77.7146168 145.4224658  95.4196214
  78.4182018 145.6274661  96.0353869  76.9908817 145.9901420  95.6845297
  78.5443978 141.1734519 101.5398484  78.4879180 141.6303071 100.7006116
  79.0972321 140.4125204 101.3621327  82.3548784 136.9624251 102.3648604
  82.0985718 136.5620887 103.1956811  81.7301652 137.6768045 102.2398743
  69.7356331 151.1357052 106.6238081  69.6188715 152.0802484 106.5216771
  68.9148777 150.8330613 107.0123880  79.6232865 145.8607187  97.4694674
  80.4578469 145.4288386  97.2872149  79.4617208 145.6889201  98.3971568
  79.2778758 142.3639301  98.8351013  79.2227561 142.1983572  97.8939457
  78.6524813 143.0715333  98.9913203  64.0671272 137.6007365 112.6612435
  64.7130136 137.0906319 113.1499661  63.8588424 138.3376047 113.2355861
  76.5924665 144.6688212 118.1604576  77.4615824 144.8428865 117.7991211
  76.1131416 145.4882629 118.0380305  72.5874883 131.8647410  98.4136332
  72.5753553 132.8089249  98.5704602  73.4798305 131.6817555  98.1195793
  70.7610845 151.7885313 109.8394010  71.6638092 151.8208924 110.1560505
  70.5348215 150.8585764 109.8540345  72.5164447 150.5416300 106.5004088
  71.5660078 150.5418162 106.3868461  72.8196933 149.7949035 105.9840123
  76.4027002 128.4590186 102.6682268  75.6359398 127.9048673 102.8138951
  76.8137707 128.5312055 103.5296420  68.4068763 134.7474982 116.7587450
  69.2700225 134.3911787 116.9690774  67.8334174 134.4088877 117.4462854
  88.2517140 156.3776838 107.5649851  88.8895550 156.2583586 106.8613191
  88.1337983 157.3257682 107.6237803  85.0606847 156.3304266 107.5011375
  84.7225358 156.2145331 106.6131910  85.9296615 155.9295432 107.4812382
  80.9193662 158.1839743 103.4908266  80.3558528 158.0929680 102.7224554
  80.8046057 157.3639647 103.9710759  85.5426630 157.4839118 113.4597581
  85.5315270 157.0891916 112.5878085  85.7047269 156.7505191 114.0531352
  78.4658094 159.6790934 106.3292487  79.2579386 159.3381759 105.9138786
  78.7054744 159.7885910 107.2494640  86.4993221 161.8510711  98.8022731
  85.8481201 162.4364791  98.4156745  87.2937584 162.3816905  98.8617769
  80.4248848 158.9399848  99.2009866  81.1979724 158.3928835  99.0622741
  80.7774247 159.8044097  99.4124327  82.2633891 160.2676230 112.4076765
  81.9723757 161.1721861 112.2923431  82.8990875 160.3092758 113.1220834
  83.1890098 157.6453078 108.9978125  83.7853670 157.4209101 108.2835087
  83.2465069 156.9037824 109.6003572  82.7615126 155.0992514  96.8328315
  83.0140647 154.5774035  96.0711778  81.8239685 154.9358659  96.9354999
  87.8058409 154.1028292 104.6403059  88.5921498 153.6847715 104.2893476
  88.0697113 155.0074384 104.8084707  87.9768486 159.5401142  99.3391716
  87.3414319 159.6135769 100.0512620  87.6465893 160.1294741  98.6610795
  93.2066836 154.0403525 105.5436037  93.9392008 153.4702742 105.7773867
  92.4506192 153.6525126 105.9842543  82.4811415 157.0020620  99.0352690
  82.3647673 156.3265523  99.7033775  82.5913675 156.5152994  98.2184843
  84.8242956 156.4630767 102.7399380  84.4601163 155.9361388 103.4512301
  85.6810072 156.0729236 102.5665865  90.7292256 147.7525099 110.0030646
  90.3975581 148.6220510 109.7791861  90.1337870 147.4361383 110.6824676
  84.4648443 151.4920667  97.7360728  84.6322845 152.3600903  98.1031199
  84.2745612 151.6547948  96.8122017  87.2223776 159.9537645 109.4026559
  86.9224499 160.8562684 109.2942366  86.8774835 159.6869829 110.2547711
  80.6736257 156.4051442 105.4363263  79.7486754 156.2727656 105.6440955
  80.9220671 157.1845662 105.9333205  90.6220920 152.4720186 107.0823996
  89.7137797 152.4035594 106.7882757  90.5708515 152.9492131 107.9105821
  84.4437664 153.9478324  98.7207395  84.3237289 154.3935375  99.5592875
  83.7490252 154.2963642  98.1620933  78.0345068 156.0484716 106.2707052
  78.1637450 156.3019195 107.1846464  77.3542520 156.6412424 105.9511707
  84.6961785 153.8909831 115.0258893  83.9195120 154.4503751 115.0161758
  85.3352349 154.3766614 115.5473763  92.4882566 150.6736624 108.8601870
  91.8456946 150.9669157 108.2141664  91.9837495 150.5589544 109.6655066
  90.1422730 154.4199797  99.5487729  91.0540586 154.6527184  99.3735427
  89.6332377 155.0036841  98.9862808  82.9508158 156.6995285 114.5876860
  83.6922842 157.2380329 114.3111684  82.2445143 157.3261573 114.7448412
  88.4263497 158.8424425 113.1849022  88.8346853 158.4006836 112.4403654
  87.7040759 158.2677053 113.4383215  84.7794567 153.7797032 110.5582579
  85.6255763 154.2036445 110.7017228  84.7193205 153.1230656 111.2521142
  88.7492312 159.4025616 106.9401311  88.1201175 159.5671330 106.2377378
  88.3617974 159.8167225 107.7112275  92.6281544 160.3380054 104.2945674
  91.9432582 160.7178955 103.7442708  92.7125393 160.9475380 105.0277622
  87.9294013 151.4401400 112.2163752  87.6854945 152.1943461 111.6798028
  88.2053943 151.8186748 113.0510999  89.8832476 157.9840013 110.8941018
  90.0949371 158.6271772 110.2175399  89.8362224 157.1502329 110.4262948
  87.4858705 150.5957833 107.7977590  86.6243184 150.8939087 108.0894328
  87.5121139 150.8128232 106.8658623  84.3020274 159.1400024 104.2051396
  84.7658619 159.4187727 103.4156018  84.0377072 158.2383468 104.0224486
  81.1944355 158.6871505 107.1431159  81.7645712 159.1158774 106.5048643
  81.7852467 158.4054090 107.8415345  83.2389160 155.2623176 101.0140961
  83.9413203 155.7144220 101.4814887  82.9069789 154.6206995 101.6420854
  81.6869522 153.8534933 115.3892170  81.0568182 154.5351214 115.6227567
  81.5805609 153.7418014 114.4445308  76.9814494 153.5206729 106.3158094
  76.1913548 153.7764257 105.8398205  77.4725741 154.3355067 106.4210135
  90.9978304 160.8611968 109.0663375  91.8195747 160.4592155 108.7846057
  90.9940706 160.7580202 110.0179491  78.9329239 153.8851308 103.2741571
  78.1360403 153.9970002 103.7925067  78.7054832 154.2237960 102.4082462
  84.7634907 160.4096011 111.2224086  84.8279339 160.8716419 112.0582258
  84.0545831 159.7793376 111.3506396  75.2652197 153.7737219 108.7473085
  75.5160235 154.6584229 109.0130661  75.8011745 153.5941821 107.9748177
  99.0884297 157.2050716 105.4148347  98.3348005 156.6358115 105.2592351
  99.2231838 157.1713381 106.3618981  84.4782925 162.0764119 101.0903066
  84.3428599 162.9215655 101.5187914  85.0192737 162.2783396 100.3269000
  80.9650264 148.1555699 117.7517421  80.5717210 147.6021897 118.4265065
  81.7816405 148.4666277 118.1423939  77.9312322 159.5939557 101.6630991
  78.4436843 160.3882807 101.8136556  78.5835035 158.8965847 101.5964593
  79.7407207 162.7105313 103.7453744  79.9173835 163.6323278 103.5574728
  80.5364040 162.3963732 104.1748124  83.8818225 149.5713578 115.3437678
  84.6227939 150.1720731 115.2642140  84.1136148 148.8291216 114.7855720
  79.0259563 154.7569945 113.6215907  78.9113078 153.8555202 113.9223006
  78.1704081 155.0033642 113.2700724  86.1051401 162.6987685 115.2203408
  85.6615255 161.9124064 114.9024313  86.7668615 162.8866836 114.5547299
  88.2032639 162.9790485 113.2484809  88.1851114 163.7999366 112.7565079
  89.1252559 162.8544560 113.4734951  84.6605693 160.4934615 114.0908318
  85.1934030 159.7322903 113.8607626  84.1319774 160.2008267 114.8332472
  87.8275388 145.5994681 109.6201959  87.4839658 146.4896322 109.5441070
  88.1954351 145.4096338 108.7571544  75.8961239 157.9228211 102.4390562
  76.7336461 158.3325219 102.2224269  76.0739506 156.9827653 102.4090755
  87.7925671 155.5903292  98.1274395  87.2772294 156.3607896  98.3662782
  87.5202979 154.9168428  98.7507456  85.3772782 150.4352993 103.1859633
  84.5214378 150.0459843 103.0065272  85.7899734 150.5144953 102.3259418
  86.9071929 147.9699336 107.5851193  86.4036724 147.9329471 106.7718998
  87.2002535 148.8792079 107.6447849  83.1514814 148.0538066 106.5917374
  84.0167811 147.8580874 106.2323264  83.2192323 147.8248417 107.5186731
  92.7659945 158.3435646 100.0627568  91.9889388 158.0046806  99.6182730
  93.4451426 158.3488270  99.3882533  87.5811974 153.4630384  99.9534176
  87.2762110 153.7776533 100.8044319  88.5342416 153.5411804  99.9961509
  86.0258406 159.6220607 101.6027130  85.4979768 158.8873367 101.2900367
  85.5245909 160.3995284 101.3567098  91.0051252 157.8169628 106.7194176
  90.3474926 158.5068889 106.8074305  91.8091651 158.2066060 107.0628162
  80.7577134 150.2840273 103.9633741  81.3320885 150.0615455 103.2306934
  81.3448116 150.3528968 104.7162343  89.8156711 156.1714000 104.7698118
  90.3288593 156.8043992 105.2719828  90.4657935 155.5715196 104.4041478
  81.0846721 152.3144735  97.9829627  80.2484033 152.6519421  98.3038901
  80.9451490 152.1793714  97.0456763  83.0599801 147.1581522 102.6908811
  82.4064214 146.8430540 102.0665425  83.0180275 146.5357263 103.4168634
  84.1711006 157.4400817  94.6062103  83.2638068 157.2090071  94.8053252
  84.6682038 156.6438437  94.7936084  86.2937542 153.6463456 107.0156458
  85.3760103 153.8678403 106.8578146  86.7097685 153.7209766 106.1568166
  87.0772589 155.0454872 102.1459139  87.8244408 155.5576269 101.8366261
  87.3464179 154.7238924 103.0063532  85.3499240 157.5413412  99.1286093
  84.4410459 157.2572445  99.2258563  85.3794323 157.9612491  98.2689400
  90.5818507 161.1520002 102.8977260  90.1280834 160.3110912 102.9542451
  89.9512474 161.7881400 103.2352041  89.5251427 152.0811988 104.1277928
  88.7874183 151.5689374 104.4588170  89.7778200 151.6412369 103.3161205
  89.0251446 162.9896499 103.8327079  89.3174421 163.5501556 103.1139444
  89.5350067 163.2825060 104.5880238  89.6263054 144.8588240 104.7219697
  89.9321931 143.9985603 104.4345612  90.3515659 145.4505860 104.5218691
  75.9187410 155.2618926 103.1101295  75.7211810 154.6688287 102.3852362
  75.3634074 154.9571137 103.8277234  83.8984134 155.1542033 105.2295888
  83.9532743 154.2015869 105.1538365  83.0875336 155.3101472 105.7137187
  85.0475327 159.0822156  96.4674171  84.6094757 158.3658015  96.0079809
  85.7885768 159.3098271  95.9059263  81.8376494 153.7719093 102.9886267
  81.0244359 154.0713263 103.3951459  82.3335488 153.3774781 103.7060749
  83.9885071 163.7676850 104.9220532  83.9461250 163.9937696 103.9929064
  84.9047770 163.5340224 105.0706333  87.4350705 154.2360917 111.8201161
  87.7900093 154.4632390 112.6795627  88.0822836 154.5679294 111.1978416
  93.1648442 157.3579353 102.5250490  93.0266341 157.5480949 101.5971679
  92.8084661 158.1198736 102.9818541  81.3290568 151.3437448 108.6047502
  81.9689948 151.2026207 107.9070465  80.4968099 151.0571962 108.2286104
  93.1917822 159.4255880 107.5361762  93.6254328 159.3331169 108.3844816
  93.9049402 159.4013381 106.8981777  82.1050872 160.6439879 104.7182494
  82.8991471 160.1490199 104.5165069  81.3942565 160.1157742 104.3550200
  86.9245717 163.0257974 109.0694862  86.9782739 163.5948910 109.8372578
  86.0560498 163.1959859 108.7048899  78.4133636 154.7882960 100.7942247
  77.4831224 154.7267416 101.0112209  78.5091108 154.2658913  99.9978888
  78.3319185 151.3137773 103.3820489  78.5926002 152.2283106 103.2729649
  79.1536357 150.8462216 103.5317102  79.8044110 152.7275530 110.5519313
  80.4767163 152.5192892 109.9031962  78.9773897 152.5297616 110.1124546
  94.0533371 159.4679581 110.0694647  94.2469261 160.3725391 110.3153922
  93.9533989 159.0087000 110.9033232  85.7069682 149.3537471 112.5684974
  85.0597597 150.0527421 112.4749451  86.4770697 149.7873615 112.9361222
  89.1148480 159.6186323 115.6435528  88.9633986 159.3896875 114.7265611
  89.1053159 160.5756925 115.6566873  85.8833816 157.1918236 110.6281794
  86.8125876 157.3429396 110.4550761  85.4624846 157.2802257 109.7730440
  84.6822148 161.2168901 108.3980332  84.5433234 160.8487685 109.2706270
  83.8936744 161.7316540 108.2264289  86.2327363 160.5950503 105.7869169
  85.8977196 160.5551273 106.6826819  85.7331309 159.9295219 105.3139580
  80.2071607 156.0018133 111.3121751  80.0691405 155.2698372 111.9133290
  81.1176531 155.9127033 111.0305938  89.1686555 157.9406538  96.0606229
  88.5515726 157.2153366  95.9639282  88.7003043 158.7015898  95.7173303
  82.8353908 155.7138093 110.8005430  83.5453526 155.0731285 110.7592049
  82.7923216 155.9650987 111.7231611  90.8240687 162.6505446 113.7212009
  90.7653233 161.9664666 113.0542592  91.2260205 163.3924436 113.2692635
  81.5482842 152.7003311 112.6201070  81.0120199 152.2494049 113.2722666
  80.9599550 152.8349219 111.8771534  80.9585101 152.1591962  95.1827533
  80.0814567 152.0380763  94.8189780  81.4342854 151.3678040  94.9306422
  90.8258094 160.6145030 111.9525989  89.9384873 160.2770952 112.0752388
  91.3956645 159.8828061 112.1894754  72.4787241 156.9469122 105.2769040
  73.1658281 156.6330852 104.6890056  72.3235370 157.8510486 105.0036292
  77.2821963 151.8359318 109.7054064  77.1980152 151.2284988 108.9704474
  76.4604670 152.3268337 109.7063560  84.1449027 164.5118252 102.4290054
  83.3616549 165.0539932 102.5228278  84.8441772 165.0292232 102.8284295
  87.4545677 150.3212882 105.0724259  87.9514377 149.5682844 104.7525329
  86.6832659 150.3577198 104.5067469  95.3075434 156.0253247 106.7142551
  95.2965311 156.9077963 106.3436484  94.4392814 155.6724798 106.5197088
  86.8157931 165.1733316 111.0745391  87.5285903 165.8080781 111.0021292
  86.3247959 165.2697182 110.2585393  88.5375458 159.0784569 102.6462683
  87.6031736 159.1986031 102.4767387  88.7152126 158.1757036 102.3822692
  84.0380646 152.4630265 104.7995944  83.6678433 151.9101305 105.4876849
  84.5339738 151.8588398 104.2470944  91.9248009 154.9201888 103.1812717
  92.3908461 155.7529880 103.1073019  92.3755510 154.4546870 103.8857975
  81.8669844 162.9227760 111.8950962  82.5679304 163.5564243 112.0480356
  81.3964959 163.2642491 111.1346601  89.9924240 161.2645710 100.1798869
  90.2684084 161.1502304 101.0892743  89.1228739 160.8663194 100.1411042
  89.8964672 147.2882475 107.2203618  88.9827752 147.5186702 107.3885825
  90.3257773 147.3720919 108.0717650  89.6671130 155.4772367 109.7203512
  89.0142581 155.7248275 109.0655965  90.0451510 154.6636505 109.3865989
  86.6278304 165.5132060 103.8231682  86.8100699 164.6953716 104.2859435
  87.4511290 165.7299753 103.3856572  86.9620470 164.4400246 101.0846731
  87.4908236 163.9292700 100.4716893  87.2248689 164.1242776 101.9492264
  85.7158703 156.2192178 116.2069549  85.0399340 156.1186308 116.8771924
  86.5386337 156.0631392 116.6705546  77.4637562 162.4564115 108.8282064
  78.0490999 161.7107803 108.9609969  77.2662401 162.7668072 109.7118728
  72.0555217 155.0269715 107.5486508  72.0939317 154.4933306 108.3423626
  71.5495510 154.5004921 106.9297485  79.4345979 149.8734256 111.0449050
  79.4987306 150.7349086 110.6326448  79.3713100 149.2608257 110.3121408
  78.9098252 151.9457388 114.6922084  79.5370291 151.5634465 115.3059608
  78.0526171 151.7271590 115.0577777  89.3092361 162.3520363 116.2975820
  89.8532265 162.9650322 115.8030774  88.7279205 162.9099942 116.8142833
  75.6863795 153.7533817 100.6240439  75.9817236 152.8444496 100.5707493
  74.7851830 153.7321557 100.3021441  87.5949873 165.4741081 107.4290847
  87.4701013 164.6730821 106.9201793  88.2528965 165.9687275 106.9404817
  79.2158042 151.8289814 106.6067988  78.4944627 152.4425781 106.4675461
  80.0051297 152.3647579 106.5284633  89.6584782 163.2750101 109.0570397
  88.7115117 163.1555453 108.9848724  90.0067555 162.3872599 109.1396659
  82.0184355 149.1644240 112.8808639  82.5418757 149.4106537 113.6434949
  81.7996689 149.9964275 112.4611777  77.4151636 151.4347915 100.7479764
  77.0864342 150.5545294 100.5654870  77.7691007 151.3795584 101.6356153
  86.6631215 163.0702818 105.2574750  86.5156178 162.1419525 105.4382320
  87.4884709 163.0922908 104.7731825  80.5293459 151.7220885 101.1155242
  80.8689532 152.2506806 100.3933850  80.9765580 152.0601291 101.8913808
  90.2665337 163.8931376 106.3439622  91.1911884 163.6874238 106.2064074
  90.0980640 163.6447777 107.2528964  83.2236900 150.1057935 110.5658310
  82.8833721 149.3065748 110.9678990  82.5175907 150.4059646 109.9935143
  83.8753372 147.1907248 109.0185633  84.6979441 146.7167726 108.8964523
  84.1191436 147.9697732 109.5184319  82.5161607 150.2195506  99.3148535
  83.2369969 150.5976759  98.8112251  81.8926911 150.9384383  99.4183512
  86.6592729 150.9240655 100.2506867  86.8756344 151.8065293  99.9495695
  86.1786797 150.5326869  99.5212509  81.3991951 153.8826368 106.8277611
  81.2536532 154.1966671 107.7201893  80.9217154 154.5011269 106.2748510
  83.2588334 150.8728916 106.8758501  83.2449903 149.9770010 106.5390799
  83.9760762 150.8799580 107.5096787  85.1114464 151.3066257 108.9211628
  84.8532242 152.2283327 108.9195959  84.5799505 150.9096691 109.6112093
  90.0560653 164.4117044 101.7001714  90.2297531 163.8463466 100.9475566
  90.5489544 165.2117939 101.5181204  75.8737613 156.4231713 109.7665273
  75.3291081 157.1991521 109.8985547  76.7516963 156.7702517 109.6084394
  82.6625230 149.7543297 102.1446071  82.7841141 148.8259943 102.3436959
  82.3727272 149.7681983 101.2324387  85.5316420 147.4398207 105.2812791
  85.5538117 147.5037540 104.3264771  85.9484479 146.6002716 105.4753297
  95.9100044 157.1753467 103.3192014  96.3531190 156.4260792 102.9211137
  95.0326555 157.1663603 102.9365746  91.0435826 163.7283808  98.7998612
  91.7386730 164.3490501  99.0185927  91.3858976 162.8779159  99.0750990
  76.6603635 155.5501609 112.6595430  75.9185371 155.6984244 113.2460060
  76.3396379 155.8109875 111.7962179  92.9427249 161.1783514 100.3285943
  93.4678573 161.5170786  99.6035263  92.8549601 160.2430529 100.1449078
  84.6047298 165.0917587 112.4575820  84.9134424 164.8466734 113.3298519
  85.4022780 165.2964226 111.9694690  82.0741782 162.7893506 106.7603498
  81.4521791 162.1264211 106.4605726  82.7446649 162.8154638 106.0777146
  75.3068854 161.3553364 105.6494758  74.4700762 160.9275539 105.4678759
  75.2792499 161.5485808 106.5865549  82.1466309 151.2675294 116.3536004
  82.1954465 152.1437417 115.9713773  82.6888823 150.7252687 115.7807647
  92.6321155 161.8116417 115.6337141  91.8416699 161.7940556 115.0941640
  92.3954509 162.3504711 116.3886177  92.7519030 158.6608884 112.9469869
  92.8017035 158.4958891 113.8885392  92.6432953 157.7936143 112.5567750
  81.6355289 161.3397429 100.2361958  81.7843409 162.0232894  99.5828631
  82.4421732 161.3202519 100.7511414  90.0422792 154.6439812 114.2629176
  90.9432655 154.5046277 113.9713174  90.1170767 154.8094267 115.2027354
  84.3765598 152.0206666 113.1082362  83.5068907 152.3140233 112.8364951
  84.6125078 152.6047111 113.8289626  94.2537227 161.0805825 113.1911891
  93.9622035 161.4435806 114.0275352  93.6409358 160.3672833 113.0125223
  95.4532909 158.6458705 105.7114461  96.2879800 159.0848509 105.8752022
  95.5892038 158.1697358 104.8922707  92.5024415 156.2038440 111.6591949
  92.9778537 156.3966086 110.8510800  91.5789980 156.2597626 111.4135333
  79.3907922 157.3662607 101.2423027  79.1453964 156.4624937 101.4403237
  79.5603836 157.3679757 100.3002505  87.0804632 148.2386283 110.6247783
  87.5986575 148.9747310 110.2994271  86.7259764 148.5450277 111.4594542
  78.6603569 153.0990965  98.7409189  77.9672814 153.1735320  98.0849225
  78.4155321 152.3351308  99.2630706  87.3317226 144.6586566 106.1448679
  87.6118979 143.9909755 106.7709106  88.1167833 144.8515662 105.6323343
  85.1350694 163.8345560  97.7073706  84.5624661 164.4535747  97.2544178
  85.7083488 164.3844922  98.2413628  91.2026084 153.0804200 109.8920255
  92.1543507 153.1802298 109.9132479  91.0329534 152.2882468 110.4018339
  89.2240463 150.1659783 110.0779655  88.6290396 150.4464796 109.3826144
  88.9390160 150.6553684 110.8496397  88.3547954 164.1182710  98.8382288
  89.2878627 164.0528272  99.0415164  88.2671167 164.9538977  98.3796821
  90.9835971 163.4348580  95.7986236  90.9049602 163.1008444  96.6921993
  91.8045637 163.9270348  95.7977708  93.6814162 156.3010320 109.0062554
  93.6490482 155.3626320 109.1922238  94.2914785 156.3794356 108.2728379
  85.5197493 155.1706373  95.0489758  86.4656597 155.0412581  95.1178176
  85.1411738 154.4321034  95.5259186  93.8308650 153.0921363 109.0520837
  93.3147699 152.3079820 108.8650766  94.7148599 152.7640080 109.2167357
  91.4919377 146.8362379 105.0116650  91.2944198 146.5277467 105.8959982
  92.1019083 147.5624018 105.1414580  99.4990712 157.3626326 108.1468591
 100.2294100 157.1011615 108.7076294  98.8897657 156.6255048 108.1870659
  97.5806009 155.5034189 108.7443042  96.8539172 155.3690154 108.1359534
  97.1653296 155.8111018 109.5499760  85.4036185 159.2224119 116.5090415
  86.3239195 159.4002718 116.7030462  85.3685768 158.2780164 116.3570114
  83.7040410 153.0956349  94.9844643  82.7971865 152.7989462  95.0607357
  83.9816391 152.7986167  94.1178930  74.6218350 154.4162712 105.4343690
  74.3021135 153.5628021 105.1418064  74.0751778 154.6311291 106.1901657
  78.3998258 157.1325153 109.1513196  78.6184268 158.0642261 109.1701230
  78.8124032 156.7733128 109.9368000  85.3202476 147.6393239 101.1388885
  84.5103204 147.2940324 101.5144131  86.0086892 147.3300782 101.7276496
  87.2493024 146.7171285 102.7613181  87.8024062 147.1366739 103.4203204
  87.4863110 145.7907034 102.8036137  83.2726123 152.7058359 118.5415945
  83.1722850 153.6552716 118.4728036  83.0547665 152.3776598 117.6692015
  82.4739194 149.9543284  95.1256623  83.3358358 150.2798183  95.3852440
  82.6589539 149.1674780  94.6129688  74.4906610 158.0365624 107.4036811
  73.7970082 157.6219577 106.8906766  75.2379601 158.0786160 106.8070230
  90.6271831 148.8271811 102.2691846  90.0470500 149.4856615 101.8869898
  90.3607764 148.0049155 101.8579263  89.0775397 148.2276868 104.4713166
  89.5775176 148.3393403 103.6627485  89.7211005 147.9237921 105.1113974
  83.1357393 156.1355498 117.3581007  82.6524475 156.9355858 117.5644896
  83.2218332 156.1463443 116.4048451  76.4043353 157.9683878 105.2802826
  76.3814041 158.0671565 104.3284709  76.7143989 158.8149028 105.6019992
  79.0630731 160.0260033 109.3949441  80.0173984 159.9943975 109.3279372
  78.8643254 159.5650656 110.2099667  79.6530113 158.5961149 111.9620238
  80.4723002 159.0905227 111.9855076  79.9266920 157.6793117 111.9337806
  89.4096709 150.9871901 101.3248194  88.5222564 151.2721552 101.1068389
  89.8250698 150.8265664 100.4775471  92.7611245 151.0118422 105.0402533
  93.5371635 151.5014874 105.3127150  92.0359379 151.4376476 105.4974403
  95.1983804 151.7246041 106.0976474  95.7928295 151.4841777 105.3869782
  95.2710387 151.0053172 106.7250010  88.5539922 160.7516576  95.4196214
  89.2575773 160.9566578  96.0353869  87.8302571 161.3193338  95.6845297
  89.3837733 156.5026437 101.5398484  89.3272934 156.9594988 100.7006116
  89.9366075 155.7417122 101.3621327  93.1942539 152.2916169 102.3648604
  92.9379473 151.8912804 103.1956811  92.5695407 153.0059963 102.2398743
  97.5054876 155.0312242 104.8719895  96.9454434 155.1005431 105.6451457
  96.8998380 154.8553227 104.1519391  90.4626620 161.1899105  97.4694674
  91.2972224 160.7580303  97.2872149  90.3010963 161.0181119  98.3971568
  90.1172512 157.6931218  98.8351013  90.0621316 157.5275490  97.8939457
  89.4918567 158.4007251  98.9913203  74.9065027 152.9299283 112.6612435
  75.5523891 152.4198237 113.1499661  74.6982178 153.6667964 113.2355861
  87.4318419 159.9980130 118.1604576  88.3009579 160.1720782 117.7991211
  86.9525171 160.8174547 118.0380305  83.4268637 147.1939327  98.4136332
  83.4147307 148.1381167  98.5704602  84.3192059 147.0109473  98.1195793
  87.2420757 143.7882104 102.6682268  86.4753153 143.2340591 102.8138951
  87.6531462 143.8603973 103.5296420  79.2462518 150.0766900 116.7587450
  80.1093980 149.7203705 116.9690774  78.6727929 149.7380794 117.4462854
  98.6452163 169.4320210 104.6403059  99.4315253 169.0139633 104.2893476
  98.9090868 170.3366302 104.8084707 104.0460591 169.3695443 105.5436037
 104.7785762 168.7994660 105.7773867 103.2899946 168.9817044 105.9842543
 101.5686011 163.0817017 110.0030646 101.2369336 163.9512428 109.7791861
 100.9731624 162.7653301 110.6824676  95.3042197 166.8212584  97.7360728
  95.4716600 167.6892821  98.1031199  95.1139366 166.9839866  96.8122017
 101.4614674 167.8012103 107.0823996 100.5531552 167.7327512 106.7882757
 101.4102270 168.2784048 107.9105821 103.3276321 166.0028542 108.8601870
 102.6850701 166.2961075 108.2141664 102.8231249 165.8881462 109.6655066
 100.9816484 169.7491715  99.5487729 101.8934340 169.9819102  99.3735427
 100.4726131 170.3328759  98.9862808  95.6188322 169.1088950 110.5582579
  96.4649517 169.5328363 110.7017228  95.5586960 168.4522574 111.2521142
  98.7687767 166.7693318 112.2163752  98.5248699 167.5235378 111.6798028
  99.0447698 167.1478665 113.0510999  98.3252459 165.9249751 107.7977590
  97.4636938 166.2231004 108.0894328  98.3514894 166.1420150 106.8658623
  91.8044019 163.4847616 117.7517421  91.4110964 162.9313815 118.4265065
  92.6210159 163.7958195 118.1423939  94.7211980 164.9005495 115.3437678
  95.4621693 165.5012649 115.2642140  94.9529903 164.1583133 114.7855720
  98.6669143 160.9286598 109.6201959  98.3233412 161.8188240 109.5441070
  99.0348105 160.7388256 108.7571544  96.2166536 165.7644910 103.1859633
  95.3608133 165.3751761 103.0065272  96.6293488 165.8436871 102.3259418
  97.7465683 163.2991254 107.5851193  97.2430479 163.2621389 106.7718998
  98.0396290 164.2083996 107.6447849  93.9908569 163.3829983 106.5917374
  94.8561566 163.1872792 106.2323264  94.0586078 163.1540335 107.5186731
  98.4205729 168.7922302  99.9534176  98.1155864 169.1068451 100.8044319
  99.3736171 168.8703721  99.9961509  91.5970888 165.6132191 103.9633741
  92.1714640 165.3907373 103.2306934  92.1841870 165.6820886 104.7162343
  91.9240475 167.6436652  97.9829627  91.0877787 167.9811339  98.3038901
  91.7845245 167.5085632  97.0456763  93.8993556 162.4873440 102.6908811
  93.2457968 162.1722457 102.0665425  93.8574030 161.8649181 103.4168634
  97.1331296 168.9755374 107.0156458  96.2153857 169.1970321 106.8578146
  97.5491440 169.0501684 106.1568166 100.3645181 167.4103906 104.1277928
  99.6267938 166.8981292 104.4588170 100.6171955 166.9704287 103.3161205
 100.4656808 160.1880158 104.7219697 100.7715685 159.3277521 104.4345612
 101.1909413 160.7797778 104.5218691  98.2744460 169.5652835 111.8201161
  98.6293847 169.7924308 112.6795627  98.9216591 169.8971212 111.1978416
  92.1684323 166.6729366 108.6047502  92.8083702 166.5318125 107.9070465
  91.3361853 166.3863879 108.2286104  96.5463437 164.6829389 112.5684974
  95.8991352 165.3819339 112.4749451  97.3164452 165.1165533 112.9361222
  92.3876596 168.0295228 112.6201070  91.8513953 167.5785967 113.2722666
  91.7993305 168.1641137 111.8771534  91.7978855 167.4883880  95.1827533
  90.9208322 167.3672680  94.8189780  92.2736608 166.6969958  94.9306422
  98.2939432 165.6504799 105.0724259  98.7908131 164.8974762 104.7525329
  97.5226413 165.6869116 104.5067469 106.1469189 171.3545165 106.7142551
 106.1359065 172.2369880 106.3436484 105.2786568 171.0016716 106.5197088
  94.8774400 167.7922182 104.7995944  94.5072188 167.2393223 105.4876849
  95.3733493 167.1880316 104.2470944 102.7641764 170.2493806 103.1812717
 103.2302216 171.0821798 103.1073019 103.2149264 169.7838788 103.8857975
 100.7358426 162.6174393 107.2203618  99.8221506 162.8478620 107.3885825
 101.1651528 162.7012837 108.0717650 100.5064885 170.8064285 109.7203512
  99.8536335 171.0540192 109.0655965 100.8845265 169.9928423 109.3865989
  90.2739734 165.2026173 111.0449050  90.3381060 166.0641004 110.6326448
  90.2106854 164.5900175 110.3121408  89.7492006 167.2749306 114.6922084
  90.3764045 166.8926383 115.3059608  88.8919925 167.0563508 115.0577777
  92.8578110 164.4936158 112.8808639  93.3812512 164.7398454 113.6434949
  92.6390443 165.3256193 112.4611777  88.2545391 166.7639833 100.7479764
  87.9258097 165.8837211 100.5654870  88.6084761 166.7087501 101.6356153
  91.3687214 167.0512802 101.1155242  91.7083286 167.5798724 100.3933850
  91.8159334 167.3893208 101.8913808  94.0630655 165.4349853 110.5658310
  93.7227475 164.6357666 110.9678990  93.3569661 165.7351564 109.9935143
  94.7147127 162.5199165 109.0185633  95.5373196 162.0459644 108.8964523
  94.9585190 163.2989649 109.5184319  93.3555361 165.5487424  99.3148535
  94.0763724 165.9268677  98.8112251  92.7320665 166.2676301  99.4183512
  97.4986484 166.2532573 100.2506867  97.7150098 167.1357211  99.9495695
  97.0180551 165.8618786  99.5212509  94.0982088 166.2020834 106.8758501
  94.0843657 165.3061927 106.5390799  94.8154516 166.2091498 107.5096787
  95.9508219 166.6358174 108.9211628  95.6925997 167.5575245 108.9195959
  95.4193259 166.2388609 109.6112093  93.5018984 165.0835214 102.1446071
  93.6234895 164.1551861 102.3436959  93.2121027 165.0973900 101.2324387
  96.3710175 162.7690125 105.2812791  96.3931871 162.8329458 104.3264771
  96.7878234 161.9294633 105.4753297 106.7493799 172.5045384 103.3192014
 107.1924945 171.7552710 102.9211137 105.8720309 172.4955521 102.9365746
  92.9860064 166.5967212 116.3536004  93.0348219 167.4729335 115.9713773
  93.5282578 166.0544605 115.7807647 100.8816547 169.9731729 114.2629176
 101.7826410 169.8338194 113.9713174 100.9564521 170.1386184 115.2027354
  95.2159352 167.3498584 113.1082362  94.3462662 167.6432150 112.8364951
  95.4518833 167.9339029 113.8289626 103.3418170 171.5330358 111.6591949
 103.8172291 171.7258004 110.8510800 102.4183735 171.5889543 111.4135333
  97.9198386 163.5678201 110.6247783  98.4380330 164.3039228 110.2994271
  97.5653519 163.8742194 111.4594542  98.1710980 159.9878484 106.1448679
  98.4512734 159.3201673 106.7709106  98.9561587 160.1807579 105.6323343
 102.0419839 168.4096118 109.8920255 102.9937261 168.5094215 109.9132479
 101.8723289 167.6174386 110.4018339 100.0634218 165.4951701 110.0779655
  99.4684150 165.7756714 109.3826144  99.7783915 165.9845602 110.8496397
 104.5207916 171.6302237 109.0062554 104.4884236 170.6918238 109.1922238
 105.1308540 171.7086274 108.2728379 104.6702405 168.4213281 109.0520837
 104.1541453 167.6371737 108.8650766 105.5542353 168.0931997 109.2167357
 102.3313132 162.1654296 105.0116650 102.1337953 161.8569384 105.8959982
 102.9412837 162.8915935 105.1414580 108.4199763 170.8326107 108.7443042
 107.6932927 170.6982072 108.1359534 108.0047050 171.1402935 109.5499760
  94.5434164 168.4248267  94.9844643  93.6365620 168.1281379  95.0607357
  94.8210145 168.1278085  94.1178930  96.1596230 162.9685156 101.1388885
  95.3496958 162.6232241 101.5144131  96.8480647 162.6592700 101.7276496
  98.0886778 162.0463203 102.7613181  98.6417817 162.4658657 103.4203204
  98.3256865 161.1198951 102.8036137  94.1119878 168.0350277 118.5415945
  94.0116604 168.9844634 118.4728036  93.8941420 167.7068516 117.6692015
  93.3132949 165.2835202  95.1256623  94.1752113 165.6090100  95.3852440
  93.4983293 164.4966698  94.6129688 101.4665585 164.1563728 102.2691846
 100.8864254 164.8148532 101.8869898 101.2001518 163.3341073 101.8579263
  99.9169152 163.5568786 104.4713166 100.4168930 163.6685321 103.6627485
 100.5604760 163.2529839 105.1113974 100.2490463 166.3163819 101.3248194
  99.3616318 166.6013469 101.1068389 100.6644453 166.1557582 100.4775471
 103.6005000 166.3410340 105.0402533 104.3765390 166.8306792 105.3127150
 102.8753134 166.7668394 105.4974403 106.0377558 167.0537959 106.0976474
 106.6322049 166.8133695 105.3869782 106.1104142 166.3345089 106.7250010
 104.0336293 167.6208087 102.3648604 103.7773227 167.2204722 103.1956811
 103.4089161 168.3351880 102.2398743 108.3448631 170.3604160 104.8719895
 107.7848189 170.4297349 105.6451457 107.7392134 170.1845144 104.1519391
  94.2662392 162.5231245  98.4136332  94.2541062 163.4673085  98.5704602
  95.1585814 162.3401390  98.1195793  98.0814511 159.1174022 102.6682268
  97.3146907 158.5632508 102.8138951  98.4925216 159.1895890 103.5296420
  90.0856272 165.4058817 116.7587450  90.9487734 165.0495622 116.9690774
  89.5121683 165.0672712 117.4462854  12.3760860  26.0795537  94.2895157
  13.0139270  25.9602285  93.5858497  12.2581703  27.0276381  94.3483109
   9.1850567  26.0322965  94.2256682   8.8469078  25.9164030  93.3377217
  10.0540335  25.6314130  94.2057688   5.0437382  27.8858442  90.2153573
   4.4802247  27.7948379  89.4469861   4.9289777  27.0658346  90.6956065
   9.6670350  27.1857817 100.1842888   9.6558990  26.7910615  99.3123391
   9.8290989  26.4523890 100.7776659   2.5901814  29.3809633  93.0537793
   3.3823106  29.0400458  92.6384093   2.8298464  29.4904608  93.9739947
  10.6236941  31.5529409  85.5268038   9.9724921  32.1383490  85.1402052
  11.4181304  32.0835604  85.5863075   4.5492568  28.6418547  85.9255172
   5.3223444  28.0947534  85.7868048   4.9017967  29.5062796  86.1369634
   6.3877611  29.9694929  99.1322072   6.0967477  30.8740560  99.0168738
   7.0234595  30.0111456  99.8466141   7.3133818  27.3471777  95.7223431
   7.9097390  27.1227800  95.0080394   7.3708789  26.6056523  96.3248879
   6.8858846  24.8011213  83.5573622   7.1384367  24.2792734  82.7957085
   5.9483405  24.6377358  83.6600306  11.9302129  23.8046991  91.3648365
  12.7165218  23.3866414  91.0138782  12.1940833  24.7093083  91.5330014
  12.1012206  29.2419841  86.0637022  11.4658039  29.3154468  86.7757927
  11.7709612  29.8313440  85.3856101  17.3310556  23.7422224  92.2681344
  18.0635728  23.1721441  92.5019173  16.5749912  23.3543825  92.7087849
   6.6055135  26.7039319  85.7597997   6.4891393  26.0284222  86.4279081
   6.7157395  26.2171693  84.9430150   8.9486676  26.1649466  89.4644686
   8.5844883  25.6380087  90.1757608   9.8053791  25.7747935  89.2911172
  14.8535976  17.4543798  96.7275952  14.5219301  18.3239209  96.5037167
  14.2581590  17.1380082  97.4069983   8.5892163  21.1939365  84.4606035
   8.7566565  22.0619602  84.8276506   8.3989332  21.3566647  83.5367324
  11.3467496  29.6556344  96.1271865  11.0468219  30.5581383  96.0187672
  11.0018555  29.3888528  96.9793018   4.7979977  26.1070141  92.1608570
   3.8730474  25.9746355  92.3686261   5.0464390  26.8864360  92.6578512
  14.7464640  22.1738885  93.8069303  13.8381517  22.1054293  93.5128063
  14.6952235  22.6510829  94.6351128   8.5681383  23.6497023  85.4452702
   8.4481009  24.0954074  86.2838182   7.8733972  23.9982341  84.8866240
   2.1588788  25.7503415  92.9952359   2.2881169  26.0037894  93.9091770
   1.4786240  26.3431123  92.6757014   6.3288276  36.4200665  89.0942833
   6.2512305  37.3708490  89.1731313   5.7249919  36.0746537  89.7517759
   8.8205505  23.5928530 101.7504200   8.0438839  24.1522450 101.7407064
   9.4596068  24.0785313 102.2719070  16.6126286  20.3755323  95.5847176
  15.9700666  20.6687856  94.9386971  16.1081214  20.2608243  96.3900373
  14.2666450  24.1218496  86.2733036  15.1784306  24.3545883  86.0980733
  13.7576097  24.7055540  85.7108114   7.0751878  26.4013983 101.3122167
   7.8166562  26.9399027 101.0356990   6.3688863  27.0280272 101.4693719
  12.5507217  28.5443124  99.9094328  12.9590573  28.1025534  99.1648961
  11.8284479  27.9695751 100.1628521   8.9038287  23.4815731  97.2827885
   9.7499482  23.9055144  97.4262534   8.8436925  22.8249355  97.9766448
  12.8736032  29.1044315  93.6646617  12.2444894  29.2690029  92.9622685
  12.4861694  29.5185924  94.4357581  16.7525264  30.0398752  91.0190981
  16.0676302  30.4197654  90.4688014  16.8369113  30.6494079  91.7522929
  12.0537733  21.1420099  98.9409059  11.8098665  21.8962160  98.4043335
  12.3297663  21.5205447  99.7756306  14.0076195  27.6858711  97.6186324
  14.2193091  28.3290471  96.9420706  13.9605944  26.8521028  97.1508255
  11.6102424  20.2976532  94.5222897  10.7486903  20.5957786  94.8139634
  11.6364859  20.5146931  93.5903929   8.4263994  28.8418723  90.9296702
   8.8902339  29.1206426  90.1401325   8.1620792  27.9402167  90.7469793
   5.3188075  28.3890204  93.8676466   5.8889432  28.8177473  93.2293950
   5.9096187  28.1072789  94.5660651   7.3632880  24.9641875  87.7386267
   8.0656923  25.4162919  88.2060194   7.0313508  24.3225694  88.3666161
   5.8113241  23.5553632 102.1137477   5.1811902  24.2369913 102.3472874
   5.7049329  23.4436713 101.1690615  15.1222023  30.5630667  95.7908682
  15.9439467  30.1610854  95.5091363  15.1184426  30.4598901  96.7424798
   3.0572959  23.5870007  89.9986878   2.2604122  23.6988701  90.5170373
   2.8298551  23.9256659  89.1327768   8.8878627  30.1114710  97.9469392
   8.9523059  30.5735117  98.7827564   8.1789551  29.4812075  98.0751702
  23.2128016  26.9069415  92.1393653  22.4591725  26.3376813  91.9837658
  23.3475558  26.8732080  93.0864288   8.6026644  31.7782818  87.8148373
   8.4672319  32.6234353  88.2433220   9.1436457  31.9802095  87.0514306
   2.0556042  29.2958256  88.3876298   2.5680562  30.0901506  88.5381862
   2.7078755  28.5984546  88.3209899   3.8650927  32.4124012  90.4699051
   4.0417555  33.3341977  90.2820035   4.6607760  32.0982431  90.8993431
   8.0061945  19.2732277 102.0682984   8.7471658  19.8739430 101.9887447
   8.2379868  18.5309914 101.5101027   3.1503283  24.4588644 100.3461214
   3.0356798  23.5573901 100.6468313   2.2947801  24.7052341  99.9946031
  10.2295121  32.4006384 101.9448715   9.7858975  31.6142763 101.6269619
  10.8912334  32.5885535 101.2792605   4.9882242  33.9302186  96.4709393
   5.5389667  33.8019249  95.6986387   4.1493718  34.2297075  96.1204286
  12.3276359  32.6809184  99.9730116  12.3094834  33.5018065  99.4810385
  13.2496279  32.5563259 100.1980257   8.7849413  30.1953314 100.8153624
   9.3177750  29.4341602 100.5852932   8.2563494  29.9026965 101.5577779
  11.9169391  25.2921991  84.8519701  11.4016014  26.0626595  85.0908089
  11.6446699  24.6187127  85.4752763   9.5016502  20.1371691  89.9104940
   8.6458098  19.7478542  89.7310578   9.9143454  20.2163652  89.0504725
  11.0315648  17.6718035  94.3096499  10.5280444  17.6348170  93.4964305
  11.3246255  18.5810777  94.3693156  16.8903665  28.0454345  86.7872875
  16.1133108  27.7065505  86.3428037  17.5695146  28.0506968  86.1127840
  11.7055694  23.1649083  86.6779482  11.4005829  23.4795232  87.5289626
  12.6586136  23.2430503  86.7206815  10.1502126  29.3239306  88.3272436
   9.6223487  28.5892066  88.0145674   9.6489628  30.1013982  88.0812405
  15.1294972  27.5188327  93.4439483  14.4718646  28.2087588  93.5319611
  15.9335371  27.9084758  93.7873469  13.9400431  25.8732699  91.4943424
  14.4532312  26.5062691  91.9965134  14.5901654  25.2733895  91.1286784
   5.2090440  22.0163433  84.7074933   4.3727753  22.3538120  85.0284208
   5.0695210  21.8812413  83.7702070   8.2954726  27.1419516  81.3307409
   7.3881788  26.9108770  81.5298558   8.7925758  26.3457136  81.5181391
  11.2022805  35.8517024  84.2504096  10.5284504  36.1548720  84.8589053
  11.5888627  36.6546104  83.9009553  10.4181261  23.3482155  93.7401765
   9.5003823  23.5697102  93.5823453  10.8341405  23.4228465  92.8813472
  11.2016309  24.7473570  88.8704445  11.9488128  25.2594968  88.5611567
  11.4707899  24.4257623  89.7308839   9.4742959  27.2432111  85.8531399
   8.5654179  26.9591144  85.9503869   9.5038043  27.6631190  84.9934706
  14.7062227  30.8538701  89.6222567  14.2524554  30.0129611  89.6787758
  14.0756193  31.4900099  89.9597347  13.6495146  21.7830687  90.8523234
  12.9117903  21.2708073  91.1833477  13.9021920  21.3431068  90.0406511
  13.1495166  32.6915197  90.5572385  13.4418140  33.2520254  89.8384751
  13.6593787  32.9843758  91.3125544   8.0227853  24.8560732  91.9541195
   8.0776463  23.9034568  91.8783671   7.2119055  25.0120171  92.4382493
   9.1719047  28.7840855  83.1919478   8.7338477  28.0676714  82.7325115
   9.9129488  29.0116970  82.6304569   5.9620213  23.4737792  89.7131574
   5.1488079  23.7731962  90.1196766   6.4579208  23.0793480  90.4306056
   8.1128791  33.4695548  91.6465838   8.0704970  33.6956395  90.7174370
   9.0291490  33.2358923  91.7951640  11.5594425  23.9379616  98.5446468
  11.9143813  24.1651089  99.4040933  12.2066556  24.2697993  97.9223723
  17.2892162  27.0598052  89.2495797  17.1510061  27.2499648  88.3216986
  16.9328381  27.8217435  89.7063848  17.3161542  29.1274579  94.2607068
  17.7498048  29.0349868  95.1090122  18.0293122  29.1032079  93.6227084
   6.2294592  30.3458577  91.4427801   7.0235190  29.8508898  91.2410376
   5.5186284  29.8176441  91.0795507  11.0489436  32.7276673  95.7940169
  11.1026459  33.2967609  96.5617885  10.1804218  32.8978558  95.4294206
   2.5377355  24.4901659  87.5187554   1.6074944  24.4286115  87.7357516
   2.6334827  23.9677612  86.7224195   3.9287830  22.4294229  97.2764620
   4.6010883  22.2211591  96.6277269   3.1017616  22.2316315  96.8369852
  18.1777091  29.1698280  96.7939954  18.3712981  30.0744090  97.0399228
  18.0777709  28.7105699  97.6278539   9.8313402  19.0556170  99.2930281
   9.1841317  19.7546120  99.1994757  10.6014417  19.4892314  99.6606529
  13.2392200  29.3205022 102.3680834  13.0877706  29.0915574 101.4510918
  13.2296879  30.2775624 102.3812179  10.0077536  26.8936935  97.3527101
  10.9369596  27.0448095  97.1796068   9.5868566  26.9820956  96.4975747
   8.8065868  30.9187599  95.1225638   8.6676954  30.5506384  95.9951576
   8.0180464  31.4335239  94.9509596   9.4014020  36.0196696  86.4651175
   9.5765776  35.5484739  87.2796797   8.7146808  36.6462462  86.6932435
  10.3571083  30.2969202  92.5114476  10.0220916  30.2569972  93.4072126
   9.8575029  29.6313918  92.0384886   4.3315327  25.7036832  98.0367057
   4.1935125  24.9717071  98.6378596   5.2420251  25.6145732  97.7551245
  13.2930275  27.6425236  82.7851536  12.6759445  26.9172065  82.6884588
  12.8246763  28.4034597  82.4418610   6.9597628  25.4156792  97.5250737
   7.6697246  24.7749984  97.4837355   6.9166936  25.6669686  98.4476918
  14.9484406  32.3524145 100.4457316  14.8896953  31.6683365  99.7787899
  15.3503925  33.0943135  99.9937942   5.6726562  22.4022009  99.3446376
   5.1363919  21.9512748  99.9967973   5.0843270  22.5367918  98.6016841
   3.9675105  39.1686059  93.2391035   4.2071703  39.8004583  93.9170053
   3.1244302  38.8174099  93.5256394   5.0828821  21.8610661  81.9072840
   4.2058287  21.7399462  81.5435087   5.5586574  21.0696739  81.6551729
  14.9501814  30.3163729  98.6771296  14.0628592  29.9789651  98.7997695
  15.5200365  29.5846760  98.9140061   8.4802967  34.9765181  95.6432539
   8.4073139  35.7820153  96.1551843   8.0380360  35.1757147  94.8180560
   8.2692747  34.2136951  89.1535360   7.4860269  34.7558631  89.2473585
   8.9685492  34.7310931  89.5529602  11.5789397  20.0231581  91.7969566
  12.0758096  19.2701543  91.4770636  10.8076378  20.0595897  91.2312775
  19.4319154  25.7271946  93.4387857  19.4209030  26.6096662  93.0681790
  18.5636534  25.3743497  93.2442394  10.9401651  34.8752015  97.7990698
  11.6529623  35.5099480  97.7266599  10.4491679  34.9715881  96.9830699
  12.6619178  28.7803268  89.3707989  11.7275456  28.9004730  89.2012694
  12.8395846  27.8775735  89.1067999   8.1624366  22.1648964  91.5241250
   7.7922153  21.6120004  92.2122156   8.6583458  21.5607097  90.9716250
  16.0491729  24.6220587  89.9058023  16.5152181  25.4548579  89.8318326
  16.4999229  24.1565569  90.6103282   5.9913564  32.6246459  98.6196268
   6.6923024  33.2582942  98.7725663   5.5208679  32.9661190  97.8591908
  14.1167960  30.9664408  86.9044175  14.3927804  30.8521003  87.8138049
  13.2472459  30.5681893  86.8656348  14.0208392  16.9901174  93.9448925
  13.1071471  17.2205401  94.1131132  14.4501493  17.0739618  94.7962957
  13.7914850  25.1791066  96.4448819  13.1386300  25.4266974  95.7901271
  14.1695230  24.3655204  96.1111296  10.7522024  35.2150759  90.5476989
  10.9344419  34.3972415  91.0104741  11.5755010  35.4318452  90.1101879
  11.0864190  34.1418944  87.8092037  11.6151956  33.6311399  87.1962200
  11.3492409  33.8261475  88.6737571   9.8402423  25.9210877 102.9314856
   9.1643060  25.8205006 103.6017231  10.6630057  25.7650091 103.3950853
   1.5881282  32.1582814  95.5527371   2.1734719  31.4126502  95.6855275
   1.3906121  32.4686770  96.4364035   4.4419937  35.1934061  90.5689813
   3.7730313  35.6780189  90.0853853   4.3032807  35.4403282  91.4833192
   8.5825206  37.2277805  97.1672472   9.1343514  37.3909426  97.9321557
   8.9231399  37.8182242  96.4952497  13.4336080  32.0539062 103.0221126
  13.9775984  32.6669020 102.5276081  12.8522925  32.6118641 103.5388139
  11.7193593  35.1759780  94.1536154  11.5944733  34.3749520  93.6447099
  12.3772684  35.6705973  93.6650124  13.7828502  32.9768800  95.7815704
  12.8358837  32.8574151  95.7094031  14.1311275  32.0891298  95.8641965
  10.7874935  32.7721516  91.9820056  10.6399897  31.8438224  92.1627626
  11.6128429  32.7941607  91.4977132   4.6537179  21.4239583  87.8400548
   4.9933252  21.9525505  87.1179157   5.1009300  21.7619990  88.6159115
  14.3909057  33.5950075  93.0684929  15.3155604  33.3892936  92.9309380
  14.2224360  33.3466476  93.9774271   6.6405326  19.9214205  86.0393841
   7.3613689  20.2995458  85.5357558   6.0170631  20.6403082  86.1428819
  10.7836449  20.6259354  86.9752174  11.0000064  21.5083992  86.6741002
  10.3030516  20.2345567  86.2457815   5.5235671  23.5845067  93.5522918
   5.3780251  23.8985370  94.4447200   5.0460874  24.2029968  92.9993817
   7.3832054  20.5747615  93.6003808   7.3693622  19.6788709  93.2636106
   8.1004482  20.5818279  94.2342094   9.2358184  21.0084955  95.6456935
   8.9775962  21.9302026  95.6441266   8.7043225  20.6115390  96.3357399
  14.1804373  34.1135743  88.4247020  14.3541251  33.5482165  87.6720873
  14.6733264  34.9136637  88.2426510  20.0343764  26.8772166  90.0437320
  20.4774910  26.1279491  89.6456443  19.1570275  26.8682302  89.6611052
  15.1679546  33.4302507  85.5243919  15.8630450  34.0509200  85.7431233
  15.5102696  32.5797858  85.7996297  17.0670969  30.8802213  87.0531250
  17.5922293  31.2189485  86.3280570  16.9793321  29.9449228  86.8694384
   8.7291017  34.7936286  99.1821126   9.0378144  34.5485433 100.0543826
   9.5266499  34.9982925  98.6939996   8.7511629  36.9474196  91.4126503
   8.3116620  36.4550575  92.1059359   9.5019746  36.4047163  91.1718578
   1.2303968  33.1385737  91.4151131   2.0561988  32.8389509  91.0349774
   0.8798020  32.3693359  91.8640919   6.1985502  32.4912205  93.4848804
   5.5765511  31.8282910  93.1851032   6.8690368  32.5173337  92.8022452
   6.2710029  20.9693993 103.0781310   6.3198185  21.8456116 102.6959080
   6.8132543  20.4271386 102.5052954  16.7564875  31.5135116 102.3582447
  15.9660418  31.4959255 101.8186947  16.5198229  32.0523410 103.1131484
  16.8762750  28.3627583  99.6715176  16.9260755  28.1977590 100.6130699
  16.7676673  27.4954842  99.2813057   5.7599008  31.0416128  86.9607265
   5.9087129  31.7251593  86.3073938   6.5665452  31.0221218  87.4756721
  14.1666512  24.3458511 100.9874483  15.0676375  24.2064975 100.6958481
  14.2414487  24.5112965 101.9272660   8.5009317  21.7225365  99.8327669
   7.6312627  22.0158931  99.5610258   8.7368798  22.3065810 100.5534933
  18.3780947  30.7824524  99.9157198  18.0865755  31.1454505 100.7520659
  17.7653078  30.0691532  99.7370530  19.5776629  28.3477404  92.4359768
  20.4123520  28.7867208  92.5997328  19.7135758  27.8716057  91.6168014
  16.6268135  25.9057139  98.3837256  17.1022256  26.0984785  97.5756107
  15.7033700  25.9616325  98.1380639   3.5151641  27.0681306  87.9668334
   3.2697683  26.1643636  88.1648544   3.6847556  27.0698456  87.0247812
  11.2048351  17.9404982  97.3493089  11.7230295  18.6766009  97.0239578
  10.8503484  18.2468976  98.1839849   9.2594414  33.5364259  84.4319012
   8.6868381  34.1554446  83.9789484   9.8327208  34.0863620  84.9658934
  15.3269804  22.7822899  96.6165561  16.2787227  22.8820996  96.6377785
  15.1573254  21.9901167  97.1263646  13.3484183  19.8678482  96.8024962
  12.7534115  20.1483495  96.1071451  13.0633880  20.3572383  97.5741703
  12.4791674  33.8201409  85.5627595  13.4122347  33.7546970  85.7660470
  12.3914887  34.6557676  85.1042127  15.1079690  33.1367279  82.5231542
  15.0293322  32.8027143  83.4167300  15.9289357  33.6289047  82.5223015
  17.8057882  26.0029018  95.7307861  17.7734202  25.0645019  95.9167545
  18.4158505  26.0813055  94.9973686   9.6441212  24.8725071  81.7735065
  10.5900317  24.7431280  81.8423483   9.2655457  24.1339733  82.2504493
  17.9552370  22.7940062  95.7766144  17.4391419  22.0098519  95.5896073
  18.8392319  22.4658779  95.9412663  15.6163097  16.5381077  91.7361957
  15.4187918  16.2296166  92.6205289  16.2262803  17.2642716  91.8659887
  23.6234431  27.0645025  94.8713898  24.3537820  26.8030313  95.4321601
  23.0141377  26.3273747  94.9115966  21.7049729  25.2052888  95.4688349
  20.9782892  25.0708853  94.8604840  21.2897015  25.5129717  96.2745067
   9.5279905  28.9242818 103.2335722  10.4482914  29.1021417 103.4275768
   9.4929488  27.9798863 103.0815421   7.8284130  22.7975048  81.7089950
   6.9215585  22.5008161  81.7852664   8.1060111  22.5004866  80.8424236
   2.5241978  26.8343852  95.8758503   2.7427987  27.7660960  95.8946537
   2.9367751  26.4751827  96.6613307   7.3969843  22.4077058 105.2661252
   7.2966570  23.3571415 105.1973343   7.1791385  22.0795297 104.3937322
  14.7515551  18.5290510  88.9937152  14.1714220  19.1875314  88.6115205
  14.4851483  17.7067854  88.5824570  13.2019117  17.9295567  91.1958473
  13.7018895  18.0412102  90.3872791  13.8454725  17.6256620  91.8359281
   7.2601113  25.8374197 104.0826314   6.7768195  26.6374557 104.2890203
   7.3462052  25.8482142 103.1293758   0.5287073  27.6702577  92.0048133
   0.5057761  27.7690264  91.0530016   0.8387709  28.5167727  92.3265299
   3.1874450  29.7278732  96.1194747   4.1417704  29.6962674  96.0524679
   2.9886974  29.2669355  96.9344973   3.7773833  28.2979848  98.6865545
   4.5966722  28.7923926  98.7100382   4.0510640  27.3811816  98.6583113
  13.5340429  20.6890600  88.0493501  12.6466284  20.9740251  87.8313695
  13.9494418  20.5284363  87.2020777  16.8854965  20.7137121  91.7647840
  17.6615355  21.2033573  92.0372457  16.1603099  21.1395175  92.2219709
  19.3227524  21.4264740  92.8221780  19.9172014  21.1860476  92.1115089
  19.3954107  20.7071871  93.4495317   1.5424679  35.2698351  93.1364945
   1.4079147  34.5098752  92.5702943   1.1256741  35.9939251  92.6693734
  12.6783642  30.4535275  82.1441521  13.3819492  30.6585277  82.7599176
  11.9546291  31.0212036  82.4090604  13.5081453  26.2045136  88.2643791
  13.4516654  26.6613687  87.4251423  14.0609795  25.4435820  88.0866633
  17.3186258  21.9934868  89.0893910  17.0623193  21.5931503  89.9202118
  16.6939126  22.7078662  88.9644049  21.6298596  24.7330941  91.5965202
  21.0698154  24.8024130  92.3696764  21.0242100  24.5571926  90.8764698
   4.6993805  36.1667668  93.3483388   4.5826189  37.1113101  93.2462078
   3.8786251  35.8641230  93.7369187  14.5870340  30.8917804  84.1939981
  15.4215944  30.4599002  84.0117455  14.4254683  30.7199817  85.1216875
  14.2416232  27.3949917  85.5596320  14.1865036  27.2294188  84.6184764
  13.6162287  28.1025950  85.7158510  11.5562139  29.6998829 104.8849883
  12.4253299  29.8739481 104.5236518  11.0768890  30.5193246 104.7625612
   5.7248319  36.8195930  96.5639316   6.6275566  36.8519540  96.8805811
   5.4985689  35.8896381  96.5785652   7.4801921  35.5726916  93.2249395
   6.5297552  35.5728778  93.1113767   7.7834407  34.8259651  92.7085430
  23.2154615  41.4087455  94.2895157  23.8533025  41.2894202  93.5858497
  23.0975458  42.3568299  94.3483109  20.0244321  41.3614883  94.2256682
  19.6862833  41.2455948  93.3377217  20.8934089  40.9606048  94.2057688
  15.8831137  43.2150359  90.2153573  15.3196002  43.1240296  89.4469861
  15.7683532  42.3950264  90.6956065  20.5064104  42.5149735 100.1842888
  20.4952745  42.1202533  99.3123391  20.6684743  41.7815807 100.7776659
  13.4295569  44.7101551  93.0537793  14.2216861  44.3692376  92.6384093
  13.6692219  44.8196526  93.9739947  21.4630695  46.8821327  85.5268038
  20.8118675  47.4675408  85.1402052  22.2575058  47.4127522  85.5863075
  15.3886323  43.9710464  85.9255172  16.1617199  43.4239451  85.7868048
  15.7411721  44.8354714  86.1369634  17.2271365  45.2986847  99.1322072
  16.9361231  46.2032477  99.0168738  17.8628349  45.3403374  99.8466141
  18.1527572  42.6763695  95.7223431  18.7491144  42.4519717  95.0080394
  18.2102544  41.9348441  96.3248879  17.7252600  40.1303130  83.5573622
  17.9778121  39.6084652  82.7957085  16.7877159  39.9669276  83.6600306
  22.7695883  39.1338909  91.3648365  23.5558972  38.7158332  91.0138782
  23.0334588  40.0385001  91.5330014  22.9405961  44.5711759  86.0637022
  22.3051794  44.6446386  86.7757927  22.6103367  45.1605358  85.3856101
  28.1704310  39.0714142  92.2681344  28.9029482  38.5013359  92.5019173
  27.4143666  38.6835742  92.7087849  17.4448889  42.0331236  85.7597997
  17.3285147  41.3576140  86.4279081  17.5551149  41.5463610  84.9430150
  19.7880430  41.4941383  89.4644686  19.4238637  40.9672004  90.1757608
  20.6447546  41.1039852  89.2911172  25.6929731  32.7835716  96.7275952
  25.3613055  33.6531127  96.5037167  25.0975344  32.4672000  97.4069983
  19.4285917  36.5231283  84.4606035  19.5960319  37.3911520  84.8276506
  19.2383086  36.6858565  83.5367324  22.1861250  44.9848262  96.1271865
  21.8861973  45.8873301  96.0187672  21.8412310  44.7180445  96.9793018
  15.6373732  41.4362059  92.1608570  14.7124228  41.3038273  92.3686261
  15.8858145  42.2156278  92.6578512  25.5858394  37.5030802  93.8069303
  24.6775271  37.4346211  93.5128063  25.5345990  37.9802747  94.6351128
  19.4075138  38.9788941  85.4452702  19.2874763  39.4245991  86.2838182
  18.7127726  39.3274258  84.8866240  12.9982543  41.0795332  92.9952359
  13.1274924  41.3329811  93.9091770  12.3179994  41.6723040  92.6757014
  17.1682030  51.7492582  89.0942833  17.0906060  52.7000407  89.1731313
  16.5643674  51.4038455  89.7517759  19.6599260  38.9220448 101.7504200
  18.8832594  39.4814368 101.7407064  20.2989823  39.4077231 102.2719070
  27.4520040  35.7047241  95.5847176  26.8094421  35.9979774  94.9386971
  26.9474969  35.5900161  96.3900373  25.1060204  39.4510414  86.2733036
  26.0178060  39.6837801  86.0980733  24.5969851  40.0347458  85.7108114
  17.9145632  41.7305901 101.3122167  18.6560316  42.2690945 101.0356990
  17.2082618  42.3572190 101.4693719  23.3900972  43.8735042  99.9094328
  23.7984328  43.4317452  99.1648961  22.6678233  43.2987669 100.1628521
  19.7432042  38.8107648  97.2827885  20.5893237  39.2347062  97.4262534
  19.6830679  38.1541273  97.9766448  23.7129786  44.4336232  93.6646617
  23.0838649  44.5981946  92.9622685  23.3255448  44.8477842  94.4357581
  27.5919018  45.3690670  91.0190981  26.9070056  45.7489571  90.4688014
  27.6762868  45.9785997  91.7522929  22.8931487  36.4712017  98.9409059
  22.6492419  37.2254077  98.4043335  23.1691418  36.8497364  99.7756306
  24.8469950  43.0150629  97.6186324  25.0586845  43.6582389  96.9420706
  24.7999698  42.1812946  97.1508255  22.4496179  35.6268450  94.5222897
  21.5880658  35.9249703  94.8139634  22.4758614  35.8438849  93.5903929
  19.2657748  44.1710640  90.9296702  19.7296094  44.4498343  90.1401325
  19.0014546  43.2694085  90.7469793  16.1581829  43.7182122  93.8676466
  16.7283186  44.1469390  93.2293950  16.7489941  43.4364707  94.5660651
  18.2026634  40.2933793  87.7386267  18.9050678  40.7454836  88.2060194
  17.8707263  39.6517612  88.3666161  16.6506996  38.8845549 102.1137477
  16.0205656  39.5661830 102.3472874  16.5443084  38.7728631 101.1690615
  11.9451968  38.5517345  93.0403401  11.1551022  38.8074874  92.5643512
  12.4363216  39.3665683  93.1455442  25.9615778  45.8922585  95.7908682
  26.7833222  45.4902772  95.5091363  25.9578181  45.7890819  96.7424798
  13.8966714  38.9161925  89.9986878  13.0997877  39.0280619  90.5170373
  13.6692306  39.2548577  89.1327768  19.7272381  45.4406628  97.9469392
  19.7916814  45.9027035  98.7827564  19.0183305  44.8103993  98.0751702
  10.2289671  38.8047836  95.4718392  10.4797710  39.6894846  95.7375968
  10.7649220  38.6252437  94.6993484  34.0521771  42.2361333  92.1393653
  33.2985479  41.6668731  91.9837658  34.1869312  42.2023998  93.0864288
  19.4420399  47.1074735  87.8148373  19.3066074  47.9526271  88.2433220
  19.9830211  47.3094013  87.0514306  15.9287739  33.1866315 104.4762728
  15.5354684  32.6332514 105.1510372  16.7453879  33.4976894 104.8669245
  12.8949796  44.6250173  88.3876298  13.4074317  45.4193424  88.5381862
  13.5472509  43.9276464  88.3209899  14.7044681  47.7415930  90.4699051
  14.8811309  48.6633894  90.2820035  15.5001515  47.4274349  90.8993431
  18.8455700  34.6024194 102.0682984  19.5865413  35.2031347 101.9887447
  19.0773622  33.8601832 101.5101027  13.9897038  39.7880562 100.3461214
  13.8750553  38.8865819 100.6468313  13.1341555  40.0344258  99.9946031
  21.0688875  47.7298302 101.9448715  20.6252730  46.9434680 101.6269619
  21.7306089  47.9177452 101.2792605  15.8275996  49.2594103  96.4709393
  16.3783422  49.1311167  95.6986387  14.9887472  49.5588992  96.1204286
  23.1670113  48.0101102  99.9730116  23.1488589  48.8309983  99.4810385
  24.0890033  47.8855177 100.1980257  19.6243168  45.5245231 100.8153624
  20.1571504  44.7633519 100.5852932  19.0957249  45.2318883 101.5577779
  22.7912863  30.6305297  96.3447266  22.4477132  31.5206939  96.2686377
  23.1591825  30.4406955  95.4816851  10.8598713  42.9538828  89.1635868
  11.6973935  43.3635836  88.9469576  11.0376981  42.0138270  89.1336062
  22.7563145  40.6213908  84.8519701  22.2409769  41.3918513  85.0908089
  22.4840454  39.9479044  85.4752763  20.3410256  35.4663609  89.9104940
  19.4851853  35.0770459  89.7310578  20.7537208  35.5455570  89.0504725
  21.8709403  33.0009952  94.3096499  21.3674198  32.9640088  93.4964305
  22.1640010  33.9102695  94.3693156  18.1152289  33.0848682  93.3162681
  18.9805286  32.8891491  92.9568571  18.1829798  32.8559034  94.2432038
  27.7297419  43.3746263  86.7872875  26.9526862  43.0357422  86.3428037
  28.4088900  43.3798886  86.1127840  22.5449448  38.4941000  86.6779482
  22.2399584  38.8087150  87.5289626  23.4979891  38.5722420  86.7206815
  20.9895880  44.6531224  88.3272436  20.4617242  43.9183983  88.0145674
  20.4883383  45.4305900  88.0812405  25.9688726  42.8480244  93.4439483
  25.3112401  43.5379506  93.5319611  26.7729125  43.2376676  93.7873469
  15.7214608  35.3150890  90.6879048  16.2958360  35.0926072  89.9552241
  16.3085590  35.3839585  91.4407649  24.7794185  41.2024617  91.4943424
  25.2926067  41.8354609  91.9965134  25.4295409  40.6025812  91.1286784
  16.0484195  37.3455351  84.7074933  15.2121507  37.6830038  85.0284208
  15.9088965  37.2104331  83.7702070  18.0237276  32.1892139  89.4154117
  17.3701688  31.8741156  88.7910732  17.9817750  31.5667879  90.1413940
  19.1348480  42.4711434  81.3307409  18.2275542  42.2400687  81.5298558
  19.6319512  41.6749053  81.5181391  22.0416559  51.1808941  84.2504096
  21.3678258  51.4840638  84.8589053  22.4282381  51.9838022  83.9009553
  21.2575016  38.6774072  93.7401765  20.3397577  38.8989019  93.5823453
  21.6735160  38.7520383  92.8813472  22.0410064  40.0765488  88.8704445
  22.7881883  40.5886885  88.5611567  22.3101653  39.7549541  89.7308839
  20.3136714  42.5724029  85.8531399  19.4047933  42.2883062  85.9503869
  20.3431798  42.9923107  84.9934706  25.5455981  46.1830618  89.6222567
  25.0918308  45.3421528  89.6787758  24.9149948  46.8192017  89.9597347
  24.4888901  37.1122604  90.8523234  23.7511658  36.5999991  91.1833477
  24.7415674  36.6722986  90.0406511  23.9888921  48.0207115  90.5572385
  24.2811895  48.5812172  89.8384751  24.4987541  48.3135676  91.3125544
  24.5900528  29.8898856  91.4465004  24.8959405  29.0296220  91.1590919
  25.3153133  30.4816477  91.2463998  10.8824884  40.2929543  89.8346602
  10.6849284  39.6998904  89.1097668  10.3271548  39.9881753  90.5522540
  18.8621608  40.1852649  91.9541195  18.9170218  39.2326486  91.8783671
  18.0512810  40.3412089  92.4382493  20.0112802  44.1132773  83.1919478
  19.5732232  43.3968631  82.7325115  20.7523243  44.3408887  82.6304569
  16.8013968  38.8029709  89.7131574  15.9881833  39.1023880  90.1196766
  17.2972962  38.4085398  90.4306056  18.9522546  48.7987466  91.6465838
  18.9098725  49.0248312  90.7174370  19.8685245  48.5650841  91.7951640
  22.3988180  39.2671534  98.5446468  22.7537567  39.4943007  99.4040933
  23.0460311  39.5989910  97.9223723  28.1285916  42.3889970  89.2495797
  27.9903815  42.5791566  88.3216986  27.7722135  43.1509352  89.7063848
  16.2928043  36.3748065  95.3292809  16.9327422  36.2336824  94.6315772
  15.4605573  36.0882578  94.9531411  28.1555296  44.4566497  94.2607068
  28.5891803  44.3641786  95.1090122  28.8686877  44.4323997  93.6227084
  17.0688346  45.6750495  91.4427801  17.8628945  45.1800815  91.2410376
  16.3580039  45.1468358  91.0795507  21.8883191  48.0568591  95.7940169
  21.9420213  48.6259527  96.5617885  21.0197972  48.2270476  95.4294206
  13.3771110  39.8193577  87.5187554  12.4468698  39.7578032  87.7357516
  13.4728582  39.2969530  86.7224195  13.2956659  36.3448390  90.1065795
  13.5563476  37.2593723  89.9974956  14.1173831  35.8772832  90.2562408
  14.7681584  37.7586147  97.2764620  15.4404638  37.5503509  96.6277269
  13.9411371  37.5608233  96.8369852  29.0170846  44.4990197  96.7939954
  29.2106736  45.4036008  97.0399228  28.9171464  44.0397616  97.6278539
  20.6707156  34.3848088  99.2930281  20.0235071  35.0838037  99.1994757
  21.4408172  34.8184232  99.6606529  24.0785954  44.6496940 102.3680834
  23.9271461  44.4207492 101.4510918  24.0690634  45.6067541 102.3812179
  20.8471291  42.2228853  97.3527101  21.7763351  42.3740012  97.1796068
  20.4262321  42.3112874  96.4975747  19.6459622  46.2479517  95.1225638
  19.5070708  45.8798302  95.9951576  18.8574219  46.7627157  94.9509596
  20.2407774  51.3488614  86.4651175  20.4159530  50.8776657  87.2796797
  19.5540562  51.9754380  86.6932435  21.1964838  45.6261120  92.5114476
  20.8614670  45.5861890  93.4072126  20.6968783  44.9605836  92.0384886
  15.1709082  41.0328750  98.0367057  15.0328880  40.3008989  98.6378596
  16.0814005  40.9437650  97.7551245  24.1324029  42.9717154  82.7851536
  23.5153200  42.2463982  82.6884588  23.6640518  43.7326514  82.4418610
  17.7991382  40.7448709  97.5250737  18.5091001  40.1041901  97.4837355
  17.7560690  40.9961604  98.4476918  25.7878161  47.6816063 100.4457316
  25.7290707  46.9975283  99.7787899  26.1897679  48.4235053  99.9937942
  16.5120316  37.7313927  99.3446376  15.9757673  37.2804666  99.9967973
  15.9237025  37.8659836  98.6016841  14.8068860  54.4977976  93.2391035
  15.0465458  55.1296501  93.9170053  13.9638056  54.1466016  93.5256394
  15.9222575  37.1902578  81.9072840  15.0452042  37.0691379  81.5435087
  16.3980328  36.3988657  81.6551729  25.7895568  45.6455646  98.6771296
  24.9022347  45.3081568  98.7997695  26.3594119  44.9138678  98.9140061
   7.4424715  41.9779738  92.0014347   8.1295755  41.6641468  91.4135362
   7.2872844  42.8821103  91.7281598  12.2459437  36.8669935  96.4299371
  12.1617626  36.2595604  95.6949781  11.4242144  37.3578953  96.4308867
  19.3196722  50.3057099  95.6432539  19.2466893  51.1112070  96.1551843
  18.8774115  50.5049065  94.8180560  19.1086501  49.5428869  89.1535360
  18.3254023  50.0850549  89.2473585  19.8079246  50.0602848  89.5529602
  22.4183151  35.3523498  91.7969566  22.9151851  34.5993461  91.4770636
  21.6470133  35.3887815  91.2312775  30.2712909  41.0563864  93.4387857
  30.2602785  41.9388579  93.0681790  29.4030288  40.7035415  93.2442394
  21.7795405  50.2043933  97.7990698  22.4923377  50.8391398  97.7266599
  21.2885434  50.3007799  96.9830699  23.5012932  44.1095186  89.3707989
  22.5669211  44.2296648  89.2012694  23.6789600  43.2067652  89.1067999
  19.0018120  37.4940881  91.5241250  18.6315908  36.9411922  92.2122156
  19.4977213  36.8899015  90.9716250  26.8885483  39.9512505  89.9058023
  27.3545936  40.7840496  89.8318326  27.3392984  39.4857486  90.6103282
  16.8307319  47.9538376  98.6196268  17.5316778  48.5874859  98.7725663
  16.3602434  48.2953108  97.8591908  24.9561714  46.2956326  86.9044175
  25.2321558  46.1812921  87.8138049  24.0866213  45.8973811  86.8656348
  24.8602146  32.3193092  93.9448925  23.9465226  32.5497319  94.1131132
  25.2895248  32.4031536  94.7962957  24.6308605  40.5082984  96.4448819
  23.9780055  40.7558891  95.7901271  25.0088985  39.6947122  96.1111296
  21.5915779  50.5442677  90.5476989  21.7738173  49.7264333  91.0104741
  22.4148765  50.7610369  90.1101879  21.9257944  49.4710862  87.8092037
  22.4545710  48.9603317  87.1962200  22.1886164  49.1553392  88.6737571
  20.6796178  41.2502795 102.9314856  20.0036815  41.1496924 103.6017231
  21.5023812  41.0942009 103.3950853  12.4275037  47.4874731  95.5527371
  13.0128474  46.7418419  95.6855275  12.2299875  47.7978688  96.4364035
  15.2813692  50.5225979  90.5689813  14.6124067  51.0072106  90.0853853
  15.1426562  50.7695199  91.4833192   7.0192691  40.0580332  94.2731814
   7.0576791  39.5243922  95.0668932   6.5132984  39.5315537  93.6542791
  19.4218961  52.5569722  97.1672472  19.9737269  52.7201344  97.9321557
  19.7625154  53.1474160  96.4952497  14.3983454  34.9044872  97.7694356
  14.4624780  35.7659703  97.3571754  14.3350574  34.2918874  97.0366715
  13.8735726  36.9768005 101.4167391  14.5007765  36.5945082 102.0304915
  13.0163645  36.7582207 101.7823083  24.2729835  47.3830980 103.0221126
  24.8169739  47.9960938 102.5276081  23.6916680  47.9410558 103.5388139
  10.6501269  38.7844434  87.3485746  10.9454710  37.8755112  87.2952799
   9.7489305  38.7632173  87.0266748  22.5587348  50.5051698  94.1536154
  22.4338487  49.7041438  93.6447099  23.2166439  50.9997891  93.6650124
  14.1795516  36.8600430  93.3313294  13.4582102  37.4736398  93.1920767
  14.9688772  37.3958195  93.2529940  24.6222256  48.3060718  95.7815704
  23.6752592  48.1866069  95.7094031  24.9705029  47.4183216  95.8641965
  16.9821830  34.1954857  99.6053946  17.5056231  34.4417153 100.3680255
  16.7634163  35.0274892  99.1857083  12.3789111  36.4658531  87.4725071
  12.0501817  35.5855910  87.2900177  12.7328481  36.4106200  88.3601460
  21.6268689  48.1013434  91.9820056  21.4793652  47.1730142  92.1627626
  22.4522183  48.1233525  91.4977132  15.4930934  36.7531501  87.8400548
  15.8327006  37.2817422  87.1179157  15.9403054  37.0911907  88.6159115
  25.2302811  48.9241993  93.0684929  26.1549359  48.7184854  92.9309380
  25.0618115  48.6758394  93.9774271  18.1874375  35.1368552  97.2903616
  17.8471195  34.3376365  97.6924296  17.4813381  35.4370263  96.7180450
  18.8390846  32.2217864  95.7430939  19.6616916  31.7478343  95.6209830
  19.0828910  33.0008348  96.2429626  17.4799081  35.2506123  86.0393841
  18.2007443  35.6287376  85.5357558  16.8564385  35.9695000  86.1428819
  21.6230204  35.9551272  86.9752174  21.8393818  36.8375910  86.6741002
  21.1424271  35.5637485  86.2457815  16.3629425  38.9136985  93.5522918
  16.2174006  39.2277288  94.4447200  15.8854629  39.5321885  92.9993817
  18.2225808  35.9039533  93.6003808  18.2087377  35.0080626  93.2636106
  18.9398236  35.9110197  94.2342094  20.0751939  36.3376873  95.6456935
  19.8169717  37.2593944  95.6441266  19.5436979  35.9407308  96.3357399
  25.0198128  49.4427660  88.4247020  25.1935005  48.8774083  87.6720873
  25.5127019  50.2428555  88.2426510  10.8375087  41.4542329  96.4910579
  10.2928555  42.2302137  96.6230854  11.7154437  41.8013134  96.3329701
  17.6262704  34.7853913  88.8691378  17.7478615  33.8570559  89.0682265
  17.3364746  34.7992599  87.9569693  20.4953894  32.4708824  92.0058098
  20.5175591  32.5348157  91.0510077  20.9121953  31.6313332  92.1998604
  30.8737519  42.2064083  90.0437320  31.3168665  41.4571408  89.6456443
  29.9964029  42.1974220  89.6611052  26.0073300  48.7594425  85.5243919
  26.7024205  49.3801117  85.7431233  26.3496450  47.9089776  85.7996297
  11.6241109  40.5812226  99.3840736  10.8822845  40.7294861  99.9705367
  11.3033853  40.8420491  98.5207486  27.9064723  46.2094130  87.0531250
  28.4316047  46.5481403  86.3280570  27.8187076  45.2741146  86.8694384
  19.5684772  50.1228204  99.1821126  19.8771898  49.8777351 100.0543826
  20.3660254  50.3274842  98.6939996  19.5905384  52.2766113  91.4126503
  19.1510374  51.7842492  92.1059359  20.3413501  51.7339081  91.1718578
  12.0697723  48.4677654  91.4151131  12.8955743  48.1681426  91.0349774
  11.7191775  47.6985277  91.8640919  17.0379256  47.8204123  93.4848804
  16.4159265  47.1574828  93.1851032  17.7084123  47.8465254  92.8022452
  10.2706328  46.3863981  92.3740064   9.4338236  45.9586155  92.1924066
  10.2429973  46.5796424  93.3110856  17.1103784  36.2985911 103.0781310
  17.1591939  37.1748033 102.6959080  17.6526298  35.7563304 102.5052954
  27.5958629  46.8427034 102.3582447  26.8054173  46.8251173 101.8186947
  27.3591984  47.3815328 103.1131484  27.7156504  43.6919500  99.6715176
  27.7654509  43.5269508 100.6130699  27.6070428  42.8246759  99.2813057
  16.5992763  46.3708046  86.9607265  16.7480883  47.0543510  86.3073938
  17.4059206  46.3513136  87.4756721  25.0060267  39.6750428 100.9874483
  25.9070129  39.5356893 100.6958481  25.0808241  39.8404883 101.9272660
  19.3403072  37.0517283  99.8327669  18.4706381  37.3450849  99.5610258
  19.5762552  37.6357728 100.5534933  29.2174701  46.1116442  99.9157198
  28.9259509  46.4746422 100.7520659  28.6046832  45.3983450  99.7370530
  30.4170383  43.6769322  92.4359768  31.2517275  44.1159126  92.5997328
  30.5529512  43.2007975  91.6168014  27.4661889  41.2349056  98.3837256
  27.9416011  41.4276703  97.5756107  26.5427455  41.2908242  98.1380639
  14.3545396  42.3973224  87.9668334  14.1091438  41.4935554  88.1648544
  14.5241310  42.3990374  87.0247812  22.0442106  33.2696900  97.3493089
  22.5624050  34.0057927  97.0239578  21.6897239  33.5760893  98.1839849
  13.6241043  38.1301581  85.4654495  12.9310288  38.2045936  84.8094531
  13.3792795  37.3661925  85.9876012  22.2954700  29.6897182  92.8693986
  22.5756454  29.0220372  93.4954413  23.0805307  29.8826278  92.3568650
  20.0988168  48.8656176  84.4319012  19.5262136  49.4846363  83.9789484
  20.6720962  49.4155538  84.9658934  26.1663558  38.1114816  96.6165561
  27.1180981  38.2112914  96.6377785  25.9967009  37.3193085  97.1263646
  24.1877938  35.1970400  96.8024962  23.5927870  35.4775412  96.1071451
  23.9027635  35.6864301  97.5741703  23.3185428  49.1493326  85.5627595
  24.2516101  49.0838888  85.7660470  23.2308641  49.9849593  85.1042127
  25.9473445  48.4659197  82.5231542  25.8687076  48.1319060  83.4167300
  26.7683112  48.9580965  82.5223015  28.6451636  41.3320936  95.7307861
  28.6127956  40.3936937  95.9167545  29.2552260  41.4104973  94.9973686
  20.4834967  40.2016989  81.7735065  21.4294072  40.0723197  81.8423483
  20.1049212  39.4631651  82.2504493  28.7946125  38.1231980  95.7766144
  28.2785173  37.3390436  95.5896073  29.6786073  37.7950696  95.9412663
  26.4556852  31.8672995  91.7361957  26.2581673  31.5588083  92.6205289
  27.0656557  32.5934634  91.8659887  34.4628186  42.3936943  94.8713898
  35.1931574  42.1322231  95.4321601  33.8535131  41.6565665  94.9115966
  32.5443483  40.5344806  95.4688349  31.8176647  40.4000771  94.8604840
  32.1290770  40.8421634  96.2745067  20.3673660  44.2534735 103.2335722
  21.2876669  44.4313334 103.4275768  20.3323243  43.3090781 103.0815421
  18.6677884  38.1266966  81.7089950  17.7609340  37.8300078  81.7852664
  18.9453865  37.8296784  80.8424236   9.5855825  39.4473329  92.1588996
   9.2658609  38.5938637  91.8663370   9.0389253  39.6621907  92.9146964
  13.3635732  42.1635770  95.8758503  13.5821742  43.0952878  95.8946537
  13.7761506  41.8043744  96.6613307  20.2839950  32.6703855  87.8634191
  19.4740678  32.3250940  88.2389437  20.9724367  32.3611399  88.4521803
  22.2130498  31.7481902  89.4858488  22.7661537  32.1677355  90.1448511
  22.4500585  30.8217650  89.5281444  18.2363597  37.7368976 105.2661252
  18.1360324  38.6863333 105.1973343  18.0185139  37.4087215 104.3937322
  17.4376669  34.9853901  81.8501929  18.2995833  35.3108799  82.1097747
  17.6227013  34.1985397  81.3374995   9.4544085  43.0676240  94.1282118
   8.7607556  42.6530193  93.6152072  10.2017076  43.1096777  93.5315537
  25.5909305  33.8582427  88.9937152  25.0107974  34.5167231  88.6115205
  25.3245238  33.0359772  88.5824570  24.0412872  33.2587485  91.1958473
  24.5412650  33.3704019  90.3872791  24.6848480  32.9548538  91.8359281
  18.0994867  41.1666115 104.0826314  17.6161949  41.9666475 104.2890203
  18.1855806  41.1774059 103.1293758  11.3680827  42.9994494  92.0048133
  11.3451515  43.0982181  91.0530016  11.6781464  43.8459645  92.3265299
  14.0268205  45.0570649  96.1194747  14.9811458  45.0254592  96.0524679
  13.8280729  44.5961273  96.9344973  14.6167587  43.6271765  98.6865545
  15.4360476  44.1215844  98.7100382  14.8904395  42.7103733  98.6583113
  24.3734183  36.0182518  88.0493501  23.4860038  36.3032168  87.8313695
  24.7888172  35.8576281  87.2020777  27.7248719  36.0429039  91.7647840
  28.5009110  36.5325491  92.0372457  26.9996854  36.4687093  92.2219709
  30.1621278  36.7556658  92.8221780  30.7565769  36.5152394  92.1115089
  30.2347862  36.0363788  93.4495317  12.3818434  50.5990269  93.1364945
  12.2472902  49.8390670  92.5702943  11.9650496  51.3231169  92.6693734
  23.5177397  45.7827192  82.1441521  24.2213247  45.9877195  82.7599176
  22.7940045  46.3503954  82.4090604  24.3475207  41.5337054  88.2643791
  24.2910408  41.9905605  87.4251423  24.9003549  40.7727738  88.0866633
  28.1580013  37.3226785  89.0893910  27.9016947  36.9223421  89.9202118
  27.5332881  38.0370579  88.9644049  32.4692351  40.0622859  91.5965202
  31.9091909  40.1316048  92.3696764  31.8635854  39.8863843  90.8764698
  15.5387560  51.4959586  93.3483388  15.4219944  52.4405018  93.2462078
  14.7180006  51.1933147  93.7369187  25.4264094  46.2209721  84.1939981
  26.2609698  45.7890920  84.0117455  25.2648437  46.0491735  85.1216875
  25.0809986  42.7241835  85.5596320  25.0258790  42.5586106  84.6184764
  24.4556042  43.4317868  85.7158510   9.8702501  37.9609899  99.3857742
  10.5161365  37.4508853  99.8744967   9.6619652  38.6978581  99.9601167
  22.3955893  45.0290747 104.8849883  23.2647053  45.2031399 104.5236518
  21.9162645  45.8485163 104.7625612  18.3906112  32.2249944  85.1381638
  18.3784782  33.1691784  85.2949909  19.2829534  32.0420089  84.8441099
  16.5642074  52.1487848  96.5639316  17.4669320  52.1811458  96.8805811
  16.3379444  51.2188299  96.5785652  18.3195676  50.9018834  93.2249395
  17.3691307  50.9020696  93.1113767  18.6228162  50.1551569  92.7085430
  22.2058231  28.8192720  89.3927575  21.4390627  28.2651207  89.5384257
  22.6168936  28.8914589  90.2541727  14.2099992  35.1077516 103.4832756
  15.0731454  34.7514321 103.6936081  13.6365403  34.7691411 104.1708161
  34.0548369  56.7379373  94.2895157  34.6926779  56.6186120  93.5858497
  33.9369212  57.6860217  94.3483109  30.8638076  56.6906801  94.2256682
  30.5256587  56.5747865  93.3377217  31.7327844  56.2897966  94.2057688
  26.7224891  58.5442277  90.2153573  26.1589756  58.4532214  89.4469861
  26.6077286  57.7242182  90.6956065  31.3457858  57.8441652 100.1842888
  31.3346499  57.4494451  99.3123391  31.5078498  57.1107725 100.7776659
  24.2689323  60.0393469  93.0537793  25.0610615  59.6984293  92.6384093
  24.5085973  60.1488444  93.9739947  32.3024450  62.2113245  85.5268038
  31.6512430  62.7967325  85.1402052  33.0968813  62.7419440  85.5863075
  26.2280077  59.3002382  85.9255172  27.0010953  58.7531369  85.7868048
  26.5805476  60.1646631  86.1369634  28.0665120  60.6278764  99.1322072
  27.7754986  61.5324395  99.0168738  28.7022104  60.6695292  99.8466141
  28.9921326  58.0055613  95.7223431  29.5884899  57.7811635  95.0080394
  29.0496298  57.2640358  96.3248879  28.5646355  55.4595048  83.5573622
  28.8171876  54.9376569  82.7957085  27.6270914  55.2961193  83.6600306
  33.6089638  54.4630826  91.3648365  34.3952727  54.0450250  91.0138782
  33.8728342  55.3676919  91.5330014  28.2842644  57.3623154  85.7597997
  28.1678902  56.6868057  86.4279081  28.3944904  56.8755528  84.9430150
  36.5323485  48.1127634  96.7275952  36.2006810  48.9823045  96.5037167
  35.9369099  47.7963918  97.4069983  30.2679672  51.8523201  84.4606035
  30.4354074  52.7203437  84.8276506  30.0776841  52.0150482  83.5367324
  33.0255005  60.3140180  96.1271865  32.7255728  61.2165219  96.0187672
  32.6806064  60.0472363  96.9793018  26.4767486  56.7653977  92.1608570
  25.5517983  56.6330191  92.3686261  26.7251899  57.5448196  92.6578512
  36.4252149  52.8322720  93.8069303  35.5169026  52.7638128  93.5128063
  36.3739744  53.3094665  94.6351128  30.2468892  54.3080858  85.4452702
  30.1268518  54.7537909  86.2838182  29.5521481  54.6566176  84.8866240
  23.8376297  56.4087250  92.9952359  23.9668678  56.6621729  93.9091770
  23.1573749  57.0014958  92.6757014  30.4993014  54.2512365 101.7504200
  29.7226348  54.8106286 101.7407064  31.1383577  54.7369148 102.2719070
  38.2913795  51.0339158  95.5847176  37.6488175  51.3271691  94.9386971
  37.7868723  50.9192079  96.3900373  28.7539387  57.0597819 101.3122167
  29.4954071  57.5982863 101.0356990  28.0476372  57.6864108 101.4693719
  34.2294726  59.2026959  99.9094328  34.6378082  58.7609370  99.1648961
  33.5071988  58.6279587 100.1628521  30.5825796  54.1399566  97.2827885
  31.4286991  54.5638980  97.4262534  30.5224434  53.4833190  97.9766448
  33.7325242  51.8003934  98.9409059  33.4886173  52.5545995  98.4043335
  34.0085172  52.1789282  99.7756306  33.2889933  50.9560367  94.5222897
  32.4274412  51.2541621  94.8139634  33.3152368  51.1730766  93.5903929
  30.1051503  59.5002558  90.9296702  30.5689848  59.7790261  90.1401325
  29.8408301  58.5986003  90.7469793  26.9975584  59.0474040  93.8676466
  27.5676941  59.4761308  93.2293950  27.5883696  58.7656624  94.5660651
  29.0420389  55.6225710  87.7386267  29.7444432  56.0746754  88.2060194
  28.7101017  54.9809529  88.3666161  27.4900750  54.2137467 102.1137477
  26.8599411  54.8953748 102.3472874  27.3836838  54.1020549 101.1690615
  22.7845723  53.8809263  93.0403401  21.9944777  54.1366792  92.5643512
  23.2756970  54.6957601  93.1455442  24.7360468  54.2453842  89.9986878
  23.9391631  54.3572537  90.5170373  24.5086060  54.5840495  89.1327768
  30.5666136  60.7698546  97.9469392  30.6310568  61.2318953  98.7827564
  29.8577060  60.1395910  98.0751702  21.0683426  54.1339753  95.4718392
  21.3191464  55.0186763  95.7375968  21.6042974  53.9544355  94.6993484
  30.2814153  62.4366653  87.8148373  30.1459828  63.2818189  88.2433220
  30.8223966  62.6385931  87.0514306  26.7681493  48.5158233 104.4762728
  26.3748439  47.9624431 105.1510372  27.5847633  48.8268811 104.8669245
  23.7343551  59.9542091  88.3876298  24.2468071  60.7485341  88.5381862
  24.3866264  59.2568381  88.3209899  25.5438436  63.0707847  90.4699051
  25.7205064  63.9925812  90.2820035  26.3395269  62.7566267  90.8993431
  29.6849454  49.9316112 102.0682984  30.4259167  50.5323265 101.9887447
  29.9167377  49.1893750 101.5101027  24.8290792  55.1172479 100.3461214
  24.7144307  54.2157736 100.6468313  23.9735310  55.3636176  99.9946031
  31.9082630  63.0590220 101.9448715  31.4646484  62.2726598 101.6269619
  32.5699843  63.2469370 101.2792605  26.6669751  64.5886021  96.4709393
  27.2177176  64.4603084  95.6986387  25.8281227  64.8880910  96.1204286
  34.0063868  63.3393019  99.9730116  33.9882343  64.1601900  99.4810385
  34.9283788  63.2147095 100.1980257  30.4636922  60.8537149 100.8153624
  30.9965259  60.0925437 100.5852932  29.9351003  60.5610801 101.5577779
  33.6306617  45.9597215  96.3447266  33.2870886  46.8498857  96.2686377
  33.9985580  45.7698873  95.4816851  21.6992468  58.2830745  89.1635868
  22.5367690  58.6927754  88.9469576  21.8770735  57.3430188  89.1336062
  31.1804011  50.7955527  89.9104940  30.3245607  50.4062377  89.7310578
  31.5930963  50.8747488  89.0504725  32.7103157  48.3301870  94.3096499
  32.2067953  48.2932005  93.4964305  33.0033764  49.2394613  94.3693156
  28.9546043  48.4140600  93.3162681  29.8199040  48.2183408  92.9568571
  29.0223552  48.1850952  94.2432038  33.3843203  53.8232918  86.6779482
  33.0793338  54.1379067  87.5289626  34.3373645  53.9014338  86.7206815
  26.5608362  50.6442808  90.6879048  27.1352114  50.4217989  89.9552241
  27.1479345  50.7131502  91.4407649  26.8877949  52.6747269  84.7074933
  26.0515262  53.0121955  85.0284208  26.7482719  52.5396249  83.7702070
  28.8631030  47.5184057  89.4154117  28.2095442  47.2033074  88.7910732
  28.8211504  46.8959797  90.1413940  29.9742235  57.8003352  81.3307409
  29.0669297  57.5692605  81.5298558  30.4713267  57.0040971  81.5181391
  32.0968770  54.0065990  93.7401765  31.1791332  54.2280937  93.5823453
  32.5128914  54.0812301  92.8813472  31.1530468  57.9015947  85.8531399
  30.2441688  57.6174979  85.9503869  31.1825552  58.3215025  84.9934706
  35.4294283  45.2190774  91.4465004  35.7353159  44.3588137  91.1590919
  36.1546887  45.8108394  91.2463998  21.7218639  55.6221461  89.8346602
  21.5243039  55.0290821  89.1097668  21.1665303  55.3173671  90.5522540
  29.7015362  55.5144567  91.9541195  29.7563972  54.5618404  91.8783671
  28.8906564  55.6704006  92.4382493  30.8506556  59.4424690  83.1919478
  30.4125986  58.7260549  82.7325115  31.5916997  59.6700805  82.6304569
  27.6407722  54.1321627  89.7131574  26.8275588  54.4315797  90.1196766
  28.1366717  53.7377316  90.4306056  33.2381934  54.5963451  98.5446468
  33.5931322  54.8234924  99.4040933  33.8854065  54.9281828  97.9223723
  27.1321797  51.7039982  95.3292809  27.7721176  51.5628742  94.6315772
  26.2999328  51.4174496  94.9531411  27.9082101  61.0042413  91.4427801
  28.7022699  60.5092733  91.2410376  27.1973793  60.4760276  91.0795507
  32.7276945  63.3860508  95.7940169  32.7813968  63.9551445  96.5617885
  31.8591727  63.5562393  95.4294206  24.2164864  55.1485495  87.5187554
  23.2862453  55.0869950  87.7357516  24.3122336  54.6261447  86.7224195
  24.1350413  51.6740307  90.1065795  24.3957231  52.5885641  89.9974956
  24.9567586  51.2064750  90.2562408  25.6075339  53.0878065  97.2764620
  26.2798392  52.8795427  96.6277269  24.7805125  52.8900151  96.8369852
  31.5100911  49.7140005  99.2930281  30.8628826  50.4129955  99.1994757
  32.2801926  50.1476149  99.6606529  34.9179709  59.9788858 102.3680834
  34.7665215  59.7499409 101.4510918  34.9084388  60.9359459 102.3812179
  31.6865045  57.5520770  97.3527101  32.6157105  57.7031930  97.1796068
  31.2656075  57.6404791  96.4975747  30.4853377  61.5771435  95.1225638
  30.3464463  61.2090219  95.9951576  29.6967973  62.0919074  94.9509596
  26.0102836  56.3620668  98.0367057  25.8722634  55.6300906  98.6378596
  26.9207760  56.2729568  97.7551245  34.9717784  58.3009072  82.7851536
  34.3546954  57.5755900  82.6884588  34.5034272  59.0618432  82.4418610
  28.6385137  56.0740627  97.5250737  29.3484755  55.4333819  97.4837355
  28.5954445  56.3253522  98.4476918  27.3514071  53.0605845  99.3446376
  26.8151428  52.6096583  99.9967973  26.7630779  53.1951754  98.6016841
  26.7616330  52.5194496  81.9072840  25.8845796  52.3983297  81.5435087
  27.2374083  51.7280574  81.6551729  18.2818470  57.3071656  92.0014347
  18.9689510  56.9933386  91.4135362  18.1266599  58.2113021  91.7281598
  23.0853192  52.1961852  96.4299371  23.0011381  51.5887522  95.6949781
  22.2635898  52.6870871  96.4308867  30.1590476  65.6349016  95.6432539
  30.0860648  66.4403988  96.1551843  29.7167869  65.8340982  94.8180560
  33.2576906  50.6815416  91.7969566  33.7545605  49.9285378  91.4770636
  32.4863887  50.7179733  91.2312775  32.6189160  65.5335851  97.7990698
  33.3317132  66.1683315  97.7266599  32.1279188  65.6299717  96.9830699
  29.8411875  52.8232799  91.5241250  29.4709662  52.2703839  92.2122156
  30.3370967  52.2190932  90.9716250  27.6701073  63.2830294  98.6196268
  28.3710533  63.9166777  98.7725663  27.1996188  63.6245026  97.8591908
  35.6995901  47.6485009  93.9448925  34.7858980  47.8789236  94.1131132
  36.1289002  47.7323454  94.7962957  35.4702359  55.8374901  96.4448819
  34.8173809  56.0850809  95.7901271  35.8482739  55.0239040  96.1111296
  32.7651698  64.8002780  87.8092037  33.2939465  64.2895234  87.1962200
  33.0279918  64.4845310  88.6737571  31.5189932  56.5794712 102.9314856
  30.8430569  56.4788842 103.6017231  32.3417566  56.4233926 103.3950853
  23.2668791  62.8166649  95.5527371  23.8522228  62.0710337  95.6855275
  23.0693630  63.1270606  96.4364035  17.8586446  55.3872249  94.2731814
  17.8970545  54.8535840  95.0668932  17.3526739  54.8607455  93.6542791
  30.2612715  67.8861640  97.1672472  30.8131023  68.0493261  97.9321557
  30.6018908  68.4766078  96.4952497  25.2377208  50.2336790  97.7694356
  25.3018535  51.0951621  97.3571754  25.1744328  49.6210791  97.0366715
  24.7129481  52.3059922 101.4167391  25.3401520  51.9237000 102.0304915
  23.8557400  52.0874124 101.7823083  35.1123589  62.7122897 103.0221126
  35.6563493  63.3252856 102.5276081  34.5310434  63.2702476 103.5388139
  21.4895024  54.1136351  87.3485746  21.7848465  53.2047030  87.2952799
  20.5883059  54.0924091  87.0266748  25.0189271  52.1892348  93.3313294
  24.2975856  52.8028316  93.1920767  25.8082526  52.7250113  93.2529940
  27.8215584  49.5246774  99.6053946  28.3449986  49.7709071 100.3680255
  27.6027917  50.3566809  99.1857083  23.2182865  51.7950449  87.4725071
  22.8895571  50.9147828  87.2900177  23.5722236  51.7398118  88.3601460
  26.3324688  52.0823419  87.8400548  26.6720761  52.6109340  87.1179157
  26.7796809  52.4203825  88.6159115  29.0268129  50.4660470  97.2903616
  28.6864949  49.6668283  97.6924296  28.3207135  50.7662180  96.7180450
  29.6784601  47.5509782  95.7430939  30.5010670  47.0770260  95.6209830
  29.9222664  48.3300266  96.2429626  28.3192835  50.5798040  86.0393841
  29.0401198  50.9579293  85.5357558  27.6958140  51.2986917  86.1428819
  32.4623958  51.2843189  86.9752174  32.6787573  52.1667827  86.6741002
  31.9818025  50.8929403  86.2457815  27.2023180  54.2428903  93.5522918
  27.0567760  54.5569206  94.4447200  26.7248383  54.8613803  92.9993817
  29.0619563  51.2331451  93.6003808  29.0481131  50.3372544  93.2636106
  29.7791991  51.2402114  94.2342094  30.9145693  51.6668791  95.6456935
  30.6563471  52.5885861  95.6441266  30.3830734  51.2699225  96.3357399
  21.6768842  56.7834247  96.4910579  21.1322310  57.5594055  96.6230854
  22.5548192  57.1305052  96.3329701  28.4656458  50.1145831  88.8691378
  28.5872370  49.1862477  89.0682265  28.1758501  50.1284517  87.9569693
  31.3347649  47.8000741  92.0058098  31.3569346  47.8640074  91.0510077
  31.7515708  46.9605250  92.1998604  22.4634864  55.9104143  99.3840736
  21.7216600  56.0586779  99.9705367  22.1427608  56.1712409  98.5207486
  30.4078526  65.4520122  99.1821126  30.7165653  65.2069268 100.0543826
  31.2054008  65.6566760  98.6939996  22.9091477  63.7969572  91.4151131
  23.7349497  63.4973344  91.0349774  22.5585529  63.0277194  91.8640919
  21.1100082  61.7155898  92.3740064  20.2731991  61.2878073  92.1924066
  21.0823728  61.9088342  93.3110856  27.9497538  51.6277828 103.0781310
  27.9985693  52.5039951 102.6959080  28.4920052  51.0855221 102.5052954
  38.4352384  62.1718952 102.3582447  37.6447927  62.1543090 101.8186947
  38.1985738  62.7107245 103.1131484  27.4386517  61.6999964  86.9607265
  27.5874638  62.3835428  86.3073938  28.2452961  61.6805054  87.4756721
  35.8454021  55.0042346 100.9874483  36.7463884  54.8648811 100.6958481
  35.9201996  55.1696801 101.9272660  30.1796826  52.3809201  99.8327669
  29.3100136  52.6742767  99.5610258  30.4156307  52.9649646 100.5534933
  25.1939150  57.7265141  87.9668334  24.9485192  56.8227471  88.1648544
  25.3635065  57.7282292  87.0247812  32.8835860  48.5988818  97.3493089
  33.4017804  49.3349845  97.0239578  32.5290993  48.9052811  98.1839849
  24.4634798  53.4593499  85.4654495  23.7704043  53.5337854  84.8094531
  24.2186550  52.6953842  85.9876012  33.1348454  45.0189100  92.8693986
  33.4150208  44.3512289  93.4954413  33.9199061  45.2118196  92.3568650
  30.9381923  64.1948094  84.4319012  30.3655890  64.8138281  83.9789484
  31.5114717  64.7447456  84.9658934  37.0057313  53.4406734  96.6165561
  37.9574736  53.5404832  96.6377785  36.8360763  52.6485003  97.1263646
  35.0271692  50.5262317  96.8024962  34.4321624  50.8067330  96.1071451
  34.7421389  51.0156218  97.5741703  31.3228721  55.5308907  81.7735065
  32.2687826  55.4015115  81.8423483  30.9442966  54.7923569  82.2504493
  39.6339879  53.4523897  95.7766144  39.1178928  52.6682354  95.5896073
  40.5179828  53.1242614  95.9412663  37.2950606  47.1964913  91.7361957
  37.0975427  46.8880001  92.6205289  37.9050312  47.9226552  91.8659887
  31.2067414  59.5826653 103.2335722  32.1270423  59.7605252 103.4275768
  31.1716997  58.6382698 103.0815421  29.5071639  53.4558883  81.7089950
  28.6003094  53.1591996  81.7852664  29.7847620  53.1588701  80.8424236
  20.4249579  54.7765247  92.1588996  20.1052363  53.9230555  91.8663370
  19.8783007  54.9913825  92.9146964  24.2029487  57.4927688  95.8758503
  24.4215496  58.4244795  95.8946537  24.6155260  57.1335662  96.6613307
  31.1233704  47.9995773  87.8634191  30.3134433  47.6542858  88.2389437
  31.8118121  47.6903317  88.4521803  33.0524253  47.0773820  89.4858488
  33.6055291  47.4969273  90.1448511  33.2894339  46.1509568  89.5281444
  29.0757352  53.0660893 105.2661252  28.9754079  54.0155250 105.1973343
  28.8578894  52.7379132 104.3937322  28.2770423  50.3145818  81.8501929
  29.1389587  50.6400717  82.1097747  28.4620767  49.5277314  81.3374995
  20.2937839  58.3968158  94.1282118  19.6001310  57.9822111  93.6152072
  21.0410830  58.4388695  93.5315537  36.4303060  49.1874345  88.9937152
  35.8501729  49.8459149  88.6115205  36.1638992  48.3651689  88.5824570
  34.8806626  48.5879403  91.1958473  35.3806404  48.6995937  90.3872791
  35.5242234  48.2840455  91.8359281  28.9388622  56.4958032 104.0826314
  28.4555704  57.2958392 104.2890203  29.0249561  56.5065977 103.1293758
  22.2074582  58.3286412  92.0048133  22.1845270  58.4274099  91.0530016
  22.5175218  59.1751563  92.3265299  24.8661959  60.3862567  96.1194747
  25.8205213  60.3546509  96.0524679  24.6674483  59.9253191  96.9344973
  25.4561342  58.9563683  98.6865545  26.2754231  59.4507762  98.7100382
  25.7298149  58.0395651  98.6583113  23.2212188  65.9282186  93.1364945
  23.0866656  65.1682587  92.5702943  22.8044250  66.6523086  92.6693734
  34.3571151  61.1119110  82.1441521  35.0607001  61.3169112  82.7599176
  33.6333800  61.6795872  82.4090604  36.2657849  61.5501639  84.1939981
  37.1003453  61.1182838  84.0117455  36.1042192  61.3783653  85.1216875
  20.7096256  53.2901817  99.3857742  21.3555119  52.7800771  99.8744967
  20.5013407  54.0270498  99.9601167  33.2349648  60.3582664 104.8849883
  34.1040808  60.5323317 104.5236518  32.7556399  61.1777081 104.7625612
  29.2299866  47.5541861  85.1381638  29.2178536  48.4983701  85.2949909
  30.1223288  47.3712007  84.8441099  27.4035828  67.4779765  96.5639316
  28.3063075  67.5103376  96.8805811  27.1773198  66.5480216  96.5785652
  33.0451986  44.1484638  89.3927575  32.2784382  43.5943125  89.5384257
  33.4562691  44.2206507  90.2541727  25.0493747  50.4369434 103.4832756
  25.9125208  50.0806239 103.6936081  24.4759157  50.0983329 104.1708161
  42.1851613  73.1733570 100.1842888  42.1740254  72.7786368  99.3123391
  42.3472252  72.4399643 100.7776659  35.1083078  75.3685386  93.0537793
  35.9004370  75.0276211  92.6384093  35.3479728  75.4780361  93.9739947
  43.1418204  77.5405162  85.5268038  42.4906184  78.1259243  85.1402052
  43.9362567  78.0711357  85.5863075  38.9058874  75.9570682  99.1322072
  38.6148740  76.8616313  99.0168738  39.5415858  75.9987209  99.8466141
  43.8648759  75.6432097  96.1271865  43.5649482  76.5457136  96.0187672
  43.5199819  75.3764281  96.9793018  38.8469539  82.4076418  89.0942833
  38.7693569  83.3584243  89.1731313  38.2431183  82.0622290  89.7517759
  41.3386769  69.5804283 101.7504200  40.5620103  70.1398203 101.7407064
  41.9777332  70.0661066 102.2719070  39.5933141  72.3889737 101.3122167
  40.3347825  72.9274780 101.0356990  38.8870127  73.0156025 101.4693719
  45.0688481  74.5318877  99.9094328  45.4771837  74.0901287  99.1648961
  44.3465742  73.9571504 100.1628521  44.5718996  67.1295852  98.9409059
  44.3279928  67.8837913  98.4043335  44.8478927  67.5081200  99.7756306
  46.5257459  73.6734464  97.6186324  46.7374354  74.3166224  96.9420706
  46.4787207  72.8396781  97.1508255  37.8369338  74.3765957  93.8676466
  38.4070695  74.8053226  93.2293950  38.4277450  74.0948542  94.5660651
  38.3294505  69.5429385 102.1137477  37.6993165  70.2245666 102.3472874
  38.2230593  69.4312466 101.1690615  47.6403287  76.5506420  95.7908682
  48.4620731  76.1486607  95.5091363  47.6365690  76.4474654  96.7424798
  41.4059890  76.0990463  97.9469392  41.4704323  76.5610870  98.7827564
  40.6970814  75.4687828  98.0751702  37.6075248  63.8450151 104.4762728
  37.2142193  63.2916349 105.1510372  38.4241388  64.1560729 104.8669245
  36.3832190  78.3999765  90.4699051  36.5598818  79.3217730  90.2820035
  37.1789024  78.0858184  90.8993431  40.5243209  65.2608030 102.0682984
  41.2652922  65.8615183 101.9887447  40.7561131  64.5185667 101.5101027
  35.6684547  70.4464397 100.3461214  35.5538062  69.5449654 100.6468313
  34.8129064  70.6928094  99.9946031  42.7476384  78.3882137 101.9448715
  42.3040238  77.6018516 101.6269619  43.4093598  78.5761288 101.2792605
  37.5063505  79.9177939  96.4709393  38.0570931  79.7895002  95.6986387
  36.6674981  80.2172828  96.1204286  44.8457622  78.6684937  99.9730116
  44.8276098  79.4893818  99.4810385  45.7677542  78.5439012 100.1980257
  41.3030677  76.1829067 100.8153624  41.8359013  75.4217355 100.5852932
  40.7744758  75.8902718 101.5577779  43.7204068  81.8392777  84.2504096
  43.0465767  82.1424473  84.8589053  44.1069890  82.6421857  83.9009553
  47.2243490  76.8414454  89.6222567  46.7705817  76.0005364  89.6787758
  46.5937457  77.4775852  89.9597347  45.6676430  78.6790950  90.5572385
  45.9599404  79.2396008  89.8384751  46.1775050  78.9719511  91.3125544
  44.0775688  69.9255369  98.5446468  44.4325076  70.1526842  99.4040933
  44.7247820  70.2573746  97.9223723  43.5670700  78.7152426  95.7940169
  43.6207722  79.2843362  96.5617885  42.6985481  78.8854311  95.4294206
  36.4469093  68.4169982  97.2764620  37.1192147  68.2087344  96.6277269
  35.6198880  68.2192068  96.8369852  45.7573463  75.3080775 102.3680834
  45.6058970  75.0791327 101.4510918  45.7478143  76.2651377 102.3812179
  41.3247131  76.9063352  95.1225638  41.1858217  76.5382137  95.9951576
  40.5361728  77.4210992  94.9509596  41.9195283  82.0072449  86.4651175
  42.0947039  81.5360492  87.2796797  41.2328071  82.6338215  86.6932435
  36.8496591  71.6912585  98.0367057  36.7116389  70.9592824  98.6378596
  37.7601514  71.6021485  97.7551245  47.4665670  78.3399898 100.4457316
  47.4078216  77.6559118  99.7787899  47.8685188  79.0818888  99.9937942
  38.1907825  68.3897762  99.3446376  37.6545182  67.9388501  99.9967973
  37.6024534  68.5243671  98.6016841  36.4856369  85.1561812  93.2391035
  36.7252967  85.7880336  93.9170053  35.6425565  84.8049852  93.5256394
  47.4683077  76.3039482  98.6771296  46.5809856  75.9665404  98.7997695
  48.0381628  75.5722513  98.9140061  29.1212224  72.6363574  92.0014347
  29.8083264  72.3225304  91.4135362  28.9660353  73.5404938  91.7281598
  40.9984231  80.9640934  95.6432539  40.9254402  81.7695906  96.1551843
  40.5561624  81.1632900  94.8180560  43.4582914  80.8627768  97.7990698
  44.1710886  81.4975233  97.7266599  42.9672943  80.9591634  96.9830699
  38.5094828  78.6122212  98.6196268  39.2104287  79.2458695  98.7725663
  38.0389943  78.9536943  97.8591908  46.6349223  76.9540161  86.9044175
  46.9109067  76.8396756  87.8138049  45.7653722  76.5557646  86.8656348
  43.2703287  81.2026512  90.5476989  43.4525682  80.3848168  91.0104741
  44.0936273  81.4194205  90.1101879  43.6045453  80.1294697  87.8092037
  44.1333219  79.6187152  87.1962200  43.8673673  79.8137228  88.6737571
  42.3583687  71.9086630 102.9314856  41.6824324  71.8080759 103.6017231
  43.1811321  71.7525844 103.3950853  34.1062546  78.1458567  95.5527371
  34.6915983  77.4002255  95.6855275  33.9087384  78.4562523  96.4364035
  36.9601201  81.1809814  90.5689813  36.2911576  81.6655942  90.0853853
  36.8214071  81.4279035  91.4833192  41.1006470  83.2153558  97.1672472
  41.6524778  83.3785179  97.9321557  41.4412663  83.8057995  96.4952497
  36.0770963  65.5628707  97.7694356  36.1412289  66.4243538  97.3571754
  36.0138083  64.9502709  97.0366715  35.5523235  67.6351840 101.4167391
  36.1795274  67.2528917 102.0304915  34.6951154  67.4166042 101.7823083
  45.9517344  78.0414815 103.0221126  46.4957248  78.6544773 102.5276081
  45.3704189  78.5994394 103.5388139  44.2374857  81.1635533  94.1536154
  44.1125996  80.3625273  93.6447099  44.8953948  81.6581727  93.6650124
  46.3009765  78.9644553  95.7815704  45.3540101  78.8449904  95.7094031
  46.6492538  78.0767051  95.8641965  38.6609339  64.8538692  99.6053946
  39.1843740  65.1000989 100.3680255  38.4421672  65.6858727  99.1857083
  46.9090320  79.5825828  93.0684929  47.8336868  79.3768690  92.9309380
  46.7405624  79.3342229  93.9774271  46.6985637  80.1011496  88.4247020
  46.8722514  79.5357918  87.6720873  47.1914528  80.9012391  88.2426510
  32.5162596  72.1126165  96.4910579  31.9716064  72.8885973  96.6230854
  33.3941946  72.4596969  96.3329701  47.6860809  79.4178260  85.5243919
  48.3811714  80.0384953  85.7431233  48.0283959  78.5673611  85.7996297
  33.3028618  71.2396061  99.3840736  32.5610354  71.3878696  99.9705367
  32.9821362  71.5004327  98.5207486  41.2472281  80.7812039  99.1821126
  41.5559407  80.5361186 100.0543826  42.0447763  80.9858678  98.6939996
  41.2692893  82.9349949  91.4126503  40.8297883  82.4426328  92.1059359
  42.0201010  82.3922917  91.1718578  33.7485232  79.1261490  91.4151131
  34.5743252  78.8265262  91.0349774  33.3979284  78.3569112  91.8640919
  38.7166765  78.4787958  93.4848804  38.0946774  77.8158663  93.1851032
  39.3871632  78.5049090  92.8022452  31.9493837  77.0447816  92.3740064
  31.1125745  76.6169991  92.1924066  31.9217482  77.2380260  93.3110856
  38.7891293  66.9569746 103.0781310  38.8379448  67.8331869 102.6959080
  39.3313807  66.4147139 102.5052954  49.2746138  77.5010869 102.3582447
  48.4841682  77.4835008 101.8186947  49.0379493  78.0399163 103.1131484
  38.2780272  77.0291881  86.9607265  38.4268392  77.7127346  86.3073938
  39.0846715  77.0096971  87.4756721  41.0190581  67.7101118  99.8327669
  40.1493890  68.0034684  99.5610258  41.2550061  68.2941563 100.5534933
  50.8962210  76.7700277  99.9157198  50.6047018  77.1330258 100.7520659
  50.2834341  76.0567285  99.7370530  41.7775677  79.5240012  84.4319012
  41.2049645  80.1430199  83.9789484  42.3508471  80.0739373  84.9658934
  44.9972937  79.8077162  85.5627595  45.9303610  79.7422724  85.7660470
  44.9096150  80.6433429  85.1042127  42.0461168  74.9118571 103.2335722
  42.9664178  75.0897170 103.4275768  42.0110752  73.9674616 103.0815421
  35.0423241  72.8219605  95.8758503  35.2609251  73.7536713  95.8946537
  35.4549015  72.4627580  96.6613307  39.9151106  68.3952811 105.2661252
  39.8147833  69.3447168 105.1973343  39.6972648  68.0671050 104.3937322
  31.1331593  73.7260076  94.1282118  30.4395065  73.3114029  93.6152072
  31.8804584  73.7680612  93.5315537  39.7782376  71.8249950 104.0826314
  39.2949458  72.6250310 104.2890203  39.8643315  71.8357895 103.1293758
  35.7055714  75.7154485  96.1194747  36.6598967  75.6838427  96.0524679
  35.5068237  75.2545108  96.9344973  36.2955096  74.2855601  98.6865545
  37.1147985  74.7799679  98.7100382  36.5691904  73.3687569  98.6583113
  34.0605943  81.2574104  93.1364945  33.9260411  80.4974505  92.5702943
  33.6438005  81.9815004  92.6693734  37.2175069  82.1543421  93.3483388
  37.1007453  83.0988854  93.2462078  36.3967515  81.8516983  93.7369187
  31.5490010  68.6193734  99.3857742  32.1948874  68.1092688  99.8744967
  31.3407161  69.3562416  99.9601167  44.0743402  75.6874582 104.8849883
  44.9434562  75.8615234 104.5236518  43.5950154  76.5068999 104.7625612
  38.2429583  82.8071683  96.5639316  39.1456829  82.8395293  96.8805811
  38.0166953  81.8772134  96.5785652  39.9983185  81.5602670  93.2249395
  39.0478816  81.5604531  93.1113767  40.3015671  80.8135404  92.7085430
  35.8887501  65.7661352 103.4832756  36.7518963  65.4098156 103.6936081
  35.3152912  65.4275246 104.1708161  55.7335878  87.3963208  94.2895157
  56.3714288  87.2769955  93.5858497  55.6156721  88.3444052  94.3483109
  52.5425584  87.3490636  94.2256682  52.2044096  87.2331701  93.3377217
  53.4115353  86.9481801  94.2057688  48.4012400  89.2026112  90.2153573
  47.8377265  89.1116049  89.4469861  48.2864795  88.3826017  90.6956065
  53.0245367  88.5025488 100.1842888  53.0134008  88.1078286  99.3123391
  53.1866007  87.7691560 100.7776659  45.9476832  90.6977304  93.0537793
  46.7398124  90.3568129  92.6384093  46.1873482  90.8072279  93.9739947
  53.9811959  92.8697080  85.5268038  53.3299939  93.4551161  85.1402052
  54.7756322  93.4003275  85.5863075  47.9067586  89.9586217  85.9255172
  48.6798462  89.4115204  85.7868048  48.2592985  90.8230467  86.1369634
  49.7452629  91.2862600  99.1322072  49.4542495  92.1908230  99.0168738
  50.3809613  91.3279127  99.8466141  50.6708835  88.6639448  95.7223431
  51.2672408  88.4395470  95.0080394  50.7283807  87.9224194  96.3248879
  50.2433864  86.1178883  83.5573622  50.4959385  85.5960405  82.7957085
  49.3058423  85.9545029  83.6600306  55.2877147  85.1214662  91.3648365
  56.0740236  84.7034085  91.0138782  55.5515851  86.0260754  91.5330014
  55.4587224  90.5587512  86.0637022  54.8233057  90.6322139  86.7757927
  55.1284630  91.1481111  85.3856101  60.6885574  85.0589895  92.2681344
  61.4210746  84.4889112  92.5019173  59.9324930  84.6711495  92.7087849
  49.9630153  88.0206989  85.7597997  49.8466411  87.3451893  86.4279081
  50.0732412  87.5339363  84.9430150  52.3061694  87.4817136  89.4644686
  51.9419901  86.9547757  90.1757608  53.1628809  87.0915606  89.2911172
  58.2110994  78.7711469  96.7275952  57.8794319  79.6406880  96.5037167
  57.6156608  78.4547753  97.4069983  51.9467181  82.5107036  84.4606035
  52.1141583  83.3787273  84.8276506  51.7564350  82.6734318  83.5367324
  54.7042514  90.9724015  96.1271865  54.4043237  91.8749054  96.0187672
  54.3593573  90.7056198  96.9793018  48.1554995  87.4237812  92.1608570
  47.2305492  87.2914026  92.3686261  48.4039408  88.2032031  92.6578512
  58.1039657  83.4906555  93.8069303  57.1956535  83.4221964  93.5128063
  58.0527253  83.9678500  94.6351128  51.9256401  84.9664694  85.4452702
  51.8056027  85.4121744  86.2838182  51.2308990  85.3150011  84.8866240
  45.5163806  87.0671085  92.9952359  45.6456187  87.3205564  93.9091770
  44.8361258  87.6598793  92.6757014  49.6863294  97.7368335  89.0942833
  49.6087323  98.6876160  89.1731313  49.0824937  97.3914208  89.7517759
  52.1780523  84.9096201 101.7504200  51.4013857  85.4690121 101.7407064
  52.8171086  85.3952984 102.2719070  59.9701304  81.6922994  95.5847176
  59.3275684  81.9855527  94.9386971  59.4656232  81.5775914  96.3900373
  57.6241468  85.4386167  86.2733036  58.5359324  85.6713554  86.0980733
  57.1151115  86.0223211  85.7108114  50.4326896  87.7181654 101.3122167
  51.1741580  88.2566698 101.0356990  49.7263881  88.3447943 101.4693719
  55.9082235  89.8610795  99.9094328  56.3165591  89.4193205  99.1648961
  55.1859497  89.2863422 100.1628521  52.2613305  84.7983401  97.2827885
  53.1074500  85.2222815  97.4262534  52.2011943  84.1417026  97.9766448
  56.2311050  90.4211985  93.6646617  55.6019912  90.5857699  92.9622685
  55.8436712  90.8353595  94.4357581  60.1100282  91.3566423  91.0190981
  59.4251320  91.7365324  90.4688014  60.1944131  91.9661750  91.7522929
  55.4112751  82.4587770  98.9409059  55.1673682  83.2129830  98.4043335
  55.6872681  82.8373117  99.7756306  57.3651213  89.0026382  97.6186324
  57.5768109  89.6458142  96.9420706  57.3180962  88.1688699  97.1508255
  54.9677442  81.6144203  94.5222897  54.1061921  81.9125456  94.8139634
  54.9939877  81.8314602  93.5903929  51.7839012  90.1586393  90.9296702
  52.2477357  90.4374096  90.1401325  51.5195810  89.2569838  90.7469793
  48.6763093  89.7057875  93.8676466  49.2464450  90.1345143  93.2293950
  49.2671205  89.4240460  94.5660651  50.7207898  86.2809546  87.7386267
  51.4231941  86.7330589  88.2060194  50.3888526  85.6393365  88.3666161
  49.1688259  84.8721302 102.1137477  48.5386920  85.5537583 102.3472874
  49.0624347  84.7604384 101.1690615  44.4633232  84.5393098  93.0403401
  43.6732286  84.7950627  92.5643512  44.9544479  85.3541436  93.1455442
  58.4797041  91.8798338  95.7908682  59.3014485  91.4778525  95.5091363
  58.4759444  91.7766572  96.7424798  46.4147977  84.9037678  89.9986878
  45.6179140  85.0156372  90.5170373  46.1873569  85.2424330  89.1327768
  52.2453645  91.4282381  97.9469392  52.3098077  91.8902788  98.7827564
  51.5364569  90.7979746  98.0751702  42.7470935  84.7923589  95.4718392
  42.9978973  85.6770599  95.7375968  43.2830483  84.6128190  94.6993484
  66.5703034  88.2237086  92.1393653  65.8166743  87.6544484  91.9837658
  66.7050576  88.1899751  93.0864288  51.9601662  93.0950488  87.8148373
  51.8247337  93.9402024  88.2433220  52.5011475  93.2969766  87.0514306
  48.4469002  79.1742068 104.4762728  48.0535948  78.6208267 105.1510372
  49.2635142  79.4852647 104.8669245  45.4131060  90.6125926  88.3876298
  45.9255580  91.4069177  88.5381862  46.0653773  89.9152217  88.3209899
  47.2225945  93.7291683  90.4699051  47.3992573  94.6509647  90.2820035
  48.0182778  93.4150102  90.8993431  51.3636963  80.5899947 102.0682984
  52.1046676  81.1907100 101.9887447  51.5954886  79.8477585 101.5101027
  46.5078301  85.7756315 100.3461214  46.3931816  84.8741572 100.6468313
  45.6522819  86.0220011  99.9946031  53.5870139  93.7174055 101.9448715
  53.1433993  92.9310433 101.6269619  54.2487352  93.9053205 101.2792605
  48.3457260  95.2469856  96.4709393  48.8964685  95.1186920  95.6986387
  47.5068736  95.5464745  96.1204286  55.6851377  93.9976855  99.9730116
  55.6669852  94.8185736  99.4810385  56.6071297  93.8730930 100.1980257
  52.1424431  91.5120984 100.8153624  52.6752768  90.7509272 100.5852932
  51.6138512  91.2194636 101.5577779  43.3779977  88.9414581  89.1635868
  44.2155199  89.3511589  88.9469576  43.5558244  88.0014023  89.1336062
  55.2744409  86.6089661  84.8519701  54.7591032  87.3794266  85.0908089
  55.0021717  85.9354798  85.4752763  52.8591520  81.4539362  89.9104940
  52.0033116  81.0646213  89.7310578  53.2718472  81.5331323  89.0504725
  54.3890666  78.9885705  94.3096499  53.8855462  78.9515841  93.4964305
  54.6821273  79.8978448  94.3693156  50.6333552  79.0724435  93.3162681
  51.4986549  78.8767244  92.9568571  50.7011061  78.8434787  94.2432038
  60.2478683  89.3622016  86.7872875  59.4708126  89.0233175  86.3428037
  60.9270164  89.3674639  86.1127840  55.0630712  84.4816753  86.6779482
  54.7580847  84.7962903  87.5289626  56.0161154  84.5598173  86.7206815
  53.5077144  90.6406977  88.3272436  52.9798505  89.9059736  88.0145674
  53.0064646  91.4181653  88.0812405  58.4869990  88.8355997  93.4439483
  57.8293664  89.5255259  93.5319611  59.2910389  89.2252429  93.7873469
  48.2395871  81.3026643  90.6879048  48.8139623  81.0801825  89.9552241
  48.8266854  81.3715338  91.4407649  57.2975449  87.1900370  91.4943424
  57.8107330  87.8230362  91.9965134  57.9476672  86.5901565  91.1286784
  48.5665458  83.3331104  84.7074933  47.7302771  83.6705791  85.0284208
  48.4270228  83.1980084  83.7702070  50.5418539  78.1767892  89.4154117
  49.8882951  77.8616909  88.7910732  50.4999013  77.5543632  90.1413940
  51.6529744  88.4587187  81.3307409  50.7456806  88.2276440  81.5298558
  52.1500776  87.6624806  81.5181391  54.5597823  97.1684694  84.2504096
  53.8859522  97.4716391  84.8589053  54.9463645  97.9713775  83.9009553
  53.7756279  84.6649825  93.7401765  52.8578841  84.8864772  93.5823453
  54.1916423  84.7396136  92.8813472  54.5591327  86.0641241  88.8704445
  55.3063146  86.5762638  88.5611567  54.8282917  85.7425294  89.7308839
  52.8317977  88.5599782  85.8531399  51.9229197  88.2758815  85.9503869
  52.8613061  88.9798860  84.9934706  58.0637245  92.1706371  89.6222567
  57.6099572  91.3297281  89.6787758  57.4331211  92.8067770  89.9597347
  57.0070164  83.0998357  90.8523234  56.2692921  82.5875744  91.1833477
  57.2596938  82.6598739  90.0406511  56.5070184  94.0082868  90.5572385
  56.7993158  94.5687925  89.8384751  57.0168805  94.3011429  91.3125544
  43.4006148  86.2805296  89.8346602  43.2030548  85.6874657  89.1097668
  42.8452812  85.9757506  90.5522540  51.3802871  86.1728402  91.9541195
  51.4351481  85.2202239  91.8783671  50.5694073  86.3287842  92.4382493
  52.5294065  90.1008526  83.1919478  52.0913495  89.3844384  82.7325115
  53.2704506  90.3284640  82.6304569  49.3195231  84.7905462  89.7131574
  48.5063097  85.0899633  90.1196766  49.8154225  84.3961151  90.4306056
  51.4703809  94.7863219  91.6465838  51.4279988  95.0124065  90.7174370
  52.3866508  94.5526594  91.7951640  54.9169443  85.2547287  98.5446468
  55.2718831  85.4818760  99.4040933  55.5641574  85.5865663  97.9223723
  60.6467180  88.3765723  89.2495797  60.5085079  88.5667319  88.3216986
  60.2903399  89.1385105  89.7063848  48.8109306  82.3623818  95.3292809
  49.4508685  82.2212577  94.6315772  47.9786837  82.0758331  94.9531411
  60.6736560  90.4442250  94.2607068  61.1073066  90.3517539  95.1090122
  61.3868140  90.4199750  93.6227084  49.5869610  91.6626248  91.4427801
  50.3810208  91.1676568  91.2410376  48.8761302  91.1344111  91.0795507
  54.4064454  94.0444344  95.7940169  54.4601477  94.6135280  96.5617885
  53.5379236  94.2146229  95.4294206  45.8952373  85.8069330  87.5187554
  44.9649962  85.7453785  87.7357516  45.9909845  85.2845283  86.7224195
  45.8137922  82.3324143  90.1065795  46.0744740  83.2469476  89.9974956
  46.6355095  81.8648585  90.2562408  47.2862848  83.7461900  97.2764620
  47.9585901  83.5379262  96.6277269  46.4592634  83.5483986  96.8369852
  61.5352109  90.4865950  96.7939954  61.7287999  91.3911761  97.0399228
  61.4352727  90.0273369  97.6278539  53.1888420  80.3723841  99.2930281
  52.5416335  81.0713790  99.1994757  53.9589435  80.8059985  99.6606529
  56.5967218  90.6372693 102.3680834  56.4452724  90.4083245 101.4510918
  56.5871897  91.5943294 102.3812179  53.3652554  88.2104606  97.3527101
  54.2944614  88.3615765  97.1796068  52.9443584  88.2988627  96.4975747
  52.1640886  92.2355270  95.1225638  52.0251972  91.8674055  95.9951576
  51.3755482  92.7502910  94.9509596  52.7589038  97.3364367  86.4651175
  52.9340794  96.8652410  87.2796797  52.0721826  97.9630133  86.6932435
  53.7146101  91.6136873  92.5114476  53.3795934  91.5737643  93.4072126
  53.2150047  90.9481589  92.0384886  47.6890345  87.0204503  98.0367057
  47.5510143  86.2884742  98.6378596  48.5995269  86.9313403  97.7551245
  56.6505293  88.9592907  82.7851536  56.0334463  88.2339735  82.6884588
  56.1821781  89.7202267  82.4418610  50.3172646  86.7324462  97.5250737
  51.0272264  86.0917654  97.4837355  50.2741954  86.9837357  98.4476918
  58.3059424  93.6691816 100.4457316  58.2471971  92.9851036  99.7787899
  58.7078943  94.4110806  99.9937942  49.0301580  83.7189680  99.3446376
  48.4938937  83.2680419  99.9967973  48.4418288  83.8535589  98.6016841
  47.3250123 100.4853729  93.2391035  47.5646721 101.1172254  93.9170053
  46.4819320 100.1341769  93.5256394  48.4403839  83.1778332  81.9072840
  47.5633305  83.0567132  81.5435087  48.9161592  82.3864410  81.6551729
  58.3076832  91.6331399  98.6771296  57.4203610  91.2957321  98.7997695
  58.8775383  90.9014431  98.9140061  39.9605979  87.9655491  92.0014347
  40.6477019  87.6517221  91.4135362  39.8054107  88.8696856  91.7281598
  44.7640701  82.8545688  96.4299371  44.6798890  82.2471357  95.6949781
  43.9423407  83.3454706  96.4308867  51.8377985  96.2932852  95.6432539
  51.7648157  97.0987823  96.1551843  51.3955378  96.4924818  94.8180560
  51.6267765  95.5304622  89.1535360  50.8435287  96.0726302  89.2473585
  52.3260510  96.0478602  89.5529602  54.9364415  81.3399251  91.7969566
  55.4333114  80.5869214  91.4770636  54.1651396  81.3763568  91.2312775
  62.7894172  87.0439617  93.4387857  62.7784048  87.9264332  93.0681790
  61.9211552  86.6911168  93.2442394  54.2976669  96.1919686  97.7990698
  55.0104641  96.8267151  97.7266599  53.8066697  96.2883552  96.9830699
  56.0194196  90.0970939  89.3707989  55.0850474  90.2172401  89.2012694
  56.1970864  89.1943405  89.1067999  51.5199384  83.4816634  91.5241250
  51.1497171  82.9287675  92.2122156  52.0158476  82.8774768  90.9716250
  59.4066747  85.9388258  89.9058023  59.8727199  86.7716249  89.8318326
  59.8574247  85.4733239  90.6103282  49.3488582  93.9414129  98.6196268
  50.0498042  94.5750612  98.7725663  48.8783697  94.2828861  97.8591908
  57.4742978  92.2832079  86.9044175  57.7502822  92.1688674  87.8138049
  56.6047477  91.8849564  86.8656348  57.1489868  86.4958737  96.4448819
  56.4961318  86.7434644  95.7901271  57.5270248  85.6822875  96.1111296
  54.1097042  96.5318430  90.5476989  54.2919437  95.7140086  91.0104741
  54.9330028  96.7486122  90.1101879  54.4439207  95.4586615  87.8092037
  54.9726974  94.9479070  87.1962200  54.7067427  95.1429145  88.6737571
  53.1977441  87.2378548 102.9314856  52.5218078  87.1372677 103.6017231
  54.0205075  87.0817762 103.3950853  44.9456300  93.4750484  95.5527371
  45.5309737  92.7294172  95.6855275  44.7481139  93.7854441  96.4364035
  47.7994955  96.5101732  90.5689813  47.1305331  96.9947859  90.0853853
  47.6607825  96.7570952  91.4833192  39.5373955  86.0456085  94.2731814
  39.5758054  85.5119675  95.0668932  39.0314248  85.5191290  93.6542791
  51.9400224  98.5445475  97.1672472  52.4918532  98.7077097  97.9321557
  52.2806417  99.1349913  96.4952497  46.9164717  80.8920625  97.7694356
  46.9806044  81.7535456  97.3571754  46.8531837  80.2794627  97.0366715
  46.3916990  82.9643758 101.4167391  47.0189029  82.5820835 102.0304915
  45.5344909  82.7457960 101.7823083  56.7911098  93.3706733 103.0221126
  57.3351002  93.9836691 102.5276081  56.2097943  93.9286311 103.5388139
  43.1682533  84.7720187  87.3485746  43.4635974  83.8630865  87.2952799
  42.2670568  84.7507926  87.0266748  55.0768611  96.4927451  94.1536154
  54.9519751  95.6917191  93.6447099  55.7347702  96.9873644  93.6650124
  46.6976780  82.8476183  93.3313294  45.9763365  83.4612151  93.1920767
  47.4870035  83.3833948  93.2529940  57.1403520  94.2936471  95.7815704
  56.1933855  94.1741822  95.7094031  57.4886293  93.4058969  95.8641965
  49.5003093  80.1830610  99.6053946  50.0237495  80.4292906 100.3680255
  49.2815426  81.0150645  99.1857083  44.8970374  82.4534284  87.4725071
  44.5683080  81.5731663  87.2900177  45.2509745  82.3981953  88.3601460
  54.1449953  94.0889187  91.9820056  53.9974915  93.1605895  92.1627626
  54.9703446  94.1109278  91.4977132  48.0112197  82.7407254  87.8400548
  48.3508270  83.2693175  87.1179157  48.4584318  83.0787660  88.6159115
  57.7484075  94.9117746  93.0684929  58.6730622  94.7060607  92.9309380
  57.5799378  94.6634147  93.9774271  50.7055638  81.1244305  97.2903616
  50.3652458  80.3252118  97.6924296  49.9994644  81.4246016  96.7180450
  51.3572110  78.2093617  95.7430939  52.1798179  77.7354096  95.6209830
  51.6010173  78.9884101  96.2429626  49.9980344  81.2381876  86.0393841
  50.7188707  81.6163129  85.5357558  49.3745649  81.9570753  86.1428819
  54.1411467  81.9427025  86.9752174  54.3575082  82.8251663  86.6741002
  53.6605534  81.5513238  86.2457815  48.8810689  84.9012738  93.5522918
  48.7355269  85.2153041  94.4447200  48.4035892  85.5197638  92.9993817
  50.7407072  81.8915286  93.6003808  50.7268640  80.9956379  93.2636106
  51.4579500  81.8985950  94.2342094  52.5933202  82.3252626  95.6456935
  52.3350980  83.2469697  95.6441266  52.0618243  81.9283061  96.3357399
  57.5379391  95.4303413  88.4247020  57.7116269  94.8649836  87.6720873
  58.0308282  96.2304308  88.2426510  43.3556351  87.4418082  96.4910579
  42.8109819  88.2177890  96.6230854  44.2335701  87.7888887  96.3329701
  50.1443967  80.7729666  88.8691378  50.2659879  79.8446312  89.0682265
  49.8546010  80.7868352  87.9569693  53.0135158  78.4584577  92.0058098
  53.0356855  78.5223910  91.0510077  53.4303217  77.6189085  92.1998604
  63.3918782  88.1939836  90.0437320  63.8349928  87.4447161  89.6456443
  62.5145292  88.1849973  89.6611052  58.5254564  94.7470178  85.5243919
  59.2205468  95.3676870  85.7431233  58.8677714  93.8965529  85.7996297
  44.1422373  86.5687979  99.3840736  43.4004109  86.7170614  99.9705367
  43.8215117  86.8296244  98.5207486  52.0866035  96.1103957  99.1821126
  52.3953162  95.8653104 100.0543826  52.8841517  96.3150595  98.6939996
  52.1086647  98.2641867  91.4126503  51.6691638  97.7718245  92.1059359
  52.8594764  97.7214834  91.1718578  44.5878986  94.4553407  91.4151131
  45.4137006  94.1557179  91.0349774  44.2373038  93.6861030  91.8640919
  49.5560520  93.8079876  93.4848804  48.9340529  93.1450581  93.1851032
  50.2265386  93.8341007  92.8022452  42.7887591  92.3739734  92.3740064
  41.9519500  91.9461908  92.1924066  42.7611237  92.5672177  93.3110856
  49.6285047  82.2861664 103.0781310  49.6773202  83.1623786 102.6959080
  50.1707561  81.7439057 102.5052954  60.1139893  92.8302787 102.3582447
  59.3235436  92.8126926 101.8186947  59.8773247  93.3691081 103.1131484
  60.2337768  89.6795253  99.6715176  60.2835773  89.5145261 100.6130699
  60.1251691  88.8122512  99.2813057  49.1174026  92.3583799  86.9607265
  49.2662147  93.0419263  86.3073938  49.9240470  92.3388889  87.4756721
  57.5241530  85.6626181 100.9874483  58.4251393  85.5232646 100.6958481
  57.5989505  85.8280636 101.9272660  51.8584335  83.0393036  99.8327669
  50.9887645  83.3326602  99.5610258  52.0943816  83.6233481 100.5534933
  61.7355965  92.0992195  99.9157198  61.4440773  92.4622175 100.7520659
  61.1228096  91.3859203  99.7370530  62.9351647  89.6645075  92.4359768
  63.7698538  90.1034879  92.5997328  63.0710776  89.1883728  91.6168014
  59.9843153  87.2224809  98.3837256  60.4597274  87.4152456  97.5756107
  59.0608718  87.2783995  98.1380639  46.8726659  88.3848977  87.9668334
  46.6272701  87.4811307  88.1648544  47.0422574  88.3866127  87.0247812
  54.5623369  79.2572653  97.3493089  55.0805313  79.9933680  97.0239578
  54.2078502  79.5636646  98.1839849  46.1422307  84.1177334  85.4654495
  45.4491552  84.1921689  84.8094531  45.8974059  83.3537678  85.9876012
  52.6169432  94.8531929  84.4319012  52.0443399  95.4722117  83.9789484
  53.1902226  95.4031291  84.9658934  58.6844822  84.0990569  96.6165561
  59.6362245  84.1988667  96.6377785  58.5148272  83.3068838  97.1263646
  56.7059201  81.1846153  96.8024962  56.1109133  81.4651165  96.1071451
  56.4208898  81.6740054  97.5741703  55.8366692  95.1369080  85.5627595
  56.7697365  95.0714641  85.7660470  55.7489905  95.9725346  85.1042127
  58.4654708  94.4534950  82.5231542  58.3868340  94.1194813  83.4167300
  59.2864375  94.9456718  82.5223015  61.1632900  87.3196689  95.7307861
  61.1309220  86.3812690  95.9167545  61.7733523  87.3980726  94.9973686
  53.0016230  86.1892742  81.7735065  53.9475335  86.0598950  81.8423483
  52.6230475  85.4507404  82.2504493  61.3127388  84.1107733  95.7766144
  60.7966437  83.3266189  95.5896073  62.1967337  83.7826449  95.9412663
  66.9809449  88.3812696  94.8713898  67.7112838  88.1197984  95.4321601
  66.3716395  87.6441418  94.9115966  65.0624747  86.5220559  95.4688349
  64.3357910  86.3876524  94.8604840  64.6472033  86.8297387  96.2745067
  52.8854923  90.2410488 103.2335722  53.8057932  90.4189087 103.4275768
  52.8504506  89.2966534 103.0815421  51.1859148  84.1142719  81.7089950
  50.2790603  83.8175831  81.7852664  51.4635129  83.8172537  80.8424236
  42.1037088  85.4349082  92.1588996  41.7839872  84.5814390  91.8663370
  41.5570516  85.6497660  92.9146964  45.8816996  88.1511523  95.8758503
  46.1003005  89.0828631  95.8946537  46.2942769  87.7919497  96.6613307
  50.7544861  83.7244729 105.2661252  50.6541588  84.6739086 105.1973343
  50.5366403  83.3962968 104.3937322  41.9725348  89.0551993  94.1282118
  41.2788819  88.6405946  93.6152072  42.7198339  89.0972530  93.5315537
  58.1090569  79.8458180  88.9937152  57.5289238  80.5042984  88.6115205
  57.8426501  79.0235525  88.5824570  50.6176131  87.1541868 104.0826314
  50.1343213  87.9542228 104.2890203  50.7037070  87.1649812 103.1293758
  43.8862091  88.9870247  92.0048133  43.8632779  89.0857934  91.0530016
  44.1962727  89.8335398  92.3265299  46.5449468  91.0446402  96.1194747
  47.4992722  91.0130345  96.0524679  46.3461992  90.5837026  96.9344973
  47.1348851  89.6147518  98.6865545  47.9541740  90.1091597  98.7100382
  47.4085658  88.6979486  98.6583113  56.8915447  82.0058271  88.0493501
  56.0041302  82.2907921  87.8313695  57.3069436  81.8452034  87.2020777
  60.2429983  82.0304792  91.7647840  61.0190373  82.5201244  92.0372457
  59.5178117  82.4562846  92.2219709  62.6802541  82.7432411  92.8221780
  63.2747032  82.5028147  92.1115089  62.7529125  82.0239541  93.4495317
  44.8999697  96.5866022  93.1364945  44.7654165  95.8266423  92.5702943
  44.4831759  97.3106922  92.6693734  56.0358660  91.7702945  82.1441521
  56.7394510  91.9752948  82.7599176  55.3121309  92.3379707  82.4090604
  56.8656470  87.5212807  88.2643791  56.8091672  87.9781358  87.4251423
  57.4184813  86.7603491  88.0866633  60.6761276  83.3102538  89.0893910
  60.4198211  82.9099174  89.9202118  60.0514144  84.0246332  88.9644049
  64.9873614  86.0498612  91.5965202  64.4273172  86.1191801  92.3696764
  64.3817118  85.8739596  90.8764698  48.0568823  97.4835339  93.3483388
  47.9401207  98.4280771  93.2462078  47.2361269  97.1808900  93.7369187
  57.9445358  92.2085474  84.1939981  58.7790962  91.7766673  84.0117455
  57.7829701  92.0367488  85.1216875  57.5991250  88.7117588  85.5596320
  57.5440054  88.5461859  84.6184764  56.9737305  89.4193621  85.7158510
  42.3883765  83.9485652  99.3857742  43.0342628  83.4384606  99.8744967
  42.1800916  84.6854334  99.9601167  54.9137157  91.0166500 104.8849883
  55.7828317  91.1907152 104.5236518  54.4343908  91.8360916 104.7625612
  49.0823337  98.1363601  96.5639316  49.9850584  98.1687211  96.8805811
  48.8560707  97.2064052  96.5785652  50.8376939  96.8894587  93.2249395
  49.8872570  96.8896449  93.1113767  51.1409425  96.1427322  92.7085430
  46.7281256  81.0953269 103.4832756  47.5912717  80.7390074 103.6936081
  46.1546666  80.7567164 104.1708161  66.5729633 102.7255126  94.2895157
  67.2108043 102.6061873  93.5858497  66.4550476 103.6735970  94.3483109
  63.3819339 102.6782554  94.2256682  63.0437850 102.5623618  93.3377217
  64.2509107 102.2773719  94.2057688  59.2406155 104.5318030  90.2153573
  58.6771020 104.4407967  89.4469861  59.1258550 103.7117935  90.6956065
  63.8639122 103.8317405 100.1842888  63.8527763 103.4370204  99.3123391
  64.0259761 103.0983478 100.7776659  56.7870587 106.0269222  93.0537793
  57.5791879 105.6860046  92.6384093  57.0267237 106.1364197  93.9739947
  64.8205713 108.1988998  85.5268038  64.1693693 108.7843078  85.1402052
  65.6150076 108.7295193  85.5863075  58.7461341 105.2878135  85.9255172
  59.5192217 104.7407122  85.7868048  59.0986739 106.1522384  86.1369634
  60.5846383 106.6154517  99.1322072  60.2936249 107.5200148  99.0168738
  61.2203367 106.6571045  99.8466141  61.5102590 103.9931366  95.7223431
  62.1066162 103.7687388  95.0080394  61.5677561 103.2516111  96.3248879
  61.0827618 101.4470801  83.5573622  61.3353139 100.9252322  82.7957085
  60.1452177 101.2836947  83.6600306  66.1270901 100.4506579  91.3648365
  66.9133990 100.0326003  91.0138782  66.3909606 101.3552672  91.5330014
  71.5279328 100.3881813  92.2681344  72.2604500  99.8181029  92.5019173
  70.7718684 100.0003413  92.7087849  60.8023907 103.3498907  85.7597997
  60.6860165 102.6743810  86.4279081  60.9126167 102.8631281  84.9430150
  63.1455448 102.8109054  89.4644686  62.7813655 102.2839675  90.1757608
  64.0022564 102.4207523  89.2911172  69.0504749  94.1003387  96.7275952
  68.7188073  94.9698798  96.5037167  68.4550362  93.7839671  97.4069983
  62.7860935  97.8398954  84.4606035  62.9535337  98.7079190  84.8276506
  62.5958104  98.0026236  83.5367324  65.5436268 106.3015933  96.1271865
  65.2436991 107.2040972  96.0187672  65.1987328 106.0348116  96.9793018
  58.9948750 102.7529730  92.1608570  58.0699246 102.6205944  92.3686261
  59.2433163 103.5323949  92.6578512  68.9433412  98.8198473  93.8069303
  68.0350289  98.7513881  93.5128063  68.8921008  99.2970418  94.6351128
  56.3557561 102.3963003  92.9952359  56.4849942 102.6497482  93.9091770
  55.6755012 102.9890711  92.6757014  60.5257048 113.0660253  89.0942833
  60.4481078 114.0168078  89.1731313  59.9218692 112.7206126  89.7517759
  63.0174278 100.2388119 101.7504200  62.2407612 100.7982039 101.7407064
  63.6564841 100.7244901 102.2719070  61.2720650 103.0473572 101.3122167
  62.0135334 103.5858616 101.0356990  60.5657636 103.6739861 101.4693719
  66.7475990 105.1902712  99.9094328  67.1559346 104.7485123  99.1648961
  66.0253251 104.6155340 100.1628521  63.1007060 100.1275319  97.2827885
  63.9468255 100.5514733  97.4262534  63.0405697  99.4708943  97.9766448
  67.0704804 105.7503903  93.6646617  66.4413667 105.9149617  92.9622685
  66.6830466 106.1645513  94.4357581  70.9494036 106.6858341  91.0190981
  70.2645074 107.0657242  90.4688014  71.0337886 107.2953667  91.7522929
  66.2506505  97.7879687  98.9409059  66.0067437  98.5421748  98.4043335
  66.5266436  98.1665035  99.7756306  68.2044968 104.3318300  97.6186324
  68.4161863 104.9750060  96.9420706  68.1574716 103.4980616  97.1508255
  65.8071197  96.9436120  94.5222897  64.9455676  97.2417374  94.8139634
  65.8333631  97.1606519  93.5903929  62.6232766 105.4878311  90.9296702
  63.0871112 105.7666014  90.1401325  62.3589564 104.5861756  90.7469793
  59.5156847 105.0349793  93.8676466  60.0858204 105.4637061  93.2293950
  60.1064959 104.7532377  94.5660651  61.5601652 101.6101463  87.7386267
  62.2625696 102.0622507  88.2060194  61.2282281 100.9685282  88.3666161
  60.0082014 100.2013220 102.1137477  59.3780674 100.8829501 102.3472874
  59.9018102 100.0896302 101.1690615  55.3026986  99.8685016  93.0403401
  54.5126040 100.1242545  92.5643512  55.7938234 100.6833354  93.1455442
  69.3190796 107.2090255  95.7908682  70.1408240 106.8070443  95.5091363
  69.3153199 107.1058489  96.7424798  57.2541732 100.2329595  89.9986878
  56.4572895 100.3448290  90.5170373  57.0267324 100.5716248  89.1327768
  63.0847399 106.7574299  97.9469392  63.1491832 107.2194706  98.7827564
  62.3758323 106.1271663  98.0751702  53.5864689 100.1215507  95.4718392
  53.8372728 101.0062516  95.7375968  54.1224238  99.9420108  94.6993484
  62.7995417 108.4242406  87.8148373  62.6641092 109.2693942  88.2433220
  63.3405229 108.6261684  87.0514306  59.2862757  94.5033986 104.4762728
  58.8929702  93.9500184 105.1510372  60.1028897  94.8144564 104.8669245
  56.2524814 105.9417844  88.3876298  56.7649335 106.7361094  88.5381862
  56.9047527 105.2444135  88.3209899  58.0619699 109.0583600  90.4699051
  58.2386327 109.9801565  90.2820035  58.8576533 108.7442020  90.8993431
  62.2030718  95.9191865 102.0682984  62.9440431  96.5199018 101.9887447
  62.4348640  95.1769503 101.5101027  57.3472056 101.1048232 100.3461214
  57.2325571 100.2033489 100.6468313  56.4916573 101.3511929  99.9946031
  64.4263893 109.0465973 101.9448715  63.9827747 108.2602351 101.6269619
  65.0881107 109.2345123 101.2792605  59.1851014 110.5761774  96.4709393
  59.7358440 110.4478837  95.6986387  58.3462490 110.8756663  96.1204286
  66.5245131 109.3268772  99.9730116  66.5063607 110.1477654  99.4810385
  67.4465051 109.2022848 100.1980257  62.9818186 106.8412902 100.8153624
  63.5146522 106.0801190 100.5852932  62.4532267 106.5486554 101.5577779
  66.1487880  91.9472968  96.3447266  65.8052150  92.8374610  96.2686377
  66.5166843  91.7574626  95.4816851  54.2173731 104.2706498  89.1635868
  55.0548953 104.6803507  88.9469576  54.3951999 103.3305941  89.1336062
  63.6985274  96.7831280  89.9104940  62.8426871  96.3938130  89.7310578
  64.1112226  96.8623241  89.0504725  65.2284421  94.3177623  94.3096499
  64.7249216  94.2807758  93.4964305  65.5215028  95.2270366  94.3693156
  61.4727307  94.4016353  93.3162681  62.3380304  94.2059161  92.9568571
  61.5404816  94.1726705  94.2432038  64.3470898 105.9698894  88.3272436
  63.8192260 105.2351654  88.0145674  63.8458401 106.7473571  88.0812405
  69.3263744 104.1647915  93.4439483  68.6687419 104.8547176  93.5319611
  70.1304143 104.5544347  93.7873469  59.0789626  96.6318561  90.6879048
  59.6533378  96.4093742  89.9552241  59.6660608  96.7007255  91.4407649
  68.1369203 102.5192288  91.4943424  68.6501085 103.1522279  91.9965134
  68.7870427 101.9193483  91.1286784  59.4059213  98.6623022  84.7074933
  58.5696525  98.9997708  85.0284208  59.2663983  98.5272002  83.7702070
  61.3812294  93.5059810  89.4154117  60.7276706  93.1908827  88.7910732
  61.3392768  92.8835550  90.1413940  65.3991577 112.4976612  84.2504096
  64.7253276 112.8008309  84.8589053  65.7857399 113.3005692  83.9009553
  64.6150034  99.9941743  93.7401765  63.6972595 100.2156690  93.5823453
  65.0310178 100.0688054  92.8813472  65.3985082 101.3933159  88.8704445
  66.1456901 101.9054556  88.5611567  65.6676671 101.0717212  89.7308839
  63.6711732 103.8891700  85.8531399  62.7622951 103.6050732  85.9503869
  63.7006816 104.3090778  84.9934706  68.9030999 107.4998289  89.6222567
  68.4493326 106.6589199  89.6787758  68.2724966 108.1359687  89.9597347
  67.8463919  98.4290275  90.8523234  67.1086676  97.9167661  91.1833477
  68.0990692  97.9890657  90.0406511  67.3463938 109.3374786  90.5572385
  67.6386913 109.8979843  89.8384751  67.8562559 109.6303347  91.3125544
  67.9475546  91.2066527  91.4465004  68.2534423  90.3463891  91.1590919
  68.6728151  91.7984147  91.2463998  54.2399902 101.6097214  89.8346602
  54.0424302 101.0166574  89.1097668  53.6846566 101.3049424  90.5522540
  62.2196626 101.5020320  91.9541195  62.2745236 100.5494157  91.8783671
  61.4087828 101.6579759  92.4382493  60.1588986 100.1197380  89.7131574
  59.3456851 100.4191550  90.1196766  60.6547980  99.7253069  90.4306056
  62.3097564 110.1155137  91.6465838  62.2673742 110.3415983  90.7174370
  63.2260263 109.8818511  91.7951640  65.7563197 100.5839204  98.5446468
  66.1112585 100.8110678  99.4040933  66.4035329 100.9157581  97.9223723
  59.6503061  97.6915735  95.3292809  60.2902440  97.5504495  94.6315772
  58.8180591  97.4050249  94.9531411  71.5130314 105.7734167  94.2607068
  71.9466821 105.6809456  95.1090122  72.2261895 105.7491668  93.6227084
  60.4263364 106.9918166  91.4427801  61.2203963 106.4968486  91.2410376
  59.7155057 106.4636029  91.0795507  65.2458209 109.3736261  95.7940169
  65.2995231 109.9427198  96.5617885  64.3772990 109.5438146  95.4294206
  56.7346128 101.1361248  87.5187554  55.8043716 101.0745703  87.7357516
  56.8303600 100.6137200  86.7224195  56.6531677  97.6616060  90.1065795
  56.9138494  98.5761394  89.9974956  57.4748849  97.1940503  90.2562408
  58.1256602  99.0753818  97.2764620  58.7979656  98.8671180  96.6277269
  57.2986389  98.8775904  96.8369852  72.3745864 105.8157868  96.7939954
  72.5681754 106.7203678  97.0399228  72.2746482 105.3565287  97.6278539
  64.0282174  95.7015759  99.2930281  63.3810089  96.4005708  99.1994757
  64.7983190  96.1351902  99.6606529  67.4360972 105.9664611 102.3680834
  67.2846479 105.7375162 101.4510918  67.4265652 106.9235212 102.3812179
  64.2046309 103.5396523  97.3527101  65.1338369 103.6907683  97.1796068
  63.7837339 103.6280544  96.4975747  63.0034640 107.5647188  95.1225638
  62.8645726 107.1965972  95.9951576  62.2149237 108.0794827  94.9509596
  63.5982792 112.6656284  86.4651175  63.7734548 112.1944328  87.2796797
  62.9115580 113.2922051  86.6932435  64.5539856 106.9428791  92.5114476
  64.2189688 106.9029561  93.4072126  64.0543801 106.2773506  92.0384886
  58.5284100 102.3496421  98.0367057  58.3903897 101.6176659  98.6378596
  59.4389023 102.2605321  97.7551245  61.1566400 102.0616380  97.5250737
  61.8666019 101.4209572  97.4837355  61.1135708 102.3129275  98.4476918
  69.1453179 108.9983733 100.4457316  69.0865725 108.3142953  99.7787899
  69.5472697 109.7402723  99.9937942  59.8695334  99.0481598  99.3446376
  59.3332691  98.5972336  99.9967973  59.2812043  99.1827507  98.6016841
  58.1643878 115.8145647  93.2391035  58.4040476 116.4464171  93.9170053
  57.3213074 115.4633687  93.5256394  59.2797593  98.5070249  81.9072840
  58.4027059  98.3859050  81.5435087  59.7555346  97.7156327  81.6551729
  69.1470586 106.9623317  98.6771296  68.2597365 106.6249239  98.7997695
  69.7169137 106.2306348  98.9140061  50.7999733 103.2947409  92.0014347
  51.4870773 102.9809139  91.4135362  50.6447862 104.1988774  91.7281598
  55.6034455  98.1837605  96.4299371  55.5192644  97.5763275  95.6949781
  54.7817162  98.6746624  96.4308867  62.6771740 111.6224770  95.6432539
  62.6041911 112.4279741  96.1551843  62.2349133 111.8216735  94.8180560
  62.4661519 110.8596540  89.1535360  61.6829041 111.4018220  89.2473585
  63.1654264 111.3770519  89.5529602  65.7758169  96.6691169  91.7969566
  66.2726869  95.9161131  91.4770636  65.0045151  96.7055486  91.2312775
  73.6287927 102.3731535  93.4387857  73.6177803 103.2556250  93.0681790
  72.7605306 102.0203085  93.2442394  65.1370423 111.5211604  97.7990698
  65.8498395 112.1559068  97.7266599  64.6460452 111.6175470  96.9830699
  66.8587950 105.4262856  89.3707989  65.9244229 105.5464319  89.2012694
  67.0364618 104.5235323  89.1067999  62.3593138  98.8108552  91.5241250
  61.9890926  98.2579592  92.2122156  62.8552231  98.2066685  90.9716250
  60.1882337 109.2706047  98.6196268  60.8891796 109.9042530  98.7725663
  59.7177452 109.6120779  97.8591908  68.2177164  93.6360762  93.9448925
  67.3040244  93.8664989  94.1131132  68.6470266  93.7199207  94.7962957
  67.9883623 101.8250654  96.4448819  67.3355073 102.0726562  95.7901271
  68.3664002 101.0114793  96.1111296  64.9490796 111.8610348  90.5476989
  65.1313191 111.0432004  91.0104741  65.7723782 112.0778040  90.1101879
  65.2832962 110.7878533  87.8092037  65.8120728 110.2770987  87.1962200
  65.5461182 110.4721063  88.6737571  64.0371196 102.5670466 102.9314856
  63.3611833 102.4664595 103.6017231  64.8598829 102.4109679 103.3950853
  55.7850055 108.8042402  95.5527371  56.3703491 108.0586090  95.6855275
  55.5874893 109.1146359  96.4364035  58.6388710 111.8393649  90.5689813
  57.9699085 112.3239777  90.0853853  58.5001580 112.0862870  91.4833192
  50.3767709 101.3748002  94.2731814  50.4151809 100.8411593  95.0668932
  49.8708002 100.8483208  93.6542791  62.7793978 113.8737393  97.1672472
  63.3312287 114.0369014  97.9321557  63.1200172 114.4641831  96.4952497
  57.7558472  96.2212543  97.7694356  57.8199798  97.0827374  97.3571754
  57.6925592  95.6086544  97.0366715  57.2310744  98.2935675 101.4167391
  57.8582783  97.9112753 102.0304915  56.3738663  98.0749877 101.7823083
  67.6304853 108.6998650 103.0221126  68.1744757 109.3128609 102.5276081
  67.0491698 109.2578229 103.5388139  54.0076287 100.1012104  87.3485746
  54.3029728  99.1922783  87.2952799  53.1064323 100.0799844  87.0266748
  65.9162366 111.8219368  94.1536154  65.7913505 111.0209108  93.6447099
  66.5741457 112.3165562  93.6650124  57.5370534  98.1768101  93.3313294
  56.8157120  98.7904069  93.1920767  58.3263790  98.7125866  93.2529940
  67.9797274 109.6228389  95.7815704  67.0327610 109.5033740  95.7094031
  68.3280047 108.7350887  95.8641965  60.3396848  95.5122527  99.6053946
  60.8631249  95.7584824 100.3680255  60.1209181  96.3442562  99.1857083
  55.7364129  97.7826202  87.4725071  55.4076835  96.9023581  87.2900177
  56.0903499  97.7273871  88.3601460  64.9843707 109.4181105  91.9820056
  64.8368670 108.4897812  92.1627626  65.8097201 109.4401196  91.4977132
  58.8505952  98.0699172  87.8400548  59.1902024  98.5985093  87.1179157
  59.2978072  98.4079578  88.6159115  68.5877829 110.2409664  93.0684929
  69.5124377 110.0352525  92.9309380  68.4193133 109.9926065  93.9774271
  61.5449393  96.4536223  97.2903616  61.2046213  95.6544036  97.6924296
  60.8388399  96.7537933  96.7180450  62.1965864  93.5385535  95.7430939
  63.0191934  93.0646013  95.6209830  62.4403928  94.3176019  96.2429626
  60.8374099  96.5673793  86.0393841  61.5582461  96.9455046  85.5357558
  60.2139403  97.2862670  86.1428819  59.7204443 100.2304656  93.5522918
  59.5749024 100.5444959  94.4447200  59.2429647 100.8489556  92.9993817
  61.5800826  97.2207204  93.6003808  61.5662395  96.3248297  93.2636106
  62.2973254  97.2277867  94.2342094  63.4326957  97.6544544  95.6456935
  63.1744735  98.5761615  95.6441266  62.9011997  97.2574978  96.3357399
  68.3773146 110.7595331  88.4247020  68.5510023 110.1941753  87.6720873
  68.8702037 111.5596226  88.2426510  54.1950105 102.7710000  96.4910579
  53.6503573 103.5469808  96.6230854  55.0729455 103.1180805  96.3329701
  60.9837722  96.1021584  88.8691378  61.1053633  95.1738230  89.0682265
  60.6939764  96.1160270  87.9569693  63.8528912  93.7876494  92.0058098
  63.8750609  93.8515827  91.0510077  64.2696971  92.9481003  92.1998604
  69.3648318 110.0762095  85.5243919  70.0599223 110.6968788  85.7431233
  69.7071468 109.2257447  85.7996297  54.9816127 101.8979896  99.3840736
  54.2397863 102.0462532  99.9705367  54.6608871 102.1588162  98.5207486
  62.9259790 111.4395875  99.1821126  63.2346916 111.1945021 100.0543826
  63.7235272 111.6442513  98.6939996  62.9480402 113.5933784  91.4126503
  62.5085392 113.1010163  92.1059359  63.6988519 113.0506752  91.1718578
  55.4272741 109.7845325  91.4151131  56.2530761 109.4849097  91.0349774
  55.0766793 109.0152947  91.8640919  60.3954274 109.1371793  93.4848804
  59.7734283 108.4742498  93.1851032  61.0659141 109.1632925  92.8022452
  53.6281346 107.7031652  92.3740064  52.7913254 107.2753826  92.1924066
  53.6004991 107.8964095  93.3110856  60.4678802  97.6153581 103.0781310
  60.5166957  98.4915704 102.6959080  61.0101316  97.0730974 102.5052954
  70.9533647 108.1594705 102.3582447  70.1629191 108.1418843 101.8186947
  70.7167002 108.6982998 103.1131484  71.0731522 105.0087171  99.6715176
  71.1229527 104.8437178 100.6130699  70.9645446 104.1414430  99.2813057
  59.9567781 107.6875717  86.9607265  60.1055901 108.3711181  86.3073938
  60.7634224 107.6680807  87.4756721  68.3635285 100.9918099 100.9874483
  69.2645147 100.8524564 100.6958481  68.4383259 101.1572554 101.9272660
  62.6978090  98.3684954  99.8327669  61.8281399  98.6618520  99.5610258
  62.9337570  98.9525399 100.5534933  72.5749719 107.4284112  99.9157198
  72.2834527 107.7914093 100.7520659  71.9621850 106.7151121  99.7370530
  73.7745401 104.9936992  92.4359768  74.6092293 105.4326796  92.5997328
  73.9104530 104.5175645  91.6168014  57.7120414 103.7140894  87.9668334
  57.4666456 102.8103224  88.1648544  57.8816328 103.7158045  87.0247812
  65.4017124  94.5864571  97.3493089  65.9199068  95.3225598  97.0239578
  65.0472257  94.8928564  98.1839849  56.9816061  99.4469252  85.4654495
  56.2885306  99.5213607  84.8094531  56.7367813  98.6829595  85.9876012
  65.6529718  91.0064853  92.8693986  65.9331472  90.3388042  93.4954413
  66.4380325  91.1993949  92.3568650  63.4563186 110.1823847  84.4319012
  62.8837154 110.8014034  83.9789484  64.0295980 110.7323209  84.9658934
  67.5452956  96.5138070  96.8024962  66.9502888  96.7943083  96.1071451
  67.2602652  97.0031971  97.5741703  66.6760446 110.4660997  85.5627595
  67.6091119 110.4006559  85.7660470  66.5883659 111.3017264  85.1042127
  69.3048463 109.7826868  82.5231542  69.2262094 109.4486731  83.4167300
  70.1258130 110.2748635  82.5223015  63.7248677 105.5702406 103.2335722
  64.6451687 105.7481005 103.4275768  63.6898261 104.6258451 103.0815421
  52.9430842 100.7641000  92.1588996  52.6233627  99.9106308  91.8663370
  52.3964271 100.9789578  92.9146964  56.7210750 103.4803441  95.8758503
  56.9396760 104.4120548  95.8946537  57.1336524 103.1211415  96.6613307
  65.5705516  93.0649573  89.4858488  66.1236555  93.4845026  90.1448511
  65.8075602  92.1385321  89.5281444  61.5938615  99.0536646 105.2661252
  61.4935342 100.0031003 105.1973343  61.3760157  98.7254885 104.3937322
  60.7951687  96.3021571  81.8501929  61.6570851  96.6276470  82.1097747
  60.9802031  95.5153067  81.3374995  52.8119102 104.3843911  94.1282118
  52.1182574 103.9697864  93.6152072  53.5592093 104.4264448  93.5315537
  67.3987890  94.5755156  91.1958473  67.8987668  94.6871690  90.3872791
  68.0423497  94.2716208  91.8359281  61.4569885 102.4833785 104.0826314
  60.9736967 103.2834145 104.2890203  61.5430824 102.4941730 103.1293758
  54.7255845 104.3162165  92.0048133  54.7026533 104.4149852  91.0530016
  55.0356481 105.1627316  92.3265299  57.3843223 106.3738320  96.1194747
  58.3386476 106.3422262  96.0524679  57.1855746 105.9128944  96.9344973
  57.9742605 104.9439436  98.6865545  58.7935494 105.4383515  98.7100382
  58.2479413 104.0271404  98.6583113  73.5196296  98.0724328  92.8221780
  74.1140787  97.8320064  92.1115089  73.5922880  97.3531459  93.4495317
  55.7393452 111.9157939  93.1364945  55.6047920 111.1558340  92.5702943
  55.3225514 112.6398839  92.6693734  75.8267369 101.3790529  91.5965202
  75.2666927 101.4483719  92.3696764  75.2210872 101.2031514  90.8764698
  58.8962578 112.8127256  93.3483388  58.7794962 113.7572689  93.2462078
  58.0755024 112.5100818  93.7369187  53.2277519  99.2777570  99.3857742
  53.8736383  98.7676524  99.8744967  53.0194670 100.0146251  99.9601167
  65.7530911 106.3458417 104.8849883  66.6222071 106.5199070 104.5236518
  65.2737663 107.1652834 104.7625612  59.9217092 113.4655518  96.5639316
  60.8244338 113.4979129  96.8805811  59.6954462 112.5355969  96.5785652
  61.6770694 112.2186505  93.2249395  60.7266325 112.2188366  93.1113767
  61.9803180 111.4719239  92.7085430  65.5633249  90.1360391  89.3927575
  64.7965645  89.5818878  89.5384257  65.9743954  90.2082260  90.2541727
  57.5675010  96.4245187 103.4832756  58.4306472  96.0681992 103.6936081
  56.9940421  96.0859082 104.1708161  70.0799909 119.8609948  90.2153573
  69.5164774 119.7699885  89.4469861  69.9652304 119.0409852  90.6956065
  67.6264341 121.3561139  93.0537793  68.4185633 121.0151964  92.6384093
  67.8660991 121.4656114  93.9739947  75.6599468 123.5280915  85.5268038
  75.0087448 124.1134996  85.1402052  76.4543831 124.0587110  85.5863075
  69.5855095 120.6170053  85.9255172  70.3585971 120.0699040  85.7868048
  69.9380494 121.4814302  86.1369634  71.4240138 121.9446435  99.1322072
  71.1330004 122.8492066  99.0168738  72.0597122 121.9862963  99.8466141
  71.9221373 116.7762719  83.5573622  72.1746894 116.2544240  82.7957085
  70.9845932 116.6128864  83.6600306  71.6417662 118.6790825  85.7597997
  71.5253920 118.0035728  86.4279081  71.7519921 118.1923199  84.9430150
  73.6254689 113.1690871  84.4606035  73.7929092 114.0371108  84.8276506
  73.4351859 113.3318153  83.5367324  69.8342504 118.0821647  92.1608570
  68.9093001 117.9497861  92.3686261  70.0826917 118.8615866  92.6578512
  73.6043910 115.6248529  85.4452702  73.4843536 116.0705580  86.2838182
  72.9096499 115.9733847  84.8866240  67.1951315 117.7254921  92.9952359
  67.3243696 117.9789400  93.9091770  66.5148767 118.3182629  92.6757014
  71.3650802 128.3952171  89.0942833  71.2874832 129.3459996  89.1731313
  70.7612446 128.0498043  89.7517759  73.8568032 115.5680036 101.7504200
  73.0801366 116.1273956 101.7407064  74.4958595 116.0536819 102.2719070
  72.1114405 118.3765490 101.3122167  72.8529089 118.9150534 101.0356990
  71.4051390 119.0031778 101.4693719  70.3550602 120.3641710  93.8676466
  70.9251959 120.7928979  93.2293950  70.9458714 120.0824295  94.5660651
  72.3995407 116.9393381  87.7386267  73.1019450 117.3914425  88.2060194
  72.0676035 116.2977200  88.3666161  70.8475768 115.5305138 102.1137477
  70.2174429 116.2121419 102.3472874  70.7411856 115.4188219 101.1690615
  66.1420741 115.1976934  93.0403401  65.3519795 115.4534462  92.5643512
  66.6331988 116.0125272  93.1455442  68.0935486 115.5621513  89.9986878
  67.2966649 115.6740207  90.5170373  67.8661078 115.9008165  89.1327768
  64.4258444 115.4507424  95.4718392  64.6766482 116.3354434  95.7375968
  64.9617992 115.2712026  94.6993484  70.1256511 109.8325904 104.4762728
  69.7323457 109.2792102 105.1510372  70.9422651 110.1436482 104.8669245
  67.0918569 121.2709762  88.3876298  67.6043089 122.0653012  88.5381862
  67.7441282 120.5736052  88.3209899  68.9013453 124.3875518  90.4699051
  69.0780082 125.3093483  90.2820035  69.6970287 124.0733937  90.8993431
  73.0424472 111.2483783 102.0682984  73.7834185 111.8490936 101.9887447
  73.2742395 110.5061420 101.5101027  68.1865810 116.4340150 100.3461214
  68.0719325 115.5325407 100.6468313  67.3310328 116.6803847  99.9946031
  75.2657648 124.3757890 101.9448715  74.8221502 123.5894269 101.6269619
  75.9274861 124.5637041 101.2792605  70.0244769 125.9053692  96.4709393
  70.5752194 125.7770755  95.6986387  69.1856245 126.2048581  96.1204286
  73.8211940 122.1704820 100.8153624  74.3540277 121.4093108 100.5852932
  73.2926021 121.8778471 101.5577779  65.0567486 119.5998416  89.1635868
  65.8942708 120.0095424  88.9469576  65.2345753 118.6597858  89.1336062
  74.5379029 112.1123197  89.9104940  73.6820625 111.7230048  89.7310578
  74.9505980 112.1915158  89.0504725  72.3121061 109.7308270  93.3162681
  73.1774058 109.5351079  92.9568571  72.3798570 109.5018622  94.2432038
  69.9183380 111.9610478  90.6879048  70.4927132 111.7385660  89.9552241
  70.5054363 112.0299173  91.4407649  70.2452967 113.9914939  84.7074933
  69.4090280 114.3289626  85.0284208  70.1057737 113.8563919  83.7702070
  73.3317253 119.1171022  81.3307409  72.4244315 118.8860276  81.5298558
  73.8288285 118.3208642  81.5181391  76.2385332 127.8268530  84.2504096
  75.5647031 128.1300226  84.8589053  76.6251154 128.6297610  83.9009553
  65.0793657 116.9389131  89.8346602  64.8818057 116.3458492  89.1097668
  64.5240321 116.6341342  90.5522540  74.2081574 120.7592361  83.1919478
  73.7701004 120.0428220  82.7325115  74.9492015 120.9868476  82.6304569
  70.9982740 115.4489298  89.7131574  70.1850606 115.7483468  90.1196766
  71.4941734 115.0544986  90.4306056  67.5739882 116.4653165  87.5187554
  66.6437471 116.4037621  87.7357516  67.6697354 115.9429118  86.7224195
  67.4925431 112.9907978  90.1065795  67.7532249 113.9053311  89.9974956
  68.3142604 112.5232421  90.2562408  68.9650357 114.4045735  97.2764620
  69.6373410 114.1963097  96.6277269  68.1380143 114.2067821  96.8369852
  74.4376547 127.9948202  86.4651175  74.6128303 127.5236245  87.2796797
  73.7509335 128.6213968  86.6932435  69.3677854 117.6788338  98.0367057
  69.2297652 116.9468577  98.6378596  70.2782778 117.5897238  97.7551245
  70.7089089 114.3773515  99.3446376  70.1726446 113.9264254  99.9967973
  70.1205797 114.5119424  98.6016841  69.0037632 131.1437565  93.2391035
  69.2434230 131.7756089  93.9170053  68.1606829 130.7925605  93.5256394
  70.1191348 113.8362167  81.9072840  69.2420814 113.7150968  81.5435087
  70.5949101 113.0448245  81.6551729  61.6393488 118.6239327  92.0014347
  62.3264528 118.3101057  91.4135362  61.4841616 119.5280691  91.7281598
  66.4428210 113.5129523  96.4299371  66.3586399 112.9055193  95.6949781
  65.6210916 114.0038541  96.4308867  73.5165494 126.9516687  95.6432539
  73.4435666 127.7571659  96.1551843  73.0742887 127.1508653  94.8180560
  73.1986893 114.1400470  91.5241250  72.8284680 113.5871510  92.2122156
  73.6945985 113.5358603  90.9716250  71.0276091 124.5997965  98.6196268
  71.7285551 125.2334448  98.7725663  70.5571206 124.9412696  97.8591908
  74.8764950 117.8962383 102.9314856  74.2005587 117.7956513 103.6017231
  75.6992584 117.7401597 103.3950853  66.6243809 124.1334320  95.5527371
  67.2097246 123.3878008  95.6855275  66.4268648 124.4438276  96.4364035
  69.4782464 127.1685567  90.5689813  68.8092840 127.6531695  90.0853853
  69.3395334 127.4154788  91.4833192  61.2161464 116.7039920  94.2731814
  61.2545563 116.1703511  95.0668932  60.7101757 116.1775125  93.6542791
  73.6187733 129.2029311  97.1672472  74.1706041 129.3660932  97.9321557
  73.9593926 129.7933748  96.4952497  68.5952226 111.5504460  97.7694356
  68.6593553 112.4119291  97.3571754  68.5319346 110.9378462  97.0366715
  68.0704499 113.6227593 101.4167391  68.6976538 113.2404670 102.0304915
  67.2132418 113.4041795 101.7823083  64.8470041 115.4304022  87.3485746
  65.1423483 114.5214701  87.2952799  63.9458077 115.4091762  87.0266748
  68.3764288 113.5060019  93.3313294  67.6550874 114.1195986  93.1920767
  69.1657544 114.0417783  93.2529940  71.1790602 110.8414445  99.6053946
  71.7025004 111.0876742 100.3680255  70.9602935 111.6734480  99.1857083
  66.5757883 113.1118120  87.4725071  66.2470589 112.2315499  87.2900177
  66.9297254 113.0565788  88.3601460  69.6899706 113.3991090  87.8400548
  70.0295779 113.9277011  87.1179157  70.1371827 113.7371496  88.6159115
  71.6767853 111.8965711  86.0393841  72.3976216 112.2746964  85.5357558
  71.0533157 112.6154588  86.1428819  75.8198976 112.6010860  86.9752174
  76.0362591 113.4835498  86.6741002  75.3393043 112.2097074  86.2457815
  70.5598198 115.5596573  93.5522918  70.4142778 115.8736876  94.4447200
  70.0823401 116.1781474  92.9993817  65.0343860 118.1001918  96.4910579
  64.4897328 118.8761726  96.6230854  65.9123210 118.4472722  96.3329701
  71.8231476 111.4313502  88.8691378  71.9447388 110.5030148  89.0682265
  71.5333519 111.4452188  87.9569693  74.6922667 109.1168412  92.0058098
  74.7144364 109.1807745  91.0510077  75.1090726 108.2772921  92.1998604
  65.8209882 117.2271814  99.3840736  65.0791618 117.3754449  99.9705367
  65.5002626 117.4880080  98.5207486  73.7653544 126.7687792  99.1821126
  74.0740671 126.5236939 100.0543826  74.5629026 126.9734431  98.6939996
  73.7874156 128.9225702  91.4126503  73.3479147 128.4302081  92.1059359
  74.5382273 128.3798670  91.1718578  66.2666495 125.1137243  91.4151131
  67.0924515 124.8141015  91.0349774  65.9160547 124.3444865  91.8640919
  64.4675100 123.0323569  92.3740064  63.6307009 122.6045744  92.1924066
  64.4398746 123.2256013  93.3110856  71.3072556 112.9445499 103.0781310
  71.3560711 113.8207622 102.6959080  71.8495070 112.4022892 102.5052954
  70.7961535 123.0167634  86.9607265  70.9449656 123.7003099  86.3073938
  71.6027979 122.9972724  87.4756721  73.5371844 113.6976871  99.8327669
  72.6675154 113.9910437  99.5610258  73.7731325 114.2817316 100.5534933
  68.5514168 119.0432812  87.9668334  68.3060210 118.1395142  88.1648544
  68.7210083 119.0449962  87.0247812  67.8209816 114.7761170  85.4654495
  67.1279061 114.8505524  84.8094531  67.5761568 114.0121513  85.9876012
  74.2956941 125.5115765  84.4319012  73.7230908 126.1305952  83.9789484
  74.8689735 126.0615126  84.9658934  74.6803739 116.8476578  81.7735065
  75.6262844 116.7182786  81.8423483  74.3017984 116.1091239  82.2504493
  74.5642432 120.8994324 103.2335722  75.4845441 121.0772923 103.4275768
  74.5292015 119.9550369 103.0815421  63.7824597 116.0932917  92.1588996
  63.4627381 115.2398225  91.8663370  63.2358025 116.3081495  92.9146964
  67.5604505 118.8095358  95.8758503  67.7790514 119.7412466  95.8946537
  67.9730278 118.4503333  96.6613307  74.4808722 109.3163444  87.8634191
  73.6709451 108.9710529  88.2389437  75.1693139 109.0070987  88.4521803
  72.4332370 114.3828564 105.2661252  72.3329097 115.3322921 105.1973343
  72.2153912 114.0546803 104.3937322  71.6345441 111.6313489  81.8501929
  72.4964605 111.9568387  82.1097747  71.8195785 110.8444985  81.3374995
  63.6512857 119.7135829  94.1282118  62.9576328 119.2989782  93.6152072
  64.3985848 119.7556365  93.5315537  72.2963640 117.8125703 104.0826314
  71.8130722 118.6126063 104.2890203  72.3824579 117.8233648 103.1293758
  65.5649599 119.6454083  92.0048133  65.5420288 119.7441770  91.0530016
  65.8750236 120.4919233  92.3265299  68.2236977 121.7030238  96.1194747
  69.1780231 121.6714180  96.0524679  68.0249501 121.2420861  96.9344973
  68.8136359 120.2731354  98.6865545  69.6329248 120.7675432  98.7100382
  69.0873167 119.3563322  98.6583113  66.5787206 127.2449857  93.1364945
  66.4441674 126.4850258  92.5702943  66.1619268 127.9690757  92.6693734
  77.7146169 122.4286781  82.1441521  78.4182019 122.6336783  82.7599176
  76.9908818 122.9963543  82.4090604  69.7356332 128.1419174  93.3483388
  69.6188716 129.0864607  93.2462078  68.9148778 127.8392736  93.7369187
  64.0671274 114.6069488  99.3857742  64.7130137 114.0968441  99.8744967
  63.8588425 115.3438169  99.9601167  72.5874884 108.8709532  85.1381638
  72.5753554 109.8151372  85.2949909  73.4798306 108.6879678  84.8441099
  70.7610846 128.7947436  96.5639316  71.6638093 128.8271046  96.8805811
  70.5348216 127.8647887  96.5785652  72.5164448 127.5478423  93.2249395
  71.5660079 127.5480284  93.1113767  72.8196934 126.8011157  92.7085430
  68.4068765 111.7537105 103.4832756  69.2700226 111.3973909 103.6936081
  67.8334175 111.4150999 104.1708161  88.2517142 133.3838961  94.2895157
  88.8895552 133.2645708  93.5858497  88.1337985 134.3319805  94.3483109
  85.0606848 133.3366389  94.2256682  84.7225359 133.2207454  93.3377217
  85.9296616 132.9357554  94.2057688  80.9193664 135.1901865  90.2153573
  80.3558529 135.0991802  89.4469861  80.8046059 134.3701770  90.6956065
  78.4658096 136.6853057  93.0537793  79.2579387 136.3443882  92.6384093
  78.7054746 136.7948032  93.9739947  80.4248850 135.9461970  85.9255172
  81.1979726 135.3990957  85.7868048  80.7774248 136.8106220  86.1369634
  82.2633892 137.2738353  99.1322072  81.9723758 138.1783983  99.0168738
  82.8990876 137.3154880  99.8466141  82.4811416 134.0082742  85.7597997
  82.3647674 133.3327646  86.4279081  82.5913676 133.5215116  84.9430150
  84.8242957 133.4692889  89.4644686  84.4601164 132.9423510  90.1757608
  85.6810073 133.0791359  89.2911172  87.2223777 136.9599768  96.1271865
  86.9224500 137.8624807  96.0187672  86.8774837 136.6931951  96.9793018
  80.6736259 133.4113565  92.1608570  79.7486755 133.2789779  92.3686261
  80.9220672 134.1907784  92.6578512  78.0345070 133.0546838  92.9952359
  78.1637451 133.3081317  93.9091770  77.3542521 133.6474546  92.6757014
  82.2044557 143.7244088  89.0942833  82.1268587 144.6751914  89.1731313
  81.6006201 143.3789961  89.7517759  88.7492313 136.4087738  93.6646617
  88.1201176 136.5733452  92.9622685  88.3617975 136.8229348  94.4357581
  81.1944356 135.6933628  93.8676466  81.7645713 136.1220896  93.2293950
  81.7852468 135.4116213  94.5660651  83.2389161 132.2685299  87.7386267
  83.9413205 132.7206342  88.2060194  82.9069790 131.6269118  88.3666161
  76.9814495 130.5268851  93.0403401  76.1913549 130.7826380  92.5643512
  77.4725743 131.3417189  93.1455442  90.9978305 137.8674091  95.7908682
  91.8195749 137.4654278  95.5091363  90.9940708 137.7642325  96.7424798
  78.9329241 130.8913431  89.9986878  78.1360404 131.0032125  90.5170373
  78.7054833 131.2300083  89.1327768  84.7634908 137.4158134  97.9469392
  84.8279341 137.8778541  98.7827564  84.0545832 136.7855499  98.0751702
  75.2652198 130.7799342  95.4718392  75.5160237 131.6646352  95.7375968
  75.8011747 130.6003943  94.6993484  84.4782926 139.0826241  87.8148373
  84.3428601 139.9277777  88.2433220  85.0192738 139.2845519  87.0514306
  77.9312323 136.6001679  88.3876298  78.4436844 137.3944930  88.5381862
  78.5835036 135.9027970  88.3209899  79.7407208 139.7167436  90.4699051
  79.9173836 140.6385400  90.2820035  80.5364041 139.4025855  90.8993431
  79.0259565 131.7632068 100.3461214  78.9113080 130.8617325 100.6468313
  78.1704082 132.0095764  99.9946031  86.1051402 139.7049808 101.9448715
  85.6615256 138.9186186 101.6269619  86.7668616 139.8928958 101.2792605
  80.8638523 141.2345609  96.4709393  81.4145949 141.1062673  95.6986387
  80.0249999 141.5340499  96.1204286  88.2032640 139.9852608  99.9730116
  88.1851116 140.8061489  99.4810385  89.1252560 139.8606683 100.1980257
  84.6605694 137.4996737 100.8153624  85.1934031 136.7385025 100.5852932
  84.1319776 137.2070389 101.5577779  75.8961240 134.9290334  89.1635868
  76.7336462 135.3387342  88.9469576  76.0739508 133.9889776  89.1336062
  86.0258407 136.6282730  88.3272436  85.4979769 135.8935489  88.0145674
  85.5245910 137.4057406  88.0812405  81.0846722 129.3206857  84.7074933
  80.2484034 129.6581544  85.0284208  80.9451492 129.1855837  83.7702070
  75.9187411 132.2681049  89.8346602  75.7211811 131.6750410  89.1097668
  75.3634075 131.9633259  90.5522540  83.9885073 140.7738972  91.6465838
  83.9461251 140.9999819  90.7174370  84.9047772 140.5402347  91.7951640
  82.1050873 137.6502001  91.4427801  82.8991472 137.1552321  91.2410376
  81.3942566 137.1219864  91.0795507  86.9245718 140.0320097  95.7940169
  86.9782740 140.6011033  96.5617885  86.0560499 140.2021982  95.4294206
  78.4133637 131.7945083  87.5187554  77.4831225 131.7329538  87.7357516
  78.5091109 131.2721036  86.7224195  79.8044111 129.7337653  97.2764620
  80.4767165 129.5255015  96.6277269  78.9773898 129.5359739  96.8369852
  94.0533373 136.4741703  96.7939954  94.2469263 137.3787514  97.0399228
  93.9533991 136.0149122  97.6278539  84.6822149 138.2231023  95.1225638
  84.5433235 137.8549808  95.9951576  83.8936746 138.7378663  94.9509596
  86.2327365 137.6012626  92.5114476  85.8977197 137.5613396  93.4072126
  85.7331310 136.9357342  92.0384886  80.2071609 133.0080256  98.0367057
  80.0691406 132.2760495  98.6378596  81.1176532 132.9189156  97.7551245
  90.8240688 139.6567569 100.4457316  90.7653234 138.9726789  99.7787899
  91.2260206 140.3986559  99.9937942  79.8431387 146.4729482  93.2391035
  80.0827985 147.1048007  93.9170053  79.0000583 146.1217522  93.5256394
  80.9585102 129.1654085  81.9072840  80.0814568 129.0442885  81.5435087
  81.4342855 128.3740163  81.6551729  90.8258095 137.6207153  98.6771296
  89.9384874 137.2833074  98.7997695  91.3956646 136.8890184  98.9140061
  72.4787242 133.9531244  92.0014347  73.1658282 133.6392974  91.4135362
  72.3235371 134.8572609  91.7281598  77.2821964 128.8421441  96.4299371
  77.1980153 128.2347110  95.6949781  76.4604671 129.3330459  96.4308867
  84.3559249 142.2808605  95.6432539  84.2829420 143.0863576  96.1551843
  83.9136642 142.4800571  94.8180560  84.1449028 141.5180375  89.1535360
  83.3616550 142.0602055  89.2473585  84.8441773 142.0354355  89.5529602
  86.8157932 142.1795439  97.7990698  87.5285904 142.8142904  97.7266599
  86.3247961 142.2759305  96.9830699  81.8669846 139.9289882  98.6196268
  82.5679305 140.5626365  98.7725663  81.3964961 140.2704614  97.8591908
  86.6278305 142.5194183  90.5476989  86.8100700 141.7015839  91.0104741
  87.4511291 142.7361875  90.1101879  77.4637564 139.4626237  95.5527371
  78.0491000 138.7169925  95.6855275  77.2662402 139.7730194  96.4364035
  80.3176219 142.4977485  90.5689813  79.6486594 142.9823612  90.0853853
  80.1789089 142.7446705  91.4833192  72.0555218 132.0331838  94.2731814
  72.0939318 131.4995428  95.0668932  71.5495511 131.5067043  93.6542791
  84.4581487 144.5321228  97.1672472  85.0099796 144.6952850  97.9321557
  84.7987681 145.1225666  96.4952497  78.9098253 128.9519511 101.4167391
  79.5370292 128.5696588 102.0304915  78.0526172 128.7333713 101.7823083
  89.3092362 139.3582486 103.0221126  89.8532266 139.9712444 102.5276081
  88.7279207 139.9162064 103.5388139  75.6863796 130.7595940  87.3485746
  75.9817237 129.8506618  87.2952799  74.7851832 130.7383679  87.0266748
  87.5949875 142.4803204  94.1536154  87.4701014 141.6792944  93.6447099
  88.2528966 142.9749397  93.6650124  79.2158043 128.8351936  93.3313294
  78.4944629 129.4487904  93.1920767  80.0051299 129.3709701  93.2529940
  89.6584783 140.2812224  95.7815704  88.7115119 140.1617575  95.7094031
  90.0067556 139.3934722  95.8641965  86.6631216 140.0764940  91.9820056
  86.5156179 139.1481648  92.1627626  87.4884710 140.0985031  91.4977132
  90.2665338 140.8993499  93.0684929  91.1911886 140.6936360  92.9309380
  90.0980642 140.6509900  93.9774271  75.8737614 133.4293835  96.4910579
  75.3291082 134.2053643  96.6230854  76.7516964 133.7764640  96.3329701
  76.6603636 132.5563732  99.3840736  75.9185372 132.7046367  99.9705367
  76.3396380 132.8171997  98.5207486  84.6047299 142.0979710  99.1821126
  84.9134425 141.8528857 100.0543826  85.4022781 142.3026348  98.6939996
  84.6267911 144.2517620  91.4126503  84.1872901 143.7593998  92.1059359
  85.3776028 143.7090587  91.1718578  77.1060250 140.4429160  91.4151131
  77.9318270 140.1432932  91.0349774  76.7554302 139.6736783  91.8640919
  82.0741783 139.7955629  93.4848804  81.4521792 139.1326334  93.1851032
  82.7446650 139.8216761  92.8022452  75.3068855 138.3615487  92.3740064
  74.4700763 137.9337661  92.1924066  75.2792500 138.5547930  93.3110856
  92.6321156 138.8178540 102.3582447  91.8416700 138.8002679 101.8186947
  92.3954511 139.3566834 103.1131484  92.7519031 135.6671006  99.6715176
  92.8017036 135.5021014 100.6130699  92.6432955 134.7998265  99.2813057
  81.6355290 138.3459552  86.9607265  81.7843410 139.0295016  86.3073938
  82.4421733 138.3264642  87.4756721  94.2537228 138.0867948  99.9157198
  93.9622036 138.4497928 100.7520659  93.6409359 137.3734956  99.7370530
  92.5024416 133.2100562  98.3837256  92.9778538 133.4028209  97.5756107
  91.5789982 133.2659748  98.1380639  79.3907923 134.3724730  87.9668334
  79.1453965 133.4687060  88.1648544  79.5603837 134.3741880  87.0247812
  78.6603570 130.1053087  85.4654495  77.9672815 130.1797442  84.8094531
  78.4155322 129.3413431  85.9876012  83.7040411 130.1018472  81.7089950
  82.7971866 129.8051584  81.7852664  83.9816392 129.8048290  80.8424236
  74.6218351 131.4224835  92.1588996  74.3021136 130.5690143  91.8663370
  74.0751780 131.6373413  92.9146964  78.3998259 134.1387276  95.8758503
  78.6184269 135.0704384  95.8946537  78.8124033 133.7795250  96.6613307
  74.4906611 135.0427746  94.1282118  73.7970083 134.6281699  93.6152072
  75.2379602 135.0848283  93.5315537  76.4043354 134.9746000  92.0048133
  76.3814042 135.0733688  91.0530016  76.7143990 135.8211151  92.3265299
  79.0630732 137.0322155  96.1194747  80.0173985 137.0006098  96.0524679
  78.8643255 136.5712779  96.9344973  79.6530114 135.6023271  98.6865545
  80.4723003 136.0967350  98.7100382  79.9266922 134.6855239  98.6583113
  77.4180961 142.5741775  93.1364945  77.2835429 141.8142176  92.5702943
  77.0013023 143.2982675  92.6693734  80.5750087 143.4711092  93.3483388
  80.4582471 144.4156524  93.2462078  79.7542533 143.1684653  93.7369187
  74.9065028 129.9361405  99.3857742  75.5523892 129.4260359  99.8744967
  74.6982179 130.6730087  99.9601167  81.6004601 144.1239354  96.5639316
  82.5031847 144.1562964  96.8805811  81.3741971 143.1939805  96.5785652
  83.3558203 142.8770340  93.2249395  82.4053834 142.8772202  93.1113767
  83.6590689 142.1303075  92.7085430  79.2462519 127.0829022 103.4832756
  80.1093981 126.7265827 103.6936081  78.6727930 126.7442917 104.1708161
  99.0910896 148.7130879  94.2895157  99.7289306 148.5937626  93.5858497
  98.9731739 149.6611723  94.3483109  95.9000602 148.6658307  94.2256682
  95.5619114 148.5499371  93.3377217  96.7690371 148.2649472  94.2057688
  91.7587418 150.5193783  90.2153573  91.1952283 150.4283720  89.4469861
  91.6439813 149.6993688  90.6956065  96.3820385 149.8193158 100.1842888
  96.3709026 149.4245957  99.3123391  96.5441025 149.0859231 100.7776659
  89.3051850 152.0144975  93.0537793  90.0973142 151.6735799  92.6384093
  89.5448500 152.1239950  93.9739947  97.3386977 154.1864751  85.5268038
  96.6874957 154.7718831  85.1402052  98.1331340 154.7170946  85.5863075
  91.2642604 151.2753888  85.9255172  92.0373480 150.7282875  85.7868048
  91.6168003 152.1398137  86.1369634  93.1027647 152.6030270  99.1322072
  92.8117513 153.5075901  99.0168738  93.7384631 152.6446798  99.8466141
  94.0283853 149.9807119  95.7223431  94.6247426 149.7563141  95.0080394
  94.0858825 149.2391864  96.3248879  93.6008882 147.4346554  83.5573622
  93.8534403 146.9128075  82.7957085  92.6633441 147.2712700  83.6600306
  98.6452165 146.4382332  91.3648365  99.4315254 146.0201756  91.0138782
  98.9090869 147.3428425  91.5330014  98.8162242 151.8755183  86.0637022
  98.1808075 151.9489809  86.7757927  98.4859648 152.4648782  85.3856101
 104.0460592 146.3757566  92.2681344 104.7785764 145.8056782  92.5019173
 103.2899947 145.9879166  92.7087849  93.3205171 149.3374660  85.7597997
  93.2041429 148.6619563  86.4279081  93.4307430 148.8507034  84.9430150
  95.6636711 148.7984807  89.4644686  95.2994919 148.2715428  90.1757608
  96.5203827 148.4083276  89.2911172 101.5686012 140.0879140  96.7275952
 101.2369337 140.9574551  96.5037167 100.9731626 139.7715424  97.4069983
  95.3042198 143.8274707  84.4606035  95.4716601 144.6954943  84.8276506
  95.1139368 143.9901989  83.5367324  98.0617532 152.2891686  96.1271865
  97.7618255 153.1916725  96.0187672  97.7168591 152.0223869  96.9793018
  91.5130013 148.7405483  92.1608570  90.5880510 148.6081697  92.3686261
  91.7614426 149.5199702  92.6578512 101.4614675 144.8074226  93.8069303
 100.5531553 144.7389634  93.5128063 101.4102271 145.2846171  94.6351128
  95.2831419 146.2832364  85.4452702  95.1631045 146.7289415  86.2838182
  94.5884008 146.6317682  84.8866240  88.8738824 148.3838756  92.9952359
  89.0031205 148.6373235  93.9091770  88.1936275 148.9766464  92.6757014
  93.0438311 159.0536006  89.0942833  92.9662341 160.0043831  89.1731313
  92.4399955 158.7081879  89.7517759  95.5355541 146.2263872 101.7504200
  94.7588875 146.7857792 101.7407064  96.1746104 146.7120655 102.2719070
 103.3276322 143.0090664  95.5847176 102.6850702 143.3023197  94.9386971
 102.8231250 142.8943585  96.3900373 100.9816486 146.7553838  86.2733036
 101.8934342 146.9881224  86.0980733 100.4726133 147.3390882  85.7108114
  93.7901914 149.0349325 101.3122167  94.5316598 149.5734369 101.0356990
  93.0838899 149.6615614 101.4693719  99.2657253 151.1778465  99.9094328
  99.6740609 150.7360876  99.1648961  98.5434515 150.6031093 100.1628521
  95.6188323 146.1151072  97.2827885  96.4649518 146.5390486  97.4262534
  95.5586961 145.4584696  97.9766448  99.5886068 151.7379656  93.6646617
  98.9594930 151.9025370  92.9622685  99.2011730 152.1521266  94.4357581
 103.4675300 152.6734094  91.0190981 102.7826338 153.0532995  90.4688014
 103.5519149 153.2829420  91.7522929  98.7687769 143.7755440  98.9409059
  98.5248700 144.5297501  98.4043335  99.0447699 144.1540788  99.7756306
 100.7226231 150.3194053  97.6186324 100.9343127 150.9625813  96.9420706
 100.6755980 149.4856369  97.1508255  98.3252460 142.9311873  94.5222897
  97.4636939 143.2293127  94.8139634  98.3514895 143.1482272  93.5903929
  95.1414030 151.4754064  90.9296702  95.6052375 151.7541767  90.1401325
  94.8770828 150.5737509  90.7469793  92.0338111 151.0225546  93.8676466
  92.6039468 151.4512814  93.2293950  92.6246223 150.7408130  94.5660651
  94.0782916 147.5977216  87.7386267  94.7806959 148.0498260  88.2060194
  93.7463544 146.9561035  88.3666161  92.5263277 146.1888973 102.1137477
  91.8961938 146.8705254 102.3472874  92.4199365 146.0772055 101.1690615
  87.8208250 145.8560769  93.0403401  87.0307304 146.1118298  92.5643512
  88.3119497 146.6709107  93.1455442 101.8372059 153.1966008  95.7908682
 102.6589503 152.7946196  95.5091363 101.8334462 153.0934242  96.7424798
  89.7722995 146.2205348  89.9986878  88.9754158 146.3324043  90.5170373
  89.5448587 146.5592001  89.1327768  95.6028663 152.7450052  97.9469392
  95.6673095 153.2070459  98.7827564  94.8939587 152.1147416  98.0751702
  86.1045953 146.1091260  95.4718392  86.3553991 146.9938269  95.7375968
  86.6405501 145.9295861  94.6993484 109.9278052 149.5404757  92.1393653
 109.1741761 148.9712155  91.9837658 110.0625594 149.5067421  93.0864288
  95.3176680 154.4118159  87.8148373  95.1822355 155.2569695  88.2433220
  95.8586493 154.6137437  87.0514306  91.8044020 140.4909739 104.4762728
  91.4110966 139.9375937 105.1510372  92.6210160 140.8020317 104.8669245
  88.7706078 151.9293597  88.3876298  89.2830598 152.7236847  88.5381862
  89.4228791 151.2319888  88.3209899  90.5800962 155.0459353  90.4699051
  90.7567591 155.9677318  90.2820035  91.3757796 154.7317773  90.8993431
  94.7211981 141.9067618 102.0682984  95.4621694 142.5074771 101.9887447
  94.9529904 141.1645256 101.5101027  89.8653319 147.0923985 100.3461214
  89.7506834 146.1909242 100.6468313  89.0097837 147.3387682  99.9946031
  96.9445157 155.0341726 101.9448715  96.5009011 154.2478104 101.6269619
  97.6062370 155.2220876 101.2792605  91.7032278 156.5637527  96.4709393
  92.2539703 156.4354591  95.6986387  90.8643754 156.8632416  96.1204286
  99.0426395 155.3144525  99.9730116  99.0244870 156.1353407  99.4810385
  99.9646315 155.1898601 100.1980257  95.4999449 152.8288655 100.8153624
  96.0327786 152.0676943 100.5852932  94.9713530 152.5362307 101.5577779
  98.6669144 137.9348721  96.3447266  98.3233413 138.8250363  96.2686377
  99.0348107 137.7450379  95.4816851  86.7354995 150.2582251  89.1635868
  87.5730217 150.6679260  88.9469576  86.9133262 149.3181694  89.1336062
  98.6319427 147.9257332  84.8519701  98.1166050 148.6961937  85.0908089
  98.3596735 147.2522468  85.4752763  96.2166538 142.7707033  89.9104940
  95.3608134 142.3813883  89.7310578  96.6293489 142.8498994  89.0504725
  97.7465684 140.3053376  94.3096499  97.2430480 140.2683511  93.4964305
  98.0396291 141.2146119  94.3693156  93.9908570 140.3892106  93.3162681
  94.8561567 140.1934914  92.9568571  94.0586079 140.1602458  94.2432038
 103.6053701 150.6789687  86.7872875 102.8283144 150.3400846  86.3428037
 104.2845182 150.6842310  86.1127840  98.4205730 145.7984424  86.6779482
  98.1155865 146.1130573  87.5289626  99.3736172 145.8765844  86.7206815
  96.8652162 151.9574647  88.3272436  96.3373523 151.2227407  88.0145674
  96.3639664 152.7349324  88.0812405 101.8445008 150.1523668  93.4439483
 101.1868682 150.8422929  93.5319611 102.6485407 150.5420100  93.7873469
 100.6550467 148.5068041  91.4943424 101.1682348 149.1398032  91.9965134
 101.3051690 147.9069236  91.1286784  95.0104762 149.7754858  81.3307409
  94.1031824 149.5444111  81.5298558  95.5075794 148.9792477  81.5181391
  97.9172841 158.4852365  84.2504096  97.2434540 158.7884062  84.8589053
  98.3038663 159.2881445  83.9009553  97.1331297 145.9817496  93.7401765
  96.2153859 146.2032443  93.5823453  97.5491441 146.0563807  92.8813472
  97.9166345 147.3808912  88.8704445  98.6638164 147.8930309  88.5611567
  98.1857935 147.0592965  89.7308839  96.1892995 149.8767453  85.8531399
  95.2804215 149.5926485  85.9503869  96.2188079 150.2966531  84.9934706
 101.4212263 153.4874042  89.6222567 100.9674590 152.6464952  89.6787758
 100.7906229 154.1235440  89.9597347 100.3645182 144.4166028  90.8523234
  99.6267939 143.9043414  91.1833477 100.6171956 143.9766410  90.0406511
  99.8645202 155.3250539  90.5572385 100.1568176 155.8855596  89.8384751
 100.3743823 155.6179100  91.3125544 100.4656810 137.1942280  91.4465004
 100.7715686 136.3339644  91.1590919 101.1909414 137.7859900  91.2463998
  86.7581166 147.5972967  89.8346602  86.5605565 147.0042327  89.1097668
  86.2027830 147.2925177  90.5522540  94.7377889 147.4896073  91.9541195
  94.7926499 146.5369910  91.8783671  93.9269091 147.6455512  92.4382493
  95.8869083 151.4176196  83.1919478  95.4488513 150.7012055  82.7325115
  96.6279524 151.6452311  82.6304569  92.6770249 146.1073133  89.7131574
  91.8638115 146.4067303  90.1196766  93.1729243 145.7128822  90.4306056
  94.8278827 156.1030890  91.6465838  94.7855006 156.3291736  90.7174370
  95.7441526 155.8694264  91.7951640  98.2744461 146.5714957  98.5446468
  98.6293849 146.7986431  99.4040933  98.9216592 146.9033334  97.9223723
 104.0042198 149.6933393  89.2495797 103.8660096 149.8834989  88.3216986
 103.6478417 150.4552776  89.7063848  92.1684324 143.6791488  95.3292809
  92.8083703 143.5380248  94.6315772  91.3361855 143.3926002  94.9531411
 104.0311577 151.7609920  94.2607068 104.4648084 151.6685209  95.1090122
 104.7443158 151.7367421  93.6227084  92.9444628 152.9793919  91.4427801
  93.7385226 152.4844239  91.2410376  92.2336320 152.4511782  91.0795507
  97.7639472 155.3612014  95.7940169  97.8176495 155.9302951  96.5617885
  96.8954254 155.5313899  95.4294206  89.2527391 147.1237001  87.5187554
  88.3224979 147.0621456  87.7357516  89.3484863 146.6012953  86.7224195
  90.6437866 145.0629571  97.2764620  91.3160919 144.8546933  96.6277269
  89.8167652 144.8651657  96.8369852 104.8927127 151.8033621  96.7939954
 105.0863017 152.7079431  97.0399228 104.7927745 151.3441040  97.6278539
  96.5463438 141.6891512  99.2930281  95.8991353 142.3881461  99.1994757
  97.3164453 142.1227655  99.6606529  99.9542236 151.9540364 102.3680834
  99.8027742 151.7250915 101.4510918  99.9446915 152.9110965 102.3812179
  96.7227572 149.5272276  97.3527101  97.6519632 149.6783436  97.1796068
  96.3018602 149.6156297  96.4975747  95.5215904 153.5522941  95.1225638
  95.3826990 153.1841725  95.9951576  94.7330500 154.0670580  94.9509596
  96.1164056 158.6532037  86.4651175  96.2915812 158.1820081  87.2796797
  95.4296844 159.2797804  86.6932435  97.0721119 152.9304544  92.5114476
  96.7370952 152.8905314  93.4072126  96.5725065 152.2649259  92.0384886
  91.0465363 148.3372174  98.0367057  90.9085161 147.6052412  98.6378596
  91.9570286 148.2481074  97.7551245 100.0080311 150.2760578  82.7851536
  99.3909481 149.5507406  82.6884588  99.5396799 151.0369938  82.4418610
  93.6747664 148.0492133  97.5250737  94.3847282 147.4085325  97.4837355
  93.6316972 148.3005028  98.4476918 101.6634442 154.9859486 100.4457316
 101.6046989 154.3018706  99.7787899 102.0653961 155.7278476  99.9937942
  92.3876598 145.0357351  99.3446376  91.8513955 144.5848089  99.9967973
  91.7993306 145.1703260  98.6016841  90.6825141 161.8021400  93.2391035
  90.9221739 162.4339924  93.9170053  89.8394338 161.4509440  93.5256394
 101.6651850 152.9499070  98.6771296 100.7778628 152.6124992  98.7997695
 102.2350401 152.2182101  98.9140061  83.3180997 149.2823162  92.0014347
  84.0052037 148.9684892  91.4135362  83.1629125 150.1864527  91.7281598
  88.1215719 144.1713359  96.4299371  88.0373908 143.5639028  95.6949781
  87.2998425 144.6622377  96.4308867  95.1953003 157.6100523  95.6432539
  95.1223175 158.4155494  96.1551843  94.7530396 157.8092488  94.8180560
  94.9842783 156.8472293  89.1535360  94.2010305 157.3893973  89.2473585
  95.6835528 157.3646272  89.5529602  98.2939433 142.6566922  91.7969566
  98.7908132 141.9036884  91.4770636  97.5226414 142.6931239  91.2312775
 106.1469190 148.3607288  93.4387857 106.1359066 149.2432003  93.0681790
 105.2786570 148.0078838  93.2442394  97.6551687 157.5087357  97.7990698
  98.3679659 158.1434821  97.7266599  97.1641715 157.6051223  96.9830699
  99.3769213 151.4138609  89.3707989  98.4425492 151.5340072  89.2012694
  99.5545882 150.5111076  89.1067999  94.8774402 144.7984305  91.5241250
  94.5072189 144.2455345  92.2122156  95.3733494 144.1942439  90.9716250
 102.7641765 147.2555929  89.9058023 103.2302217 148.0883920  89.8318326
 103.2149265 146.7900910  90.6103282  92.7063600 155.2581800  98.6196268
  93.4073060 155.8918283  98.7725663  92.2358715 155.5996532  97.8591908
 100.8317996 153.5999750  86.9044175 101.1077840 153.4856344  87.8138049
  99.9622495 153.2017235  86.8656348 100.7358428 139.6236516  93.9448925
  99.8221507 139.8540742  94.1131132 101.1651529 139.7074960  94.7962957
 100.5064886 147.8126407  96.4448819  99.8536336 148.0602315  95.7901271
 100.8845266 146.9990546  96.1111296  97.4672060 157.8486101  90.5476989
  97.6494454 157.0307757  91.0104741  98.2905046 158.0653793  90.1101879
  97.8014225 156.7754286  87.8092037  98.3301992 156.2646740  87.1962200
  98.0642445 156.4596816  88.6737571  96.5552459 148.5546219 102.9314856
  95.8793096 148.4540348 103.6017231  97.3780093 148.3985432 103.3950853
  88.3031318 154.7918155  95.5527371  88.8884755 154.0461843  95.6855275
  88.1056157 155.1022112  96.4364035  91.1569973 157.8269402  90.5689813
  90.4880349 158.3115530  90.0853853  91.0182843 158.0738623  91.4833192
  82.8948973 147.3623755  94.2731814  82.9333072 146.8287346  95.0668932
  82.3889266 146.8358961  93.6542791  95.2975242 159.8613146  97.1672472
  95.8493550 160.0244767  97.9321557  95.6381435 160.4517584  96.4952497
  90.2739735 142.2088296  97.7694356  90.3381062 143.0703127  97.3571754
  90.2106855 141.5962297  97.0366715  89.7492008 144.2811428 101.4167391
  90.3764047 143.8988506 102.0304915  88.8919927 144.0625630 101.7823083
 100.1486116 154.6874404 103.0221126 100.6926020 155.3004362 102.5276081
  99.5672961 155.2453982 103.5388139  86.5257550 146.0887857  87.3485746
  86.8210992 145.1798536  87.2952799  85.6245586 146.0675597  87.0266748
  98.4343629 157.8095122  94.1536154  98.3094769 157.0084861  93.6447099
  99.0922720 158.3041315  93.6650124  90.0551797 144.1643854  93.3313294
  89.3338383 144.7779822  93.1920767  90.8445053 144.7001619  93.2529940
 100.4978538 155.6104142  95.7815704  99.5508873 155.4909493  95.7094031
 100.8461311 154.7226640  95.8641965  92.8578111 141.4998281  99.6053946
  93.3812513 141.7460577 100.3680255  92.6390444 142.3318315  99.1857083
  97.5024971 155.4056858  91.9820056  97.3549933 154.4773565  92.1627626
  98.3278464 155.4276949  91.4977132 101.1059093 156.2285417  93.0684929
 102.0305640 156.0228278  92.9309380 100.9374396 155.9801818  93.9774271
  94.0630656 142.4411976  97.2903616  93.7227476 141.6419789  97.6924296
  93.3569662 142.7413686  96.7180450  94.7147128 139.5261288  95.7430939
  95.5373197 139.0521766  95.6209830  94.9585191 140.3051772  96.2429626
  97.4986485 143.2594695  86.9752174  97.7150100 144.1419333  86.6741002
  97.0180552 142.8680909  86.2457815  92.2385707 146.2180409  93.5522918
  92.0930287 146.5320712  94.4447200  91.7610910 146.8365309  92.9993817
  94.0982089 143.2082957  93.6003808  94.0843658 142.3124050  93.2636106
  94.8154518 143.2153620  94.2342094  95.9508220 143.6420297  95.6456935
  95.6925998 144.5637368  95.6441266  95.4193261 143.2450731  96.3357399
 100.8954409 156.7471084  88.4247020 101.0691287 156.1817506  87.6720873
 101.3883300 157.5471979  88.2426510  86.7131369 148.7585753  96.4910579
  86.1684837 149.5345561  96.6230854  87.5910719 149.1056558  96.3329701
  96.3710176 139.7752247  92.0058098  96.3931873 139.8391580  91.0510077
  96.7878235 138.9356756  92.1998604 106.7493800 149.5107507  90.0437320
 107.1924946 148.7614832  89.6456443 105.8720310 149.5017643  89.6611052
 101.8829581 156.0637848  85.5243919 102.5780486 156.6844541  85.7431233
 102.2252732 155.2133200  85.7996297  87.4997391 147.8855649  99.3840736
  86.7579127 148.0338285  99.9705367  87.1790135 148.1463915  98.5207486
 103.7821005 153.5137554  87.0531250 104.3072329 153.8524827  86.3280570
 103.6943357 152.5784569  86.8694384  95.4441053 157.4271628  99.1821126
  95.7528180 157.1820774 100.0543826  96.2416535 157.6318266  98.6939996
  95.4661665 159.5809537  91.4126503  95.0266656 159.0885916  92.1059359
  96.2169782 159.0382505  91.1718578  87.9454004 155.7721078  91.4151131
  88.7712024 155.4724850  91.0349774  87.5948056 155.0028701  91.8640919
  92.9135537 155.1247546  93.4848804  92.2915547 154.4618251  93.1851032
  93.5840404 155.1508678  92.8022452  86.1462609 153.6907405  92.3740064
  85.3094518 153.2629579  92.1924066  86.1186255 153.8839848  93.3110856
  92.9860065 143.6029334 103.0781310  93.0348220 144.4791457 102.6959080
  93.5282579 143.0606727 102.5052954 103.4714911 154.1470458 102.3582447
 102.6810454 154.1294596 101.8186947 103.2348265 154.6858751 103.1131484
 103.5912786 150.9962924  99.6715176 103.6410791 150.8312931 100.6130699
 103.4826709 150.1290183  99.2813057  92.4749044 153.6751470  86.9607265
  92.6237165 154.3586934  86.3073938  93.2815488 153.6556560  87.4756721
 100.8816548 146.9793852 100.9874483 101.7826411 146.8400317 100.6958481
 100.9564523 147.1448307 101.9272660  95.2159353 144.3560707  99.8327669
  94.3462663 144.6494273  99.5610258  95.4518834 144.9401152 100.5534933
 105.0930983 153.4159865  99.9157198 104.8015791 153.7789846 100.7520659
 104.4803114 152.7026874  99.7370530 106.2926665 150.9812745  92.4359768
 107.1273556 151.4202549  92.5997328 106.4285794 150.5051398  91.6168014
 103.3418171 148.5392480  98.3837256 103.8172292 148.7320126  97.5756107
 102.4183736 148.5951666  98.1380639  90.2301677 149.7016647  87.9668334
  89.9847719 148.7978977  88.1648544  90.3997592 149.7033798  87.0247812
  97.9198387 140.5740324  97.3493089  98.4380331 141.3101351  97.0239578
  97.5653520 140.8804317  98.1839849  98.1710981 136.9940606  92.8693986
  98.4512735 136.3263795  93.4954413  98.9561588 137.1869702  92.3568650
  95.9744450 156.1699600  84.4319012  95.4018417 156.7889787  83.9789484
  96.5477244 156.7198962  84.9658934 102.0419840 145.4158240  96.6165561
 102.9937263 145.5156338  96.6377785 101.8723290 144.6236509  97.1263646
 100.0634219 142.5013823  96.8024962  99.4684151 142.7818836  96.1071451
  99.7783916 142.9907724  97.5741703  99.1941710 156.4536750  85.5627595
 100.1272383 156.3882312  85.7660470  99.1064923 157.2893017  85.1042127
 101.8229726 155.7702621  82.5231542 101.7443358 155.4362484  83.4167300
 102.6439393 156.2624388  82.5223015 104.5207918 148.6364360  95.7307861
 104.4884238 147.6980361  95.9167545 105.1308541 148.7148397  94.9973686
  96.3591248 147.5060413  81.7735065  97.3050353 147.3766621  81.8423483
  95.9805493 146.7675075  82.2504493 104.6702406 145.4275403  95.7766144
 104.1541455 144.6433860  95.5896073 105.5542355 145.0994120  95.9412663
 102.3313133 139.1716419  91.7361957 102.1337954 138.8631507  92.6205289
 102.9412839 139.8978058  91.8659887 110.3384467 149.6980367  94.8713898
 111.0687856 149.4365655  95.4321601 109.7291413 148.9609089  94.9115966
 108.4199765 147.8388229  95.4688349 107.6932928 147.7044194  94.8604840
 108.0047051 148.1465058  96.2745067  96.2429941 151.5578159 103.2335722
  97.1632950 151.7356758 103.4275768  96.2079524 150.6134204 103.0815421
  85.4612106 146.7516753  92.1588996  85.1414890 145.8982061  91.8663370
  84.9145534 146.9665331  92.9146964  89.2392013 149.4679194  95.8758503
  89.4578023 150.3996301  95.8946537  89.6517787 149.1087168  96.6613307
  96.1596231 139.9747279  87.8634191  95.3496960 139.6294364  88.2389437
  96.8480648 139.6654823  88.4521803  98.0886780 139.0525326  89.4858488
  98.6417818 139.4720779  90.1448511  98.3256866 138.1261074  89.5281444
  94.1119879 145.0412399 105.2661252  94.0116606 145.9906756 105.1973343
  93.8941421 144.7130638 104.3937322  85.3300366 150.3719664  94.1282118
  84.6363837 149.9573617  93.6152072  86.0773357 150.4140201  93.5315537
 101.4665587 141.1625851  88.9937152 100.8864256 141.8210655  88.6115205
 101.2001519 140.3403196  88.5824570  99.9169153 140.5630909  91.1958473
 100.4168931 140.6747443  90.3872791 100.5604761 140.2591961  91.8359281
  93.9751149 148.4709538 104.0826314  93.4918231 149.2709898 104.2890203
  94.0612088 148.4817483 103.1293758  87.2437108 150.3037918  92.0048133
  87.2207797 150.4025605  91.0530016  87.5537745 151.1503069  92.3265299
  89.9024486 152.3614073  96.1194747  90.8567740 152.3298015  96.0524679
  89.7037010 151.9004697  96.9344973  90.4923868 150.9315189  98.6865545
  91.3116757 151.4259268  98.7100382  90.7660676 150.0147157  98.6583113
 100.2490465 143.3225941  88.0493501  99.3616320 143.6075592  87.8313695
 100.6644454 143.1619705  87.2020777 103.6005001 143.3472462  91.7647840
 104.3765391 143.8368915  92.0372457 102.8753135 143.7730516  92.2219709
 106.0377559 144.0600082  92.8221780 106.6322050 143.8195817  92.1115089
 106.1104143 143.3407212  93.4495317  88.2574715 157.9033692  93.1364945
  88.1229183 157.1434093  92.5702943  87.8406777 158.6274592  92.6693734
  99.3933678 153.0870616  82.1441521 100.0969528 153.2920618  82.7599176
  98.6696327 153.6547378  82.4090604 100.2231488 148.8380477  88.2643791
 100.1666690 149.2949029  87.4251423 100.7759831 148.0771162  88.0866633
 104.0336294 144.6270209  89.0893910 103.7773229 144.2266845  89.9202118
 103.4089162 145.3414003  88.9644049 108.3448632 147.3666282  91.5965202
 107.7848190 147.4359472  92.3696764 107.7392136 147.1907267  90.8764698
  91.4143841 158.8003009  93.3483388  91.2976225 159.7448442  93.2462078
  90.5936287 158.4976571  93.7369187 101.3020376 153.5253145  84.1939981
 102.1365979 153.0934344  84.0117455 101.1404718 153.3535159  85.1216875
 100.9566268 150.0285258  85.5596320 100.9015072 149.8629530  84.6184764
 100.3312323 150.7361291  85.7158510  85.7458783 145.2653323  99.3857742
  86.3917646 144.7552277  99.8744967  85.5375934 146.0022005  99.9601167
  98.2712175 152.3334170 104.8849883  99.1403335 152.5074823 104.5236518
  97.7918926 153.1528587 104.7625612  92.4398355 159.4531271  96.5639316
  93.3425602 159.4854882  96.8805811  92.2135725 158.5231722  96.5785652
  94.1951957 158.2062258  93.2249395  93.2447588 158.2064120  93.1113767
  94.4984443 157.4594992  92.7085430  98.0814513 136.1236144  89.3927575
  97.3146908 135.5694631  89.5384257  98.4925218 136.1958013  90.2541727
  90.0856274 142.4120940 103.4832756  90.9487735 142.0557745 103.6936081
  89.5121684 142.0734835 104.1708161 109.9304651 164.0422796  94.2895157
 110.5683061 163.9229544  93.5858497 109.8125494 164.9903640  94.3483109
 106.7394357 163.9950224  94.2256682 106.4012868 163.8791289  93.3377217
 107.6084125 163.5941389  94.2057688 102.5981173 165.8485701  90.2153573
 102.0346038 165.7575638  89.4469861 102.4833568 165.0285605  90.6956065
 107.2214140 165.1485076 100.1842888 107.2102781 164.7537874  99.3123391
 107.3834779 164.4151149 100.7776659 100.1445605 167.3436892  93.0537793
 100.9366896 167.0027717  92.6384093 100.3842255 167.4531867  93.9739947
 108.1780731 169.5156668  85.5268038 107.5268711 170.1010749  85.1402052
 108.9725094 170.0462863  85.5863075 102.1036358 166.6045806  85.9255172
 102.8767234 166.0574793  85.7868048 102.4561757 167.4690055  86.1369634
 103.9421401 167.9322188  99.1322072 103.6511267 168.8367819  99.0168738
 104.5778385 167.9738716  99.8466141 104.8677608 165.3099036  95.7223431
 105.4641180 165.0855059  95.0080394 104.9252579 164.5683782  96.3248879
 104.4402636 162.7638472  83.5573622 104.6928157 162.2419993  82.7957085
 103.5027195 162.6004617  83.6600306 109.4845919 161.7674250  91.3648365
 110.2709008 161.3493673  91.0138782 109.7484623 162.6720342  91.5330014
 109.6555996 167.2047100  86.0637022 109.0201829 167.2781727  86.7757927
 109.3253403 167.7940699  85.3856101 114.8854346 161.7049483  92.2681344
 115.6179518 161.1348700  92.5019173 114.1293702 161.3171084  92.7087849
 104.1598925 164.6666578  85.7597997 104.0435183 163.9911481  86.4279081
 104.2701185 164.1798952  84.9430150 106.5030466 164.1276725  89.4644686
 106.1388673 163.6007346  90.1757608 107.3597582 163.7375194  89.2911172
 112.4079767 155.4171057  96.7275952 112.0763091 156.2866468  96.5037167
 111.8125380 155.1007341  97.4069983 106.1435953 159.1566625  84.4606035
 106.3110355 160.0246861  84.8276506 105.9533122 159.3193906  83.5367324
 108.9011286 167.6183603  96.1271865 108.6012009 168.5208642  96.0187672
 108.5562346 167.3515787  96.9793018 102.3523768 164.0697400  92.1608570
 101.4274264 163.9373614  92.3686261 102.6008181 164.8491620  92.6578512
 112.3008430 160.1366144  93.8069303 111.3925307 160.0681552  93.5128063
 112.2496026 160.6138089  94.6351128 106.1225174 161.6124282  85.4452702
 106.0024799 162.0581333  86.2838182 105.4277762 161.9609600  84.8866240
  99.7132579 163.7130674  92.9952359  99.8424960 163.9665153  93.9091770
  99.0330030 164.3058382  92.6757014 106.3749296 161.5555789 101.7504200
 105.5982630 162.1149709 101.7407064 107.0139859 162.0412572 102.2719070
 114.1670076 158.3382582  95.5847176 113.5244457 158.6315115  94.9386971
 113.6625005 158.2235502  96.3900373 111.8210240 162.0845755  86.2733036
 112.7328096 162.3173142  86.0980733 111.3119887 162.6682799  85.7108114
 104.6295668 164.3641243 101.3122167 105.3710352 164.9026287 101.0356990
 103.9232653 164.9907531 101.4693719 110.1051008 166.5070383  99.9094328
 110.5134364 166.0652794  99.1648961 109.3828269 165.9323011 100.1628521
 106.4582078 161.4442990  97.2827885 107.3043273 161.8682403  97.4262534
 106.3980715 160.7876614  97.9766448 110.4279822 167.0671574  93.6646617
 109.7988685 167.2317288  92.9622685 110.0405484 167.4813183  94.4357581
 109.6081523 159.1047358  98.9409059 109.3642455 159.8589419  98.4043335
 109.8841454 159.4832706  99.7756306 111.5619986 165.6485971  97.6186324
 111.7736881 166.2917730  96.9420706 111.5149734 164.8148287  97.1508255
 109.1646215 158.2603791  94.5222897 108.3030694 158.5585045  94.8139634
 109.1908649 158.4774190  93.5903929 105.9807784 166.8045982  90.9296702
 106.4446130 167.0833685  90.1401325 105.7164582 165.9029426  90.7469793
 102.8731865 166.3517463  93.8676466 103.4433222 166.7804732  93.2293950
 103.4639977 166.0700048  94.5660651 104.9176670 162.9269134  87.7386267
 105.6200714 163.3790178  88.2060194 104.5857299 162.2852953  88.3666161
 103.3657032 161.5180891 102.1137477 102.7355692 162.1997172 102.3472874
 103.2593120 161.4063972 101.1690615  98.6602004 161.1852687  93.0403401
  97.8701058 161.4410215  92.5643512  99.1513252 162.0001025  93.1455442
 112.6765814 168.5257926  95.7908682 113.4983257 168.1238113  95.5091363
 112.6728217 168.4226160  96.7424798 100.6116750 161.5497266  89.9986878
  99.8147913 161.6615960  90.5170373 100.3842342 161.8883918  89.1327768
 106.4422417 168.0741969  97.9469392 106.5066850 168.5362376  98.7827564
 105.7333341 167.4439334  98.0751702  96.9439707 161.4383177  95.4718392
  97.1947746 162.3230187  95.7375968  97.4799256 161.2587779  94.6993484
 106.1570435 169.7410077  87.8148373 106.0216110 170.5861612  88.2433220
 106.6980247 169.9429354  87.0514306 102.6437774 155.8201657 104.4762728
 102.2504720 155.2667855 105.1510372 103.4603915 156.1312235 104.8669245
  99.6099832 167.2585515  88.3876298 100.1224353 168.0528765  88.5381862
 100.2622545 166.5611805  88.3209899 101.4194717 170.3751271  90.4699051
 101.5961345 171.2969236  90.2820035 102.2151550 170.0609690  90.8993431
 105.5605735 157.2359536 102.0682984 106.3015449 157.8366689 101.9887447
 105.7923658 156.4937173 101.5101027 100.7047074 162.4215903 100.3461214
 100.5900589 161.5201160 100.6468313  99.8491591 162.6679600  99.9946031
 107.7838911 170.3633643 101.9448715 107.3402765 169.5770022 101.6269619
 108.4456125 170.5512794 101.2792605 106.3393203 168.1580573 100.8153624
 106.8721540 167.3968861 100.5852932 105.8107285 167.8654224 101.5577779
 109.5062898 153.2640639  96.3447266 109.1627168 154.1542280  96.2686377
 109.8741861 153.0742296  95.4816851  97.5748749 165.5874169  89.1635868
  98.4123971 165.9971177  88.9469576  97.7527017 164.6473611  89.1336062
 109.4713181 163.2549250  84.8519701 108.9559805 164.0253854  85.0908089
 109.1990490 162.5814386  85.4752763 107.0560292 158.0998951  89.9104940
 106.2001889 157.7105801  89.7310578 107.4687244 158.1790911  89.0504725
 108.5859439 155.6345294  94.3096499 108.0824234 155.5975429  93.4964305
 108.8790046 156.5438036  94.3693156 104.8302325 155.7184023  93.3162681
 105.6955321 155.5226832  92.9568571 104.8979834 155.4894375  94.2432038
 114.4447455 166.0081604  86.7872875 113.6676898 165.6692764  86.3428037
 115.1238936 166.0134228  86.1127840 109.2599484 161.1276342  86.6779482
 108.9549620 161.4422491  87.5289626 110.2129926 161.2057762  86.7206815
 107.7045916 167.2866565  88.3272436 107.1767278 166.5519325  88.0145674
 107.2033419 168.0641241  88.0812405 112.6838762 165.4815586  93.4439483
 112.0262437 166.1714847  93.5319611 113.4879161 165.8712018  93.7873469
 102.4364644 157.9486231  90.6879048 103.0108396 157.7261413  89.9552241
 103.0235626 158.0174926  91.4407649 111.4944221 163.8359958  91.4943424
 112.0076103 164.4689950  91.9965134 112.1445445 163.2361154  91.1286784
 102.7634231 159.9790692  84.7074933 101.9271543 160.3165379  85.0284208
 102.6239001 159.8439672  83.7702070 104.7387311 154.8227480  89.4154117
 104.0851724 154.5076497  88.7910732 104.6967786 154.2003221  90.1413940
 105.8498516 165.1046775  81.3307409 104.9425578 164.8736029  81.5298558
 106.3469548 164.3084395  81.5181391 107.9725052 161.3109414  93.7401765
 107.0547613 161.5324361  93.5823453 108.3885195 161.3855724  92.8813472
 108.7560100 162.7100830  88.8704445 109.5031919 163.2222227  88.5611567
 109.0251689 162.3884882  89.7308839 107.0286750 165.2059370  85.8531399
 106.1197969 164.9218403  85.9503869 107.0581834 165.6258449  84.9934706
 112.2606017 168.8165960  89.6222567 111.8068344 167.9756870  89.6787758
 111.6299984 169.4527358  89.9597347 111.2038937 159.7457946  90.8523234
 110.4661694 159.2335332  91.1833477 111.4565710 159.3058327  90.0406511
 111.3050564 152.5234198  91.4465004 111.6109441 151.6631561  91.1590919
 112.0303169 153.1151818  91.2463998  97.5974920 162.9264884  89.8346602
  97.3999320 162.3334245  89.1097668  97.0421584 162.6217095  90.5522540
 105.5771644 162.8187991  91.9541195 105.6320254 161.8661827  91.8783671
 104.7662846 162.9747430  92.4382493 106.7262838 166.7468114  83.1919478
 106.2882268 166.0303973  82.7325115 107.4673278 166.9744229  82.6304569
 103.5164004 161.4365051  89.7131574 102.7031869 161.7359221  90.1196766
 104.0122998 161.0420739  90.4306056 105.6672582 171.4322808  91.6465838
 105.6248760 171.6583654  90.7174370 106.5835280 171.1986182  91.7951640
 109.1138215 161.9006875  98.5446468 109.4687603 162.1278348  99.4040933
 109.7610347 162.2325252  97.9223723 114.8435952 165.0225311  89.2495797
 114.7053851 165.2126907  88.3216986 114.4872171 165.7844694  89.7063848
 103.0078079 159.0083406  95.3292809 103.6477458 158.8672165  94.6315772
 102.1755609 158.7217920  94.9531411 103.7838382 168.3085837  91.4427801
 104.5778981 167.8136157  91.2410376 103.0730075 167.7803700  91.0795507
 108.6033227 170.6903932  95.7940169 108.6570249 171.2594868  96.5617885
 107.7348008 170.8605817  95.4294206 100.0921146 162.4528918  87.5187554
  99.1618734 162.3913374  87.7357516 100.1878618 161.9304871  86.7224195
 100.0106695 158.9783731  90.1065795 100.2713512 159.8929064  89.9974956
 100.8323867 158.5108174  90.2562408 101.4831620 160.3921488  97.2764620
 102.1554674 160.1838850  96.6277269 100.6561407 160.1943574  96.8369852
 107.3857192 157.0183429  99.2930281 106.7385107 157.7173379  99.1994757
 108.1558208 157.4519573  99.6606529 110.7935990 167.2832281 102.3680834
 110.6421497 167.0542833 101.4510918 110.7840670 168.2402883 102.3812179
 107.5621327 164.8564194  97.3527101 108.4913387 165.0075354  97.1796068
 107.1412357 164.9448215  96.4975747 106.3609658 168.8814859  95.1225638
 106.2220744 168.5133643  95.9951576 105.5724255 169.3962498  94.9509596
 107.9114874 168.2596461  92.5114476 107.5764706 168.2197231  93.4072126
 107.4118819 167.5941177  92.0384886 101.8859118 163.6664091  98.0367057
 101.7478915 162.9344330  98.6378596 102.7964041 163.5772991  97.7551245
 110.8474065 165.6052496  82.7851536 110.2303236 164.8799324  82.6884588
 110.3790554 166.3661856  82.4418610 104.5141418 163.3784051  97.5250737
 105.2241037 162.7377243  97.4837355 104.4710726 163.6296945  98.4476918
 103.2270352 160.3649268  99.3446376 102.6907709 159.9140007  99.9967973
 102.6387061 160.4995177  98.6016841 102.6372611 159.8237920  81.9072840
 101.7602077 159.7026721  81.5435087 103.1130364 159.0323998  81.6551729
 112.5045604 168.2790988  98.6771296 111.6172383 167.9416910  98.7997695
 113.0744155 167.5474019  98.9140061  94.1574751 164.6115080  92.0014347
  94.8445791 164.2976810  91.4135362  94.0022880 165.5156444  91.7281598
  98.9609473 159.5005276  96.4299371  98.8767662 158.8930946  95.6949781
  98.1392180 159.9914294  96.4308867 105.8236537 172.1764210  89.1535360
 105.0404059 172.7185890  89.2473585 106.5229282 172.6938190  89.5529602
 109.1333187 157.9858840  91.7969566 109.6301887 157.2328802  91.4770636
 108.3620169 158.0223156  91.2312775 116.9862945 163.6899205  93.4387857
 116.9752821 164.5723921  93.0681790 116.1180324 163.3370756  93.2442394
 110.2162968 166.7430527  89.3707989 109.2819247 166.8631989  89.2012694
 110.3939636 165.8402994  89.1067999 105.7168156 160.1276223  91.5241250
 105.3465944 159.5747263  92.2122156 106.2127248 159.5234356  90.9716250
 113.6035519 162.5847846  89.9058023 114.0695972 163.4175838  89.8318326
 114.0543020 162.1192828  90.6103282 103.5457355 170.5873718  98.6196268
 104.2466814 171.2210201  98.7725663 103.0752470 170.9288449  97.8591908
 111.6711750 168.9291668  86.9044175 111.9471594 168.8148262  87.8138049
 110.8016249 168.5309152  86.8656348 111.5752182 154.9528433  93.9448925
 110.6615262 155.1832660  94.1131132 112.0045284 155.0366877  94.7962957
 111.3458641 163.1418325  96.4448819 110.6930091 163.3894233  95.7901271
 111.7239020 162.3282463  96.1111296 107.3946214 163.8838136 102.9314856
 106.7186851 163.7832266 103.6017231 108.2173847 163.7277350 103.3950853
  99.1425073 170.1210073  95.5527371  99.7278509 169.3753761  95.6855275
  98.9449911 170.4314029  96.4364035  93.7342727 162.6915673  94.2731814
  93.7726827 162.1579264  95.0668932  93.2283020 162.1650878  93.6542791
 101.1133490 157.5380213  97.7694356 101.1774816 158.3995044  97.3571754
 101.0500610 156.9254215  97.0366715 100.5885762 159.6103346 101.4167391
 101.2157801 159.2280423 102.0304915  99.7313681 159.3917548 101.7823083
  97.3651305 161.4179775  87.3485746  97.6604746 160.5090454  87.2952799
  96.4639341 161.3967515  87.0266748 100.8945552 159.4935772  93.3313294
 100.1732138 160.1071739  93.1920767 101.6838808 160.0293537  93.2529940
 103.6971865 156.8290198  99.6053946 104.2206267 157.0752495 100.3680255
 103.4784199 157.6610233  99.1857083  99.0939147 159.0993873  87.4725071
  98.7651853 158.2191252  87.2900177  99.4478517 159.0441541  88.3601460
 108.3418725 170.7348776  91.9820056 108.1943688 169.8065483  92.1627626
 109.1672219 170.7568866  91.4977132 102.2080970 159.3866843  87.8400548
 102.5477042 159.9152764  87.1179157 102.6553090 159.7247249  88.6159115
 104.9024411 157.7703893  97.2903616 104.5621231 156.9711706  97.6924296
 104.1963417 158.0705604  96.7180450 105.5540882 154.8553206  95.7430939
 106.3766952 154.3813684  95.6209830 105.7978946 155.6343689  96.2429626
 104.1949117 157.8841464  86.0393841 104.9157479 158.2622717  85.5357558
 103.5714421 158.6030341  86.1428819 108.3380240 158.5886613  86.9752174
 108.5543854 159.4711251  86.6741002 107.8574307 158.1972827  86.2457815
 103.0779461 161.5472326  93.5522918 102.9324042 161.8612629  94.4447200
 102.6004665 162.1657227  92.9993817 104.9375844 158.5374874  93.6003808
 104.9237413 157.6415968  93.2636106 105.6548272 158.5445538  94.2342094
 106.7901975 158.9712215  95.6456935 106.5319753 159.8929285  95.6441266
 106.2587015 158.5742649  96.3357399  97.5525123 164.0877671  96.4910579
  97.0078591 164.8637479  96.6230854  98.4304473 164.4348475  96.3329701
 104.3412740 157.4189255  88.8691378 104.4628651 156.4905901  89.0682265
 104.0514782 157.4327941  87.9569693 107.2103930 155.1044165  92.0058098
 107.2325627 155.1683498  91.0510077 107.6271989 154.2648674  92.1998604
 117.5887555 164.8399425  90.0437320 118.0318701 164.0906750  89.6456443
 116.7114065 164.8309561  89.6611052  98.3391145 163.2147567  99.3840736
  97.5972881 163.3630202  99.9705367  98.0183889 163.4755833  98.5207486
 103.7529292 170.4539464  93.4848804 103.1309301 169.7910169  93.1851032
 104.4234159 170.4800596  92.8022452  96.9856364 169.0199322  92.3740064
  96.1488272 168.5921497  92.1924066  96.9580009 169.2131766  93.3110856
 103.8253819 158.9321252 103.0781310 103.8741975 159.8083375 102.6959080
 104.3676334 158.3898645 102.5052954 114.4306540 166.3254842  99.6715176
 114.4804545 166.1604849 100.6130699 114.3220464 165.4582101  99.2813057
 103.3142799 169.0043387  86.9607265 103.4630919 169.6878852  86.3073938
 104.1209242 168.9848477  87.4756721 111.7210303 162.3085770 100.9874483
 112.6220165 162.1692235 100.6958481 111.7958277 162.4740224 101.9272660
 106.0553108 159.6852624  99.8327669 105.1856417 159.9786190  99.5610258
 106.2912588 160.2693069 100.5534933 114.1811925 163.8684398  98.3837256
 114.6566047 164.0612044  97.5756107 113.2577491 163.9243584  98.1380639
 101.0695432 165.0308565  87.9668334 100.8241474 164.1270895  88.1648544
 101.2391346 165.0325715  87.0247812 108.7592142 155.9032241  97.3493089
 109.2774086 156.6393268  97.0239578 108.4047275 156.2096235  98.1839849
 100.3391079 160.7636923  85.4654495  99.6460324 160.8381278  84.8094531
 100.0942831 159.9997266  85.9876012 109.0104736 152.3232524  92.8693986
 109.2906490 151.6555713  93.4954413 109.7955343 152.5161619  92.3568650
 106.8138204 171.4991518  84.4319012 106.2412171 172.1181705  83.9789484
 107.3870998 172.0490879  84.9658934 112.8813594 160.7450158  96.6165561
 113.8331017 160.8448256  96.6377785 112.7117045 159.9528426  97.1263646
 110.9027974 157.8305741  96.8024962 110.3077906 158.1110754  96.1071451
 110.6177670 158.3199642  97.5741703 115.3601672 163.9656278  95.7307861
 115.3277992 163.0272278  95.9167545 115.9702296 164.0440314  94.9973686
 107.1985003 162.8352331  81.7735065 108.1444108 162.7058539  81.8423483
 106.8199248 162.0966992  82.2504493 115.5096161 160.7567321  95.7766144
 114.9935209 159.9725778  95.5896073 116.3936109 160.4286038  95.9412663
 113.1706887 154.5008337  91.7361957 112.9731709 154.1923425  92.6205289
 113.7806593 155.2269975  91.8659887 119.2593519 163.1680147  95.4688349
 118.5326683 163.0336112  94.8604840 118.8440806 163.4756976  96.2745067
 107.0823695 166.8870077 103.2335722 108.0026705 167.0648676 103.4275768
 107.0473278 165.9426122 103.0815421 105.3827920 160.7602307  81.7089950
 104.4759375 160.4635420  81.7852664 105.6603901 160.4632125  80.8424236
  96.3005860 162.0808670  92.1588996  95.9808645 161.2273979  91.8663370
  95.7539289 162.2957248  92.9146964 100.0785768 164.7971111  95.8758503
 100.2971778 165.7288219  95.8946537 100.4911542 164.4379086  96.6613307
 106.9989986 155.3039197  87.8634191 106.1890714 154.9586282  88.2389437
 107.6874403 154.9946740  88.4521803 108.9280534 154.3817243  89.4858488
 109.4811573 154.8012697  90.1448511 109.1650620 153.4552992  89.5281444
 104.9513633 160.3704317 105.2661252 104.8510360 161.3198674 105.1973343
 104.7335175 160.0422556 104.3937322 104.1526705 157.6189242  81.8501929
 105.0145869 157.9444140  82.1097747 104.3377049 156.8320738  81.3374995
  96.1694120 165.7011582  94.1282118  95.4757592 165.2865535  93.6152072
  96.9167111 165.7432118  93.5315537 112.3059341 156.4917769  88.9937152
 111.7258010 157.1502573  88.6115205 112.0395274 155.6695113  88.5824570
 110.7562908 155.8922826  91.1958473 111.2562686 156.0039361  90.3872791
 111.3998515 155.5883879  91.8359281 104.8144903 163.8001456 104.0826314
 104.3311985 164.6001816 104.2890203 104.9005842 163.8109401 103.1293758
  98.0830863 165.6329836  92.0048133  98.0601551 165.7317523  91.0530016
  98.3931499 166.4794986  92.3265299 100.7418241 167.6905991  96.1194747
 101.6961494 167.6589933  96.0524679 100.5430764 167.2296614  96.9344973
 101.3317623 166.2607107  98.6865545 102.1510512 166.7551185  98.7100382
 101.6054431 165.3439075  98.6583113 111.0884219 158.6517859  88.0493501
 110.2010074 158.9367510  87.8313695 111.5038208 158.4911622  87.2020777
 114.4398755 158.6764380  91.7647840 115.2159145 159.1660832  92.0372457
 113.7146889 159.1022434  92.2219709 116.8771314 159.3891999  92.8221780
 117.4715805 159.1487735  92.1115089 116.9497898 158.6699130  93.4495317
 110.2327433 168.4162534  82.1441521 110.9363283 168.6212536  82.7599176
 109.5090081 168.9839296  82.4090604 111.0625243 164.1672395  88.2643791
 111.0060444 164.6240946  87.4251423 111.6153585 163.4063080  88.0866633
 114.8730049 159.9562127  89.0893910 114.6166983 159.5558762  89.9202118
 114.2482917 160.6705921  88.9644049 119.1842387 162.6958200  91.5965202
 118.6241945 162.7651389  92.3696764 118.5785890 162.5199185  90.8764698
 112.1414130 168.8545063  84.1939981 112.9759734 168.4226261  84.0117455
 111.9798473 168.6827077  85.1216875 111.7960022 165.3577176  85.5596320
 111.7408826 165.1921448  84.6184764 111.1706078 166.0653209  85.7158510
  96.5852537 160.5945241  99.3857742  97.2311401 160.0844195  99.8744967
  96.3769688 161.3313922  99.9601167 109.1105929 167.6626088 104.8849883
 109.9797089 167.8366740 104.5236518 108.6312681 168.4820505 104.7625612
 105.1056148 154.8585285  85.1381638 105.0934818 155.8027125  85.2949909
 105.9979570 154.6755431  84.8441099 108.9208267 151.4528062  89.3927575
 108.1540663 150.8986549  89.5384257 109.3318972 151.5249931  90.2541727
 100.9250028 157.7412858 103.4832756 101.7881490 157.3849662 103.6936081
 100.3515439 157.4026752 104.1708161  23.2154616  18.4149577  81.0140464
  23.8533026  18.2956325  80.3103804  23.0975459  19.3630421  81.0728416
  20.0244322  18.3677006  80.9501989  19.6862834  18.2518070  80.0622524
  20.8934090  17.9668171  80.9302995  15.8831138  20.2212482  76.9398880
  15.3196003  20.1302419  76.1715167  15.7683533  19.4012386  77.4201372
  20.5064105  19.5211857  86.9088194  20.4952746  19.1264656  86.0368698
  20.6684745  18.7877930  87.5021966  13.4295570  21.7163674  79.7783100
  14.2216862  21.3754498  79.3629399  13.6692220  21.8258649  80.6985253
  21.4630697  23.8883450  72.2513345  20.8118676  24.4737530  71.8647358
  22.2575059  24.4189645  72.3108382  15.3886324  20.9772587  72.6500479
  16.1617200  20.4301574  72.5113355  15.7411723  21.8416836  72.8614940
  17.2271366  22.3048969  85.8567378  16.9361232  23.2094600  85.7414044
  17.8628351  22.3465497  86.5711448  18.1527573  19.6825818  82.4468738
  18.7491145  19.4581840  81.7325701  18.2102545  18.9410563  83.0494186
  17.7252602  17.1365253  70.2818929  17.9778122  16.6146774  69.5202392
  16.7877161  16.9731398  70.3845612  22.7695884  16.1401031  78.0893672
  23.5558974  15.7220454  77.7384089  23.0334589  17.0447124  78.2575320
  22.9405962  21.5773882  72.7882329  22.3051795  21.6508508  73.5003233
  22.6103368  22.1667480  72.1101408  28.1704312  16.0776265  78.9926651
  28.9029484  15.5075481  79.2264480  27.4143667  15.6897865  79.4333156
  17.4448890  19.0393359  72.4843304  17.3285148  18.3638262  73.1524388
  17.5551150  18.5525733  71.6675457  19.7880431  18.5003506  76.1889993
  19.4238639  17.9734127  76.9002914  20.6447547  18.1101975  76.0156478
  25.6929732   9.7897839  83.4521259  25.3613057  10.6593250  83.2282474
  25.0975345   9.4734123  84.1315290  19.4285918  13.5293406  71.1851341
  19.5960321  14.3973642  71.5521813  19.2383087  13.6920687  70.2612631
  22.1861251  21.9910385  82.8517172  21.8861975  22.8935423  82.7432979
  21.8412311  21.7242568  83.7038325  15.6373733  18.4424181  78.8853876
  14.7124229  18.3100396  79.0931568  15.8858146  19.2218401  79.3823819
  25.5858395  14.5092925  80.5314609  24.6775273  14.4408333  80.2373370
  25.5345991  14.9864870  81.3596435  19.4075139  15.9851063  72.1698008
  19.2874764  16.4308114  73.0083489  18.7127728  16.3336381  71.6111546
  12.9982544  18.0857455  79.7197665  13.1274925  18.3391934  80.6337077
  12.3179995  18.6785163  79.4002320  17.1682031  28.7554705  75.8188140
  17.0906061  29.7062530  75.8976620  16.5643675  28.4100577  76.4763066
  19.6599261  15.9282570  88.4749506  18.8832595  16.4876491  88.4652371
  20.2989824  16.4139353  88.9964377  27.4520042  12.7109363  82.3092483
  26.8094422  13.0041896  81.6632278  26.9474970  12.5962284  83.1145680
  25.1060205  16.4572536  72.9978342  26.0178061  16.6899923  72.8226040
  24.5969852  17.0409581  72.4353421  17.9145633  18.7368024  88.0367473
  18.6560318  19.2753068  87.7602297  17.2082619  19.3634313  88.1939025
  23.3900973  20.8797164  86.6339635  23.7984329  20.4379575  85.8894267
  22.6678235  20.3049792  86.8873828  19.7432043  15.8169771  84.0073192
  20.5893238  16.2409185  84.1507841  19.6830681  15.1603395  84.7011755
  23.7129788  21.4398355  80.3891924  23.0838650  21.6044069  79.6867992
  23.3255450  21.8539964  81.1602888  27.5919020  22.3752793  77.7436288
  26.9070058  22.7551694  77.1933321  27.6762869  22.9848119  78.4768235
  22.8931488  13.4774139  85.6654366  22.6492420  14.2316200  85.1288641
  23.1691419  13.8559487  86.5001613  24.8469951  20.0212752  84.3431631
  25.0586846  20.6644512  83.6666012  24.7999699  19.1875068  83.8753561
  22.4496180  12.6330572  81.2468203  21.5880659  12.9311826  81.5384941
  22.4758615  12.8500971  80.3149236  19.2657750  21.1772763  77.6542009
  19.7296095  21.4560466  76.8646631  19.0014548  20.2756208  77.4715100
  16.1581831  20.7244244  80.5921772  16.7283188  21.1531513  79.9539257
  16.7489942  20.4426829  81.2905958  18.2026636  17.2995915  74.4631574
  18.9050679  17.7516959  74.9305500  17.8707264  16.6579734  75.0911467
  16.6506997  15.8907672  88.8382783  16.0205658  16.5723953  89.0718180
  16.5443085  15.7790754  87.8935922  25.9615779  22.8984707  82.5153988
  26.7833223  22.4964894  82.2336670  25.9578182  22.7952941  83.4670104
  13.8966715  15.9224047  76.7232184  13.0997878  16.0342741  77.2415680
  13.6692307  16.2610699  75.8573075  19.7272383  22.4468750  84.6714699
  19.7916815  22.9089158  85.5072871  19.0183306  21.8166115  84.7997009
  34.0521772  19.2423456  78.8638960  33.2985481  18.6730854  78.7082964
  34.1869313  19.2086120  79.8109595  19.4420400  24.1136858  74.5393679
  19.3066075  24.9588394  74.9678527  19.9830213  24.3156136  73.7759613
  12.8949798  21.6312296  75.1121604  13.4074318  22.4255546  75.2627169
  13.5472510  20.9338586  75.0455206  14.7044682  24.7478052  77.1944358
  14.8811311  25.6696017  77.0065341  15.5001516  24.4336471  77.6238737
  18.8455701  11.6086317  88.7928291  19.5865414  12.2093470  88.7132754
  19.0773624  10.8663955  88.2346334  13.9897039  16.7942684  87.0706521
  13.8750554  15.8927941  87.3713620  13.1341557  17.0406381  86.7191337
  21.0688877  24.7360424  88.6694021  20.6252731  23.9496803  88.3514926
  21.7306090  24.9239575  88.0037912  15.8275998  26.2656226  83.1954700
  16.3783423  26.1373289  82.4231694  14.9887474  26.5651115  82.8449593
  23.1670115  25.0163224  86.6975423  23.1488590  25.8372105  86.2055692
  24.0890035  24.8917300  86.9225564  19.6243169  22.5307354  87.5398931
  20.1571506  21.7695642  87.3098239  19.0957250  22.2381006  88.2823085
  10.8598714  19.9600950  75.8881175  11.6973936  20.3697959  75.6714883
  11.0376982  19.0200392  75.8581369  22.7563146  17.6276031  71.5765008
  22.2409770  18.3980636  71.8153395  22.4840455  16.9541167  72.1998069
  20.3410258  12.4725732  76.6350246  19.4851854  12.0832582  76.4555885
  20.7537209  12.5517692  75.7750032  21.8709404  10.0072075  81.0341806
  21.3674200   9.9702210  80.2209611  22.1640011  10.9164818  81.0938463
  27.7297421  20.3808386  73.5118181  26.9526863  20.0419545  73.0673343
  28.4088902  20.3861009  72.8373146  22.5449450  15.5003123  73.4024789
  22.2399585  15.8149272  74.2534932  23.4979892  15.5784543  73.4452122
  20.9895882  21.6593346  75.0517743  20.4617243  20.9246106  74.7390980
  20.4883384  22.4368023  74.8057711  25.9688728  19.8542367  80.1684789
  25.3112402  20.5441628  80.2564918  26.7729127  20.2438799  80.5118776
  24.7794186  18.2086739  78.2188731  25.2926068  18.8416731  78.7210441
  25.4295410  17.6087935  77.8532091  16.0484196  14.3517474  71.4320240
  15.2121508  14.6892160  71.7529515  15.9088966  14.2166453  70.4947377
  19.1348482  19.4773557  68.0552716  18.2275543  19.2462810  68.2543865
  19.6319514  18.6811176  68.2426698  22.0416561  28.1871064  70.9749402
  21.3678259  28.4902761  71.5834360  22.4282383  28.9900144  70.6254859
  21.2575017  15.6836195  80.4647072  20.3397579  15.9051142  80.3068760
  21.6735161  15.7582506  79.6058779  22.0410065  17.0827611  75.5949752
  22.7881884  17.5949008  75.2856874  22.3101654  16.7611663  76.4554145
  20.3136715  19.5786151  72.5776706  19.4047934  19.2945184  72.6749176
  20.3431799  19.9985230  71.7180013  25.5455983  23.1892741  76.3467874
  25.0918310  22.3483651  76.4033064  24.9149949  23.8254139  76.6842654
  24.4888902  14.1184727  77.5768541  23.7511659  13.6062113  77.9078784
  24.7415676  13.6785109  76.7651818  23.9888922  25.0269238  77.2817692
  24.2811896  25.5874295  76.5630057  24.4987542  25.3197799  78.0370851
  10.8824886  17.2991666  76.5591908  10.6849285  16.7061026  75.8342975
  10.3271549  16.9943876  77.2767847  18.8621609  17.1914772  78.6786501
  18.9170219  16.2388608  78.6028978  18.0512811  17.3474211  79.1627800
  20.0112803  21.1194895  69.9164785  19.5732233  20.4030754  69.4570422
  20.7523244  21.3471010  69.3549876  16.8013969  15.8091832  76.4376880
  15.9881835  16.1086002  76.8442072  17.2972963  15.4147521  77.1551363
  18.9522547  25.8049589  78.3711145  18.9098726  26.0310435  77.4419677
  19.8685246  25.5712963  78.5196946  22.3988181  16.2733656  85.2691774
  22.7537568  16.5005129  86.1286240  23.0460312  16.6052033  84.6469030
  28.1285918  19.3952092  75.9741103  27.9903816  19.5853688  75.0462292
  27.7722137  20.1571475  76.4309154  28.1555297  21.4628619  80.9852375
  28.5891804  21.3703908  81.8335429  28.8686878  21.4386120  80.3472391
  17.0688348  22.6812618  78.1673108  17.8628946  22.1862938  77.9655683
  16.3580040  22.1530481  77.8040813  21.8883192  25.0630713  82.5185475
  21.9420214  25.6321650  83.2863191  21.0197974  25.2332598  82.1539513
  13.3771111  16.8255699  74.2432860  12.4468699  16.7640155  74.4602823
  13.4728583  16.3031652  73.4469502  14.7681586  14.7648269  84.0009927
  15.4404639  14.5565632  83.3522576  13.9411372  14.5670355  83.5615159
  29.0170847  21.5052320  83.5185260  29.2106737  22.4098130  83.7644535
  28.9171465  21.0459739  84.3523845  20.6707158  11.3910210  86.0175588
  20.0235073  12.0900160  85.9240064  21.4408173  11.8246354  86.3851836
  24.0785956  21.6559063  89.0926141  23.9271462  21.4269614  88.1756224
  24.0690635  22.6129664  89.1057486  20.8471292  19.2290975  84.0772407
  21.7763352  19.3802135  83.9041375  20.4262322  19.3174996  83.2221054
  19.6459624  23.2541640  81.8470945  19.5070709  22.8860424  82.7196883
  18.8574220  23.7689279  81.6754903  20.2407776  28.3550736  73.1896481
  20.4159531  27.8838779  74.0042104  19.5540564  28.9816502  73.4177742
  21.1964839  22.6323242  79.2359783  20.8614671  22.5924012  80.1317433
  20.6968785  21.9667958  78.7630193  15.1709083  18.0390872  84.7612364
  15.0328881  17.3071111  85.3623903  16.0814006  17.9499773  84.4796552
  24.1324031  19.9779277  69.5096842  23.5153201  19.2526105  69.4129895
  23.6640519  20.7388637  69.1663917  17.7991384  17.7510832  84.2496043
  18.5091002  17.1104024  84.2082662  17.7560692  18.0023727  85.1722224
  25.7878162  24.6878185  87.1702623  25.7290708  24.0037405  86.5033206
  26.1897681  25.4297175  86.7183249  16.5120317  14.7376050  86.0691683
  15.9757675  14.2866788  86.7213279  15.9237026  14.8721958  85.3262147
  14.8068861  31.5040099  79.9636342  15.0465459  32.1358623  80.6415360
  13.9638057  31.1528139  80.2501701  15.9222576  14.1964701  68.6318147
  15.0452043  14.0753502  68.2680393  16.3980330  13.4050779  68.3797035
  25.7895569  22.6517769  85.4016602  24.9022348  22.3143691  85.5243001
  26.3594121  21.9200800  85.6385368   7.4424717  18.9841861  78.7259654
   8.1295756  18.6703591  78.1380669   7.2872845  19.8883225  78.4526905
  19.3196723  27.3119221  82.3677846  19.2466894  28.1174193  82.8797150
  18.8774116  27.5111187  81.5425867  19.1086502  26.5490991  75.8780667
  18.3254024  27.0912672  75.9718892  19.8079248  27.0664971  76.2774908
  22.4183153  12.3585621  78.5214872  22.9151852  11.6055583  78.2015943
  21.6470134  12.3949938  77.9558082  30.2712910  18.0625986  80.1633164
  30.2602786  18.9450702  79.7927097  29.4030289  17.7097537  79.9687701
  21.7795406  27.2106055  84.5236004  22.4923379  27.8453520  84.4511906
  21.2885435  27.3069921  83.7076006  23.5012933  21.1157308  76.0953296
  22.5669212  21.2358771  75.9258000  23.6789602  20.2129775  75.8313306
  19.0018121  14.5003004  78.2486557  18.6315909  13.9474044  78.9367463
  19.4977214  13.8961137  77.6961557  26.8885485  16.9574627  76.6303330
  27.3545937  17.7902619  76.5563633  27.3392985  16.4919609  77.3348588
  16.8307320  24.9600499  85.3441575  17.5316779  25.5936982  85.4970969
  16.3602435  25.3015230  84.5837214  24.9561716  23.3018449  73.6289482
  25.2321560  23.1875043  74.5383356  24.0866214  22.9035934  73.5901655
  24.8602147   9.3255214  80.6694231  23.9465227   9.5559441  80.8376438
  25.2895249   9.4093658  81.5208264  24.6308606  17.5145106  83.1694125
  23.9780056  17.7621014  82.5146578  25.0088986  16.7009245  82.8356603
  21.5915780  27.5504800  77.2722296  21.7738174  26.7326455  77.7350048
  22.4148766  27.7672492  76.8347186  21.9257945  26.4772985  74.5337344
  22.4545712  25.9665439  73.9207506  22.1886165  26.1615515  75.3982877
  20.6796179  18.2564917  89.6560162  20.0036816  18.1559047  90.3262538
  21.5023813  18.1004131  90.1196160  12.4275038  24.4936854  82.2772678
  13.0128475  23.7480542  82.4100582  12.2299876  24.8040811  83.1609342
  15.2813693  27.5288101  77.2935120  14.6124068  28.0134229  76.8099160
  15.1426563  27.7757322  78.2078499  19.4218962  29.5631845  83.8917778
  19.9737270  29.7263466  84.6566864  19.7625155  30.1536283  83.2197803
  24.2729836  24.3893102  89.7466433  24.8169740  25.0023061  89.2521388
  23.6916681  24.9472681  90.2633446  22.5587349  27.5113820  80.8781461
  22.4338489  26.7103560  80.3692406  23.2166440  28.0060014  80.3895431
  24.6222257  25.3122840  82.5061011  23.6752593  25.1928192  82.4339337
  24.9705031  24.4245339  82.5887272  21.6268691  25.1075557  78.7065363
  21.4793653  24.1792264  78.8872933  22.4522184  25.1295647  78.2222438
  15.4930935  13.7593624  74.5645855  15.8327008  14.2879545  73.8424463
  15.9403056  14.0974030  75.3404422  25.2302813  25.9304115  79.7930236
  26.1549360  25.7246977  79.6554687  25.0618116  25.6820517  80.7019577
  17.4799082  12.2568245  72.7639148  18.2007445  12.6349498  72.2602865
  16.8564386  12.9757122  72.8674126  21.6230205  12.9613394  73.6997480
  21.8393819  13.8438032  73.3986308  21.1424272  12.5699608  72.9703122
  16.3629426  15.9199108  80.2768225  16.2174007  16.2339411  81.1692506
  15.8854630  16.5384008  79.7239123  18.2225809  12.9101656  80.3249114
  18.2087378  12.0142749  79.9881412  18.9398237  12.9172319  80.9587400
  20.0751940  13.3438996  82.3702242  19.8169718  14.2656066  82.3686572
  19.5436980  12.9469430  83.0602706  25.0198129  26.4489783  75.1492327
  25.1935006  25.8836205  74.3966180  25.5127020  27.2490678  74.9671817
  10.8375089  18.4604452  83.2155886  10.2928557  19.2364260  83.3476160
  11.7154438  18.8075256  83.0575007  30.8737520  19.2126206  76.7682627
  31.3168666  18.4633531  76.3701750  29.9964030  19.2036342  76.3856359
  26.0073301  25.7656547  72.2489225  26.7024206  26.3863240  72.4676540
  26.3496451  24.9151898  72.5241603  11.6241110  17.5874348  86.1086043
  10.8822846  17.7356984  86.6950673  11.3033855  17.8482614  85.2452792
  27.9064724  23.2156253  73.7776556  28.4316048  23.5543526  73.0525876
  27.8187077  22.2803268  73.5939691  19.5684773  27.1290326  85.9066433
  19.8771900  26.8839473  86.7789132  20.3660255  27.3336965  85.4185303
  19.5905385  29.2828236  78.1371809  19.1510375  28.7904615  78.8304666
  20.3413502  28.7401204  77.8963885  12.0697724  25.4739777  78.1396437
  12.8955744  25.1743549  77.7595081  11.7191776  24.7047399  78.5886226
  17.0379257  24.8266245  80.2094111  16.4159267  24.1636950  79.9096339
  17.7084124  24.8527377  79.5267759  10.2706329  23.3926103  79.0985371
   9.4338237  22.9648278  78.9169372  10.2429975  23.5858547  80.0356162
  17.1103785  13.3048033  89.8026617  17.1591940  14.1810156  89.4204387
  17.6526299  12.7625426  89.2298260  27.5958630  23.8489156  89.0827754
  26.8054174  23.8313295  88.5432254  27.3591985  24.3877450  89.8376791
  27.7156506  20.6981623  86.3960483  27.7654510  20.5331630  87.3376005
  27.6070429  19.8308882  86.0058363  16.5992764  23.3770169  73.6852572
  16.7480885  24.0605633  73.0319244  17.4059208  23.3575259  74.2002027
  25.0060268  16.6812551  87.7119789  25.9070131  16.5419016  87.4203787
  25.0808242  16.8467006  88.6517967  19.3403073  14.0579406  86.5572976
  18.4706383  14.3512972  86.2855564  19.5762554  14.6419851  87.2780239
  29.2174702  23.1178564  86.6402504  28.9259511  23.4808545  87.4765965
  28.6046834  22.4045573  86.4615836  30.4170385  20.6831444  79.1605074
  31.2517276  21.1221248  79.3242635  30.5529513  20.2070097  78.3413320
  27.4661891  18.2411179  85.1082562  27.9416012  18.4338825  84.3001414
  26.5427456  18.2970365  84.8625946  14.3545397  19.4035346  74.6913640
  14.1091439  18.4997676  74.8893851  14.5241312  19.4052497  73.7493118
  22.0442107  10.2759023  84.0738396  22.5624051  11.0120049  83.7484885
  21.6897240  10.5823016  84.9085155  20.0988170  25.8718299  71.1564319
  19.5262137  26.4908486  70.7034791  20.6720963  26.4217661  71.6904241
  26.1663560  15.1176939  83.3410868  27.1180982  15.2175037  83.3623092
  25.9967010  14.3255208  83.8508952  24.1877939  12.2032522  83.5270269
  23.5927871  12.4837535  82.8316757  23.9027636  12.6926423  84.2987010
  23.3185430  26.1555449  72.2872901  24.2516103  26.0901011  72.4905777
  23.2308642  26.9911716  71.8287434  25.9473446  25.4721319  69.2476849
  25.8687078  25.1381183  70.1412607  26.7683113  25.9643087  69.2468321
  28.6451637  18.3383059  82.4553167  28.6127957  17.3999059  82.6412851
  29.2552261  18.4167095  81.7218992  20.4834968  17.2079112  68.4980371
  21.4294073  17.0785320  68.5668790  20.1049213  16.4693774  68.9749800
  28.7946126  15.1294102  82.5011451  28.2785175  14.3452559  82.3141379
  29.6786074  14.8012819  82.6657970  26.4556853   8.8735118  78.4607263
  26.2581674   8.5650206  79.3450595  27.0656558   9.5996757  78.5905193
  34.4628187  19.3999066  81.5959204  35.1931576  19.1384354  82.1566908
  33.8535133  18.6627788  81.6361272  32.5443484  17.5406928  82.1933655
  31.8176648  17.4062893  81.5850147  32.1290771  17.8483757  82.9990373
  20.3673661  21.2596858  89.9581028  21.2876670  21.4375457  90.1521075
  20.3323244  20.3152903  89.8060728  18.6677885  15.1329088  68.4335257
  17.7609341  14.8362201  68.5097970  18.9453866  14.8358906  67.5669543
  13.3635733  19.1697893  82.6003810  13.5821743  20.1015000  82.6191843
  13.7761507  18.8105867  83.3858613  18.2363599  14.7431098  91.9906559
  18.1360326  15.6925455  91.9218650  18.0185141  14.4149337  91.1182629
   9.4544086  20.0738363  80.8527425   8.7607557  19.6592316  80.3397379
  10.2017077  20.1158900  80.2560844  25.5909306  10.8644550  75.7182459
  25.0107976  11.5229354  75.3360511  25.3245239  10.0421894  75.3069876
  24.0412873  10.2649607  77.9203779  24.5412651  10.3766142  77.1118098
  24.6848481   9.9610660  78.5604588  18.0994869  18.1728237  90.8071620
  17.6161950  18.9728597  91.0135509  18.1855808  18.1836182  89.8539064
  11.3680828  20.0056617  78.7293440  11.3451516  20.1044304  77.7775323
  11.6781465  20.8521768  79.0510606  14.0268206  22.0632772  82.8440054
  14.9811460  22.0316714  82.7769986  13.8280730  21.6023396  83.6590280
  14.6167588  20.6333888  85.4110852  15.4360477  21.1277967  85.4345689
  14.8904396  19.7165856  85.3828419  24.3734185  13.0244640  74.7738807
  23.4860040  13.3094291  74.5559002  24.7888174  12.8638404  73.9266084
  27.7248721  13.0491161  78.4893146  28.5009111  13.5387614  78.7617763
  26.9996855  13.4749215  78.9465016  30.1621279  13.7618780  79.5467087
  30.7565770  13.5214516  78.8360395  30.2347863  13.0425911  80.1740623
  12.3818435  27.6052391  79.8610252  12.2472903  26.8452792  79.2948250
  11.9650497  28.3293291  79.3939041  23.5177398  22.7889315  68.8686827
  24.2213248  22.9939317  69.4844483  22.7940047  23.3566077  69.1335911
  24.3475208  18.5399176  74.9889097  24.2910410  18.9967728  74.1496730
  24.9003551  17.7789861  74.8111940  28.1580014  14.3288908  75.8139217
  27.9016948  13.9285544  76.6447425  27.5332882  15.0432702  75.6889356
  32.4692352  17.0684981  78.3210508  31.9091910  17.1378171  79.0942070
  31.8635855  16.8925966  77.6010004  15.5387561  28.5021708  80.0728695
  15.4219945  29.4467141  79.9707385  14.7180007  28.1995270  80.4614494
  25.4264095  23.2271844  70.9185287  26.2609699  22.7953043  70.7362762
  25.2648438  23.0553858  71.8462182  25.0809988  19.7303957  72.2841627
  25.0258791  19.5648229  71.3430071  24.4556043  20.4379990  72.4403816
  22.3955895  22.0352869  91.6095189  23.2647054  22.2093521  91.2481824
  21.9162646  22.8547286  91.4870919  16.5642075  29.1549970  83.2884623
  17.4669322  29.1873580  83.6051118  16.3379445  28.2250421  83.3030959
  18.3195677  27.9080957  79.9494702  17.3691308  27.9082818  79.8359074
  18.6228163  27.1613691  79.4330736  34.0548370  33.7441495  81.0140464
  34.6926780  33.6248243  80.3103804  33.9369213  34.6922339  81.0728416
  30.8638077  33.6968923  80.9501989  30.5256588  33.5809988  80.0622524
  31.7327845  33.2960088  80.9302995  26.7224892  35.5504400  76.9398880
  26.1589758  35.4594337  76.1715167  26.6077287  34.7304304  77.4201372
  31.3457860  34.8503775  86.9088194  31.3346501  34.4556573  86.0368698
  31.5078499  34.1169848  87.5021966  24.2689324  37.0455591  79.7783100
  25.0610616  36.7046416  79.3629399  24.5085975  37.1550566  80.6985253
  32.3024451  39.2175367  72.2513345  31.6512431  39.8029448  71.8647358
  33.0968814  39.7481562  72.3108382  26.2280078  36.3064505  72.6500479
  27.0010954  35.7593492  72.5113355  26.5805477  37.1708754  72.8614940
  28.0665121  37.6340887  85.8567378  27.7754987  38.5386518  85.7414044
  28.7022105  37.6757414  86.5711448  28.9921328  35.0117735  82.4468738
  29.5884900  34.7873758  81.7325701  29.0496299  34.2702481  83.0494186
  28.5646356  32.4657171  70.2818929  28.8171877  31.9438692  69.5202392
  27.6270915  32.3023316  70.3845612  33.6089639  31.4692949  78.0893672
  34.3952728  31.0512372  77.7384089  33.8728343  32.3739041  78.2575320
  33.7799716  36.9065799  72.7882329  33.1445549  36.9800426  73.5003233
  33.4497123  37.4959398  72.1101408  39.0098066  31.4068182  78.9926651
  39.7423238  30.8367399  79.2264480  38.2537422  31.0189783  79.4333156
  28.2842645  34.3685277  72.4843304  28.1678903  33.6930180  73.1524388
  28.3944905  33.8817651  71.6675457  30.6274186  33.8295424  76.1889993
  30.2632393  33.3026045  76.9002914  31.4841302  33.4393893  76.0156478
  36.5323486  25.1189756  83.4521259  36.2006811  25.9885167  83.2282474
  35.9369100  24.8026040  84.1315290  30.2679673  28.8585323  71.1851341
  30.4354075  29.7265560  71.5521813  30.0776842  29.0212605  70.2612631
  33.0255006  37.3202302  82.8517172  32.7255729  38.2227341  82.7432979
  32.6806065  37.0534486  83.7038325  26.4767487  33.7716099  78.8853876
  25.5517984  33.6392313  79.0931568  26.7251901  34.5510318  79.3823819
  36.4252150  29.8384842  80.5314609  35.5169027  29.7700251  80.2373370
  36.3739746  30.3156787  81.3596435  30.2468894  31.3142981  72.1698008
  30.1268519  31.7600032  73.0083489  29.5521482  31.6628299  71.6111546
  23.8376298  33.4149373  79.7197665  23.9668680  33.6683852  80.6337077
  23.1573750  34.0077081  79.4002320  28.0075786  44.0846623  75.8188140
  27.9299815  45.0354448  75.8976620  27.4037429  43.7392495  76.4763066
  30.4993016  31.2574488  88.4749506  29.7226350  31.8168408  88.4652371
  31.1383579  31.7431271  88.9964377  38.2913796  28.0401281  82.3092483
  37.6488176  28.3333814  81.6632278  37.7868725  27.9254201  83.1145680
  35.9453960  31.7864454  72.9978342  36.8571816  32.0191841  72.8226040
  35.4363607  32.3701498  72.4353421  28.7539388  34.0659941  88.0367473
  29.4954072  34.6044985  87.7602297  28.0476373  34.6926230  88.1939025
  34.2294727  36.2089082  86.6339635  34.6378084  35.7671492  85.8894267
  33.5071989  35.6341709  86.8873828  30.5825798  31.1461689  84.0073192
  31.4286993  31.5701102  84.1507841  30.5224435  30.4895313  84.7011755
  34.5523542  36.7690273  80.3891924  33.9232405  36.9335987  79.6867992
  34.1649204  37.1831882  81.1602888  38.4312774  37.7044710  77.7436288
  37.7463812  38.0843612  77.1933321  38.5156623  38.3140037  78.4768235
  33.7325243  28.8066057  85.6654366  33.4886175  29.5608118  85.1288641
  34.0085173  29.1851405  86.5001613  35.6863706  35.3504669  84.3431631
  35.8980601  35.9936429  83.6666012  35.6393454  34.5166986  83.8753561
  33.2889935  27.9622490  81.2468203  32.4274414  28.2603744  81.5384941
  33.3152369  28.1792889  80.3149236  30.1051504  36.5064681  77.6542009
  30.5689850  36.7852384  76.8646631  29.8408302  35.6048125  77.4715100
  26.9975585  36.0536162  80.5921772  27.5676942  36.4823431  79.9539257
  27.5883697  35.7718747  81.2905958  29.0420390  32.6287833  74.4631574
  29.7444433  33.0808877  74.9305500  28.7101019  31.9871652  75.0911467
  27.4900752  31.2199590  88.8382783  26.8599412  31.9015870  89.0718180
  27.3836839  31.1082671  87.8935922  22.7845724  30.8871386  79.7648708
  21.9944778  31.1428914  79.2888818  23.2756971  31.7019723  79.8700748
  36.8009534  38.2276625  82.5153988  37.6226977  37.8256812  82.2336670
  36.7971936  38.1244859  83.4670104  24.7360469  31.2515965  76.7232184
  23.9391633  31.3634659  77.2415680  24.5086062  31.5902617  75.8573075
  30.5666137  37.7760668  84.6714699  30.6310570  38.2381075  85.5072871
  29.8577061  37.1458033  84.7997009  21.0683427  31.1401876  82.1963698
  21.3191465  32.0248886  82.4621274  21.6042975  30.9606478  81.4238790
  44.8915527  34.5715373  78.8638960  44.1379235  34.0022771  78.7082964
  45.0263068  34.5378038  79.8109595  30.2814155  39.4428776  74.5393679
  30.1459829  40.2880311  74.9678527  30.8223967  39.6448053  73.7759613
  26.7681494  25.5220355  91.2008034  26.3748440  24.9686554  91.8755679
  27.5847635  25.8330934  91.5914552  23.7343552  36.9604214  75.1121604
  24.2468073  37.7547464  75.2627169  24.3866265  36.2630504  75.0455206
  25.5438437  40.0769970  77.1944358  25.7205065  40.9987935  77.0065341
  26.3395270  39.7628389  77.6238737  29.6849455  26.9378235  88.7928291
  30.4259169  27.5385388  88.7132754  29.9167378  26.1955872  88.2346334
  24.8290793  32.1234602  87.0706521  24.7144308  31.2219859  87.3713620
  23.9735311  32.3698299  86.7191337  31.9082631  40.0652342  88.6694021
  31.4646485  39.2788721  88.3514926  32.5699845  40.2531493  88.0037912
  26.6669752  41.5948144  83.1954700  27.2177177  41.4665207  82.4231694
  25.8281228  41.8943033  82.8449593  34.0063869  40.3455142  86.6975423
  33.9882344  41.1664023  86.2055692  34.9283789  40.2209217  86.9225564
  30.4636923  37.8599272  87.5398931  30.9965260  37.0987560  87.3098239
  29.9351004  37.5672923  88.2823085  33.6306618  22.9659337  83.0692573
  33.2870888  23.8560979  82.9931683  33.9985581  22.7760995  82.2062158
  21.6992469  35.2892868  75.8881175  22.5367691  35.6989876  75.6714883
  21.8770737  34.3492310  75.8581369  33.5956901  32.9567949  71.5765008
  33.0803524  33.7272553  71.8153395  33.3234209  32.2833085  72.1998069
  31.1804012  27.8017649  76.6350246  30.3245608  27.4124500  76.4555885
  31.5930964  27.8809610  75.7750032  32.7103159  25.3363993  81.0341806
  32.2067954  25.2994128  80.2209611  33.0033766  26.2456735  81.0938463
  28.9546045  25.4202722  80.0407988  29.8199041  25.2245531  79.6813877
  29.0223553  25.1913074  80.9677344  38.5691175  35.7100303  73.5118181
  37.7920618  35.3711463  73.0673343  39.2482656  35.7152926  72.8373146
  33.3843204  30.8295041  73.4024789  33.0793340  31.1441190  74.2534932
  34.3373646  30.9076461  73.4452122  31.8289636  36.9885264  75.0517743
  31.3010998  36.2538024  74.7390980  31.3277139  37.7659940  74.8057711
  36.8082482  35.1834284  80.1684789  36.1506156  35.8733546  80.2564918
  37.6122881  35.5730716  80.5118776  26.5608364  27.6504930  77.4124355
  27.1352116  27.4280112  76.6797547  27.1479346  27.7193625  78.1652956
  35.6187941  33.5378657  78.2188731  36.1319823  34.1708649  78.7210441
  36.2689165  32.9379853  77.8532091  26.8877951  29.6809391  71.4320240
  26.0515263  30.0184078  71.7529515  26.7482720  29.5458371  70.4947377
  28.8631031  24.5246179  76.1399424  28.2095444  24.2095196  75.5156039
  28.8211505  23.9021920  76.8659247  29.9742236  34.8065474  68.0552716
  29.0669298  34.5754728  68.2543865  30.4713268  34.0103094  68.2426698
  32.8810315  43.5162981  70.9749402  32.2072014  43.8194678  71.5834360
  33.2676137  44.3192062  70.6254859  32.0968772  31.0128113  80.4647072
  31.1791333  31.2343060  80.3068760  32.5128915  31.0874423  79.6058779
  32.8803819  32.4119528  75.5949752  33.6275638  32.9240926  75.2856874
  33.1495409  32.0903581  76.4554145  31.1530470  34.9078069  72.5776706
  30.2441689  34.6237102  72.6749176  31.1825553  35.3277148  71.7180013
  36.3849737  38.5184659  76.3467874  35.9312064  37.6775569  76.4033064
  35.7543704  39.1546057  76.6842654  35.3282657  29.4476645  77.5768541
  34.5905413  28.9354031  77.9078784  35.5809430  29.0077026  76.7651818
  34.8282676  40.3561155  77.2817692  35.1205651  40.9166212  76.5630057
  35.3381297  40.6489716  78.0370851  35.4294284  22.2252897  78.1710310
  35.7353161  21.3650260  77.8836225  36.1546889  22.8170517  77.9709304
  21.7218640  32.6283583  76.5591908  21.5243040  32.0352944  75.8342975
  21.1665304  32.3235793  77.2767847  29.7015364  32.5206690  78.6786501
  29.7563973  31.5680526  78.6028978  28.8906566  32.6766129  79.1627800
  30.8506557  36.4486813  69.9164785  30.4125987  35.7322672  69.4570422
  31.5916998  36.6762928  69.3549876  27.6407724  31.1383749  76.4376880
  26.8275589  31.4377920  76.8442072  28.1366718  30.7439438  77.1551363
  29.7916301  41.1341506  78.3711145  29.7492480  41.3602353  77.4419677
  30.7079000  40.9004881  78.5196946  33.2381935  31.6025574  85.2691774
  33.5931323  31.8297047  86.1286240  33.8854066  31.9343951  84.6469030
  38.9679672  34.7244010  75.9741103  38.8297571  34.9145606  75.0462292
  38.6115891  35.4863393  76.4309154  27.1321798  28.7102105  82.0538115
  27.7721178  28.5690864  81.3561079  26.2999329  28.4236618  81.6776717
  38.9949052  36.7920537  80.9852375  39.4285558  36.6995826  81.8335429
  39.7080633  36.7678037  80.3472391  27.9082102  38.0104535  78.1673108
  28.7022701  37.5154856  77.9655683  27.1973795  37.4822399  77.8040813
  32.7276947  40.3922631  82.5185475  32.7813969  40.9613567  83.2863191
  31.8591728  40.5624516  82.1539513  24.2164866  32.1547617  74.2432860
  23.2862454  32.0932073  74.4602823  24.3122338  31.6323570  73.4469502
  24.1350415  28.6802430  76.8311102  24.3957232  29.5947763  76.7220263
  24.9567587  28.2126873  76.9807715  25.6075340  30.0940187  84.0009927
  26.2798394  29.8857549  83.3522576  24.7805127  29.8962273  83.5615159
  39.8564601  36.8344237  83.5185260  40.0500491  37.7390048  83.7644535
  39.7565220  36.3751657  84.3523845  31.5100912  26.7202128  86.0175588
  30.8628827  27.4192078  85.9240064  32.2801927  27.1538272  86.3851836
  34.9179710  36.9850980  89.0926141  34.7665216  36.7561532  88.1756224
  34.9084390  37.9421582  89.1057486  31.6865046  34.5582893  84.0772407
  32.6157106  34.7094053  83.9041375  31.2656076  34.6466914  83.2221054
  30.4853378  38.5833557  81.8470945  30.3464464  38.2152342  82.7196883
  29.6967974  39.0981197  81.6754903  31.0801530  43.6842654  73.1896481
  31.2553286  43.2130697  74.0042104  30.3934318  44.3108420  73.4177742
  32.0358593  37.9615160  79.2359783  31.7008426  37.9215930  80.1317433
  31.5362539  37.2959876  78.7630193  26.0102837  33.3682790  84.7612364
  25.8722635  32.6363029  85.3623903  26.9207761  33.2791690  84.4796552
  34.9717785  35.3071194  69.5096842  34.3546956  34.5818023  69.4129895
  34.5034273  36.0680555  69.1663917  28.6385138  33.0802749  84.2496043
  29.3484757  32.4395942  84.2082662  28.5954446  33.3315644  85.1722224
  36.6271917  40.0170103  87.1702623  36.5684463  39.3329323  86.5033206
  37.0291435  40.7589093  86.7183249  27.3514072  30.0667967  86.0691683
  26.8151429  29.6158706  86.7213279  26.7630780  30.2013876  85.3262147
  25.6462615  46.8332017  79.9636342  25.8859214  47.4650541  80.6415360
  24.8031812  46.4820057  80.2501701  26.7616331  29.5256619  68.6318147
  25.8845797  29.4045420  68.2680393  27.2374084  28.7342697  68.3797035
  36.6289324  37.9809687  85.4016602  35.7416103  37.6435609  85.5243001
  37.1987875  37.2492718  85.6385368  18.2818471  34.3133778  78.7259654
  18.9689511  33.9995509  78.1380669  18.1266600  35.2175143  78.4526905
  23.0853193  29.2023975  83.1544677  23.0011382  28.5949645  82.4195087
  22.2635900  29.6932993  83.1554174  30.1590477  42.6411139  82.3677846
  30.0860649  43.4466111  82.8797150  29.7167870  42.8403105  81.5425867
  29.9480257  41.8782909  75.8780667  29.1647779  42.4204589  75.9718892
  30.6473002  42.3956889  76.2774908  33.2576907  27.6877539  78.5214872
  33.7545607  26.9347501  78.2015943  32.4863889  27.7241855  77.9558082
  41.1106664  33.3917904  80.1633164  41.0996541  34.2742620  79.7927097
  40.2424044  33.0389455  79.9687701  32.6189161  42.5397973  84.5236004
  33.3317133  43.1745438  84.4511906  32.1279190  42.6361839  83.7076006
  34.3406688  36.4449226  76.0953296  33.4062967  36.5650688  75.9258000
  34.5183356  35.5421693  75.8313306  29.8411876  29.8294922  78.2486557
  29.4709663  29.2765962  78.9367463  30.3370968  29.2253055  77.6961557
  37.7279239  32.2866545  76.6303330  38.1939691  33.1194537  76.5563633
  38.1786740  31.8211527  77.3348588  27.6701074  40.2892417  85.3441575
  28.3710534  40.9228900  85.4970969  27.1996189  40.6307148  84.5837214
  35.7955470  38.6310366  73.6289482  36.0715314  38.5166961  74.5383356
  34.9259969  38.2327851  73.5901655  35.6995902  24.6547132  80.6694231
  34.7858982  24.8851359  80.8376438  36.1289003  24.7385576  81.5208264
  35.4702360  32.8437024  83.1694125  34.8173811  33.0912931  82.5146578
  35.8482740  32.0301162  82.8356603  32.4309534  42.8796717  77.2722296
  32.6131929  42.0618373  77.7350048  33.2542520  43.0964409  76.8347186
  32.7651700  41.8064902  74.5337344  33.2939466  41.2957357  73.9207506
  33.0279919  41.4907433  75.3982877  31.5189933  33.5856835  89.6560162
  30.8430570  33.4850964  90.3262538  32.3417567  33.4296049  90.1196160
  23.2668792  39.8228772  82.2772678  23.8522229  39.0772460  82.4100582
  23.0693631  40.1332728  83.1609342  26.1207448  42.8580019  77.2935120
  25.4517823  43.3426147  76.8099160  25.9820317  43.1049239  78.2078499
  17.8586447  32.3934372  80.9977121  17.8970547  31.8597963  81.7914239
  17.3526740  31.8669577  80.3788098  30.2612716  44.8923763  83.8917778
  30.8131024  45.0555384  84.6566864  30.6018910  45.4828200  83.2197803
  25.2377209  27.2398912  84.4939663  25.3018536  28.1013743  84.0817061
  25.1744330  26.6272914  83.7612022  24.7129482  29.3122045  88.1412697
  25.3401521  28.9299122  88.7550222  23.8557401  29.0936247  88.5068390
  35.1123591  39.7185020  89.7466433  35.6563495  40.3314978  89.2521388
  34.5310435  40.2764598  90.2633446  21.4895025  31.1198474  74.0731052
  21.7848466  30.2109152  74.0198106  20.5883061  31.0986213  73.7512055
  33.3981104  42.8405738  80.8781461  33.2732243  42.0395478  80.3692406
  34.0560195  43.3351931  80.3895431  25.0189272  29.1954471  80.0558601
  24.2975858  29.8090438  79.9166074  25.8082528  29.7312235  79.9775247
  35.4616012  40.6414758  82.5061011  34.5146347  40.5220109  82.4339337
  35.8098785  39.7537256  82.5887272  27.8215585  26.5308897  86.3299253
  28.3449987  26.7771194  87.0925562  27.6027919  27.3628932  85.9102390
  23.2182866  28.8012572  74.1970377  22.8895573  27.9209951  74.0145483
  23.5722237  28.7460240  75.0846767  32.4662445  40.4367474  78.7065363
  32.3187408  39.5084182  78.8872933  33.2915939  40.4587565  78.2222438
  26.3324690  29.0885541  74.5645855  26.6720762  29.6171463  73.8424463
  26.7796810  29.4265948  75.3404422  36.0696567  41.2596033  79.7930236
  36.9943115  41.0538894  79.6554687  35.9011870  41.0112434  80.7019577
  29.0268130  27.4722592  84.0148923  28.6864951  26.6730405  84.4169603
  28.3207137  27.7724303  83.4425756  29.6784602  24.5571905  82.4676246
  30.5010671  24.0832383  82.3455136  29.9222666  25.3362388  82.9674932
  28.3192837  27.5860163  72.7639148  29.0401199  27.9641416  72.2602865
  27.6958141  28.3049040  72.8674126  32.4623960  28.2905312  73.6997480
  32.6787574  29.1729950  73.3986308  31.9818027  27.8991525  72.9703122
  27.2023181  31.2491025  80.2768225  27.0567762  31.5631328  81.1692506
  26.7248385  31.8675926  79.7239123  29.0619564  28.2393573  80.3249114
  29.0481133  27.3434667  79.9881412  29.7791992  28.2464237  80.9587400
  30.9145695  28.6730913  82.3702242  30.6563472  29.5947984  82.3686572
  30.3830735  28.2761348  83.0602706  35.8591883  41.7781701  75.1492327
  36.0328761  41.2128123  74.3966180  36.3520775  42.5782595  74.9671817
  21.6768843  33.7896370  83.2155886  21.1322311  34.5656178  83.3476160
  22.5548193  34.1367174  83.0575007  28.4656460  27.1207954  75.5936684
  28.5872371  26.1924600  75.7927572  28.1758502  27.1346639  74.6815000
  31.3347650  24.8062864  78.7303404  31.3569347  24.8702197  77.7755384
  31.7515709  23.9667373  78.9243910  41.7131274  34.5418123  76.7682627
  42.1562420  33.7925449  76.3701750  40.8357785  34.5328260  76.3856359
  36.8467056  41.0948465  72.2489225  37.5417960  41.7155158  72.4676540
  37.1890206  40.2443816  72.5241603  22.4634865  32.9166266  86.1086043
  21.7216601  33.0648901  86.6950673  22.1427609  33.1774532  85.2452792
  38.7458479  38.5448170  73.7776556  39.2709803  38.8835443  73.0525876
  38.6580831  37.6095186  73.5939691  30.4078528  42.4582244  85.9066433
  30.7165654  42.2131391  86.7789132  31.2054010  42.6628883  85.4185303
  30.4299140  44.6120154  78.1371809  29.9904130  44.1196532  78.8304666
  31.1807257  44.0693121  77.8963885  22.9091479  40.8031695  78.1396437
  23.7349499  40.5035466  77.7595081  22.5585531  40.0339317  78.5886226
  27.8773012  40.1558163  80.2094111  27.2553021  39.4928868  79.9096339
  28.5477879  40.1819295  79.5267759  21.1100084  38.7218021  79.0985371
  20.2731992  38.2940195  78.9169372  21.0823729  38.9150464  80.0356162
  27.9497539  28.6339951  89.8026617  27.9985695  29.5102074  89.4204387
  28.4920053  28.0917344  89.2298260  38.4352385  39.1781074  89.0827754
  37.6447929  39.1605213  88.5432254  38.1985740  39.7169368  89.8376791
  38.5550260  36.0273540  86.3960483  38.6048265  35.8623548  87.3376005
  38.4464183  35.1600800  86.0058363  27.4386519  38.7062086  73.6852572
  27.5874639  39.3897551  73.0319244  28.2452962  38.6867176  74.2002027
  35.8454022  32.0104469  87.7119789  36.7463885  31.8710933  87.4203787
  35.9201997  32.1758923  88.6517967  30.1796828  29.3871323  86.5572976
  29.3100137  29.6804889  86.2855564  30.4156308  29.9711768  87.2780239
  40.0568457  38.4470482  86.6402504  39.7653265  38.8100463  87.4765965
  39.4440588  37.7337490  86.4615836  41.2564139  36.0123362  79.1605074
  42.0911031  36.4513166  79.3242635  41.3923268  35.5362015  78.3413320
  38.3055645  33.5703097  85.1082562  38.7809767  33.7630743  84.3001414
  37.3821210  33.6262282  84.8625946  25.1939152  34.7327264  74.6913640
  24.9485194  33.8289594  74.8893851  25.3635066  34.7344414  73.7493118
  32.8835862  25.6050940  84.0738396  33.4017805  26.3411967  83.7484885
  32.5290994  25.9114933  84.9085155  24.4634799  30.4655621  72.1899802
  23.7704044  30.5399976  71.5339838  24.2186551  29.7015965  72.7121319
  33.1348456  22.0251223  79.5939293  33.4150210  21.3574412  80.2199719
  33.9199063  22.2180318  79.0813957  30.9381924  41.2010217  71.1564319
  30.3655891  41.8200404  70.7034791  31.5114718  41.7509578  71.6904241
  37.0057314  30.4468857  83.3410868  37.9574737  30.5466954  83.3623092
  36.8360764  29.6547125  83.8508952  35.0271694  27.5324440  83.5270269
  34.4321626  27.8129453  82.8316757  34.7421390  28.0218341  84.2987010
  34.1579184  41.4847367  72.2872901  35.0909857  41.4192928  72.4905777
  34.0702397  42.3203634  71.8287434  36.7867201  40.8013237  69.2476849
  36.7080832  40.4673101  70.1412607  37.6076867  41.2935005  69.2468321
  39.4845392  33.6674976  82.4553167  39.4521712  32.7290977  82.6412851
  40.0946016  33.7459013  81.7218992  31.3228723  32.5371029  68.4980371
  32.2687827  32.4077237  68.5668790  30.9442968  31.7985691  68.9749800
  39.6339880  30.4586020  82.5011451  39.1178929  29.6744476  82.3141379
  40.5179829  30.1304736  82.6657970  37.2950607  24.2027035  78.4607263
  37.0975428  23.8942124  79.3450595  37.9050313  24.9288674  78.5905193
  45.3021942  34.7290983  81.5959204  46.0325330  34.4676271  82.1566908
  44.6928887  33.9919705  81.6361272  43.3837239  32.8698846  82.1933655
  42.6570402  32.7354811  81.5850147  42.9684526  33.1775674  82.9990373
  31.2067415  36.5888776  89.9581028  32.1270425  36.7667375  90.1521075
  31.1716998  35.6444821  89.8060728  29.5071640  30.4621006  68.4335257
  28.6003095  30.1654118  68.5097970  29.7847621  30.1650824  67.5669543
  20.4249580  31.7827369  78.8834303  20.1052365  30.9292677  78.5908677
  19.8783008  31.9975947  79.6392270  24.2029488  34.4989810  82.6003810
  24.4215498  35.4306918  82.6191843  24.6155262  34.1397785  83.3858613
  31.1233706  25.0057895  74.5879498  30.3134434  24.6604980  74.9634744
  31.8118123  24.6965439  75.1767110  33.0524254  24.0835942  76.2103795
  33.6055293  24.5031396  76.8693818  33.2894340  23.1571690  76.2526751
  29.0757353  30.0723016  91.9906559  28.9754080  31.0217373  91.9218650
  28.8578895  29.7441255  91.1182629  28.2770425  27.3207941  68.5747236
  29.1389589  27.6462839  68.8343053  28.4620769  26.5339437  68.0620302
  20.2937840  35.4030281  80.8527425  19.6001312  34.9884233  80.3397379
  21.0410831  35.4450817  80.2560844  36.4303061  26.1936467  75.7182459
  35.8501730  26.8521271  75.3360511  36.1638994  25.3713812  75.3069876
  34.8806627  25.5941525  77.9203779  35.3806406  25.7058060  77.1118098
  35.5242235  25.2902578  78.5604588  28.9388623  33.5020155  90.8071620
  28.4555705  34.3020515  91.0135509  29.0249562  33.5128100  89.8539064
  22.2074583  35.3348534  78.7293440  22.1845271  35.4336222  77.7775323
  22.5175219  36.1813685  79.0510606  24.8661961  37.3924689  82.8440054
  25.8205214  37.3608632  82.7769986  24.6674484  36.9315313  83.6590280
  25.4561343  35.9625806  85.4110852  26.2754232  36.4569884  85.4345689
  25.7298151  35.0457774  85.3828419  35.2127939  28.3536558  74.7738807
  34.3253794  28.6386208  74.5559002  35.6281928  28.1930321  73.9266084
  38.5642475  28.3783079  78.4893146  39.3402865  28.8679531  78.7617763
  37.8390609  28.8041133  78.9465016  41.0015034  29.0910698  79.5467087
  41.5959525  28.8506434  78.8360395  41.0741617  28.3717829  80.1740623
  23.2212189  42.9344309  79.8610252  23.0866657  42.1744710  79.2948250
  22.8044252  43.6585209  79.3939041  34.3571152  38.1181233  68.8686827
  35.0607003  38.3231235  69.4844483  33.6333801  38.6857994  69.1335911
  35.1868963  33.8691094  74.9889097  35.1304164  34.3259645  74.1496730
  35.7397305  33.1081778  74.8111940  38.9973769  29.6580826  75.8139217
  38.7410703  29.2577461  76.6447425  38.3726637  30.3724620  75.6889356
  43.3086107  32.3976899  78.3210508  42.7485664  32.4670088  79.0942070
  42.7029610  32.2217884  77.6010004  26.3781315  43.8313626  80.0728695
  26.2613699  44.7759058  79.9707385  25.5573762  43.5287188  80.4614494
  36.2657850  38.5563762  70.9185287  37.1003454  38.1244960  70.7362762
  36.1042193  38.3845775  71.8462182  35.9203742  35.0595875  72.2841627
  35.8652546  34.8940146  71.3430071  35.2949797  35.7671908  72.4403816
  20.7096257  30.2963939  86.1103049  21.3555121  29.7862893  86.5990274
  20.5013408  31.0332621  86.6846474  33.2349649  37.3644787  91.6095189
  34.1040809  37.5385439  91.2481824  32.7556401  38.1839204  91.4870919
  29.2299868  24.5603984  71.8626945  29.2178537  25.5045824  72.0195216
  30.1223289  24.3774129  71.5686406  27.4035829  44.4841888  83.2884623
  28.3063076  44.5165498  83.6051118  27.1773200  43.5542339  83.3030959
  29.1589431  43.2372874  79.9494702  28.2085062  43.2374736  79.8359074
  29.4621918  42.4905609  79.4330736  33.0451987  21.1546761  76.1172882
  32.2784383  20.6005247  76.2629564  33.4562692  21.2268629  76.9787033
  25.0493748  27.4431556  90.2078063  25.9125210  27.0868361  90.4181388
  24.4759159  27.1045451  90.8953467  44.8942125  49.0733413  81.0140464
  45.5320535  48.9540160  80.3103804  44.7762968  50.0214257  81.0728416
  41.7031831  49.0260841  80.9501989  41.3650343  48.9101906  80.0622524
  42.5721599  48.6252006  80.9302995  37.5618647  50.8796317  76.9398880
  36.9983512  50.7886254  76.1715167  37.4471042  50.0596222  77.4201372
  42.1851614  50.1795693  86.9088194  42.1740255  49.7848491  86.0368698
  42.3472254  49.4461765  87.5021966  35.1083079  52.3747509  79.7783100
  35.9004371  52.0338334  79.3629399  35.3479729  52.4842484  80.6985253
  43.1418206  54.5467285  72.2513345  42.4906185  55.1321365  71.8647358
  43.9362568  55.0773480  72.3108382  37.0673833  51.6356422  72.6500479
  37.8404709  51.0885409  72.5113355  37.4199232  52.5000672  72.8614940
  39.8315082  50.3409653  82.4468738  40.4278654  50.1165675  81.7325701
  39.8890054  49.5994398  83.0494186  39.4040111  47.7949088  70.2818929
  39.6565631  47.2730610  69.5202392  38.4664670  47.6315234  70.3845612
  44.4483393  46.7984867  78.0893672  45.2346483  46.3804290  77.7384089
  44.7122098  47.7030959  78.2575320  44.6193471  52.2357717  72.7882329
  43.9839304  52.3092343  73.5003233  44.2890877  52.8251316  72.1101408
  49.8491821  46.7360100  78.9926651  50.5816993  46.1659317  79.2264480
  49.0931176  46.3481700  79.4333156  39.1236399  49.6977194  72.4843304
  39.0072657  49.0222098  73.1524388  39.2338659  49.2109568  71.6675457
  41.4667940  49.1587341  76.1889993  41.1026148  48.6317962  76.9002914
  42.3235056  48.7685810  76.0156478  47.3717241  40.4481674  83.4521259
  47.0400566  41.3177085  83.2282474  46.7762854  40.1317958  84.1315290
  41.1073427  44.1877241  71.1851341  41.2747830  45.0557477  71.5521813
  40.9170596  44.3504523  70.2612631  37.3161242  49.1008017  78.8853876
  36.3911738  48.9684231  79.0931568  37.5645655  49.8802236  79.3823819
  47.2645904  45.1676760  80.5314609  46.3562782  45.0992169  80.2373370
  47.2133500  45.6448705  81.3596435  41.0862648  46.6434899  72.1698008
  40.9662273  47.0891949  73.0083489  40.3915237  46.9920216  71.6111546
  34.6770053  48.7441290  79.7197665  34.8062434  48.9975769  80.6337077
  33.9967504  49.3368998  79.4002320  41.3386770  46.5866406  88.4749506
  40.5620104  47.1460326  88.4652371  41.9777333  47.0723189  88.9964377
  49.1307551  43.3693199  82.3092483  48.4881931  43.6625732  81.6632278
  48.6262479  43.2546119  83.1145680  46.7847714  47.1156372  72.9978342
  47.6965570  47.3483758  72.8226040  46.2757361  47.6993416  72.4353421
  39.5933142  49.3951859  88.0367473  40.3347827  49.9336903  87.7602297
  38.8870128  50.0218148  88.1939025  41.4219552  46.4753606  84.0073192
  42.2680747  46.8993020  84.1507841  41.3618190  45.8187231  84.7011755
  45.3917297  52.0982190  80.3891924  44.7626159  52.2627904  79.6867992
  45.0042959  52.5123800  81.1602888  49.2706529  53.0336628  77.7436288
  48.5857567  53.4135529  77.1933321  49.3550378  53.6431955  78.4768235
  44.5718997  44.1357975  85.6654366  44.3279929  44.8900035  85.1288641
  44.8478928  44.5143322  86.5001613  46.5257460  50.6796587  84.3431631
  46.7374355  51.3228347  83.6666012  46.4787208  49.8458904  83.8753561
  44.1283689  43.2914408  81.2468203  43.2668168  43.5895661  81.5384941
  44.1546124  43.5084807  80.3149236  40.9445258  51.8356598  77.6542009
  41.4083604  52.1144301  76.8646631  40.6802057  50.9340043  77.4715100
  37.8369340  51.3828080  80.5921772  38.4070697  51.8115348  79.9539257
  38.4277451  51.1010665  81.2905958  39.8814145  47.9579751  74.4631574
  40.5838188  48.4100794  74.9305500  39.5494773  47.3163570  75.0911467
  38.3294506  46.5491507  88.8382783  37.6993167  47.2307788  89.0718180
  38.2230594  46.4374589  87.8935922  33.6239479  46.2163303  79.7648708
  32.8338532  46.4720832  79.2888818  34.1150726  47.0311641  79.8700748
  47.6403288  53.5568542  82.5153988  48.4620732  53.1548730  82.2336670
  47.6365691  53.4536777  83.4670104  35.5754224  46.5807883  76.7232184
  34.7785387  46.6926577  77.2415680  35.3479816  46.9194535  75.8573075
  31.9077182  46.4693794  82.1963698  32.1585220  47.3540804  82.4621274
  32.4436730  46.2898395  81.4238790  41.1207909  54.7720693  74.5393679
  40.9853584  55.6172229  74.9678527  41.6617722  54.9739971  73.7759613
  37.6075249  40.8512273  91.2008034  37.2142194  40.2978472  91.8755679
  38.4241389  41.1622852  91.5914552  34.5737307  52.2896131  75.1121604
  35.0861827  53.0839382  75.2627169  35.2260019  51.5922422  75.0455206
  36.3832191  55.4061888  77.1944358  36.5598820  56.3279852  77.0065341
  37.1789025  55.0920307  77.6238737  40.5243210  42.2670152  88.7928291
  41.2652923  42.8677305  88.7132754  40.7561133  41.5247790  88.2346334
  35.6684548  47.4526519  87.0706521  35.5538063  46.5511777  87.3713620
  34.8129066  47.6990216  86.7191337  44.4700373  38.2951255  83.0692573
  44.1264642  39.1852897  82.9931683  44.8379335  38.1052913  82.2062158
  32.5386223  50.6184786  75.8881175  33.3761445  51.0281794  75.6714883
  32.7164491  49.6784228  75.8581369  44.4350655  48.2859866  71.5765008
  43.9197279  49.0564471  71.8153395  44.1627964  47.6125002  72.1998069
  42.0197767  43.1309567  76.6350246  41.1639363  42.7416417  76.4555885
  42.4324718  43.2101528  75.7750032  43.5496913  40.6655910  81.0341806
  43.0461709  40.6286045  80.2209611  43.8427520  41.5748653  81.0938463
  39.7939799  40.7494640  80.0407988  40.6592796  40.5537449  79.6813877
  39.8617308  40.5204992  80.9677344  49.4084930  51.0392221  73.5118181
  48.6314372  50.7003380  73.0673343  50.0876411  51.0444844  72.8373146
  44.2236959  46.1586958  73.4024789  43.9187094  46.4733108  74.2534932
  45.1767401  46.2368378  73.4452122  42.6683390  52.3177182  75.0517743
  42.1404752  51.5829941  74.7390980  42.1670893  53.0951858  74.8057711
  47.6476237  50.5126202  80.1684789  46.9899911  51.2025464  80.2564918
  48.4516636  50.9022634  80.5118776  37.4002118  42.9796848  77.4124355
  37.9745870  42.7572029  76.6797547  37.9873101  43.0485542  78.1652956
  46.4581695  48.8670575  78.2188731  46.9713577  49.5000567  78.7210441
  47.1082919  48.2671770  77.8532091  37.7271705  45.0101309  71.4320240
  36.8909017  45.3475996  71.7529515  37.5876475  44.8750289  70.4947377
  39.7024786  39.8538097  76.1399424  39.0489198  39.5387114  75.5156039
  39.6605260  39.2313837  76.8659247  40.8135991  50.1357392  68.0552716
  39.9063052  49.9046645  68.2543865  41.3107023  49.3395011  68.2426698
  43.7204070  58.8454899  70.9749402  43.0465768  59.1486596  71.5834360
  44.1069892  59.6483979  70.6254859  42.9362526  46.3420030  80.4647072
  42.0185088  46.5634977  80.3068760  43.3522670  46.4166341  79.6058779
  43.7197574  47.7411446  75.5949752  44.4669393  48.2532843  75.2856874
  43.9889163  47.4195499  76.4554145  41.9924224  50.2369987  72.5776706
  41.0835443  49.9529020  72.6749176  42.0219308  50.6569065  71.7180013
  47.2243492  53.8476576  76.3467874  46.7705819  53.0067486  76.4033064
  46.5937458  54.4837975  76.6842654  46.1676411  44.7768562  77.5768541
  45.4299168  44.2645949  77.9078784  46.4203185  44.3368944  76.7651818
  46.2688038  37.5544814  78.1710310  46.5746915  36.6942178  77.8836225
  46.9940643  38.1462435  77.9709304  32.5612394  47.9575501  76.5591908
  32.3636794  47.3644862  75.8342975  32.0059058  47.6527711  77.2767847
  40.5409118  47.8498607  78.6786501  40.5957728  46.8972444  78.6028978
  39.7300320  48.0058047  79.1627800  41.6900312  51.7778730  69.9164785
  41.2519742  51.0614589  69.4570422  42.4310753  52.0054845  69.3549876
  38.4801478  46.4675667  76.4376880  37.6669344  46.7669838  76.8442072
  38.9760472  46.0731356  77.1551363  44.0775690  46.9317492  85.2691774
  44.4325077  47.1588965  86.1286240  44.7247821  47.2635868  84.6469030
  49.8073427  50.0535928  75.9741103  49.6691325  50.2437523  75.0462292
  49.4509646  50.8155310  76.4309154  37.9715553  44.0394023  82.0538115
  38.6114932  43.8982782  81.3561079  37.1393083  43.7528536  81.6776717
  49.8342806  52.1212455  80.9852375  50.2679313  52.0287744  81.8335429
  50.5474387  52.0969955  80.3472391  38.7475857  53.3396453  78.1673108
  39.5416455  52.8446773  77.9655683  38.0367549  52.8114316  77.8040813
  35.0558620  47.4839535  74.2432860  34.1256208  47.4223990  74.4602823
  35.1516092  46.9615488  73.4469502  34.9744169  44.0094348  76.8311102
  35.2350987  44.9239681  76.7220263  35.7961342  43.5418790  76.9807715
  36.4469095  45.4232105  84.0009927  37.1192148  45.2149467  83.3522576
  35.6198881  45.2254191  83.5615159  50.6958356  52.1636155  83.5185260
  50.8894246  53.0681966  83.7644535  50.5958974  51.7043574  84.3523845
  42.3494667  42.0494046  86.0175588  41.7022582  42.7483995  85.9240064
  43.1195682  42.4830190  86.3851836  42.8752348  53.2907078  79.2359783
  42.5402180  53.2507848  80.1317433  42.3756294  52.6251794  78.7630193
  36.8496592  48.6974708  84.7612364  36.7116390  47.9654947  85.3623903
  37.7601515  48.6083608  84.4796552  45.8111540  50.6363112  69.5096842
  45.1940710  49.9109940  69.4129895  45.3428028  51.3972472  69.1663917
  39.4778892  48.4094667  84.2496043  40.1878511  47.7687859  84.2082662
  39.4348201  48.6607562  85.1722224  38.1907826  45.3959885  86.0691683
  37.6545183  44.9450623  86.7213279  37.6024535  45.5305794  85.3262147
  37.6010085  44.8548536  68.6318147  36.7239552  44.7337337  68.2680393
  38.0767838  44.0634615  68.3797035  29.1212226  49.6425696  78.7259654
  29.8083265  49.3287426  78.1380669  28.9660354  50.5467061  78.4526905
  33.9246948  44.5315893  83.1544677  33.8405136  43.9241562  82.4195087
  33.1029654  45.0224911  83.1554174  44.0970662  43.0169456  78.5214872
  44.5939361  42.2639419  78.2015943  43.3257643  43.0533773  77.9558082
  45.1800442  51.7741143  76.0953296  44.2456721  51.8942606  75.9258000
  45.3577111  50.8713610  75.8313306  40.6805630  45.1586839  78.2486557
  40.3103418  44.6057880  78.9367463  41.1764723  44.5544973  77.6961557
  48.5672994  47.6158463  76.6303330  49.0333446  48.4486454  76.5563633
  49.0180494  47.1503444  77.3348588  46.6349225  53.9602284  73.6289482
  46.9109069  53.8458879  74.5383356  45.7653723  53.5619769  73.5901655
  46.5389656  39.9839050  80.6694231  45.6252736  40.2143277  80.8376438
  46.9682758  40.0677494  81.5208264  46.3096115  48.1728942  83.1694125
  45.6567565  48.4204849  82.5146578  46.6876495  47.3593080  82.8356603
  42.3583688  48.9148753  89.6560162  41.6824325  48.8142882  90.3262538
  43.1811322  48.7587967  90.1196160  34.1062547  55.1520689  82.2772678
  34.6915984  54.4064377  82.4100582  33.9087385  55.4624646  83.1609342
  28.6980202  47.7226290  80.9977121  28.7364301  47.1889880  81.7914239
  28.1920495  47.1961495  80.3788098  36.0770964  42.5690830  84.4939663
  36.1412290  43.4305661  84.0817061  36.0138084  41.9564832  83.7612022
  35.5523237  44.6413963  88.1412697  36.1795275  44.2591040  88.7550222
  34.6951155  44.4228164  88.5068390  32.3288779  46.4490392  74.0731052
  32.6242220  45.5401070  74.0198106  31.4276815  46.4278131  73.7512055
  35.8583026  44.5246388  80.0558601  35.1369612  45.1382356  79.9166074
  36.6476282  45.0604153  79.9775247  38.6609340  41.8600815  86.3299253
  39.1843742  42.1063111  87.0925562  38.4421673  42.6920850  85.9102390
  34.0576621  44.1304489  74.1970377  33.7289327  43.2501868  74.0145483
  34.4115992  44.0752158  75.0846767  43.3056200  55.7659392  78.7065363
  43.1581162  54.8376099  78.8872933  44.1309693  55.7879483  78.2222438
  37.1718444  44.4177459  74.5645855  37.5114517  44.9463380  73.8424463
  37.6190564  44.7557865  75.3404422  39.8661885  42.8014510  84.0148923
  39.5258705  42.0022323  84.4169603  39.1600891  43.1016221  83.4425756
  40.5178357  39.8863822  82.4676246  41.3404426  39.4124300  82.3455136
  40.7616420  40.6654306  82.9674932  39.1586591  42.9152081  72.7639148
  39.8794954  43.2933334  72.2602865  38.5351895  43.6340958  72.8674126
  43.3017714  43.6197230  73.6997480  43.5181328  44.5021868  73.3986308
  42.8211781  43.2283443  72.9703122  38.0416935  46.5782943  80.2768225
  37.8961516  46.8923246  81.1692506  37.5642139  47.1967843  79.7239123
  39.9013318  43.5685491  80.3249114  39.8874887  42.6726584  79.9881412
  40.6185746  43.5756155  80.9587400  41.7539449  44.0022831  82.3702242
  41.4957227  44.9239902  82.3686572  41.2224489  43.6053266  83.0602706
  46.6985638  57.1073618  75.1492327  46.8722515  56.5420041  74.3966180
  47.1914529  57.9074513  74.9671817  32.5162598  49.1188287  83.2155886
  31.9716066  49.8948095  83.3476160  33.3941947  49.4659092  83.0575007
  39.3050214  42.4499871  75.5936684  39.4266125  41.5216517  75.7927572
  39.0152257  42.4638557  74.6815000  42.1741405  40.1354782  78.7303404
  42.1963101  40.1994115  77.7755384  42.5909464  39.2959290  78.9243910
  52.5525029  49.8710041  76.7682627  52.9956175  49.1217366  76.3701750
  51.6751539  49.8620178  76.3856359  47.6860810  56.4240383  72.2489225
  48.3811715  57.0447075  72.4676540  48.0283960  55.5735734  72.5241603
  33.3028619  48.2458184  86.1086043  32.5610355  48.3940819  86.6950673
  32.9821364  48.5066449  85.2452792  49.5852233  53.8740088  73.7776556
  50.1103557  54.2127361  73.0525876  49.4974586  52.9387103  73.5939691
  33.7485233  56.1323612  78.1396437  34.5743253  55.8327384  77.7595081
  33.3979285  55.3631235  78.5886226  38.7166766  55.4850081  80.2094111
  38.0946776  54.8220786  79.9096339  39.3871633  55.5111212  79.5267759
  31.9493838  54.0509939  79.0985371  31.1125746  53.6232113  78.9169372
  31.9217484  54.2442382  80.0356162  38.7891294  43.9631869  89.8026617
  38.8379449  44.8393991  89.4204387  39.3313808  43.4209262  89.2298260
  38.2780273  54.0354004  73.6852572  38.4268394  54.7189468  73.0319244
  39.0846717  54.0159094  74.2002027  46.6847777  47.3396386  87.7119789
  47.5857640  47.2002851  87.4203787  46.7595751  47.5050841  88.6517967
  41.0190582  44.7163241  86.5572976  40.1493892  45.0096807  86.2855564
  41.2550063  45.3003686  87.2780239  52.0957894  51.3415279  79.1605074
  52.9304785  51.7805084  79.3242635  52.2317022  50.8653933  78.3413320
  49.1449400  48.8995014  85.1082562  49.6203521  49.0922661  84.3001414
  48.2214965  48.9554200  84.8625946  36.0332906  50.0619181  74.6913640
  35.7878948  49.1581511  74.8893851  36.2028821  50.0636332  73.7493118
  43.7229616  40.9342858  84.0738396  44.2411560  41.6703885  83.7484885
  43.3684749  41.2406851  84.9085155  35.3028554  45.7947539  72.1899802
  34.6097799  45.8691894  71.5339838  35.0580306  45.0307883  72.7121319
  43.9742210  37.3543140  79.5939293  44.2543964  36.6866329  80.2199719
  44.7592817  37.5472236  79.0813957  41.7775679  56.5302134  71.1564319
  41.2049646  57.1492321  70.7034791  42.3508472  57.0801496  71.6904241
  47.8451069  45.7760774  83.3410868  48.7968491  45.8758872  83.3623092
  47.6754519  44.9839043  83.8508952  45.8665448  42.8616358  83.5270269
  45.2715380  43.1421370  82.8316757  45.5815145  43.3510259  84.2987010
  44.9972939  56.8139284  72.2872901  45.9303612  56.7484846  72.4905777
  44.9096151  57.6495551  71.8287434  47.6260955  56.1305155  69.2476849
  47.5474587  55.7965018  70.1412607  48.4470622  56.6226923  69.2468321
  50.3239146  48.9966894  82.4553167  50.2915466  48.0582895  82.6412851
  50.9339770  49.0750931  81.7218992  42.1622477  47.8662947  68.4980371
  43.1081582  47.7369155  68.5668790  41.7836722  47.1277609  68.9749800
  50.4733635  45.7877938  82.5011451  49.9572683  45.0036394  82.3141379
  51.3573583  45.4596654  82.6657970  48.1344362  39.5318953  78.4607263
  47.9369183  39.2234041  79.3450595  48.7444067  40.2580592  78.5905193
  40.3465394  45.7912923  68.4335257  39.4396850  45.4946036  68.5097970
  40.6241375  45.4942742  67.5669543  31.2643335  47.1119287  78.8834303
  30.9446119  46.2584595  78.5908677  30.7176763  47.3267865  79.6392270
  35.0423242  49.8281728  82.6003810  35.2609252  50.7598836  82.6191843
  35.4549016  49.4689702  83.3858613  41.9627460  40.3349813  74.5879498
  41.1528188  39.9896898  74.9634744  42.6511877  40.0257357  75.1767110
  43.8918008  39.4127860  76.2103795  44.4449047  39.8323313  76.8693818
  44.1288095  38.4863608  76.2526751  39.9151108  45.4014934  91.9906559
  39.8147835  46.3509291  91.9218650  39.6972650  45.0733173  91.1182629
  39.1164179  42.6499859  68.5747236  39.9783343  42.9754757  68.8343053
  39.3014523  41.8631355  68.0620302  31.1331595  50.7322198  80.8527425
  30.4395066  50.3176151  80.3397379  31.8804586  50.7742735  80.2560844
  47.2696815  41.5228385  75.7182459  46.6895485  42.1813189  75.3360511
  47.0032748  40.7005730  75.3069876  45.7200382  40.9233443  77.9203779
  46.2200160  41.0349977  77.1118098  46.3635990  40.6194496  78.5604588
  39.7782378  48.8312072  90.8071620  39.2949459  49.6312433  91.0135509
  39.8643317  48.8420017  89.8539064  33.0468337  50.6640452  78.7293440
  33.0239025  50.7628139  77.7775323  33.3568974  51.5105603  79.0510606
  35.7055715  52.7216607  82.8440054  36.6598969  52.6900549  82.7769986
  35.5068239  52.2607231  83.6590280  36.2955097  51.2917723  85.4110852
  37.1147986  51.7861802  85.4345689  36.5691905  50.3749691  85.3828419
  46.0521693  43.6828476  74.7738807  45.1647549  43.9678126  74.5559002
  46.4675683  43.5222239  73.9266084  49.4036230  43.7074996  78.4893146
  50.1796620  44.1971449  78.7617763  48.6784364  44.1333051  78.9465016
  51.8408788  44.4202616  79.5467087  52.4353279  44.1798352  78.8360395
  51.9135372  43.7009746  80.1740623  34.0605944  58.2636227  79.8610252
  33.9260412  57.5036628  79.2948250  33.6438006  58.9877127  79.3939041
  45.1964907  53.4473150  68.8686827  45.9000757  53.6523153  69.4844483
  44.4727556  54.0149912  69.1335911  46.0262717  49.1983011  74.9889097
  45.9697919  49.6551563  74.1496730  46.5791060  48.4373696  74.8111940
  49.8367523  44.9872743  75.8139217  49.5804457  44.5869379  76.6447425
  49.2120391  45.7016537  75.6889356  47.1051604  53.8855679  70.9185287
  47.9397208  53.4536878  70.7362762  46.9435947  53.7137693  71.8462182
  46.7597497  50.3887793  72.2841627  46.7046300  50.2232064  71.3430071
  46.1343552  51.0963826  72.4403816  31.5490012  45.6255857  86.1103049
  32.1948875  45.1154811  86.5990274  31.3407163  46.3624539  86.6846474
  40.0693622  39.8895902  71.8626945  40.0572292  40.8337742  72.0195216
  40.9617044  39.7066047  71.5686406  43.8845741  36.4838678  76.1172882
  43.1178137  35.9297165  76.2629564  44.2956446  36.5560547  76.9787033
  35.8887503  42.7723474  90.2078063  36.7518964  42.4160279  90.4181388
  35.3152913  42.4337369  90.8953467  50.2433865  63.1241006  70.2818929
  50.4959386  62.6022527  69.5202392  49.3058424  62.9607151  70.3845612
  55.4587225  67.5649635  72.7882329  54.8233058  67.6384261  73.5003233
  55.1284632  68.1543233  72.1101408  49.9630154  65.0269112  72.4843304
  49.8466412  64.3514015  73.1524388  50.0732414  64.5401486  71.6675457
  51.9467182  59.5169159  71.1851341  52.1141584  60.3849395  71.5521813
  51.7564351  59.6796440  70.2612631  51.9256403  61.9726816  72.1698008
  51.8056028  62.4183867  73.0083489  51.2308991  62.3212134  71.6111546
  57.6241469  62.4448289  72.9978342  58.5359325  62.6775676  72.8226040
  57.1151116  63.0285334  72.4353421  50.7207899  63.2871668  74.4631574
  51.4231942  63.7392712  74.9305500  50.3888528  62.6455487  75.0911467
  55.2744410  63.6151784  71.5765008  54.7591033  64.3856389  71.8153395
  55.0021718  62.9416920  72.1998069  48.5665460  60.3393227  71.4320240
  47.7302772  60.6767913  71.7529515  48.4270229  60.2042206  70.4947377
  50.5418540  55.1830015  76.1399424  49.8882953  54.8679032  75.5156039
  50.4999014  54.5605755  76.8659247  51.6529745  65.4649310  68.0552716
  50.7456807  65.2338563  68.2543865  52.1500777  64.6686929  68.2426698
  54.5597824  74.1746817  70.9749402  53.8859523  74.4778514  71.5834360
  54.9463646  74.9775897  70.6254859  52.8317979  65.5661904  72.5776706
  51.9229198  65.2820937  72.6749176  52.8613062  65.9860983  71.7180013
  52.5294066  67.1070648  69.9164785  52.0913496  66.3906507  69.4570422
  53.2704507  67.3346763  69.3549876  52.7589039  74.3426489  73.1896481
  52.9340795  73.8714532  74.0042104  52.0721827  74.9692255  73.4177742
  56.6505294  65.9655030  69.5096842  56.0334465  65.2401858  69.4129895
  56.1821782  66.7264390  69.1663917  48.4403840  60.1840454  68.6318147
  47.5633306  60.0629255  68.2680393  48.9161593  59.3926532  68.3797035
  57.4742979  69.2894202  73.6289482  57.7502823  69.1750796  74.5383356
  56.6047478  68.8911687  73.5901655  44.8970375  59.4596407  74.1970377
  44.5683082  58.5793786  74.0145483  45.2509746  59.4044076  75.0846767
  49.9980346  58.2443998  72.7639148  50.7188708  58.6225251  72.2602865
  49.3745650  58.9632875  72.8674126  53.0135159  55.4646699  78.7303404
  53.0356856  55.5286032  77.7755384  53.4303218  54.6251208  78.9243910
  58.5254565  71.7532300  72.2489225  59.2205469  72.3738993  72.4676540
  58.8677715  70.9027652  72.5241603  46.1422308  61.1239457  72.1899802
  45.4491553  61.1983812  71.5339838  45.8974060  60.3599800  72.7121319
  52.6169433  71.8594052  71.1564319  52.0443400  72.4784239  70.7034791
  53.1902227  72.4093414  71.6904241  55.8366693  72.1431202  72.2872901
  56.7697366  72.0776764  72.4905777  55.7489906  72.9787469  71.8287434
  58.4654710  71.4597072  69.2476849  58.3868341  71.1256936  70.1412607
  59.2864376  71.9518840  69.2468321  53.0016232  63.1954865  68.4980371
  53.9475336  63.0661073  68.5668790  52.6230477  62.4569527  68.9749800
  51.1859149  61.1204841  68.4335257  50.2790604  60.8237954  68.5097970
  51.4635130  60.8234659  67.5669543  49.9557933  57.9791776  68.5747236
  50.8177097  58.3046675  68.8343053  50.1408278  57.1923272  68.0620302
  56.0358661  68.7765068  68.8686827  56.7394512  68.9815070  69.4844483
  55.3121310  69.3441830  69.1335911  60.6761278  60.3164661  75.8139217
  60.4198212  59.9161297  76.6447425  60.0514146  61.0308455  75.6889356
  57.9445359  69.2147597  70.9185287  58.7790963  68.7828796  70.7362762
  57.7829702  69.0429611  71.8462182  50.9087377  55.2187819  71.8626945
  50.8966046  56.1629659  72.0195216  51.8010798  55.0357965  71.5686406
  54.7239496  51.8130596  76.1172882  53.9571892  51.2589083  76.2629564
  55.1350201  51.8852465  76.9787033  66.5729634  79.7317248  81.0140464
  67.2108044  79.6123996  80.3103804  66.4550477  80.6798092  81.0728416
  63.3819340  79.6844676  80.9501989  63.0437852  79.5685741  80.0622524
  64.2509108  79.2835841  80.9302995  59.2406156  81.5380153  76.9398880
  58.6771021  81.4470090  76.1715167  59.1258551  80.7180057  77.4201372
  63.8639123  80.8379528  86.9088194  63.8527764  80.4432326  86.0368698
  64.0259763  80.1045601  87.5021966  56.7870588  83.0331344  79.7783100
  57.5791880  82.6922169  79.3629399  57.0267238  83.1426319  80.6985253
  64.8205715  85.2051120  72.2513345  64.1693694  85.7905201  71.8647358
  65.6150077  85.7357315  72.3108382  58.7461342  82.2940258  72.6500479
  59.5192218  81.7469245  72.5113355  59.0986741  83.1584507  72.8614940
  60.5846384  83.6216640  85.8567378  60.2936250  84.5262271  85.7414044
  61.2203369  83.6633167  86.5711448  61.5102591  80.9993488  82.4468738
  62.1066163  80.7749511  81.7325701  61.5677563  80.2578234  83.0494186
  61.0827620  78.4532924  70.2818929  61.3353140  77.9314445  69.5202392
  60.1452179  78.2899069  70.3845612  66.1270902  77.4568702  78.0893672
  66.9133992  77.0388125  77.7384089  66.3909607  78.3614794  78.2575320
  60.8023908  80.3561030  72.4843304  60.6860166  79.6805933  73.1524388
  60.9126168  79.8693404  71.6675457  63.1455449  79.8171177  76.1889993
  62.7813657  79.2901798  76.9002914  64.0022565  79.4269646  76.0156478
  62.7860936  74.8461076  71.1851341  62.9535339  75.7141313  71.5521813
  62.5958105  75.0088358  70.2612631  58.9948751  79.7591852  78.8853876
  58.0699247  79.6268066  79.0931568  59.2433164  80.5386071  79.3823819
  62.7650157  77.3018734  72.1698008  62.6449782  77.7475785  73.0083489
  62.0702746  77.6504052  71.6111546  56.3557562  79.4025126  79.7197665
  56.4849943  79.6559605  80.6337077  55.6755013  79.9952834  79.4002320
  60.5257049  90.0722376  75.8188140  60.4481079  91.0230201  75.8976620
  59.9218693  89.7268248  76.4763066  68.4635223  77.7740207  72.9978342
  69.3753079  78.0067594  72.8226040  67.9544870  78.3577251  72.4353421
  61.2720651  80.0535694  88.0367473  62.0135336  80.5920738  87.7602297
  60.5657637  80.6801983  88.1939025  66.7475991  82.1964835  86.6339635
  67.1559347  81.7547245  85.8894267  66.0253252  81.6217462  86.8873828
  62.6232767  82.4940434  77.6542009  63.0871113  82.7728137  76.8646631
  62.3589566  81.5923878  77.4715100  59.5156849  82.0411915  80.5921772
  60.0858206  82.4699184  79.9539257  60.1064960  81.7594500  81.2905958
  61.5601654  78.6163586  74.4631574  62.2625697  79.0684630  74.9305500
  61.2282282  77.9747405  75.0911467  63.0847400  83.7636421  84.6714699
  63.1491833  84.2256828  85.5072871  62.3758324  83.1333786  84.7997009
  62.7995418  85.4304529  74.5393679  62.6641093  86.2756064  74.9678527
  63.3405231  85.6323806  73.7759613  56.2524816  82.9479967  75.1121604
  56.7649336  83.7423217  75.2627169  56.9047528  82.2506257  75.0455206
  58.0619700  86.0645723  77.1944358  58.2386329  86.9863688  77.0065341
  58.8576534  85.7504142  77.6238737  64.4263895  86.0528095  88.6694021
  63.9827749  85.2664474  88.3514926  65.0881108  86.2407246  88.0037912
  59.1851016  87.5823897  83.1954700  59.7358441  87.4540960  82.4231694
  58.3462492  87.8818786  82.8449593  66.5245133  86.3330895  86.6975423
  66.5063608  87.1539776  86.2055692  67.4465053  86.2084970  86.9225564
  62.9818187  83.8475025  87.5398931  63.5146524  83.0863313  87.3098239
  62.4532268  83.5548676  88.2823085  54.2173732  81.2768621  75.8881175
  55.0548954  81.6865629  75.6714883  54.3952000  80.3368063  75.8581369
  66.1138164  78.9443702  71.5765008  65.5984788  79.7148306  71.8153395
  65.8415473  78.2708838  72.1998069  63.6985275  73.7893402  76.6350246
  62.8426872  73.4000253  76.4555885  64.1112227  73.8685363  75.7750032
  65.9024468  76.8170794  73.4024789  65.5974603  77.1316943  74.2534932
  66.8554910  76.8952214  73.4452122  68.1369204  79.5254410  78.2188731
  68.6501086  80.1584402  78.7210441  68.7870428  78.9255606  77.8532091
  59.4059214  75.6685144  71.4320240  58.5696526  76.0059831  71.7529515
  59.2663984  75.5334124  70.4947377  61.3812295  70.5121932  76.1399424
  60.7276707  70.1970949  75.5156039  61.3392769  69.8897673  76.8659247
  62.4923500  80.7941227  68.0552716  61.5850561  80.5630481  68.2543865
  62.9894532  79.9978847  68.2426698  65.3985083  78.3995281  75.5949752
  66.1456902  78.9116679  75.2856874  65.6676672  78.0779334  76.4554145
  63.6711733  80.8953822  72.5776706  62.7622952  80.6112855  72.6749176
  63.7006817  81.3152901  71.7180013  54.2399903  78.6159336  76.5591908
  54.0424303  78.0228697  75.8342975  53.6846567  78.3111546  77.2767847
  62.2196627  78.5082443  78.6786501  62.2745237  77.5556279  78.6028978
  61.4087829  78.6641882  79.1627800  63.3687821  82.4362566  69.9164785
  62.9307251  81.7198425  69.4570422  64.1098262  82.6638681  69.3549876
  60.1588987  77.1259503  76.4376880  59.3456853  77.4253673  76.8442072
  60.6547981  76.7315191  77.1551363  62.3097565  87.1217259  78.3711145
  62.2673744  87.3478106  77.4419677  63.2260264  86.8880634  78.5196946
  71.4860936  80.7119763  75.9741103  71.3478834  80.9021359  75.0462292
  71.1297154  81.4739146  76.4309154  60.4263366  83.9980288  78.1673108
  61.2203964  83.5030609  77.9655683  59.7155058  83.4698152  77.8040813
  56.7346129  78.1423370  74.2432860  55.8043717  78.0807826  74.4602823
  56.8303601  77.6199323  73.4469502  67.4360974  82.9726733  89.0926141
  67.2846480  82.7437285  88.1756224  67.4265653  83.9297335  89.1057486
  64.2046310  80.5458646  84.0772407  65.1338370  80.6969806  83.9041375
  63.7837340  80.6342667  83.2221054  63.0034642  84.5709310  81.8470945
  62.8645727  84.2028095  82.7196883  62.2149238  85.0856950  81.6754903
  58.5284101  79.3558543  84.7612364  58.3903899  78.6238782  85.3623903
  59.4389024  79.2667443  84.4796552  67.4899048  81.2946947  69.5096842
  66.8728219  80.5693776  69.4129895  67.0215537  82.0556308  69.1663917
  61.1566401  79.0678502  84.2496043  61.8666020  78.4271695  84.2082662
  61.1135710  79.3191397  85.1722224  58.1643879  92.8207770  79.9636342
  58.4040477  93.4526294  80.6415360  57.3213075  92.4695810  80.2501701
  59.2797594  75.5132372  68.6318147  58.4027061  75.3921173  68.2680393
  59.7555347  74.7218450  68.3797035  62.6771741  88.6286892  82.3677846
  62.6041912  89.4341864  82.8797150  62.2349134  88.8278858  81.5425867
  62.4661520  87.8658662  75.8780667  61.6829042  88.4080342  75.9718892
  63.1654266  88.3832642  76.2774908  62.3593139  75.8170675  78.2486557
  61.9890927  75.2641715  78.9367463  62.8552232  75.2128808  77.6961557
  70.2460503  78.2742298  76.6303330  70.7120955  79.1070290  76.5563633
  70.6968003  77.8087280  77.3348588  60.1882338  86.2768170  85.3441575
  60.8891797  86.9104653  85.4970969  59.7177453  86.6182901  84.5837214
  64.9490798  88.8672470  77.2722296  65.1313192  88.0494126  77.7350048
  65.7723784  89.0840162  76.8347186  65.2832963  87.7940655  74.5337344
  65.8120730  87.2833110  73.9207506  65.5461183  87.4783186  75.3982877
  64.0371197  79.5732588  89.6560162  63.3611834  79.4726717  90.3262538
  64.8598831  79.4171802  90.1196160  55.7850056  85.8104525  82.2772678
  56.3703493  85.0648213  82.4100582  55.5874894  86.1208481  83.1609342
  58.6388711  88.8455772  77.2935120  57.9699086  89.3301900  76.8099160
  58.5001581  89.0924992  78.2078499  67.6304854  85.7060773  89.7466433
  68.1744758  86.3190731  89.2521388  67.0491699  86.2640351  90.2633446
  54.0076288  77.1074227  74.0731052  54.3029729  76.1984905  74.0198106
  53.1064324  77.0861966  73.7512055  64.9843709  86.4243227  78.7065363
  64.8368671  85.4959935  78.8872933  65.8097202  86.4463318  78.2222438
  60.8374100  73.5735916  72.7639148  61.5582463  73.9517169  72.2602865
  60.2139404  74.2924793  72.8674126  64.9805223  74.2781065  73.6997480
  65.1968837  75.1605703  73.3986308  64.4999290  73.8867278  72.9703122
  60.9837723  73.1083707  75.5936684  61.1053634  72.1800353  75.7927572
  60.6939766  73.1222392  74.6815000  62.9259791  88.4457997  85.9066433
  63.2346918  88.2007144  86.7789132  63.7235273  88.6504636  85.4185303
  62.9480403  90.5995907  78.1371809  62.5085393  90.1072285  78.8304666
  63.6988520  90.0568874  77.8963885  55.4272742  86.7907448  78.1396437
  56.2530762  86.4911220  77.7595081  55.0766794  86.0215070  78.5886226
  60.3954275  86.1433916  80.2094111  59.7734285  85.4804621  79.9096339
  61.0659142  86.1695048  79.5267759  53.6281347  84.7093774  79.0985371
  52.7913255  84.2815948  78.9169372  53.6004993  84.9026217  80.0356162
  59.9567782  84.6937839  73.6852572  60.1055903  85.3773304  73.0319244
  60.7634226  84.6742929  74.2002027  57.7120415  80.7203017  74.6913640
  57.4666457  79.8165347  74.8893851  57.8816330  80.7220167  73.7493118
  56.9816063  76.4531374  72.1899802  56.2885308  76.5275729  71.5339838
  56.7367815  75.6891718  72.7121319  63.8409986  78.5246782  68.4980371
  64.7869091  78.3952991  68.5668790  63.4624231  77.7861444  68.9749800
  63.7248679  82.5764529  89.9581028  64.6451688  82.7543128  90.1521075
  63.6898262  81.6320574  89.8060728  62.0252903  76.4496759  68.4335257
  61.1184359  76.1529872  68.5097970  62.3028884  76.1526577  67.5669543
  56.7210751  80.4865563  82.6003810  56.9396761  81.4182671  82.6191843
  57.1336525  80.1273538  83.3858613  63.6414969  70.9933649  74.5879498
  62.8315697  70.6480733  74.9634744  64.3299386  70.6841192  75.1767110
  60.7951688  73.3083694  68.5747236  61.6570852  73.6338592  68.8343053
  60.9802032  72.5215190  68.0620302  61.4569887  79.4895908  90.8071620
  60.9736968  80.2896268  91.0135509  61.5430826  79.5003853  89.8539064
  54.7255846  81.3224287  78.7293440  54.7026534  81.4211975  77.7775323
  55.0356483  82.1689438  79.0510606  57.3843224  83.3800443  82.8440054
  58.3386478  83.3484385  82.7769986  57.1855748  82.9191066  83.6590280
  57.9742606  81.9501559  85.4110852  58.7935495  82.4445637  85.4345689
  58.2479414  81.0333527  85.3828419  67.7309202  74.3412311  74.7738807
  66.8435057  74.6261961  74.5559002  68.1463192  74.1806074  73.9266084
  55.7393453  88.9220062  79.8610252  55.6047921  88.1620463  79.2948250
  55.3225515  89.6460962  79.3939041  71.5155032  75.6456579  75.8139217
  71.2591966  75.2453214  76.6447425  70.8907900  76.3600373  75.6889356
  58.8962579  89.8189379  80.0728695  58.7794963  90.7634812  79.9707385
  58.0755025  89.5162941  80.4614494  65.7530913  83.3520540  91.6095189
  66.6222072  83.5261192  91.2481824  65.2737664  84.1714957  91.4870919
  61.7481131  70.5479737  71.8626945  61.7359801  71.4921577  72.0195216
  62.6404553  70.3649882  71.5686406  59.9217093  90.4717641  83.2884623
  60.8244340  90.5041251  83.6051118  59.6954463  89.5418092  83.3030959
  61.6770695  89.2248627  79.9494702  60.7266326  89.2250489  79.8359074
  61.9803181  88.4781362  79.4330736  70.1256512  86.8388026  91.2008034
  69.7323458  86.2854225  91.8755679  70.9422653  87.1498605  91.5914552
  68.0704500  90.6289716  88.1412697  68.6976539  90.2466793  88.7550222
  67.2132419  90.4103918  88.5068390  68.4068766  88.7599227  90.2078063
  69.2700228  88.4036032  90.4181388  67.8334177  88.4213122  90.8953467
  82.2044558 120.7306211  75.8188140  82.1268588 121.6814036  75.8976620
  81.6006202 120.3852084  76.4763066  79.8431388 123.4791605  79.9636342
  80.0827986 124.1110129  80.6415360  79.0000584 123.1279645  80.2501701
  80.3176220 119.5039607  77.2935120  79.6486595 119.9885735  76.8099160
  80.1789090 119.7508828  78.2078499  75.8737616 110.4355958  83.2155886
  75.3291084 111.2115766  83.3476160  76.7516965 110.7826762  83.0575007
  78.3998260 111.1449399  82.6003810  78.6184270 112.0766506  82.6191843
  78.8124034 110.7857373  83.3858613  74.4906613 112.0489869  80.8527425
  73.7970084 111.6343822  80.3397379  75.2379604 112.0910406  80.2560844
  77.4180962 119.5803897  79.8610252  77.2835430 118.8204298  79.2948250
  77.0013024 120.3044797  79.3939041  97.3386978 131.1926873  72.2513345
  96.6874958 131.7780954  71.8647358  98.1331341 131.7233068  72.3108382
  91.2642605 128.2816011  72.6500479  92.0373481 127.7344998  72.5113355
  91.6168004 129.1460260  72.8614940  93.6008883 124.4408677  70.2818929
  93.8534404 123.9190198  69.5202392  92.6633442 124.2774822  70.3845612
  88.7706079 128.9355720  75.1121604  89.2830600 129.7298970  75.2627169
  89.4228792 128.2382010  75.0455206  96.9445158 132.0403848  88.6694021
  96.5009012 131.2540227  88.3514926  97.6062372 132.2282999  88.0037912
  91.9240478 121.6560897  71.4320240  91.0877790 121.9935584  71.7529515
  91.7845247 121.5209877  70.4947377  95.0104763 126.7816980  68.0552716
  94.1031825 126.5506234  68.2543865  95.5075795 125.9854600  68.2426698
  97.9172842 135.4914488  70.9749402  97.2434541 135.7946184  71.5834360
  98.3038664 136.2943568  70.6254859  95.8869084 128.4238319  69.9164785
  95.4488514 127.7074178  69.4570422  96.6279525 128.6514434  69.3549876
  96.1164057 135.6594160  73.1896481  96.2915813 135.1882203  74.0042104
  95.4296845 136.2859926  73.4177742 100.0080312 127.2822701  69.5096842
  99.3909483 126.5569529  69.4129895  99.5396800 128.0432061  69.1663917
  91.7978858 121.5008125  68.6318147  90.9208324 121.3796926  68.2680393
  92.2736611 120.7094203  68.3797035  83.3180998 126.2885285  78.7259654
  84.0052038 125.9747015  78.1380669  83.1629127 127.1926649  78.4526905
 100.8317997 130.6061872  73.6289482 101.1077841 130.4918467  74.5383356
  99.9622496 130.2079357  73.5901655  97.4672061 134.8548223  77.2722296
  97.6494456 134.0369879  77.7350048  98.2905047 135.0715916  76.8347186
  97.8014227 133.7816408  74.5337344  98.3301993 133.2708863  73.9207506
  98.0642446 133.4658939  75.3982877  93.3555364 119.5611669  72.7639148
  94.0763726 119.9392922  72.2602865  92.7320668 120.2800546  72.8674126
 100.8954410 133.7533207  75.1492327 101.0691288 133.1879629  74.3966180
 101.3883301 134.5534101  74.9671817 101.8829583 133.0699971  72.2489225
 102.5780487 133.6906664  72.4676540 102.2252733 132.2195322  72.5241603
 103.7821006 130.5199677  73.7776556 104.3072330 130.8586949  73.0525876
 103.6943358 129.5846692  73.5939691  90.2301679 126.7078770  74.6913640
  89.9847721 125.8041100  74.8893851  90.3997593 126.7095920  73.7493118
  89.4997326 122.4407127  72.1899802  88.8066571 122.5151482  71.5339838
  89.2549078 121.6767471  72.7121319  95.9744451 133.1761723  71.1564319
  95.4018418 133.7951910  70.7034791  96.5477245 133.7261084  71.6904241
  99.1941711 133.4598873  72.2872901 100.1272384 133.3944435  72.4905777
  99.1064924 134.2955140  71.8287434 101.8229728 132.7764743  69.2476849
 101.7443359 132.4424607  70.1412607 102.6439394 133.2686511  69.2468321
  96.3591250 124.5122535  68.4980371  97.3050354 124.3828744  68.5668790
  95.9805495 123.7737197  68.9749800  94.5434167 122.4372512  68.4335257
  93.6365622 122.1405625  68.5097970  94.8210148 122.1402330  67.5669543
  93.3132951 119.2959447  68.5747236  94.1752115 119.6214345  68.8343053
  93.4983296 118.5090943  68.0620302  99.3933679 130.0932739  68.8686827
 100.0969530 130.2982741  69.4844483  98.6696328 130.6609500  69.1335911
 101.3020377 130.5315268  70.9185287 102.1365981 130.0996466  70.7362762
 101.1404720 130.3597281  71.8462182 109.9304652 141.0484919  81.0140464
 110.5683062 140.9291666  80.3103804 109.8125495 141.9965763  81.0728416
 106.7394358 141.0012347  80.9501989 106.4012870 140.8853412  80.0622524
 107.6084126 140.6003512  80.9302995 102.5981174 142.8547823  76.9398880
 102.0346039 142.7637760  76.1715167 102.4833569 142.0347728  77.4201372
 107.2214141 142.1547199  86.9088194 107.2102782 141.7599997  86.0368698
 107.3834781 141.4213271  87.5021966 100.1445606 144.3499015  79.7783100
 100.9366898 144.0089840  79.3629399 100.3842256 144.4593990  80.6985253
 108.1780733 146.5218791  72.2513345 107.5268712 147.1072872  71.8647358
 108.9725095 147.0524986  72.3108382 102.1036360 143.6107928  72.6500479
 102.8767236 143.0636915  72.5113355 102.4561759 144.4752178  72.8614940
 103.9421402 144.9384311  85.8567378 103.6511268 145.8429941  85.7414044
 104.5778387 144.9800838  86.5711448 104.8677609 142.3161159  82.4468738
 105.4641181 142.0917181  81.7325701 104.9252581 141.5745905  83.0494186
 104.4402638 139.7700594  70.2818929 104.6928158 139.2482116  69.5202392
 103.5027197 139.6066740  70.3845612 109.4845920 138.7736373  78.0893672
 110.2709010 138.3555796  77.7384089 109.7484625 139.6782465  78.2575320
 109.6555998 144.2109223  72.7882329 109.0201831 144.2843850  73.5003233
 109.3253404 144.8002822  72.1101408 114.8854348 138.7111606  78.9926651
 115.6179519 138.1410823  79.2264480 114.1293703 138.3233206  79.4333156
 104.1598926 141.6728700  72.4843304 104.0435184 140.9973604  73.1524388
 104.2701186 141.1861074  71.6675457 106.5030467 141.1338847  76.1889993
 106.1388674 140.6069468  76.9002914 107.3597583 140.7437316  76.0156478
 112.4079768 132.4233180  83.4521259 112.0763093 133.2928591  83.2282474
 111.8125381 132.1069464  84.1315290 106.1435954 136.1628747  71.1851341
 106.3110357 137.0308984  71.5521813 105.9533123 136.3256029  70.2612631
 108.9011287 144.6245726  82.8517172 108.6012010 145.5270765  82.7432979
 108.5562347 144.3577909  83.7038325 102.3523769 141.0759523  78.8853876
 101.4274265 140.9435737  79.0931568 102.6008182 141.8553742  79.3823819
 112.3008431 137.1428266  80.5314609 111.3925309 137.0743675  80.2373370
 112.2496027 137.6200211  81.3596435 106.1225175 138.6186405  72.1698008
 106.0024800 139.0643455  73.0083489 105.4277763 138.9671722  71.6111546
  99.7132580 140.7192796  79.7197665  99.8424961 140.9727275  80.6337077
  99.0330031 141.3120504  79.4002320 103.8832067 151.3890046  75.8188140
 103.8056097 152.3397871  75.8976620 103.2793711 151.0435919  76.4763066
 106.3749297 138.5617912  88.4749506 105.5982631 139.1211832  88.4652371
 107.0139860 139.0474695  88.9964377 114.1670078 135.3444705  82.3092483
 113.5244458 135.6377238  81.6632278 113.6625006 135.2297625  83.1145680
 111.8210241 139.0907878  72.9978342 112.7328097 139.3235265  72.8226040
 111.3119888 139.6744922  72.4353421 104.6295669 141.3703365  88.0367473
 105.3710354 141.9088409  87.7602297 103.9232655 141.9969654  88.1939025
 110.1051009 143.5132506  86.6339635 110.5134365 143.0714916  85.8894267
 109.3828270 142.9385133  86.8873828 106.4582079 138.4505112  84.0073192
 107.3043274 138.8744526  84.1507841 106.3980717 137.7938737  84.7011755
 110.4279824 144.0733696  80.3891924 109.7988686 144.2379410  79.6867992
 110.0405486 144.4875306  81.1602888 114.3069055 145.0088134  77.7436288
 113.6220094 145.3887035  77.1933321 114.3912905 145.6183461  78.4768235
 109.6081524 136.1109481  85.6654366 109.3642456 136.8651541  85.1288641
 109.8841455 136.4894828  86.5001613 111.5619987 142.6548093  84.3431631
 111.7736882 143.2979853  83.6666012 111.5149735 141.8210410  83.8753561
 109.1646216 135.2665914  81.2468203 108.3030695 135.5647167  81.5384941
 109.1908651 135.4836313  80.3149236 105.9807785 143.8108104  77.6542009
 106.4446131 144.0895807  76.8646631 105.7164584 142.9091549  77.4715100
 102.8731867 143.3579586  80.5921772 103.4433224 143.7866854  79.9539257
 103.4639978 143.0762171  81.2905958 104.9176672 139.9331257  74.4631574
 105.6200715 140.3852300  74.9305500 104.5857300 139.2915076  75.0911467
 103.3657033 138.5243013  88.8382783 102.7355694 139.2059294  89.0718180
 103.2593121 138.4126095  87.8935922  98.6602005 138.1914809  79.7648708
  97.8701059 138.4472338  79.2888818  99.1513253 139.0063147  79.8700748
 112.6765815 145.5320049  82.5153988 113.4983259 145.1300236  82.2336670
 112.6728218 145.4288283  83.4670104 100.6116751 138.5559389  76.7232184
  99.8147914 138.6678083  77.2415680 100.3842343 138.8946041  75.8573075
 106.4422418 145.0804092  84.6714699 106.5066851 145.5424499  85.5072871
 105.7333342 144.4501457  84.7997009  96.9439708 138.4445300  82.1963698
  97.1947747 139.3292310  82.4621274  97.4799257 138.2649901  81.4238790
 120.7671808 141.8758797  78.8638960 120.0135516 141.3066195  78.7082964
 120.9019349 141.8421462  79.8109595 106.1570436 146.7472199  74.5393679
 106.0216111 147.5923735  74.9678527 106.6980249 146.9491477  73.7759613
  99.6099834 144.2647637  75.1121604 100.1224354 145.0590888  75.2627169
 100.2622546 143.5673928  75.0455206 101.4194718 147.3813394  77.1944358
 101.5961347 148.3031358  77.0065341 102.2151552 147.0671813  77.6238737
 100.7047075 139.4278026  87.0706521 100.5900590 138.5263283  87.3713620
  99.8491593 139.6741722  86.7191337 107.7838913 147.3695766  88.6694021
 107.3402767 146.5832144  88.3514926 108.4456126 147.5574916  88.0037912
 102.5426034 148.8991567  83.1954700 103.0933459 148.7708631  82.4231694
 101.7037510 149.1986456  82.8449593 109.8820151 147.6498566  86.6975423
 109.8638626 148.4707447  86.2055692 110.8040071 147.5252641  86.9225564
 106.3393205 145.1642695  87.5398931 106.8721542 144.4030983  87.3098239
 105.8107286 144.8716347  88.2823085  97.5748750 142.5936292  75.8881175
  98.4123972 143.0033300  75.6714883  97.7527018 141.6535734  75.8581369
 109.4713182 140.2611372  71.5765008 108.9559806 141.0315977  71.8153395
 109.1990491 139.5876508  72.1998069 107.0560293 135.1061073  76.6350246
 106.2001890 134.7167923  76.4555885 107.4687245 135.1853034  75.7750032
 108.5859440 132.6407416  81.0341806 108.0824236 132.6037552  80.2209611
 108.8790047 133.5500159  81.0938463 104.8302326 132.7246146  80.0407988
 105.6955323 132.5288955  79.6813877 104.8979835 132.4956498  80.9677344
 114.4447457 143.0143727  73.5118181 113.6676899 142.6754886  73.0673343
 115.1238938 143.0196350  72.8373146 109.2599486 138.1338464  73.4024789
 108.9549621 138.4484614  74.2534932 110.2129928 138.2119884  73.4452122
 107.7045917 144.2928688  75.0517743 107.1767279 143.5581447  74.7390980
 107.2033420 145.0703364  74.8057711 112.6838763 142.4877708  80.1684789
 112.0262438 143.1776970  80.2564918 113.4879163 142.8774140  80.5118776
 102.4364645 134.9548354  77.4124355 103.0108397 134.7323536  76.6797547
 103.0235627 135.0237049  78.1652956 111.4944222 140.8422081  78.2188731
 112.0076104 141.4752073  78.7210441 112.1445446 140.2423276  77.8532091
 102.7634232 136.9852815  71.4320240 101.9271544 137.3227502  71.7529515
 102.6239002 136.8501795  70.4947377 104.7387313 131.8289603  76.1399424
 104.0851725 131.5138620  75.5156039 104.6967787 131.2065343  76.8659247
 105.8498518 142.1108898  68.0552716 104.9425579 141.8798151  68.2543865
 106.3469550 141.3146517  68.2426698 108.7566596 150.8206405  70.9749402
 108.0828295 151.1238102  71.5834360 109.1432418 151.6235486  70.6254859
 107.9725053 138.3171536  80.4647072 107.0547614 138.5386483  80.3068760
 108.3885197 138.3917847  79.6058779 108.7560101 139.7162952  75.5949752
 109.5031920 140.2284349  75.2856874 109.0251690 139.3947005  76.4554145
 107.0286751 142.2121493  72.5776706 106.1197970 141.9280526  72.6749176
 107.0581835 142.6320571  71.7180013 112.2606018 145.8228082  76.3467874
 111.8068346 144.9818992  76.4033064 111.6299985 146.4589481  76.6842654
 111.2038938 136.7520068  77.5768541 110.4661695 136.2397455  77.9078784
 111.4565712 136.3120450  76.7651818 110.7038958 147.6604579  77.2817692
 110.9961932 148.2209636  76.5630057 111.2137578 147.9533140  78.0370851
  97.5974921 139.9327007  76.5591908  97.3999321 139.3396368  75.8342975
  97.0421585 139.6279217  77.2767847 105.5771645 139.8250113  78.6786501
 105.6320255 138.8723950  78.6028978 104.7662847 139.9809553  79.1627800
 106.7262839 143.7530237  69.9164785 106.2882269 143.0366095  69.4570422
 107.4673280 143.9806351  69.3549876 103.5164005 138.4427173  76.4376880
 102.7031871 138.7421344  76.8442072 104.0122999 138.0482862  77.1551363
 105.6672583 148.4384930  78.3711145 105.6248762 148.6645776  77.4419677
 106.5835282 148.2048305  78.5196946 109.1138217 138.9068998  85.2691774
 109.4687604 139.1340471  86.1286240 109.7610348 139.2387374  84.6469030
 114.8435954 142.0287434  75.9741103 114.7053852 142.2189030  75.0462292
 114.4872172 142.7906816  76.4309154 103.0078080 136.0145529  82.0538115
 103.6477459 135.8734288  81.3561079 102.1755610 135.7280042  81.6776717
 114.8705333 144.0963961  80.9852375 115.3041840 144.0039250  81.8335429
 115.5836914 144.0721461  80.3472391 103.7838384 145.3147959  78.1673108
 104.5778982 144.8198279  77.9655683 103.0730076 144.7865822  77.8040813
 108.6033228 147.6966055  82.5185475 108.6570250 148.2656991  83.2863191
 107.7348010 147.8667940  82.1539513 100.0921147 139.4591041  74.2432860
  99.1618735 139.3975496  74.4602823 100.1878619 138.9366994  73.4469502
 100.0106696 135.9845854  76.8311102 100.2713513 136.8991187  76.7220263
 100.8323869 135.5170296  76.9807715 101.4831622 137.3983611  84.0009927
 102.1554675 137.1900973  83.3522576 100.6561408 137.2005697  83.5615159
 115.7320883 144.1387661  83.5185260 115.9256773 145.0433472  83.7644535
 115.6321501 143.6795080  84.3523845 110.7935991 144.2894404  89.0926141
 110.6421498 144.0604956  88.1756224 110.7840671 145.2465005  89.1057486
 107.5621328 141.8626317  84.0772407 108.4913388 142.0137476  83.9041375
 107.1412358 141.9510338  83.2221054 106.3609660 145.8876981  81.8470945
 106.2220745 145.5195766  82.7196883 105.5724256 146.4024621  81.6754903
 106.9557812 150.9886078  73.1896481 107.1309567 150.5174121  74.0042104
 106.2690600 151.6151844  73.4177742 107.9114875 145.2658584  79.2359783
 107.5764707 145.2259354  80.1317433 107.4118820 144.6003300  78.7630193
 101.8859119 140.6726214  84.7612364 101.7478917 139.9406453  85.3623903
 102.7964042 140.5835114  84.4796552 110.8474066 142.6114618  69.5096842
 110.2303237 141.8861446  69.4129895 110.3790555 143.3723978  69.1663917
 104.5141419 140.3846173  84.2496043 105.2241038 139.7439365  84.2082662
 104.4710728 140.6359068  85.1722224 112.5028198 147.3213527  87.1702623
 112.4440744 146.6372747  86.5033206 112.9047717 148.0632517  86.7183249
 103.2270353 137.3711391  86.0691683 102.6907710 136.9202130  86.7213279
 102.6387062 137.5057300  85.3262147 101.5218897 154.1375440  79.9636342
 101.7615495 154.7693965  80.6415360 100.6788093 153.7863480  80.2501701
 102.6372612 136.8300042  68.6318147 101.7602079 136.7088843  68.2680393
 103.1130365 136.0386121  68.3797035 112.5045605 145.2853110  85.4016602
 111.6172384 144.9479032  85.5243001 113.0744156 144.5536142  85.6385368
 106.0346759 149.9454563  82.3677846 105.9616930 150.7509534  82.8797150
 105.5924152 150.1446529  81.5425867 105.8236538 149.1826333  75.8780667
 105.0404060 149.7248013  75.9718892 106.5229284 149.7000312  76.2774908
 109.1333189 134.9920962  78.5214872 109.6301888 134.2390925  78.2015943
 108.3620170 135.0285279  77.9558082 116.9862946 140.6961328  80.1633164
 116.9752822 141.5786043  79.7927097 116.1180325 140.3432879  79.9687701
 108.4945442 149.8441397  84.5236004 109.2073415 150.4788862  84.4511906
 108.0035471 149.9405263  83.7076006 110.2162969 143.7492650  76.0953296
 109.2819248 143.8694112  75.9258000 110.3939638 142.8465116  75.8313306
 105.7168157 137.1338345  78.2486557 105.3465945 136.5809386  78.9367463
 106.2127250 136.5296479  77.6961557 113.6035521 139.5909969  76.6303330
 114.0695973 140.4237960  76.5563633 114.0543021 139.1254950  77.3348588
 103.5457356 147.5935840  85.3441575 104.2466815 148.2272323  85.4970969
 103.0752471 147.9350572  84.5837214 111.6711752 145.9353790  73.6289482
 111.9471596 145.8210385  74.5383356 110.8016250 145.5371275  73.5901655
 111.3458642 140.1480448  83.1694125 110.6930092 140.3956355  82.5146578
 111.7239022 139.3344586  82.8356603 108.3065816 150.1840141  77.2722296
 108.4888210 149.3661797  77.7350048 109.1298802 150.4007833  76.8347186
 108.6407981 149.1108326  74.5337344 109.1695748 148.6000781  73.9207506
 108.9036201 148.7950856  75.3982877 107.3946215 140.8900259  89.6560162
 106.7186852 140.7894388  90.3262538 108.2173849 140.7339473  90.1196160
  99.1425074 147.1272195  82.2772678  99.7278511 146.3815883  82.4100582
  98.9449912 147.4376152  83.1609342 101.9963729 150.1623443  77.2935120
 101.3274104 150.6469570  76.8099160 101.8576599 150.4092663  78.2078499
 106.1368998 152.1967186  83.8917778 106.6887306 152.3598808  84.6566864
 106.4775191 152.7871624  83.2197803 100.5885763 136.6165469  88.1412697
 101.2157802 136.2342546  88.7550222  99.7313682 136.3979671  88.5068390
 110.9879872 147.0228444  89.7466433 111.5319776 147.6358402  89.2521388
 110.4066717 147.5808022  90.2633446  97.3651306 138.4241898  74.0731052
  97.6604747 137.5152576  74.0198106  96.4639342 138.4029637  73.7512055
 109.2737385 150.1449162  80.8781461 109.1488524 149.3438902  80.3692406
 109.9316476 150.6395355  80.3895431 100.8945553 136.4997894  80.0558601
 100.1732139 137.1133862  79.9166074 101.6838809 137.0355659  79.9775247
 111.3372293 147.9458182  82.5061011 110.3902629 147.8263533  82.4339337
 111.6855066 147.0580680  82.5887272  99.0939148 136.1055995  74.1970377
  98.7651854 135.2253374  74.0145483  99.4478518 136.0503664  75.0846767
 108.3418727 147.7410898  78.7065363 108.1943689 146.8127606  78.8872933
 109.1672220 147.7630989  78.2222438 102.2080971 136.3928965  74.5645855
 102.5477043 136.9214886  73.8424463 102.6553091 136.7309371  75.3404422
 111.9452849 148.5639457  79.7930236 112.8699396 148.3582318  79.6554687
 111.7768152 148.3155858  80.7019577 104.1949118 134.8903587  72.7639148
 104.9157481 135.2684840  72.2602865 103.5714422 135.6092464  72.8674126
 108.3380241 135.5948736  73.6997480 108.5543855 136.4773374  73.3986308
 107.8574308 135.2034949  72.9703122 103.0779462 138.5534449  80.2768225
 102.9324043 138.8674752  81.1692506 102.6004666 139.1719349  79.7239123
 104.9375845 135.5436997  80.3249114 104.9237414 134.6478090  79.9881412
 105.6548273 135.5507661  80.9587400 106.7901976 135.9774337  82.3702242
 106.5319754 136.8991408  82.3686572 106.2587016 135.5804772  83.0602706
 111.7348165 149.0825124  75.1492327 111.9085042 148.5171547  74.3966180
 112.2277056 149.8826019  74.9671817  97.5525125 141.0939793  83.2155886
  97.0078593 141.8699601  83.3476160  98.4304474 141.4410598  83.0575007
 104.3412741 134.4251377  75.5936684 104.4628652 133.4968023  75.7927572
 104.0514784 134.4390063  74.6815000 107.2103932 132.1106288  78.7303404
 107.2325628 132.1745621  77.7755384 107.6271991 131.2710796  78.9243910
 117.5887556 141.8461547  76.7682627 118.0318702 141.0968872  76.3701750
 116.7114066 141.8371684  76.3856359 112.7223337 148.3991889  72.2489225
 113.4174242 149.0198581  72.4676540 113.0646487 147.5487240  72.5241603
  98.3391146 140.2209690  86.1086043  97.5972882 140.3692325  86.6950673
  98.0183891 140.4817955  85.2452792 114.6214760 145.8491594  73.7776556
 115.1466084 146.1878867  73.0525876 114.5337113 144.9138610  73.5939691
 106.2834809 149.7625668  85.9066433 106.5921935 149.5174815  86.7789132
 107.0810291 149.9672306  85.4185303 106.3055421 151.9163577  78.1371809
 105.8660411 151.4239956  78.8304666 107.0563538 151.3736545  77.8963885
  98.7847760 148.1075118  78.1396437  99.6105780 147.8078890  77.7595081
  98.4341812 147.3382741  78.5886226 103.7529293 147.4601587  80.2094111
 103.1309303 146.7972292  79.9096339 104.4234160 147.4862718  79.5267759
  96.9856365 146.0261445  79.0985371  96.1488273 145.5983619  78.9169372
  96.9580011 146.2193888  80.0356162 114.3108666 146.4824498  89.0827754
 113.5204210 146.4648637  88.5432254 114.0742021 147.0212792  89.8376791
 114.4306541 143.3316964  86.3960483 114.4804546 143.1666972  87.3376005
 114.3220465 142.4644223  86.0058363 103.3142800 146.0105510  73.6852572
 103.4630921 146.6940974  73.0319244 104.1209244 145.9910600  74.2002027
 111.7210304 139.3147892  87.7119789 112.6220167 139.1754357  87.4203787
 111.7958278 139.4802347  88.6517967 115.9324738 145.7513906  86.6402504
 115.6409547 146.1143886  87.4765965 115.3196870 145.0380914  86.4615836
 117.1320421 143.3166786  79.1605074 117.9667312 143.7556590  79.3242635
 117.2679549 142.8405439  78.3413320 114.1811927 140.8746520  85.1082562
 114.6566048 141.0674167  84.3001414 113.2577492 140.9305706  84.8625946
 101.0695433 142.0370688  74.6913640 100.8241475 141.1333018  74.8893851
 101.2391348 142.0387838  73.7493118 100.3391081 137.7699045  72.1899802
  99.6460326 137.8443400  71.5339838 100.0942833 137.0059389  72.7121319
 106.8138206 148.5053640  71.1564319 106.2412173 149.1243828  70.7034791
 107.3870999 149.0553002  71.6904241 112.8813596 137.7512280  83.3410868
 113.8331018 137.8510378  83.3623092 112.7117046 136.9590549  83.8508952
 110.9027975 134.8367864  83.5270269 110.3077907 135.1172876  82.8316757
 110.6177672 135.3261765  84.2987010 110.0335465 148.7890791  72.2872901
 110.9666139 148.7236352  72.4905777 109.9458678 149.6247057  71.8287434
 112.6623482 148.1056661  69.2476849 112.5837114 147.7716524  70.1412607
 113.4833149 148.5978429  69.2468321 115.3601673 140.9718400  82.4553167
 115.3277993 140.0334401  82.6412851 115.9702297 141.0502437  81.7218992
 107.1985004 139.8414453  68.4980371 108.1444109 139.7120661  68.5668790
 106.8199249 139.1029115  68.9749800 115.5096162 137.7629444  82.5011451
 114.9935210 136.9787900  82.3141379 116.3936110 137.4348160  82.6657970
 121.1778223 142.0334407  81.5959204 121.9081612 141.7719695  82.1566908
 120.5685169 141.2963129  81.6361272 119.2593520 140.1742270  82.1933655
 118.5326684 140.0398235  81.5850147 118.8440807 140.4819098  82.9990373
 107.0823697 143.8932199  89.9581028 108.0026706 144.0710798  90.1521075
 107.0473280 142.9488245  89.8060728 105.3827921 137.7664430  68.4335257
 104.4759377 137.4697542  68.5097970 105.6603902 137.4694248  67.5669543
 100.0785769 141.8033234  82.6003810 100.2971779 142.7350342  82.6191843
 100.4911543 141.4441208  83.3858613 104.9513635 137.3766440  91.9906559
 104.8510361 138.3260797  91.9218650 104.7335177 137.0484679  91.1182629
 104.1526706 134.6251365  68.5747236 105.0145870 134.9506263  68.8343053
 104.3377050 133.8382861  68.0620302  96.1694122 142.7073704  80.8527425
  95.4757593 142.2927657  80.3397379  96.9167113 142.7494241  80.2560844
 104.8144905 140.8063579  90.8071620 104.3311986 141.6063939  91.0135509
 104.9005844 140.8171523  89.8539064  98.0830864 142.6391958  78.7293440
  98.0601552 142.7379645  77.7775323  98.3931501 143.4857109  79.0510606
 100.7418242 144.6968113  82.8440054 101.6961496 144.6652056  82.7769986
 100.5430766 144.2358737  83.6590280 101.3317624 143.2669229  85.4110852
 102.1510513 143.7613308  85.4345689 101.6054432 142.3501197  85.3828419
 116.8771315 136.3954122  79.5467087 117.4715806 136.1549858  78.8360395
 116.9497899 135.6761252  80.1740623  99.0968471 150.2387733  79.8610252
  98.9622939 149.4788134  79.2948250  98.6800533 150.9628633  79.3939041
 110.2327434 145.4224656  68.8686827 110.9363284 145.6274659  69.4844483
 109.5090083 145.9901418  69.1335911 111.0625244 141.1734518  74.9889097
 111.0060446 141.6303069  74.1496730 111.6153587 140.4125202  74.8111940
 114.8730050 136.9624249  75.8139217 114.6166984 136.5620885  76.6447425
 114.2482918 137.6768043  75.6889356 119.1842388 139.7020323  78.3210508
 118.6241946 139.7713512  79.0942070 118.5785891 139.5261307  77.6010004
 102.2537597 151.1357050  80.0728695 102.1369981 152.0802482  79.9707385
 101.4330043 150.8330611  80.4614494 112.1414131 145.8607185  70.9185287
 112.9759735 145.4288384  70.7362762 111.9798474 145.6889199  71.8462182
 111.7960023 142.3639299  72.2841627 111.7408827 142.1983570  71.3430071
 111.1706079 143.0715332  72.4403816  96.5852538 137.6007363  86.1103049
  97.2311402 137.0906317  86.5990274  96.3769690 138.3376045  86.6846474
 109.1105931 144.6688211  91.6095189 109.9797090 144.8428863  91.2481824
 108.6312682 145.4882627  91.4870919 105.1056149 131.8647408  71.8626945
 105.0934819 132.8089248  72.0195216 105.9979571 131.6817553  71.5686406
 103.2792111 151.7885312  83.2884623 104.1819358 151.8208922  83.6051118
 103.0529481 150.8585763  83.3030959 105.0345713 150.5416298  79.9494702
 104.0841344 150.5418160  79.8359074 105.3378199 149.7949033  79.4330736
 100.9250029 134.7474980  90.2078063 101.7881491 134.3911785  90.4181388
 100.3515440 134.4088875  90.8953467 120.7698406 156.3776837  81.0140464
 121.4076816 156.2583584  80.3103804 120.6519249 157.3257681  81.0728416
 117.5788113 156.3304265  80.9501989 117.2406624 156.2145329  80.0622524
 118.4477881 155.9295430  80.9302995 113.4374928 158.1839741  76.9398880
 112.8739794 158.0929678  76.1715167 113.3227323 157.3639646  77.4201372
 118.0607896 157.4839116  86.9088194 118.0496536 157.0891915  86.0368698
 118.2228535 156.7505189  87.5021966 110.9839360 159.6790933  79.7783100
 111.7760652 159.3381757  79.3629399 111.2236010 159.7885908  80.6985253
 119.0174487 161.8510709  72.2513345 118.3662467 162.4364789  71.8647358
 119.8118850 162.3816904  72.3108382 112.9430114 158.9399846  72.6500479
 113.7160990 158.3928833  72.5113355 113.2955513 159.8044095  72.8614940
 114.7815157 160.2676228  85.8567378 114.4905023 161.1721859  85.7414044
 115.4172141 160.3092756  86.5711448 115.7071364 157.6453077  82.4468738
 116.3034936 157.4209099  81.7325701 115.7646335 156.9037822  83.0494186
 115.2796392 155.0992512  70.2818929 115.5321913 154.5774033  69.5202392
 114.3420951 154.9358657  70.3845612 120.3239675 154.1028290  78.0893672
 121.1102764 153.6847714  77.7384089 120.5878379 155.0074383  78.2575320
 120.4949752 159.5401141  72.7882329 119.8595585 159.6135767  73.5003233
 120.1647159 160.1294740  72.1101408 125.7248102 154.0403524  78.9926651
 126.4573274 153.4702740  79.2264480 124.9687458 153.6525124  79.4333156
 114.9992681 157.0020618  72.4843304 114.8828939 156.3265521  73.1524388
 115.1094941 156.5152992  71.6675457 117.3424222 156.4630765  76.1889993
 116.9782429 155.9361386  76.9002914 118.1991338 156.0729234  76.0156478
 123.2473522 147.7525098  83.4521259 122.9156847 148.6220509  83.2282474
 122.6519136 147.4361382  84.1315290 116.9829709 151.4920665  71.1851341
 117.1504111 152.3600901  71.5521813 116.7926878 151.6547947  70.2612631
 119.7405042 159.9537644  82.8517172 119.4405765 160.8562683  82.7432979
 119.3956101 159.6869827  83.7038325 113.1917523 156.4051441  78.8853876
 112.2668020 156.2727655  79.0931568 113.4401937 157.1845660  79.3823819
 123.1402186 152.4720184  80.5314609 122.2319063 152.4035592  80.2373370
 123.0889781 152.9492129  81.3596435 116.9618930 153.9478322  72.1698008
 116.8418555 154.3935373  73.0083489 116.2671518 154.2963640  71.6111546
 110.5526334 156.0484714  79.7197665 110.6818716 156.3019193  80.6337077
 109.8723786 156.6412422  79.4002320 117.2143051 153.8909829  88.4749506
 116.4376386 154.4503750  88.4652371 117.8533615 154.3766612  88.9964377
 125.0063832 150.6736622  82.3092483 124.3638212 150.9669155  81.6632278
 124.5018761 150.5589543  83.1145680 122.6603996 154.4199795  72.9978342
 123.5721852 154.6527182  72.8226040 122.1513643 155.0036840  72.4353421
 115.4689424 156.6995283  88.0367473 116.2104108 157.2380327  87.7602297
 114.7626409 157.3261572  88.1939025 120.9444763 158.8424423  86.6339635
 121.3528119 158.4006834  85.8894267 120.2222025 158.2677051  86.8873828
 117.2975833 153.7797030  84.0073192 118.1437029 154.2036444  84.1507841
 117.2374471 153.1230654  84.7011755 121.2673578 159.4025614  80.3891924
 120.6382441 159.5671328  79.6867992 120.8799240 159.8167223  81.1602888
 120.4475279 151.4401398  85.6654366 120.2036211 152.1943459  85.1288641
 120.7235209 151.8186746  86.5001613 122.4013742 157.9840011  84.3431631
 122.6130637 158.6271771  83.6666012 122.3543490 157.1502327  83.8753561
 120.0039971 150.5957831  81.2468203 119.1424450 150.8939085  81.5384941
 120.0302405 150.8128230  80.3149236 116.8201540 159.1400022  77.6542009
 117.2839885 159.4187725  76.8646631 116.5558338 158.2383467  77.4715100
 113.7125621 158.6871504  80.5921772 114.2826978 159.1158772  79.9539257
 114.3033733 158.4054088  81.2905958 115.7570426 155.2623174  74.4631574
 116.4594469 155.7144218  74.9305500 115.4251054 154.6206993  75.0911467
 114.2050788 153.8534931  88.8382783 113.5749448 154.5351212  89.0718180
 114.0986875 153.7418013  87.8935922 109.4995760 153.5206727  79.7648708
 108.7094814 153.7764256  79.2888818 109.9907007 154.3355065  79.8700748
 123.5159570 160.8611966  82.5153988 124.3377013 160.4592154  82.2336670
 123.5121972 160.7580200  83.4670104 111.4510505 153.8851306  76.7232184
 110.6541669 153.9970001  77.2415680 111.2236098 154.2237959  75.8573075
 117.2816173 160.4096010  84.6714699 117.3460605 160.8716417  85.5072871
 116.5727097 159.7793374  84.7997009 107.7833463 153.7737217  82.1963698
 108.0341501 154.6584227  82.4621274 108.3193011 153.5941819  81.4238790
 116.9964191 162.0764117  74.5393679 116.8609865 162.9215653  74.9678527
 117.5374003 162.2783395  73.7759613 113.4831530 148.1555697  91.2008034
 113.0898476 147.6021895  91.8755679 114.2997671 148.4666275  91.5914552
 110.4493588 159.5939555  75.1121604 110.9618109 160.3882805  75.2627169
 111.1016301 158.8965845  75.0455206 112.2588473 162.7105311  77.1944358
 112.4355101 163.6323276  77.0065341 113.0545306 162.3963731  77.6238737
 116.3999491 149.5713576  88.7928291 117.1409205 150.1720729  88.7132754
 116.6317414 148.8291214  88.2346334 111.5440829 154.7569943  87.0706521
 111.4294344 153.8555200  87.3713620 110.6885347 155.0033640  86.7191337
 118.6232667 162.6987684  88.6694021 118.1796521 161.9124062  88.3514926
 119.2849881 162.8866834  88.0037912 113.3819788 164.2283485  83.1954700
 113.9327213 164.1000548  82.4231694 112.5431264 164.5278374  82.8449593
 117.1786959 160.4934613  87.5398931 117.7115296 159.7322901  87.3098239
 116.6501040 160.2008265  88.2823085 120.3456654 145.5994679  83.0692573
 120.0020924 146.4896321  82.9931683 120.7135617 145.4096337  82.2062158
 108.4142505 157.9228209  75.8881175 109.2517727 158.3325218  75.6714883
 108.5920772 156.9827652  75.8581369 120.3106937 155.5903290  71.5765008
 119.7953560 156.3607895  71.8153395 120.0384245 154.9168426  72.1998069
 117.8954048 150.4352991  76.6350246 117.0395644 150.0459841  76.4555885
 118.3081000 150.5144952  75.7750032 119.4253195 147.9699334  81.0341806
 118.9217990 147.9329469  80.2209611 119.7183801 148.8792077  81.0938463
 115.6696080 148.0538064  80.0407988 116.5349077 147.8580872  79.6813877
 115.7373589 147.8248416  80.9677344 125.2841211 158.3435645  73.5118181
 124.5070654 158.0046804  73.0673343 125.9632692 158.3488268  72.8373146
 120.0993240 153.4630382  73.4024789 119.7943376 153.7776531  74.2534932
 121.0523682 153.5411802  73.4452122 118.5439672 159.6220605  75.0517743
 118.0161033 158.8873365  74.7390980 118.0427175 160.3995282  74.8057711
 123.5232518 157.8169626  80.1684789 122.8656192 158.5068887  80.2564918
 124.3272917 158.2066058  80.5118776 113.2758400 150.2840272  77.4124355
 113.8502151 150.0615453  76.6797547 113.8629382 150.3528966  78.1652956
 122.3337977 156.1713999  78.2188731 122.8469858 156.8043990  78.7210441
 122.9839201 155.5715194  77.8532091 113.6027987 152.3144733  71.4320240
 112.7665299 152.6519419  71.7529515 113.4632756 152.1793713  70.4947377
 115.5781067 147.1581521  76.1399424 114.9245480 146.8430538  75.5156039
 115.5361541 146.5357261  76.8659247 116.6892272 157.4400816  68.0552716
 115.7819334 157.2090069  68.2543865 117.1863304 156.6438435  68.2426698
 118.8118808 153.6463454  80.4647072 117.8941369 153.8678401  80.3068760
 119.2278951 153.7209765  79.6058779 119.5953855 155.0454870  75.5949752
 120.3425674 155.5576267  75.2856874 119.8645445 154.7238923  76.4554145
 117.8680506 157.5413411  72.5776706 116.9591725 157.2572443  72.6749176
 117.8975589 157.9612489  71.7180013 123.0999773 161.1520000  76.3467874
 122.6462100 160.3110910  76.4033064 122.4693740 161.7881398  76.6842654
 122.0432693 152.0811986  77.5768541 121.3055449 151.5689372  77.9078784
 122.2959466 151.6412368  76.7651818 122.1444320 144.8588238  78.1710310
 122.4503197 143.9985602  77.8836225 122.8696925 145.4505858  77.9709304
 108.4368676 155.2618925  76.5591908 108.2393076 154.6688285  75.8342975
 107.8815340 154.9571135  77.2767847 116.4165400 155.1542031  78.6786501
 116.4714009 154.2015868  78.6028978 115.6056602 155.3101470  79.1627800
 117.5656593 159.0822154  69.9164785 117.1276023 158.3658013  69.4570422
 118.3067034 159.3098269  69.3549876 114.3557759 153.7719091  76.4376880
 113.5425625 154.0713261  76.8442072 114.8516754 153.3774780  77.1551363
 116.5066337 163.7676848  78.3711145 116.4642516 163.9937694  77.4419677
 117.4229036 163.5340222  78.5196946 119.9531971 154.2360915  85.2691774
 120.3081359 154.4632388  86.1286240 120.6004102 154.5679292  84.6469030
 125.6829708 157.3579351  75.9741103 125.5447607 157.5480947  75.0462292
 125.3265927 158.1198734  76.4309154 113.8471834 151.3437446  82.0538115
 114.4871214 151.2026206  81.3561079 113.0149365 151.0571960  81.6776717
 114.6232138 160.6439877  78.1673108 115.4172737 160.1490197  77.9655683
 113.9123831 160.1157740  77.8040813 119.4426983 163.0257972  82.5185475
 119.4964005 163.5948909  83.2863191 118.5741764 163.1959857  82.1539513
 110.9314902 154.7882959  74.2432860 110.0012490 154.7267414  74.4602823
 111.0272374 154.2658911  73.4469502 110.8500451 151.3137771  76.8311102
 111.1107268 152.2283105  76.7220263 111.6717623 150.8462214  76.9807715
 112.3225376 152.7275529  84.0009927 112.9948429 152.5192891  83.3522576
 111.4955163 152.5297615  83.5615159 118.2250948 149.3537469  86.0175588
 117.5778863 150.0527419  85.9240064 118.9951963 149.7873613  86.3851836
 121.6329746 159.6186322  89.0926141 121.4815252 159.3896873  88.1756224
 121.6234425 160.5756923  89.1057486 118.4015082 157.1918234  84.0772407
 119.3307142 157.3429394  83.9041375 117.9806112 157.2802255  83.2221054
 117.2003414 161.2168899  81.8470945 117.0614500 160.8487683  82.7196883
 116.4118010 161.7316538  81.6754903 118.7508629 160.5950502  79.2359783
 118.4158462 160.5551271  80.1317433 118.2512575 159.9295217  78.7630193
 112.7252873 156.0018132  84.7612364 112.5872671 155.2698370  85.3623903
 113.6357797 155.9127032  84.4796552 121.6867821 157.9406536  69.5096842
 121.0696992 157.2153364  69.4129895 121.2184309 158.7015896  69.1663917
 115.3535174 155.7138091  84.2496043 116.0634792 155.0731283  84.2082662
 115.3104482 155.9650986  85.1722224 114.0664108 152.7003309  86.0691683
 113.5301465 152.2494047  86.7213279 113.4780816 152.8349218  85.3262147
 113.4766367 152.1591960  68.6318147 112.5995833 152.0380761  68.2680393
 113.9524120 151.3678038  68.3797035 123.3439360 160.6145028  85.4016602
 122.4566139 160.2770950  85.5243001 123.9137911 159.8828059  85.6385368
 104.9968507 156.9469120  78.7259654 105.6839547 156.6330850  78.1380669
 104.8416636 157.8510485  78.4526905 109.8003229 151.8359316  83.1544677
 109.7161418 151.2284986  82.4195087 108.9785936 152.3268335  83.1554174
 116.6630293 164.5118251  75.8780667 115.8797815 165.0539931  75.9718892
 117.3623038 165.0292230  76.2774908 119.9726943 150.3212880  78.5214872
 120.4695643 149.5682842  78.2015943 119.2013925 150.3577197  77.9558082
 127.8256700 156.0253246  80.1633164 127.8146577 156.9077961  79.7927097
 126.9574080 155.6724796  79.9687701 121.0556724 159.0784567  76.0953296
 120.1213002 159.1986030  75.9258000 121.2333392 158.1757034  75.8313306
 116.5561912 152.4630263  78.2486557 116.1859699 151.9101303  78.9367463
 117.0521004 151.8588396  77.6961557 124.4429275 154.9201886  76.6303330
 124.9089727 155.7529878  76.5563633 124.8936776 154.4546868  77.3348588
 114.3851110 162.9227758  85.3441575 115.0860570 163.5564241  85.4970969
 113.9146225 163.2642490  84.5837214 122.5105506 161.2645708  73.6289482
 122.7865350 161.1502302  74.5383356 121.6410005 160.8663193  73.5901655
 122.4145938 147.2882473  80.6694231 121.5009018 147.5186700  80.8376438
 122.8439039 147.3720918  81.5208264 122.1852396 155.4772365  83.1694125
 121.5323847 155.7248273  82.5146578 122.5632776 154.6636504  82.8356603
 118.2339969 156.2192176  89.6560162 117.5580606 156.1186306  90.3262538
 119.0567603 156.0631390  90.1196160 109.9818828 162.4564113  82.2772678
 110.5672265 161.7107801  82.4100582 109.7843667 162.7668070  83.1609342
 112.8357484 165.4915360  77.2935120 112.1667859 165.9761488  76.8099160
 112.6970353 165.7384581  78.2078499 104.5736483 155.0269713  80.9977121
 104.6120583 154.4933304  81.7914239 104.0676776 154.5004919  80.3788098
 111.9527245 149.8734254  84.4939663 112.0168572 150.7349085  84.0817061
 111.8894366 149.2608255  83.7612022 111.4279518 151.9457386  88.1412697
 112.0551557 151.5634464  88.7550222 110.5707437 151.7271588  88.5068390
 108.2045061 153.7533815  74.0731052 108.4998502 152.8444494  74.0198106
 107.3033096 153.7321555  73.7512055 111.7339308 151.8289812  80.0558601
 111.0125893 152.4425780  79.9166074 112.5232563 152.3647577  79.9775247
 114.5365621 149.1644238  86.3299253 115.0600023 149.4106535  87.0925562
 114.3177954 149.9964273  85.9102390 109.9332902 151.4347913  74.1970377
 109.6045608 150.5545292  74.0145483 110.2872273 151.3795582  75.0846767
 119.1812481 163.0702816  78.7065363 119.0337444 162.1419523  78.8872933
 120.0065975 163.0922906  78.2222438 113.0474725 151.7220883  74.5645855
 113.3870798 152.2506804  73.8424463 113.4946846 152.0601289  75.3404422
 115.7418166 150.1057934  84.0148923 115.4014987 149.3065747  84.4169603
 115.0357173 150.4059644  83.4425756 116.3934638 147.1907246  82.4676246
 117.2160707 146.7167724  82.3455136 116.6372702 147.9697730  82.9674932
 115.0342873 150.2195504  72.7639148 115.7551235 150.5976757  72.2602865
 114.4108177 150.9384381  72.8674126 119.1773995 150.9240653  73.6997480
 119.3937610 151.8065291  73.3986308 118.6968063 150.5326867  72.9703122
 113.9173217 153.8826367  80.2768225 113.7717798 154.1966670  81.1692506
 113.4398420 154.5011267  79.7239123 115.7769600 150.8728915  80.3249114
 115.7631168 149.9770008  79.9881412 116.4942028 150.8799578  80.9587400
 117.6295730 151.3066255  82.3702242 117.3713508 152.2283325  82.3686572
 117.0980771 150.9096689  83.0602706 108.3918879 156.4231711  83.2155886
 107.8472347 157.1991519  83.3476160 109.2698229 156.7702516  83.0575007
 115.1806496 149.7543295  75.5936684 115.3022407 148.8259941  75.7927572
 114.8908538 149.7681981  74.6815000 118.0497686 147.4398205  78.7303404
 118.0719383 147.5037538  77.7755384 118.4665745 146.6002714  78.9243910
 128.4281310 157.1753465  76.7682627 128.8712456 156.4260790  76.3701750
 127.5507821 157.1663601  76.3856359 109.1784901 155.5501607  86.1086043
 108.4366637 155.6984243  86.6950673 108.8577645 155.8109873  85.2452792
 109.6241515 163.4367036  78.1396437 110.4499534 163.1370808  77.7595081
 109.2735567 162.6674658  78.5886226 114.5923048 162.7893504  80.2094111
 113.9703057 162.1264209  79.9096339 115.2627915 162.8154636  79.5267759
 107.8250120 161.3553362  79.0985371 106.9882028 160.9275537  78.9169372
 107.7973765 161.5485806  80.0356162 114.6647575 151.2675292  89.8026617
 114.7135731 152.1437415  89.4204387 115.2070089 150.7252685  89.2298260
 125.2700296 158.6608882  86.3960483 125.3198301 158.4958889  87.3376005
 125.1614219 157.7936141  86.0058363 114.1536555 161.3397428  73.6852572
 114.3024675 162.0232892  73.0319244 114.9602998 161.3202518  74.2002027
 122.5604058 154.6439810  87.7119789 123.4613921 154.5046275  87.4203787
 122.6352033 154.8094265  88.6517967 116.8946864 152.0206665  86.5572976
 116.0250173 152.3140231  86.2855564 117.1306344 152.6047110  87.2780239
 125.0205681 156.2038438  85.1082562 125.4959803 156.3966084  84.3001414
 124.0971246 156.2597624  84.8625946 111.9089188 157.3662605  74.6913640
 111.6635230 156.4624935  74.8893851 112.0785102 157.3679756  73.7493118
 119.5985897 148.2386282  84.0738396 120.1167841 148.9747309  83.7484885
 119.2441030 148.5450275  84.9085155 111.1784835 153.0990963  72.1899802
 110.4854080 153.1735318  71.5339838 110.9336587 152.3351306  72.7121319
 119.8498492 144.6586564  79.5939293 120.1300245 143.9909753  80.2199719
 120.6349099 144.8515660  79.0813957 117.6531960 163.8345558  71.1564319
 117.0805927 164.4535745  70.7034791 118.2264754 164.3844920  71.6904241
 123.7207350 153.0804198  83.3410868 124.6724773 153.1802296  83.3623092
 123.5510800 152.2882467  83.8508952 121.7421729 150.1659781  83.5270269
 121.1471662 150.4464794  82.8316757 121.4571426 150.6553682  84.2987010
 126.1995428 156.3010318  82.4553167 126.1671748 155.3626319  82.6412851
 126.8096051 156.3794355  81.7218992 118.0378759 155.1706371  68.4980371
 118.9837863 155.0412579  68.5668790 117.6593004 154.4321033  68.9749800
 126.3489916 153.0921361  82.5011451 125.8328965 152.3079818  82.3141379
 127.2329865 152.7640078  82.6657970 124.0100643 146.8362377  78.4607263
 123.8125464 146.5277465  79.3450595 124.6200349 147.5624016  78.5905193
 130.0987275 155.5034187  82.1933655 129.3720438 155.3690152  81.5850147
 129.6834562 155.8111016  82.9990373 117.9217451 159.2224117  89.9581028
 118.8420461 159.4002716  90.1521075 117.8867034 158.2780162  89.8060728
 116.2221676 153.0956347  68.4335257 115.3153131 152.7989460  68.5097970
 116.4997657 152.7986165  67.5669543 107.1399616 154.4162711  78.8834303
 106.8202401 153.5628019  78.5908677 106.5933044 154.6311289  79.6392270
 110.9179524 157.1325152  82.6003810 111.1365534 158.0642259  82.6191843
 111.3305298 156.7733126  83.3858613 117.8383742 147.6393237  74.5879498
 117.0284470 147.2940322  74.9634744 118.5268158 147.3300781  75.1767110
 119.7674290 146.7171284  76.2103795 120.3205328 147.1366737  76.8693818
 120.0044376 145.7907032  76.2526751 115.7907389 152.7058357  91.9906559
 115.6904116 153.6552714  91.9218650 115.5728931 152.3776596  91.1182629
 114.9920460 149.9543282  68.5747236 115.8539624 150.2798181  68.8343053
 115.1770805 149.1674778  68.0620302 107.0087876 158.0365622  80.8527425
 106.3151348 157.6219575  80.3397379 107.7560867 158.0786159  80.2560844
 123.1453097 148.8271809  75.7182459 122.5651766 149.4856613  75.3360511
 122.8789030 148.0049153  75.3069876 121.5956663 148.2276867  77.9203779
 122.0956442 148.3393401  77.1118098 122.2392271 147.9237919  78.5604588
 115.6538659 156.1355496  90.8071620 115.1705741 156.9355856  91.0135509
 115.7399598 156.1463441  89.8539064 108.9224619 157.9683876  78.7293440
 108.8995307 158.0671563  77.7775323 109.2325255 158.8149027  79.0510606
 111.5811997 160.0260031  82.8440054 112.5355250 159.9943973  82.7769986
 111.3824520 159.5650655  83.6590280 112.1711379 158.5961147  85.4110852
 112.9904268 159.0905226  85.4345689 112.4448186 157.6793115  85.3828419
 121.9277975 150.9871899  74.7738807 121.0403830 151.2721550  74.5559002
 122.3431964 150.8265663  73.9266084 125.2792511 151.0118420  78.4893146
 126.0552901 151.5014873  78.7617763 124.5540645 151.4376474  78.9465016
 127.7165070 151.7246039  79.5467087 128.3109560 151.4841775  78.8360395
 127.7891653 151.0053170  80.1740623 109.9362225 165.5679650  79.8610252
 109.8016693 164.8080051  79.2948250 109.5194288 166.2920550  79.3939041
 121.0721188 160.7516574  68.8686827 121.7757039 160.9566576  69.4844483
 120.3483837 161.3193336  69.1335911 121.9018999 156.5026435  74.9889097
 121.8454200 156.9594987  74.1496730 122.4547341 155.7417120  74.8111940
 125.7123805 152.2916167  75.8139217 125.4560739 151.8912803  76.6447425
 125.0876673 153.0059961  75.6889356 130.0236142 155.0312240  78.3210508
 129.4635700 155.1005430  79.0942070 129.4179646 154.8553225  77.6010004
 113.0931351 166.4648967  80.0728695 112.9763735 167.4094400  79.9707385
 112.2723798 166.1622529  80.4614494 122.9807886 161.1899103  70.9185287
 123.8153490 160.7580302  70.7362762 122.8192229 161.0181117  71.8462182
 122.6353778 157.6931216  72.2841627 122.5802582 157.5275488  71.3430071
 122.0099833 158.4007249  72.4403816 107.4246293 152.9299281  86.1103049
 108.0705157 152.4198235  86.5990274 107.2163444 153.6667962  86.6846474
 119.9499685 159.9980128  91.6095189 120.8190845 160.1720781  91.2481824
 119.4706437 160.8174545  91.4870919 115.9449903 147.1939325  71.8626945
 115.9328573 148.1381165  72.0195216 116.8373325 147.0109471  71.5686406
 114.1185865 167.1177229  83.2884623 115.0213112 167.1500840  83.6051118
 113.8923235 166.1877680  83.3030959 115.8739467 165.8708216  79.9494702
 114.9235098 165.8710077  79.8359074 116.1771954 165.1240950  79.4330736
 119.7602023 143.7882102  76.1172882 118.9934419 143.2340589  76.2629564
 120.1712728 143.8603971  76.9787033 111.7643784 150.0766898  90.2078063
 112.6275246 149.7203703  90.4181388 111.1909195 149.7380793  90.8953467
  34.0548372  10.7503618  67.7385771  34.6926782  10.6310365  67.0349111
  33.9369215  11.6984462  67.7973723  30.8638078  10.7031046  67.6747295
  30.5256590  10.5872111  66.7867830  31.7327846  10.3022211  67.6548301
  26.7224894  12.5566522  63.6644186  26.1589759  12.4656459  62.8960474
  26.6077289  11.7366427  64.1446679  31.3457861  11.8565898  73.6333501
  31.3346502  11.4618696  72.7614004  31.5078500  11.1231970  74.2267272
  24.2689326  14.0517714  66.5028407  25.0610618  13.7108539  66.0874706
  24.5085976  14.1612689  67.4230560  32.3024452  16.2237490  58.9758651
  31.6512432  16.8091570  58.5892665  33.0968815  16.7543685  59.0353689
  26.2280080  13.3126627  59.3745785  27.0010956  12.7655614  59.2358661
  26.5805478  14.1770876  59.5860247  28.0665122  14.6403009  72.5812685
  27.7754988  15.5448640  72.4659351  28.7022107  14.6819537  73.2956754
  28.9921329  12.0179858  69.1714044  29.5884901  11.7935880  68.4571007
  29.0496301  11.2764603  69.7739492  28.5646357   9.4719293  57.0064235
  28.8171878   8.9500815  56.2447698  27.6270916   9.3085439  57.1090919
  33.6089640   8.4755072  64.8138979  34.3952729   8.0574495  64.4629396
  33.8728345   9.3801164  64.9820627  33.7799718  13.9127922  59.5127635
  33.1445551  13.9862548  60.2248540  33.4497124  14.5021521  58.8346715
  39.0098067   8.4130305  65.7171957  39.7423239   7.8429522  65.9509787
  38.2537423   8.0251905  66.1578463  28.2842646  11.3747399  59.2088610
  28.1678904  10.6992303  59.8769695  28.3944906  10.8879773  58.3920763
  30.6274187  10.8357546  62.9135300  30.2632394  10.3088167  63.6248221
  31.4841303  10.4456015  62.7401785  36.5323488   2.1251879  70.1766566
  36.2006812   2.9947290  69.9527781  35.9369101   1.8088163  70.8560596
  30.2679674   5.8647446  57.9096648  30.4354076   6.7327682  58.2767119
  30.0776843   6.0274728  56.9857937  33.0255007  14.3264425  69.5762478
  32.7255730  15.2289464  69.4678286  32.6806067  14.0596608  70.4283631
  26.4767489  10.7778222  65.6099183  25.5517985  10.6454436  65.8176875
  26.7251902  11.5572441  66.1069125  36.4252151   6.8446965  67.2559916
  35.5169028   6.7762374  66.9618677  36.3739747   7.3218910  68.0841741
  30.2468895   8.3205103  58.8943315  30.1268520   8.7662154  59.7328795
  29.5521483   8.6690421  58.3356853  23.8376300  10.4211495  66.4442972
  23.9668681  10.6745974  67.3582384  23.1573751  11.0139203  66.1247627
  28.0075787  21.0908745  62.5433446  27.9299817  22.0416570  62.6221927
  27.4037431  20.7454618  63.2008372  30.4993017   8.2636611  75.1994813
  29.7226351   8.8230531  75.1897678  31.1383580   8.7493394  75.7209683
  38.2913797   5.0463403  69.0337790  37.6488178   5.3395937  68.3877584
  37.7868726   4.9316324  69.8390986  35.9453961   8.7926577  59.7223649
  36.8571817   9.0253963  59.5471347  35.4363608   9.3763621  59.1598728
  28.7539389  11.0722064  74.7612780  29.4954073  11.6107108  74.4847604
  28.0476375  11.6988353  74.9184332  34.2294729  13.2151204  73.3584942
  34.6378085  12.7733615  72.6139574  33.5071990  12.6403832  73.6119134
  30.5825799   8.1523811  70.7318499  31.4286994   8.5763225  70.8753148
  30.5224436   7.4957436  71.4257062  34.5523543  13.7752395  67.1137230
  33.9232406  13.9398109  66.4113298  34.1649205  14.1894005  67.8848194
  38.4312775  14.7106833  64.4681594  37.7463813  15.0905734  63.9178628
  38.5156625  15.3202160  65.2013542  33.7325244   5.8128180  72.3899672
  33.4886176   6.5670240  71.8533948  34.0085175   6.1913527  73.2246919
  35.6863707  12.3566792  71.0676938  35.8980602  12.9998552  70.3911319
  35.6393455  11.5229109  70.5998868  33.2889936   4.9684613  67.9713510
  32.4274415   5.2665866  68.2630247  33.3152371   5.1855012  67.0394543
  30.1051505  13.5126803  64.3787316  30.5689851  13.7914506  63.5891938
  29.8408303  12.6110248  64.1960406  26.9975586  13.0598285  67.3167079
  27.5676943  13.4885553  66.6784563  27.5883698  12.7780869  68.0151264
  29.0420391   9.6349956  61.1876881  29.7444435  10.0870999  61.6550807
  28.7101020   8.9933774  61.8156774  27.4900753   8.2261712  75.5628090
  26.8599413   8.9077993  75.7963487  27.3836841   8.1144794  74.6181228
  36.8009535  15.2338747  69.2399295  37.6226979  14.8318935  68.9581977
  36.7971938  15.1306982  70.1915411  24.7360471   8.2578087  63.4477491
  23.9391634   8.3696782  63.9660987  24.5086063   8.5964740  62.5818381
  30.5666138  14.7822791  71.3960006  30.6310571  15.2443198  72.2318177
  29.8577062  14.1520156  71.5242315  44.8915528  11.5777496  65.5884267
  44.1379236  11.0084894  65.4328271  45.0263069  11.5440160  66.5354901
  30.2814156  16.4490898  61.2638986  30.1459831  17.2942434  61.6923834
  30.8223968  16.6510176  60.5004920  23.7343553  13.9666336  61.8366911
  24.2468074  14.7609586  61.9872476  24.3866266  13.2692627  61.7700512
  25.5438438  17.0832093  63.9189664  25.7205066  18.0050057  63.7310648
  26.3395272  16.7690512  64.3484044  29.6849457   3.9440357  75.5173598
  30.4259170   4.5447510  75.4378060  29.9167379   3.2017995  74.9591640
  24.8290795   9.1296724  73.7951827  24.7144310   8.2281982  74.0958926
  23.9735312   9.3760421  73.4436644  31.9082632  17.0714465  75.3939328
  31.4646487  16.2850843  75.0760232  32.5699846  17.2593615  74.7283219
  26.6669754  18.6010266  69.9200006  27.2177179  18.4727330  69.1477000
  25.8281229  18.9005155  69.5694899  34.0063870  17.3517265  73.4220729
  33.9882346  18.1726146  72.9300998  34.9283790  17.2271340  73.6470870
  30.4636925  14.8661394  74.2644238  30.9965261  14.1049682  74.0343546
  29.9351006  14.5735046  75.0068392  21.6992470  12.2954991  62.6126482
  22.5367692  12.7051999  62.3960189  21.8770738  11.3554433  62.5826675
  33.5956902   9.9630071  58.3010314  33.0803526  10.7334676  58.5398702
  33.3234211   9.2895207  58.9243376  31.1804013   4.8079772  63.3595553
  30.3245610   4.4186622  63.1801192  31.5930965   4.8871733  62.4995338
  32.7103160   2.3426115  67.7587113  32.2067955   2.3056250  66.9454918
  33.0033767   3.2518858  67.8183769  38.5691176  12.7162426  60.2363488
  37.7920619  12.3773585  59.7918650  39.2482657  12.7215049  59.5618453
  33.3843205   7.8357163  60.1270096  33.0793341   8.1503312  60.9780239
  34.3373648   7.9138583  60.1697429  31.8289637  13.9947387  61.7763050
  31.3010999  13.2600146  61.4636287  31.3277140  14.7722063  61.5303018
  36.8082483  12.1896407  66.8930096  36.1506158  12.8795668  66.9810225
  37.6122882  12.5792839  67.2364082  35.6187942  10.5440780  64.9434038
  36.1319824  11.1770772  65.4455747  36.2689166   9.9441975  64.5777398
  26.8877952   6.6871514  58.1565546  26.0515264   7.0246200  58.4774821
  26.7482722   6.5520494  57.2192683  29.9742237  11.8127597  54.7798023
  29.0669299  11.5816850  54.9789172  30.4713269  11.0165216  54.9672004
  32.8810316  20.5225104  57.6994709  32.2072015  20.8256801  58.3079667
  33.2676138  21.3254184  57.3500166  32.0968773   8.0190235  67.1892378
  31.1791334   8.2405182  67.0314066  32.5128917   8.0936546  66.3304086
  32.8803821   9.4181651  62.3195058  33.6275640   9.9303048  62.0102181
  33.1495410   9.0965704  63.1799452  31.1530471  11.9140192  59.3022013
  30.2441690  11.6299225  59.3994483  31.1825555  12.3339270  58.4425320
  36.3849738  15.5246781  63.0713180  35.9312065  14.6837691  63.1278371
  35.7543705  16.1608180  63.4087960  35.3282658   6.4538767  64.3013848
  34.5905415   5.9416153  64.6324090  35.5809431   6.0139149  63.4897125
  34.8282678  17.3623278  64.0062998  35.1205652  17.9228335  63.2875364
  35.3381298  17.6551839  64.7616158  21.7218641   9.6345706  63.2837215
  21.5243041   9.0415067  62.5588282  21.1665305   9.3297916  64.0013154
  29.7015365   9.5268812  65.4031808  29.7563975   8.5742649  65.3274285
  28.8906567   9.6828251  65.8873107  30.8506559  13.4548935  56.6410091
  30.4125989  12.7384794  56.1815729  31.5917000  13.6825050  56.0795183
  27.6407725   8.1445872  63.1622187  26.8275590   8.4440043  63.5687379
  28.1366719   7.7501561  63.8796669  29.7916303  18.1403629  65.0956452
  29.7492482  18.3664475  64.1664984  30.7079002  17.9067004  65.2442253
  33.2381937   8.6087697  71.9937081  33.5931324   8.8359170  72.8531547
  33.8854068   8.9406073  71.3714336  38.9679673  11.7306132  62.6986410
  38.8297572  11.9207728  61.7707599  38.6115892  12.4925515  63.1554461
  38.9949053  13.7982659  67.7097681  39.4285560  13.7057949  68.5580735
  39.7080634  13.7740160  67.0717697  27.9082103  15.0166658  64.8918414
  28.7022702  14.5216978  64.6900989  27.1973796  14.4884521  64.5286120
  32.7276948  17.3984754  69.2430782  32.7813970  17.9675690  70.0108498
  31.8591729  17.5686639  68.8784819  24.2164867   9.1609740  60.9678167
  23.2862455   9.0994195  61.1848129  24.3122339   8.6385693  60.1714808
  25.6075341   7.1002310  70.7255233  26.2798395   6.8919672  70.0767882
  24.7805128   6.9024396  70.2860466  39.8564603  13.8406360  70.2430567
  40.0500493  14.7452171  70.4889842  39.7565221  13.3813779  71.0769152
  31.5100913   3.7264251  72.7420894  30.8628828   4.4254200  72.6485371
  32.2801929   4.1600395  73.1097142  34.9179711  13.9913103  75.8171447
  34.7665218  13.7623655  74.9001531  34.9084391  14.9483704  75.8302792
  31.6865048  11.5645016  70.8017714  32.6157108  11.7156175  70.6286681
  31.2656078  11.6529036  69.9466360  30.4853379  15.5895680  68.5716251
  30.3464465  15.2214464  69.4442190  29.6967976  16.1043319  68.4000209
  31.0801531  20.6904776  59.9141788  31.2553287  20.2192820  60.7287411
  30.3934319  21.3170543  60.1423049  32.0358595  14.9677283  65.9605089
  31.7008427  14.9278053  66.8562739  31.5362540  14.3021999  65.4875500
  26.0102839  10.3744913  71.4857670  25.8722637   9.6425152  72.0869209
  26.9207762  10.2853813  71.2041858  34.9717786  12.3133317  56.2342149
  34.3546957  11.5880145  56.1375202  34.5034275  13.0742677  55.8909223
  28.6385139  10.0864872  70.9741350  29.3484758   9.4458064  70.9327969
  28.5954447  10.3377767  71.8967531  36.6271918  17.0232225  73.8947929
  36.5684464  16.3391446  73.2278512  37.0291436  17.7651215  73.4428555
  27.3514073   7.0730090  72.7936990  26.8151430   6.6220828  73.4458586
  26.7630782   7.2075999  72.0507454  25.6462617  23.8394139  66.6881648
  25.8859215  24.4712663  67.3660667  24.8031813  23.4882179  66.9747007
  26.7616332   6.5318741  55.3563453  25.8845799   6.4107542  54.9925700
  27.2374085   5.7404820  55.1042342  36.6289325  14.9871809  72.1261909
  35.7416104  14.6497731  72.2488308  37.1987876  14.2554841  72.3630674
  18.2818472  11.3195901  65.4504960  18.9689512  11.0057631  64.8625976
  18.1266601  12.2237266  65.1772212  30.1590479  19.6473262  69.0923152
  30.0860650  20.4528233  69.6042457  29.7167872  19.8465228  68.2671174
  29.9480258  18.8845032  62.6025974  29.1647780  19.4266712  62.6964198
  30.6473003  19.4019011  63.0020215  33.2576908   4.6939661  65.2460179
  33.7545608   3.9409623  64.9261249  32.4863890   4.7303978  64.6803388
  41.1106666  10.3980027  66.8878471  41.0996542  11.2804742  66.5172404
  40.2424045  10.0451578  66.6933008  32.6189162  19.5460096  71.2481311
  33.3317134  20.1807561  71.1757212  32.1279191  19.6423962  70.4321313
  34.3406689  13.4511348  62.8198602  33.4062968  13.5712811  62.6503307
  34.5183358  12.5483815  62.5558612  29.8411877   6.8357044  64.9731864
  29.4709665   6.2828085  65.6612769  30.3370970   6.2315178  64.4206864
  37.7279240   9.2928668  63.3548637  38.1939693  10.1256659  63.2808939
  38.1786741   8.8273649  64.0593895  27.6701076  17.2954539  72.0686882
  28.3710535  17.9291022  72.2216276  27.1996191  17.6369271  71.3082521
  35.7955471  15.6372489  60.3534789  36.0715315  15.5229084  61.2628663
  34.9259970  15.2389974  60.3146962  35.6995903   1.6609255  67.3939538
  34.7858983   1.8913482  67.5621745  36.1289005   1.7447699  68.2453570
  35.4702362   9.8499147  69.8939432  34.8173812  10.0975054  69.2391885
  35.8482742   9.0363285  69.5601909  32.4309536  19.8858840  63.9967602
  32.6131930  19.0680496  64.4595355  33.2542522  20.1026532  63.5592492
  32.7651701  18.8127025  61.2582651  33.2939467  18.3019480  60.6452813
  33.0279921  18.4969555  62.1228184  31.5189935  10.5918958  76.3805469
  30.8430572  10.4913087  77.0507844  32.3417569  10.4358171  76.8441466
  23.2668794  16.8290894  69.0017984  23.8522231  16.0834582  69.1345889
  23.0693632  17.1394851  69.8854648  26.1207449  19.8642142  64.0180427
  25.4517824  20.3488269  63.5344467  25.9820319  20.1111362  64.9323805
  30.2612718  21.8985885  70.6163085  30.8131026  22.0617507  71.3812170
  30.6018911  22.4890323  69.9443110  35.1123592  16.7247143  76.4711740
  35.6563496  17.3377101  75.9766694  34.5310437  17.2826721  76.9878753
  33.3981105  19.8467861  67.6026767  33.2732244  19.0457601  67.0937713
  34.0560196  20.3414054  67.1140737  35.4616013  17.6476881  69.2306317
  34.5146349  17.5282232  69.1584644  35.8098786  16.7599379  69.3132579
  32.4662446  17.4429597  65.4310670  32.3187409  16.5146304  65.6118240
  33.2915940  17.4649688  64.9467745  26.3324691   6.0947664  61.2891162
  26.6720763   6.6233585  60.5669770  26.7796811   6.4328070  62.0649728
  36.0696568  18.2658156  66.5175542  36.9943116  18.0601017  66.3799993
  35.9011872  18.0174557  67.4264884  28.3192838   4.5922286  59.4884454
  29.0401200   4.9703538  58.9848171  27.6958142   5.3111162  59.5919432
  32.4623961   5.2967435  60.4242787  32.6787575   6.1792072  60.1231615
  31.9818028   4.9053648  59.6948429  27.2023182   8.2553148  67.0013531
  27.0567763   8.5693451  67.8937813  26.7248386   8.8738048  66.4484430
  29.0619565   5.2455696  67.0494421  29.0481134   4.3496789  66.7126719
  29.7791993   5.2526360  67.6832707  30.9145696   5.6793036  69.0947548
  30.6563474   6.6010107  69.0931879  30.3830736   5.2823471  69.7848013
  35.8591885  18.7843823  61.8737634  36.0328762  18.2190246  61.1211486
  36.3520776  19.5844718  61.6917124  21.6768844  10.7958492  69.9401193
  21.1322312  11.5718300  70.0721467  22.5548194  11.1429297  69.7820314
  41.7131276  11.5480246  63.4927933  42.1562422  10.7987571  63.0947057
  40.8357786  11.5390382  63.1101665  36.8467057  18.1010588  58.9734532
  37.5417962  18.7217280  59.1921847  37.1890207  17.2505939  59.2486910
  22.4634866   9.9228388  72.8331349  21.7216602  10.0711024  73.4195980
  22.1427610  10.1836654  71.9698099  38.7458480  15.5510293  60.5021863
  39.2709804  15.8897566  59.7771183  38.6580833  14.6157308  60.3184997
  30.4078529  19.4644367  72.6311739  30.7165655  19.2193513  73.5034439
  31.2054011  19.6691005  72.1430610  30.4299141  21.6182276  64.8617116
  29.9904131  21.1258655  65.5549973  31.1807258  21.0755244  64.6209191
  22.9091480  17.8093817  64.8641744  23.7349500  17.5097589  64.4840388
  22.5585532  17.0401440  65.3131533  27.8773013  17.1620285  66.9339418
  27.2553022  16.4990990  66.6341646  28.5477880  17.1881417  66.2513065
  21.1100085  15.7280144  65.8230678  20.2731993  15.3002318  65.6414679
  21.0823730  15.9212587  66.7601469  27.9497541   5.6402073  76.5271924
  27.9985696   6.5164196  76.1449693  28.4920055   5.0979467  75.9543567
  38.4352386  16.1843197  75.8073061  37.6447930  16.1667336  75.2677560
  38.1985741  16.7231490  76.5622097  38.5550261  13.0335663  73.1205789
  38.6048266  12.8685671  74.0621312  38.4464185  12.1662922  72.7303670
  27.4386520  15.7124209  60.4097878  27.5874640  16.3959673  59.7564551
  28.2452963  15.6929299  60.9247334  35.8454024   9.0166591  74.4365096
  36.7463886   8.8773056  74.1449094  35.9201998   9.1821046  75.3763273
  30.1796829   6.3933446  73.2818282  29.3100138   6.6867012  73.0100871
  30.4156309   6.9773891  74.0025546  40.0568458  15.4532605  73.3647811
  39.7653266  15.8162585  74.2011272  39.4440589  14.7399613  73.1861143
  41.2564140  13.0185484  65.8850381  42.0911032  13.4575288  66.0487941
  41.3923269  12.5424138  65.0658627  38.3055646  10.5765219  71.8327869
  38.7809768  10.7692866  71.0246720  37.3821212  10.6324405  71.5871252
  25.1939153  11.7389386  61.4158947  24.9485195  10.8351716  61.6139157
  25.3635067  11.7406537  60.4738425  32.8835863   2.6113063  70.7983703
  33.4017807   3.3474090  70.4730191  32.5290996   2.9177056  71.6330462
  30.9381925  18.2072339  57.8809626  30.3655893  18.8262526  57.4280097
  31.5114719  18.7571701  58.4149548  37.0057315   7.4530979  70.0656174
  37.9574738   7.5529077  70.0868398  36.8360766   6.6609248  70.5754259
  35.0271695   4.5386563  70.2515575  34.4321627   4.8191575  69.5562064
  34.7421392   5.0280463  71.0232316  34.1579185  18.4909489  59.0118208
  35.0909858  18.4255051  59.2151083  34.0702398  19.3265756  58.5532741
  36.7867202  17.8075360  55.9722155  36.7080833  17.4735223  56.8657913
  37.6076869  18.2997128  55.9713628  39.4845393  10.6737099  69.1798474
  39.4521713   9.7353100  69.3658158  40.0946017  10.7521136  68.4464299
  31.3228724   9.5433152  55.2225678  32.2687829   9.4139360  55.2914096
  30.9442969   8.8047814  55.6995106  39.6339882   7.4648142  69.2256757
  39.1178930   6.6806599  69.0386686  40.5179830   7.1366859  69.3903277
  37.2950609   1.2089158  65.1852570  37.0975430   0.9004246  66.0695902
  37.9050314   1.9350797  65.3150500  45.3021943  11.7353106  68.3204511
  46.0325331  11.4738394  68.8812214  44.6928888  10.9981828  68.3606579
  43.3837240   9.8760968  68.9178962  42.6570404   9.7416933  68.3095454
  42.9684527  10.1837797  69.7235680  31.2067417  13.5950898  76.6826335
  32.1270426  13.7729497  76.8766382  31.1717000  12.6506943  76.5306034
  29.5071641   7.4683128  55.1580563  28.6003097   7.1716241  55.2343277
  29.7847622   7.1712946  54.2914850  24.2029489  11.5051933  69.3249116
  24.4215499  12.4369041  69.3437150  24.6155263  11.1459907  70.1103920
  29.0757354   7.0785139  78.7151865  28.9754081   8.0279495  78.6463956
  28.8578896   6.7503377  77.8427935  20.2937842  12.4092403  67.5772731
  19.6001313  11.9946356  67.0642686  21.0410833  12.4512940  66.9806150
  36.4303062   3.1998590  62.4427766  35.8501731   3.8583394  62.0605818
  36.1638995   2.3775935  62.0315183  34.8806629   2.6003648  64.6449086
  35.3806407   2.7120182  63.8363405  35.5242237   2.2964701  65.2849894
  28.9388624  10.5082277  77.5316927  28.4555706  11.3082637  77.7380816
  29.0249563  10.5190222  76.5784371  22.2074584  12.3410657  65.4538746
  22.1845272  12.4398344  64.5020629  22.5175221  13.1875808  65.7755912
  24.8661962  14.3986812  69.5685361  25.8205215  14.3670754  69.5015292
  24.6674486  13.9377436  70.3835587  25.4561344  12.9687928  72.1356158
  26.2754233  13.4632007  72.1590996  25.7298152  12.0519896  72.1073726
  35.2127940   5.3598680  61.4984114  34.3253795   5.6448331  61.2804309
  35.6281929   5.1992444  60.6511391  38.5642476   5.3845201  65.2138453
  39.3402867   5.8741654  65.4863070  37.8390611   5.8103256  65.6710323
  41.0015035   6.0972821  66.2712394  41.5959526   5.8568557  65.5605702
  41.0741619   5.3779951  66.8985930  23.2212191  19.9406432  66.5855558
  23.0866659  19.1806832  66.0193557  22.8044253  20.6647331  66.1184347
  34.3571154  15.1243355  55.5932134  35.0607004  15.3293358  56.2089789
  33.6333802  15.6920117  55.8581217  35.1868964  10.8753216  61.7134404
  35.1304165  11.3321768  60.8742036  35.7397306  10.1143901  61.5357247
  38.9973770   6.6642948  62.5384523  38.7410704   6.2639584  63.3692731
  38.3726638   7.3786742  62.4134663  43.3086108   9.4039021  65.0455815
  42.7485666   9.4732211  65.8187377  42.7029611   9.2280006  64.3255311
  26.3781317  20.8375749  66.7974001  26.2613701  21.7821181  66.6952691
  25.5573763  20.5349310  67.1859800  36.2657851  15.5625884  57.6430594
  37.1003455  15.1307083  57.4608069  36.1042194  15.3907898  58.5707488
  35.9203743  12.0657998  59.0086933  35.8652547  11.9002269  58.0675377
  35.2949799  12.7734031  59.1649123  33.2349650  14.3706909  78.3340496
  34.1040810  14.5447562  77.9727131  32.7556402  15.1901326  78.2116225
  27.4035831  21.4904010  70.0129930  28.3063077  21.5227621  70.3296425
  27.1773201  20.5604461  70.0276265  29.1589433  20.2434997  66.6740008
  28.2085064  20.2436859  66.5604380  29.4621919  19.4967732  66.1576043
  44.8942126  26.0795535  67.7385771  45.5320536  25.9602283  67.0349111
  44.7762969  27.0276379  67.7973723  41.7031833  26.0322964  67.6747295
  41.3650344  25.9164028  66.7867830  42.5721601  25.6314129  67.6548301
  37.5618648  27.8858440  63.6644186  36.9983513  27.7948377  62.8960474
  37.4471043  27.0658344  64.1446679  42.1851615  27.1857815  73.6333501
  42.1740256  26.7910614  72.7614004  42.3472255  26.4523888  74.2267272
  35.1083080  29.3809632  66.5028407  35.9004372  29.0400456  66.0874706
  35.3479730  29.4904607  67.4230560  43.1418207  31.5529408  58.9758651
  42.4906187  32.1383488  58.5892665  43.9362570  32.0835603  59.0353689
  37.0673834  28.6418545  59.3745785  37.8404710  28.0947532  59.2358661
  37.4199233  29.5062794  59.5860247  38.9058877  29.9694927  72.5812685
  38.6148743  30.8740558  72.4659351  39.5415861  30.0111455  73.2956754
  39.8315083  27.3471776  69.1714044  40.4278656  27.1227798  68.4571007
  39.8890055  26.6056521  69.7739492  39.4040112  24.8011211  57.0064235
  39.6565633  24.2792732  56.2447698  38.4664671  24.6377356  57.1090919
  44.4483395  23.8046989  64.8138979  45.2346484  23.3866412  64.4629396
  44.7122099  24.7093081  64.9820627  44.6193472  29.2419840  59.5127635
  43.9839305  29.3154466  60.2248540  44.2890878  29.8313438  58.8346715
  49.8491822  23.7422222  65.7171957  50.5816994  23.1721439  65.9509787
  49.0931178  23.3543823  66.1578463  39.1236401  26.7039317  59.2088610
  39.0072659  26.0284220  59.8769695  39.2338661  26.2171691  58.3920763
  41.4667942  26.1649464  62.9135300  41.1026149  25.6380085  63.6248221
  42.3235057  25.7747933  62.7401785  47.3717242  17.4543797  70.1766566
  47.0400567  18.3239208  69.9527781  46.7762856  17.1380081  70.8560596
  41.1073429  21.1939364  57.9096648  41.2747831  22.0619600  58.2767119
  40.9170598  21.3566645  56.9857937  43.8648762  29.6556343  69.5762478
  43.5649485  30.5581381  69.4678286  43.5199821  29.3888526  70.4283631
  37.3161243  26.1070139  65.6099183  36.3911740  25.9746354  65.8176875
  37.5645656  26.8864359  66.1069125  47.2645906  22.1738883  67.2559916
  46.3562783  22.1054291  66.9618677  47.2133501  22.6510828  68.0841741
  41.0862649  23.6497021  58.8943315  40.9662275  24.0954072  59.7328795
  40.3915238  23.9982339  58.3356853  34.6770054  25.7503413  66.4442972
  34.8062435  26.0037892  67.3582384  33.9967506  26.3431121  66.1247627
  38.8469542  36.4200663  62.5433446  38.7693571  37.3708488  62.6221927
  38.2431185  36.0746535  63.2008372  41.3386771  23.5928528  75.1994813
  40.5620105  24.1522448  75.1897678  41.9777334  24.0785311  75.7209683
  49.1307552  20.3755321  69.0337790  48.4881932  20.6687854  68.3877584
  48.6262480  20.2608241  69.8390986  46.7847716  24.1218494  59.7223649
  47.6965572  24.3545881  59.5471347  46.2757363  24.7055539  59.1598728
  39.5933144  26.4013982  74.7612780  40.3347828  26.9399026  74.4847604
  38.8870129  27.0280270  74.9184332  45.0688483  28.5443122  73.3584942
  45.4771839  28.1025533  72.6139574  44.3465745  27.9695750  73.6119134
  41.4219553  23.4815729  70.7318499  42.2680748  23.9055142  70.8753148
  41.3618191  22.8249353  71.4257062  45.3917298  29.1044313  67.1137230
  44.7626160  29.2690027  66.4113298  45.0042960  29.5185922  67.8848194
  49.2706530  30.0398751  64.4681594  48.5857568  30.4197652  63.9178628
  49.3550379  30.6494077  65.2013542  44.5718999  21.1420097  72.3899672
  44.3279930  21.8962158  71.8533948  44.8478929  21.5205445  73.2246919
  46.5257461  27.6858710  71.0676938  46.7374357  28.3290470  70.3911319
  46.4787210  26.8521026  70.5998868  44.1283690  20.2976530  67.9713510
  43.2668169  20.5957784  68.2630247  44.1546125  20.5146929  67.0394543
  40.9445260  28.8418721  64.3787316  41.4083605  29.1206424  63.5891938
  40.6802058  27.9402165  64.1960406  37.8369341  28.3890202  67.3167079
  38.4070698  28.8177471  66.6784563  38.4277453  28.1072787  68.0151264
  39.8814146  24.9641873  61.1876881  40.5838189  25.4162917  61.6550807
  39.5494774  24.3225692  61.8156774  38.3294507  23.5553630  75.5628090
  37.6993168  24.2369911  75.7963487  38.2230595  23.4436711  74.6181228
  33.6239480  23.2225426  66.4894014  32.8338534  23.4782954  66.0134125
  34.1150727  24.0373764  66.5946055  47.6403289  30.5630665  69.2399295
  48.4620733  30.1610852  68.9581977  47.6365692  30.4598899  70.1915411
  35.5754225  23.5870005  63.4477491  34.7785388  23.6988699  63.9660987
  35.3479817  23.9256657  62.5818381  41.4059893  30.1114708  71.3960006
  41.4704325  30.5735116  72.2318177  40.6970817  29.4812073  71.5242315
  31.9077183  23.4755916  68.9209005  32.1585221  24.3602926  69.1866581
  32.4436731  23.2960518  68.1484097  55.7309282  26.9069414  65.5884267
  54.9772991  26.3376812  65.4328271  55.8656824  26.8732078  66.5354901
  41.1207910  31.7782816  61.2638986  40.9853585  32.6234352  61.6923834
  41.6617723  31.9802094  60.5004920  37.6075250  17.8574396  77.9253341
  37.2142196  17.3040594  78.6000985  38.4241390  18.1684974  78.3159859
  34.5737308  29.2958254  61.8366911  35.0861828  30.0901504  61.9872476
  35.2260021  28.5984544  61.7700512  36.3832193  32.4124010  63.9189664
  36.5598821  33.3341975  63.7310648  37.1789026  32.0982429  64.3484044
  40.5243211  19.2732275  75.5173598  41.2652924  19.8739428  75.4378060
  40.7561134  18.5309913  74.9591640  35.6684549  24.4588642  73.7951827
  35.5538064  23.5573899  74.0958926  34.8129067  24.7052339  73.4436644
  42.7476387  32.4006382  75.3939328  42.3040241  31.6142761  75.0760232
  43.4093600  32.5885533  74.7283219  37.5063508  33.9302184  69.9200006
  38.0570933  33.8019247  69.1477000  36.6674984  34.2297073  69.5694899
  44.8457625  32.6809182  73.4220729  44.8276100  33.5018063  72.9300998
  45.7677545  32.5563258  73.6470870  41.3030679  30.1953312  74.2644238
  41.8359016  29.4341600  74.0343546  40.7744760  29.9026964  75.0068392
  44.4700374  15.3013378  69.7937879  44.1264643  16.1915019  69.7176990
  44.8379337  15.1115035  68.9307464  32.5386225  27.6246908  62.6126482
  33.3761447  28.0343917  62.3960189  32.7164492  26.6846350  62.5826675
  44.4350657  25.2921989  58.3010314  43.9197280  26.0626593  58.5398702
  44.1627965  24.6187125  58.9243376  42.0197768  20.1371690  63.3595553
  41.1639364  19.7478540  63.1801192  42.4324720  20.2163650  62.4995338
  43.5496914  17.6718033  67.7587113  43.0461710  17.6348168  66.9454918
  43.8427521  18.5810776  67.8183769  39.7939800  17.7556763  66.7653294
  40.6592797  17.5599571  66.4059184  39.8617309  17.5267114  67.6922651
  49.4084931  28.0454344  60.2363488  48.6314374  27.7065503  59.7918650
  50.0876412  28.0506967  59.5618453  44.2236960  23.1649081  60.1270096
  43.9187095  23.4795230  60.9780239  45.1767402  23.2430501  60.1697429
  42.6683392  29.3239304  61.7763050  42.1404753  28.5892064  61.4636287
  42.1670894  30.1013981  61.5303018  47.6476238  27.5188325  66.8930096
  46.9899912  28.2087586  66.9810225  48.4516637  27.9084757  67.2364082
  37.4002119  19.9858971  64.1369661  37.9745871  19.7634152  63.4042854
  37.9873102  20.0547665  64.8898262  46.4581697  25.8732697  64.9434038
  46.9713578  26.5062689  65.4455747  47.1082920  25.2733893  64.5777398
  37.7271706  22.0163432  58.1565546  36.8909019  22.3538118  58.4774821
  37.5876476  21.8812411  57.2192683  39.7024787  16.8600219  62.8644731
  39.0489199  16.5449237  62.2401345  39.6605261  16.2375960  63.5904554
  40.8135992  27.1419515  54.7798023  39.9063054  26.9108768  54.9789172
  41.3107024  26.3457134  54.9672004  43.7204071  35.8517022  57.6994709
  43.0465770  36.1548718  58.3079667  44.1069893  36.6546102  57.3500166
  42.9362527  23.3482153  67.1892378  42.0185089  23.5697100  67.0314066
  43.3522671  23.4228463  66.3304086  43.7197575  24.7473569  62.3195058
  44.4669394  25.2594966  62.0102181  43.9889165  24.4257621  63.1799452
  41.9924225  27.2432109  59.3022013  41.0835445  26.9591142  59.3994483
  42.0219309  27.6631188  58.4425320  47.2243493  30.8538699  63.0713180
  46.7705820  30.0129609  63.1278371  46.5937459  31.4900097  63.4087960
  46.1676412  21.7830685  64.3013848  45.4299169  21.2708071  64.6324090
  46.4203186  21.3431067  63.4897125  45.6676432  32.6915196  64.0062998
  45.9599406  33.2520253  63.2875364  46.1775053  32.9843757  64.7616158
  46.2688040  14.5606937  64.8955617  46.5746916  13.7004300  64.6081532
  46.9940644  15.1524557  64.6954611  32.5612396  24.9637624  63.2837215
  32.3636796  24.3706984  62.5588282  32.0059060  24.6589834  64.0013154
  40.5409119  24.8560730  65.4031808  40.5957729  23.9034566  65.3274285
  39.7300321  25.0120169  65.8873107  41.6900313  28.7840853  56.6410091
  41.2519743  28.0676712  56.1815729  42.4310754  29.0116968  56.0795183
  38.4801479  23.4737790  63.1622187  37.6669345  23.7731960  63.5687379
  38.9760474  23.0793479  63.8796669  40.6310057  33.4695547  65.0956452
  40.5886236  33.6956393  64.1664984  41.5472756  33.2358921  65.2442253
  44.0775691  23.9379614  71.9937081  44.4325079  24.1651087  72.8531547
  44.7247822  24.2697991  71.3714336  49.8073428  27.0598050  62.6986410
  49.6691327  27.2499646  61.7707599  49.4509647  27.8217433  63.1554461
  37.9715554  21.0456145  68.7783422  38.6114933  20.9044904  68.0806385
  37.1393085  20.7590659  68.4022024  49.8342808  29.1274577  67.7097681
  50.2679314  29.0349866  68.5580735  50.5474388  29.1032078  67.0717697
  38.7475858  30.3458576  64.8918414  39.5416456  29.8508896  64.6900989
  38.0367550  29.8176439  64.5286120  43.5670702  32.7276671  69.2430782
  43.6207725  33.2967608  70.0108498  42.6985484  32.8978556  68.8784819
  35.0558621  24.4901657  60.9678167  34.1256210  24.4286113  61.1848129
  35.1516093  23.9677610  60.1714808  34.9744170  21.0156470  63.5556409
  35.2350988  21.9301804  63.4465569  35.7961343  20.5480913  63.7053022
  36.4469096  22.4294227  70.7255233  37.1192149  22.2211590  70.0767882
  35.6198882  22.2316313  70.2860466  50.6958357  29.1698278  70.2430567
  50.8894247  30.0744088  70.4889842  50.5958975  28.7105697  71.0769152
  42.3494668  19.0556168  72.7420894  41.7022583  19.7546118  72.6485371
  43.1195683  19.4892312  73.1097142  45.7573466  29.3205021  75.8171447
  45.6058972  29.0915572  74.9001531  45.7478145  30.2775622  75.8302792
  42.5258802  26.8936933  70.8017714  43.4550862  27.0448093  70.6286681
  42.1049832  26.9820954  69.9466360  41.3247134  30.9187598  68.5716251
  41.1858220  30.5506382  69.4442190  40.5361730  31.4335237  68.4000209
  41.9195286  36.0196694  59.9141788  42.0947042  35.5484737  60.7287411
  41.2328074  36.6462460  60.1423049  42.8752349  30.2969200  65.9605089
  42.5402182  30.2569970  66.8562739  42.3756295  29.6313916  65.4875500
  36.8496593  25.7036830  71.4857670  36.7116391  24.9717069  72.0869209
  37.7601517  25.6145731  71.2041858  45.8111541  27.6425235  56.2342149
  45.1940711  26.9172063  56.1375202  45.3428029  28.4034595  55.8909223
  39.4778894  25.4156790  70.9741350  40.1878512  24.7749982  70.9327969
  39.4348202  25.6669685  71.8967531  47.4665672  32.3524143  73.8947929
  47.4078219  31.6683363  73.2278512  47.8685191  33.0943133  73.4428555
  38.1907828  22.4022008  72.7936990  37.6545185  21.9512746  73.4458586
  37.6024536  22.5367916  72.0507454  36.4856371  39.1686057  66.6881648
  36.7252969  39.8004581  67.3660667  35.6425568  38.8174097  66.9747007
  37.6010087  21.8610659  55.3563453  36.7239553  21.7399460  54.9925700
  38.0767840  21.0696737  55.1042342  47.4683080  30.3163727  72.1261909
  46.5809858  29.9789649  72.2488308  48.0381631  29.5846758  72.3630674
  29.1212227  26.6487819  65.4504960  29.8083267  26.3349549  64.8625976
  28.9660356  27.5529183  65.1772212  33.9246949  21.5378015  69.8789984
  33.8405138  20.9303685  69.1440394  33.1029655  22.0287034  69.8799480
  40.9984233  34.9765179  69.0923152  40.9254405  35.7820151  69.6042457
  40.5561626  35.1757145  68.2671174  40.7874013  34.2136949  62.6025974
  40.0041535  34.7558630  62.6964198  41.4866758  34.7310929  63.0020215
  44.0970663  20.0231579  65.2460179  44.5939362  19.2701541  64.9261249
  43.3257644  20.0595896  64.6803388  51.9500420  25.7271944  66.8878471
  51.9390296  26.6096660  66.5172404  51.0817800  25.3743495  66.6933008
  43.4582917  34.8752013  71.2481311  44.1710889  35.5099478  71.1757212
  42.9672945  34.9715879  70.4321313  45.1800444  28.7803266  62.8198602
  44.2456722  28.9004729  62.6503307  45.3577112  27.8775733  62.5558612
  40.6805632  22.1648962  64.9731864  40.3103419  21.6120002  65.6612769
  41.1764724  21.5607095  64.4206864  48.5672995  24.6220585  63.3548637
  49.0333447  25.4548577  63.2808939  49.0180495  24.1565567  64.0593895
  38.5094830  32.6246457  72.0686882  39.2104290  33.2582940  72.2216276
  38.0389945  32.9661188  71.3082521  46.6349226  30.9664407  60.3534789
  46.9109070  30.8521001  61.2628663  45.7653725  30.5681891  60.3146962
  46.5389658  16.9901172  67.3939538  45.6252737  17.2205399  67.5621745
  46.9682759  17.0739616  68.2453570  46.3096116  25.1791064  69.8939432
  45.6567566  25.4266972  69.2391885  46.6876496  24.3655202  69.5601909
  43.2703290  35.2150757  63.9967602  43.4525685  34.3972413  64.4595355
  44.0936276  35.4318450  63.5592492  43.6045455  34.1418943  61.2582651
  44.1333222  33.6311397  60.6452813  43.8673675  33.8261473  62.1228184
  42.3583689  25.9210875  76.3805469  41.6824326  25.8205005  77.0507844
  43.1811323  25.7650089  76.8441466  34.1062548  32.1582812  69.0017984
  34.6915985  31.4126500  69.1345889  33.9087387  32.4686769  69.8854648
  36.9601203  35.1934059  64.0180427  36.2911579  35.6780187  63.5344467
  36.8214073  35.4403280  64.9323805  28.6980203  24.7288412  67.7222427
  28.7364302  24.1952003  68.5159546  28.1920496  24.2023618  67.1033405
  41.1006472  37.2277803  70.6163085  41.6524780  37.3909424  71.3812170
  41.4412665  37.8182241  69.9443110  36.0770965  19.5752953  71.2184970
  36.1412292  20.4367784  70.8062367  36.0138085  18.9626954  70.4857328
  35.5523238  21.6476085  74.8658004  36.1795277  21.2653162  75.4795528
  34.6951157  21.4290287  75.2313697  45.9517346  32.0539060  76.4711740
  46.4957250  32.6669019  75.9766694  45.3704191  32.6118639  76.9878753
  32.3288781  23.4552514  60.7976359  32.6242222  22.5463193  60.7443413
  31.4276816  23.4340254  60.4757361  44.2374859  35.1759778  67.6026767
  44.1125999  34.3749518  67.0937713  44.8953950  35.6705972  67.1140737
  35.8583028  21.5308511  66.7803907  35.1369613  22.1444479  66.6411381
  36.6476283  22.0666276  66.7020553  46.3009768  32.9768798  69.2306317
  45.3540103  32.8574150  69.1584644  46.6492541  32.0891296  69.3132579
  38.6609341  18.8662937  73.0544559  39.1843743  19.1125234  73.8170869
  38.4421674  19.6982972  72.6347697  34.0576622  21.1366612  60.9215684
  33.7289328  20.2563991  60.7390790  34.4115993  21.0814281  61.8092073
  43.3056201  32.7721515  65.4310670  43.1581163  31.8438222  65.6118240
  44.1309694  32.7941605  64.9467745  37.1718445  21.4239582  61.2891162
  37.5114518  21.9525503  60.5669770  37.6190566  21.7619988  62.0649728
  46.9090323  33.5950073  66.5175542  47.8336870  33.3892935  66.3799993
  46.7405626  33.3466475  67.4264884  39.8661886  19.8076632  70.7394230
  39.5258706  19.0084446  71.1414910  39.1600892  20.1078343  70.1671063
  40.5178358  16.8925945  69.1921553  41.3404427  16.4186423  69.0700443
  40.7616421  17.6716429  69.6920239  39.1586592  19.9214203  59.4884454
  39.8794955  20.2995456  58.9848171  38.5351897  20.6403080  59.5919432
  43.3017715  20.6259352  60.4242787  43.5181330  21.5083990  60.1231615
  42.8211782  20.2345566  59.6948429  38.0416937  23.5845066  67.0013531
  37.8961517  23.8985369  67.8937813  37.5642140  24.2029966  66.4484430
  39.9013320  20.5747613  67.0494421  39.8874888  19.6788707  66.7126719
  40.6185748  20.5818277  67.6832707  41.7539450  21.0084954  69.0947548
  41.4957228  21.9302024  69.0931879  41.2224491  20.6115388  69.7848013
  46.6985639  34.1135741  61.8737634  46.8722517  33.5482163  61.1211486
  47.1914530  34.9136636  61.6917124  32.5162599  26.1250410  69.9401193
  31.9716067  26.9010218  70.0721467  33.3941949  26.4721214  69.7820314
  39.3050215  19.4561994  62.3181991  39.4266127  18.5278640  62.5172879
  39.0152258  19.4700680  61.4060307  42.1741406  17.1416904  65.4548711
  42.1963103  17.2056237  64.5000690  42.5909465  16.3021413  65.6489217
  52.5525030  26.8772164  63.4927933  52.9956176  26.1279489  63.0947057
  51.6751540  26.8682300  63.1101665  47.6860812  33.4302505  58.9734532
  48.3811716  34.0509198  59.1921847  48.0283962  32.5797856  59.2486910
  33.3028621  25.2520306  72.8331349  32.5610357  25.4002942  73.4195980
  32.9821365  25.5128572  71.9698099  49.5852235  30.8802211  60.5021863
  50.1103559  31.2189484  59.7771183  49.4974587  29.9449226  60.3184997
  41.2472283  34.7936284  72.6311739  41.5559410  34.5485431  73.5034439
  42.0447765  34.9982923  72.1430610  41.2692895  36.9474194  64.8617116
  40.8297886  36.4550573  65.5549973  42.0201012  36.4047162  64.6209191
  33.7485234  33.1385735  64.8641744  34.5743254  32.8389507  64.4840388
  33.3979286  32.3693357  65.3131533  38.7166768  32.4912203  66.9339418
  38.0946777  31.8282908  66.6341646  39.3871634  32.5173335  66.2513065
  31.9493839  31.0572061  65.8230678  31.1125748  30.6294236  65.6414679
  31.9217485  31.2504505  66.7601469  38.7891295  20.9693991  76.5271924
  38.8379451  21.8456114  76.1449693  39.3313809  20.4271384  75.9543567
  49.2746141  31.5135114  75.8073061  48.4841684  31.4959253  75.2677560
  49.0379495  32.0523408  76.5622097  49.3944016  28.3627581  73.1205789
  49.4442021  28.1977588  74.0621312  49.2857939  27.4954840  72.7303670
  38.2780274  31.0416126  60.4097878  38.4268395  31.7251591  59.7564551
  39.0846718  31.0221217  60.9247334  46.6847778  24.3458509  74.4365096
  47.5857641  24.2064974  74.1449094  46.7595753  24.5112964  75.3763273
  41.0190583  21.7225364  73.2818282  40.1493893  22.0158930  73.0100871
  41.2550064  22.3065809  74.0025546  50.8962213  30.7824522  73.3647811
  50.6047021  31.1454503  74.2011272  50.2834344  30.0691531  73.1861143
  52.0957895  28.3477402  65.8850381  52.9304786  28.7867206  66.0487941
  52.2317024  27.8716055  65.0658627  49.1449401  25.9057137  71.8327869
  49.6203522  26.0984783  71.0246720  48.2214966  25.9616323  71.5871252
  36.0332907  27.0681304  61.4158947  35.7878949  26.1643634  61.6139157
  36.2028822  27.0698455  60.4738425  43.7229617  17.9404980  70.7983703
  44.2411561  18.6766007  70.4730191  43.3684750  18.2468974  71.6330462
  35.3028555  22.8009662  58.9145109  34.6097800  22.8754017  58.2585145
  35.0580307  22.0370005  59.4366625  43.9742211  14.3605263  66.3184599
  44.2543965  13.6928452  66.9445026  44.7592818  14.5534359  65.8059263
  41.7775680  33.5364257  57.8809626  41.2049647  34.1554444  57.4280097
  42.3508474  34.0863619  58.4149548  47.8451070  22.7822897  70.0656174
  48.7968493  22.8820995  70.0868398  47.6754520  21.9901166  70.5754259
  45.8665449  19.8678480  70.2515575  45.2715381  20.1483493  69.5562064
  45.5815146  20.3572381  71.0232316  44.9972940  33.8201407  59.0118208
  45.9303613  33.7546969  59.2151083  44.9096153  34.6557674  58.5532741
  47.6260956  33.1367277  55.9722155  47.5474588  32.8027141  56.8657913
  48.4470623  33.6289045  55.9713628  50.3239148  26.0029017  69.1798474
  50.2915468  25.0645017  69.3658158  50.9339771  26.0813053  68.4464299
  42.1622478  24.8725070  55.2225678  43.1081583  24.7431278  55.2914096
  41.7836723  24.1339732  55.6995106  50.4733636  22.7940060  69.2256757
  49.9572685  22.0098517  69.0386686  51.3573585  22.4658777  69.3903277
  48.1344363  16.5381076  65.1852570  47.9369184  16.2296164  66.0695902
  48.7444069  17.2642715  65.3150500  56.1415697  27.0645024  68.3204511
  56.8719086  26.8030312  68.8812214  55.5322643  26.3273745  68.3606579
  54.2230995  25.2052886  68.9178962  53.4964158  25.0708851  68.3095454
  53.8078281  25.5129715  69.7235680  42.0461171  28.9242816  76.6826335
  42.9664180  29.1021415  76.8766382  42.0110754  27.9798861  76.5306034
  40.3465396  22.7975046  55.1580563  39.4396851  22.5008159  55.2343277
  40.6241377  22.5004864  54.2914850  31.2643336  24.1181409  65.6079610
  30.9446120  23.2646718  65.3153984  30.7176764  24.3329988  66.3637577
  35.0423244  26.8343850  69.3249116  35.2609253  27.7660958  69.3437150
  35.4549017  26.4751825  70.1103920  41.9627461  17.3411936  61.3124805
  41.1528190  16.9959021  61.6880051  42.6511878  17.0319479  61.9012416
  43.8918010  16.4189983  62.9349101  44.4449048  16.8385436  63.5939124
  44.1288096  15.4925731  62.9772057  39.9151109  22.4077056  78.7151865
  39.8147836  23.3571413  78.6463956  39.6972651  22.0795295  77.8427935
  39.1164180  19.6561981  55.2992543  39.9783344  19.9816880  55.5588360
  39.3014524  18.8693477  54.7865608  31.1331596  27.7384321  67.5772731
  30.4395067  27.3238274  67.0642686  31.8804587  27.7804857  66.9806150
  47.2696817  18.5290508  62.4427766  46.6895486  19.1875312  62.0605818
  47.0032749  17.7067852  62.0315183  45.7200383  17.9295565  64.6449086
  46.2200161  18.0412100  63.8363405  46.3635991  17.6256618  65.2849894
  39.7782379  25.8374195  77.5316927  39.2949461  26.6374555  77.7380816
  39.8643318  25.8482140  76.5784371  33.0468339  27.6702575  65.4538746
  33.0239027  27.7690262  64.5020629  33.3568975  28.5167726  65.7755912
  35.7055716  29.7278730  69.5685361  36.6598970  29.6962672  69.5015292
  35.5068240  29.2669353  70.3835587  36.2955099  28.2979846  72.1356158
  37.1147988  28.7923924  72.1590996  36.5691906  27.3811814  72.1073726
  46.0521695  20.6890598  61.4984114  45.1647550  20.9740249  61.2804309
  46.4675684  20.5284361  60.6511391  49.4036231  20.7137119  65.2138453
  50.1796621  21.2033572  65.4863070  48.6784365  21.1395173  65.6710323
  51.8408790  21.4264738  66.2712394  52.4353280  21.1860474  65.5605702
  51.9135373  20.7071869  66.8985930  34.0605945  35.2698349  66.5855558
  33.9260413  34.5098750  66.0193557  33.6438007  35.9939249  66.1184347
  45.1964908  30.4535273  55.5932134  45.9000758  30.6585275  56.2089789
  44.4727557  31.0212035  55.8581217  46.0262718  26.2045134  61.7134404
  45.9697920  26.6613685  60.8742036  46.5791061  25.4435819  61.5357247
  49.8367524  21.9934866  62.5384523  49.5804459  21.5931502  63.3692731
  49.2120392  22.7078660  62.4134663  54.1479862  24.7330939  65.0455815
  53.5879420  24.8024128  65.8187377  53.5423366  24.5571924  64.3255311
  37.2175071  36.1667666  66.7974001  37.1007455  37.1113099  66.6952691
  36.3967517  35.8641228  67.1859800  47.1051606  30.8917802  57.6430594
  47.9397210  30.4599000  57.4608069  46.9435949  30.7199816  58.5707488
  46.7597498  27.3949915  59.0086933  46.7046302  27.2294187  58.0675377
  46.1343553  28.1025948  59.1649123  31.5490013  22.6317980  72.8348355
  32.1948876  22.1216934  73.3235581  31.3407164  23.3686661  73.4091781
  44.0743405  29.6998827  78.3340496  44.9434565  29.8739479  77.9727131
  43.5950156  30.5193244  78.2116225  40.0693623  16.8958024  58.5872252
  40.0572293  17.8399864  58.7440522  40.9617045  16.7128170  58.2931713
  38.2429585  36.8195928  70.0129930  39.1456832  36.8519538  70.3296425
  38.0166955  35.8896379  70.0276265  39.9983187  35.5726915  66.6740008
  39.0478818  35.5728776  66.5604380  40.3015673  34.8259649  66.1576043
  43.8845743  13.4900801  62.8418188  43.1178139  12.9359288  62.9874871
  44.2956448  13.5622670  63.7032340  35.8887504  19.7785597  76.9323370
  36.7518965  19.4222402  77.1426694  35.3152914  19.4399492  77.6198774
  55.7335881  41.4087453  67.7385771  56.3714291  41.2894200  67.0349111
  55.6156724  42.3568297  67.7973723  52.5425587  41.3614881  67.6747295
  52.2044099  41.2455946  66.7867830  53.4115355  40.9606046  67.6548301
  48.4012403  43.2150358  63.6644186  47.8377268  43.1240295  62.8960474
  48.2864798  42.3950262  64.1446679  53.0245370  42.5149733  73.6333501
  53.0134011  42.1202531  72.7614004  53.1866009  41.7815806  74.2267272
  45.9476835  44.7101549  66.5028407  46.7398127  44.3692374  66.0874706
  46.1873485  44.8196524  67.4230560  53.9811961  46.8821325  58.9758651
  53.3299941  47.4675406  58.5892665  54.7756324  47.4127520  59.0353689
  47.9067589  43.9710462  59.3745785  48.6798465  43.4239450  59.2358661
  48.2592987  44.8354712  59.5860247  49.7452631  45.2986845  72.5812685
  49.4542497  46.2032476  72.4659351  50.3809615  45.3403372  73.2956754
  50.6708838  42.6763693  69.1714044  51.2672410  42.4519716  68.4571007
  50.7283810  41.9348439  69.7739492  50.2433866  40.1303129  57.0064235
  50.4959387  39.6084650  56.2447698  49.3058425  39.9669274  57.1090919
  55.2877149  39.1338907  64.8138979  56.0740238  38.7158330  64.4629396
  55.5515854  40.0384999  64.9820627  55.4587227  44.5711757  59.5127635
  54.8233060  44.6446384  60.2248540  55.1284633  45.1605356  58.8346715
  60.6885576  39.0714140  65.7171957  61.4210748  38.5013357  65.9509787
  59.9324932  38.6835741  66.1578463  49.9630155  42.0331235  59.2088610
  49.8466413  41.3576138  59.8769695  50.0732415  41.5463608  58.3920763
  52.3061696  41.4941382  62.9135300  51.9419903  40.9672003  63.6248221
  53.1628812  41.1039851  62.7401785  58.2110997  32.7835714  70.1766566
  57.8794321  33.6531125  69.9527781  57.6156610  32.4671998  70.8560596
  51.9467183  36.5231281  57.9096648  52.1141585  37.3911518  58.2767119
  51.7564352  36.6858563  56.9857937  54.7042516  44.9848260  69.5762478
  54.4043239  45.8873299  69.4678286  54.3593576  44.7180443  70.4283631
  48.1554998  41.4362057  65.6099183  47.2305494  41.3038271  65.8176875
  48.4039411  42.2156276  66.1069125  58.1039660  37.5030800  67.2559916
  57.1956537  37.4346209  66.9618677  58.0527256  37.9802745  68.0841741
  51.9256404  38.9788939  58.8943315  51.8056029  39.4245990  59.7328795
  51.2308992  39.3274257  58.3356853  45.5163809  41.0795331  66.4442972
  45.6456190  41.3329810  67.3582384  44.8361260  41.6723039  66.1247627
  49.6863296  51.7492581  62.5433446  49.6087326  52.7000406  62.6221927
  49.0824940  51.4038453  63.2008372  52.1780526  38.9220446  75.1994813
  51.4013860  39.4814366  75.1897678  52.8171089  39.4077229  75.7209683
  59.9701306  35.7047239  69.0337790  59.3275687  35.9979772  68.3877584
  59.4656235  35.5900159  69.8390986  57.6241470  39.4510412  59.7223649
  58.5359326  39.6837799  59.5471347  57.1151117  40.0347456  59.1598728
  50.4326898  41.7305899  74.7612780  51.1741582  42.2690943  74.4847604
  49.7263884  42.3572188  74.9184332  55.9082238  43.8735040  73.3584942
  56.3165594  43.4317450  72.6139574  55.1859499  43.2987667  73.6119134
  52.2613308  38.8107647  70.7318499  53.1074503  39.2347060  70.8753148
  52.2011945  38.1541271  71.4257062  56.2311052  44.4336230  67.1137230
  55.6019915  44.5981945  66.4113298  55.8436714  44.8477840  67.8848194
  60.1100284  45.3690668  64.4681594  59.4251322  45.7489570  63.9178628
  60.1944134  45.9785995  65.2013542  55.4112753  36.4712015  72.3899672
  55.1673685  37.2254076  71.8533948  55.6872684  36.8497363  73.2246919
  57.3651216  43.0150627  71.0676938  57.5768111  43.6582387  70.3911319
  57.3180964  42.1812944  70.5998868  54.9677445  35.6268448  67.9713510
  54.1061924  35.9249702  68.2630247  54.9939879  35.8438847  67.0394543
  51.7839014  44.1710639  64.3787316  52.2477360  44.4498342  63.5891938
  51.5195812  43.2694083  64.1960406  48.6763095  43.7182120  67.3167079
  49.2464452  44.1469388  66.6784563  49.2671207  43.4364705  68.0151264
  50.7207900  40.2933791  61.1876881  51.4231944  40.7454835  61.6550807
  50.3888529  39.6517610  61.8156774  49.1688262  38.8845548  75.5628090
  48.5386922  39.5661828  75.7963487  49.0624350  38.7728629  74.6181228
  44.4633234  38.5517344  66.4894014  43.6732288  38.8074872  66.0134125
  44.9544482  39.3665681  66.5946055  58.4797044  45.8922583  69.2399295
  59.3014488  45.4902770  68.9581977  58.4759447  45.7890817  70.1915411
  46.4147980  38.9161923  63.4477491  45.6179143  39.0280617  63.9660987
  46.1873572  39.2548575  62.5818381  52.2453647  45.4406626  71.3960006
  52.3098080  45.9027033  72.2318177  51.5364571  44.8103991  71.5242315
  42.7470937  38.8047834  68.9209005  42.9978976  39.6894844  69.1866581
  43.2830486  38.6252436  68.1484097  66.5703037  42.2361331  65.5884267
  65.8166745  41.6668729  65.4328271  66.7050578  42.2023996  66.5354901
  51.9601665  47.1074734  61.2638986  51.8247340  47.9526269  61.6923834
  52.5011477  47.3094011  60.5004920  48.4469005  33.1866313  77.9253341
  48.0535950  32.6332512  78.6000985  49.2635145  33.4976892  78.3159859
  45.4131062  44.6250172  61.8366911  45.9255583  45.4193422  61.9872476
  46.0653775  43.9276462  61.7700512  47.2225947  47.7415928  63.9189664
  47.3992575  48.6633893  63.7310648  48.0182781  47.4274347  64.3484044
  51.3636966  34.6024192  75.5173598  52.1046679  35.2031346  75.4378060
  51.5954888  33.8601830  74.9591640  46.5078304  39.7880560  73.7951827
  46.3931819  38.8865817  74.0958926  45.6522821  40.0344257  73.4436644
  53.5870141  47.7298300  75.3939328  53.1433995  46.9434679  75.0760232
  54.2487355  47.9177451  74.7283219  48.3457262  49.2594102  69.9200006
  48.8964688  49.1311165  69.1477000  47.5068738  49.5588991  69.5694899
  55.6851379  48.0101100  73.4220729  55.6669855  48.8309981  72.9300998
  56.6071299  47.8855175  73.6470870  52.1424434  45.5245229  74.2644238
  52.6752770  44.7633518  74.0343546  51.6138515  45.2318881  75.0068392
  55.3094128  30.6305295  69.7937879  54.9658398  31.5206937  69.7176990
  55.6773091  30.4406953  68.9307464  43.3779979  42.9538826  62.6126482
  44.2155201  43.3635834  62.3960189  43.5558247  42.0138268  62.5826675
  55.2744411  40.6213907  58.3010314  54.7591035  41.3918511  58.5398702
  55.0021720  39.9479043  58.9243376  52.8591522  35.4663607  63.3595553
  52.0033119  35.0770458  63.1801192  53.2718474  35.5455568  62.4995338
  54.3890669  33.0009951  67.7587113  53.8855464  32.9640086  66.9454918
  54.6821276  33.9102693  67.8183769  50.6333555  33.0848680  66.7653294
  51.4986552  32.8891489  66.4059184  50.7011064  32.8559032  67.6922651
  60.2478685  43.3746261  60.2363488  59.4708128  43.0357421  59.7918650
  60.9270166  43.3798884  59.5618453  55.0630714  38.4940999  60.1270096
  54.7580850  38.8087148  60.9780239  56.0161157  38.5722419  60.1697429
  53.5077146  44.6531222  61.7763050  52.9798508  43.9183982  61.4636287
  53.0064649  45.4305898  61.5303018  58.4869992  42.8480242  66.8930096
  57.8293667  43.5379504  66.9810225  59.2910391  43.2376674  67.2364082
  48.2395874  35.3150888  64.1369661  48.8139626  35.0926070  63.4042854
  48.8266856  35.3839583  64.8898262  57.2975451  41.2024615  64.9434038
  57.8107333  41.8354607  65.4455747  57.9476675  40.6025811  64.5777398
  48.5665461  37.3455349  58.1565546  47.7302773  37.6830036  58.4774821
  48.4270231  37.2104329  57.2192683  50.5418542  32.1892137  62.8644731
  49.8882954  31.8741154  62.2401345  50.4999016  31.5667878  63.5904554
  51.6529746  42.4711432  54.7798023  50.7456808  42.2400686  54.9789172
  52.1500778  41.6749051  54.9672004  54.5597825  51.1808939  57.6994709
  53.8859524  51.4840636  58.3079667  54.9463647  51.9838020  57.3500166
  53.7756282  38.6774071  67.1892378  52.8578843  38.8989018  67.0314066
  54.1916426  38.7520381  66.3304086  54.5591330  40.0765486  62.3195058
  55.3063149  40.5886884  62.0102181  54.8282919  39.7549539  63.1799452
  52.8317980  42.5724027  59.3022013  51.9229199  42.2883060  59.3994483
  52.8613064  42.9923106  58.4425320  58.0637247  46.1830617  63.0713180
  57.6099574  45.3421526  63.1278371  57.4331214  46.8192015  63.4087960
  57.0070167  37.1122603  64.3013848  56.2692924  36.5999989  64.6324090
  57.2596940  36.6722984  63.4897125  56.5070187  48.0207113  64.0062998
  56.7993161  48.5812170  63.2875364  57.0168807  48.3135674  64.7616158
  57.1081794  29.8898855  64.8955617  57.4140671  29.0296218  64.6081532
  57.8334399  30.4816475  64.6954611  43.4006150  40.2929541  63.2837215
  43.2030550  39.6998902  62.5588282  42.8452814  39.9881751  64.0013154
  51.3802874  40.1852648  65.4031808  51.4351484  39.2326484  65.3274285
  50.5694076  40.3412087  65.8873107  52.5294068  44.1132771  56.6410091
  52.0913498  43.3968630  56.1815729  53.2704509  44.3408886  56.0795183
  49.3195234  38.8029707  63.1622187  48.5063099  39.1023878  63.5687379
  49.8154228  38.4085396  63.8796669  51.4703812  48.7987464  65.0956452
  51.4279990  49.0248311  64.1664984  52.3866511  48.5650839  65.2442253
  54.9169445  39.2671532  71.9937081  55.2718833  39.4943005  72.8531547
  55.5641577  39.5989909  71.3714336  60.6467182  42.3889968  62.6986410
  60.5085081  42.5791564  61.7707599  60.2903401  43.1509351  63.1554461
  48.8109309  36.3748063  68.7783422  49.4508688  36.2336822  68.0806385
  47.9786839  36.0882576  68.4022024  60.6736562  44.4566495  67.7097681
  61.1073069  44.3641784  68.5580735  61.3868143  44.4323995  67.0717697
  49.5869612  45.6750493  64.8918414  50.3810211  45.1800814  64.6900989
  48.8761305  45.1468357  64.5286120  54.4064457  48.0568589  69.2430782
  54.4601479  48.6259525  70.0108498  53.5379238  48.2270474  68.8784819
  45.8952376  39.8193575  60.9678167  44.9649964  39.7578031  61.1848129
  45.9909848  39.2969528  60.1714808  45.8137925  36.3448388  63.5556409
  46.0744742  37.2593721  63.4465569  46.6355097  35.8772831  63.7053022
  47.2862850  37.7586145  70.7255233  47.9585904  37.5503507  70.0767882
  46.4592637  37.5608231  70.2860466  53.1888422  34.3848086  72.7420894
  52.5416337  35.0838036  72.6485371  53.9589438  34.8184230  73.1097142
  56.5967220  44.6496938  75.8171447  56.4452727  44.4207490  74.9001531
  56.5871900  45.6067540  75.8302792  53.3652557  42.2228851  70.8017714
  54.2944617  42.3740011  70.6286681  52.9443587  42.3112872  69.9466360
  52.1640888  46.2479515  68.5716251  52.0251974  45.8798300  69.4442190
  51.3755485  46.7627155  68.4000209  52.7589040  51.3488612  59.9141788
  52.9340796  50.8776655  60.7287411  52.0721828  51.9754378  60.1423049
  53.7146104  45.6261118  65.9605089  53.3795936  45.5861888  66.8562739
  53.2150049  44.9605834  65.4875500  47.6890348  41.0328748  71.4857670
  47.5510146  40.3008987  72.0869209  48.5995271  40.9437648  71.2041858
  56.6505295  42.9717152  56.2342149  56.0334466  42.2463981  56.1375202
  56.1821784  43.7326513  55.8909223  50.3172648  40.7448707  70.9741350
  51.0272267  40.1041900  70.9327969  50.2741956  40.9961602  71.8967531
  58.3059427  47.6816061  73.8947929  58.2471973  46.9975281  73.2278512
  58.7078945  48.4235051  73.4428555  49.0301582  37.7313925  72.7936990
  48.4938939  37.2804664  73.4458586  48.4418291  37.8659834  72.0507454
  47.3250126  54.4977975  66.6881648  47.5646724  55.1296499  67.3660667
  46.4819322  54.1466015  66.9747007  48.4403841  37.1902577  55.3563453
  47.5633307  37.0691377  54.9925700  48.9161594  36.3988655  55.1042342
  58.3076834  45.6455645  72.1261909  57.4203613  45.3081566  72.2488308
  58.8775385  44.9138676  72.3630674  39.9605981  41.9779736  65.4504960
  40.6477021  41.6641466  64.8625976  39.8054110  42.8821101  65.1772212
  44.7640703  36.8669933  69.8789984  44.6798892  36.2595603  69.1440394
  43.9423410  37.3578951  69.8799480  51.8377988  50.3057097  69.0923152
  51.7648159  51.1112069  69.6042457  51.3955381  50.5049063  68.2671174
  51.6267767  49.5428867  62.6025974  50.8435289  50.0850547  62.6964198
  52.3260512  50.0602847  63.0020215  54.9364417  35.3523497  65.2460179
  55.4333117  34.5993459  64.9261249  54.1651399  35.3887813  64.6803388
  62.7894175  41.0563862  66.8878471  62.7784051  41.9388577  66.5172404
  61.9211554  40.7035413  66.6933008  54.2976671  50.2043931  71.2481311
  55.0104643  50.8391396  71.1757212  53.8066700  50.3007797  70.4321313
  56.0194198  44.1095184  62.8198602  55.0850477  44.2296646  62.6503307
  56.1970866  43.2067651  62.5558612  51.5199386  37.4940880  64.9731864
  51.1497174  36.9411920  65.6612769  52.0158479  36.8899013  64.4206864
  59.4066749  39.9512503  63.3548637  59.8727202  40.7840495  63.2808939
  59.8574250  39.4857485  64.0593895  49.3488585  47.9538375  72.0686882
  50.0498044  48.5874857  72.2216276  48.8783700  48.2953106  71.3082521
  57.4742980  46.2956324  60.3534789  57.7502824  46.1812919  61.2628663
  56.6047479  45.8973809  60.3146962  57.3783412  32.3193090  67.3939538
  56.4646492  32.5497317  67.5621745  57.8076514  32.4031534  68.2453570
  57.1489871  40.5082982  69.8939432  56.4961321  40.7558889  69.2391885
  57.5270251  39.6947120  69.5601909  54.1097044  50.5442675  63.9967602
  54.2919439  49.7264331  64.4595355  54.9330031  50.7610367  63.5592492
  54.4439210  49.4710860  61.2582651  54.9726976  48.9603315  60.6452813
  54.7067430  49.1553390  62.1228184  53.1977444  41.2502793  76.3805469
  52.5218081  41.1496922  77.0507844  54.0205078  41.0942007  76.8441466
  44.9456303  47.4874730  69.0017984  45.5309740  46.7418417  69.1345889
  44.7481141  47.7978686  69.8854648  47.7994958  50.5225977  64.0180427
  47.1305333  51.0072105  63.5344467  47.6607828  50.7695197  64.9323805
  39.5373957  40.0580330  67.7222427  39.5758057  39.5243920  68.5159546
  39.0314250  39.5315535  67.1033405  51.9400227  52.5569720  70.6163085
  52.4918535  52.7201342  71.3812170  52.2806420  53.1474158  69.9443110
  46.9164720  34.9044870  71.2184970  46.9806046  35.7659701  70.8062367
  46.8531840  34.2918872  70.4857328  46.3916992  36.9768003  74.8658004
  47.0189031  36.5945080  75.4795528  45.5344911  36.7582205  75.2313697
  43.1682535  38.7844432  60.7976359  43.4635976  37.8755110  60.7443413
  42.2670571  38.7632171  60.4757361  55.0768614  50.5051696  67.6026767
  54.9519753  49.7041436  67.0937713  55.7347705  50.9997889  67.1140737
  46.6976782  36.8600429  66.7803907  45.9763368  37.4736396  66.6411381
  47.4870038  37.3958193  66.7020553  57.1403522  48.3060716  69.2306317
  56.1933858  48.1866067  69.1584644  57.4886295  47.4183214  69.3132579
  49.5003096  34.1954855  73.0544559  50.0237497  34.4417152  73.8170869
  49.2815429  35.0274890  72.6347697  44.8970377  36.4658530  60.9215684
  44.5683083  35.5855909  60.7390790  45.2509747  36.4106198  61.8092073
  54.1449955  48.1013432  65.4310670  53.9974918  47.1730140  65.6118240
  54.9703449  48.1233523  64.9467745  48.0112200  36.7531499  61.2891162
  48.3508272  37.2817421  60.5669770  48.4584320  37.0911906  62.0649728
  57.7484077  48.9241991  66.5175542  58.6730625  48.7184852  66.3799993
  57.5799381  48.6758392  67.4264884  50.7055641  35.1368550  70.7394230
  50.3652461  34.3376363  71.1414910  49.9994647  35.4370261  70.1671063
  51.3572112  32.2217863  69.1921553  52.1798182  31.7478341  69.0700443
  51.6010176  33.0008346  69.6920239  49.9980347  35.2506121  59.4884454
  50.7188709  35.6287374  58.9848171  49.3745651  35.9694998  59.5919432
  54.1411470  35.9551270  60.4242787  54.3575084  36.8375908  60.1231615
  53.6605537  35.5637483  59.6948429  48.8810691  38.9136983  67.0013531
  48.7355272  39.2277286  67.8937813  48.4035895  39.5321884  66.4484430
  50.7407074  35.9039531  67.0494421  50.7268643  35.0080624  66.7126719
  51.4579502  35.9110195  67.6832707  52.5933205  36.3376871  69.0947548
  52.3350983  37.2593942  69.0931879  52.0618245  35.9407306  69.7848013
  57.5379394  49.4427658  61.8737634  57.7116271  48.8774081  61.1211486
  58.0308285  50.2428553  61.6917124  43.3556353  41.4542328  69.9401193
  42.8109821  42.2302136  70.0721467  44.2335703  41.8013132  69.7820314
  50.1443970  34.7853911  62.3181991  50.2659881  33.8570558  62.5172879
  49.8546012  34.7992597  61.4060307  53.0135160  32.4708822  65.4548711
  53.0356857  32.5348155  64.5000690  53.4303219  31.6313331  65.6489217
  63.3918785  42.2064081  63.4927933  63.8349931  41.4571407  63.0947057
  62.5145295  42.1974218  63.1101665  58.5254566  48.7594423  58.9734532
  59.2205471  49.3801116  59.1921847  58.8677716  47.9089774  59.2486910
  44.1422375  40.5812224  72.8331349  43.4004111  40.7294859  73.4195980
  43.8215119  40.8420489  71.9698099  60.4245989  46.2094128  60.5021863
  60.9497313  46.5481401  59.7771183  60.3368342  45.2741144  60.3184997
  52.0866038  50.1228202  72.6311739  52.3953164  49.8777349  73.5034439
  52.8841520  50.3274841  72.1430610  52.1086650  52.2766112  64.8617116
  51.6691640  51.7842490  65.5549973  52.8594767  51.7339079  64.6209191
  44.5878989  48.4677653  64.8641744  45.4137009  48.1681424  64.4840388
  44.2373041  47.6985275  65.3131533  49.5560522  47.8204121  66.9339418
  48.9340531  47.1574826  66.6341646  50.2265389  47.8465253  66.2513065
  42.7887594  46.3863979  65.8230678  41.9519502  45.9586153  65.6414679
  42.7611239  46.5796422  66.7601469  49.6285050  36.2985909  76.5271924
  49.6773205  37.1748032  76.1449693  50.1707564  35.7563302  75.9543567
  49.1174029  46.3708044  60.4097878  49.2662149  47.0543509  59.7564551
  49.9240472  46.3513134  60.9247334  57.5241533  39.6750426  74.4365096
  58.4251395  39.5356891  74.1449094  57.5989507  39.8404881  75.3763273
  51.8584338  37.0517281  73.2818282  50.9887647  37.3450847  73.0100871
  52.0943818  37.6357726  74.0025546  62.9351649  43.6769320  65.8850381
  63.7698541  44.1159124  66.0487941  63.0710778  43.2007973  65.0658627
  46.8726662  42.3973222  61.4158947  46.6272704  41.4935552  61.6139157
  47.0422576  42.3990372  60.4738425  54.5623372  33.2696898  70.7983703
  55.0805316  34.0057925  70.4730191  54.2078505  33.5760891  71.6330462
  46.1422309  38.1301579  58.9145109  45.4491554  38.2045934  58.2585145
  45.8974061  37.3661923  59.4366625  54.8135966  29.6897181  66.3184599
  55.0937720  29.0220370  66.9445026  55.5986573  29.8826276  65.8059263
  52.6169434  48.8656175  57.8809626  52.0443402  49.4846362  57.4280097
  53.1902228  49.4155536  58.4149548  58.6844824  38.1114815  70.0656174
  59.6362247  38.2112912  70.0868398  58.5148275  37.3193083  70.5754259
  56.7059204  35.1970398  70.2515575  56.1109136  35.4775411  69.5562064
  56.4208900  35.6864299  71.0232316  55.8366694  49.1493325  59.0118208
  56.7697367  49.0838886  59.2151083  55.7489907  49.9849592  58.5532741
  58.4654711  48.4659195  55.9722155  58.3868342  48.1319059  56.8657913
  59.2864378  48.9580963  55.9713628  61.1632902  41.3320934  69.1798474
  61.1309222  40.3936935  69.3658158  61.7733526  41.4104971  68.4464299
  53.0016233  40.2016987  55.2225678  53.9475338  40.0723195  55.2914096
  52.6230478  39.4631649  55.6995106  61.3127391  38.1231978  69.2256757
  60.7966439  37.3390434  69.0386686  62.1967339  37.7950694  69.3903277
  58.9738118  31.8672993  65.1852570  58.7762939  31.5588082  66.0695902
  59.5837823  32.5934632  65.3150500  66.9809452  42.3936941  68.3204511
  67.7112840  42.1322229  68.8812214  66.3716397  41.6565663  68.3606579
  65.0624749  40.5344804  68.9178962  64.3357913  40.4000769  68.3095454
  64.6472036  40.8421632  69.7235680  52.8854926  44.2534733  76.6826335
  53.8057935  44.4313332  76.8766382  52.8504509  43.3090779  76.5306034
  51.1859150  38.1266964  55.1580563  50.2790606  37.8300076  55.2343277
  51.4635131  37.8296782  54.2914850  42.1037090  39.4473327  65.6079610
  41.7839875  38.5938635  65.3153984  41.5570519  39.6621905  66.3637577
  45.8816998  42.1635768  69.3249116  46.1003008  43.0952876  69.3437150
  46.2942772  41.8043743  70.1103920  52.8021216  32.6703853  61.3124805
  51.9921944  32.3250938  61.6880051  53.4905633  32.3611397  61.9012416
  54.7311764  31.7481900  62.9349101  55.2842803  32.1677354  63.5939124
  54.9681850  30.8217648  62.9772057  50.7544863  37.7368974  78.7151865
  50.6541590  38.6863331  78.6463956  50.5366405  37.4087213  77.8427935
  49.9557935  34.9853899  55.2992543  50.8177099  35.3108797  55.5588360
  50.1408279  34.1985395  54.7865608  41.9725351  43.0676239  67.5772731
  41.2788822  42.6530191  67.0642686  42.7198342  43.1096775  66.9806150
  58.1090571  33.8582425  62.4427766  57.5289240  34.5167229  62.0605818
  57.8426504  33.0359770  62.0315183  56.5594138  33.2587483  64.6449086
  57.0593916  33.3704018  63.8363405  57.2029746  32.9548536  65.2849894
  50.6176133  41.1666113  77.5316927  50.1343215  41.9666473  77.7380816
  50.7037072  41.1774058  76.5784371  43.8862093  42.9994492  65.4538746
  43.8632781  43.0982180  64.5020629  44.1962730  43.8459643  65.7755912
  46.5449471  45.0570647  69.5685361  47.4992724  45.0254590  69.5015292
  46.3461994  44.5961271  70.3835587  47.1348853  43.6271763  72.1356158
  47.9541742  44.1215842  72.1590996  47.4085661  42.7103732  72.1073726
  56.8915449  36.0182516  61.4984114  56.0041304  36.3032166  61.2804309
  57.3069438  35.8576279  60.6511391  60.2429985  36.0429037  65.2138453
  61.0190375  36.5325489  65.4863070  59.5178120  36.4687091  65.6710323
  62.6802544  36.7556656  66.2712394  63.2747035  36.5152392  65.5605702
  62.7529128  36.0363787  66.8985930  44.8999700  50.5990267  66.5855558
  44.7654168  49.8390668  66.0193557  44.4831762  51.3231167  66.1184347
  56.0358663  45.7827190  55.5932134  56.7394513  45.9877193  56.2089789
  55.3121311  46.3503952  55.8581217  56.8656473  41.5337052  61.7134404
  56.8091674  41.9905603  60.8742036  57.4184815  40.7727736  61.5357247
  60.6761279  37.3226784  62.5384523  60.4198213  36.9223419  63.3692731
  60.0514147  38.0370578  62.4134663  64.9873617  40.0622857  65.0455815
  64.4273175  40.1316046  65.8187377  64.3817120  39.8863841  64.3255311
  48.0568826  51.4959584  66.7974001  47.9401210  52.4405016  66.6952691
  47.2361272  51.1933145  67.1859800  57.9445360  46.2209720  57.6430594
  58.7790964  45.7890918  57.4608069  57.7829703  46.0491733  58.5707488
  57.5991252  42.7241833  59.0086933  57.5440056  42.5586104  58.0675377
  56.9737308  43.4317866  59.1649123  42.3883767  37.9609897  72.8348355
  43.0342631  37.4508851  73.3235581  42.1800918  38.6978579  73.4091781
  50.9087378  32.2249942  58.5872252  50.8966048  33.1691782  58.7440522
  51.8010800  32.0420087  58.2931713  49.0823340  52.1487846  70.0129930
  49.9850586  52.1811456  70.3296425  48.8560710  51.2188297  70.0276265
  50.8376942  50.9018832  66.6740008  49.8872573  50.9020694  66.5604380
  51.1409428  50.1551567  66.1576043  54.7239497  28.8192719  62.8418188
  53.9571893  28.2651205  62.9874871  55.1350202  28.8914587  63.7032340
  46.7281258  35.1077514  76.9323370  47.5912720  34.7514319  77.1426694
  46.1546669  34.7691409  77.6198774  66.5729635  56.7379371  67.7385771
  67.2108045  56.6186118  67.0349111  66.4550478  57.6860215  67.7973723
  63.3819341  56.6906799  67.6747295  63.0437853  56.5747864  66.7867830
  64.2509110  56.2897964  67.6548301  59.2406157  58.5442275  63.6644186
  58.6771022  58.4532212  62.8960474  59.1258552  57.7242180  64.1446679
  63.8639124  57.8441651  73.6333501  63.8527765  57.4494449  72.7614004
  64.0259764  57.1107723  74.2267272  56.7870589  60.0393467  66.5028407
  57.5791881  59.6984292  66.0874706  57.0267239  60.1488442  67.4230560
  64.8205716  62.2113243  58.9758651  64.1693696  62.7967323  58.5892665
  65.6150079  62.7419438  59.0353689  58.7461343  59.3002380  59.3745785
  59.5192219  58.7531367  59.2358661  59.0986742  60.1646629  59.5860247
  61.5102592  58.0055611  69.1714044  62.1066165  57.7811633  68.4571007
  61.5677564  57.2640356  69.7739492  61.0827621  55.4595046  57.0064235
  61.3353142  54.9376568  56.2447698  60.1452180  55.2961192  57.1090919
  66.1270904  54.4630825  64.8138979  66.9133993  54.0450248  64.4629396
  66.3909608  55.3676917  64.9820627  66.2980981  59.9003675  59.5127635
  65.6626814  59.9738301  60.2248540  65.9678387  60.4897274  58.8346715
  71.5279331  54.4006058  65.7171957  72.2604503  53.8305275  65.9509787
  70.7718687  54.0127658  66.1578463  60.8023910  57.3623152  59.2088610
  60.6860168  56.6868056  59.8769695  60.9126170  56.8755526  58.3920763
  63.1455451  56.8233299  62.9135300  62.7813658  56.2963920  63.6248221
  64.0022566  56.4331768  62.7401785  69.0504751  48.1127632  70.1766566
  68.7188076  48.9823043  69.9527781  68.4550365  47.7963916  70.8560596
  62.7860938  51.8523199  57.9096648  62.9535340  52.7203435  58.2767119
  62.5958107  52.0150481  56.9857937  65.5436271  60.3140178  69.5762478
  65.2436994  61.2165217  69.4678286  65.1987330  60.0472361  70.4283631
  58.9948752  56.7653975  65.6099183  58.0699249  56.6330189  65.8176875
  59.2433165  57.5448194  66.1069125  68.9433414  52.8322718  67.2559916
  68.0350292  52.7638127  66.9618677  68.8921010  53.3094663  68.0841741
  62.7650158  54.3080857  58.8943315  62.6449784  54.7537907  59.7328795
  62.0702747  54.6566174  58.3356853  56.3557563  56.4087248  66.4442972
  56.4849944  56.6621727  67.3582384  55.6755015  57.0014956  66.1247627
  60.5257051  67.0784498  62.5433446  60.4481080  68.0292323  62.6221927
  59.9218694  66.7330371  63.2008372  70.8095061  51.0339157  69.0337790
  70.1669441  51.3271690  68.3877584  70.3049989  50.9192077  69.8390986
  68.4635225  54.7802330  59.7223649  69.3753081  55.0129716  59.5471347
  67.9544872  55.3639374  59.1598728  61.2720653  57.0597817  74.7612780
  62.0135337  57.5982861  74.4847604  60.5657638  57.6864106  74.9184332
  66.7475992  59.2026958  73.3584942  67.1559348  58.7609368  72.6139574
  66.0253254  58.6279585  73.6119134  67.0704807  59.7628148  67.1137230
  66.4413669  59.9273862  66.4113298  66.6830469  60.1769758  67.8848194
  70.9494039  60.6982586  64.4681594  70.2645077  61.0781487  63.9178628
  71.0337888  61.3077913  65.2013542  68.2044970  58.3442545  71.0676938
  68.4161866  58.9874305  70.3911319  68.1574719  57.5104862  70.5998868
  65.8071199  50.9560366  67.9713510  64.9455678  51.2541619  68.2630247
  65.8333634  51.1730765  67.0394543  62.6232769  59.5002556  64.3787316
  63.0871114  59.7790259  63.5891938  62.3589567  58.5986001  64.1960406
  59.5156850  59.0474038  67.3167079  60.0858207  59.4761306  66.6784563
  60.1064962  58.7656622  68.0151264  61.5601655  55.6225709  61.1876881
  62.2625698  56.0746752  61.6550807  61.2282283  54.9809527  61.8156774
  55.3026989  53.8809261  66.4894014  54.5126043  54.1366790  66.0134125
  55.7938236  54.6957599  66.5946055  57.2541734  54.2453841  63.4477491
  56.4572897  54.3572535  63.9660987  57.0267326  54.5840493  62.5818381
  63.0847402  60.7698544  71.3960006  63.1491834  61.2318951  72.2318177
  62.3758326  60.1395909  71.5242315  53.5864692  54.1339752  68.9209005
  53.8372730  55.0186762  69.1866581  54.1224240  53.9544353  68.1484097
  62.7995419  62.4366651  61.2638986  62.6641094  63.2818187  61.6923834
  63.3405232  62.6385929  60.5004920  56.2524817  59.9542089  61.8366911
  56.7649337  60.7485340  61.9872476  56.9047530  59.2568380  61.7700512
  58.0619702  63.0707846  63.9189664  58.2386330  63.9925810  63.7310648
  58.8576535  62.7566265  64.3484044  57.3472058  55.1172477  73.7951827
  57.2325573  54.2157735  74.0958926  56.4916576  55.3636174  73.4436644
  59.1851017  64.5886019  69.9200006  59.7358442  64.4603083  69.1477000
  58.3462493  64.8880908  69.5694899  66.1487883  45.9597213  69.7937879
  65.8052152  46.8498855  69.7176990  66.5166846  45.7698871  68.9307464
  54.2173734  58.2830744  62.6126482  55.0548956  58.6927752  62.3960189
  54.3952001  57.3430186  62.5826675  66.1138166  55.9505824  58.3010314
  65.5984789  56.7210429  58.5398702  65.8415474  55.2770960  58.9243376
  63.6985277  50.7955525  63.3595553  62.8426873  50.4062375  63.1801192
  64.1112229  50.8747486  62.4995338  65.2284423  48.3301868  67.7587113
  64.7249219  48.2932003  66.9454918  65.5215030  49.2394611  67.8183769
  61.4727309  48.4140598  66.7653294  62.3380306  48.2183407  66.4059184
  61.5404818  48.1850950  67.6922651  71.0872440  58.7038179  60.2363488
  70.3101883  58.3649338  59.7918650  71.7663921  58.7090802  59.5618453
  65.9024469  53.8232916  60.1270096  65.5974604  54.1379065  60.9780239
  66.8554911  53.9014336  60.1697429  64.3470901  59.9823140  61.7763050
  63.8192262  59.2475899  61.4636287  63.8458403  60.7597816  61.5303018
  69.3263747  58.1772160  66.8930096  68.6687421  58.8671422  66.9810225
  70.1304146  58.5668592  67.2364082  59.0789628  50.6442806  64.1369661
  59.6533380  50.4217987  63.4042854  59.6660611  50.7131500  64.8898262
  68.1369206  56.5316533  64.9434038  68.6501087  57.1646525  65.4455747
  68.7870429  55.9317728  64.5777398  59.4059215  52.6747267  58.1565546
  58.5696528  53.0121953  58.4774821  59.2663985  52.5396247  57.2192683
  61.3812296  47.5184055  62.8644731  60.7276708  47.2033072  62.2401345
  61.3392770  46.8959795  63.5904554  62.4923501  57.8003350  54.7798023
  61.5850563  57.5692603  54.9789172  62.9894533  57.0040969  54.9672004
  65.3991580  66.5100857  57.6994709  64.7253279  66.8132554  58.3079667
  65.7857402  67.3129937  57.3500166  64.6150036  54.0065988  67.1892378
  63.6972598  54.2280935  67.0314066  65.0310180  54.0812299  66.3304086
  65.3985084  55.4057404  62.3195058  66.1456903  55.9178801  62.0102181
  65.6676674  55.0841457  63.1799452  63.6711734  57.9015945  59.3022013
  62.7622954  57.6174978  59.3994483  63.7006818  58.3215023  58.4425320
  68.9031002  61.5122534  63.0713180  68.4493329  60.6713444  63.1278371
  68.2724968  62.1483933  63.4087960  67.8463921  52.4414520  64.3013848
  67.1086678  51.9291906  64.6324090  68.0990695  52.0014902  63.4897125
  67.3463941  63.3499031  64.0062998  67.6386915  63.9104088  63.2875364
  67.8562562  63.6427592  64.7616158  67.9475549  45.2190772  64.8955617
  68.2534425  44.3588136  64.6081532  68.6728153  45.8108392  64.6954611
  54.2399905  55.6221459  63.2837215  54.0424305  55.0290820  62.5588282
  53.6846569  55.3173669  64.0013154  62.2196628  55.5144565  65.4031808
  62.2745238  54.5618402  65.3274285  61.4087830  55.6704004  65.8873107
  63.3687822  59.4424688  56.6410091  62.9307252  58.7260547  56.1815729
  64.1098263  59.6700803  56.0795183  60.1588988  54.1321625  63.1622187
  59.3456854  54.4315796  63.5687379  60.6547982  53.7377314  63.8796669
  62.3097566  64.1279382  65.0956452  62.2673745  64.3540228  64.1664984
  63.2260265  63.8942757  65.2442253  71.4860937  57.7181885  62.6986410
  71.3478836  57.9083481  61.7707599  71.1297156  58.4801268  63.1554461
  59.6503063  51.7039981  68.7783422  60.2902442  51.5628740  68.0806385
  58.8180594  51.4174494  68.4022024  71.5130317  59.7858412  67.7097681
  71.9466823  59.6933702  68.5580735  72.2261897  59.7615913  67.0717697
  60.4263367  61.0042411  64.8918414  61.2203965  60.5092731  64.6900989
  59.7155059  60.4760274  64.5286120  65.2458211  63.3860507  69.2430782
  65.2995234  63.9551443  70.0108498  64.3772993  63.5562392  68.8784819
  56.7346130  55.1485493  60.9678167  55.8043719  55.0869948  61.1848129
  56.8303602  54.6261446  60.1714808  56.6531679  51.6740306  63.5556409
  56.9138497  52.5885639  63.4465569  57.4748852  51.2064748  63.7053022
  58.1256605  53.0878063  70.7255233  58.7979658  52.8795425  70.0767882
  57.2986391  52.8900149  70.2860466  64.2046311  57.5520769  70.8017714
  65.1338371  57.7031928  70.6286681  63.7837341  57.6404789  69.9466360
  63.0034643  61.5771433  68.5716251  62.8645729  61.2090217  69.4442190
  62.2149239  62.0919072  68.4000209  63.5982795  66.6780529  59.9141788
  63.7734551  66.2068573  60.7287411  62.9115583  67.3046296  60.1423049
  64.5539858  60.9553036  65.9605089  64.2189691  60.9153806  66.8562739
  64.0543804  60.2897752  65.4875500  58.5284102  56.3620666  71.4857670
  58.3903900  55.6300905  72.0869209  59.4389026  56.2729566  71.2041858
  67.4899050  58.3009070  56.2342149  66.8728220  57.5755898  56.1375202
  67.0215538  59.0618430  55.8909223  61.1566403  56.0740625  70.9741350
  61.8666021  55.4333817  70.9327969  61.1135711  56.3253520  71.8967531
  58.1643880  69.8269892  66.6881648  58.4040478  70.4588416  67.3660667
  57.3213077  69.4757932  66.9747007  59.2797596  52.5194494  55.3563453
  58.4027062  52.3983295  54.9925700  59.7555349  51.7280573  55.1042342
  50.7999736  57.3071654  65.4504960  51.4870776  56.9933384  64.8625976
  50.6447864  58.2113019  65.1772212  55.6034458  52.1961851  69.8789984
  55.5192647  51.5887520  69.1440394  54.7817164  52.6870869  69.8799480
  62.6771742  65.6349015  69.0923152  62.6041914  66.4403986  69.6042457
  62.2349135  65.8340981  68.2671174  62.4661522  64.8720785  62.6025974
  61.6829044  65.4142465  62.6964198  63.1654267  65.3894764  63.0020215
  65.7758172  50.6815414  65.2460179  66.2726871  49.9285377  64.9261249
  65.0045153  50.7179731  64.6803388  66.8587953  59.4387101  62.8198602
  65.9244231  59.5588564  62.6503307  67.0364621  58.5359568  62.5558612
  62.3593141  52.8232797  64.9731864  61.9890928  52.2703838  65.6612769
  62.8552233  52.2190931  64.4206864  70.2460504  55.2804421  63.3548637
  70.7120956  56.1132412  63.2808939  70.6968004  54.8149402  64.0593895
  68.3136735  61.6248242  60.3534789  68.5896579  61.5104837  61.2628663
  67.4441234  61.2265727  60.3146962  68.2177167  47.6485008  67.3939538
  67.3040246  47.8789235  67.5621745  68.6470268  47.7323452  68.2453570
  67.9883625  55.8374900  69.8939432  67.3355075  56.0850807  69.2391885
  68.3664005  55.0239038  69.5601909  64.9490799  65.8734593  63.9967602
  65.1313194  65.0556249  64.4595355  65.7723785  66.0902285  63.5592492
  65.2832964  64.8002778  61.2582651  65.8120731  64.2895233  60.6452813
  65.5461184  64.4845308  62.1228184  55.7850057  62.8166647  69.0017984
  56.3703494  62.0710335  69.1345889  55.5874896  63.1270604  69.8854648
  58.6388712  65.8517895  64.0180427  57.9699088  66.3364022  63.5344467
  58.5001582  66.0987115  64.9323805  50.3767712  55.3872247  67.7222427
  50.4151811  54.8535838  68.5159546  49.8708005  54.8607453  67.1033405
  57.7558474  50.2336788  71.2184970  57.8199801  51.0951619  70.8062367
  57.6925594  49.6210790  70.4857328  57.2310747  52.3059921  74.8658004
  57.8582786  51.9236998  75.4795528  56.3738666  52.0874122  75.2313697
  54.0076290  54.1136350  60.7976359  54.3029731  53.2047028  60.7443413
  53.1064325  54.0924089  60.4757361  65.9162368  65.8343614  67.6026767
  65.7913508  65.0333354  67.0937713  66.5741459  66.3289807  67.1140737
  57.5370537  52.1892346  66.7803907  56.8157122  52.8028314  66.6411381
  58.3263792  52.7250111  66.7020553  60.3396850  49.5246773  73.0544559
  60.8631252  49.7709069  73.8170869  60.1209183  50.3566808  72.6347697
  55.7364131  51.7950447  60.9215684  55.4076837  50.9147826  60.7390790
  56.0903502  51.7398116  61.8092073  64.9843710  63.4305350  65.4310670
  64.8368672  62.5022057  65.6118240  65.8097203  63.4525441  64.9467745
  58.8505954  52.0823417  61.2891162  59.1902027  52.6109338  60.5669770
  59.2978075  52.4203823  62.0649728  68.5877832  64.2533909  66.5175542
  69.5124379  64.0476770  66.3799993  68.4193135  64.0050310  67.4264884
  61.5449395  50.4660468  70.7394230  61.2046215  49.6668281  71.1414910
  60.8388401  50.7662179  70.1671063  62.1965867  47.5509780  69.1921553
  63.0191936  47.0770258  69.0700443  62.4403930  48.3300264  69.6920239
  60.8374101  50.5798039  59.4884454  61.5582464  50.9579291  58.9848171
  60.2139406  51.2986915  59.5919432  64.9805224  51.2843188  60.4242787
  65.1968839  52.1667826  60.1231615  64.4999291  50.8929401  59.6948429
  59.7204446  54.2428901  67.0013531  59.5749026  54.5569204  67.8937813
  59.2429649  54.8613801  66.4484430  61.5800829  51.2331449  67.0494421
  61.5662397  50.3372542  66.7126719  62.2973257  51.2402113  67.6832707
  63.4326959  51.6668789  69.0947548  63.1744737  52.5885860  69.0931879
  62.9012000  51.2699224  69.7848013  68.3773148  64.7719576  61.8737634
  68.5510026  64.2065999  61.1211486  68.8702039  65.5720471  61.6917124
  54.1950108  56.7834245  69.9401193  53.6503576  57.5594053  70.0721467
  55.0729458  57.1305050  69.7820314  60.9837724  50.1145829  62.3181991
  61.1053636  49.1862475  62.5172879  60.6939767  50.1284515  61.4060307
  63.8528915  47.8000740  65.4548711  63.8750612  47.8640073  64.5000690
  64.2696974  46.9605248  65.6489217  74.2312539  57.5355999  63.4927933
  74.6743685  56.7863324  63.0947057  73.3539049  57.5266135  63.1101665
  69.3648321  64.0886341  58.9734532  70.0599225  64.7093033  59.1921847
  69.7071471  63.2381692  59.2486910  71.2639744  61.5386046  60.5021863
  71.7891068  61.8773319  59.7771183  71.1762096  60.6033061  60.3184997
  62.9480404  67.6058029  64.8617116  62.5085395  67.1134408  65.5549973
  63.6988521  67.0630997  64.6209191  55.4272743  63.7969570  64.8641744
  56.2530763  63.4973342  64.4840388  55.0766795  63.0277193  65.3131533
  60.3954277  63.1496038  66.9339418  59.7734286  62.4866743  66.6341646
  61.0659143  63.1757170  66.2513065  53.6281348  61.7155897  65.8230678
  52.7913257  61.2878071  65.6414679  53.6004994  61.9088340  66.7601469
  59.9567783  61.6999962  60.4097878  60.1055904  62.3835426  59.7564551
  60.7634227  61.6805052  60.9247334  73.7745404  59.0061237  65.8850381
  74.6092295  59.4451041  66.0487941  73.9104533  58.5299891  65.0658627
  70.8236910  56.5640972  71.8327869  71.2991031  56.7568619  71.0246720
  69.9002475  56.6200158  71.5871252  57.7120416  57.7265139  61.4158947
  57.4666458  56.8227469  61.6139157  57.8816331  57.7282290  60.4738425
  65.4017126  48.5988816  70.7983703  65.9199070  49.3349843  70.4730191
  65.0472259  48.9052809  71.6330462  56.9816064  53.4593497  58.9145109
  56.2885309  53.5337852  58.2585145  56.7367816  52.6953841  59.4366625
  65.6529720  45.0189098  66.3184599  65.9331474  44.3512287  66.9445026
  66.4380327  45.2118194  65.8059263  63.4563189  64.1948092  57.8809626
  62.8837156  64.8138279  57.4280097  64.0295983  64.7447454  58.4149548
  69.5238579  53.4406732  70.0656174  70.4756002  53.5404830  70.0868398
  69.3542029  52.6485001  70.5754259  67.5452958  50.5262316  70.2515575
  66.9502890  50.8067328  69.5562064  67.2602655  51.0156216  71.0232316
  66.6760449  64.4785242  59.0118208  67.6091122  64.4130804  59.2151083
  66.5883662  65.3141509  58.5532741  69.3048465  63.7951113  55.9722155
  69.2262097  63.4610976  56.8657913  70.1258132  64.2872881  55.9713628
  72.0026657  56.6612852  69.1798474  71.9702977  55.7228853  69.3658158
  72.6127280  56.7396889  68.4464299  63.8409987  55.5308905  55.2225678
  64.7869092  55.4015113  55.2914096  63.4624232  54.7923567  55.6995106
  72.1521145  53.4523895  69.2256757  71.6360194  52.6682352  69.0386686
  73.0361094  53.1242612  69.3903277  69.8131872  47.1964911  65.1852570
  69.6156693  46.8879999  66.0695902  70.4231578  47.9226550  65.3150500
  62.0252905  53.4558881  55.1580563  61.1184360  53.1591994  55.2343277
  62.3028886  53.1588699  54.2914850  52.9430845  54.7765245  65.6079610
  52.6233629  53.9230553  65.3153984  52.3964273  54.9913823  66.3637577
  56.7210753  57.4927686  69.3249116  56.9396762  58.4244794  69.3437150
  57.1336526  57.1335660  70.1103920  63.6414970  47.9995771  61.3124805
  62.8315699  47.6542856  61.6880051  64.3299387  47.6903315  61.9012416
  65.5705519  47.0773818  62.9349101  66.1236557  47.4969271  63.5939124
  65.8075605  46.1509566  62.9772057  60.7951689  50.3145817  55.2992543
  61.6570853  50.6400715  55.5588360  60.9802033  49.5277313  54.7865608
  52.8119105  58.3968156  67.5772731  52.1182576  57.9822109  67.0642686
  53.5592096  58.4388693  66.9806150  68.9484326  49.1874343  62.4427766
  68.3682995  49.8459147  62.0605818  68.6820258  48.3651688  62.0315183
  67.3987892  48.5879401  64.6449086  67.8987670  48.6995935  63.8363405
  68.0423500  48.2840454  65.2849894  54.7255848  58.3286410  65.4538746
  54.7026536  58.4274097  64.5020629  55.0356484  59.1751561  65.7755912
  57.3843225  60.3862565  69.5685361  58.3386479  60.3546507  69.5015292
  57.1855749  59.9253189  70.3835587  57.9742608  58.9563681  72.1356158
  58.7935497  59.4507760  72.1590996  58.2479415  58.0395649  72.1073726
  67.7309204  51.3474433  61.4984114  66.8435059  51.6324084  61.2804309
  68.1463193  51.1868197  60.6511391  71.0823740  51.3720954  65.2138453
  71.8584130  51.8617407  65.4863070  70.3571874  51.7979009  65.6710323
  55.7393454  65.9282185  66.5855558  55.6047922  65.1682585  66.0193557
  55.3225516  66.6523084  66.1184347  66.8752417  61.1119108  55.5932134
  67.5788267  61.3169111  56.2089789  66.1515066  61.6795870  55.8581217
  67.7050227  56.8628969  61.7134404  67.6485429  57.3197521  60.8742036
  68.2578570  56.1019654  61.5357247  71.5155033  52.6518701  62.5384523
  71.2591968  52.2515337  63.3692731  70.8907901  53.3662495  62.4134663
  58.8962580  66.8251502  66.7974001  58.7794964  67.7696934  66.6952691
  58.0755026  66.5225063  67.1859800  68.7839115  61.5501637  57.6430594
  69.6184719  61.1182836  57.4608069  68.6223458  61.3783651  58.5707488
  68.4385007  58.0533751  59.0086933  68.3833811  57.8878022  58.0675377
  67.8131062  58.7609784  59.1649123  53.2277522  53.2901815  72.8348355
  53.8736385  52.7800769  73.3235581  53.0194673  54.0270497  73.4091781
  61.7481132  47.5541860  58.5872252  61.7359802  48.4983700  58.7440522
  62.6404554  47.3712005  58.2931713  59.9217094  67.4779764  70.0129930
  60.8244341  67.5103374  70.3296425  59.6954464  66.5480214  70.0276265
  61.6770696  66.2310750  66.6740008  60.7266327  66.2312612  66.5604380
  61.9803182  65.4843485  66.1576043  65.5633252  44.1484636  62.8418188
  64.7965648  43.5943123  62.9874871  65.9743957  44.2206505  63.7032340
  70.0799912  73.8734193  63.6644186  69.5164777  73.7824130  62.8960474
  69.9652307  73.0534097  64.1446679  67.6264344  75.3685385  66.5028407
  68.4185636  75.0276209  66.0874706  67.8660994  75.4780360  67.4230560
  71.4240140  75.9570680  72.5812685  71.1330006  76.8616311  72.4659351
  72.0597124  75.9987208  73.2956754  71.9221375  70.7886964  57.0064235
  72.1746896  70.2668485  56.2447698  70.9845934  70.6253109  57.1090919
  73.6254692  67.1815117  57.9096648  73.7929094  68.0495353  58.2767119
  73.4351861  67.3442398  56.9857937  69.8342507  72.0945892  65.6099183
  68.9093003  71.9622107  65.8176875  70.0826920  72.8740112  66.1069125
  73.6043913  69.6372774  58.8943315  73.4843538  70.0829825  59.7328795
  72.9096501  69.9858092  58.3356853  67.1951318  71.7379166  66.4442972
  67.3243699  71.9913645  67.3582384  66.5148769  72.3306874  66.1247627
  70.3550604  74.3765955  67.3167079  70.9251961  74.8053224  66.6784563
  70.9458716  74.0948540  68.0151264  72.3995409  70.9517626  61.1876881
  73.1019453  71.4038670  61.6550807  72.0676038  70.3101445  61.8156774
  66.1420743  69.2101179  66.4894014  65.3519797  69.4658707  66.0134125
  66.6331991  70.0249517  66.5946055  68.0935489  69.5745758  63.4477491
  67.2966652  69.6864452  63.9660987  67.8661081  69.9132410  62.5818381
  64.4258446  69.4631669  68.9209005  64.6766485  70.3478679  69.1866581
  64.9617995  69.2836271  68.1484097  67.0918571  75.2834007  61.8366911
  67.6043092  76.0777257  61.9872476  67.7441284  74.5860297  61.7700512
  65.0567488  73.6122661  62.6126482  65.8942710  74.0219670  62.3960189
  65.2345756  72.6722103  62.5826675  74.5379031  66.1247443  63.3595553
  73.6820628  65.7354293  63.1801192  74.9505983  66.2039403  62.4995338
  76.0678178  63.6593786  67.7587113  75.5642973  63.6223921  66.9454918
  76.3608785  64.5686529  67.8183769  72.3121064  63.7432516  66.7653294
  73.1774061  63.5475324  66.4059184  72.3798573  63.5142867  67.6922651
  69.9183383  65.9734724  64.1369661  70.4927135  65.7509905  63.4042854
  70.5054365  66.0423418  64.8898262  70.2452970  68.0039185  58.1565546
  69.4090282  68.3413871  58.4774821  70.1057740  67.8688164  57.2192683
  72.2206051  62.8475972  62.8644731  71.5670463  62.5324990  62.2401345
  72.1786525  62.2251713  63.5904554  65.0793659  70.9513377  63.2837215
  64.8818059  70.3582737  62.5588282  64.5240323  70.6465587  64.0013154
  73.0590383  70.8436483  65.4031808  73.1138993  69.8910319  65.3274285
  72.2481585  70.9995922  65.8873107  70.9982743  69.4613543  63.1622187
  70.1850608  69.7607713  63.5687379  71.4941737  69.0669232  63.8796669
  70.4896818  67.0331898  68.7783422  71.1296197  66.8920657  68.0806385
  69.6574348  66.7466412  68.4022024  67.5739885  70.4777410  60.9678167
  66.6437473  70.4161866  61.1848129  67.6697357  69.9553363  60.1714808
  67.4925434  67.0032223  63.5556409  67.7532251  67.9177557  63.4465569
  68.3142606  66.5356666  63.7053022  69.3677857  71.6912583  71.4857670
  69.2297654  70.9592822  72.0869209  70.2782780  71.6021484  71.2041858
  70.1191350  67.8486412  55.3563453  69.2420816  67.7275213  54.9925700
  70.5949103  67.0572490  55.1042342  61.6393490  72.6363572  65.4504960
  62.3264530  72.3225302  64.8625976  61.4841619  73.5404936  65.1772212
  66.4428212  67.5253768  69.8789984  66.3586401  66.9179438  69.1440394
  65.6210919  68.0162787  69.8799480  73.1986895  68.1524715  64.9731864
  72.8284683  67.5995755  65.6612769  73.6945988  67.5482848  64.4206864
  66.6243812  78.1458565  69.0017984  67.2097249  77.4002253  69.1345889
  66.4268650  78.4562522  69.8854648  61.2161466  70.7164165  67.7222427
  61.2545566  70.1827756  68.5159546  60.7101759  70.1899371  67.1033405
  64.8470044  69.4428267  60.7976359  65.1423485  68.5338946  60.7443413
  63.9458080  69.4216007  60.4757361  68.3764291  67.5184264  66.7803907
  67.6550877  68.1320232  66.6411381  69.1657547  68.0542029  66.7020553
  66.5757886  67.1242365  60.9215684  66.2470592  66.2439744  60.7390790
  66.9297256  67.0690034  61.8092073  69.6899709  67.4115335  61.2891162
  70.0295781  67.9401256  60.5669770  70.1371829  67.7495741  62.0649728
  73.0359621  62.8801698  69.1921553  73.8585691  62.4062176  69.0700443
  73.2797685  63.6592182  69.6920239  71.6767856  65.9089956  59.4884454
  72.3976218  66.2871209  58.9848171  71.0533160  66.6278833  59.5919432
  70.5598200  69.5720819  67.0013531  70.4142781  69.8861122  67.8937813
  70.0823404  70.1905719  66.4484430  72.4194583  66.5623367  67.0494421
  72.4056152  65.6664460  66.7126719  73.1367011  66.5694030  67.6832707
  65.0343862  72.1126163  69.9401193  64.4897330  72.8885971  70.0721467
  65.9123212  72.4596967  69.7820314  71.8231479  65.4437747  62.3181991
  71.9447390  64.5154393  62.5172879  71.5333521  65.4576433  61.4060307
  66.2666498  79.1261488  64.8641744  67.0924518  78.8265260  64.4840388
  65.9160550  78.3569110  65.3131533  64.4675103  77.0447814  65.8230678
  63.6307011  76.6169989  65.6414679  64.4398748  77.2380258  66.7601469
  68.5514171  73.0557057  61.4158947  68.3060213  72.1519387  61.6139157
  68.7210085  73.0574208  60.4738425  67.8209818  68.7885415  58.9145109
  67.1279063  68.8629770  58.2585145  67.5761570  68.0245758  59.4366625
  74.6803742  70.8600823  55.2225678  75.6262847  70.7307031  55.2914096
  74.3017987  70.1215485  55.6995106  72.8646659  68.7850799  55.1580563
  71.9578114  68.4883912  55.2343277  73.1422640  68.4880617  54.2914850
  63.7824599  70.1057162  65.6079610  63.4627384  69.2522471  65.3153984
  63.2358028  70.3205741  66.3637577  67.5604507  72.8219603  69.3249116
  67.7790517  73.7536711  69.3437150  67.9730281  72.4627578  70.1103920
  74.4808725  63.3287689  61.3124805  73.6709453  62.9834774  61.6880051
  75.1693142  63.0195233  61.9012416  76.4099273  62.4065736  62.9349101
  76.9630312  62.8261189  63.5939124  76.6469359  61.4801484  62.9772057
  71.6345444  65.6437734  55.2992543  72.4964608  65.9692633  55.5588360
  71.8195788  64.8569230  54.7865608  63.6512859  73.7260074  67.5772731
  62.9576331  73.3114027  67.0642686  64.3985850  73.7680610  66.9806150
  65.5649602  73.6578328  65.4538746  65.5420290  73.7566015  64.5020629
  65.8750239  74.5043479  65.7755912  68.2236980  75.7154483  69.5685361
  69.1780233  75.6838425  69.5015292  68.0249503  75.2545107  70.3835587
  68.8136362  74.2855599  72.1356158  69.6329251  74.7799678  72.1590996
  69.0873170  73.3687567  72.1073726  66.5787209  81.2574102  66.5855558
  66.4441677  80.4974503  66.0193557  66.1619271  81.9815002  66.1184347
  72.5874887  62.8833777  58.5872252  72.5753557  63.8275617  58.7440522
  73.4798309  62.7003923  58.2931713  76.4027006  59.4776554  62.8418188
  75.6359402  58.9235041  62.9874871  76.8137711  59.5498423  63.7032340
  87.9768490  90.5587510  59.5127635  87.3414323  90.6322137  60.2248540
  87.6465896  91.1481109  58.8346715  88.7492316  90.4211983  67.1137230
  88.1201178  90.5857698  66.4113298  88.3617978  90.8353593  67.8848194
  90.9978307  91.8798336  69.2399295  91.8195751  91.4778523  68.9581977
  90.9940710  91.7766570  70.1915411  92.7659949  89.3622014  60.2363488
  91.9889392  89.0233174  59.7918650  93.4451430  89.3674637  59.5618453
  90.5818511  92.1706370  63.0713180  90.1280838  91.3297279  63.1278371
  89.9512477  92.8067768  63.4087960  86.2327367  91.6136871  65.9605089
  85.8977200  91.5737641  66.8562739  85.7331313  90.9481587  65.4875500
  89.1686559  88.9592905  56.2342149  88.5515729  88.2339734  56.1375202
  88.7003047  89.7202266  55.8909223  88.5375461  90.0970937  62.8198602
  87.6031740  90.2172399  62.6503307  88.7152130  89.1943404  62.5558612
  89.9924244  92.2832077  60.3534789  90.2684088  92.1688672  61.2628663
  89.1228743  91.8849562  60.3146962  92.9427253  92.1969881  60.5021863
  93.4678577  92.5357154  59.7771183  92.8549605  91.2616897  60.3184997
  90.4626624  92.2085473  57.6430594  91.2972228  91.7766671  57.4608069
  90.3010967  92.0367486  58.5707488  90.1172516  88.7117586  59.0086933
  90.0621320  88.5461857  58.0675377  89.4918571  89.4193619  59.1649123
  94.2662396  93.5417613  58.5872252  94.2541066  94.4859453  58.7440522
  95.1585818  93.3587758  58.2931713 109.9304653 118.0547041  67.7385771
 110.5683063 117.9353789  67.0349111 109.8125496 119.0027885  67.7973723
 106.7394359 118.0074470  67.6747295 106.4012871 117.8915534  66.7867830
 107.6084128 117.6065635  67.6548301 102.5981175 119.8609946  63.6644186
 102.0346040 119.7699883  62.8960474 102.4833570 119.0409850  64.1446679
 100.1445607 121.3561138  66.5028407 100.9366899 121.0151962  66.0874706
 100.3842257 121.4656113  67.4230560 108.1780734 123.5280914  58.9758651
 107.5268714 124.1134994  58.5892665 108.9725097 124.0587109  59.0353689
 102.1036361 120.6170051  59.3745785 102.8767237 120.0699038  59.2358661
 102.4561760 121.4814300  59.5860247 104.8677610 119.3223282  69.1714044
 105.4641183 119.0979304  68.4571007 104.9252582 118.5808027  69.7739492
 104.4402639 116.7762717  57.0064235 104.6928160 116.2544238  56.2447698
 103.5027198 116.6128862  57.1090919 109.4845922 115.7798495  64.8138979
 110.2709011 115.3617918  64.4629396 109.7484626 116.6844588  64.9820627
 109.6555999 121.2171346  59.5127635 109.0201832 121.2905972  60.2248540
 109.3253405 121.8064944  58.8346715 114.8854349 115.7173729  65.7171957
 115.6179521 115.1472945  65.9509787 114.1293704 115.3295329  66.1578463
 104.1598928 118.6790823  59.2088610 104.0435186 118.0035726  59.8769695
 104.2701187 118.1923197  58.3920763 106.5030469 118.1400970  62.9135300
 106.1388676 117.6131591  63.6248221 107.3597584 117.7499439  62.7401785
 108.9011289 121.6307849  69.5762478 108.6012012 122.5332887  69.4678286
 108.5562348 121.3640032  70.4283631 102.3523770 118.0821645  65.6099183
 101.4274267 117.9497860  65.8176875 102.6008183 118.8615865  66.1069125
 112.3008432 114.1490389  67.2559916 111.3925310 114.0805797  66.9618677
 112.2496028 114.6262334  68.0841741 106.1225176 115.6248527  58.8943315
 106.0024802 116.0705578  59.7328795 105.4277765 115.9733845  58.3356853
  99.7132581 117.7254919  66.4442972  99.8424962 117.9789398  67.3582384
  99.0330032 118.3182627  66.1247627 103.8832068 128.3952169  62.5433446
 103.8056098 129.3459994  62.6221927 103.2793712 128.0498041  63.2008372
 114.1670079 112.3506827  69.0337790 113.5244459 112.6439360  68.3877584
 113.6625007 112.2359748  69.8390986 111.8210243 116.0970000  59.7223649
 112.7328099 116.3297387  59.5471347 111.3119890 116.6807045  59.1598728
 106.4582080 115.4567235  70.7318499 107.3043275 115.8806649  70.8753148
 106.3980718 114.8000859  71.4257062 110.4279825 121.0795819  67.1137230
 109.7988687 121.2441533  66.4113298 110.0405487 121.4937428  67.8848194
 114.3069057 122.0150257  64.4681594 113.6220095 122.3949158  63.9178628
 114.3912906 122.6245583  65.2013542 109.6081526 113.1171603  72.3899672
 109.3642457 113.8713664  71.8533948 109.8841456 113.4956951  73.2246919
 111.5619988 119.6610216  71.0676938 111.7736884 120.3041976  70.3911319
 111.5149737 118.8272532  70.5998868 109.1646217 112.2728036  67.9713510
 108.3030696 112.5709290  68.2630247 109.1908652 112.4898435  67.0394543
 105.9807787 120.8170227  64.3787316 106.4446132 121.0957930  63.5891938
 105.7164585 119.9153672  64.1960406 102.8731868 120.3641708  67.3167079
 103.4433225 120.7928977  66.6784563 103.4639980 120.0824293  68.0151264
 104.9176673 116.9393379  61.1876881 105.6200716 117.3914423  61.6550807
 104.5857301 116.2977198  61.8156774 112.6765816 122.5382171  69.2399295
 113.4983260 122.1362358  68.9581977 112.6728219 122.4350405  70.1915411
 100.6116752 115.5621511  63.4477491  99.8147915 115.6740205  63.9660987
 100.3842344 115.9008163  62.5818381 120.7671809 118.8820920  65.5884267
 120.0135518 118.3128318  65.4328271 120.9019351 118.8483584  66.5354901
 106.1570437 123.7534322  61.2638986 106.0216112 124.5985858  61.6923834
 106.6980250 123.9553600  60.5004920  99.6099835 121.2709760  61.8366911
 100.1224355 122.0653010  61.9872476 100.2622548 120.5736050  61.7700512
 101.4194719 124.3875516  63.9189664 101.5961348 125.3093481  63.7310648
 102.2151553 124.0733935  64.3484044  97.5748752 119.5998414  62.6126482
  98.4123974 120.0095423  62.3960189  97.7527019 118.6597856  62.5826675
 109.4713184 117.2673495  58.3010314 108.9559807 118.0378100  58.5398702
 109.1990492 116.5938631  58.9243376 108.5859441 109.6469539  67.7587113
 108.0824237 109.6099674  66.9454918 108.8790048 110.5562282  67.8183769
 114.4447458 120.0205850  60.2363488 113.6676901 119.6817009  59.7918650
 115.1238939 120.0258473  59.5618453 109.2599487 115.1400587  60.1270096
 108.9549622 115.4546736  60.9780239 110.2129929 115.2182007  60.1697429
 107.7045919 121.2990810  61.7763050 107.1767280 120.5643570  61.4636287
 107.2033421 122.0765487  61.5303018 112.6838765 119.4939831  66.8930096
 112.0262439 120.1839092  66.9810225 113.4879164 119.8836263  67.2364082
 111.4944224 117.8484204  64.9434038 112.0076105 118.4814195  65.4455747
 112.1445447 117.2485399  64.5777398 105.8498519 119.1171021  54.7798023
 104.9425581 118.8860274  54.9789172 106.3469551 118.3208640  54.9672004
 108.7566598 127.8268528  57.6994709 108.0828297 128.1300225  58.3079667
 109.1432420 128.6297608  57.3500166 107.9725054 115.3233659  67.1892378
 107.0547616 115.5448606  67.0314066 108.3885198 115.3979970  66.3304086
 108.7560102 116.7225075  62.3195058 109.5031921 117.2346472  62.0102181
 109.0251692 116.4009127  63.1799452 107.0286752 119.2183615  59.3022013
 106.1197972 118.9342648  59.3994483 107.0581836 119.6382694  58.4425320
 112.2606020 122.8290205  63.0713180 111.8068347 121.9881115  63.1278371
 111.6299986 123.4651603  63.4087960 111.2038939 113.7582191  64.3013848
 110.4661696 113.2459577  64.6324090 111.4565713 113.3182573  63.4897125
 110.7038959 124.6666702  64.0062998 110.9961933 125.2271759  63.2875364
 111.2137580 124.9595263  64.7616158 105.5771646 116.8312236  65.4031808
 105.6320256 115.8786072  65.3274285 104.7662848 116.9871675  65.8873107
 106.7262840 120.7592359  56.6410091 106.2882270 120.0428218  56.1815729
 107.4673281 120.9868474  56.0795183 103.5164006 115.4489296  63.1622187
 102.7031872 115.7483466  63.5687379 104.0123000 115.0544985  63.8796669
 105.6672584 125.4447053  65.0956452 105.6248763 125.6707899  64.1664984
 106.5835283 125.2110427  65.2442253 109.1138218 115.9131120  71.9937081
 109.4687606 116.1402593  72.8531547 109.7610349 116.2449497  71.3714336
 114.8435955 119.0349556  62.6986410 114.7053853 119.2251152  61.7707599
 114.4872174 119.7968939  63.1554461 114.8705334 121.1026083  67.7097681
 115.3041841 121.0101372  68.5580735 115.5836915 121.0783584  67.0717697
 103.7838385 122.3210082  64.8918414 104.5778983 121.8260402  64.6900989
 103.0730077 121.7927945  64.5286120 108.6033229 124.7028177  69.2430782
 108.6570252 125.2719114  70.0108498 107.7348011 124.8730062  68.8784819
 100.0921148 116.4653163  60.9678167  99.1618736 116.4037619  61.1848129
 100.1878620 115.9429116  60.1714808 115.7320884 121.1449784  70.2430567
 115.9256774 122.0495594  70.4889842 115.6321502 120.6857203  71.0769152
 107.5621329 118.8688439  70.8017714 108.4913389 119.0199599  70.6286681
 107.1412359 118.9572460  69.9466360 106.3609661 122.8939104  68.5716251
 106.2220747 122.5257888  69.4442190 105.5724257 123.4086743  68.4000209
 106.9557813 127.9948200  59.9141788 107.1309569 127.5236243  60.7287411
 106.2690601 128.6213966  60.1423049 107.9114876 122.2720706  65.9605089
 107.5764709 122.2321476  66.8562739 107.4118822 121.6065422  65.4875500
 110.8474068 119.6176741  56.2342149 110.2303238 118.8923569  56.1375202
 110.3790556 120.3786101  55.8909223 101.5218898 131.1437563  66.6881648
 101.7615496 131.7756087  67.3660667 100.6788095 130.7925603  66.9747007
 112.5045607 122.2915233  72.1261909 111.6172385 121.9541155  72.2488308
 113.0744158 121.5598264  72.3630674  94.1574754 118.6239325  65.4504960
  94.8445794 118.3101055  64.8625976  94.0022882 119.5280689  65.1772212
 106.0346760 126.9516685  69.0923152 105.9616932 127.7571657  69.6042457
 105.5924153 127.1508651  68.2671174 105.8236540 126.1888455  62.6025974
 105.0404062 126.7310136  62.6964198 106.5229285 126.7062435  63.0020215
 109.1333190 111.9983085  65.2460179 109.6301889 111.2453047  64.9261249
 108.3620171 112.0347402  64.6803388 116.9862947 117.7023450  66.8878471
 116.9752823 118.5848166  66.5172404 116.1180327 117.3495001  66.6933008
 110.2162970 120.7554772  62.8198602 109.2819249 120.8756235  62.6503307
 110.3939639 119.8527239  62.5558612 105.7168159 114.1400468  64.9731864
 105.3465946 113.5871508  65.6612769 106.2127251 113.5358601  64.4206864
 113.6035522 116.5972091  63.3548637 114.0695974 117.4300083  63.2808939
 114.0543022 116.1317073  64.0593895 111.6711753 122.9415913  60.3534789
 111.9471597 122.8272507  61.2628663 110.8016252 122.5433398  60.3146962
 111.5752185 108.9652678  67.3939538 110.6615264 109.1956905  67.5621745
 112.0045286 109.0491122  68.2453570 111.3458643 117.1542570  69.8939432
 110.6930093 117.4018478  69.2391885 111.7239023 116.3406709  69.5601909
 108.3065817 127.1902264  63.9967602 108.4888211 126.3723919  64.4595355
 109.1298803 127.4069956  63.5592492 108.6407982 126.1170449  61.2582651
 109.1695749 125.6062903  60.6452813 108.9036202 125.8012979  62.1228184
  99.1425075 124.1334318  69.0017984  99.7278512 123.3878006  69.1345889
  98.9449914 124.4438275  69.8854648 101.9963730 127.1685565  64.0180427
 101.3274106 127.6531693  63.5344467 101.8576600 127.4154786  64.9323805
 109.2737386 127.1511284  67.6026767 109.1488526 126.3501024  67.0937713
 109.9316477 127.6457478  67.1140737 111.3372295 124.9520304  69.2306317
 110.3902630 124.8325656  69.1584644 111.6855068 124.0642803  69.3132579
 108.3418728 124.7473021  65.4310670 108.1943690 123.8189728  65.6118240
 109.1672221 124.7693111  64.9467745 111.9452850 125.5701579  66.5175542
 112.8699397 125.3644441  66.3799993 111.7768153 125.3217981  67.4264884
 108.3380242 112.6010858  60.4242787 108.5543857 113.4835496  60.1231615
 107.8574309 112.2097072  59.6948429 106.7901977 112.9836460  69.0947548
 106.5319755 113.9053530  69.0931879 106.2587018 112.5866894  69.7848013
 111.7348166 126.0887247  61.8737634 111.9085044 125.5233669  61.1211486
 112.2277057 126.8888142  61.6917124 117.5887557 118.8523670  63.4927933
 118.0318703 118.1030995  63.0947057 116.7114067 118.8433806  63.1101665
 112.7223338 125.4054011  58.9734532 113.4174243 126.0260704  59.1921847
 113.0646489 124.5549363  59.2486910 114.6214762 122.8553717  60.5021863
 115.1466086 123.1940990  59.7771183 114.5337114 121.9200732  60.3184997
 106.3055422 128.9225700  64.8617116 105.8660413 128.4302079  65.5549973
 107.0563539 128.3798668  64.6209191  98.7847761 125.1137241  64.8641744
  99.6105781 124.8141013  64.4840388  98.4341813 124.3444863  65.3131533
 103.7529294 124.4663709  66.9339418 103.1309304 123.8034414  66.6341646
 104.4234161 124.4924841  66.2513065  96.9856366 123.0323567  65.8230678
  96.1488275 122.6045742  65.6414679  96.9580012 123.2256011  66.7601469
 103.3142801 123.0167633  60.4097878 103.4630922 123.7003097  59.7564551
 104.1209245 122.9972723  60.9247334 117.1320422 120.3228908  65.8850381
 117.9667313 120.7618712  66.0487941 117.2679551 119.8467561  65.0658627
 101.0695434 119.0432810  61.4158947 100.8241476 118.1395140  61.6139157
 101.2391349 119.0449961  60.4738425 106.8138207 125.5115763  57.8809626
 106.2412174 126.1305950  57.4280097 107.3871001 126.0615125  58.4149548
 112.8813597 114.7574403  70.0656174 113.8331020 114.8572501  70.0868398
 112.7117047 113.9652672  70.5754259 110.0335467 125.7952913  59.0118208
 110.9666140 125.7298475  59.2151083 109.9458680 126.6309180  58.5532741
 112.6623483 125.1118783  55.9722155 112.5837115 124.7778647  56.8657913
 113.4833150 125.6040551  55.9713628 115.3601675 117.9780523  69.1798474
 115.3277995 117.0396523  69.3658158 115.9702298 118.0564559  68.4464299
 107.1985005 116.8476576  55.2225678 108.1444110 116.7182784  55.2914096
 106.8199250 116.1091238  55.6995106 115.5096163 114.7691566  69.2256757
 114.9935212 113.9850023  69.0386686 116.3936112 114.4410283  69.3903277
 121.1778224 119.0396530  68.3204511 121.9081613 118.7781818  68.8812214
 120.5685170 118.3025252  68.3606579 119.2593522 117.1804392  68.9178962
 118.5326685 117.0460357  68.3095454 118.8440808 117.4881221  69.7235680
  96.1694123 119.7135827  67.5772731  95.4757594 119.2989780  67.0642686
  96.9167114 119.7556364  66.9806150  98.0830865 119.6454081  65.4538746
  98.0601554 119.7441768  64.5020629  98.3931502 120.4919232  65.7755912
 111.0884222 112.6642104  61.4984114 110.2010077 112.9491755  61.2804309
 111.5038211 112.5035868  60.6511391 114.4398758 112.6888625  65.2138453
 115.2159148 113.1785078  65.4863070 113.7146892 113.1146679  65.6710323
 116.8771316 113.4016244  66.2712394 117.4715807 113.1611980  65.5605702
 116.9497900 112.6823375  66.8985930  99.0968472 127.2449855  66.5855558
  98.9622940 126.4850256  66.0193557  98.6800534 127.9690755  66.1184347
 110.2327435 122.4286779  55.5932134 110.9363285 122.6336781  56.2089789
 109.5090084 122.9963541  55.8581217 111.0625245 118.1796640  61.7134404
 111.0060447 118.6365192  60.8742036 111.6153588 117.4187325  61.5357247
 114.8730051 113.9686372  62.5384523 114.6166986 113.5683008  63.3692731
 114.2482919 114.6830166  62.4134663 119.1842389 116.7082445  65.0455815
 118.6241947 116.7775635  65.8187377 118.5785893 116.5323430  64.3255311
 102.2537598 128.1419172  66.7974001 102.1369982 129.0864605  66.6952691
 101.4330044 127.8392734  67.1859800 112.1414133 122.8669308  57.6430594
 112.9759736 122.4350507  57.4608069 111.9798475 122.6951322  58.5707488
 111.7960025 119.3701421  59.0086933 111.7408829 119.2045693  58.0675377
 111.1706080 120.0777454  59.1649123 103.2792112 128.7947434  70.0129930
 104.1819359 128.8271044  70.3296425 103.0529482 127.8647885  70.0276265
 105.0345714 127.5478421  66.6740008 104.0841345 127.5480282  66.5604380
 105.3378200 126.8011155  66.1576043 120.7698408 133.3838959  67.7385771
 121.4076818 133.2645707  67.0349111 120.6519251 134.3319803  67.7973723
 117.5788114 133.3366387  67.6747295 117.2406625 133.2207452  66.7867830
 118.4477882 132.9357552  67.6548301 113.4374930 135.1901864  63.6644186
 112.8739795 135.0991801  62.8960474 113.3227325 134.3701768  64.1446679
 118.0607897 134.4901239  73.6333501 118.0496538 134.0954037  72.7614004
 118.2228536 133.7567312  74.2267272 110.9839362 136.6853055  66.5028407
 111.7760653 136.3443880  66.0874706 111.2236012 136.7948030  67.4230560
 119.0174488 138.8572831  58.9758651 118.3662468 139.4426912  58.5892665
 119.8118851 139.3879026  59.0353689 112.9430115 135.9461969  59.3745785
 113.7160991 135.3990956  59.2358661 113.2955514 136.8106218  59.5860247
 114.7815158 137.2738351  72.5812685 114.4905024 138.1783982  72.4659351
 115.4172142 137.3154878  73.2956754 115.7071365 134.6515199  69.1714044
 116.3034937 134.4271222  68.4571007 115.7646336 133.9099945  69.7739492
 115.2796393 132.1054635  57.0064235 115.5321914 131.5836156  56.2447698
 114.3420952 131.9420780  57.1090919 120.3239676 131.1090413  64.8138979
 121.1102765 130.6909836  64.4629396 120.5878380 132.0136505  64.9820627
 120.4949753 136.5463263  59.5127635 119.8595586 136.6197890  60.2248540
 120.1647160 137.1356862  58.8346715 125.7248103 131.0465646  65.7171957
 126.4573275 130.4764863  65.9509787 124.9687459 130.6587247  66.1578463
 114.9992682 134.0082741  59.2088610 114.8828940 133.3327644  59.8769695
 115.1094942 133.5215115  58.3920763 117.3424223 133.4692888  62.9135300
 116.9782430 132.9423509  63.6248221 118.1991339 133.0791357  62.7401785
 123.2473524 124.7587220  70.1766566 122.9156848 125.6282631  69.9527781
 122.6519137 124.4423504  70.8560596 116.9829710 128.4982787  57.9096648
 117.1504112 129.3663024  58.2767119 116.7926879 128.6610069  56.9857937
 119.7405043 136.9599766  69.5762478 119.4405766 137.8624805  69.4678286
 119.3956103 136.6931950  70.4283631 113.1917525 133.4113563  65.6099183
 112.2668021 133.2789777  65.8176875 113.4401938 134.1907782  66.1069125
 123.1402187 129.4782306  67.2559916 122.2319064 129.4097715  66.9618677
 123.0889783 129.9554251  68.0841741 116.9618931 130.9540445  58.8943315
 116.8418556 131.3997496  59.7328795 116.2671519 131.3025763  58.3356853
 110.5526336 133.0546837  66.4442972 110.6818717 133.3081316  67.3582384
 109.8723787 133.6474545  66.1247627 114.7225823 143.7244087  62.5433446
 114.6449853 144.6751912  62.6221927 114.1187467 143.3789959  63.2008372
 125.0063833 127.6798745  69.0337790 124.3638214 127.9731278  68.3877584
 124.5018762 127.5651665  69.8390986 122.6603997 131.4261918  59.7223649
 123.5721853 131.6589305  59.5471347 122.1513644 132.0098962  59.1598728
 120.9444765 135.8486546  73.3584942 121.3528121 135.4068956  72.6139574
 120.2222026 135.2739173  73.6119134 117.2975835 130.7859153  70.7318499
 118.1437030 131.2098566  70.8753148 117.2374472 130.1292777  71.4257062
 121.2673579 136.4087737  67.1137230 120.6382442 136.5733451  66.4113298
 120.8799241 136.8229346  67.8848194 125.1462811 137.3442174  64.4681594
 124.4613849 137.7241076  63.9178628 125.2306661 137.9537501  65.2013542
 120.4475280 128.4463521  72.3899672 120.2036212 129.2005582  71.8533948
 120.7235211 128.8248869  73.2246919 122.4013743 134.9902133  71.0676938
 122.6130638 135.6333893  70.3911319 122.3543491 134.1564450  70.5998868
 120.0039972 127.6019954  67.9713510 119.1424451 127.9001208  68.2630247
 120.0302406 127.8190353  67.0394543 116.8201541 136.1462145  64.3787316
 117.2839887 136.4249848  63.5891938 116.5558339 135.2445589  64.1960406
 113.7125622 135.6933626  67.3167079 114.2826979 136.1220895  66.6784563
 114.3033734 135.4116211  68.0151264 115.7570427 132.2685297  61.1876881
 116.4594471 132.7206341  61.6550807 115.4251056 131.6269116  61.8156774
 109.4995761 130.5268850  66.4894014 108.7094815 130.7826378  66.0134125
 109.9907009 131.3417188  66.5946055 123.5159571 137.8674089  69.2399295
 124.3377014 137.4654276  68.9581977 123.5121974 137.7642323  70.1915411
 111.4510507 130.8913429  63.4477491 110.6541670 131.0032123  63.9660987
 111.2236099 131.2300081  62.5818381 117.2816174 137.4158132  71.3960006
 117.3460607 137.8778539  72.2318177 116.5727098 136.7855497  71.5242315
 107.7833464 130.7799340  68.9209005 108.0341503 131.6646350  69.1866581
 108.3193013 130.6003942  68.1484097 131.6065564 134.2112837  65.5884267
 130.8529272 133.6420235  65.4328271 131.7413105 134.1775502  66.5354901
 116.9964192 139.0826240  61.2638986 116.8609867 139.9277775  61.6923834
 117.5374004 139.2845517  60.5004920 110.4493589 136.6001678  61.8366911
 110.9618110 137.3944928  61.9872476 111.1016302 135.9027968  61.7700512
 112.2588474 139.7167434  63.9189664 112.4355102 140.6385399  63.7310648
 113.0545307 139.4025853  64.3484044 118.6232668 139.7049806  75.3939328
 118.1796522 138.9186185  75.0760232 119.2849882 139.8928957  74.7283219
 113.3819789 141.2345608  69.9200006 113.9327215 141.1062671  69.1477000
 112.5431265 141.5340497  69.5694899 120.7213906 139.9852606  73.4220729
 120.7032382 140.8061487  72.9300998 121.6433826 139.8606681  73.6470870
 117.1786960 137.4996736  74.2644238 117.7115297 136.7385024  74.0343546
 116.6501042 137.2070387  75.0068392 120.3456655 122.6056801  69.7937879
 120.0020925 123.4958443  69.7176990 120.7135618 122.4158459  68.9307464
 108.4142506 134.9290332  62.6126482 109.2517728 135.3387340  62.3960189
 108.5920774 133.9889774  62.5826675 120.3106938 132.5965413  58.3010314
 119.7953562 133.3670017  58.5398702 120.0384247 131.9230549  58.9243376
 117.8954049 127.4415113  63.3595553 117.0395646 127.0521964  63.1801192
 118.3081001 127.5207074  62.4995338 119.4253196 124.9761457  67.7587113
 118.9217991 124.9391592  66.9454918 119.7183803 125.8854199  67.8183769
 115.6696082 125.0600186  66.7653294 116.5349078 124.8642995  66.4059184
 115.7373591 124.8310538  67.6922651 125.2841212 135.3497767  60.2363488
 124.5070655 135.0108927  59.7918650 125.9632693 135.3550390  59.5618453
 120.0993241 130.4692505  60.1270096 119.7943377 130.7838654  60.9780239
 121.0523683 130.5473925  60.1697429 118.5439673 136.6282728  61.7763050
 118.0161035 135.8935488  61.4636287 118.0427176 137.4057404  61.5303018
 123.5232519 134.8231748  66.8930096 122.8656194 135.5131010  66.9810225
 124.3272918 135.2128180  67.2364082 113.2758401 127.2902394  64.1369661
 113.8502153 127.0677576  63.4042854 113.8629383 127.3591089  64.8898262
 122.3337978 133.1776121  64.9434038 122.8469860 133.8106113  65.4455747
 122.9839202 132.5777317  64.5777398 113.6027988 129.3206855  58.1565546
 112.7665300 129.6581542  58.4774821 113.4632758 129.1855835  57.2192683
 115.5781068 124.1643643  62.8644731 114.9245481 123.8492660  62.2401345
 115.5361543 123.5419384  63.5904554 116.6892273 134.4462938  54.7798023
 115.7819335 134.2152192  54.9789172 117.1863305 133.6500558  54.9672004
 119.5960352 143.1560445  57.6994709 118.9222051 143.4592142  58.3079667
 119.9826174 143.9589526  57.3500166 118.8118809 130.6525577  67.1892378
 117.8941370 130.8740524  67.0314066 119.2278952 130.7271887  66.3304086
 119.5953857 132.0516992  62.3195058 120.3425676 132.5638390  62.0102181
 119.8645446 131.7301045  63.1799452 117.8680507 134.5475533  59.3022013
 116.9591726 134.2634566  59.3994483 117.8975591 134.9674612  58.4425320
 123.0999774 138.1582123  63.0713180 122.6462101 137.3173033  63.1278371
 122.4693741 138.7943521  63.4087960 122.0432694 129.0874109  64.3013848
 121.3055451 128.5751495  64.6324090 122.2959467 128.6474490  63.4897125
 121.5432713 139.9958619  64.0062998 121.8355688 140.5563676  63.2875364
 122.0531334 140.2887180  64.7616158 122.1444321 121.8650361  64.8955617
 122.4503198 121.0047724  64.6081532 122.8696926 122.4567981  64.6954611
 108.4368677 132.2681047  63.2837215 108.2393077 131.6750408  62.5588282
 107.8815341 131.9633257  64.0013154 116.4165401 132.1604154  65.4031808
 116.4714011 131.2077990  65.3274285 115.6056603 132.3163593  65.8873107
 117.5656595 136.0884277  56.6410091 117.1276025 135.3720136  56.1815729
 118.3067035 136.3160392  56.0795183 114.3557761 130.7781213  63.1622187
 113.5425626 131.0775384  63.5687379 114.8516755 130.3836902  63.8796669
 116.5066339 140.7738970  65.0956452 116.4642517 140.9999817  64.1664984
 117.4229038 140.5402345  65.2442253 119.9531972 131.2423038  71.9937081
 120.3081360 131.4694511  72.8531547 120.6004104 131.5741415  71.3714336
 125.6829709 134.3641474  62.6986410 125.5447608 134.5543070  61.7707599
 125.3265928 135.1260857  63.1554461 125.7099089 136.4318001  67.7097681
 126.1435596 136.3393290  68.5580735 126.4230670 136.4075501  67.0717697
 114.6232139 137.6501999  64.8918414 115.4172738 137.1552320  64.6900989
 113.9123832 137.1219863  64.5286120 119.4426984 140.0320095  69.2430782
 119.4964006 140.6011031  70.0108498 118.5741765 140.2021980  68.8784819
 110.9314903 131.7945081  60.9678167 110.0012491 131.7329537  61.1848129
 111.0272375 131.2721034  60.1714808 110.8500452 128.3199894  63.5556409
 111.1107269 129.2345227  63.4465569 111.6717624 127.8524337  63.7053022
 126.5714639 136.4741702  70.2430567 126.7650529 137.3787512  70.4889842
 126.4715257 136.0149121  71.0769152 121.6329747 136.6248444  75.8171447
 121.4815254 136.3958996  74.9001531 121.6234427 137.5819046  75.8302792
 118.4015084 134.1980357  70.8017714 119.3307144 134.3491517  70.6286681
 117.9806114 134.2864378  69.9466360 117.2003415 138.2231021  68.5716251
 117.0614501 137.8549806  69.4442190 116.4118012 138.7378661  68.4000209
 117.7951567 143.3240118  59.9141788 117.9703323 142.8528161  60.7287411
 117.1084355 143.9505884  60.1423049 118.7508631 137.6012624  65.9605089
 118.4158463 137.5613394  66.8562739 118.2512576 136.9357340  65.4875500
 121.6867822 134.9468658  56.2342149 121.0696993 134.2215487  56.1375202
 121.2184311 135.7078019  55.8909223 123.3421954 139.6567567  73.8947929
 123.2834500 138.9726787  73.2278512 123.7441472 140.3986557  73.4428555
 112.3612653 146.4729481  66.6881648 112.6009251 147.1048005  67.3660667
 111.5181849 146.1217521  66.9747007 113.4766368 129.1654083  55.3563453
 112.5995834 129.0442884  54.9925700 113.9524121 128.3740161  55.1042342
 123.3439361 137.6207151  72.1261909 122.4566140 137.2833073  72.2488308
 123.9137912 136.8890182  72.3630674 104.9968508 133.9531242  65.4504960
 105.6839548 133.6392973  64.8625976 104.8416637 134.8572607  65.1772212
 116.8740515 142.2808603  69.0923152 116.8010686 143.0863575  69.6042457
 116.4317908 142.4800569  68.2671174 116.6630294 141.5180373  62.6025974
 115.8797816 142.0602053  62.6964198 117.3623039 142.0354353  63.0020215
 119.9726944 127.3275003  65.2460179 120.4695644 126.5744965  64.9261249
 119.2013926 127.3639319  64.6803388 127.8256702 133.0315368  66.8878471
 127.8146578 133.9140084  66.5172404 126.9574081 132.6786919  66.6933008
 119.3339198 142.1795437  71.2481311 120.0467170 142.8142902  71.1757212
 118.8429227 142.2759303  70.4321313 121.0556725 136.0846690  62.8198602
 120.1213004 136.2048152  62.6503307 121.2333393 135.1819157  62.5558612
 116.5561913 129.4692386  64.9731864 116.1859701 128.9163426  65.6612769
 117.0521005 128.8650519  64.4206864 124.4429276 131.9264009  63.3548637
 124.9089729 132.7592001  63.2808939 124.8936777 131.4608991  64.0593895
 114.3851112 139.9289881  72.0686882 115.0860571 140.5626364  72.2216276
 113.9146227 140.2704612  71.3082521 122.5105507 138.2707830  60.3534789
 122.7865351 138.1564425  61.2628663 121.6410006 137.8725315  60.3146962
 122.4145939 124.2944596  67.3939538 121.5009019 124.5248823  67.5621745
 122.8439041 124.3783040  68.2453570 122.1852398 132.4834488  69.8939432
 121.5323848 132.7310395  69.2391885 122.5632777 131.6698626  69.5601909
 119.1459571 142.5194181  63.9967602 119.3281966 141.7015837  64.4595355
 119.9692557 142.7361873  63.5592492 119.4801737 141.4462366  61.2582651
 120.0089503 140.9354821  60.6452813 119.7429957 141.1304897  62.1228184
 118.2339971 133.2254299  76.3805469 117.5580608 133.1248428  77.0507844
 119.0567604 133.0693513  76.8441466 109.9818830 139.4626236  69.0017984
 110.5672266 138.7169924  69.1345889 109.7843668 139.7730192  69.8854648
 112.8357485 142.4977483  64.0180427 112.1667860 142.9823611  63.5344467
 112.6970355 142.7446703  64.9323805 104.5736484 132.0331836  67.7222427
 104.6120584 131.4995427  68.5159546 104.0676777 131.5067041  67.1033405
 116.9762753 144.5321227  70.6163085 117.5281061 144.6952848  71.3812170
 117.3168947 145.1225664  69.9443110 121.8273628 139.3582484  76.4711740
 122.3713532 139.9712442  75.9766694 121.2460473 139.9162062  76.9878753
 108.2045062 130.7595938  60.7976359 108.4998503 129.8506616  60.7443413
 107.3033098 130.7383677  60.4757361 120.1131141 142.4803202  67.6026767
 119.9882280 141.6792942  67.0937713 120.7710232 142.9749395  67.1140737
 111.7339309 128.8351935  66.7803907 111.0125895 129.4487902  66.6411381
 112.5232565 129.3709699  66.7020553 122.1766049 140.2812222  69.2306317
 121.2296385 140.1617573  69.1584644 122.5248822 139.3934720  69.3132579
 109.9332904 128.4410036  60.9215684 109.6045610 127.5607415  60.7390790
 110.2872274 128.3857704  61.8092073 119.1812482 140.0764938  65.4310670
 119.0337445 139.1481646  65.6118240 120.0065976 140.0985029  64.9467745
 113.0474727 128.7283005  61.2891162 113.3870799 129.2568927  60.5669770
 113.4946847 129.0663412  62.0649728 122.7846604 140.8993497  66.5175542
 123.7093152 140.6936358  66.3799993 122.6161908 140.6509898  67.4264884
 115.7418168 127.1120056  70.7394230 115.4014988 126.3127869  71.1414910
 115.0357174 127.4121767  70.1671063 116.3934639 124.1969369  69.1921553
 117.2160709 123.7229847  69.0700443 116.6372703 124.9759852  69.6920239
 115.0342874 127.2257627  59.4884454 115.7551236 127.6038880  58.9848171
 114.4108178 127.9446504  59.5919432 119.1773997 127.9302776  60.4242787
 119.3937611 128.8127414  60.1231615 118.6968064 127.5388989  59.6948429
 113.9173218 130.8888489  67.0013531 113.7717799 131.2028792  67.8937813
 113.4398422 131.5073390  66.4484430 115.7769601 127.8791037  67.0494421
 115.7631170 126.9832131  66.7126719 116.4942029 127.8861701  67.6832707
 117.6295732 128.3128377  69.0947548 117.3713510 129.2345448  69.0931879
 117.0980772 127.9158812  69.7848013 122.5741920 141.4179165  61.8737634
 122.7478798 140.8525587  61.1211486 123.0670812 142.2180059  61.6917124
 108.3918880 133.4293834  69.9401193 107.8472348 134.2053642  70.0721467
 109.2698230 133.7764638  69.7820314 115.1806497 126.7605418  62.3181991
 115.3022408 125.8322064  62.5172879 114.8908539 126.7744103  61.4060307
 118.0497687 124.4460328  65.4548711 118.0719384 124.5099661  64.5000690
 118.4665746 123.6064837  65.6489217 128.4281312 134.1815587  63.4927933
 128.8712458 133.4322913  63.0947057 127.5507822 134.1725724  63.1101665
 123.5617093 140.7345929  58.9734532 124.2567998 141.3552622  59.1921847
 123.9040243 139.8841280  59.2486910 125.4608516 138.1845634  60.5021863
 125.9859840 138.5232907  59.7771183 125.3730869 137.2492650  60.3184997
 117.1228565 142.0979708  72.6311739 117.4315691 141.8528855  73.5034439
 117.9204047 142.3026347  72.1430610 117.1449177 144.2517618  64.8617116
 116.7054167 143.7593996  65.5549973 117.8957294 143.7090585  64.6209191
 109.6241516 140.4429159  64.8641744 110.4499536 140.1432930  64.4840388
 109.2735568 139.6736781  65.3131533 114.5923049 139.7955627  66.9339418
 113.9703058 139.1326332  66.6341646 115.2627916 139.8216759  66.2513065
 107.8250121 138.3615485  65.8230678 106.9882029 137.9337659  65.6414679
 107.7973766 138.5547928  66.7601469 125.1502422 138.8178538  75.8073061
 124.3597966 138.8002677  75.2677560 124.9135777 139.3566832  76.5622097
 125.2700297 135.6671005  73.1205789 125.3198302 135.5021012  74.0621312
 125.1614221 134.7998264  72.7303670 114.1536556 138.3459550  60.4097878
 114.3024676 139.0295015  59.7564551 114.9602999 138.3264640  60.9247334
 122.5604060 131.6501933  74.4365096 123.4613922 131.5108397  74.1449094
 122.6352034 131.8156387  75.3763273 126.7718494 138.0867946  73.3647811
 126.4803302 138.4497927  74.2011272 126.1590625 137.3734954  73.1861143
 127.9714176 135.6520826  65.8850381 128.8061068 136.0910630  66.0487941
 128.1073305 135.1759479  65.0658627 125.0205682 133.2100561  71.8327869
 125.4959804 133.4028207  71.0246720 124.0971248 133.2659746  71.5871252
 111.9089189 134.3724728  61.4158947 111.6635231 133.4687058  61.6139157
 112.0785103 134.3741878  60.4738425 119.5985899 125.2448404  70.7983703
 120.1167843 125.9809431  70.4730191 119.2441032 125.5512398  71.6330462
 111.1784836 130.1053085  58.9145109 110.4854081 130.1797440  58.2585145
 110.9336588 129.3413429  59.4366625 119.8498493 121.6648687  66.3184599
 120.1300247 120.9971876  66.9445026 120.6349100 121.8577782  65.8059263
 117.6531961 140.8407681  57.8809626 117.0805928 141.4597868  57.4280097
 118.2264755 141.3907042  58.4149548 123.7207351 130.0866321  70.0656174
 124.6724774 130.1864418  70.0868398 123.5510802 129.2944589  70.5754259
 121.7421731 127.1721904  70.2515575 121.1471663 127.4526917  69.5562064
 121.4571427 127.6615805  71.0232316 120.8729221 141.1244831  59.0118208
 121.8059894 141.0590392  59.2151083 120.7852434 141.9601098  58.5532741
 123.5017238 140.4410701  55.9722155 123.4230869 140.1070565  56.8657913
 124.3226905 140.9332469  55.9713628 126.1995429 133.3072440  69.1798474
 126.1671749 132.3688441  69.3658158 126.8096053 133.3856477  68.4464299
 118.0378760 132.1768493  55.2225678 118.9837865 132.0474702  55.2914096
 117.6593005 131.4383155  55.6995106 126.3489918 130.0983484  69.2256757
 125.8328966 129.3141940  69.0386686 127.2329866 129.7702200  69.3903277
 124.0100644 123.8424499  65.1852570 123.8125466 123.5339588  66.0695902
 124.6200350 124.5686138  65.3150500 132.0171979 134.3688447  68.3204511
 132.7475367 134.1073735  68.8812214 131.4078924 133.6317169  68.3606579
 130.0987276 132.5096310  68.9178962 129.3720440 132.3752275  68.3095454
 129.6834563 132.8173138  69.7235680 117.9217452 136.2286240  76.6826335
 118.8420462 136.4064839  76.8766382 117.8867035 135.2842285  76.5306034
 116.2221677 130.1018470  55.1580563 115.3153132 129.8051582  55.2343277
 116.4997658 129.8048288  54.2914850 107.1399617 131.4224833  65.6079610
 106.8202402 130.5690141  65.3153984 106.5933046 131.6373411  66.3637577
 110.9179525 134.1387274  69.3249116 111.1365535 135.0704382  69.3437150
 111.3305299 133.7795249  70.1103920 117.8383743 124.6455359  61.3124805
 117.0284471 124.3002444  61.6880051 118.5268160 124.3362903  61.9012416
 119.7674291 123.7233406  62.9349101 120.3205330 124.1428860  63.5939124
 120.0044377 122.7969154  62.9772057 114.9920462 126.9605405  55.2992543
 115.8539626 127.2860303  55.5588360 115.1770806 126.1736901  54.7865608
 107.0087877 135.0427745  67.5772731 106.3151349 134.6281697  67.0642686
 107.7560868 135.0848281  66.9806150 123.1453098 125.8333931  62.4427766
 122.5651767 126.4918735  62.0605818 122.8789031 125.0111276  62.0315183
 121.5956665 125.2338989  64.6449086 122.0956443 125.3455524  63.8363405
 122.2392272 124.9300042  65.2849894 108.9224620 134.9745998  65.4538746
 108.8995308 135.0733686  64.5020629 109.2325256 135.8211149  65.7755912
 111.5811998 137.0322153  69.5685361 112.5355251 137.0006096  69.5015292
 111.3824521 136.5712777  70.3835587 121.9277976 127.9934022  61.4984114
 121.0403831 128.2783672  61.2804309 122.3431965 127.8327785  60.6511391
 125.2792512 128.0180543  65.2138453 126.0552902 128.5076995  65.4863070
 124.5540646 128.4438597  65.6710323 127.7165071 128.7308162  66.2712394
 128.3109562 128.4903898  65.5605702 127.7891655 128.0115293  66.8985930
 109.9362227 142.5741773  66.5855558 109.8016695 141.8142174  66.0193557
 109.5194289 143.2982673  66.1184347 121.0721190 137.7578697  55.5932134
 121.7757040 137.9628699  56.2089789 120.3483838 138.3255458  55.8581217
 121.9019000 133.5088558  61.7134404 121.8454201 133.9657109  60.8742036
 122.4547342 132.7479242  61.5357247 125.7123806 129.2978290  62.5384523
 125.4560740 128.8974925  63.3692731 125.0876674 130.0122084  62.4134663
 130.0236144 132.0374363  65.0455815 129.4635702 132.1067552  65.8187377
 129.4179647 131.8615348  64.3255311 113.0931353 143.4711090  66.7974001
 112.9763737 144.4156522  66.6952691 112.2723799 143.1684652  67.1859800
 122.9807887 138.1961226  57.6430594 123.8153491 137.7642424  57.4608069
 122.8192230 138.0243239  58.5707488 122.6353779 134.6993339  59.0086933
 122.5802583 134.5337610  58.0675377 122.0099835 135.4069372  59.1649123
 119.9499686 137.0042251  78.3340496 120.8190846 137.1782903  77.9727131
 119.4706438 137.8236668  78.2116225 115.9449905 124.2001448  58.5872252
 115.9328575 125.1443288  58.7440522 116.8373327 124.0171593  58.2931713
 114.1185867 144.1239352  70.0129930 115.0213113 144.1562962  70.3296425
 113.8923237 143.1939803  70.0276265 115.8739469 142.8770338  66.6740008
 114.9235100 142.8772200  66.5604380 116.1771955 142.1303073  66.1576043
 119.7602024 120.7944225  62.8418188 118.9934420 120.2402711  62.9874871
 120.1712729 120.8666093  63.7032340 131.6092162 148.7130877  67.7385771
 132.2470572 148.5937624  67.0349111 131.4913005 149.6611721  67.7973723
 128.4181868 148.6658305  67.6747295 128.0800380 148.5499370  66.7867830
 129.2871637 148.2649470  67.6548301 124.2768684 150.5193781  63.6644186
 123.7133549 150.4283718  62.8960474 124.1621079 149.6993686  64.1446679
 128.9001651 149.8193157  73.6333501 128.8890292 149.4245955  72.7614004
 129.0622291 149.0859229  74.2267272 121.8233116 152.0144973  66.5028407
 122.6154408 151.6735798  66.0874706 122.0629766 152.1239948  67.4230560
 129.8568243 154.1864749  58.9758651 129.2056223 154.7718829  58.5892665
 130.6512606 154.7170944  59.0353689 123.7823870 151.2753886  59.3745785
 124.5554746 150.7282873  59.2358661 124.1349269 152.1398136  59.5860247
 125.6208913 152.6030268  72.5812685 125.3298779 153.5075899  72.4659351
 126.2565897 152.6446796  73.2956754 126.5465119 149.9807117  69.1714044
 127.1428692 149.7563139  68.4571007 126.6040091 149.2391862  69.7739492
 126.1190148 147.4346552  57.0064235 126.3715668 146.9128074  56.2447698
 125.1814707 147.2712698  57.1090919 131.1633431 146.4382331  64.8138979
 131.9496520 146.0201754  64.4629396 131.4272135 147.3428423  64.9820627
 131.3343508 151.8755181  59.5127635 130.6989341 151.9489808  60.2248540
 131.0040914 152.4648780  58.8346715 136.5641858 146.3757564  65.7171957
 137.2967030 145.8056781  65.9509787 135.8081213 145.9879164  66.1578463
 125.8386437 149.3374658  59.2088610 125.7222695 148.6619562  59.8769695
 125.9488696 148.8507032  58.3920763 128.1817977 148.7984805  62.9135300
 127.8176185 148.2715426  63.6248221 129.0385093 148.4083274  62.7401785
 134.0867278 140.0879138  70.1766566 133.7550603 140.9574549  69.9527781
 133.4912891 139.7715422  70.8560596 127.8223464 143.8274705  57.9096648
 127.9897867 144.6954941  58.2767119 127.6320634 143.9901987  56.9857937
 130.5798798 152.2891684  69.5762478 130.2799521 153.1916723  69.4678286
 130.2349857 152.0223867  70.4283631 124.0311279 148.7405481  65.6099183
 123.1061776 148.6081695  65.8176875 124.2795692 149.5199700  66.1069125
 133.9795941 144.8074224  67.2559916 133.0712819 144.7389633  66.9618677
 133.9283537 145.2846169  68.0841741 127.8012685 146.2832363  58.8943315
 127.6812311 146.7289413  59.7328795 127.1065274 146.6317680  58.3356853
 121.3920090 148.3838754  66.4442972 121.5212471 148.6373233  67.3582384
 120.7117541 148.9766462  66.1247627 128.0536807 146.2263870  75.1994813
 127.2770141 146.7857790  75.1897678 128.6927370 146.7120653  75.7209683
 135.8457588 143.0090663  69.0337790 135.2031968 143.3023196  68.3877584
 135.3412516 142.8943583  69.8390986 133.4997751 146.7553836  59.7223649
 134.4115608 146.9881223  59.5471347 132.9907399 147.3390880  59.1598728
 126.3083180 149.0349323  74.7612780 127.0497864 149.5734367  74.4847604
 125.6020165 149.6615612  74.9184332 131.7838519 151.1778464  73.3584942
 132.1921875 150.7360874  72.6139574 131.0615781 150.6031091  73.6119134
 128.1369589 146.1151070  70.7318499 128.9830784 146.5390484  70.8753148
 128.0768227 145.4584695  71.4257062 132.1067334 151.7379654  67.1137230
 131.4776196 151.9025368  66.4113298 131.7192996 152.1521264  67.8848194
 131.2869035 143.7755439  72.3899672 131.0429966 144.5297499  71.8533948
 131.5628965 144.1540786  73.2246919 133.2407497 150.3194051  71.0676938
 133.4524393 150.9625811  70.3911319 133.1937246 149.4856368  70.5998868
 130.8433726 142.9311872  67.9713510 129.9818205 143.2293125  68.2630247
 130.8696161 143.1482271  67.0394543 127.6595296 151.4754062  64.3787316
 128.1233641 151.7541765  63.5891938 127.3952094 150.5737507  64.1960406
 124.5519377 151.0225544  67.3167079 125.1220734 151.4512812  66.6784563
 125.1427489 150.7408129  68.0151264 126.5964182 147.5977215  61.1876881
 127.2988225 148.0498258  61.6550807 126.2644810 146.9561034  61.8156774
 125.0444543 146.1888971  75.5628090 124.4143204 146.8705252  75.7963487
 124.9380631 146.0772053  74.6181228 120.3389516 145.8560767  66.4894014
 119.5488570 146.1118296  66.0134125 120.8300763 146.6709105  66.5946055
 134.3553325 153.1966007  69.2399295 135.1770769 152.7946194  68.9581977
 134.3515728 153.0934241  70.1915411 122.2904261 146.2205347  63.4477491
 121.4935424 146.3324041  63.9660987 122.0629853 146.5591999  62.5818381
 128.1209929 152.7450050  71.3960006 128.1854361 153.2070457  72.2318177
 127.4120853 152.1147415  71.5242315 118.6227219 146.1091258  68.9209005
 118.8735257 146.9938268  69.1866581 119.1586767 145.9295859  68.1484097
 127.8357946 154.4118157  61.2638986 127.7003621 155.2569693  61.6923834
 128.3767759 154.6137435  60.5004920 124.3225286 140.4909737  77.9253341
 123.9292232 139.9375936  78.6000985 125.1391426 140.8020316  78.3159859
 121.2887344 151.9293595  61.8366911 121.8011864 152.7236846  61.9872476
 121.9410057 151.2319886  61.7700512 123.0982228 155.0459352  63.9189664
 123.2748857 155.9677316  63.7310648 123.8939062 154.7317771  64.3484044
 127.2393247 141.9067616  75.5173598 127.9802960 142.5074769  75.4378060
 127.4711170 141.1645254  74.9591640 122.3834585 147.0923983  73.7951827
 122.2688100 146.1909241  74.0958926 121.5279103 147.3387680  73.4436644
 129.4626423 155.0341724  75.3939328 129.0190277 154.2478102  75.0760232
 130.1243636 155.2220874  74.7283219 124.2213544 156.5637525  69.9200006
 124.7720969 156.4354589  69.1477000 123.3825020 156.8632414  69.5694899
 128.0180715 152.8288653  74.2644238 128.5509052 152.0676941  74.0343546
 127.4894796 152.5362305  75.0068392 131.1850410 137.9348719  69.7937879
 130.8414679 138.8250361  69.7176990 131.5529373 137.7450377  68.9307464
 119.2536261 150.2582250  62.6126482 120.0911483 150.6679258  62.3960189
 119.4314528 149.3181692  62.5826675 131.1500693 147.9257330  58.3010314
 130.6347316 148.6961935  58.5398702 130.8778001 147.2522466  58.9243376
 128.7347804 142.7707031  63.3595553 127.8789400 142.3813881  63.1801192
 129.1474755 142.8498992  62.4995338 130.2646950 140.3053374  67.7587113
 129.7611746 140.2683509  66.9454918 130.5577557 141.2146117  67.8183769
 126.5089836 140.3892104  66.7653294 127.3742833 140.1934913  66.4059184
 126.5767345 140.1602456  67.6922651 136.1234967 150.6789685  60.2363488
 135.3464410 150.3400844  59.7918650 136.8026448 150.6842308  59.5618453
 130.9386996 145.7984422  60.1270096 130.6337131 146.1130572  60.9780239
 131.8917438 145.8765842  60.1697429 129.3833428 151.9574646  61.7763050
 128.8554789 151.2227405  61.4636287 128.8820930 152.7349322  61.5303018
 134.3626274 150.1523666  66.8930096 133.7049948 150.8422928  66.9810225
 135.1666673 150.5420098  67.2364082 124.1152155 142.6194312  64.1369661
 124.6895907 142.3969493  63.4042854 124.7023138 142.6883006  64.8898262
 133.1731732 148.5068039  64.9434038 133.6863614 149.1398031  65.4455747
 133.8232956 147.9069234  64.5777398 124.4421742 144.6498773  58.1565546
 123.6059055 144.9873460  58.4774821 124.3026512 144.5147753  57.2192683
 126.4174823 139.4935561  62.8644731 125.7639235 139.1784578  62.2401345
 126.3755297 138.8711301  63.5904554 127.5286028 149.7754856  54.7798023
 126.6213090 149.5444109  54.9789172 128.0257060 148.9792475  54.9672004
 129.6512563 145.9817494  67.1892378 128.7335125 146.2032441  67.0314066
 130.0672707 146.0563805  66.3304086 130.4347611 147.3808910  62.3195058
 131.1819430 147.8930307  62.0102181 130.7039201 147.0592963  63.1799452
 128.7074261 149.8767451  59.3022013 127.7985481 149.5926484  59.3994483
 128.7369345 150.2966529  58.4425320 133.9393529 153.4874040  63.0713180
 133.4855856 152.6464950  63.1278371 133.3087495 154.1235439  63.4087960
 132.8826448 144.4166026  64.3013848 132.1449205 143.9043413  64.6324090
 133.1353222 143.9766408  63.4897125 132.9838076 137.1942278  64.8955617
 133.2896952 136.3339642  64.6081532 133.7090680 137.7859899  64.6954611
 119.2762432 147.5972965  63.2837215 119.0786831 147.0042326  62.5588282
 118.7209096 147.2925175  64.0013154 127.2559155 147.4896071  65.4031808
 127.3107765 146.5369908  65.3274285 126.4450357 147.6455511  65.8873107
 128.4050349 151.4176194  56.6410091 127.9669779 150.7012053  56.1815729
 129.1460790 151.6452309  56.0795183 125.1951515 146.1073131  63.1622187
 124.3819381 146.4067302  63.5687379 125.6910509 145.7128820  63.8796669
 127.3460093 156.1030888  65.0956452 127.3036272 156.3291734  64.1664984
 128.2622792 155.8694263  65.2442253 130.7925727 146.5714956  71.9937081
 131.1475115 146.7986429  72.8531547 131.4397858 146.9033332  71.3714336
 136.5223464 149.6933392  62.6986410 136.3841362 149.8834987  61.7707599
 136.1659683 150.4552774  63.1554461 124.6865590 143.6791487  68.7783422
 125.3264969 143.5380246  68.0806385 123.8543121 143.3926000  68.4022024
 125.4625894 152.9793917  64.8918414 126.2566492 152.4844237  64.6900989
 124.7517586 152.4511780  64.5286120 130.2820738 155.3612013  69.2430782
 130.3357761 155.9302949  70.0108498 129.4135520 155.5313898  68.8784819
 121.7708657 147.1236999  60.9678167 120.8406245 147.0621454  61.1848129
 121.8666129 146.6012952  60.1714808 121.6894206 143.6491812  63.5556409
 121.9501024 144.5637145  63.4465569 122.5111379 143.1816254  63.7053022
 123.1619132 145.0629569  70.7255233 123.8342185 144.8546931  70.0767882
 122.3348918 144.8651655  70.2860466 129.0644704 141.6891510  72.7420894
 128.4172619 142.3881459  72.6485371 129.8345719 142.1227654  73.1097142
 132.4723502 151.9540362  75.8171447 132.3209008 151.7250914  74.9001531
 132.4628181 152.9110963  75.8302792 129.2408838 149.5272275  70.8017714
 130.1700898 149.6783434  70.6286681 128.8199868 149.6156295  69.9466360
 128.0397170 153.5522939  68.5716251 127.9008256 153.1841723  69.4442190
 127.2511766 154.0670579  68.4000209 129.5902385 152.9304542  65.9605089
 129.2552218 152.8905312  66.8562739 129.0906331 152.2649258  65.4875500
 123.5646629 148.3372172  71.4857670 123.4266427 147.6052411  72.0869209
 124.4751552 148.2481072  71.2041858 132.5261577 150.2760576  56.2342149
 131.9090747 149.5507404  56.1375202 132.0578065 151.0369936  55.8909223
 126.1928930 148.0492131  70.9741350 126.9028548 147.4085323  70.9327969
 126.1498238 148.3005026  71.8967531 124.9057864 145.0357349  72.7936990
 124.3695221 144.5848087  73.4458586 124.3174572 145.1703258  72.0507454
 124.3160123 144.4946000  55.3563453 123.4389589 144.3734801  54.9925700
 124.7917876 143.7032079  55.1042342 134.1833116 152.9499068  72.1261909
 133.2959894 152.6124990  72.2488308 134.7531667 152.2182100  72.3630674
 115.8362263 149.2823160  65.4504960 116.5233303 148.9684890  64.8625976
 115.6810391 150.1864525  65.1772212 120.6396985 144.1713357  69.8789984
 120.5555174 143.5639026  69.1440394 119.8179691 144.6622375  69.8799480
 127.5024049 156.8472291  62.6025974 126.7191571 157.3893971  62.6964198
 128.2016794 157.3646270  63.0020215 130.8120699 142.6566920  65.2460179
 131.3089398 141.9036883  64.9261249 130.0407680 142.6931237  64.6803388
 138.6650456 148.3607286  66.8878471 138.6540332 149.2432001  66.5172404
 137.7967836 148.0078837  66.6933008 131.8950479 151.4138607  62.8198602
 130.9606758 151.5340070  62.6503307 132.0727148 150.5111074  62.5558612
 127.3955668 144.7984303  64.9731864 127.0253455 144.2455344  65.6612769
 127.8914760 144.1942437  64.4206864 135.2823031 147.2555927  63.3548637
 135.7483483 148.0883918  63.2808939 135.7330531 146.7900908  64.0593895
 125.2244866 155.2581798  72.0686882 125.9254326 155.8918281  72.2216276
 124.7539981 155.5996530  71.3082521 133.3499262 153.5999748  60.3534789
 133.6259106 153.4856343  61.2628663 132.4803761 153.2017233  60.3146962
 133.2539694 139.6236514  67.3939538 132.3402773 139.8540741  67.5621745
 133.6832795 139.7074958  68.2453570 133.0246152 147.8126406  69.8939432
 132.3717602 148.0602313  69.2391885 133.4026532 146.9990544  69.5601909
 129.0733725 148.5546217  76.3805469 128.3974362 148.4540346  77.0507844
 129.8961359 148.3985431  76.8441466 120.8212584 154.7918153  69.0017984
 121.4066021 154.0461841  69.1345889 120.6237423 155.1022110  69.8854648
 123.6751239 157.8269401  64.0180427 123.0061615 158.3115528  63.5344467
 123.5364109 158.0738621  64.9323805 115.4130239 147.3623754  67.7222427
 115.4514338 146.8287344  68.5159546 114.9070532 146.8358959  67.1033405
 122.7921001 142.2088294  71.2184970 122.8562328 143.0703125  70.8062367
 122.7288121 141.5962296  70.4857328 122.2673274 144.2811427  74.8658004
 122.8945313 143.8988504  75.4795528 121.4101193 144.0625629  75.2313697
 119.0438816 146.0887856  60.7976359 119.3392258 145.1798534  60.7443413
 118.1426852 146.0675595  60.4757361 122.5733063 144.1643852  66.7803907
 121.8519649 144.7779820  66.6411381 123.3626319 144.7001617  66.7020553
 125.3759377 141.4998279  73.0544559 125.8993779 141.7460575  73.8170869
 125.1571710 142.3318314  72.6347697 120.7726658 143.7701953  60.9215684
 120.4439364 142.8899332  60.7390790 121.1266029 143.7149622  61.8092073
 130.0206237 155.4056856  65.4310670 129.8731199 154.4773563  65.6118240
 130.8459730 155.4276947  64.9467745 123.8868481 144.0574923  61.2891162
 124.2264554 144.5860844  60.5669770 124.3340602 144.3955329  62.0649728
 126.5811922 142.4411974  70.7394230 126.2408742 141.6419787  71.1414910
 125.8750928 142.7413685  70.1671063 127.2328394 139.5261286  69.1921553
 128.0554463 139.0521764  69.0700443 127.4766457 140.3051770  69.6920239
 125.8736628 142.5549545  59.4884454 126.5944991 142.9330798  58.9848171
 125.2501932 143.2738422  59.5919432 130.0167751 143.2594694  60.4242787
 130.2331366 144.1419332  60.1231615 129.5361818 142.8680907  59.6948429
 124.7566973 146.2180407  67.0013531 124.6111553 146.5320710  67.8937813
 124.2792176 146.8365307  66.4484430 126.6163355 143.2082955  67.0494421
 126.6024924 142.3124048  66.7126719 127.3335784 143.2153619  67.6832707
 128.4689486 143.6420295  69.0947548 128.2107264 144.5637366  69.0931879
 127.9374527 143.2450730  69.7848013 119.2312635 148.7585751  69.9401193
 118.6866103 149.5345559  70.0721467 120.1091985 149.1056556  69.7820314
 126.0200251 142.0897335  62.3181991 126.1416163 141.1613981  62.5172879
 125.7302294 142.1036021  61.4060307 128.8891442 139.7752246  65.4548711
 128.9113139 139.8391579  64.5000690 129.3059501 138.9356754  65.6489217
 139.2675066 149.5107505  63.4927933 139.7106212 148.7614830  63.0947057
 138.3901576 149.5017642  63.1101665 120.0178657 147.8855648  72.8331349
 119.2760393 148.0338283  73.4195980 119.6971401 148.1463913  71.9698099
 120.4635270 155.7721076  64.8641744 121.2893290 155.4724848  64.4840388
 120.1129322 155.0028699  65.3131533 125.4316803 155.1247545  66.9339418
 124.8096813 154.4618250  66.6341646 126.1021670 155.1508676  66.2513065
 118.6643875 153.6907403  65.8230678 117.8275784 153.2629577  65.6414679
 118.6367521 153.8839846  66.7601469 125.5041331 143.6029333  76.5271924
 125.5529486 144.4791455  76.1449693 126.0463845 143.0606726  75.9543567
 136.1094052 150.9962922  73.1205789 136.1592057 150.8312930  74.0621312
 136.0007975 150.1290181  72.7303670 124.9930310 153.6751468  60.4097878
 125.1418431 154.3586932  59.7564551 125.7996754 153.6556558  60.9247334
 133.3997814 146.9793850  74.4365096 134.3007677 146.8400315  74.1449094
 133.4745789 147.1448305  75.3763273 127.7340619 144.3560705  73.2818282
 126.8643929 144.6494271  73.0100871 127.9700100 144.9401150  74.0025546
 135.8599437 148.5392478  71.8327869 136.3353558 148.7320125  71.0246720
 134.9365002 148.5951664  71.5871252 122.7482943 149.7016646  61.4158947
 122.5028985 148.7978976  61.6139157 122.9178858 149.7033796  60.4738425
 130.4379653 140.5740322  70.7983703 130.9561597 141.3101349  70.4730191
 130.0834786 140.8804315  71.6330462 122.0178591 145.4345003  58.9145109
 121.3247836 145.5089358  58.2585145 121.7730343 144.6705347  59.4366625
 130.6892247 136.9940604  66.3184599 130.9694001 136.3263793  66.9445026
 131.4742854 137.1869700  65.8059263 128.4925716 156.1699598  57.8809626
 127.9199683 156.7889785  57.4280097 129.0658510 156.7198960  58.4149548
 134.5601106 145.4158238  70.0656174 135.5118529 145.5156336  70.0868398
 134.3904556 144.6236507  70.5754259 132.5815485 142.5013822  70.2515575
 131.9865417 142.7818834  69.5562064 132.2965182 142.9907723  71.0232316
 137.0389184 148.6364358  69.1798474 137.0065504 147.6980359  69.3658158
 137.6489807 148.7148395  68.4464299 128.8772514 147.5060411  55.2225678
 129.8231619 147.3766619  55.2914096 128.4986759 146.7675073  55.6995106
 137.1883672 145.4275402  69.2256757 136.6722721 144.6433858  69.0386686
 138.0723621 145.0994118  69.3903277 134.8494399 139.1716417  65.1852570
 134.6519220 138.8631505  66.0695902 135.4594105 139.8978056  65.3150500
 140.9381031 147.8388228  68.9178962 140.2114194 147.7044192  68.3095454
 140.5228317 148.1465056  69.7235680 128.7611207 151.5578157  76.6826335
 129.6814216 151.7356756  76.8766382 128.7260790 150.6134203  76.5306034
 127.0615432 145.4310387  55.1580563 126.1546887 145.1343500  55.2343277
 127.3391413 145.1340206  54.2914850 117.9793372 146.7516751  65.6079610
 117.6596156 145.8982059  65.3153984 117.4326800 146.9665329  66.3637577
 121.7573279 149.4679192  69.3249116 121.9759289 150.3996300  69.3437150
 122.1699053 149.1087166  70.1103920 128.6777497 139.9747277  61.3124805
 127.8678226 139.6294362  61.6880051 129.3661914 139.6654821  61.9012416
 130.6068046 139.0525324  62.9349101 131.1599084 139.4720777  63.5939124
 130.8438132 138.1261072  62.9772057 126.6301145 145.0412398  78.7151865
 126.5297872 145.9906755  78.6463956 126.4122687 144.7130637  77.8427935
 125.8314216 142.2897323  55.2992543 126.6933380 142.6152221  55.5588360
 126.0164560 141.5028819  54.7865608 117.8481632 150.3719662  67.5772731
 117.1545103 149.9573615  67.0642686 118.5954623 150.4140199  66.9806150
 133.9846853 141.1625849  62.4427766 133.4045522 141.8210653  62.0605818
 133.7182785 140.3403194  62.0315183 132.4350419 140.5630907  64.6449086
 132.9350197 140.6747441  63.8363405 133.0786027 140.2591960  65.2849894
 126.4932415 148.4709536  77.5316927 126.0099497 149.2709897  77.7380816
 126.5793354 148.4817481  76.5784371 119.7618374 150.3037916  65.4538746
 119.7389063 150.4025603  64.5020629 120.0719011 151.1503067  65.7755912
 122.4205752 152.3614071  69.5685361 123.3749006 152.3298013  69.5015292
 122.2218276 151.9004695  70.3835587 123.0105134 150.9315187  72.1356158
 123.8298023 151.4259266  72.1590996 123.2841942 150.0147155  72.1073726
 132.7671731 143.3225940  61.4984114 131.8797586 143.6075590  61.2804309
 133.1825720 143.1619703  60.6511391 136.1186267 143.3472461  65.2138453
 136.8946657 143.8368913  65.4863070 135.3934401 143.7730515  65.6710323
 138.5558825 144.0600080  66.2712394 139.1503316 143.8195816  65.5605702
 138.6285409 143.3407210  66.8985930 120.7755981 157.9033691  66.5855558
 120.6410449 157.1434092  66.0193557 120.3588043 158.6274591  66.1184347
 131.9114944 153.0870614  55.5932134 132.6150794 153.2920617  56.2089789
 131.1877593 153.6547376  55.8581217 132.7412754 148.8380475  61.7134404
 132.6847956 149.2949027  60.8742036 133.2941097 148.0771160  61.5357247
 136.5517560 144.6270207  62.5384523 136.2954495 144.2266843  63.3692731
 135.9270428 145.3414001  62.4134663 140.8629898 147.3666281  65.0455815
 140.3029456 147.4359470  65.8187377 140.2573402 147.1907265  64.3255311
 123.9325107 158.8003008  66.7974001 123.8157491 159.7448440  66.6952691
 123.1117553 158.4976569  67.1859800 133.8201642 153.5253143  57.6430594
 134.6547245 153.0934342  57.4608069 133.6585984 153.3535157  58.5707488
 133.4747534 150.0285257  59.0086933 133.4196338 149.8629528  58.0675377
 132.8493589 150.7361290  59.1649123 118.2640049 145.2653321  72.8348355
 118.9098912 144.7552275  73.3235581 118.0557200 146.0022003  73.4091781
 130.7893441 152.3334169  78.3340496 131.6584601 152.5074821  77.9727131
 130.3100192 153.1528585  78.2116225 126.7843659 139.5293366  58.5872252
 126.7722329 140.4735206  58.7440522 127.6767081 139.3463511  58.2931713
 124.9579621 159.4531270  70.0129930 125.8606868 159.4854880  70.3296425
 124.7316991 158.5231721  70.0276265 126.7133223 158.2062256  66.6740008
 125.7628854 158.2064118  66.5604380 127.0165709 157.4594991  66.1576043
 130.5995779 136.1236142  62.8418188 129.8328174 135.5694629  62.9874871
 131.0106484 136.1958011  63.7032340 122.6037540 142.4120938  76.9323370
 123.4669001 142.0557743  77.1426694 122.0302950 142.0734833  77.6198774
  44.8942127   3.0857658  54.4631077  45.5320537   2.9664405  53.7594417
  44.7762970   4.0338502  54.5219029  41.7031834   3.0385086  54.3992602
  41.3650345   2.9226151  53.5113137  42.5721602   2.6376251  54.3793608
  37.5618649   4.8920563  50.3889493  36.9983515   4.8010499  49.6205781
  37.4471044   4.0720467  50.8691985  42.1851617   4.1919938  60.3578807
  42.1740258   3.7972736  59.4859311  42.3472256   3.4586010  60.9512579
  35.1083081   6.3871754  53.2273713  35.9004373   6.0462579  52.8120013
  35.3479732   6.4966729  54.1475867  43.1418208   8.5591530  45.7003958
  42.4906188   9.1445611  45.3137972  43.9362571   9.0897725  45.7598995
  37.0673835   5.6480667  46.0991092  37.8404711   5.1009654  45.9603968
  37.4199234   6.5124917  46.3105554  38.9058878   6.9757050  59.3057991
  38.6148744   7.8802680  59.1904658  39.5415862   7.0173577  60.0202061
  39.8315085   4.3533898  55.8959351  40.4278657   4.1289921  55.1816314
  39.8890056   3.6118644  56.4984799  44.4483396   0.8109112  51.5384285
  45.2346485   0.3928535  51.1874702  44.7122100   1.7155204  51.7065934
  44.6193473   6.2481962  46.2372942  43.9839306   6.3216589  46.9493847
  44.2890880   6.8375561  45.5592021  49.8491823   0.7484345  52.4417264
  50.5816995   0.1783562  52.6755093  49.0931179   0.3605946  52.8823769
  39.1236402   3.7101439  45.9333917  39.0072660   3.0346343  46.6015001
  39.2338662   3.2233813  45.1166070  41.4667943   3.1711587  49.6380606
  41.1026150   2.6442208  50.3493528  42.3235059   2.7810056  49.4647092
  47.3717243  -5.5394081  56.9011872  47.0400568  -4.6698670  56.6773087
  46.7762857  -5.8557797  57.5805903  43.8648763   6.6618465  56.3007785
  43.5649486   7.5643504  56.1923592  43.5199822   6.3950648  57.1528938
  37.3161244   3.1132262  52.3344490  36.3911741   2.9808476  52.5422181
  37.5645658   3.8926481  52.8314432  47.2645907  -0.8198995  53.9805222
  46.3562784  -0.8883586  53.6863983  47.2133503  -0.3427050  54.8087048
  41.0862651   0.6559144  45.6188622  40.9662276   1.1016195  46.4574102
  40.3915239   1.0044461  45.0602160  34.6770055   2.7565536  53.1688279
  34.8062437   3.0100014  54.0827690  33.9967507   3.3493244  52.8492934
  38.8469543  13.4262786  49.2678753  38.7693572  14.3770611  49.3467233
  38.2431186  13.0808658  49.9253679  41.3386773   0.5990651  61.9240120
  40.5620107   1.1584571  61.9142984  41.9777336   1.0847434  62.4454990
  49.1307553  -2.6182556  55.7583096  48.4881933  -2.3250023  55.1122891
  48.6262482  -2.7329636  56.5636293  46.7847717   1.1280617  46.4468956
  47.6965573   1.3608004  46.2716653  46.2757364   1.7117661  45.8844034
  39.5933145   3.4076104  61.4858087  40.3347829   3.9461148  61.2092910
  38.8870130   4.0342393  61.6429639  45.0688484   5.5505245  60.0830248
  45.4771841   5.1087655  59.3384881  44.3465746   4.9757872  60.3364441
  41.4219555   0.4877852  57.4563805  42.2680750   0.9117265  57.5998454
  41.3618192  -0.1688524  58.1502368  45.3917299   6.1106435  53.8382537
  44.7626162   6.2752150  53.1358605  45.0042961   6.5248045  54.6093501
  49.2706531   7.0460873  51.1926901  48.5857569   7.4259775  50.6423934
  49.3550380   7.6556200  51.9258849  44.5719000  -1.8517780  59.1144979
  44.3279932  -1.0975720  58.5779254  44.8478930  -1.4732433  59.9492226
  46.5257463   4.6920832  57.7922244  46.7374358   5.3352592  57.1156625
  46.4787211   3.8583149  57.3244174  44.1283692  -2.6961347  54.6958817
  43.2668171  -2.3980094  54.9875554  44.1546126  -2.4790948  53.7639849
  40.9445261   5.8480843  51.1032622  41.4083607   6.1268546  50.3137245
  40.6802059   4.9464288  50.9205713  37.8369342   5.3952325  54.0412385
  38.4070699   5.8239593  53.4029870  38.4277454   5.1134910  54.7396571
  39.8814147   1.9703996  47.9122187  40.5838190   2.4225040  48.3796114
  39.5494776   1.3287815  48.5402080  38.3294509   0.5615752  62.2873397
  37.6993169   1.2432033  62.5208794  38.2230596   0.4498834  61.3426535
  47.6403291   7.5692788  55.9644602  48.4620734   7.1672975  55.6827283
  47.6365693   7.4661022  56.9160718  35.5754226   0.5932128  50.1722798
  34.7785390   0.7050822  50.6906293  35.3479819   0.9318780  49.3063688
  41.4059894   7.1176831  58.1205312  41.4704327   7.5797238  58.9563484
  40.6970818   6.4874196  58.2487622  55.7309284   3.9131536  52.3129573
  54.9772992   3.3438934  52.1573578  55.8656825   3.8794201  53.2600208
  41.1207912   8.7844938  47.9884293  40.9853586   9.6296474  48.4169140
  41.6617724   8.9864216  47.2250226  34.5737309   6.3020377  48.5612218
  35.0861830   7.0963627  48.7117782  35.2260022   5.6046667  48.4945819
  36.3832194   9.4186133  50.6434971  36.5598822  10.3404097  50.4555955
  37.1789027   9.1044552  51.0729351  40.5243212  -3.7205603  62.2418904
  41.2652926  -3.1198449  62.1623367  40.7561135  -4.4627965  61.6836947
  35.6684550   1.4650765  60.5197134  35.5538065   0.5636022  60.8204233
  34.8129068   1.7114461  60.1681951  42.7476388   9.4068505  62.1184635
  42.3040242   8.6204884  61.8005539  43.4093602   9.5947655  61.4528525
  37.5063509  10.9364307  56.6445313  38.0570934  10.8081370  55.8722307
  36.6674985  11.2359196  56.2940206  44.8457626   9.6871305  60.1466036
  44.8276101  10.5080186  59.6546305  45.7677546   9.5625380  60.3716177
  41.3030680   7.2015434  60.9889544  41.8359017   6.4403723  60.7588852
  40.7744761   6.9089086  61.7313699  32.5386226   4.6309031  49.3371788
  33.3761448   5.0406039  49.1205496  32.7164494   3.6908473  49.3071982
  44.4350658   2.2984111  45.0255621  43.9197281   3.0688716  45.2644009
  44.1627966   1.6249248  45.6488683  42.0197769  -2.8566188  50.0840859
  41.1639365  -3.2459337  49.9046498  42.4324721  -2.7774227  49.2240645
  43.5496916  -5.3219844  54.4832419  43.0461711  -5.3589709  53.6700225
  43.8427523  -4.4127102  54.5429076  49.4084932   5.0516466  46.9608795
  48.6314375   4.7127626  46.5163957  50.0876413   5.0569089  46.2863760
  44.2236961   0.1711204  46.8515402  43.9187097   0.4857353  47.7025545
  45.1767403   0.2492623  46.8942735  42.6683393   6.3301427  48.5008356
  42.1404755   5.5954186  48.1881594  42.1670896   7.1076103  48.2548325
  47.6476239   4.5250447  53.6175403  46.9899913   5.2149709  53.7055531
  48.4516638   4.9146879  53.9609389  46.4581698   2.8794820  51.6679344
  46.9713580   3.5124812  52.1701054  47.1082922   2.2796016  51.3022704
  43.7204072  12.8579144  44.4240015  43.0465771  13.1610841  45.0324973
  44.1069894  13.6608225  44.0745473  42.9362529   0.3544276  53.9137685
  42.0185090   0.5759223  53.7559373  43.3522672   0.4290586  53.0549392
  43.7197576   1.7535691  49.0440365  44.4669395   2.2657088  48.7347487
  43.9889166   1.4319744  49.9044759  41.9924227   4.2494232  46.0267319
  41.0835446   3.9653265  46.1239789  42.0219310   4.6693311  45.1670626
  47.2243494   7.8600821  49.7958487  46.7705821   7.0191731  49.8523677
  46.5937461   8.4962220  50.1333267  46.1676414  -1.2107192  51.0259154
  45.4299170  -1.7229806  51.3569397  46.4203187  -1.6506811  50.2142431
  45.6676433   9.6977318  50.7308305  45.9599408  10.2582375  50.0120671
  46.1775054   9.9905879  51.4861464  32.5612397   1.9699746  50.0082522
  32.3636797   1.3769107  49.2833588  32.0059061   1.6651956  50.7258460
  40.5409121   1.8622853  52.1277115  40.5957730   0.9096689  52.0519591
  39.7300323   2.0182292  52.6118413  41.6900314   5.7902976  43.3655398
  41.2519744   5.0738835  42.9061035  42.4310755   6.0179090  42.8040489
  38.4801481   0.4799912  49.8867494  37.6669346   0.7794083  50.2932686
  38.9760475   0.0855601  50.6041976  40.6310058  10.4757669  51.8201758
  40.5886237  10.7018516  50.8910290  41.5472757  10.2421044  51.9687559
  44.0775692   0.9441737  58.7182388  44.4325080   1.1713210  59.5776853
  44.7247823   1.2760114  58.0959643  49.8073429   4.0660173  49.4231717
  49.6691328   4.2561769  48.4952906  49.4509648   4.8279556  49.8799768
  49.8342809   6.1336700  54.4342988  50.2679315   6.0411989  55.2826042
  50.5474390   6.1094200  53.7963004  38.7475859   7.3520698  51.6163721
  39.5416458   6.8571018  51.4146296  38.0367552   6.8238561  51.2531427
  43.5670704   9.7338794  55.9676089  43.6207726  10.3029730  56.7353805
  42.6985485   9.9040679  55.6030126  35.0558623   1.4963780  47.6923474
  34.1256211   1.4348236  47.9093436  35.1516095   0.9739733  46.8960115
  36.4469097  -0.5643650  57.4500540  37.1192151  -0.7726288  56.8013189
  35.6198884  -0.7621564  57.0105772  50.6958358   6.1760400  56.9675873
  50.8894248   7.0806211  57.2135148  50.5958977   5.7167819  57.8014458
  42.3494669  -3.9381709  59.4666201  41.7022584  -3.2391759  59.3730677
  43.1195685  -3.5045565  59.8342449  45.7573467   6.3267143  62.5416754
  45.6058973   6.0977695  61.6246838  45.7478147   7.2837745  62.5548099
  42.5258803   3.8999056  57.5263020  43.4550863   4.0510215  57.3531988
  42.1049833   3.9883077  56.6711667  41.3247135   7.9249720  55.2961558
  41.1858221   7.5568505  56.1687496  40.5361731   8.4397360  55.1245516
  41.9195287  13.0258817  46.6387095  42.0947043  12.5546860  47.4532717
  41.2328075  13.6524583  46.8668355  42.8752350   7.3031323  52.6850396
  42.5402183   7.2632093  53.5808046  42.3756296   6.6376039  52.2120806
  36.8496594   2.7098953  58.2102977  36.7116392   1.9779192  58.8114516
  37.7601518   2.6207853  57.9287165  45.8111542   4.6487357  42.9587456
  45.1940713   3.9234185  42.8620508  45.3428030   5.4096718  42.6154530
  39.4778895   2.4218912  57.6986657  40.1878514   1.7812105  57.6573275
  39.4348203   2.6731807  58.6212837  47.4665674   9.3586266  60.6193236
  47.4078220   8.6745486  59.9523819  47.8685192  10.1005256  60.1673862
  38.1907829  -0.5915870  59.5182296  37.6545186  -1.0425131  60.1703893
  37.6024537  -0.4569961  58.7752761  36.4856372  16.1748180  53.4126955
  36.7252971  16.8066704  54.0905973  35.6425569  15.8236220  53.6992314
  47.4683081   7.3225850  58.8507216  46.5809860   6.9851771  58.9733614
  48.0381632   6.5908881  59.0875981  29.1212228   3.6549941  52.1750267
  29.8083268   3.3411671  51.5871282  28.9660357   4.5591306  51.9017518
  40.9984234  11.9827302  55.8168459  40.9254406  12.7882273  56.3287763
  40.5561627  12.1819268  54.9916480  40.7874014  11.2199072  49.3271280
  40.0041536  11.7620752  49.4209505  41.4866759  11.7373052  49.7265522
  44.0970664  -2.9706299  51.9705486  44.5939364  -3.7236336  51.6506556
  43.3257646  -2.9341982  51.4048695  51.9500421   2.7334067  53.6123777
  51.9390298   3.6158782  53.2417710  51.0817801   2.3805618  53.4178314
  43.4582918  11.8814136  57.9726617  44.1710890  12.5161601  57.9002519
  42.9672947  11.9778002  57.1566619  45.1800445   5.7865389  49.5443909
  44.2456724   5.9066851  49.3748613  45.3577113   4.8837855  49.2803919
  40.6805633  -0.8288916  51.6977170  40.3103420  -1.3817875  52.3858076
  41.1764725  -1.4330782  51.1452170  48.5672996   1.6282708  50.0793943
  49.0333448   2.4610700  50.0054246  49.0180497   1.1627690  50.7839202
  38.5094831   9.6308579  58.7932188  39.2104291  10.2645062  58.9461583
  38.0389946   9.9723311  58.0327828  46.6349227   7.9726529  47.0780095
  46.9109071   7.8583124  47.9873969  45.7653726   7.5744014  47.0392268
  46.5389659  -6.0036705  54.1184845  45.6252739  -5.7732478  54.2867052
  46.9682760  -5.9198261  54.9698877  46.3096117   2.1853187  56.6184739
  45.6567568   2.4329094  55.9637191  46.6876497   1.3717325  56.2847216
  43.2703291  12.2212880  50.7212909  43.4525686  11.4034536  51.1840661
  44.0936277  12.4380572  50.2837799  43.6045457  11.1481065  47.9827957
  44.1333223  10.6373520  47.3698120  43.8673676  10.8323595  48.8473490
  42.3583690   2.9272998  63.1050776  41.6824327   2.8267127  63.7753151
  43.1811324   2.7712212  63.5686773  34.1062549   9.1644934  55.7263291
  34.6915986   8.4188622  55.8591195  33.9087388   9.4748891  56.6099955
  36.9601205  12.1996182  50.7425733  36.2911580  12.6842310  50.2589773
  36.8214074  12.4465402  51.6569112  41.1006473  14.2339925  57.3408392
  41.6524781  14.3971547  58.1057477  41.4412667  14.8244363  56.6688417
  45.9517348   9.0601183  63.1957046  46.4957252   9.6731141  62.7012001
  45.3704192   9.6180761  63.7124059  44.2374861  12.1821901  54.3272074
  44.1126000  11.3811641  53.8183019  44.8953952  12.6768094  53.8386044
  46.3009769   9.9830921  55.9551624  45.3540104   9.8636272  55.8829951
  46.6492542   9.0953419  56.0377885  43.3056202   9.7783637  52.1555976
  43.1581165   8.8500345  52.3363546  44.1309696   9.8003728  51.6713051
  37.1718447  -1.5698296  48.0136468  37.5114519  -1.0412374  47.2915077
  37.6190567  -1.2317890  48.7895035  46.9090324  10.6012196  53.2420849
  47.8336872  10.3955057  53.1045300  46.7405627  10.3528597  54.1510190
  43.3017717  -2.3678525  47.1488093  43.5181331  -1.4853887  46.8476922
  42.8211784  -2.7592312  46.4193735  38.0416938   0.5907188  53.7258838
  37.8961519   0.9047491  54.6183120  37.5642142   1.2092088  53.1729737
  39.9013321  -2.4190264  53.7739728  39.8874890  -3.3149171  53.4372026
  40.6185749  -2.4119600  54.4078014  41.7539452  -1.9852924  55.8192855
  41.4957229  -1.0635853  55.8177185  41.2224492  -2.3822489  56.5093319
  46.6985640  11.1197863  48.5982940  46.8722518  10.5544286  47.8456793
  47.1914532  11.9198758  48.4162430  32.5162600   3.1312532  56.6646499
  31.9716068   3.9072340  56.7966774  33.3941950   3.4783337  56.5065621
  52.5525031   3.8834286  50.2173240  52.9956177   3.1341612  49.8192363
  51.6751542   3.8744423  49.8346972  47.6860813  10.4364628  45.6979839
  48.3811717  11.0571320  45.9167153  48.0283963   9.5859979  45.9732217
  33.3028622   2.2582429  59.5576656  32.5610358   2.4065064  60.1441286
  32.9821366   2.5190694  58.6943405  49.5852236   7.8864333  47.2267169
  50.1103560   8.2251606  46.5016489  49.4974588   6.9511349  47.0430304
  41.2472285  11.7998407  59.3557046  41.5559411  11.5547554  60.2279746
  42.0447767  12.0045045  58.8675916  41.2692897  13.9536317  51.5862423
  40.8297887  13.4612695  52.2795279  42.0201014  13.4109284  51.3454498
  33.7485236  10.1447857  51.5887051  34.5743256   9.8451629  51.2085694
  33.3979288   9.3755480  52.0376839  38.7166769   9.4974326  53.6584724
  38.0946778   8.8345031  53.3586952  39.3871636   9.5235458  52.9758372
  31.9493841   8.0634184  52.5475984  31.1125749   7.6356358  52.3659986
  31.9217486   8.2566627  53.4846775  38.7891296  -2.0243886  63.2517230
  38.8379452  -1.1481763  62.8695000  39.3313810  -2.5666493  62.6788874
  49.2746142   8.5197237  62.5318367  48.4841686   8.5021376  61.9922867
  49.0379497   9.0585531  63.2867404  49.3944017   5.3689703  59.8451096
  49.4442022   5.2039711  60.7866619  49.2857940   4.5016962  59.4548977
  38.2780276   8.0478249  47.1343185  38.4268396   8.7313713  46.4809858
  39.0846719   8.0283339  47.6492641  46.6847779   1.3520631  61.1610403
  47.5857642   1.2127096  60.8694400  46.7595754   1.5175086  62.1008580
  41.0190585  -1.2712514  60.0063589  40.1493894  -0.9778948  59.7346178
  41.2550065  -0.6872069  60.7270853  50.8962214   7.7886645  60.0893117
  50.6047022   8.1516625  60.9256578  50.2834345   7.0753653  59.9106450
  52.0957896   5.3539525  52.6095688  52.9304788   5.7929329  52.7733248
  52.2317025   4.8778178  51.7903933  49.1449402   2.9119260  58.5573175
  49.6203524   3.1046906  57.7492027  48.2214967   2.9678445  58.3116559
  36.0332909   4.0743427  48.1404254  35.7878951   3.1705757  48.3384464
  36.2028823   4.0760577  47.1983732  43.7229619  -5.0532897  57.5229009
  44.2411562  -4.3171870  57.1975498  43.3684751  -4.7468904  58.3575768
  41.7775681  10.5426379  44.6054932  41.2049648  11.1616567  44.1525404
  42.3508475  11.0925741  45.1394854  47.8451071  -0.2114980  56.7901481
  48.7968494  -0.1116883  56.8113705  47.6754522  -1.0036712  57.2999565
  45.8665451  -3.1259397  56.9760882  45.2715383  -2.8454384  56.2807371
  45.5815147  -2.6365496  57.7477623  44.9972941  10.8263530  45.7363515
  45.9303614  10.7609091  45.9396390  44.9096154  11.6619796  45.2778047
  47.6260958  10.1429400  42.6967462  47.5474589   9.8089264  43.5903220
  48.4470624  10.6351168  42.6958934  50.3239149   3.0091139  55.9043781
  50.2915469   2.0707140  56.0903465  50.9339773   3.0875176  55.1709606
  50.4733637  -0.1997817  55.9502064  49.9572686  -0.9839361  55.7631993
  51.3573586  -0.5279101  56.1148583  48.1344364  -6.4556802  51.9097877
  47.9369185  -6.7641714  52.7941209  48.7444070  -5.7295163  52.0395806
  56.1415699   4.0707146  55.0449818  56.8719087   3.8092434  55.6057521
  55.5322644   3.3335868  55.0851885  54.2230996   2.2115009  55.6424269
  53.4964159   2.0770974  55.0340760  53.8078283   2.5191837  56.4480987
  42.0461172   5.9304938  63.4071642  42.9664182   6.1083537  63.6011688
  42.0110755   4.9860984  63.2551341  35.0423245   3.8405973  56.0494423
  35.2609255   4.7723081  56.0682457  35.4549019   3.4813947  56.8349227
  39.9151110  -0.5860821  65.4397172  39.8147837   0.3633536  65.3709263
  39.6972652  -0.9142582  64.5673242  31.1331597   4.7446444  54.3018038
  30.4395069   4.3300396  53.7887992  31.8804588   4.7866980  53.7051457
  47.2696818  -4.4647370  49.1673072  46.6895487  -3.8062566  48.7851125
  47.0032751  -5.2870025  48.7560490  45.7200384  -5.0642312  51.3694393
  46.2200163  -4.9525777  50.5608711  46.3635992  -5.3681259  52.0095201
  39.7782380   2.8436318  64.2562233  39.2949462   3.6436678  64.4626123
  39.8643319   2.8544263  63.3029677  33.0468340   4.6764697  52.1784053
  33.0239028   4.7752385  51.2265936  33.3568976   5.5229848  52.5001219
  35.7055718   6.7340852  56.2930667  36.6598971   6.7024795  56.2260599
  35.5068241   6.2731476  57.1080893  36.2955100   5.3041968  58.8601465
  37.1147989   5.7986047  58.8836302  36.5691908   4.3873937  58.8319032
  46.0521696  -2.3047279  48.2229420  45.1647551  -2.0197629  48.0049615
  46.4675685  -2.4653516  47.3756697  49.4036232  -2.2800758  51.9383760
  50.1796622  -1.7904306  52.2108377  48.6784366  -1.8542704  52.3955629
  51.8408791  -1.5673139  52.9957700  52.4353282  -1.8077403  52.2851009
  51.9135374  -2.2866009  53.6231237  34.0605946  12.2760472  53.3100865
  33.9260414  11.5160873  52.7438863  33.6438009  13.0001372  52.8429654
  45.1964909   7.4597395  42.3177440  45.9000760   7.6647398  42.9335096
  44.4727558   8.0274157  42.5826524  46.0262720   3.2107257  48.4379711
  45.9697921   3.6675808  47.5987343  46.5791062   2.4497941  48.2602553
  49.8367526  -1.0003011  49.2629830  49.5804460  -1.4006376  50.0938038
  49.2120394  -0.2859218  49.1379969  54.1479864   1.7393062  51.7701121
  53.5879421   1.8086251  52.5432684  53.5423367   1.5634046  51.0500618
  37.2175072  13.1729789  53.5219308  37.1007456  14.1175221  53.4197998
  36.3967519  12.8703350  53.9105107  47.1051607   7.8979925  44.3675900
  47.9397211   7.4661123  44.1853375  46.9435950   7.7261938  45.2952795
  46.7597499   4.4012038  45.7332240  46.7046303   4.2356309  44.7920684
  46.1343554   5.1088071  45.8894429  44.0743406   6.7060950  65.0585803
  44.9434566   6.8801602  64.6972437  43.5950158   7.5255367  64.9361532
  38.2429586  13.8258051  56.7375236  39.1456833  13.8581661  57.0541731
  38.0166957  12.8958502  56.7521572  39.9983188  12.5789037  53.3985315
  39.0478819  12.5790899  53.2849687  40.3015675  11.8321772  52.8821349
  55.7335882  18.4149576  54.4631077  56.3714292  18.2956323  53.7594417
  55.6156725  19.3630420  54.5219029  52.5425588  18.3677004  54.3992602
  52.2044100  18.2518068  53.5113137  53.4115356  17.9668169  54.3793608
  48.4012404  20.2212480  50.3889493  47.8377269  20.1302417  49.6205781
  48.2864799  19.4012385  50.8691985  53.0245371  19.5211856  60.3578807
  53.0134012  19.1264654  59.4859311  53.1866011  18.7877928  60.9512579
  45.9476836  21.7163672  53.2273713  46.7398128  21.3754496  52.8120013
  46.1873486  21.8258647  54.1475867  53.9811963  23.8883448  45.7003958
  53.3299942  24.4737528  45.3137972  54.7756325  24.4189643  45.7598995
  47.9067590  20.9772585  46.0991092  48.6798466  20.4301572  45.9603968
  48.2592989  21.8416834  46.3105554  49.7452632  22.3048967  59.3057991
  49.4542498  23.2094598  59.1904658  50.3809617  22.3465495  60.0202061
  50.6708839  19.6825816  55.8959351  51.2672411  19.4581838  55.1816314
  50.7283811  18.9410561  56.4984799  50.2433868  17.1365251  43.7309542
  50.4959388  16.6146772  42.9693005  49.3058427  16.9731397  43.8336226
  55.2877150  16.1401030  51.5384285  56.0740240  15.7220453  51.1874702
  55.5515855  17.0447122  51.7065934  55.4587228  21.5773880  46.2372942
  54.8233061  21.6508506  46.9493847  55.1284634  22.1667479  45.5592021
  60.6885578  16.0776263  52.4417264  61.4210750  15.5075480  52.6755093
  59.9324933  15.6897863  52.8823769  49.9630156  19.0393357  45.9333917
  49.8466414  18.3638261  46.6015001  50.0732416  18.5525731  45.1166070
  52.3061697  18.5003504  49.6380606  51.9419905  17.9734125  50.3493528
  53.1628813  18.1101973  49.4647092  58.2110998   9.7897837  56.9011872
  57.8794323  10.6593248  56.6773087  57.6156611   9.4734121  57.5805903
  51.9467184  13.5293404  44.6341955  52.1141587  14.3973640  45.0012426
  51.7564353  13.6920686  43.7103244  54.7042517  21.9910383  56.3007785
  54.4043241  22.8935422  56.1923592  54.3593577  21.7242566  57.1528938
  48.1554999  18.4424180  52.3344490  47.2305495  18.3100394  52.5422181
  48.4039412  19.2218399  52.8314432  58.1039661  14.5092923  53.9805222
  57.1956539  14.4408331  53.6863983  58.0527257  14.9864868  54.8087048
  51.9256405  15.9851061  45.6188622  51.8056030  16.4308112  46.4574102
  51.2308994  16.3336379  45.0602160  45.5163810  18.0857453  53.1688279
  45.6456191  18.3391932  54.0827690  44.8361261  18.6785161  52.8492934
  49.6863297  28.7554703  49.2678753  49.6087327  29.7062528  49.3467233
  49.0824941  28.4100576  49.9253679  52.1780527  15.9282569  61.9240120
  51.4013861  16.4876489  61.9142984  52.8171090  16.4139352  62.4454990
  59.9701308  12.7109361  55.7583096  59.3275688  13.0041895  55.1122891
  59.4656236  12.5962282  56.5636293  57.6241471  16.4572535  46.4468956
  58.5359327  16.6899921  46.2716653  57.1151118  17.0409579  45.8844034
  50.4326899  18.7368022  61.4858087  51.1741584  19.2753066  61.2092910
  49.7263885  19.3634311  61.6429639  55.9082239  20.8797162  60.0830248
  56.3165595  20.4379573  59.3384881  55.1859500  20.3049790  60.3364441
  52.2613309  15.8169769  57.4563805  53.1074504  16.2409183  57.5998454
  52.2011947  15.1603394  58.1502368  56.2311054  21.4398353  53.8382537
  55.6019916  21.6044067  53.1358605  55.8436716  21.8539963  54.6093501
  60.1100286  22.3752791  51.1926901  59.4251324  22.7551692  50.6423934
  60.1944135  22.9848118  51.9258849  55.4112754  13.4774138  59.1144979
  55.1673686  14.2316198  58.5779254  55.6872685  13.8559485  59.9492226
  57.3651217  20.0212750  57.7922244  57.5768112  20.6644510  57.1156625
  57.3180965  19.1875066  57.3244174  54.9677446  12.6330571  54.6958817
  54.1061925  12.9311824  54.9875554  54.9939881  12.8500969  53.7639849
  51.7839016  21.1772761  51.1032622  52.2477361  21.4560464  50.3137245
  51.5195814  20.2756206  50.9205713  48.6763097  20.7244243  54.0412385
  49.2464454  21.1531511  53.4029870  49.2671208  20.4426827  54.7396571
  50.7207902  17.2995914  47.9122187  51.4231945  17.7516957  48.3796114
  50.3888530  16.6579732  48.5402080  49.1688263  15.8907670  62.2873397
  48.5386924  16.5723951  62.5208794  49.0624351  15.7790752  61.3426535
  44.4633236  15.5579466  53.2139321  43.6732290  15.8136995  52.7379431
  44.9544483  16.3727804  53.3191361  58.4797045  22.8984705  55.9644602
  59.3014489  22.4964893  55.6827283  58.4759448  22.7952940  56.9160718
  46.4147981  15.9224045  50.1722798  45.6179144  16.0342740  50.6906293
  46.1873573  16.2610698  49.3063688  52.2453649  22.4468749  58.1205312
  52.3098081  22.9089156  58.9563484  51.5364572  21.8166114  58.2487622
  42.7470939  15.8109957  55.6454312  42.9978977  16.6956967  55.9111888
  43.2830487  15.6314558  54.8729404  66.5703038  19.2423454  52.3129573
  65.8166747  18.6730852  52.1573578  66.7050579  19.2086118  53.2600208
  51.9601666  24.1136856  47.9884293  51.8247341  24.9588392  48.4169140
  52.5011479  24.3156134  47.2250226  48.4469006  10.1928436  64.6498648
  48.0535951   9.6394635  65.3246292  49.2635146  10.5039014  65.0405165
  45.4131064  21.6312294  48.5612218  45.9255584  22.4255544  48.7117782
  46.0653776  20.9338585  48.4945819  47.2225948  24.7478050  50.6434971
  47.3992577  25.6696015  50.4555955  48.0182782  24.4336470  51.0729351
  51.3636967  11.6086315  62.2418904  52.1046680  12.2093468  62.1623367
  51.5954890  10.8663953  61.6836947  46.5078305  16.7942682  60.5197134
  46.3931820  15.8927940  60.8204233  45.6522823  17.0406379  60.1681951
  53.5870143  24.7360423  62.1184635  53.1433997  23.9496801  61.8005539
  54.2487356  24.9239573  61.4528525  48.3457264  26.2656224  56.6445313
  48.8964689  26.1373288  55.8722307  47.5068740  26.5651113  56.2940206
  55.6851381  25.0163223  60.1466036  55.6669856  25.8372104  59.6546305
  56.6071301  24.8917298  60.3716177  52.1424435  22.5307352  60.9889544
  52.6752772  21.7695640  60.7588852  51.6138516  22.2381004  61.7313699
  55.3094130   7.6367418  56.5183186  54.9658399   8.5269060  56.4422297
  55.6773092   7.4469076  55.6552771  43.3779980  19.9600948  49.3371788
  44.2155202  20.3697957  49.1205496  43.5558248  19.0200391  49.3071982
  55.2744412  17.6276029  45.0255621  54.7591036  18.3980634  45.2644009
  55.0021721  16.9541165  45.6488683  52.8591524  12.4725730  50.0840859
  52.0033120  12.0832580  49.9046498  53.2718475  12.5517691  49.2240645
  54.3890670  10.0072073  54.4832419  53.8855466   9.9702208  53.6700225
  54.6821277  10.9164816  54.5429076  50.6333556  10.0910803  53.4898601
  51.4986553   9.8953612  53.1304490  50.7011065   9.8621155  54.4167958
  60.2478687  20.3808384  46.9608795  59.4708129  20.0419543  46.5163957
  60.9270168  20.3861007  46.2863760  55.0630716  15.5003121  46.8515402
  54.7580851  15.8149270  47.7025545  56.0161158  15.5784541  46.8942735
  53.5077147  21.6593345  48.5008356  52.9798509  20.9246104  48.1881594
  53.0064650  22.4368021  48.2548325  58.4869994  19.8542365  53.6175403
  57.8293668  20.5441626  53.7055531  59.2910393  20.2438797  53.9609389
  48.2395875  12.3213011  50.8614968  48.8139627  12.0988192  50.1288161
  48.8266858  12.3901705  51.6143569  57.2975452  18.2086738  51.6679344
  57.8107334  18.8416730  52.1701054  57.9476676  17.6087933  51.3022704
  48.5665462  14.3517472  44.8810853  47.7302774  14.6892158  45.2020128
  48.4270232  14.2166452  43.9437990  50.5418543   9.1954260  49.5890037
  49.8882955   8.8803277  48.9646652  50.4999017   8.5730000  50.3149860
  51.6529748  19.4773555  41.5043329  50.7456809  19.2462808  41.7034478
  52.1500780  18.6811174  41.6917311  54.5597827  28.1871062  44.4240015
  53.8859525  28.4902759  45.0324973  54.9463649  28.9900142  44.0745473
  53.7756283  15.6836193  53.9137685  52.8578845  15.9051140  53.7559373
  54.1916427  15.7582504  53.0549392  54.5591331  17.0827609  49.0440365
  55.3063150  17.5949006  48.7347487  54.8282920  16.7611662  49.9044759
  52.8317981  19.5786150  46.0267319  51.9229200  19.2945182  46.1239789
  52.8613065  19.9985228  45.1670626  58.0637249  23.1892739  49.7958487
  57.6099576  22.3483649  49.8523677  57.4331215  23.8254138  50.1333267
  57.0070168  14.1184725  51.0259154  56.2692925  13.6062111  51.3569397
  57.2596942  13.6785107  50.2142431  56.5070188  25.0269236  50.7308305
  56.7993162  25.5874293  50.0120671  57.0168808  25.3197797  51.4861464
  57.1081795   6.8960977  51.6200924  57.4140672   6.0358341  51.3326839
  57.8334400   7.4878597  51.4199918  43.4006151  17.2991664  50.0082522
  43.2030551  16.7061025  49.2833588  42.8452815  16.9943874  50.7258460
  51.3802875  17.1914770  52.1277115  51.4351485  16.2388607  52.0519591
  50.5694077  17.3474209  52.6118413  52.5294069  21.1194893  43.3655398
  52.0913499  20.4030752  42.9061035  53.2704510  21.3471008  42.8040489
  49.3195235  15.8091830  49.8867494  48.5063101  16.1086001  50.2932686
  49.8154229  15.4147519  50.6041976  51.4703813  25.8049587  51.8201758
  51.4279992  26.0310433  50.8910290  52.3866512  25.5712962  51.9687559
  54.9169447  16.2733654  58.7182388  55.2718834  16.5005128  59.5776853
  55.5641578  16.6052031  58.0959643  60.6467184  19.3952090  49.4231717
  60.5085082  19.5853686  48.4952906  60.2903403  20.1571473  49.8799768
  48.8109310  13.3810186  55.5028729  49.4508689  13.2398945  54.8051692
  47.9786840  13.0944699  55.1267331  60.6736563  21.4628617  54.4342988
  61.1073070  21.3703906  55.2826042  61.3868144  21.4386118  53.7963004
  49.5869614  22.6812616  51.6163721  50.3810212  22.1862936  51.4146296
  48.8761306  22.1530479  51.2531427  54.4064458  25.0630712  55.9676089
  54.4601480  25.6321648  56.7353805  53.5379240  25.2332597  55.6030126
  45.8952377  16.8255698  47.6923474  44.9649965  16.7640153  47.9093436
  45.9909849  16.3031650  46.8960115  45.8137926  13.3510511  50.2801715
  46.0744744  14.2655844  50.1710876  46.6355099  12.8834953  50.4298328
  47.2862852  14.7648268  57.4500540  47.9585905  14.5565630  56.8013189
  46.4592638  14.5670354  57.0105772  61.5352113  21.5052318  56.9675873
  61.7288003  22.4098129  57.2135148  61.4352731  21.0459737  57.8014458
  53.1888424  11.3910209  59.4666201  52.5416339  12.0900158  59.3730677
  53.9589439  11.8246353  59.8342449  56.5967222  21.6559061  62.5416754
  56.4452728  21.4269612  61.6246838  56.5871901  22.6129662  62.5548099
  53.3652558  19.2290974  57.5263020  54.2944618  19.3802133  57.3531988
  52.9443588  19.3174994  56.6711667  52.1640890  23.2541638  55.2961558
  52.0251975  22.8860422  56.1687496  51.3755486  23.7689277  55.1245516
  52.7589042  28.3550734  46.6387095  52.9340797  27.8838778  47.4532717
  52.0721830  28.9816501  46.8668355  53.7146105  22.6323241  52.6850396
  53.3795937  22.5924011  53.5808046  53.2150051  21.9667957  52.2120806
  47.6890349  18.0390871  58.2102977  47.5510147  17.3071110  58.8114516
  48.5995272  17.9499771  57.9287165  56.6505297  19.9779275  42.9587456
  56.0334467  19.2526103  42.8620508  56.1821785  20.7388635  42.6154530
  50.3172650  17.7510830  57.6986657  51.0272268  17.1104022  57.6573275
  50.2741958  18.0023725  58.6212837  58.3059428  24.6878183  60.6193236
  58.2471974  24.0037403  59.9523819  58.7078947  25.4297173  60.1673862
  49.0301583  14.7376048  59.5182296  48.4938940  14.2866786  60.1703893
  48.4418292  14.8721957  58.7752761  47.3250127  31.5040097  53.4126955
  47.5646725  32.1358621  54.0905973  46.4819323  31.1528137  53.6992314
  48.4403842  14.1964699  42.0808760  47.5633309  14.0753500  41.7171007
  48.9161596  13.4050778  41.8287648  58.3076835  22.6517767  58.8507216
  57.4203614  22.3143689  58.9733614  58.8775387  21.9200799  59.0875981
  39.9605983  18.9841859  52.1750267  40.6477022  18.6703589  51.5871282
  39.8054111  19.8883224  51.9017518  44.7640705  13.8732056  56.6035291
  44.6798893  13.2657725  55.8685701  43.9423411  14.3641074  56.6044787
  51.8377989  27.3119220  55.8168459  51.7648160  28.1174191  56.3287763
  51.3955382  27.5111185  54.9916480  51.6267768  26.5490990  49.3271280
  50.8435290  27.0912670  49.4209505  52.3260514  27.0664969  49.7265522
  54.9364419  12.3585619  51.9705486  55.4333118  11.6055581  51.6506556
  54.1651400  12.3949936  51.4048695  62.7894176  18.0625985  53.6123777
  62.7784052  18.9450700  53.2417710  61.9211555  17.7097535  53.4178314
  54.2976672  27.2106054  57.9726617  55.0104645  27.8453518  57.9002519
  53.8066701  27.3069920  57.1566619  56.0194199  21.1157306  49.5443909
  55.0850478  21.2358769  49.3748613  56.1970868  20.2129773  49.2803919
  51.5199387  14.5003002  51.6977170  51.1497175  13.9474042  52.3858076
  52.0158480  13.8961136  51.1452170  59.4066751  16.9574626  50.0793943
  59.8727203  17.7902617  50.0054246  59.8574251  16.4919607  50.7839202
  49.3488586  24.9600497  58.7932188  50.0498045  25.5936980  58.9461583
  48.8783701  25.3015229  58.0327828  57.4742982  23.3018447  47.0780095
  57.7502826  23.1875041  47.9873969  56.6047480  22.9035932  47.0392268
  57.3783413   9.3255213  54.1184845  56.4646493   9.5559439  54.2867052
  57.8076515   9.4093657  54.9698877  57.1489872  17.5145105  56.6184739
  56.4961322  17.7621012  55.9637191  57.5270252  16.7009243  56.2847216
  54.1097046  27.5504798  50.7212909  54.2919440  26.7326454  51.1840661
  54.9330032  27.7672490  50.2837799  54.4439211  26.4772983  47.9827957
  54.9726978  25.9665437  47.3698120  54.7067431  26.1615513  48.8473490
  53.1977445  18.2564916  63.1050776  52.5218082  18.1559045  63.7753151
  54.0205079  18.1004129  63.5686773  44.9456304  24.4936852  55.7263291
  45.5309741  23.7480540  55.8591195  44.7481142  24.8040809  56.6099955
  47.7994959  27.5288100  50.7425733  47.1305334  28.0134227  50.2589773
  47.6607829  27.7757320  51.6569112  39.5373959  17.0642452  54.4467734
  39.5758058  16.5306043  55.2404852  39.0314252  16.5377658  53.8278711
  51.9400228  29.5631843  57.3408392  52.4918536  29.7263465  58.1057477
  52.2806421  30.1536281  56.6688417  46.9164721  11.9106993  57.9430276
  46.9806047  12.7721824  57.5307674  46.8531841  11.2980995  57.2102635
  46.3916994  13.9830125  61.5903311  47.0189032  13.6007203  62.2040835
  45.5344912  13.7644327  61.9559003  56.7911102  24.3893101  63.1957046
  57.3351006  25.0023059  62.7012001  56.2097947  24.9472679  63.7124059
  43.1682536  15.7906555  47.5221665  43.4635977  14.8817233  47.4688719
  42.2670572  15.7694294  47.2002668  55.0768615  27.5113819  54.3272074
  54.9519754  26.7103558  53.8183019  55.7347706  28.0060012  53.8386044
  46.6976783  13.8662551  53.5049214  45.9763369  14.4798519  53.3656687
  47.4870039  14.4020316  53.4265860  57.1403523  25.3122839  55.9551624
  56.1933859  25.1928190  55.8829951  57.4886297  24.4245337  56.0377885
  49.5003097  11.2016978  59.7789866  50.0237499  11.4479274  60.5416175
  49.2815430  12.0337012  59.3593003  44.8970378  13.4720652  47.6460991
  44.5683084  12.5918031  47.4636097  45.2509749  13.4168321  48.5337380
  54.1449957  25.1075555  52.1555976  53.9974919  24.1792262  52.3363546
  54.9703450  25.1295646  51.6713051  48.0112201  13.7593622  48.0136468
  48.3508274  14.2879543  47.2915077  48.4584321  14.0974028  48.7895035
  57.7484079  25.9304114  53.2420849  58.6730626  25.7246975  53.1045300
  57.5799382  25.6820515  54.1510190  50.7055642  12.1430673  57.4639536
  50.3652462  11.3438486  57.8660216  49.9994648  12.4432384  56.8916370
  51.3572114   9.2279985  55.9166859  52.1798183   8.7540463  55.7945750
  51.6010177  10.0070469  56.4165546  49.9980348  12.2568244  46.2129761
  50.7188711  12.6349496  45.7093478  49.3745652  12.9757120  46.3164739
  54.1411471  12.9613393  47.1488093  54.3575085  13.8438030  46.8476922
  53.6605538  12.5699606  46.4193735  48.8810692  15.9199106  53.7258838
  48.7355273  16.2339409  54.6183120  48.4035896  16.5384006  53.1729737
  50.7407075  12.9101654  53.7739728  50.7268644  12.0142747  53.4372026
  51.4579503  12.9172318  54.4078014  52.5933206  13.3438994  55.8192855
  52.3350984  14.2656065  55.8177185  52.0618246  12.9469429  56.5093319
  57.5379395  26.4489781  48.5982940  57.7116272  25.8836204  47.8456793
  58.0308286  27.2490676  48.4162430  43.3556355  18.4604450  56.6646499
  42.8109823  19.2364258  56.7966774  44.2335704  18.8075255  56.5065621
  50.1443971  11.7916034  49.0427298  50.2659882  10.8632680  49.2418185
  49.8546014  11.8054720  48.1305613  53.0135162   9.4770944  52.1794018
  53.0356858   9.5410278  51.2245997  53.4303221   8.6375453  52.3734524
  63.3918786  19.2126204  50.2173240  63.8349932  18.4633529  49.8192363
  62.5145296  19.2036340  49.8346972  58.5254567  25.7656545  45.6979839
  59.2205472  26.3863238  45.9167153  58.8677717  24.9151897  45.9732217
  44.1422376  17.5874346  59.5576656  43.4004112  17.7356982  60.1441286
  43.8215121  17.8482612  58.6943405  60.4245990  23.2156251  47.2267169
  60.9497314  23.5543524  46.5016489  60.3368343  22.2803266  47.0430304
  52.0866039  27.1290325  59.3557046  52.3953166  26.8839471  60.2279746
  52.8841521  27.3336963  58.8675916  52.1086651  29.2828234  51.5862423
  51.6691641  28.7904613  52.2795279  52.8594768  28.7401202  51.3454498
  44.5878990  25.4739775  51.5887051  45.4137010  25.1743547  51.2085694
  44.2373042  24.7047398  52.0376839  49.5560523  24.8266243  53.6584724
  48.9340533  24.1636948  53.3586952  50.2265390  24.8527375  52.9758372
  42.7887595  23.3926102  52.5475984  41.9519503  22.9648276  52.3659986
  42.7611241  23.5858545  53.4846775  49.6285051  13.3048031  63.2517230
  49.6773206  14.1810154  62.8695000  50.1707565  12.7625424  62.6788874
  60.1139896  23.8489155  62.5318367  59.3235440  23.8313294  61.9922867
  59.8773251  24.3877448  63.2867404  60.2337772  20.6981621  59.8451096
  60.2835776  20.5331628  60.7866619  60.1251695  19.8308880  59.4548977
  49.1174030  23.3770167  47.1343185  49.2662151  24.0605631  46.4809858
  49.9240474  23.3575257  47.6492641  57.5241534  16.6812549  61.1610403
  58.4251397  16.5419014  60.8694400  57.5989508  16.8467004  62.1008580
  51.8584339  14.0579404  60.0063589  50.9887649  14.3512970  59.7346178
  52.0943820  14.6419849  60.7270853  61.7355968  23.1178563  60.0893117
  61.4440777  23.4808543  60.9256578  61.1228100  22.4045571  59.9106450
  62.9351651  20.6831442  52.6095688  63.7698542  21.1221246  52.7733248
  63.0710779  20.2070096  51.7903933  59.9843157  18.2411177  58.5573175
  60.4597278  18.4338823  57.7492027  59.0608722  18.2970363  58.3116559
  46.8726663  19.4035344  48.1404254  46.6272705  18.4997674  48.3384464
  47.0422578  19.4052495  47.1983732  54.5623373  10.2759021  57.5229009
  55.0805317  11.0120048  57.1975498  54.2078506  10.5823014  58.3575768
  46.1422311  15.1363702  45.6390415  45.4491556  15.2108057  44.9830451
  45.8974063  14.3724046  46.1611932  54.8135967   6.6959303  53.0429906
  55.0937721   6.0282492  53.6690332  55.5986574   6.8888399  52.5304570
  52.6169436  25.8718297  44.6054932  52.0443403  26.4908484  44.1525404
  53.1902229  26.4217659  45.1394854  58.6844826  15.1176937  56.7901481
  59.6362248  15.2175035  56.8113705  58.5148276  14.3255206  57.2999565
  56.7059205  12.2032520  56.9760882  56.1109137  12.4837533  56.2807371
  56.4208902  12.6926421  57.7477623  55.8366696  26.1555447  45.7363515
  56.7697369  26.0901009  45.9396390  55.7489908  26.9911714  45.2778047
  58.4654712  25.4721318  42.6967462  58.3868344  25.1381181  43.5903220
  59.2864379  25.9643086  42.6958934  61.1632903  18.3383057  55.9043781
  61.1309223  17.3999058  56.0903465  61.7733527  18.4167094  55.1709606
  53.0016234  17.2079110  41.9470985  53.9475339  17.0785318  42.0159403
  52.6230479  16.4693772  42.4240413  61.3127392  15.1294100  55.9502064
  60.7966440  14.3452557  55.7631993  62.1967340  14.8012817  56.1148583
  58.9738119   8.8735116  51.9097877  58.7762940   8.5650204  52.7941209
  59.5837824   9.5996755  52.0395806  66.9809453  19.3999064  55.0449818
  67.7112842  19.1384352  55.6057521  66.3716399  18.6627786  55.0851885
  65.0624750  17.5406926  55.6424269  64.3357914  17.4062891  55.0340760
  64.6472037  17.8483755  56.4480987  52.8854927  21.2596856  63.4071642
  53.8057936  21.4375455  63.6011688  52.8504510  20.3152901  63.2551341
  51.1859151  15.1329086  41.8825870  50.2790607  14.8362199  41.9588584
  51.4635132  14.8358904  41.0160156  42.1037092  16.4535450  52.3324916
  41.7839876  15.6000758  52.0399290  41.5570520  16.6684028  53.0882884
  45.8816999  19.1697891  56.0494423  46.1003009  20.1014999  56.0682457
  46.2942773  18.8105865  56.8349227  52.8021217   9.6765976  48.0370111
  51.9921945   9.3313061  48.4125357  53.4905634   9.3673520  48.6257723
  54.7311765   8.7544023  49.6594408  55.2842804   9.1739476  50.3184431
  54.9681852   7.8279771  49.7017364  50.7544865  14.7431096  65.4397172
  50.6541592  15.6925453  65.3709263  50.5366407  14.4149335  64.5673242
  49.9557936  11.9916022  42.0237849  50.8177100  12.3170920  42.2833667
  50.1408280  11.2047517  41.5110915  41.9725352  20.0738361  54.3018038
  41.2788823  19.6592314  53.7887992  42.7198343  20.1158898  53.7051457
  58.1090572  10.8644548  49.1673072  57.5289242  11.5229352  48.7851125
  57.8426505  10.0421893  48.7560490  56.5594139  10.2649606  51.3694393
  57.0593917  10.3766140  50.5608711  57.2029747   9.9610659  52.0095201
  50.6176135  18.1728235  64.2562233  50.1343216  18.9728595  64.4626123
  50.7037074  18.1836180  63.3029677  43.8862094  20.0056615  52.1784053
  43.8632782  20.1044302  51.2265936  44.1962731  20.8521766  52.5001219
  46.5449472  22.0632770  56.2930667  47.4992726  22.0316712  56.2260599
  46.3461996  21.6023394  57.1080893  47.1348854  20.6333886  58.8601465
  47.9541743  21.1277965  58.8836302  47.4085662  19.7165854  58.8319032
  56.8915450  13.0244638  48.2229420  56.0041306  13.3094289  48.0049615
  57.3069440  12.8638402  47.3756697  60.2429987  13.0491159  51.9383760
  61.0190377  13.5387612  52.2108377  59.5178121  13.4749214  52.3955629
  62.6802545  13.7618779  52.9957700  63.2747036  13.5214515  52.2851009
  62.7529129  13.0425909  53.6231237  44.8999701  27.6052390  53.3100865
  44.7654169  26.8452790  52.7438863  44.4831763  28.3293289  52.8429654
  56.0358664  22.7889313  42.3177440  56.7394514  22.9939316  42.9335096
  55.3121313  23.3566075  42.5826524  56.8656474  18.5399174  48.4379711
  56.8091676  18.9967726  47.5987343  57.4184817  17.7789859  48.2602553
  60.6761280  14.3288906  49.2629830  60.4198214  13.9285542  50.0938038
  60.0514148  15.0432700  49.1379969  64.9873618  17.0684979  51.7701121
  64.4273176  17.1378169  52.5432684  64.3817121  16.8925964  51.0500618
  48.0568827  28.5021707  53.5219308  47.9401211  29.4467139  53.4197998
  47.2361273  28.1995268  53.9105107  57.9445361  23.2271842  44.3675900
  58.7790965  22.7953041  44.1853375  57.7829704  23.0553856  45.2952795
  57.5991254  19.7303956  45.7332240  57.5440057  19.5648227  44.7920684
  56.9737309  20.4379988  45.8894429  42.3883769  14.9672020  59.5593662
  43.0342632  14.4570974  60.0480887  42.1800920  15.7040702  60.1337087
  54.9137161  22.0352867  65.0585803  55.7828320  22.2093520  64.6972437
  54.4343912  22.8547284  64.9361532  50.9087379   9.2312065  45.3117558
  50.8966049  10.1753904  45.4685829  51.8010801   9.0482210  45.0177019
  49.0823341  29.1549968  56.7375236  49.9850588  29.1873579  57.0541731
  48.8560711  28.2250419  56.7521572  50.8376943  27.9080955  53.3985315
  49.8872574  27.9082817  53.2849687  51.1409429  27.1613690  52.8821349
  54.7239498   5.8254841  49.5663495  53.9571894   5.2713328  49.7120177
  55.1350203   5.8976710  50.4277647  46.7281260  12.1139637  63.6568676
  47.5912721  11.7576442  63.8672001  46.1546670  11.7753532  64.3444080
  66.5729636  33.7441493  54.4631077  67.2108046  33.6248241  53.7594417
  66.4550479  34.6922337  54.5219029  63.3819343  33.6968921  54.3992602
  63.0437854  33.5809986  53.5113137  64.2509111  33.2960087  54.3793608
  59.2406158  35.5504398  50.3889493  58.6771024  35.4594335  49.6205781
  59.1258553  34.7304302  50.8691985  63.8639126  34.8503773  60.3578807
  63.8527766  34.4556571  59.4859311  64.0259765  34.1169846  60.9512579
  56.7870590  37.0455589  53.2273713  57.5791882  36.7046414  52.8120013
  57.0267241  37.1550565  54.1475867  64.8205717  39.2175366  45.7003958
  64.1693697  39.8029446  45.3137972  65.6150080  39.7481560  45.7598995
  58.7461344  36.3064503  46.0991092  59.5192220  35.7593490  45.9603968
  59.0986743  37.1708752  46.3105554  60.5846387  37.6340885  59.3057991
  60.2936253  38.5386516  59.1904658  61.2203371  37.6757413  60.0202061
  61.5102594  35.0117734  55.8959351  62.1066166  34.7873756  55.1816314
  61.5677565  34.2702479  56.4984799  61.0827622  32.4657169  43.7309542
  61.3353143  31.9438690  42.9693005  60.1452181  32.3023314  43.8336226
  66.1270905  31.4692947  51.5384285  66.9133994  31.0512370  51.1874702
  66.3909609  32.3739039  51.7065934  66.2980982  36.9065798  46.2372942
  65.6626815  36.9800424  46.9493847  65.9678389  37.4959396  45.5592021
  71.5279332  31.4068180  52.4417264  72.2604504  30.8367397  52.6755093
  70.7718688  31.0189781  52.8823769  60.8023911  34.3685275  45.9333917
  60.6860169  33.6930178  46.6015001  60.9126171  33.8817649  45.1166070
  63.1455452  33.8295422  49.6380606  62.7813659  33.3026043  50.3493528
  64.0022568  33.4393891  49.4647092  69.0504752  25.1189755  56.9011872
  68.7188077  25.9885165  56.6773087  68.4550366  24.8026039  57.5805903
  62.7860939  28.8585322  44.6341955  62.9535341  29.7265558  45.0012426
  62.5958108  29.0212603  43.7103244  65.5436272  37.3202301  56.3007785
  65.2436995  38.2227339  56.1923592  65.1987331  37.0534484  57.1528938
  58.9948753  33.7716097  52.3344490  58.0699250  33.6392311  52.5422181
  59.2433167  34.5510317  52.8314432  68.9433416  29.8384841  53.9805222
  68.0350293  29.7700249  53.6863983  68.8921012  30.3156786  54.8087048
  62.7650160  31.3142979  45.6188622  62.6449785  31.7600030  46.4574102
  62.0702748  31.6628297  45.0602160  56.3557564  33.4149371  53.1688279
  56.4849946  33.6683850  54.0827690  55.6755016  34.0077079  52.8492934
  60.5257052  44.0846621  49.2678753  60.4481081  45.0354446  49.3467233
  59.9218695  43.7392493  49.9253679  63.0174282  31.2574486  61.9240120
  62.2407616  31.8168406  61.9142984  63.6564845  31.7431269  62.4454990
  70.8095062  28.0401279  55.7583096  70.1669442  28.3333812  55.1122891
  70.3049991  27.9254199  56.5636293  68.4635226  31.7864452  46.4468956
  69.3753082  32.0191839  46.2716653  67.9544873  32.3701496  45.8844034
  61.2720654  34.0659940  61.4858087  62.0135338  34.6044984  61.2092910
  60.5657639  34.6926228  61.6429639  66.7475993  36.2089080  60.0830248
  67.1559350  35.7671491  59.3384881  66.0253255  35.6341708  60.3364441
  63.1007064  31.1461687  57.4563805  63.9468259  31.5701100  57.5998454
  63.0405701  30.4895311  58.1502368  67.0704808  36.7690271  53.8382537
  66.4413671  36.9335985  53.1358605  66.6830470  37.1831880  54.6093501
  70.9494040  37.7044709  51.1926901  70.2645078  38.0843610  50.6423934
  71.0337889  38.3140035  51.9258849  66.2506509  28.8066055  59.1144979
  66.0067441  29.5608116  58.5779254  66.5266439  29.1851403  59.9492226
  68.2044972  35.3504668  57.7922244  68.4161867  35.9936428  57.1156625
  68.1574720  34.5166984  57.3244174  65.8071201  27.9622488  54.6958817
  64.9455680  28.2603742  54.9875554  65.8333635  28.1792887  53.7639849
  62.6232770  36.5064679  51.1032622  63.0871116  36.7852382  50.3137245
  62.3589568  35.6048123  50.9205713  59.5156851  36.0536160  54.0412385
  60.0858208  36.4823429  53.4029870  60.1064963  35.7718745  54.7396571
  61.5601656  32.6287831  47.9122187  62.2625699  33.0808875  48.3796114
  61.2282285  31.9871650  48.5402080  60.0082018  31.2199588  62.2873397
  59.3780678  31.9015869  62.5208794  59.9018105  31.1082669  61.3426535
  55.3026990  30.8871384  53.2139321  54.5126044  31.1428912  52.7379431
  55.7938237  31.7019722  53.3191361  69.3190800  38.2276623  55.9644602
  70.1408243  37.8256810  55.6827283  69.3153202  38.1244857  56.9160718
  57.2541735  31.2515963  50.1722798  56.4572899  31.3634657  50.6906293
  57.0267328  31.5902615  49.3063688  63.0847403  37.7760666  58.1205312
  63.1491836  38.2381074  58.9563484  62.3758327  37.1458031  58.2487622
  53.5864693  31.1401874  55.6454312  53.8372731  32.0248884  55.9111888
  54.1224241  30.9606476  54.8729404  77.4096793  34.5715372  52.3129573
  76.6560501  34.0022770  52.1573578  77.5444334  34.5378036  53.2600208
  62.7995421  39.4428774  47.9884293  62.6641095  40.2880310  48.4169140
  63.3405233  39.6448051  47.2250226  59.2862760  25.5220354  64.6498648
  58.8929706  24.9686552  65.3246292  60.1028901  25.8330932  65.0405165
  56.2524818  36.9604212  48.5612218  56.7649339  37.7547462  48.7117782
  56.9047531  36.2630502  48.4945819  58.0619703  40.0769968  50.6434971
  58.2386331  40.9987933  50.4555955  58.8576536  39.7628387  51.0729351
  62.2030721  26.9378233  62.2418904  62.9440435  27.5385386  62.1623367
  62.4348644  26.1955871  61.6836947  57.3472059  32.1234600  60.5197134
  57.2325574  31.2219857  60.8204233  56.4916577  32.3698297  60.1681951
  64.4263897  40.0652340  62.1184635  63.9827751  39.2788719  61.8005539
  65.0881111  40.2531491  61.4528525  59.1851018  41.5948142  56.6445313
  59.7358443  41.4665205  55.8722307  58.3462494  41.8943031  56.2940206
  66.5245135  40.3455140  60.1466036  66.5063610  41.1664021  59.6546305
  67.4465055  40.2209215  60.3716177  62.9818189  37.8599270  60.9889544
  63.5146526  37.0987558  60.7588852  62.4532270  37.5672922  61.7313699
  66.1487884  22.9659336  56.5183186  65.8052154  23.8560977  56.4422297
  66.5166847  22.7760993  55.6552771  54.2173735  35.2892866  49.3371788
  55.0548957  35.6989875  49.1205496  54.3952003  34.3492308  49.3071982
  66.1138167  32.9567947  45.0255621  65.5984790  33.7272551  45.2644009
  65.8415475  32.2833083  45.6488683  63.6985278  27.8017648  50.0840859
  62.8426874  27.4124498  49.9046498  64.1112230  27.8809608  49.2240645
  65.2284425  25.3363991  54.4832419  64.7249220  25.2994126  53.6700225
  65.5215031  26.2456734  54.5429076  61.4727311  25.4202721  53.4898601
  62.3380307  25.2245529  53.1304490  61.5404819  25.1913072  54.4167958
  71.0872441  35.7100301  46.9608795  70.3101884  35.3711461  46.5163957
  71.7663922  35.7152925  46.2863760  65.9024470  30.8295039  46.8515402
  65.5974606  31.1441188  47.7025545  66.8554912  30.9076459  46.8942735
  64.3470902  36.9885262  48.5008356  63.8192264  36.2538022  48.1881594
  63.8458405  37.7659939  48.2548325  69.3263748  35.1834283  53.6175403
  68.6687422  35.8733544  53.7055531  70.1304147  35.5730715  53.9609389
  59.0789630  27.6504929  50.8614968  59.6533381  27.4280110  50.1288161
  59.6660612  27.7193623  51.6143569  68.1369207  33.5378655  51.6679344
  68.6501089  34.1708647  52.1701054  68.7870431  32.9379851  51.3022704
  59.4059217  29.6809390  44.8810853  58.5696529  30.0184076  45.2020128
  59.2663986  29.5458369  43.9437990  61.3812297  24.5246177  49.5890037
  60.7276710  24.2095195  48.9646652  61.3392771  23.9021918  50.3149860
  62.4923502  34.8065472  41.5043329  61.5850564  34.5754726  41.7034478
  62.9894534  34.0103092  41.6917311  65.3991581  43.5162980  44.4240015
  64.7253280  43.8194676  45.0324973  65.7857403  44.3192060  44.0745473
  64.6150038  31.0128111  53.9137685  63.6972599  31.2343058  53.7559373
  65.0310181  31.0874421  53.0549392  65.3985085  32.4119527  49.0440365
  66.1456904  32.9240924  48.7347487  65.6676675  32.0903579  49.9044759
  63.6711736  34.9078067  46.0267319  62.7622955  34.6237100  46.1239789
  63.7006819  35.3277146  45.1670626  68.9031003  38.5184657  49.7958487
  68.4493330  37.6775567  49.8523677  68.2724970  39.1546055  50.1333267
  67.8463923  29.4476643  51.0259154  67.1086679  28.9354029  51.3569397
  68.0990696  29.0077024  50.2142431  67.3463942  40.3561154  50.7308305
  67.6386917  40.9166211  50.0120671  67.8562563  40.6489715  51.4861464
  67.9475550  22.2252895  51.6200924  68.2534427  21.3650258  51.3326839
  68.6728155  22.8170515  51.4199918  54.2399906  32.6283581  50.0082522
  54.0424306  32.0352942  49.2833588  53.6846570  32.3235792  50.7258460
  62.2196630  32.5206688  52.1277115  62.2745239  31.5680524  52.0519591
  61.4087832  32.6766127  52.6118413  63.3687823  36.4486811  43.3655398
  62.9307253  35.7322670  42.9061035  64.1098264  36.6762926  42.8040489
  60.1588990  31.1383748  49.8867494  59.3456855  31.4377918  50.2932686
  60.6547984  30.7439436  50.6041976  62.3097567  41.1341505  51.8201758
  62.2673746  41.3602351  50.8910290  63.2260266  40.9004879  51.9687559
  65.7563201  31.6025572  58.7182388  66.1112589  31.8297045  59.5776853
  66.4035332  31.9343949  58.0959643  71.4860938  34.7244008  49.4231717
  71.3478837  34.9145604  48.4952906  71.1297157  35.4863391  49.8799768
  59.6503064  28.7102103  55.5028729  60.2902444  28.5690862  54.8051692
  58.8180595  28.4236617  55.1267331  71.5130318  36.7920535  54.4342988
  71.9466824  36.6995824  55.2826042  72.2261898  36.7678036  53.7963004
  60.4263368  38.0104534  51.6163721  61.2203967  37.5154854  51.4146296
  59.7155061  37.4822397  51.2531427  65.2458213  40.3922629  55.9676089
  65.2995235  40.9613565  56.7353805  64.3772994  40.5624514  55.6030126
  56.7346132  32.1547615  47.6923474  55.8043720  32.0932071  47.9093436
  56.8303604  31.6323568  46.8960115  56.6531681  28.6802428  50.2801715
  56.9138498  29.5947761  50.1710876  57.4748853  28.2126871  50.4298328
  58.1256606  30.0940185  57.4500540  58.7979659  29.8857548  56.8013189
  57.2986393  29.8962271  57.0105772  72.3745867  36.8344236  56.9675873
  72.5681757  37.7390046  57.2135148  72.2746486  36.3751655  57.8014458
  64.0282178  26.7202126  59.4666201  63.3810093  27.4192076  59.3730677
  64.7983193  27.1538270  59.8342449  67.4360976  36.9850978  62.5416754
  67.2846482  36.7561530  61.6246838  67.4265655  37.9421580  62.5548099
  64.2046312  34.5582891  57.5263020  65.1338372  34.7094051  57.3531988
  63.7837342  34.6466912  56.6711667  63.0034644  38.5833556  55.2961558
  62.8645730  38.2152340  56.1687496  62.2149240  39.0981195  55.1245516
  63.5982796  43.6842652  46.6387095  63.7734552  43.2130695  47.4532717
  62.9115584  44.3108418  46.8668355  64.5539859  37.9615158  52.6850396
  64.2189692  37.9215928  53.5808046  64.0543805  37.2959874  52.2120806
  58.5284103  33.3682788  58.2102977  58.3903901  32.6363027  58.8114516
  59.4389027  33.2791688  57.9287165  67.4899051  35.3071193  42.9587456
  66.8728222  34.5818021  42.8620508  67.0215539  36.0680553  42.6154530
  61.1566404  33.0802748  57.6986657  61.8666023  32.4395940  57.6573275
  61.1135712  33.3315643  58.6212837  69.1453183  40.0170101  60.6193236
  69.0865729  39.3329321  59.9523819  69.5472701  40.7589091  60.1673862
  59.8695338  30.0667966  59.5182296  59.3332695  29.6158704  60.1703893
  59.2812046  30.2013874  58.7752761  58.1643881  46.8332015  53.4126955
  58.4040480  47.4650539  54.0905973  57.3213078  46.4820055  53.6992314
  59.2797597  29.5256617  42.0808760  58.4027063  29.4045418  41.7171007
  59.7555350  28.7342695  41.8287648  69.1470590  37.9809685  58.8507216
  68.2597369  37.6435607  58.9733614  69.7169141  37.2492716  59.0875981
  50.7999737  34.3133777  52.1750267  51.4870777  33.9995507  51.5871282
  50.6447866  35.2175141  51.9017518  55.6034459  29.2023973  56.6035291
  55.5192648  28.5949643  55.8685701  54.7817166  29.6932992  56.6044787
  62.6771743  42.6411137  55.8168459  62.6041915  43.4466109  56.3287763
  62.2349136  42.8403103  54.9916480  62.4661523  41.8782907  49.3271280
  61.6829045  42.4204588  49.4209505  63.1654268  42.3956887  49.7265522
  65.7758173  27.6877537  51.9705486  66.2726873  26.9347499  51.6506556
  65.0045155  27.7241853  51.4048695  73.6287930  33.3917902  53.6123777
  73.6177807  34.2742618  53.2417710  72.7605310  33.0389453  53.4178314
  65.1370427  42.5397971  57.9726617  65.8498399  43.1745436  57.9002519
  64.6460455  42.6361837  57.1566619  66.8587954  36.4449224  49.5443909
  65.9244232  36.5650686  49.3748613  67.0364622  35.5421691  49.2803919
  62.3593142  29.8294920  51.6977170  61.9890929  29.2765960  52.3858076
  62.8552234  29.2253053  51.1452170  70.2460505  32.2866543  50.0793943
  70.7120957  33.1194535  50.0054246  70.6968006  31.8211525  50.7839202
  60.1882340  40.2892415  58.7932188  60.8891800  40.9228898  58.9461583
  59.7177455  40.6307146  58.0327828  68.3136736  38.6310365  47.0780095
  68.5896580  38.5166959  47.9873969  67.4441235  38.2327849  47.0392268
  68.2177168  24.6547130  54.1184845  67.3040248  24.8851357  54.2867052
  68.6470269  24.7385574  54.9698877  67.9883626  32.8437022  56.6184739
  67.3355077  33.0912930  55.9637191  68.3664006  32.0301160  56.2847216
  64.9490800  42.8796715  50.7212909  65.1313195  42.0618371  51.1840661
  65.7723786  43.0964408  50.2837799  65.2832966  41.8064901  47.9827957
  65.8120732  41.2957355  47.3698120  65.5461185  41.4907431  48.8473490
  64.0371199  33.5856833  63.1050776  63.3611836  33.4850963  63.7753151
  64.8598833  33.4296047  63.5686773  55.7850058  39.8228770  55.7263291
  56.3703495  39.0772458  55.8591195  55.5874897  40.1332727  56.6099955
  58.6388714  42.8580017  50.7425733  57.9699089  43.3426145  50.2589773
  58.5001583  43.1049238  51.6569112  50.3767713  32.3934370  54.4467734
  50.4151813  31.8597961  55.2404852  49.8708006  31.8669576  53.8278711
  62.7793982  44.8923761  57.3408392  63.3312290  45.0555382  58.1057477
  63.1200176  45.4828199  56.6688417  57.7558475  27.2398911  57.9430276
  57.8199802  28.1013741  57.5307674  57.6925596  26.6272912  57.2102635
  57.2310748  29.3122043  61.5903311  57.8582787  28.9299120  62.2040835
  56.3738667  29.0936245  61.9559003  67.6304857  39.7185018  63.1957046
  68.1744761  40.3314977  62.7012001  67.0491701  40.2764597  63.7124059
  54.0076291  31.1198472  47.5221665  54.3029732  30.2109151  47.4688719
  53.1064327  31.0986212  47.2002668  65.9162370  42.8405736  54.3272074
  65.7913509  42.0395476  53.8183019  66.5741461  43.3351930  53.8386044
  57.5370538  29.1954469  53.5049214  56.8157124  29.8090436  53.3656687
  58.3263794  29.7312234  53.4265860  67.9797278  40.6414756  55.9551624
  67.0327613  40.5220108  55.8829951  68.3280051  39.7537254  56.0377885
  60.3396851  26.5308895  59.7789866  60.8631253  26.7771192  60.5416175
  60.1209185  27.3628930  59.3593003  55.7364132  28.8012570  47.6460991
  55.4076839  27.9209949  47.4636097  56.0903503  28.7460239  48.5337380
  64.9843711  40.4367473  52.1555976  64.8368674  39.5084180  52.3363546
  65.8097205  40.4587563  51.6713051  58.8505956  29.0885540  48.0136468
  59.1902028  29.6171461  47.2915077  59.2978076  29.4265946  48.7895035
  68.5877833  41.2596031  53.2420849  69.5124381  41.0538893  53.1045300
  68.4193136  41.0112432  54.1510190  61.5449396  27.4722590  57.4639536
  61.2046217  26.6730403  57.8660216  60.8388403  27.7724301  56.8916370
  62.1965868  24.5571903  55.9166859  63.0191937  24.0832381  55.7945750
  62.4403932  25.3362387  56.4165546  60.8374103  27.5860161  46.2129761
  61.5582465  27.9641414  45.7093478  60.2139407  28.3049038  46.3164739
  64.9805226  28.2905310  47.1488093  65.1968840  29.1729948  46.8476922
  64.4999293  27.8991524  46.4193735  59.7204447  31.2491023  53.7258838
  59.5749028  31.5631327  54.6183120  59.2429651  31.8675924  53.1729737
  61.5800830  28.2393571  53.7739728  61.5662399  27.3434665  53.4372026
  62.2973258  28.2464235  54.4078014  63.4326961  28.6730912  55.8192855
  63.1744738  29.5947982  55.8177185  62.9012001  28.2761346  56.5093319
  68.3773149  41.7781699  48.5982940  68.5510027  41.2128121  47.8456793
  68.8702041  42.5782594  48.4162430  54.1950109  33.7896368  56.6646499
  53.6503577  34.5656176  56.7966774  55.0729459  34.1367172  56.5065621
  60.9837726  27.1207952  49.0427298  61.1053637  26.1924598  49.2418185
  60.6939768  27.1346638  48.1305613  63.8528916  24.8062862  52.1794018
  63.8750613  24.8702195  51.2245997  64.2696975  23.9667371  52.3734524
  74.2312540  34.5418122  50.2173240  74.6743686  33.7925447  49.8192363
  73.3539051  34.5328258  49.8346972  69.3648322  41.0948463  45.6979839
  70.0599226  41.7155156  45.9167153  69.7071472  40.2443814  45.9732217
  54.9816131  32.9166264  59.5576656  54.2397867  33.0648899  60.1441286
  54.6608875  33.1774530  58.6943405  71.2639745  38.5448169  47.2267169
  71.7891069  38.8835441  46.5016489  71.1762097  37.6095184  47.0430304
  62.9259794  42.4582242  59.3557046  63.2346920  42.2131389  60.2279746
  63.7235276  42.6628881  58.8675916  62.9480406  44.6120152  51.5862423
  62.5085396  44.1196531  52.2795279  63.6988523  44.0693120  51.3454498
  55.4272745  40.8031693  51.5887051  56.2530765  40.5035465  51.2085694
  55.0766797  40.0339315  52.0376839  60.3954278  40.1558161  53.6584724
  59.7734287  39.4928866  53.3586952  61.0659145  40.1819293  52.9758372
  53.6281350  38.7218019  52.5475984  52.7913258  38.2940194  52.3659986
  53.6004995  38.9150463  53.4846775  60.4678805  28.6339949  63.2517230
  60.5166961  29.5102072  62.8695000  61.0101319  28.0917342  62.6788874
  70.9533651  39.1781072  62.5318367  70.1629195  39.1605211  61.9922867
  70.7167006  39.7169366  63.2867404  71.0731526  36.0273539  59.8451096
  71.1229531  35.8623546  60.7866619  70.9645449  35.1600798  59.4548977
  59.9567785  38.7062084  47.1343185  60.1055905  39.3897549  46.4809858
  60.7634228  38.6867174  47.6492641  68.3635288  32.0104467  61.1610403
  69.2645151  31.8710932  60.8694400  68.4383263  32.1758922  62.1008580
  62.6978094  29.3871321  60.0063589  61.8281403  29.6804888  59.7346178
  62.9337574  29.9711766  60.7270853  72.5749723  38.4470480  60.0893117
  72.2834531  38.8100461  60.9256578  71.9621854  37.7337489  59.9106450
  73.7745405  36.0123360  52.6095688  74.6092297  36.4513164  52.7733248
  73.9104534  35.5362013  51.7903933  70.8236911  33.5703095  58.5573175
  71.2991033  33.7630741  57.7492027  69.9002476  33.6262281  58.3116559
  57.7120418  34.7327262  48.1404254  57.4666460  33.8289592  48.3384464
  57.8816332  34.7344412  47.1983732  65.4017128  25.6050938  57.5229009
  65.9199071  26.3411965  57.1975498  65.0472260  25.9114932  58.3575768
  56.9816065  30.4655620  45.6390415  56.2885310  30.5399975  44.9830451
  56.7367817  29.7015963  46.1611932  65.6529722  22.0251221  53.0429906
  65.9331475  21.3574410  53.6690332  66.4380329  22.2180317  52.5304570
  63.4563190  41.2010215  44.6054932  62.8837157  41.8200402  44.1525404
  64.0295984  41.7509577  45.1394854  69.5238580  30.4468855  56.7901481
  70.4756003  30.5466953  56.8113705  69.3542030  29.6547124  57.2999565
  67.5452960  27.5324438  56.9760882  66.9502892  27.8129451  56.2807371
  67.2602656  28.0218339  57.7477623  66.6760450  41.4847365  45.7363515
  67.6091123  41.4192927  45.9396390  66.5883663  42.3203632  45.2778047
  69.3048467  40.8013235  42.6967462  69.2262098  40.4673099  43.5903220
  70.1258133  41.2935003  42.6958934  72.0026658  33.6674975  55.9043781
  71.9702978  32.7290975  56.0903465  72.6127282  33.7459011  55.1709606
  63.8409989  32.5371028  41.9470985  64.7869093  32.4077236  42.0159403
  63.4624234  31.7985690  42.4240413  72.1521146  30.4586018  55.9502064
  71.6360195  29.6744475  55.7631993  73.0361095  30.1304735  56.1148583
  69.8131873  24.2027034  51.9097877  69.6156694  23.8942122  52.7941209
  70.4231579  24.9288673  52.0395806  77.8203208  34.7290981  55.0449818
  78.5506596  34.4676270  55.6057521  77.2110153  33.9919703  55.0851885
  75.9018505  32.8698844  55.6424269  75.1751668  32.7354809  55.0340760
  75.4865792  33.1775673  56.4480987  63.7248681  36.5888774  63.4071642
  64.6451691  36.7667373  63.6011688  63.6898264  35.6444819  63.2551341
  62.0252906  30.4621004  41.8825870  61.1184361  30.1654117  41.9588584
  62.3028887  30.1650822  41.0160156  52.9430846  31.7827367  52.3324916
  52.6233631  30.9292676  52.0399290  52.3964274  31.9975946  53.0882884
  56.7210754  34.4989808  56.0494423  56.9396764  35.4306916  56.0682457
  57.1336528  34.1397783  56.8349227  63.6414972  25.0057894  48.0370111
  62.8315700  24.6604979  48.4125357  64.3299389  24.6965437  48.6257723
  65.5705520  24.0835941  49.6594408  66.1236558  24.5031394  50.3184431
  65.8075606  23.1571689  49.7017364  61.5938619  30.0723014  65.4397172
  61.4935346  31.0217371  65.3709263  61.3760161  29.7441253  64.5673242
  60.7951690  27.3207939  42.0237849  61.6570854  27.6462838  42.2833667
  60.9802035  26.5339435  41.5110915  52.8119106  35.4030279  54.3018038
  52.1182578  34.9884232  53.7887992  53.5592097  35.4450815  53.7051457
  68.9484327  26.1936466  49.1673072  68.3682996  26.8521270  48.7851125
  68.6820260  25.3713810  48.7560490  67.3987893  25.5941523  51.3694393
  67.8987672  25.7058058  50.5608711  68.0423501  25.2902576  52.0095201
  61.4569889  33.5020153  64.2562233  60.9736971  34.3020513  64.4626123
  61.5430828  33.5128098  63.3029677  54.7255849  35.3348533  52.1784053
  54.7026537  35.4336220  51.2265936  55.0356485  36.1813683  52.5001219
  57.3843227  37.3924688  56.2930667  58.3386480  37.3608630  56.2260599
  57.1855750  36.9315311  57.1080893  57.9742609  35.9625804  58.8601465
  58.7935498  36.4569882  58.8836302  58.2479416  35.0457772  58.8319032
  67.7309205  28.3536556  48.2229420  66.8435060  28.6386207  48.0049615
  68.1463194  28.1930319  47.3756697  71.0823741  28.3783077  51.9383760
  71.8584131  28.8679529  52.2108377  70.3571875  28.8041131  52.3955629
  73.5196300  29.0910696  52.9957700  74.1140791  28.8506432  52.2851009
  73.5922883  28.3717827  53.6231237  55.7393455  42.9344307  53.3100865
  55.6047923  42.1744708  52.7438863  55.3225518  43.6585207  52.8429654
  66.8752418  38.1181231  42.3177440  67.5788269  38.3231233  42.9335096
  66.1515067  38.6857993  42.5826524  67.7050229  33.8691092  48.4379711
  67.6485430  34.3259643  47.5987343  68.2578571  33.1081777  48.2602553
  71.5155035  29.6580824  49.2629830  71.2591969  29.2577460  50.0938038
  70.8907903  30.3724618  49.1379969  75.8267372  32.3976897  51.7701121
  75.2666930  32.4670086  52.5432684  75.2210876  32.2217882  51.0500618
  58.8962581  43.8313624  53.5219308  58.7794965  44.7759057  53.4197998
  58.0755028  43.5287186  53.9105107  68.7839116  38.5563760  44.3675900
  69.6184720  38.1244958  44.1853375  68.6223459  38.3845774  45.2952795
  68.4385008  35.0595873  45.7332240  68.3833812  34.8940145  44.7920684
  67.8131063  35.7671906  45.8894429  53.2277523  30.2963938  59.5593662
  53.8736387  29.7862892  60.0480887  53.0194674  31.0332619  60.1337087
  65.7530915  37.3644785  65.0585803  66.6222075  37.5385437  64.6972437
  65.2737667  38.1839202  64.9361532  61.7481134  24.5603982  45.3117558
  61.7359803  25.5045822  45.4685829  62.6404555  24.3774128  45.0177019
  59.9217095  44.4841886  56.7375236  60.8244342  44.5165496  57.0541731
  59.6954466  43.5542337  56.7521572  61.6770697  43.2372873  53.3985315
  60.7266328  43.2374734  53.2849687  61.9803184  42.4905607  52.8821349
  65.5633253  21.1546759  49.5663495  64.7965649  20.6005246  49.7120177
  65.9743958  21.2268628  50.4277647  57.5675014  27.4431555  63.6568676
  58.4306476  27.0868360  63.8672001  56.9940425  27.1045450  64.3444080
  77.4123391  49.0733411  54.4631077  78.0501801  48.9540158  53.7594417
  77.2944234  50.0214255  54.5219029  74.2213097  49.0260839  54.3992602
  73.8831609  48.9101904  53.5113137  75.0902865  48.6252004  54.3793608
  70.0799913  50.8796316  50.3889493  69.5164778  50.7886253  49.6205781
  69.9652308  50.0596220  50.8691985  74.7032880  50.1795691  60.3578807
  74.6921521  49.7848489  59.4859311  74.8653520  49.4461763  60.9512579
  67.6264345  52.3747507  53.2273713  68.4185637  52.0338332  52.8120013
  67.8660995  52.4842482  54.1475867  75.6599472  54.5467283  45.7003958
  75.0087451  55.1321364  45.3137972  76.4543834  55.0773478  45.7598995
  69.5855099  51.6356420  46.0991092  70.3585975  51.0885407  45.9603968
  69.9380498  52.5000670  46.3105554  71.4240141  52.9632803  59.3057991
  71.1330007  53.8678434  59.1904658  72.0597126  53.0049330  60.0202061
  72.3496348  50.3409651  55.8959351  72.9459920  50.1165674  55.1816314
  72.4071320  49.5994397  56.4984799  71.9221377  47.7949087  43.7309542
  72.1746897  47.2730608  42.9693005  70.9845936  47.6315232  43.8336226
  76.9664659  46.7984865  51.5384285  77.7527749  46.3804288  51.1874702
  77.2303364  47.7030957  51.7065934  77.1374737  52.2357715  46.2372942
  76.5020570  52.3092342  46.9493847  76.8072143  52.8251314  45.5592021
  82.3673087  46.7360098  52.4417264  83.0998259  46.1659315  52.6755093
  81.6112442  46.3481699  52.8823769  71.6417665  49.6977192  45.9333917
  71.5253923  49.0222096  46.6015001  71.7519925  49.2109566  45.1166070
  73.9849206  49.1587340  49.6380606  73.6207414  48.6317961  50.3493528
  74.8416322  48.7685809  49.4647092  79.8898507  40.4481672  56.9011872
  79.5581832  41.3177083  56.6773087  79.2944120  40.1317956  57.5805903
  73.6254693  44.1877239  44.6341955  73.7929096  45.0557476  45.0012426
  73.4351862  44.3504521  43.7103244  76.3830026  52.6494218  56.3007785
  76.0830750  53.5519257  56.1923592  76.0381086  52.3826401  57.1528938
  69.8342508  49.1008015  52.3344490  68.9093004  48.9684229  52.5422181
  70.0826921  49.8802234  52.8314432  79.7827170  45.1676758  53.9805222
  78.8744048  45.0992167  53.6863983  79.7314766  45.6448703  54.8087048
  73.6043914  46.6434897  45.6188622  73.4843539  47.0891948  46.4574102
  72.9096503  46.9920214  45.0602160  67.1951319  48.7441289  53.1688279
  67.3243700  48.9975768  54.0827690  66.5148770  49.3368997  52.8492934
  71.3650806  59.4138539  49.2678753  71.2874836  60.3646364  49.3467233
  70.7612450  59.0684411  49.9253679  73.8568036  46.5866404  61.9240120
  73.0801370  47.1460324  61.9142984  74.4958599  47.0723187  62.4454990
  81.6488817  43.3693197  55.7583096  81.0063197  43.6625730  55.1122891
  81.1443745  43.2546117  56.5636293  79.3028980  47.1156370  46.4468956
  80.2146836  47.3483757  46.2716653  78.7938627  47.6993414  45.8844034
  72.1114408  49.3951857  61.4858087  72.8529093  49.9336901  61.2092910
  71.4051394  50.0218146  61.6429639  77.5869748  51.5380998  60.0830248
  77.9953104  51.0963408  59.3384881  76.8647009  50.9633625  60.3364441
  73.9400818  46.4753605  57.4563805  74.7862013  46.8993018  57.5998454
  73.8799456  45.8187229  58.1502368  77.9098563  52.0982188  53.8382537
  77.2807425  52.2627903  53.1358605  77.5224225  52.5123798  54.6093501
  81.7887795  53.0336626  51.1926901  81.1038833  53.4135528  50.6423934
  81.8731644  53.6431953  51.9258849  77.0900263  44.1357973  59.1144979
  76.8461195  44.8900033  58.5779254  77.3660194  44.5143321  59.9492226
  79.0438726  50.6796585  57.7922244  79.2555621  51.3228345  57.1156625
  78.9968474  49.8458902  57.3244174  76.6464955  43.2914406  54.6958817
  75.7849434  43.5895660  54.9875554  76.6727390  43.5084805  53.7639849
  73.4626524  51.8356597  51.1032622  73.9264870  52.1144299  50.3137245
  73.1983323  50.9340041  50.9205713  70.3550606  51.3828078  54.0412385
  70.9251963  51.8115346  53.4029870  70.9458717  51.1010663  54.7396571
  72.3995411  47.9579749  47.9122187  73.1019454  48.4100793  48.3796114
  72.0676039  47.3163568  48.5402080  70.8475772  46.5491506  62.2873397
  70.2174433  47.2307786  62.5208794  70.7411860  46.4374587  61.3426535
  66.1420744  46.2163302  53.2139321  65.3519798  46.4720830  52.7379431
  66.6331992  47.0311639  53.3191361  80.1584554  53.5568541  55.9644602
  80.9801998  53.1548728  55.6827283  80.1546957  53.4536775  56.9160718
  68.0935490  46.5807881  50.1722798  67.2966653  46.6926575  50.6906293
  67.8661082  46.9194533  49.3063688  73.9241158  53.1052584  58.1205312
  73.9885590  53.5672991  58.9563484  73.2152081  52.4749949  58.2487622
  64.4258447  46.4693792  55.6454312  64.6766486  47.3540802  55.9111888
  64.9617996  46.2898394  54.8729404  88.2490547  49.9007289  52.3129573
  87.4954255  49.3314687  52.1573578  88.3838088  49.8669954  53.2600208
  73.6389175  54.7720691  47.9884293  73.5034850  55.6172227  48.4169140
  74.1798988  54.9739969  47.2250226  70.1256515  40.8512271  64.6498648
  69.7323460  40.2978470  65.3246292  70.9422655  41.1622850  65.0405165
  67.0918573  52.2896130  48.5612218  67.6043093  53.0839380  48.7117782
  67.7441285  51.5922420  48.4945819  68.9013457  55.4061886  50.6434971
  69.0780086  56.3279851  50.4555955  69.6970291  55.0920305  51.0729351
  73.0424476  42.2670150  62.2418904  73.7834189  42.8677304  62.1623367
  73.2742399  41.5247788  61.6836947  68.1865814  47.4526518  60.5197134
  68.0719329  46.5511775  60.8204233  67.3310332  47.6990214  60.1681951
  75.2657652  55.3944258  62.1184635  74.8221506  54.6080637  61.8005539
  75.9274865  55.5823409  61.4528525  70.0244773  56.9240060  56.6445313
  70.5752198  56.7957123  55.8722307  69.1856249  57.2234949  56.2940206
  77.3638890  55.6747058  60.1466036  77.3457365  56.4955939  59.6546305
  78.2858810  55.5501133  60.3716177  73.8211944  53.1891187  60.9889544
  74.3540281  52.4279476  60.7588852  73.2926025  52.8964839  61.7313699
  76.9881639  38.2951253  56.5183186  76.6445908  39.1852895  56.4422297
  77.3560601  38.1052911  55.6552771  65.0567489  50.6184784  49.3371788
  65.8942711  51.0281792  49.1205496  65.2345757  49.6784226  49.3071982
  76.9531921  48.2859864  45.0255621  76.4378545  49.0564469  45.2644009
  76.6809230  47.6125001  45.6488683  74.5379032  43.1309565  50.0840859
  73.6820629  42.7416416  49.9046498  74.9505984  43.2101526  49.2240645
  76.0678179  40.6655909  54.4832419  75.5642975  40.6286044  53.6700225
  76.3608786  41.5748651  54.5429076  72.3121065  40.7494638  53.4898601
  73.1774062  40.5537447  53.1304490  72.3798574  40.5204990  54.4167958
  81.9266196  51.0392219  46.9608795  81.1495638  50.7003379  46.5163957
  82.6057677  51.0444842  46.2863760  76.7418225  46.1586957  46.8515402
  76.4368360  46.4733106  47.7025545  77.6948667  46.2368376  46.8942735
  75.1864656  52.3177180  48.5008356  74.6586018  51.5829939  48.1881594
  74.6852159  53.0951856  48.2548325  80.1657502  50.5126200  53.6175403
  79.5081177  51.2025462  53.7055531  80.9697902  50.9022632  53.9609389
  69.9183384  42.9796846  50.8614968  70.4927136  42.7572028  50.1288161
  70.5054367  43.0485541  51.6143569  78.9762961  48.8670573  51.6679344
  79.4894843  49.5000565  52.1701054  79.6264185  48.2671769  51.3022704
  70.2452971  45.0101307  44.8810853  69.4090283  45.3475994  45.2020128
  70.1057741  44.8750287  43.9437990  72.2206052  39.8538095  49.5890037
  71.5670464  39.5387112  48.9646652  72.1786526  39.2313836  50.3149860
  73.3317257  50.1357390  41.5043329  72.4244318  49.9046644  41.7034478
  73.8288289  49.3395009  41.6917311  76.2385336  58.8454897  44.4240015
  75.5647034  59.1486594  45.0324973  76.6251158  59.6483978  44.0745473
  75.4543792  46.3420029  53.9137685  74.5366354  46.5634976  53.7559373
  75.8703936  46.4166339  53.0549392  76.2378840  47.7411444  49.0440365
  76.9850659  48.2532842  48.7347487  76.5070429  47.4195497  49.9044759
  74.5105490  50.2369985  46.0267319  73.6016709  49.9529018  46.1239789
  74.5400574  50.6569064  45.1670626  79.7424758  53.8476575  49.7958487
  79.2887085  53.0067484  49.8523677  79.1118724  54.4837973  50.1333267
  78.6857677  44.7768561  51.0259154  77.9480434  44.2645947  51.3569397
  78.9384451  44.3368942  50.2142431  78.1857697  55.6853071  50.7308305
  78.4780671  56.2458128  50.0120671  78.6956317  55.9781632  51.4861464
  78.7869304  37.5544813  51.6200924  79.0928181  36.6942176  51.3326839
  79.5121909  38.1462433  51.4199918  65.0793660  47.9575499  50.0082522
  64.8818060  47.3644860  49.2833588  64.5240324  47.6527709  50.7258460
  73.0590384  47.8498606  52.1277115  73.1138994  46.8972442  52.0519591
  72.2481586  48.0058045  52.6118413  74.2081578  51.7778729  43.3655398
  73.7701008  51.0614588  42.9061035  74.9492019  52.0054844  42.8040489
  70.9982744  46.4675665  49.8867494  70.1850610  46.7669836  50.2932686
  71.4941738  46.0731354  50.6041976  73.1491322  56.4633422  51.8201758
  73.1067501  56.6894269  50.8910290  74.0654021  56.2296797  51.9687559
  76.5956956  46.9317490  58.7182388  76.9506343  47.1588963  59.5776853
  77.2429087  47.2635867  58.0959643  82.3254693  50.0535926  49.4231717
  82.1872591  50.2437522  48.4952906  81.9690911  50.8155309  49.8799768
  70.4896819  44.0394021  55.5028729  71.1296198  43.8982780  54.8051692
  69.6574349  43.7528534  55.1267331  82.3524072  52.1212453  54.4342988
  82.7860579  52.0287742  55.2826042  83.0655653  52.0969953  53.7963004
  71.2657123  53.3396451  51.6163721  72.0597721  52.8446771  51.4146296
  70.5548815  52.8114314  51.2531427  76.0851967  55.7214547  55.9676089
  76.1388989  56.2905483  56.7353805  75.2166749  55.8916432  55.6030126
  67.5739886  47.4839533  47.6923474  66.6437474  47.4223989  47.9093436
  67.6697358  46.9615486  46.8960115  67.4925435  44.0094346  50.2801715
  67.7532253  44.9239679  50.1710876  68.3142608  43.5418788  50.4298328
  68.9650361  45.4232103  57.4500540  69.6373414  45.2149465  56.8013189
  68.1380147  45.2254189  57.0105772  83.2139622  52.1636153  56.9675873
  83.4075512  53.0681964  57.2135148  83.1140240  51.7043572  57.8014458
  74.8675933  42.0494044  59.4666201  74.2203848  42.7483994  59.3730677
  75.6376948  42.4830188  59.8342449  78.2754731  52.3142896  62.5416754
  78.1240237  52.0853448  61.6246838  78.2659410  53.2713498  62.5548099
  75.0440067  49.8874809  57.5263020  75.9732127  50.0385969  57.3531988
  74.6231097  49.9758830  56.6711667  73.8428399  53.9125473  55.2961558
  73.7039484  53.5444258  56.1687496  73.0542995  54.4273113  55.1245516
  74.4376551  59.0134570  46.6387095  74.6128306  58.5422613  47.4532717
  73.7509339  59.6400336  46.8668355  75.3933614  53.2907076  52.6850396
  75.0583446  53.2507846  53.5808046  74.8937560  52.6251792  52.2120806
  69.3677858  48.6974706  58.2102977  69.2297656  47.9654945  58.8114516
  70.2782781  48.6083606  57.9287165  78.3292806  50.6363110  42.9587456
  77.7121976  49.9109939  42.8620508  77.8609294  51.3972471  42.6154530
  71.9960158  48.4094665  57.6986657  72.7059777  47.7687858  57.6573275
  71.9529467  48.6607560  58.6212837  79.9846937  55.3462019  60.6193236
  79.9259483  54.6621239  59.9523819  80.3866456  56.0881009  60.1673862
  70.7089092  45.3959883  59.5182296  70.1726449  44.9450622  60.1703893
  70.1205801  45.5305792  58.7752761  69.0037636  62.1623933  53.4126955
  69.2434234  62.7942457  54.0905973  68.1606832  61.8111973  53.6992314
  70.1191351  44.8548535  42.0808760  69.2420818  44.7337335  41.7171007
  70.5949104  44.0634613  41.8287648  79.9864344  53.3101603  58.8507216
  79.0991123  52.9727524  58.9733614  80.5562895  52.5784634  59.0875981
  61.6393492  49.6425694  52.1750267  62.3264531  49.3287424  51.5871282
  61.4841620  50.5467059  51.9017518  66.4428214  44.5315891  56.6035291
  66.3586402  43.9241560  55.8685701  65.6210920  45.0224909  56.6044787
  73.5165498  57.9703055  55.8168459  73.4435669  58.7758026  56.3287763
  73.0742891  58.1695021  54.9916480  73.3055277  57.2074825  49.3271280
  72.5222799  57.7496505  49.4209505  74.0048023  57.7248805  49.7265522
  76.6151928  43.0169454  51.9705486  77.1120627  42.2639417  51.6506556
  75.8438909  43.0533771  51.4048695  84.4681685  48.7209820  53.6123777
  84.4571561  49.6034535  53.2417710  83.5999064  48.3681371  53.4178314
  75.9764181  57.8689889  57.9726617  76.6892154  58.5037354  57.9002519
  75.4854210  57.9653755  57.1566619  77.6981708  51.7741142  49.5443909
  76.7637987  51.8942604  49.3748613  77.8758377  50.8713608  49.2803919
  73.1986896  45.1586837  51.6977170  72.8284684  44.6057878  52.3858076
  73.6945989  44.5544971  51.1452170  81.0854260  47.6158461  50.0793943
  81.5514712  48.4486453  50.0054246  81.5361760  47.1503443  50.7839202
  71.0276095  55.6184332  58.7932188  71.7285554  56.2520815  58.9461583
  70.5571210  55.9599064  58.0327828  79.1530491  53.9602282  47.0780095
  79.4290335  53.8458877  47.9873969  78.2834989  53.5619767  47.0392268
  79.0570922  39.9839048  54.1184845  78.1434002  40.2143275  54.2867052
  79.4864024  40.0677492  54.9698877  78.8277381  48.1728940  56.6184739
  78.1748831  48.4204847  55.9637191  79.2057761  47.3593078  56.2847216
  75.7884555  58.2088633  50.7212909  75.9706949  57.3910289  51.1840661
  76.6117541  58.4256325  50.2837799  76.1226720  57.1356818  47.9827957
  76.6514487  56.6249273  47.3698120  76.3854940  56.8199348  48.8473490
  74.8764954  48.9148751  63.1050776  74.2005591  48.8142880  63.7753151
  75.6992588  48.7587965  63.5686773  66.6243813  55.1520688  55.7263291
  67.2097250  54.4064375  55.8591195  66.4268651  55.4624644  56.6099955
  69.4782468  58.1871935  50.7425733  68.8092843  58.6718063  50.2589773
  69.3395338  58.4341155  51.6569112  61.2161468  47.7226288  54.4467734
  61.2545567  47.1889878  55.2404852  60.7101760  47.1961493  53.8278711
  73.6187737  60.2215678  57.3408392  74.1706045  60.3847300  58.1057477
  73.9593930  60.8120116  56.6688417  68.5952230  42.5690828  57.9430276
  68.6593556  43.4305659  57.5307674  68.5319350  41.9564830  57.2102635
  68.0704503  44.6413961  61.5903311  68.6976541  44.2591038  62.2040835
  67.2132421  44.4228163  61.9559003  78.4698611  55.0476936  63.1957046
  79.0138515  55.6606894  62.7012001  77.8885456  55.6056514  63.7124059
  64.8470045  46.4490390  47.5221665  65.1423486  45.5401068  47.4688719
  63.9458081  46.4278129  47.2002668  76.7556124  58.1697654  54.3272074
  76.6307263  57.3687394  53.8183019  77.4135215  58.6643847  53.8386044
  68.3764292  44.5246386  53.5049214  67.6550878  45.1382354  53.3656687
  69.1657548  45.0604151  53.4265860  78.8191032  55.9706674  55.9551624
  77.8721368  55.8512025  55.8829951  79.1673806  55.0829172  56.0377885
  71.1790606  41.8600813  59.7789866  71.7025008  42.1063110  60.5416175
  70.9602939  42.6920848  59.3593003  66.5757887  44.1304488  47.6460991
  66.2470593  43.2501866  47.4636097  66.9297258  44.0752156  48.5337380
  75.8237466  55.7659390  52.1555976  75.6762428  54.8376098  52.3363546
  76.6490959  55.7879481  51.6713051  69.6899710  44.4177457  48.0136468
  70.0295783  44.9463379  47.2915077  70.1371830  44.7557863  48.7895035
  79.4271588  56.5887949  53.2420849  80.3518135  56.3830810  53.1045300
  79.2586891  56.3404350  54.1510190  72.3843151  42.8014508  57.4639536
  72.0439971  42.0022321  57.8660216  71.6782157  43.1016219  56.8916370
  73.0359623  39.8863820  55.9166859  73.8585692  39.4124299  55.7945750
  73.2797686  40.6654304  56.4165546  71.6767857  42.9152079  46.2129761
  72.3976220  43.2933332  45.7093478  71.0533161  43.6340956  46.3164739
  75.8198980  43.6197228  47.1488093  76.0362594  44.5021866  46.8476922
  75.3393047  43.2283441  46.4193735  70.5598201  46.5782941  53.7258838
  70.4142782  46.8923244  54.6183120  70.0823405  47.1967841  53.1729737
  72.4194584  43.5685489  53.7739728  72.4056153  42.6726582  53.4372026
  73.1367012  43.5756153  54.4078014  74.2720715  44.0022829  55.8192855
  74.0138493  44.9239900  55.8177185  73.7405755  43.6053264  56.5093319
  79.2166904  57.1073616  48.5982940  79.3903781  56.5420039  47.8456793
  79.7095795  57.9074511  48.4162430  65.0343864  49.1188286  56.6646499
  64.4897332  49.8948093  56.7966774  65.9123213  49.4659090  56.5065621
  71.8231480  42.4499869  49.0427298  71.9447391  41.5216516  49.2418185
  71.5333523  42.4638555  48.1305613  74.6922671  40.1354780  52.1794018
  74.7144367  40.1994113  51.2245997  75.1090730  39.2959288  52.3734524
  85.0706295  49.8710039  50.2173240  85.5137441  49.1217365  49.8192363
  84.1932805  49.8620176  49.8346972  80.2042076  56.4240381  45.6979839
  80.8992981  57.0447074  45.9167153  80.5465226  55.5735732  45.9732217
  65.8209885  48.2458182  59.5576656  65.0791621  48.3940817  60.1441286
  65.5002630  48.5066447  58.6943405  82.1033499  53.8740086  47.2267169
  82.6284823  54.2127359  46.5016489  82.0155852  52.9387102  47.0430304
  73.7653548  57.7874160  59.3557046  74.0740675  57.5423307  60.2279746
  74.5629030  57.9920798  58.8675916  73.7874160  59.9412070  51.5862423
  73.3479150  59.4488448  52.2795279  74.5382277  59.3985037  51.3454498
  66.2666499  56.1323611  51.5887051  67.0924519  55.8327382  51.2085694
  65.9160551  55.3631233  52.0376839  71.2348032  55.4850079  53.6584724
  70.6128042  54.8220784  53.3586952  71.9052899  55.5111211  52.9758372
  64.4675104  54.0509937  52.5475984  63.6307012  53.6232111  52.3659986
  64.4398750  54.2442380  53.4846775  71.3072560  43.9631867  63.2517230
  71.3560715  44.8393990  62.8695000  71.8495074  43.4209260  62.6788874
  81.9125280  51.3565456  59.8451096  81.9623285  51.1915464  60.7866619
  81.8039204  50.4892715  59.4548977  70.7961539  54.0354002  47.1343185
  70.9449660  54.7189466  46.4809858  71.6027983  54.0159092  47.6492641
  79.2029043  47.3396384  61.1610403  80.1038906  47.2002849  60.8694400
  79.2777017  47.5050839  62.1008580  73.5371848  44.7163239  60.0063589
  72.6675158  45.0096805  59.7346178  73.7731329  45.3003684  60.7270853
  83.4143477  53.7762398  60.0893117  83.1228286  54.1392378  60.9256578
  82.8015609  53.0629406  59.9106450  84.6139160  51.3415278  52.6095688
  85.4486051  51.7805082  52.7733248  84.7498288  50.8653931  51.7903933
  81.6630666  48.8995013  58.5573175  82.1384787  49.0922659  57.7492027
  80.7396231  48.9554198  58.3116559  68.5514172  50.0619180  48.1404254
  68.3060214  49.1581510  48.3384464  68.7210087  50.0636330  47.1983732
  76.2410882  40.9342856  57.5229009  76.7592826  41.6703883  57.1975498
  75.8866015  41.2406849  58.3575768  67.8209820  45.7947537  45.6390415
  67.1279065  45.8691892  44.9830451  67.5761572  45.0307881  46.1611932
  76.4923476  37.3543139  53.0429906  76.7725230  36.6866328  53.6690332
  77.2774083  37.5472234  52.5304570  74.2956945  56.5302133  44.6054932
  73.7230912  57.1492320  44.1525404  74.8689738  57.0801494  45.1394854
  80.3632335  45.7760773  56.7901481  81.3149757  45.8758870  56.8113705
  80.1935785  44.9839041  57.2999565  78.3846714  42.8616356  56.9760882
  77.7896646  43.1421369  56.2807371  78.0996411  43.3510257  57.7477623
  77.5154204  56.8139283  45.7363515  78.4484878  56.7484844  45.9396390
  77.4277417  57.6495550  45.2778047  80.1442221  56.1305153  42.6967462
  80.0655853  55.7965017  43.5903220  80.9651888  56.6226921  42.6958934
  82.8420412  48.9966892  55.9043781  82.8096732  48.0582893  56.0903465
  83.4521036  49.0750929  55.1709606  74.6803743  47.8662945  41.9470985
  75.6262848  47.7369153  42.0159403  74.3017988  47.1277607  42.4240413
  82.9914901  45.7877936  55.9502064  82.4753949  45.0036392  55.7631993
  83.8754849  45.4596652  56.1148583  80.6525628  39.5318951  51.9097877
  80.4550449  39.2234040  52.7941209  81.2625333  40.2580590  52.0395806
  88.6596962  50.0582899  55.0449818  89.3900351  49.7968187  55.6057521
  88.0503908  49.3211621  55.0851885  86.7412259  48.1990762  55.6424269
  86.0145423  48.0646727  55.0340760  86.3259546  48.5067590  56.4480987
  74.5642436  51.9180691  63.4071642  75.4845445  52.0959290  63.6011688
  74.5292019  50.9736737  63.2551341  72.8646660  45.7912922  41.8825870
  71.9578116  45.4946034  41.9588584  73.1422641  45.4942740  41.0160156
  63.7824601  47.1119285  52.3324916  63.4627385  46.2584593  52.0399290
  63.2358029  47.3267863  53.0882884  67.5604508  49.8281726  56.0494423
  67.7790518  50.7598834  56.0682457  67.9730282  49.4689700  56.8349227
  74.4808726  40.3349811  48.0370111  73.6709454  39.9896896  48.4125357
  75.1693143  40.0257355  48.6257723  76.4099274  39.4127858  49.6594408
  76.9630313  39.8323312  50.3184431  76.6469361  38.4863606  49.7017364
  72.4332374  45.4014932  65.4397172  72.3329100  46.3509289  65.3709263
  72.2153916  45.0733171  64.5673242  71.6345445  42.6499857  42.0237849
  72.4964609  42.9754755  42.2833667  71.8195789  41.8631353  41.5110915
  63.6512861  50.7322197  54.3018038  62.9576332  50.3176149  53.7887992
  64.3985852  50.7742733  53.7051457  79.7878081  41.5228383  49.1673072
  79.2076751  42.1813187  48.7851125  79.5214014  40.7005728  48.7560490
  78.2381648  40.9233441  51.3694393  78.7381426  41.0349976  50.5608711
  78.8817256  40.6194494  52.0095201  72.2963644  48.8312071  64.2562233
  71.8130725  49.6312431  64.4626123  72.3824583  48.8420016  63.3029677
  65.5649603  50.6640450  52.1784053  65.5420291  50.7628138  51.2265936
  65.8750240  51.5105601  52.5001219  68.2236981  52.7216605  56.2930667
  69.1780235  52.6900548  56.2260599  68.0249505  52.2607229  57.1080893
  68.8136363  51.2917721  58.8601465  69.6329252  51.7861800  58.8836302
  69.0873171  50.3749690  58.8319032  78.5702959  43.6828474  48.2229420
  77.6828815  43.9678124  48.0049615  78.9856949  43.5222237  47.3756697
  81.9217496  43.7074995  51.9383760  82.6977886  44.1971447  52.2108377
  81.1965630  44.1333049  52.3955629  84.3590054  44.4202614  52.9957700
  84.9534545  44.1798350  52.2851009  84.4316638  43.7009745  53.6231237
  66.5787210  58.2636225  53.3100865  66.4441678  57.5036626  52.7438863
  66.1619272  58.9877125  52.8429654  77.7146173  53.4473148  42.3177440
  78.4182023  53.6523151  42.9335096  76.9908822  54.0149910  42.5826524
  78.5443983  49.1983010  48.4379711  78.4879185  49.6551561  47.5987343
  79.0972326  48.4373694  48.2602553  82.3548789  44.9872742  49.2629830
  82.0985723  44.5869377  50.0938038  81.7301657  45.7016535  49.1379969
  86.6661127  47.7268815  51.7701121  86.1060685  47.7962004  52.5432684
  86.0604630  47.5509799  51.0500618  69.7356336  59.1605542  53.5219308
  69.6188720  60.1050974  53.4197998  68.9148782  58.8579103  53.9105107
  79.6232870  53.8855678  44.3675900  80.4578474  53.4536876  44.1853375
  79.4617213  53.7137691  45.2952795  79.2778763  50.3887791  45.7332240
  79.2227566  50.2232062  44.7920684  78.6524818  51.0963824  45.8894429
  64.0671278  45.6255855  59.5593662  64.7130141  45.1154809  60.0480887
  63.8588429  46.3624537  60.1337087  72.5874888  39.8895900  45.3117558
  72.5753558  40.8337740  45.4685829  73.4798310  39.7066045  45.0177019
  70.7610850  59.8133804  56.7375236  71.6638097  59.8457414  57.0541731
  70.5348220  58.8834255  56.7521572  72.5164452  58.5664790  53.3985315
  71.5660083  58.5666652  53.2849687  72.8196938  57.8197525  52.8821349
  76.4027007  36.4838677  49.5663495  75.6359403  35.9297163  49.7120177
  76.8137712  36.5560545  50.4277647  68.4068769  42.7723472  63.6568676
  69.2700230  42.4160277  63.8672001  67.8334179  42.4337367  64.3444080
  80.9193667  66.2088233  50.3889493  80.3558533  66.1178170  49.6205781
  80.8046062  65.3888138  50.8691985  78.4658099  67.7039425  53.2273713
  79.2579391  67.3630249  52.8120013  78.7054750  67.8134400  54.1475867
  86.4993226  69.8759201  45.7003958  85.8481206  70.4613281  45.3137972
  87.2937589  70.4065396  45.7598995  80.4248853  66.9648338  46.0991092
  81.1979729  66.4177325  45.9603968  80.7774252  67.8292587  46.3105554
  82.7615131  63.1241004  43.7309542  83.0140652  62.6022525  42.9693005
  81.8239690  62.9607150  43.8336226  87.9768491  67.5649633  46.2372942
  87.3414324  67.6384259  46.9493847  87.6465898  68.1543232  45.5592021
  93.2066841  62.0652016  52.4417264  93.9392013  61.4951233  52.6755093
  92.4506197  61.6773616  52.8823769  82.4811420  65.0269110  45.9333917
  82.3647678  64.3514014  46.6015001  82.5913680  64.5401484  45.1166070
  84.8242961  64.4879257  49.6380606  84.4601168  63.9609878  50.3493528
  85.6810077  64.0977726  49.4647092  90.7292261  55.7773590  56.9011872
  90.3975586  56.6469001  56.6773087  90.1337875  55.4609874  57.5805903
  84.4648448  59.5169157  44.6341955  84.6322850  60.3849393  45.0012426
  84.2745617  59.6796439  43.7103244  80.6736262  64.4299933  52.3344490
  79.7486759  64.2976147  52.5422181  80.9220676  65.2094152  52.8314432
  90.6220925  60.4968676  53.9805222  89.7137802  60.4284084  53.6863983
  90.5708521  60.9740621  54.8087048  84.4437669  61.9726814  45.6188622
  84.3237294  62.4183865  46.4574102  83.7490257  62.3212132  45.0602160
  78.0345073  64.0733206  53.1688279  78.1637455  64.3267685  54.0827690
  77.3542525  64.6660914  52.8492934  82.2044561  74.7430456  49.2678753
  82.1268590  75.6938281  49.3467233  81.6006204  74.3976329  49.9253679
  92.4882571  58.6985114  55.7583096  91.8456951  58.9917648  55.1122891
  91.9837500  58.5838035  56.5636293  90.1422735  62.4448288  46.4468956
  91.0540591  62.6775674  46.2716653  89.6332382  63.0285332  45.8844034
  92.6281549  68.3628544  51.1926901  91.9432587  68.7427445  50.6423934
  92.7125398  68.9723871  51.9258849  87.9294018  59.4649891  59.1144979
  87.6854950  60.2191951  58.5779254  88.2053948  59.8435238  59.9492226
  89.8832481  66.0088503  57.7922244  90.0949376  66.6520263  57.1156625
  89.8362229  65.1750820  57.3244174  87.4858710  58.6206324  54.6958817
  86.6243189  58.9187577  54.9875554  87.5121144  58.8376723  53.7639849
  84.3020279  67.1648514  51.1032622  84.7658625  67.4436217  50.3137245
  84.0377077  66.2631959  50.9205713  83.2389165  63.2871667  47.9122187
  83.9413208  63.7392710  48.3796114  82.9069794  62.6455485  48.5402080
  76.9814499  61.5455219  53.2139321  76.1913553  61.8012748  52.7379431
  77.4725746  62.3603557  53.3191361  90.9978309  68.8860458  55.9644602
  91.8195752  68.4840646  55.6827283  90.9940711  68.7828693  56.9160718
  78.9329244  61.9099798  50.1722798  78.1360408  62.0218493  50.6906293
  78.7054837  62.2486451  49.3063688  75.2652202  61.7985710  55.6454312
  75.5160240  62.6832720  55.9111888  75.8011750  61.6190311  54.8729404
  99.0884302  65.2299207  52.3129573  98.3348010  64.6606605  52.1573578
  99.2231843  65.1961871  53.2600208  84.4782930  70.1012609  47.9884293
  84.3428604  70.9464145  48.4169140  85.0192742  70.3031887  47.2250226
  77.9312327  67.6188047  48.5612218  78.4436848  68.4131297  48.7117782
  78.5835040  66.9214338  48.4945819  79.7407212  70.7353803  50.6434971
  79.9173840  71.6571768  50.4555955  80.5364045  70.4212223  51.0729351
  87.8275393  53.6243171  56.5183186  87.4839663  54.5144813  56.4422297
  88.1954356  53.4344829  55.6552771  75.8961244  65.9476702  49.3371788
  76.7336466  66.3573710  49.1205496  76.0739512  65.0076144  49.3071982
  87.7925676  63.6151782  45.0255621  87.2772299  64.3856387  45.2644009
  87.5202984  62.9416918  45.6488683  85.3772787  58.4601483  50.0840859
  84.5214383  58.0708333  49.9046498  85.7899739  58.5393444  49.2240645
  86.9071934  55.9947826  54.4832419  86.4036729  55.9577961  53.6700225
  87.2002540  56.9040569  54.5429076  83.1514819  56.0786556  53.4898601
  84.0167816  55.8829365  53.1304490  83.2192328  55.8496908  54.4167958
  92.7659950  66.3684137  46.9608795  91.9889393  66.0295296  46.5163957
  93.4451431  66.3736760  46.2863760  87.5811979  61.4878874  46.8515402
  87.2762115  61.8025023  47.7025545  88.5342421  61.5660294  46.8942735
  86.0258411  67.6469098  48.5008356  85.4979773  66.9121857  48.1881594
  85.5245914  68.4243774  48.2548325  91.0051257  65.8418118  53.6175403
  90.3474931  66.5317379  53.7055531  91.8091656  66.2314550  53.9609389
  80.7577139  58.3088764  50.8614968  81.3320890  58.0863945  50.1288161
  81.3448121  58.3777458  51.6143569  81.0846726  60.3393225  44.8810853
  80.2484038  60.6767911  45.2020128  80.9451495  60.2042205  43.9437990
  83.0599806  55.1830013  49.5890037  82.4064219  54.8679030  48.9646652
  83.0180280  54.5605753  50.3149860  84.1711011  65.4649308  41.5043329
  83.2638073  65.2338561  41.7034478  84.6682043  64.6686927  41.6917311
  87.0779090  74.1746815  44.4240015  86.4040789  74.4778512  45.0324973
  87.4644912  74.9775895  44.0745473  87.0772594  63.0703362  49.0440365
  87.8244413  63.5824759  48.7347487  87.3464184  62.7487415  49.9044759
  85.3499245  65.5661903  46.0267319  84.4410464  65.2820936  46.1239789
  85.3794328  65.9860981  45.1670626  90.5818512  69.1768492  49.7958487
  90.1280839  68.3359402  49.8523677  89.9512479  69.8129891  50.1333267
  89.5251432  60.1060478  51.0259154  88.7874188  59.5937864  51.3569397
  89.7778205  59.6660860  50.2142431  89.0251451  71.0144989  50.7308305
  89.3174426  71.5750046  50.0120671  89.5350072  71.3073550  51.4861464
  89.6263059  52.8836730  51.6200924  89.9321936  52.0234094  51.3326839
  90.3515664  53.4754350  51.4199918  75.9187415  63.2867417  50.0082522
  75.7211815  62.6936778  49.2833588  75.3634079  62.9819627  50.7258460
  85.0475332  67.1070646  43.3655398  84.6094762  66.3906505  42.9061035
  85.7885773  67.3346761  42.8040489  81.8376499  61.7967583  49.8867494
  81.0244364  62.0961754  50.2932686  82.3335493  61.4023272  50.6041976
  83.9885076  71.7925340  51.8201758  83.9461255  72.0186186  50.8910290
  84.9047775  71.5588715  51.9687559  87.4350710  62.2609408  58.7182388
  87.7900098  62.4880881  59.5776853  88.0822841  62.5927784  58.0959643
  93.1648447  65.3827843  49.4231717  93.0266346  65.5729439  48.4952906
  92.8084666  66.1447226  49.8799768  81.3290573  59.3685939  55.5028729
  81.9689953  59.2274698  54.8051692  80.4968104  59.0820452  55.1267331
  93.1917827  67.4504370  54.4342988  93.6254333  67.3579660  55.2826042
  93.9049407  67.4261871  53.7963004  82.1050877  68.6688369  51.6163721
  82.8991476  68.1738689  51.4146296  81.3942570  68.1406232  51.2531427
  78.4133641  62.8131451  47.6923474  77.4831229  62.7515906  47.9093436
  78.5091113  62.2907403  46.8960115  78.3319190  59.3386264  50.2801715
  78.5926007  60.2531597  50.1710876  79.1536362  58.8710706  50.4298328
  94.0533376  67.4928071  56.9675873  94.2469266  68.3973882  57.2135148
  93.9533994  67.0335490  57.8014458  85.7069687  57.3785962  59.4666201
  85.0597602  58.0775911  59.3730677  86.4770702  57.8122106  59.8342449
  85.2770305  74.3426487  46.6387095  85.4522061  73.8714531  47.4532717
  84.5903093  74.9692254  46.8668355  86.2327368  68.6198994  52.6850396
  85.8977201  68.5799764  53.5808046  85.7331314  67.9543710  52.2120806
  89.1686560  65.9655028  42.9587456  88.5515731  65.2401856  42.8620508
  88.7003048  66.7264388  42.6154530  80.9585106  60.1840452  42.0808760
  80.0814572  60.0629253  41.7171007  81.4342859  59.3926531  41.8287648
  90.8258099  68.6393520  58.8507216  89.9384878  68.3019442  58.9733614
  91.3956650  67.9076552  59.0875981  72.4787246  64.9717612  52.1750267
  73.1658286  64.6579342  51.5871282  72.3235375  65.8758977  51.9017518
  77.2821968  59.8607809  56.6035291  77.1980157  59.2533478  55.8685701
  76.4604675  60.3516827  56.6044787  84.1449032  72.5366743  49.3271280
  83.3616554  73.0788423  49.4209505  84.8441777  73.0540722  49.7265522
  87.4545682  58.3461372  51.9705486  87.9514382  57.5931334  51.6506556
  86.6832664  58.3825689  51.4048695  95.3075439  64.0501738  53.6123777
  95.2965316  64.9326453  53.2417710  94.4392819  63.6973289  53.4178314
  88.5375463  67.1033059  49.5443909  87.6031741  67.2234522  49.3748613
  88.7152131  66.2005526  49.2803919  84.0380651  60.4878755  51.6977170
  83.6678438  59.9349796  52.3858076  84.5339743  59.8836889  51.1452170
  91.9248014  62.9450379  50.0793943  92.3908466  63.7778370  50.0054246
  92.3755515  62.4795360  50.7839202  89.9924245  69.2894200  47.0780095
  90.2684089  69.1750795  47.9873969  89.1228744  68.8911685  47.0392268
  89.8964677  55.3130966  54.1184845  88.9827757  55.5435192  54.2867052
  90.3257778  55.3969410  54.9698877  89.6671135  63.5020858  56.6184739
  89.0142586  63.7496765  55.9637191  90.0451515  62.6884996  56.2847216
  86.6278309  73.5380551  50.7212909  86.8100704  72.7202207  51.1840661
  87.4511295  73.7548243  50.2837799  86.9620475  72.4648736  47.9827957
  87.4908241  71.9541190  47.3698120  87.2248694  72.1491266  48.8473490
  77.4637567  70.4812605  55.7263291  78.0491004  69.7356293  55.8591195
  77.2662406  70.7916562  56.6099955  80.3176223  73.5163853  50.7425733
  79.6486598  74.0009980  50.2589773  80.1789092  73.7633073  51.6569112
  72.0555222  63.0518205  54.4467734  72.0939322  62.5181796  55.2404852
  71.5495515  62.5253411  53.8278711  79.4345984  57.8982746  57.9430276
  79.4987311  58.7597577  57.5307674  79.3713105  57.2856748  57.2102635
  78.9098257  59.9705878  61.5903311  79.5370296  59.5882956  62.2040835
  78.0526176  59.7520080  61.9559003  75.6863800  61.7782308  47.5221665
  75.9817241  60.8692986  47.4688719  74.7851836  61.7570047  47.2002668
  79.2158047  59.8538304  53.5049214  78.4944633  60.4674272  53.3656687
  80.0051303  60.3896069  53.4265860  82.0184360  57.1892731  59.7789866
  82.5418762  57.4355027  60.5416175  81.7996694  58.0212765  59.3593003
  77.4151641  59.4596405  47.6460991  77.0864347  58.5793784  47.4636097
  77.7691012  59.4044074  48.5337380  86.6631220  71.0951308  52.1555976
  86.5156183  70.1668015  52.3363546  87.4884714  71.1171399  51.6713051
  80.5293464  59.7469375  48.0136468  80.8689537  60.2755296  47.2915077
  80.9765585  60.0849781  48.7895035  83.2236905  58.1306426  57.4639536
  82.8833726  57.3314239  57.8660216  82.5175912  58.4308137  56.8916370
  83.8753377  55.2155738  55.9166859  84.6979446  54.7416216  55.7945750
  84.1191441  55.9946222  56.4165546  82.5161612  58.2443997  46.2129761
  83.2369974  58.6225249  45.7093478  81.8926916  58.9632873  46.3164739
  86.6592735  58.9489146  47.1488093  86.8756349  59.8313783  46.8476922
  86.1786802  58.5575359  46.4193735  81.3991956  61.9074859  53.7258838
  81.2536537  62.2215162  54.6183120  80.9217160  62.5259759  53.1729737
  83.2588339  58.8977407  53.7739728  83.2449908  58.0018500  53.4372026
  83.9760767  58.9048071  54.4078014  85.1114469  59.3314747  55.8192855
  84.8532247  60.2531818  55.8177185  84.5799510  58.9345182  56.5093319
  90.0560658  72.4365534  48.5982940  90.2297536  71.8711957  47.8456793
  90.5489549  73.2366429  48.4162430  75.8737618  64.4480203  56.6646499
  75.3291086  65.2240011  56.7966774  76.7516968  64.7951008  56.5065621
  82.6625235  57.7791787  49.0427298  82.7841146  56.8508433  49.2418185
  82.3727277  57.7930473  48.1305613  85.5316425  55.4646698  52.1794018
  85.5538122  55.5286031  51.2245997  85.9484484  54.6251206  52.3734524
  95.9100049  65.2001957  50.2173240  96.3531195  64.4509282  49.8192363
  95.0326560  65.1912093  49.8346972  91.0435831  71.7532299  45.6979839
  91.7386735  72.3738991  45.9167153  91.3858981  70.9027650  45.9732217
  76.6603640  63.5750099  59.5576656  75.9185376  63.7232735  60.1441286
  76.3396384  63.8358365  58.6943405  92.9427254  69.2032004  47.2267169
  93.4678578  69.5419277  46.5016489  92.8549606  68.2679019  47.0430304
  84.6267915  75.2703987  51.5862423  84.1872905  74.7780366  52.2795279
  85.3776032  74.7276955  51.3454498  77.1060254  71.4615528  51.5887051
  77.9318274  71.1619300  51.2085694  76.7554306  70.6923151  52.0376839
  75.3068859  69.3801855  52.5475984  74.4700767  68.9524029  52.3659986
  75.2792504  69.5734298  53.4846775  92.6321160  69.8364908  62.5318367
  91.8416704  69.8189047  61.9922867  92.3954515  70.3753201  63.2867404
  92.7519035  66.6857374  59.8451096  92.8017040  66.5207382  60.7866619
  92.6432958  65.8184633  59.4548977  81.6355294  69.3645920  47.1343185
  81.7843414  70.0481384  46.4809858  82.4421737  69.3451010  47.6492641
  90.0422797  62.6688302  61.1610403  90.9432660  62.5294767  60.8694400
  90.1170772  62.8342757  62.1008580  84.3765603  60.0455157  60.0063589
  83.5068912  60.3388723  59.7346178  84.6125083  60.6295602  60.7270853
  94.2537232  69.1054316  60.0893117  93.9622040  69.4684296  60.9256578
  93.6409363  68.3921324  59.9106450  95.4532914  66.6707195  52.6095688
  96.2879806  67.1096999  52.7733248  95.5892043  66.1945849  51.7903933
  92.5024420  64.2286930  58.5573175  92.9778542  64.4214577  57.7492027
  91.5789985  64.2846116  58.3116559  79.3907927  65.3911097  48.1404254
  79.1453969  64.4873427  48.3384464  79.5603841  65.3928248  47.1983732
  87.0804637  56.2634774  57.5229009  87.5986580  56.9995801  57.1975498
  86.7259769  56.5698767  58.3575768  78.6603574  61.1239455  45.6390415
  77.9672819  61.1983810  44.9830451  78.4155326  60.3599799  46.1611932
  87.3317231  52.6835056  53.0429906  87.6118984  52.0158245  53.6690332
  88.1167838  52.8764152  52.5304570  85.1350699  71.8594050  44.6054932
  84.5624666  72.4784237  44.1525404  85.7083493  72.4093412  45.1394854
  91.2026089  61.1052690  56.7901481  92.1543512  61.2050788  56.8113705
  91.0329539  60.3130959  57.2999565  89.2240469  58.1908274  56.9760882
  88.6290401  58.4713286  56.2807371  88.9390165  58.6802174  57.7477623
  88.3547959  72.1431200  45.7363515  89.2878632  72.0776762  45.9396390
  88.2671172  72.9787467  45.2778047  90.9835976  71.4597071  42.6967462
  90.9049607  71.1256934  43.5903220  91.8045642  71.9518839  42.6958934
  93.6814167  64.3258810  55.9043781  93.6490487  63.3874811  56.0903465
  94.2914790  64.4042847  55.1709606  85.5197498  63.1954863  41.9470985
  86.4656602  63.0661071  42.0159403  85.1411743  62.4569525  42.4240413
  93.8308655  61.1169853  55.9502064  93.3147704  60.3328310  55.7631993
  94.7148604  60.7888570  56.1148583  91.4919382  54.8610869  51.9097877
  91.2944203  54.5525957  52.7941209  92.1019088  55.5872508  52.0395806
  99.4990717  65.3874817  55.0449818 100.2294105  65.1260105  55.6057521
  98.8897662  64.6503539  55.0851885  97.5806014  63.5282679  55.6424269
  96.8539177  63.3938644  55.0340760  97.1653301  63.8359508  56.4480987
  83.7040415  61.1204839  41.8825870  82.7971870  60.8237952  41.9588584
  83.9816396  60.8234657  41.0160156  74.6218355  62.4411203  52.3324916
  74.3021140  61.5876511  52.0399290  74.0751783  62.6559781  53.0882884
  85.3202481  55.6641729  48.0370111  84.5103209  55.3188814  48.4125357
  86.0086898  55.3549273  48.6257723  87.2493029  54.7419776  49.6594408
  87.8024067  55.1615229  50.3184431  87.4863115  53.8155524  49.7017364
  82.4739199  57.9791775  42.0237849  83.3358363  58.3046673  42.2833667
  82.6589544  57.1923270  41.5110915  74.4906615  66.0614114  54.3018038
  73.7970087  65.6468067  53.7887992  75.2379606  66.1034651  53.7051457
  90.6271836  56.8520301  49.1673072  90.0470505  57.5105105  48.7851125
  90.3607769  56.0297646  48.7560490  89.0775402  56.2525359  51.3694393
  89.5775181  56.3641893  50.5608711  89.7211010  55.9486412  52.0095201
  76.4043358  65.9932368  52.1784053  76.3814046  66.0920055  51.2265936
  76.7143994  66.8397519  52.5001219  89.4096714  59.0120391  48.2229420
  88.5222569  59.2970042  48.0049615  89.8250703  58.8514155  47.3756697
  92.7611250  59.0366912  51.9383760  93.5371640  59.5263365  52.2108377
  92.0359384  59.4624967  52.3955629  95.1983809  59.7494532  52.9957700
  95.7928300  59.5090268  52.2851009  95.2710392  59.0301662  53.6231237
  88.5539927  68.7765066  42.3177440  89.2575778  68.9815069  42.9335096
  87.8302576  69.3441828  42.5826524  89.3837738  64.5274927  48.4379711
  89.3272939  64.9843479  47.5987343  89.9366080  63.7665612  48.2602553
  93.1942544  60.3164659  49.2629830  92.9379478  59.9161295  50.0938038
  92.5695412  61.0308453  49.1379969  97.5054881  63.0560732  51.7701121
  96.9454439  63.1253922  52.5432684  96.8998385  62.8801717  51.0500618
  90.4626625  69.2147595  44.3675900  91.2972229  68.7828794  44.1853375
  90.3010968  69.0429609  45.2952795  90.1172517  65.7179709  45.7332240
  90.0621321  65.5523980  44.7920684  89.4918572  66.4255742  45.8894429
  74.9065032  60.9547773  59.5593662  75.5523896  60.4446727  60.0480887
  74.6982183  61.6916455  60.1337087  83.4268642  55.2187818  45.3117558
  83.4147312  56.1629658  45.4685829  84.3192064  55.0357963  45.0177019
  83.3558206  73.8956708  53.3985315  82.4053837  73.8958570  53.2849687
  83.6590693  73.1489443  52.8821349  87.2420762  51.8130594  49.5663495
  86.4753158  51.2589081  49.7120177  87.6531467  51.8852463  50.4277647
  95.9000606  79.6844675  54.3992602  95.5619118  79.5685739  53.5113137
  96.7690374  79.2835840  54.3793608  91.7587422  81.5380151  50.3889493
  91.1952287  81.4470088  49.6205781  91.6439817  80.7180055  50.8691985
  97.3386981  85.2051119  45.7003958  96.6874960  85.7905199  45.3137972
  98.1331343  85.7357314  45.7598995  91.2642608  82.2940256  46.0991092
  92.0373484  81.7469243  45.9603968  91.6168007  83.1584505  46.3105554
  93.6008886  78.4532922  43.7309542  93.8534406  77.9314443  42.9693005
  92.6633445  78.2899067  43.8336226  98.6452168  77.4568700  51.5384285
  99.4315258  77.0388123  51.1874702  98.9090873  78.3614792  51.7065934
  98.8162246  82.8941551  46.2372942  98.1808079  82.9676177  46.9493847
  98.4859652  83.4835149  45.5592021 104.0460596  77.3943933  52.4417264
 104.7785767  76.8243150  52.6755093 103.2899951  77.0065534  52.8823769
  93.3205174  80.3561028  45.9333917  93.2041432  79.6805931  46.6015001
  93.4307434  79.8693402  45.1166070  95.6636715  79.8171175  49.6380606
  95.2994922  79.2901796  50.3493528  96.5203831  79.4269644  49.4647092
 101.5686016  71.1065508  56.9011872 101.2369341  71.9760919  56.6773087
 100.9731629  70.7901792  57.5805903  95.3042202  74.8461075  44.6341955
  95.4716605  75.7141311  45.0012426  95.1139371  75.0088356  43.7103244
  91.5130017  79.7591850  52.3344490  90.5880513  79.6268064  52.5422181
  91.7614430  80.5386070  52.8314432 101.4614679  75.8260594  53.9805222
 100.5531557  75.7576002  53.6863983 101.4102275  76.3032539  54.8087048
  95.2831423  77.3018732  45.6188622  95.1631048  77.7475783  46.4574102
  94.5884012  77.6504050  45.0602160  93.0438315  90.0722374  49.2678753
  92.9662345  91.0230199  49.3467233  92.4399959  89.7268246  49.9253679
 103.3276326  74.0277032  55.7583096 102.6850706  74.3209565  55.1122891
 102.8231254  73.9129952  56.5636293 100.9816489  77.7740205  46.4468956
 101.8934345  78.0067592  46.2716653 100.4726136  78.3577250  45.8844034
  99.5886072  82.7566024  53.8382537  98.9594934  82.9211738  53.1358605
  99.2011734  83.1707633  54.6093501 103.4675303  83.6920462  51.1926901
 102.7826342  84.0719363  50.6423934 103.5519153  84.3015788  51.9258849
  98.3252464  73.9498241  54.6958817  97.4636943  74.2479495  54.9875554
  98.3514899  74.1668640  53.7639849  95.1414033  82.4940432  51.1032622
  95.6052379  82.7728135  50.3137245  94.8770832  81.5923876  50.9205713
  92.0338115  82.0411913  54.0412385  92.6039472  82.4699182  53.4029870
  92.6246226  81.7594498  54.7396571  94.0782920  78.6163584  47.9122187
  94.7806963  79.0684628  48.3796114  93.7463548  77.9747403  48.5402080
 101.8372063  84.2152376  55.9644602 102.6589507  83.8132563  55.6827283
 101.8334466  84.1120610  56.9160718  89.7722999  77.2391716  50.1722798
  88.9754162  77.3510410  50.6906293  89.5448591  77.5778368  49.3063688
 109.9278056  80.5591125  52.3129573 109.1741764  79.9898523  52.1573578
 110.0625597  80.5253789  53.2600208  95.3176684  85.4304527  47.9884293
  95.1822359  86.2756063  48.4169140  95.8586497  85.6323804  47.2250226
  88.7706082  82.9479965  48.5612218  89.2830602  83.7423215  48.7117782
  89.4228794  82.2506255  48.4945819  90.5800966  86.0645721  50.6434971
  90.7567595  86.9863686  50.4555955  91.3757800  85.7504140  51.0729351
  91.7032282  87.5823895  56.6445313  92.2539707  87.4540958  55.8722307
  90.8643758  87.8818784  56.2940206  98.6669148  68.9535089  56.5183186
  98.3233417  69.8436730  56.4422297  99.0348110  68.7636746  55.6552771
  86.7354998  81.2768619  49.3371788  87.5730220  81.6865628  49.1205496
  86.9133266  80.3368061  49.3071982  98.6319430  78.9443700  45.0255621
  98.1166054  79.7148304  45.2644009  98.3596739  78.2708836  45.6488683
  96.2166541  73.7893401  50.0840859  95.3608138  73.4000251  49.9046498
  96.6293493  73.8685361  49.2240645  97.7465688  71.3239744  54.4832419
  97.2430484  71.2869879  53.6700225  98.0396295  72.2332487  54.5429076
  93.9908574  71.4078474  53.4898601  94.8561571  71.2121282  53.1304490
  94.0586083  71.1788825  54.4167958 103.6053705  81.6976054  46.9608795
 102.8283147  81.3587214  46.5163957 104.2845186  81.7028678  46.2863760
  98.4205734  76.8170792  46.8515402  98.1155869  77.1316941  47.7025545
  99.3736176  76.8952212  46.8942735  96.8652165  82.9761015  48.5008356
  96.3373527  82.2413775  48.1881594  96.3639668  83.7535692  48.2548325
 101.8445011  81.1710036  53.6175403 101.1868686  81.8609297  53.7055531
 102.6485411  81.5606468  53.9609389  91.5970893  73.6380682  50.8614968
  92.1714645  73.4155863  50.1288161  92.1841876  73.7069376  51.6143569
 100.6550470  79.5254408  51.6679344 101.1682352  80.1584400  52.1701054
 101.3051694  78.9255604  51.3022704  91.9240480  75.6685143  44.8810853
  91.0877792  76.0059829  45.2020128  91.7845250  75.5334122  43.9437990
  93.8993561  70.5121930  49.5890037  93.2457973  70.1970948  48.9646652
  93.8574035  69.8897671  50.3149860  95.0104766  80.7941226  41.5043329
  94.1031827  80.5630479  41.7034478  95.5075798  79.9978845  41.6917311
  97.9172845  89.5038733  44.4240015  97.2434543  89.8070429  45.0324973
  98.3038666  90.3067813  44.0745473  97.1331301  77.0003864  53.9137685
  96.2153863  77.2218811  53.7559373  97.5491445  77.0750174  53.0549392
  97.9166349  78.3995280  49.0440365  98.6638168  78.9116677  48.7347487
  98.1857938  78.0779332  49.9044759  96.1892999  80.8953820  46.0267319
  95.2804218  80.6112853  46.1239789  96.2188083  81.3152899  45.1670626
 101.4212266  84.5060410  49.7958487 100.9674594  83.6651320  49.8523677
 100.7906233  85.1421808  50.1333267 100.3645186  75.4352396  51.0259154
  99.6267943  74.9229782  51.3569397 100.6171960  74.9952778  50.2142431
  99.8645206  86.3436907  50.7308305 100.1568180  86.9041964  50.0120671
 100.3743826  86.6365468  51.4861464 100.4656813  68.2128648  51.6200924
 100.7715690  67.3526011  51.3326839 101.1909418  68.8046268  51.4199918
  86.7581169  78.6159335  50.0082522  86.5605569  78.0228695  49.2833588
  86.2027833  78.3111545  50.7258460  94.7377893  78.5082441  52.1277115
  94.7926503  77.5556277  52.0519591  93.9269095  78.6641880  52.6118413
  95.8869087  82.4362564  43.3655398  95.4488517  81.7198423  42.9061035
  96.6279528  82.6638679  42.8040489  92.6770253  77.1259501  49.8867494
  91.8638119  77.4253671  50.2932686  93.1729247  76.7315190  50.6041976
  94.8278831  87.1217258  51.8201758  94.7855010  87.3478104  50.8910290
  95.7441530  86.8880632  51.9687559 104.0042202  80.7119761  49.4231717
 103.8660100  80.9021357  48.4952906 103.6478420  81.4739144  49.8799768
 104.0311581  82.7796288  54.4342988 104.4648088  82.6871577  55.2826042
 104.7443162  82.7553789  53.7963004  92.9444632  83.9980287  51.6163721
  93.7385230  83.5030607  51.4146296  92.2336324  83.4698150  51.2531427
  97.7639476  86.3798382  55.9676089  97.8176498  86.9489319  56.7353805
  96.8954258  86.5500267  55.6030126  89.2527395  78.1423368  47.6923474
  88.3224983  78.0807824  47.9093436  89.3484867  77.6199321  46.8960115
  89.1712944  74.6678181  50.2801715  89.4319762  75.5823514  50.1710876
  89.9930117  74.2002624  50.4298328  96.5463442  72.7077879  59.4666201
  95.8991357  73.4067829  59.3730677  97.3164457  73.1414023  59.8342449
  95.5215908  84.5709309  55.2961558  95.3826993  84.2028093  56.1687496
  94.7330504  85.0856948  55.1245516  96.1164060  89.6718405  46.6387095
  96.2915815  89.2006448  47.4532717  95.4296848  90.2984171  46.8668355
  97.0721123  83.9490911  52.6850396  96.7370955  83.9091681  53.5808046
  96.5725069  83.2835627  52.2120806 100.0080314  81.2946946  42.9587456
  99.3909485  80.5693774  42.8620508  99.5396803  82.0556306  42.6154530
  90.6825145  92.8207768  53.4126955  90.9221743  93.4526292  54.0905973
  89.8394341  92.4695808  53.6992314  91.7978860  75.5132370  42.0808760
  90.9208327  75.3921171  41.7171007  92.2736613  74.7218448  41.8287648
  95.1953007  88.6286890  55.8168459  95.1223178  89.4341862  56.3287763
  94.7530400  88.8278856  54.9916480  94.9842786  87.8658660  49.3271280
  94.2010308  88.4080341  49.4209505  95.6835532  88.3832640  49.7265522
  98.2939437  73.6753290  51.9705486  98.7908136  72.9223252  51.6506556
  97.5226418  73.7117606  51.4048695 106.1469194  79.3793655  53.6123777
 106.1359070  80.2618371  53.2417710 105.2786573  79.0265206  53.4178314
  99.3769217  82.4324977  49.5443909  98.4425496  82.5526440  49.3748613
  99.5545886  81.5297444  49.2803919  94.8774405  75.8170673  51.6977170
  94.5072193  75.2641713  52.3858076  95.3733498  75.2128806  51.1452170
 102.7641769  78.2742296  50.0793943 103.2302221  79.1070288  50.0054246
 103.2149269  77.8087278  50.7839202  92.7063604  86.2768168  58.7932188
  93.4073063  86.9104651  58.9461583  92.2358719  86.6182899  58.0327828
 100.8318000  84.6186118  47.0780095 101.1077844  84.5042712  47.9873969
  99.9622498  84.2203602  47.0392268 100.7358431  70.6422883  54.1184845
  99.8221511  70.8727110  54.2867052 101.1651533  70.7261327  54.9698877
  97.4672064  88.8672468  50.7212909  97.6494458  88.0494124  51.1840661
  98.2905050  89.0840161  50.2837799  97.8014229  87.7940654  47.9827957
  98.3301996  87.2833108  47.3698120  98.0642449  87.4783184  48.8473490
  91.1569977  88.8455770  50.7425733  90.4880352  89.3301898  50.2589773
  91.0182847  89.0924991  51.6569112  95.2975246  90.8799514  57.3408392
  95.8493554  91.0431135  58.1057477  95.6381439  91.4703952  56.6688417
  86.5257554  77.1074225  47.5221665  86.8210995  76.1984904  47.4688719
  85.6245590  77.0861965  47.2002668  98.4343633  88.8281489  54.3272074
  98.3094772  88.0271229  53.8183019  99.0922724  89.3227683  53.8386044
 100.4978541  86.6290509  55.9551624  99.5508877  86.5095861  55.8829951
 100.8461315  85.7413007  56.0377885  88.2545396  74.7888323  47.6460991
  87.9258102  73.9085702  47.4636097  88.6084767  74.7335992  48.5337380
  97.5024975  86.4243226  52.1555976  97.3549937  85.4959933  52.3363546
  98.3278468  86.4463316  51.6713051  91.3687219  75.0761293  48.0136468
  91.7083291  75.6047214  47.2915077  91.8159339  75.4141699  48.7895035
 101.1059097  87.2471784  53.2420849 102.0305644  87.0414646  53.1045300
 100.9374400  86.9988186  54.1510190  94.7147132  70.5447656  55.9166859
  95.5373201  70.0708134  55.7945750  94.9585195  71.3238140  56.4165546
  93.3555366  73.5735914  46.2129761  94.0763729  73.9517167  45.7093478
  92.7320670  74.2924791  46.3164739  97.4986489  74.2781063  47.1488093
  97.7150103  75.1605701  46.8476922  97.0180556  73.8867277  46.4193735
  94.0982093  74.2269324  53.7739728  94.0843662  73.3310418  53.4372026
  94.8154521  74.2339988  54.4078014  95.9508224  74.6606665  55.8192855
  95.6926002  75.5823735  55.8177185  95.4193264  74.2637099  56.5093319
 100.8954413  87.7657452  48.5982940 101.0691290  87.2003874  47.8456793
 101.3883304  88.5658347  48.4162430  93.5018989  73.1083705  49.0427298
  93.6234900  72.1800351  49.2418185  93.2121032  73.1222391  48.1305613
  96.3710180  70.7938615  52.1794018  96.3931876  70.8577948  51.2245997
  96.7878239  69.9543124  52.3734524 106.7493804  80.5293875  50.2173240
 107.1924950  79.7801200  49.8192363 105.8720314  80.5204011  49.8346972
 101.8829585  87.0824216  45.6979839 102.5780490  87.7030909  45.9167153
 102.2252735  86.2319567  45.9732217 103.7821008  84.5323922  47.2267169
 104.3072332  84.8711194  46.5016489 103.6943361  83.5970937  47.0430304
  95.4661669  90.5995905  51.5862423  95.0266659  90.1072284  52.2795279
  96.2169786  90.0568873  51.3454498  92.9135541  86.1433914  53.6584724
  92.2915551  85.4804619  53.3586952  93.5840408  86.1695046  52.9758372
  92.4749048  84.6937837  47.1343185  92.6237169  85.3773302  46.4809858
  93.2815492  84.6742927  47.6492641 106.2926669  81.9999113  52.6095688
 107.1273560  82.4388917  52.7733248 106.4285797  81.5237766  51.7903933
  90.2301681  80.7203015  48.1404254  89.9847723  79.8165345  48.3384464
  90.3997596  80.7220166  47.1983732  97.9198391  71.5926691  57.5229009
  98.4380335  72.3287718  57.1975498  97.5653524  71.8990685  58.3575768
  89.4997329  76.4531373  45.6390415  88.8066574  76.5275728  44.9830451
  89.2549081  75.6891716  46.1611932  98.1710985  68.0126974  53.0429906
  98.4512739  67.3450163  53.6690332  98.9561592  68.2056070  52.5304570
  95.9744454  87.1885968  44.6054932  95.4018421  87.8076155  44.1525404
  96.5477247  87.7385330  45.1394854  99.1941713  87.4723118  45.7363515
 100.1272387  87.4068680  45.9396390  99.1064926  88.3079385  45.2778047
 101.8229730  86.7888988  42.6967462 101.7443362  86.4548852  43.5903220
 102.6439397  87.2810756  42.6958934 104.5207921  79.6550728  55.9043781
 104.4884241  78.7166728  56.0903465 105.1308545  79.7334764  55.1709606
  96.3591252  78.5246781  41.9470985  97.3050357  78.3952989  42.0159403
  95.9805497  77.7861443  42.4240413 104.6702410  76.4461771  55.9502064
 104.1541458  75.6620228  55.7631993 105.5542358  76.1180488  56.1148583
 102.3313137  70.1902787  51.9097877 102.1337958  69.8817875  52.7941209
 102.9412842  70.9164426  52.0395806 110.3384471  80.7166735  55.0449818
 111.0687860  80.4552023  55.6057521 109.7291417  79.9795456  55.0851885
 108.4199768  78.8574597  55.6424269 107.6932932  78.7230562  55.0340760
 108.0047055  79.1651426  56.4480987  94.5434169  76.4496757  41.8825870
  93.6365625  76.1529870  41.9588584  94.8210150  76.1526575  41.0160156
  96.1596235  70.9933647  48.0370111  95.3496963  70.6480732  48.4125357
  96.8480652  70.6841190  48.6257723  98.0886783  70.0711694  49.6594408
  98.6417822  70.4907147  50.3184431  98.3256870  69.1447442  49.7017364
  93.3132954  73.3083692  42.0237849  94.1752118  73.6338591  42.2833667
  93.4983298  72.5215188  41.5110915 101.4665590  72.1812219  49.1673072
 100.8864259  72.8397023  48.7851125 101.2001523  71.3589563  48.7560490
  99.9169157  71.5817276  51.3694393 100.4168935  71.6933811  50.5608711
 100.5604765  71.2778329  52.0095201  89.9024490  83.3800441  56.2930667
  90.8567744  83.3484383  56.2260599  89.7037014  82.9191064  57.1080893
 100.2490468  74.3412309  48.2229420  99.3616323  74.6261960  48.0049615
 100.6644458  74.1806072  47.3756697 103.6005005  74.3658830  51.9383760
 104.3765395  74.8555283  52.2108377 102.8753139  74.7916884  52.3955629
 106.0377563  75.0786449  52.9957700 106.6322054  74.8382185  52.2851009
 106.1104147  74.3593580  53.6231237  99.3933682  84.1056984  42.3177440
 100.0969532  84.3106986  42.9335096  98.6696331  84.6733746  42.5826524
 100.2231492  79.8566845  48.4379711 100.1666694  80.3135396  47.5987343
 100.7759835  79.0957530  48.2602553 104.0336298  75.6456577  49.2629830
 103.7773232  75.2453213  50.0938038 103.4089166  76.3600371  49.1379969
 108.3448636  78.3852650  51.7701121 107.7848194  78.4545839  52.5432684
 107.7392139  78.2093635  51.0500618  91.4143845  89.8189377  53.5219308
  91.2976229  90.7634810  53.4197998  90.5936291  89.5162939  53.9105107
 101.3020379  84.5439513  44.3675900 102.1365983  84.1120711  44.1853375
 101.1404722  84.3721527  45.2952795 100.9566272  81.0471626  45.7332240
 100.9015075  80.8815898  44.7920684 100.3312327  81.7547659  45.8894429
  94.2662397  70.5479735  45.3117558  94.2541067  71.4921575  45.4685829
  95.1585819  70.3649881  45.0177019  92.4398359  90.4717639  56.7375236
  93.3425606  90.5041249  57.0541731  92.2135729  89.5418090  56.7521572
  94.1951961  89.2248626  53.3985315  93.2447592  89.2250487  53.2849687
  94.4984447  88.4781360  52.8821349  98.0814516  67.1422512  49.5663495
  97.3146912  66.5880999  49.7120177  98.4925221  67.2144381  50.4277647
 102.3523771  95.0883768  52.3344490 101.4274268  94.9559982  52.5422181
 102.6008185  95.8677987  52.8314432 114.3069058  99.0212379  51.1926901
 113.6220096  99.4011281  50.6423934 114.3912907  99.6307706  51.9258849
 109.1646219  89.2790159  54.6958817 108.3030698  89.5771413  54.9875554
 109.1908653  89.4960558  53.7639849  98.6602008  92.2039055  53.2139321
  97.8701062  92.4596583  52.7379431  99.1513255  93.0187392  53.3191361
 100.6116753  92.5683634  50.1722798  99.8147917  92.6802328  50.6906293
 100.3842346  92.9070286  49.3063688  96.9439711  92.4569545  55.6454312
  97.1947749  93.3416555  55.9111888  97.4799259  92.2774147  54.8729404
 120.7671811  95.8883042  52.3129573 120.0135519  95.3190440  52.1573578
 120.9019352  95.8545707  53.2600208 107.0560296  89.1185318  50.0840859
 106.2001892  88.7292169  49.9046498 107.4687248  89.1977279  49.2240645
 108.5859443  86.6531662  54.4832419 108.0824238  86.6161797  53.6700225
 108.8790049  87.5624404  54.5429076 104.8302328  86.7370391  53.4898601
 105.6955325  86.5413200  53.1304490 104.8979837  86.5080743  54.4167958
 102.4364648  88.9672599  50.8614968 103.0108399  88.7447781  50.1288161
 103.0235630  89.0361294  51.6143569 104.7387315  85.8413848  49.5890037
 104.0851728  85.5262865  48.9646652 104.6967789  85.2189589  50.3149860
 105.8498520  96.1233143  41.5043329 104.9425582  95.8922397  41.7034478
 106.3469552  95.3270762  41.6917311 108.7566599 104.8330650  44.4240015
 108.0828298 105.1362347  45.0324973 109.1432421 105.6359731  44.0745473
 107.9725056  92.3295782  53.9137685 107.0547617  92.5510729  53.7559373
 108.3885199  92.4042092  53.0549392 111.3050568  83.5420566  51.6200924
 111.6109445  82.6817929  51.3326839 112.0303173  84.1338186  51.4199918
  97.5974924  93.9451252  50.0082522  97.3999324  93.3520613  49.2833588
  97.0421588  93.6403462  50.7258460 106.7262841  97.7654482  43.3655398
 106.2882271  97.0490341  42.9061035 107.4673282  97.9930597  42.8040489
 103.0078082  90.0269774  55.5028729 103.6477462  89.8858533  54.8051692
 102.1755613  89.7404287  55.1267331 114.8705336  98.1088206  54.4342988
 115.3041842  98.0163495  55.2826042 115.5836916  98.0845706  53.7963004
 100.0921150  93.4715286  47.6923474  99.1618738  93.4099742  47.9093436
 100.1878622  92.9491239  46.8960115 100.0106699  89.9970099  50.2801715
 100.2713516  90.9115432  50.1710876 100.8323871  89.5294541  50.4298328
 110.8474069  96.6238863  42.9587456 110.2303240  95.8985692  42.8620508
 110.3790557  97.3848224  42.6154530 102.6372615  90.8424288  42.0808760
 101.7602081  90.7213088  41.7171007 103.1130368  90.0510366  41.8287648
 109.1333191  89.0045208  51.9705486 109.6301891  88.2515170  51.6506556
 108.3620173  89.0409524  51.4048695 116.9862948  94.7085573  53.6123777
 116.9752825  95.5910288  53.2417710 116.1180328  94.3557124  53.4178314
 111.5752186  85.9714801  54.1184845 110.6615266  86.2019028  54.2867052
 112.0045287  86.0553245  54.9698877  93.7342731  93.7102041  54.4467734
  93.7726831  93.1765631  55.2404852  93.2283024  93.1837246  53.8278711
 100.8945556  90.5122139  53.5049214 100.1732141  91.1258107  53.3656687
 101.6838811  91.0479904  53.4265860  99.0939150  90.1180241  47.6460991
  98.7651856  89.2377619  47.4636097  99.4478521  90.0627909  48.5337380
 102.2080973  90.4053210  48.0136468 102.5477046  90.9339132  47.2915077
 102.6553094  90.7433616  48.7895035 111.9452851 102.5763702  53.2420849
 112.8699398 102.3706563  53.1045300 111.7768154 102.3280103  54.1510190
 105.5540886  85.8739574  55.9166859 106.3766955  85.4000052  55.7945750
 105.7978950  86.6530057  56.4165546 104.1949121  88.9027832  46.2129761
 104.9157483  89.2809085  45.7093478 103.5714425  89.6216709  46.3164739
 104.9375848  89.5561242  53.7739728 104.9237417  88.6602335  53.4372026
 105.6548276  89.5631906  54.4078014 106.7901978  89.9898582  55.8192855
 106.5319756  90.9115653  55.8177185 106.2587019  89.5929017  56.5093319
 111.7348167 103.0949369  48.5982940 111.9085045 102.5295792  47.8456793
 112.2277058 103.8950264  48.4162430 104.3412744  88.4375622  49.0427298
 104.4628655  87.5092269  49.2418185 104.0514786  88.4514308  48.1305613
 107.2103934  86.1230533  52.1794018 107.2325631  86.1869866  51.2245997
 107.6271993  85.2835042  52.3734524 117.5887558  95.8585792  50.2173240
 118.0318704  95.1093118  49.8192363 116.7114069  95.8495929  49.8346972
 112.7223340 102.4116134  45.6979839 113.4174244 103.0322827  45.9167153
 113.0646490 101.5611485  45.9732217 114.6214763  99.8615839  47.2267169
 115.1466087 100.2003112  46.5016489 114.5337115  98.9262855  47.0430304
 117.1320423  97.3291031  52.6095688 117.9667314  97.7680835  52.7733248
 117.2679552  96.8529684  51.7903933 100.3391083  91.7823290  45.6390415
  99.6460328  91.8567645  44.9830451 100.0942835  91.0183634  46.1611932
 109.0104740  83.3418892  53.0429906 109.2906493  82.6742081  53.6690332
 109.7955347  83.5347987  52.5304570 106.8138208 102.5177886  44.6054932
 106.2412175 103.1368073  44.1525404 107.3871002 103.0677247  45.1394854
 110.0335468 102.8015036  45.7363515 110.9666141 102.7360597  45.9396390
 109.9458681 103.6371303  45.2778047 112.6623485 102.1180906  42.6967462
 112.5837116 101.7840770  43.5903220 113.4833151 102.6102674  42.6958934
 115.3601676  94.9842645  55.9043781 115.3277996  94.0458646  56.0903465
 115.9702299  95.0626682  55.1709606 107.1985007  93.8538698  41.9470985
 108.1444111  93.7244906  42.0159403 106.8199252  93.1153360  42.4240413
 113.1706891  85.5194704  51.9097877 112.9731712  85.2109793  52.7941209
 113.7806597  86.2456343  52.0395806 105.3827924  91.7788675  41.8825870
 104.4759379  91.4821787  41.9588584 105.6603905  91.4818493  41.0160156
  96.3005864  93.0995038  52.3324916  95.9808649  92.2460346  52.0399290
  95.7539292  93.3143616  53.0882884 106.9989990  86.3225564  48.0370111
 106.1890718  85.9772649  48.4125357 107.6874406  86.0133108  48.6257723
 108.9280538  85.4003611  49.6594408 109.4811576  85.8199065  50.3184431
 109.1650624  84.4739359  49.7017364 104.1526708  88.6375610  42.0237849
 105.0145872  88.9630508  42.2833667 104.3377053  87.8507106  41.5110915
 110.7562911  86.9109194  51.3694393 111.2562690  87.0225729  50.5608711
 111.3998519  86.6070247  52.0095201 110.2327436  99.4348901  42.3177440
 110.9363287  99.6398904  42.9335096 109.5090085 100.0025663  42.5826524
 119.1842390  93.7144568  51.7701121 118.6241948  93.7837757  52.5432684
 118.5785894  93.5385552  51.0500618 112.1414134  99.8731431  44.3675900
 112.9759738  99.4412629  44.1853375 111.9798477  99.7013444  45.2952795
 105.1056151  85.8771653  45.3117558 105.0934821  86.8213493  45.4685829
 105.9979573  85.6941798  45.0177019 108.9208271  82.4714430  49.5663495
 108.1540667  81.9172916  49.7120177 109.3318976  82.5436298  50.4277647
 120.7698409 110.3901082  54.4631077 121.4076819 110.2707829  53.7594417
 120.6519252 111.3381926  54.5219029 117.5788115 110.3428510  54.3992602
 117.2406627 110.2269575  53.5113137 118.4477883 109.9419675  54.3793608
 113.4374931 112.1963986  50.3889493 112.8739796 112.1053923  49.6205781
 113.3227326 111.3763891  50.8691985 118.0607898 111.4963362  60.3578807
 118.0496539 111.1016160  59.4859311 118.2228538 110.7629434  60.9512579
 110.9839363 113.6915178  53.2273713 111.7760655 113.3506003  52.8120013
 111.2236013 113.8010153  54.1475867 119.0174490 115.8634954  45.7003958
 118.3662469 116.4489034  45.3137972 119.8118852 116.3941149  45.7598995
 112.9430117 112.9524091  46.0991092 113.7160993 112.4053078  45.9603968
 113.2955516 113.8168340  46.3105554 114.7815159 114.2800473  59.3057991
 114.4905025 115.1846104  59.1904658 115.4172144 114.3217001  60.0202061
 115.2796395 109.1116757  43.7309542 115.5321915 108.5898279  42.9693005
 114.3420954 108.9482903  43.8336226 120.3239677 108.1152536  51.5384285
 121.1102767 107.6971959  51.1874702 120.5878382 109.0198628  51.7065934
 120.4949755 113.5525386  46.2372942 119.8595588 113.6260012  46.9493847
 120.1647161 114.1418985  45.5592021 125.7248105 108.0527769  52.4417264
 126.4573276 107.4826986  52.6755093 124.9687460 107.6649369  52.8823769
 114.9992683 111.0144863  45.9333917 114.8828941 110.3389767  46.6015001
 115.1094943 110.5277237  45.1166070 117.3424224 110.4755010  49.6380606
 116.9782431 109.9485631  50.3493528 118.1991340 110.0853479  49.4647092
 116.9829711 105.5044910  44.6341955 117.1504114 106.3725146  45.0012426
 116.7926880 105.6672192  43.7103244 119.7405044 113.9661889  56.3007785
 119.4405767 114.8686928  56.1923592 119.3956104 113.6994072  57.1528938
 113.1917526 110.4175686  52.3344490 112.2668022 110.2851900  52.5422181
 113.4401939 111.1969905  52.8314432 123.1402188 106.4844429  53.9805222
 122.2319066 106.4159838  53.6863983 123.0889784 106.9616374  54.8087048
 116.9618932 107.9602567  45.6188622 116.8418557 108.4059618  46.4574102
 116.2671520 108.3087885  45.0602160 110.5526337 110.0608959  53.1688279
 110.6818718 110.3143438  54.0827690 109.8723788 110.6536667  52.8492934
 114.7225824 120.7306209  49.2678753 114.6449854 121.6814034  49.3467233
 114.1187468 120.3852082  49.9253679 125.0063835 104.6860867  55.7583096
 124.3638215 104.9793401  55.1122891 124.5018763 104.5713788  56.5636293
 122.6603998 108.4324041  46.4468956 123.5721854 108.6651427  46.2716653
 122.1513645 109.0161085  45.8844034 120.9444766 112.8548669  60.0830248
 121.3528122 112.4131079  59.3384881 120.2222027 112.2801296  60.3364441
 121.2673581 113.4149859  53.8382537 120.6382443 113.5795573  53.1358605
 120.8799243 113.8291469  54.6093501 125.1462812 114.3504297  51.1926901
 124.4613851 114.7303198  50.6423934 125.2306662 114.9599624  51.9258849
 120.4475281 105.4525644  59.1144979 120.2036213 106.2067704  58.5779254
 120.7235212 105.8310991  59.9492226 122.4013744 111.9964256  57.7922244
 122.6130639 112.6396016  57.1156625 122.3543492 111.1626573  57.3244174
 120.0039973 104.6082077  54.6958817 119.1424452 104.9063330  54.9875554
 120.0302408 104.8252476  53.7639849 116.8201542 113.1524267  51.1032622
 117.2839888 113.4311970  50.3137245 116.5558341 112.2507712  50.9205713
 113.7125624 112.6995749  54.0412385 114.2826981 113.1283017  53.4029870
 114.3033735 112.4178333  54.7396571 115.7570429 109.2747420  47.9122187
 116.4594472 109.7268463  48.3796114 115.4251057 108.6331238  48.5402080
 123.5159572 114.8736211  55.9644602 124.3377016 114.4716399  55.6827283
 123.5121975 114.7704446  56.9160718 111.4510508 107.8975551  50.1722798
 110.6541671 108.0094246  50.6906293 111.2236100 108.2362204  49.3063688
 117.2816175 114.4220255  58.1205312 117.3460608 114.8840662  58.9563484
 116.5727099 113.7917620  58.2487622 131.6065565 111.2174960  52.3129573
 130.8529273 110.6482358  52.1573578 131.7413106 111.1837624  53.2600208
 116.9964193 116.0888362  47.9884293 116.8609868 116.9339898  48.4169140
 117.5374006 116.2907640  47.2250226 110.4493591 113.6063800  48.5612218
 110.9618111 114.4007050  48.7117782 111.1016303 112.9090091  48.4945819
 112.2588475 116.7229557  50.6434971 112.4355104 117.6447521  50.4555955
 113.0545309 116.4087976  51.0729351 118.6232670 116.7111929  62.1184635
 118.1796524 115.9248307  61.8005539 119.2849883 116.8991079  61.4528525
 113.3819791 118.2407730  56.6445313 113.9327216 118.1124794  55.8722307
 112.5431267 118.5402619  56.2940206 120.7213908 116.9914729  60.1466036
 120.7032383 117.8123610  59.6546305 121.6433828 116.8668804  60.3716177
 117.1786962 114.5058858  60.9889544 117.7115299 113.7447146  60.7588852
 116.6501043 114.2132510  61.7313699 108.4142507 111.9352455  49.3371788
 109.2517729 112.3449463  49.1205496 108.5920775 110.9951897  49.3071982
 120.3106939 109.6027535  45.0255621 119.7953563 110.3732140  45.2644009
 120.0384248 108.9292671  45.6488683 117.8954050 104.4477236  50.0840859
 117.0395647 104.0584086  49.9046498 118.3081002 104.5269197  49.2240645
 119.4253197 101.9823579  54.4832419 118.9217993 101.9453714  53.6700225
 119.7183804 102.8916322  54.5429076 115.6696083 102.0662309  53.4898601
 116.5349080 101.8705118  53.1304490 115.7373592 101.8372661  54.4167958
 125.2841214 112.3559890  46.9608795 124.5070656 112.0171049  46.5163957
 125.9632695 112.3612513  46.2863760 120.0993243 107.4754627  46.8515402
 119.7943378 107.7900776  47.7025545 121.0523685 107.5536047  46.8942735
 118.5439674 113.6344851  48.5008356 118.0161036 112.8997610  48.1881594
 118.0427177 114.4119527  48.2548325 123.5232520 111.8293871  53.6175403
 122.8656195 112.5193132  53.7055531 124.3272920 112.2190303  53.9609389
 113.2758402 104.2964517  50.8614968 113.8502154 104.0739698  50.1288161
 113.8629384 104.3653211  51.6143569 122.3337979 110.1838244  51.6679344
 122.8469861 110.8168236  52.1701054 122.9839203 109.5839439  51.3022704
 113.6027989 106.3268978  44.8810853 112.7665301 106.6643664  45.2020128
 113.4632759 106.1917958  43.9437990 115.5781070 101.1705766  49.5890037
 114.9245482 100.8554783  48.9646652 115.5361544 100.5481506  50.3149860
 116.6892275 111.4525061  41.5043329 115.7819336 111.2214314  41.7034478
 117.1863307 110.6562680  41.6917311 119.5960353 120.1622568  44.4240015
 118.9222052 120.4654265  45.0324973 119.9826175 120.9651648  44.0745473
 118.8118810 107.6587699  53.9137685 117.8941371 107.8802646  53.7559373
 119.2278954 107.7334010  53.0549392 119.5953858 109.0579115  49.0440365
 120.3425677 109.5700512  48.7347487 119.8645447 108.7363168  49.9044759
 117.8680508 111.5537656  46.0267319 116.9591727 111.2696689  46.1239789
 117.8975592 111.9736734  45.1670626 123.0999775 115.1644245  49.7958487
 122.6462103 114.3235155  49.8523677 122.4693742 115.8005644  50.1333267
 122.0432695 106.0936231  51.0259154 121.3055452 105.5813617  51.3569397
 122.2959469 105.6536613  50.2142431 121.5432715 117.0020742  50.7308305
 121.8355689 117.5625799  50.0120671 122.0531335 117.2949303  51.4861464
 122.1444322  98.8712483  51.6200924 122.4503199  98.0109847  51.3326839
 122.8696927  99.4630103  51.4199918 108.4368678 109.2743170  50.0082522
 108.2393078 108.6812531  49.2833588 107.8815342 108.9695380  50.7258460
 116.4165402 109.1666276  52.1277115 116.4714012 108.2140113  52.0519591
 115.6056604 109.3225715  52.6118413 117.5656596 113.0946399  43.3655398
 117.1276026 112.3782258  42.9061035 118.3067037 113.3222514  42.8040489
 114.3557762 107.7843336  49.8867494 113.5425628 108.0837507  50.2932686
 114.8516756 107.3899025  50.6041976 116.5066340 117.7801093  51.8201758
 116.4642519 118.0061939  50.8910290 117.4229039 117.5464468  51.9687559
 119.9531974 108.2485161  58.7182388 120.3081361 108.4756634  59.5776853
 120.6004105 108.5803537  58.0959643 125.6829711 111.3703596  49.4231717
 125.5447609 111.5605192  48.4952906 125.3265929 112.1322979  49.8799768
 125.7099090 113.4380123  54.4342988 126.1435597 113.3455413  55.2826042
 126.4230671 113.4137624  53.7963004 114.6232141 114.6564122  51.6163721
 115.4172739 114.1614442  51.4146296 113.9123833 114.1281985  51.2531427
 119.4426985 117.0382218  55.9676089 119.4964007 117.6073154  56.7353805
 118.5741767 117.2084103  55.6030126 110.9314904 108.8007204  47.6923474
 110.0012492 108.7391659  47.9093436 111.0272376 108.2783157  46.8960115
 110.8500453 105.3262017  50.2801715 111.1107270 106.2407350  50.1710876
 111.6717626 104.8586459  50.4298328 126.5714640 113.4803824  56.9675873
 126.7650530 114.3849635  57.2135148 126.4715258 113.0211243  57.8014458
 121.6329748 113.6310567  62.5416754 121.4815255 113.4021119  61.6246838
 121.6234428 114.5881168  62.5548099 118.4015085 111.2042480  57.5263020
 119.3307145 111.3553639  57.3531988 117.9806115 111.2926500  56.6711667
 117.2003417 115.2293144  55.2961558 117.0614502 114.8611928  56.1687496
 116.4118013 115.7440783  55.1245516 117.7951569 120.3302240  46.6387095
 117.9703324 119.8590284  47.4532717 117.1084357 120.9568007  46.8668355
 118.7508632 114.6074747  52.6850396 118.4158464 114.5675517  53.5808046
 118.2512577 113.9419463  52.2120806 121.6867823 111.9530781  42.9587456
 121.0696994 111.2277609  42.8620508 121.2184312 112.7140141  42.6154530
 123.3421955 116.6629689  60.6193236 123.2834501 115.9788910  59.9523819
 123.7441474 117.4048679  60.1673862 112.3612654 123.4791603  53.4126955
 112.6009252 124.1110127  54.0905973 111.5181850 123.1279643  53.6992314
 113.4766369 106.1716205  42.0808760 112.5995836 106.0505006  41.7171007
 113.9524122 105.3802284  41.8287648 123.3439362 114.6269273  58.8507216
 122.4566141 114.2895195  58.9733614 123.9137913 113.8952305  59.0875981
 104.9968510 110.9593365  52.1750267 105.6839549 110.6455095  51.5871282
 104.8416638 111.8634730  51.9017518 116.8740516 119.2870726  55.8168459
 116.8010687 120.0925697  56.3287763 116.4317909 119.4862692  54.9916480
 116.6630295 118.5242496  49.3271280 115.8797817 119.0664176  49.4209505
 117.3623041 119.0416475  49.7265522 119.9726946 104.3337125  51.9705486
 120.4695645 103.5807088  51.6506556 119.2013927 104.3701442  51.4048695
 127.8256703 110.0377491  53.6123777 127.8146579 110.9202206  53.2417710
 126.9574082 109.6849042  53.4178314 119.3339199 119.1857560  57.9726617
 120.0467172 119.8205025  57.9002519 118.8429228 119.2821426  57.1566619
 121.0556726 113.0908812  49.5443909 120.1213005 113.2110275  49.3748613
 121.2333395 112.1881279  49.2803919 116.5561914 106.4754508  51.6977170
 116.1859702 105.9225549  52.3858076 117.0521007 105.8712642  51.1452170
 124.4429278 108.9326132  50.0793943 124.9089730 109.7654123  50.0054246
 124.8936778 108.4671113  50.7839202 114.3851113 116.9352003  58.7932188
 115.0860572 117.5688486  58.9461583 113.9146228 117.2766735  58.0327828
 122.5105509 115.2769953  47.0780095 122.7865353 115.1626548  47.9873969
 121.6410007 114.8787438  47.0392268 122.4145940 101.3006719  54.1184845
 121.5009020 101.5310946  54.2867052 122.8439042 101.3845163  54.9698877
 122.1852399 109.4896611  56.6184739 121.5323849 109.7372518  55.9637191
 122.5632779 108.6760749  56.2847216 119.1459573 119.5256304  50.7212909
 119.3281967 118.7077960  51.1840661 119.9692559 119.7423996  50.2837799
 119.4801738 118.4524489  47.9827957 120.0089505 117.9416944  47.3698120
 119.7429958 118.1367019  48.8473490 118.2339972 110.2316422  63.1050776
 117.5580609 110.1310551  63.7753151 119.0567606 110.0755635  63.5686773
 109.9818831 116.4688358  55.7263291 110.5672268 115.7232046  55.8591195
 109.7843669 116.7792315  56.6099955 112.8357486 119.5039606  50.7425733
 112.1667861 119.9885733  50.2589773 112.6970356 119.7508826  51.6569112
 116.9762755 121.5383349  57.3408392 117.5281063 121.7014971  58.1057477
 117.3168948 122.1287787  56.6688417 121.8273629 116.3644607  63.1957046
 122.3713533 116.9774565  62.7012001 121.2460474 116.9224185  63.7124059
 108.2045063 107.7658061  47.5221665 108.4998504 106.8568739  47.4688719
 107.3033099 107.7445800  47.2002668 120.1131142 119.4865325  54.3272074
 119.9882281 118.6855065  53.8183019 120.7710233 119.9811518  53.8386044
 111.7339310 105.8414057  53.5049214 111.0125896 106.4550025  53.3656687
 112.5232566 106.3771822  53.4265860 122.1766050 117.2874345  55.9551624
 121.2296386 117.1679696  55.8829951 122.5248823 116.3996843  56.0377885
 109.9332905 105.4472158  47.6460991 109.6045611 104.5669537  47.4636097
 110.2872275 105.3919827  48.5337380 119.1812484 117.0827061  52.1555976
 119.0337446 116.1543768  52.3363546 120.0065977 117.1047152  51.6713051
 113.0474728 105.7345128  48.0136468 113.3870800 106.2631049  47.2915077
 113.4946848 106.0725534  48.7895035 122.7846606 117.9055620  53.2420849
 123.7093153 117.6998481  53.1045300 122.6161909 117.6572021  54.1510190
 115.0342875 104.2319750  46.2129761 115.7551238 104.6101002  45.7093478
 114.4108179 104.9508626  46.3164739 119.1773998 104.9364899  47.1488093
 119.3937612 105.8189536  46.8476922 118.6968065 104.5451112  46.4193735
 115.7769602 104.8853160  53.7739728 115.7631171 103.9894253  53.4372026
 116.4942030 104.8923824  54.4078014 117.6295733 105.3190500  55.8192855
 117.3713511 106.2407571  55.8177185 117.0980773 104.9220935  56.5093319
 122.5741922 118.4241287  48.5982940 122.7478799 117.8587710  47.8456793
 123.0670813 119.2242182  48.4162430 115.1806498 103.7667540  49.0427298
 115.3022409 102.8384186  49.2418185 114.8908541 103.7806226  48.1305613
 118.0497689 101.4522451  52.1794018 118.0719385 101.5161784  51.2245997
 118.4665748 100.6126959  52.3734524 128.4281313 111.1877710  50.2173240
 128.8712459 110.4385035  49.8192363 127.5507823 111.1787846  49.8346972
 123.5617094 117.7408052  45.6979839 124.2567999 118.3614744  45.9167153
 123.9040244 116.8903403  45.9732217 125.4608517 115.1907757  47.2267169
 125.9859841 115.5295030  46.5016489 125.3730870 114.2554772  47.0430304
 117.1228566 119.1041831  59.3557046 117.4315692 118.8590977  60.2279746
 117.9204048 119.3088469  58.8675916 117.1449178 121.2579740  51.5862423
 116.7054168 120.7656119  52.2795279 117.8957295 120.7152708  51.3454498
 109.6241517 117.4491281  51.5887051 110.4499537 117.1495053  51.2085694
 109.2735569 116.6798904  52.0376839 114.5923050 116.8017749  53.6584724
 113.9703060 116.1388454  53.3586952 115.2627917 116.8278881  52.9758372
 107.8250122 115.3677608  52.5475984 106.9882030 114.9399782  52.3659986
 107.7973768 115.5610051  53.4846775 125.1502423 115.8240661  62.5318367
 124.3597967 115.8064800  61.9922867 124.9135778 116.3628954  63.2867404
 125.2700298 112.6733127  59.8451096 125.3198303 112.5083135  60.7866619
 125.1614222 111.8060386  59.4548977 114.1536557 115.3521673  47.1343185
 114.3024678 116.0357137  46.4809858 114.9603001 115.3326763  47.6492641
 122.5604061 108.6564055  61.1610403 123.4613924 108.5170520  60.8694400
 122.6352035 108.8218510  62.1008580 126.7718495 115.0930069  60.0893117
 126.4803304 115.4560049  60.9256578 126.1590627 114.3797077  59.9106450
 127.9714178 112.6582948  52.6095688 128.8061069 113.0972752  52.7733248
 128.1073306 112.1821602  51.7903933 125.0205684 110.2162683  58.5573175
 125.4959805 110.4090330  57.7492027 124.0971249 110.2721869  58.3116559
 111.9089190 111.3786850  48.1404254 111.6635232 110.4749180  48.3384464
 112.0785105 111.3804001  47.1983732 111.1784838 107.1115208  45.6390415
 110.4854083 107.1859563  44.9830451 110.9336590 106.3475552  46.1611932
 119.8498494  98.6710809  53.0429906 120.1300248  98.0033998  53.6690332
 120.6349101  98.8639905  52.5304570 117.6531963 117.8469803  44.6054932
 117.0805930 118.4659990  44.1525404 118.2264756 118.3969165  45.1394854
 123.7207353 107.0928443  56.7901481 124.6724775 107.1926541  56.8113705
 123.5510803 106.3006712  57.2999565 121.7421732 104.1784027  56.9760882
 121.1471664 104.4589039  56.2807371 121.4571429 104.6677927  57.7477623
 120.8729222 118.1306953  45.7363515 121.8059896 118.0652515  45.9396390
 120.7852435 118.9663220  45.2778047 123.5017239 117.4472824  42.6967462
 123.4230871 117.1132687  43.5903220 124.3226906 117.9394592  42.6958934
 126.1995430 110.3134563  55.9043781 126.1671750 109.3750564  56.0903465
 126.8096054 110.3918600  55.1709606 118.0378761 109.1830616  41.9470985
 118.9837866 109.0536824  42.0159403 117.6593006 108.4445278  42.4240413
 126.3489919 107.1045606  55.9502064 125.8328967 106.3204063  55.7631993
 127.2329867 106.7764323  56.1148583 124.0100646 100.8486622  51.9097877
 123.8125467 100.5401710  52.7941209 124.6200351 101.5748261  52.0395806
 132.0171980 111.3750570  55.0449818 132.7475369 111.1135858  55.6057521
 131.4078926 110.6379292  55.0851885 130.0987277 109.5158432  55.6424269
 129.3720441 109.3814397  55.0340760 129.6834564 109.8235261  56.4480987
 117.9217454 113.2348362  63.4071642 118.8420463 113.4126961  63.6011688
 117.8867037 112.2904407  63.2551341 116.2221678 107.1080592  41.8825870
 115.3153134 106.8113705  41.9588584 116.4997659 106.8110410  41.0160156
 117.8383744 101.6517482  48.0370111 117.0284472 101.3064567  48.4125357
 118.5268161 101.3425026  48.6257723 119.7674292 100.7295529  49.6594408
 120.3205331 101.1490982  50.3184431 120.0044379  99.8031277  49.7017364
 114.9920463 103.9667528  42.0237849 115.8539627 104.2922426  42.2833667
 115.1770807 103.1799023  41.5110915 107.0087879 112.0489867  54.3018038
 106.3151350 111.6343820  53.7887992 107.7560870 112.0910404  53.7051457
 123.1453099 102.8396054  49.1673072 122.5651768 103.4980858  48.7851125
 122.8789032 102.0173399  48.7560490 121.5956666 102.2401112  51.3694393
 122.0956444 102.3517646  50.5608711 122.2392274 101.9362165  52.0095201
 115.6538662 110.1479741  64.2562233 115.1705743 110.9480101  64.4626123
 115.7399601 110.1587686  63.3029677 108.9224621 111.9808121  52.1784053
 108.8995309 112.0795808  51.2265936 109.2325258 112.8273272  52.5001219
 111.5811999 114.0384276  56.2930667 112.5355253 114.0068218  56.2260599
 111.3824523 113.5774900  57.1080893 112.1711381 112.6085392  58.8601465
 112.9904270 113.1029471  58.8836302 112.4448189 111.6917360  58.8319032
 121.9277977 104.9996144  48.2229420 121.0403832 105.2845795  48.0049615
 122.3431967 104.8389908  47.3756697 125.2792514 105.0242665  51.9383760
 126.0552904 105.5139118  52.2108377 124.5540648 105.4500720  52.3955629
 127.7165072 105.7370285  52.9957700 128.3109563 105.4966021  52.2851009
 127.7891656 105.0177415  53.6231237 109.9362228 119.5803896  53.3100865
 109.8016696 118.8204296  52.7438863 109.5194290 120.3044795  52.8429654
 121.0721191 114.7640819  42.3177440 121.7757041 114.9690822  42.9335096
 120.3483840 115.3317581  42.5826524 121.9019001 110.5150680  48.4379711
 121.8454203 110.9719232  47.5987343 122.4547344 109.7541365  48.2602553
 125.7123807 106.3040412  49.2629830 125.4560741 105.9037048  50.0938038
 125.0876675 107.0184206  49.1379969 130.0236145 109.0436485  51.7701121
 129.4635703 109.1129675  52.5432684 129.4179648 108.8677470  51.0500618
 113.0931354 120.4773213  53.5219308 112.9763738 121.4218645  53.4197998
 112.2723800 120.1746774  53.9105107 122.9807888 115.2023348  44.3675900
 123.8153492 114.7704547  44.1853375 122.8192231 115.0305362  45.2952795
 122.6353780 111.7055462  45.7332240 122.5802584 111.5399733  44.7920684
 122.0099836 112.4131495  45.8894429 119.9499688 114.0104373  65.0585803
 120.8190847 114.1845026  64.6972437 119.4706439 114.8298790  64.9361532
 115.9449906 101.2063571  45.3117558 115.9328576 102.1505411  45.4685829
 116.8373328 101.0233716  45.0177019 114.1185868 121.1301474  56.7375236
 115.0213115 121.1625085  57.0541731 113.8923238 120.2001925  56.7521572
 115.8739470 119.8832461  53.3985315 114.9235101 119.8834323  53.2849687
 116.1771956 119.1365196  52.8821349 119.7602025  97.8006347  49.5663495
 118.9934421  97.2464834  49.7120177 120.1712730  97.8728216  50.4277647
 131.6092163 125.7192999  54.4631077 132.2470573 125.5999747  53.7594417
 131.4913006 126.6673843  54.5219029 128.4181870 125.6720428  54.3992602
 128.0800381 125.5561492  53.5113137 129.2871638 125.2711593  54.3793608
 124.2768685 127.5255904  50.3889493 123.7133551 127.4345841  49.6205781
 124.1621080 126.7055808  50.8691985 128.9001653 126.8255279  60.3578807
 128.8890293 126.4308078  59.4859311 129.0622292 126.0921352  60.9512579
 121.8233117 129.0207096  53.2273713 122.6154409 128.6797920  52.8120013
 122.0629767 129.1302071  54.1475867 129.8568244 131.1926872  45.7003958
 129.2056224 131.7780952  45.3137972 130.6512607 131.7233067  45.7598995
 123.7823871 128.2816009  46.0991092 124.5554747 127.7344996  45.9603968
 124.1349270 129.1460258  46.3105554 125.6208914 129.6092391  59.3057991
 125.3298780 130.5138022  59.1904658 126.2565898 129.6508919  60.0202061
 126.5465121 126.9869240  55.8959351 127.1428693 126.7625262  55.1816314
 126.6040092 126.2453985  56.4984799 126.1190149 124.4408675  43.7309542
 126.3715670 123.9190196  42.9693005 125.1814708 124.2774820  43.8336226
 131.1633432 123.4444453  51.5384285 131.9496521 123.0263876  51.1874702
 131.4272136 124.3490545  51.7065934 131.3343509 128.8817304  46.2372942
 130.6989342 128.9551930  46.9493847 131.0040916 129.4710902  45.5592021
 136.5641859 123.3819686  52.4417264 137.2967031 122.8118903  52.6755093
 135.8081215 122.9941287  52.8823769 125.8386438 126.3436781  45.9333917
 125.7222696 125.6681684  46.6015001 125.9488698 125.8569155  45.1166070
 128.1817979 125.8046928  49.6380606 127.8176186 125.2777549  50.3493528
 129.0385095 125.4145397  49.4647092 134.0867279 117.0941261  56.9011872
 133.7550604 117.9636672  56.6773087 133.4912893 116.7777545  57.5805903
 127.8223466 120.8336828  44.6341955 127.9897868 121.7017064  45.0012426
 127.6320635 120.9964109  43.7103244 130.5798799 129.2953807  56.3007785
 130.2799522 130.1978845  56.1923592 130.2349858 129.0285990  57.1528938
 124.0311280 125.7467603  52.3344490 123.1061777 125.6143818  52.5422181
 124.2795694 126.5261823  52.8314432 133.9795943 121.8136347  53.9805222
 133.0712820 121.7451755  53.6863983 133.9283538 122.2908292  54.8087048
 127.8012687 123.2894485  45.6188622 127.6812312 123.7351536  46.4574102
 127.1065275 123.6379803  45.0602160 121.3920091 125.3900877  53.1688279
 121.5212473 125.6435356  54.0827690 120.7117543 125.9828585  52.8492934
 125.5619579 136.0598127  49.2678753 125.4843608 137.0105952  49.3467233
 124.9581222 135.7143999  49.9253679 128.0536808 123.2325992  61.9240120
 127.2770143 123.7919912  61.9142984 128.6927372 123.7182775  62.4454990
 135.8457589 120.0152785  55.7583096 135.2031969 120.3085318  55.1122891
 135.3412518 119.9005705  56.5636293 133.4997753 123.7615958  46.4468956
 134.4115609 123.9943345  46.2716653 132.9907400 124.3453003  45.8844034
 126.3083181 126.0411446  61.4858087 127.0497865 126.5796490  61.2092910
 125.6020166 126.6677734  61.6429639 131.7838520 128.1840586  60.0830248
 132.1921876 127.7422997  59.3384881 131.0615782 127.6093214  60.3364441
 128.1369590 123.1213193  57.4563805 128.9830786 123.5452606  57.5998454
 128.0768228 122.4646817  58.1502368 132.1067335 128.7441777  53.8382537
 131.4776198 128.9087491  53.1358605 131.7192997 129.1583386  54.6093501
 135.9856567 129.6796215  51.1926901 135.3007605 130.0595116  50.6423934
 136.0700416 130.2891541  51.9258849 131.2869036 120.7817561  59.1144979
 131.0429968 121.5359622  58.5779254 131.5628966 121.1602909  59.9492226
 133.2407499 127.3256174  57.7922244 133.4524394 127.9687934  57.1156625
 133.1937247 126.4918490  57.3244174 130.8433728 119.9373994  54.6958817
 129.9818207 120.2355248  54.9875554 130.8696162 120.1544393  53.7639849
 127.6595297 128.4816185  51.1032622 128.1233642 128.7603888  50.3137245
 127.3952095 127.5799629  50.9205713 124.5519378 128.0287666  54.0412385
 125.1220735 128.4574935  53.4029870 125.1427490 127.7470251  54.7396571
 126.5964183 124.6039337  47.9122187 127.2988226 125.0560381  48.3796114
 126.2644811 123.9623156  48.5402080 125.0444545 123.1951094  62.2873397
 124.4143205 123.8767375  62.5208794 124.9380632 123.0834175  61.3426535
 120.3389517 122.8622890  53.2139321 119.5488571 123.1180418  52.7379431
 120.8300764 123.6771228  53.3191361 134.3553327 130.2028129  55.9644602
 135.1770770 129.8008316  55.6827283 134.3515729 130.0996363  56.9160718
 122.2904262 123.2267469  50.1722798 121.4935426 123.3386163  50.6906293
 122.0629855 123.5654121  49.3063688 128.1209930 129.7512172  58.1205312
 128.1854362 130.2132580  58.9563484 127.4120854 129.1209537  58.2487622
 118.6227220 123.1153380  55.6454312 118.8735258 124.0000390  55.9111888
 119.1586768 122.9357982  54.8729404 142.4459320 126.5466878  52.3129573
 141.6923028 125.9774276  52.1573578 142.5806861 126.5129542  53.2600208
 127.8357948 131.4180280  47.9884293 127.7003622 132.2631816  48.4169140
 128.3767760 131.6199558  47.2250226 124.3225287 117.4971860  64.6498648
 123.9292233 116.9438058  65.3246292 125.1391428 117.8082438  65.0405165
 121.2887345 128.9355718  48.5612218 121.8011866 129.7298968  48.7117782
 121.9410058 128.2382008  48.4945819 123.0982230 132.0521474  50.6434971
 123.2748858 132.9739439  50.4555955 123.8939063 131.7379893  51.0729351
 127.2393248 118.9129739  62.2418904 127.9802962 119.5136892  62.1623367
 127.4711171 118.1707377  61.6836947 122.3834586 124.0986106  60.5197134
 122.2688101 123.1971363  60.8204233 121.5279104 124.3449803  60.1681951
 129.4626424 132.0403846  62.1184635 129.0190278 131.2540225  61.8005539
 130.1243638 132.2282997  61.4528525 124.2213545 133.5699648  56.6445313
 124.7720970 133.4416711  55.8722307 123.3825021 133.8694537  56.2940206
 131.5607662 132.3206646  60.1466036 131.5426137 133.1415527  59.6546305
 132.4827582 132.1960722  60.3716177 128.0180716 129.8350776  60.9889544
 128.5509053 129.0739064  60.7588852 127.4894797 129.5424428  61.7313699
 131.1850411 114.9410842  56.5183186 130.8414681 115.8312483  56.4422297
 131.5529374 114.7512499  55.6552771 119.2536262 127.2644372  49.3371788
 120.0911484 127.6741381  49.1205496 119.4314529 126.3243814  49.3071982
 131.1500694 124.9319453  45.0255621 130.6347317 125.7024058  45.2644009
 130.8778002 124.2584589  45.6488683 128.7347805 119.7769154  50.0840859
 127.8789401 119.3876004  49.9046498 129.1474757 119.8561114  49.2240645
 130.2646952 117.3115497  54.4832419 129.7611747 117.2745632  53.6700225
 130.5577558 118.2208240  54.5429076 126.5089837 117.3954227  53.4898601
 127.3742834 117.1997035  53.1304490 126.5767346 117.1664578  54.4167958
 136.1234968 127.6851808  46.9608795 135.3464411 127.3462967  46.5163957
 136.8026449 127.6904431  46.2863760 130.9386997 122.8046545  46.8515402
 130.6337133 123.1192694  47.7025545 131.8917439 122.8827965  46.8942735
 129.3833429 128.9636768  48.5008356 128.8554790 128.2289528  48.1881594
 128.8820932 129.7411445  48.2548325 134.3626275 127.1585789  53.6175403
 133.7049949 127.8485050  53.7055531 135.1666674 127.5482221  53.9609389
 124.1152157 119.6256435  50.8614968 124.6895908 119.4031616  50.1288161
 124.7023139 119.6945129  51.6143569 133.1731734 125.5130161  51.6679344
 133.6863615 126.1460153  52.1701054 133.8232958 124.9131357  51.3022704
 124.4421744 121.6560896  44.8810853 123.6059056 121.9935582  45.2020128
 124.3026513 121.5209875  43.9437990 126.4174824 116.4997683  49.5890037
 125.7639237 116.1846701  48.9646652 126.3755298 115.8773424  50.3149860
 127.5286029 126.7816979  41.5043329 126.6213091 126.5506232  41.7034478
 128.0257061 125.9854598  41.6917311 130.4354108 135.4914486  44.4240015
 129.7615807 135.7946182  45.0324973 130.8219930 136.2943566  44.0745473
 129.6512565 122.9879617  53.9137685 128.7335126 123.2094564  53.7559373
 130.0672708 123.0625927  53.0549392 130.4347612 124.3871033  49.0440365
 131.1819431 124.8992430  48.7347487 130.7039202 124.0655085  49.9044759
 128.7074263 126.8829573  46.0267319 127.7985482 126.5988606  46.1239789
 128.7369346 127.3028652  45.1670626 133.9393530 130.4936163  49.7958487
 133.4855857 129.6527073  49.8523677 133.3087497 131.1297561  50.1333267
 132.8826450 121.4228149  51.0259154 132.1449206 120.9105535  51.3569397
 133.1353223 120.9828531  50.2142431 132.3826469 132.3312660  50.7308305
 132.6749444 132.8917717  50.0120671 132.8925090 132.6241221  51.4861464
 132.9838077 114.2004401  51.6200924 133.2896954 113.3401764  51.3326839
 133.7090682 114.7922021  51.4199918 119.2762433 124.6035088  50.0082522
 119.0786833 124.0104448  49.2833588 118.7209097 124.2987298  50.7258460
 127.2559157 124.4958194  52.1277115 127.3107766 123.5432030  52.0519591
 126.4450359 124.6517633  52.6118413 128.4050350 128.4238317  43.3655398
 127.9669780 127.7074176  42.9061035 129.1460791 128.6514432  42.8040489
 125.1951517 123.1135254  49.8867494 124.3819382 123.4129424  50.2932686
 125.6910511 122.7190943  50.6041976 127.3460094 133.1093011  51.8201758
 127.3036273 133.3353857  50.8910290 128.2622793 132.8756385  51.9687559
 130.7925728 123.5777078  58.7182388 131.1475116 123.8048551  59.5776853
 131.4397859 123.9095455  58.0959643 136.5223465 126.6995514  49.4231717
 136.3841364 126.8897110  48.4952906 136.1659684 127.4614897  49.8799768
 124.6865591 120.6853609  55.5028729 125.3264971 120.5442368  54.8051692
 123.8543122 120.3988123  55.1267331 136.5492845 128.7672041  54.4342988
 136.9829351 128.6747330  55.2826042 137.2624425 128.7429542  53.7963004
 125.4625895 129.9856040  51.6163721 126.2566494 129.4906360  51.4146296
 124.7517588 129.4573903  51.2531427 130.2820740 132.3674135  55.9676089
 130.3357762 132.9365072  56.7353805 129.4135521 132.5376020  55.6030126
 121.7708659 124.1299121  47.6923474 120.8406247 124.0683577  47.9093436
 121.8666131 123.6075074  46.8960115 121.6894208 120.6553934  50.2801715
 121.9501025 121.5699268  50.1710876 122.5111380 120.1878377  50.4298328
 123.1619133 122.0691691  57.4500540 123.8342186 121.8609054  56.8013189
 122.3348920 121.8713777  57.0105772 137.4108394 128.8095742  56.9675873
 137.6044284 129.7141552  57.2135148 137.3109012 128.3503161  57.8014458
 129.0644705 118.6953632  59.4666201 128.4172620 119.3943582  59.3730677
 129.8345720 119.1289776  59.8342449 132.4723503 128.9602485  62.5416754
 132.3209009 128.7313036  61.6246838 132.4628182 129.9173086  62.5548099
 129.2408839 126.5334397  57.5263020 130.1700899 126.6845557  57.3531988
 128.8199869 126.6218418  56.6711667 128.0397171 130.5585062  55.2961558
 127.9008257 130.1903846  56.1687496 127.2511767 131.0732701  55.1245516
 128.6345323 135.6594158  46.6387095 128.8097079 135.1882201  47.4532717
 127.9478111 136.2859924  46.8668355 129.5902386 129.9366664  52.6850396
 129.2552219 129.8967434  53.5808046 129.0906332 129.2711380  52.2120806
 123.5646630 125.3434294  58.2102977 123.4266428 124.6114533  58.8114516
 124.4751554 125.2543195  57.9287165 132.5261578 127.2822699  42.9587456
 131.9090749 126.5569527  42.8620508 132.0578066 128.0432059  42.6154530
 126.1928931 125.0554254  57.6986657 126.9028549 124.4147446  57.6573275
 126.1498239 125.3067149  58.6212837 134.1815710 131.9921607  60.6193236
 134.1228256 131.3080827  59.9523819 134.5835228 132.7340597  60.1673862
 124.9057865 122.0419472  59.5182296 124.3695222 121.5910210  60.1703893
 124.3174573 122.1765380  58.7752761 123.2006408 138.8083521  53.4126955
 123.4403007 139.4402045  54.0905973 122.3575605 138.4571561  53.6992314
 124.3160124 121.5008123  42.0808760 123.4389590 121.3796924  41.7171007
 124.7917877 120.7094201  41.8287648 134.1833117 129.9561191  58.8507216
 133.2959896 129.6187113  58.9733614 134.7531668 129.2244222  59.0875981
 115.8362264 126.2885283  52.1750267 116.5233304 125.9747013  51.5871282
 115.6810393 127.1926647  51.9017518 120.6396986 121.1775479  56.6035291
 120.5555175 120.5701149  55.8685701 119.8179693 121.6684498  56.6044787
 127.7134270 134.6162643  55.8168459 127.6404442 135.4217615  56.3287763
 127.2711663 134.8154609  54.9916480 127.5024050 133.8534413  49.3271280
 126.7191572 134.3956094  49.4209505 128.2016795 134.3708393  49.7265522
 130.8120700 119.6629043  51.9705486 131.3089400 118.9099005  51.6506556
 130.0407682 119.6993360  51.4048695 138.6650457 125.3669408  53.6123777
 138.6540334 126.2494124  53.2417710 137.7967837 125.0140959  53.4178314
 130.1732954 134.5149477  57.9726617 130.8860926 135.1496942  57.9002519
 129.6822982 134.6113343  57.1566619 131.8950481 128.4200730  49.5443909
 130.9606759 128.5402193  49.3748613 132.0727149 127.5173197  49.2803919
 127.3955669 121.8046426  51.6977170 127.0253456 121.2517466  52.3858076
 127.8914761 121.2004559  51.1452170 135.2823032 124.2618049  50.0793943
 135.7483484 125.0946041  50.0054246 135.7330533 123.7963031  50.7839202
 125.2244867 132.2643921  58.7932188 125.9254327 132.8980404  58.9461583
 124.7539982 132.6058652  58.0327828 133.3499263 130.6061871  47.0780095
 133.6259107 130.4918465  47.9873969 132.4803762 130.2079355  47.0392268
 133.2539695 116.6298636  54.1184845 132.3402775 116.8602863  54.2867052
 133.6832796 116.7137080  54.9698877 133.0246153 124.8188528  56.6184739
 132.3717604 125.0664436  55.9637191 133.4026533 124.0052666  56.2847216
 129.9853327 134.8548221  50.7212909 130.1675722 134.0369877  51.1840661
 130.8086313 135.0715914  50.2837799 130.3195493 133.7816407  47.9827957
 130.8483259 133.2708861  47.3698120 130.5823712 133.4658937  48.8473490
 129.0733726 125.5608339  63.1050776 128.3974363 125.4602469  63.7753151
 129.8961360 125.4047553  63.5686773 120.8212585 131.7980276  55.7263291
 121.4066022 131.0523964  55.8591195 120.6237424 132.1084233  56.6099955
 123.6751241 134.8331523  50.7425733 123.0061616 135.3177651  50.2589773
 123.5364110 135.0800744  51.6569112 115.4130240 124.3685876  54.4467734
 115.4514340 123.8349467  55.2404852 114.9070533 123.8421082  53.8278711
 127.8156509 136.8675267  57.3408392 128.3674817 137.0306888  58.1057477
 128.1562703 137.4579705  56.6688417 122.7921002 119.2150417  57.9430276
 122.8562329 120.0765248  57.5307674 122.7288123 118.6024418  57.2102635
 122.2673275 121.2873549  61.5903311 122.8945314 120.9050626  62.2040835
 121.4101194 121.0687751  61.9559003 132.6667384 131.6936524  63.1957046
 133.2107288 132.3066483  62.7012001 132.0854228 132.2516103  63.7124059
 119.0438818 123.0949978  47.5221665 119.3392259 122.1860657  47.4688719
 118.1426853 123.0737718  47.2002668 130.9524896 134.8157242  54.3272074
 130.8276036 134.0146982  53.8183019 131.6103988 135.3103436  53.8386044
 122.5733065 121.1705975  53.5049214 121.8519650 121.7841943  53.3656687
 123.3626320 121.7063740  53.4265860 133.0159805 132.6166262  55.9551624
 132.0690140 132.4971614  55.8829951 133.3642578 131.7288760  56.0377885
 125.3759378 118.5060401  59.7789866 125.8993780 118.7522698  60.5416175
 125.1571712 119.3380436  59.3593003 120.7726659 120.7764076  47.6460991
 120.4439365 119.8961455  47.4636097 121.1266030 120.7211745  48.5337380
 130.0206238 132.4118979  52.1555976 129.8731201 131.4835686  52.3363546
 130.8459732 132.4339069  51.6713051 123.8868482 121.0637046  48.0136468
 124.2264555 121.5922967  47.2915077 124.3340603 121.4017452  48.7895035
 133.6240360 133.2347537  53.2420849 134.5486907 133.0290399  53.1045300
 133.4555663 132.9863939  54.1510190 126.5811923 119.4474096  57.4639536
 126.2408744 118.6481910  57.8660216 125.8750930 119.7475807  56.8916370
 127.2328395 116.5323409  55.9166859 128.0554464 116.0583887  55.7945750
 127.4766459 117.3113893  56.4165546 125.8736630 119.5611667  46.2129761
 126.5944992 119.9392920  45.7093478 125.2501934 120.2800544  46.3164739
 130.0167752 120.2656816  47.1488093 130.2331367 121.1481454  46.8476922
 129.5361820 119.8743030  46.4193735 124.7566974 123.2242530  53.7258838
 124.6111555 123.5382833  54.6183120 124.2792177 123.8427430  53.1729737
 126.6163357 120.2145078  53.7739728 126.6024925 119.3186171  53.4372026
 127.3335785 120.2215741  54.4078014 128.4689487 120.6482418  55.8192855
 128.2107265 121.5699488  55.8177185 127.9374528 120.2512852  56.5093319
 133.4135676 133.7533205  48.5982940 133.5872554 133.1879627  47.8456793
 133.9064567 134.5534100  48.4162430 119.2312636 125.7647874  56.6646499
 118.6866104 126.5407682  56.7966774 120.1091986 126.1118678  56.5065621
 126.0200253 119.0959458  49.0427298 126.1416164 118.1676104  49.2418185
 125.7302295 119.1098144  48.1305613 128.8891443 116.7814368  52.1794018
 128.9113140 116.8453701  51.2245997 129.3059502 115.9418877  52.3734524
 139.2675067 126.5169628  50.2173240 139.7106213 125.7676953  49.8192363
 138.3901578 126.5079764  49.8346972 134.4010849 133.0699969  45.6979839
 135.0961753 133.6906662  45.9167153 134.7433999 132.2195320  45.9732217
 120.0178658 124.8917770  59.5576656 119.2760394 125.0400406  60.1441286
 119.6971402 125.1526036  58.6943405 136.3002272 130.5199675  47.2267169
 136.8253596 130.8586948  46.5016489 136.2124624 129.5846690  47.0430304
 127.9622321 134.4333748  59.3557046 128.2709447 134.1882895  60.2279746
 128.7597803 134.6380387  58.8675916 127.9842933 136.5871658  51.5862423
 127.5447923 136.0948037  52.2795279 128.7351050 136.0444626  51.3454498
 120.4635272 132.7783199  51.5887051 121.2893291 132.4786971  51.2085694
 120.1129324 132.0090821  52.0376839 125.4316805 132.1309667  53.6584724
 124.8096814 131.4680372  53.3586952 126.1021672 132.1570799  52.9758372
 118.6643877 130.6969525  52.5475984 117.8275785 130.2691700  52.3659986
 118.6367522 130.8901969  53.4846775 125.5041332 120.6091455  63.2517230
 125.5529488 121.4853578  62.8695000 126.0463846 120.0668848  62.6788874
 135.9896178 131.1532578  62.5318367 135.1991722 131.1356717  61.9922867
 135.7529532 131.6920872  63.2867404 136.1094053 128.0025045  59.8451096
 136.1592058 127.8375052  60.7866619 136.0007976 127.1352304  59.4548977
 124.9930312 130.6813590  47.1343185 125.1418432 131.3649055  46.4809858
 125.7996755 130.6618681  47.6492641 133.3997815 123.9855973  61.1610403
 134.3007678 123.8462438  60.8694400 133.4745790 124.1510428  62.1008580
 127.7340621 121.3622828  60.0063589 126.8643930 121.6556394  59.7346178
 127.9700101 121.9463273  60.7270853 137.6112250 130.4221986  60.0893117
 137.3197058 130.7851967  60.9256578 136.9984381 129.7088995  59.9106450
 138.8107932 127.9874866  52.6095688 139.6454823 128.4264670  52.7733248
 138.9467061 127.5113519  51.7903933 135.8599438 125.5454601  58.5573175
 136.3353560 125.7382247  57.7492027 134.9365003 125.6013787  58.3116559
 122.7482945 126.7078768  48.1404254 122.5028987 125.8041098  48.3384464
 122.9178859 126.7095919  47.1983732 130.4379654 117.5802444  57.5229009
 130.9561598 118.3163471  57.1975498 130.0834787 117.8866438  58.3575768
 122.0178592 122.4407126  45.6390415 121.3247837 122.5151481  44.9830451
 121.7730344 121.6767469  46.1611932 130.6892249 114.0002727  53.0429906
 130.9694002 113.3325916  53.6690332 131.4742856 114.1931823  52.5304570
 128.4925717 133.1761721  44.6054932 127.9199684 133.7951908  44.1525404
 129.0658511 133.7261083  45.1394854 134.5601107 122.4220361  56.7901481
 135.5118530 122.5218459  56.8113705 134.3904557 121.6298630  57.2999565
 132.5815486 119.5075944  56.9760882 131.9865419 119.7880957  56.2807371
 132.2965183 119.9969845  57.7477623 131.7122977 133.4598871  45.7363515
 132.6453650 133.3944433  45.9396390 131.6246190 134.2955138  45.2778047
 134.3410994 132.7764741  42.6967462 134.2624625 132.4424605  43.5903220
 135.1620660 133.2686509  42.6958934 137.0389185 125.6426481  55.9043781
 137.0065505 124.7042481  56.0903465 137.6489808 125.7210517  55.1709606
 128.8772516 124.5122534  41.9470985 129.8231620 124.3828742  42.0159403
 128.4986761 123.7737196  42.4240413 137.1883673 122.4337524  55.9502064
 136.6722722 121.6495981  55.7631993 138.0723622 122.1056241  56.1148583
 134.8494400 116.1778540  51.9097877 134.6519221 115.8693628  52.7941209
 135.4594106 116.9040179  52.0395806 142.8565735 126.7042488  55.0449818
 143.5869123 126.4427776  55.6057521 142.2472680 125.9671209  55.0851885
 140.9381032 124.8450350  55.6424269 140.2114195 124.7106315  55.0340760
 140.5228319 125.1527179  56.4480987 128.7611208 128.5640280  63.4071642
 129.6814218 128.7418879  63.6011688 128.7260791 127.6196325  63.2551341
 127.0615433 122.4372510  41.8825870 126.1546888 122.1405623  41.9588584
 127.3391414 122.1402328  41.0160156 117.9793373 123.7578873  52.3324916
 117.6596158 122.9044182  52.0399290 117.4326801 123.9727452  53.0882884
 121.7573281 126.4741314  56.0494423 121.9759291 127.4058422  56.0682457
 122.1699055 126.1149289  56.8349227 128.6777499 116.9809400  48.0370111
 127.8678227 116.6356485  48.4125357 129.3661915 116.6716944  48.6257723
 130.6068047 116.0587447  49.6594408 131.1599085 116.4782900  50.3184431
 130.8438133 115.1323195  49.7017364 126.6301146 122.0474520  65.4397172
 126.5297873 122.9968877  65.3709263 126.4122688 121.7192759  64.5673242
 125.8314217 119.2959445  42.0237849 126.6933381 119.6214344  42.2833667
 126.0164562 118.5090941  41.5110915 117.8481633 127.3781785  54.3018038
 117.1545105 126.9635738  53.7887992 118.5954624 127.4202321  53.7051457
 133.9846854 118.1687972  49.1673072 133.4045523 118.8272776  48.7851125
 133.7182787 117.3465316  48.7560490 132.4350420 117.5693029  51.3694393
 132.9350199 117.6809564  50.5608711 133.0786028 117.2654082  52.0095201
 126.4932416 125.4771659  64.2562233 126.0099498 126.2772019  64.4626123
 126.5793355 125.4879604  63.3029677 119.7618376 127.3100039  52.1784053
 119.7389064 127.4087726  51.2265936 120.0719012 128.1565190  52.5001219
 122.4205754 129.3676194  56.2930667 123.3749007 129.3360136  56.2260599
 122.2218277 128.9066818  57.1080893 123.0105136 127.9377310  58.8601465
 123.8298025 128.4321388  58.8836302 123.2841943 127.0209278  58.8319032
 132.7671732 120.3288062  48.2229420 131.8797587 120.6137713  48.0049615
 133.1825721 120.1681825  47.3756697 136.1186268 120.3534583  51.9383760
 136.8946658 120.8431036  52.2108377 135.3934402 120.7792637  52.3955629
 138.5558827 121.0662202  52.9957700 139.1503317 120.8257938  52.2851009
 138.6285410 120.3469333  53.6231237 120.7755982 134.9095813  53.3100865
 120.6410450 134.1496214  52.7438863 120.3588045 135.6336713  52.8429654
 131.9114945 130.0932737  42.3177440 132.6150796 130.2982739  42.9335096
 131.1877594 130.6609499  42.5826524 132.7412756 125.8442598  48.4379711
 132.6847957 126.3011149  47.5987343 133.2941098 125.0833283  48.2602553
 136.5517562 121.6332330  49.2629830 136.2954496 121.2328966  50.0938038
 135.9270430 122.3476124  49.1379969 140.8629899 124.3728403  51.7701121
 140.3029457 124.4421592  52.5432684 140.2573403 124.1969388  51.0500618
 123.9325108 135.8065130  53.5219308 123.8157492 136.7510563  53.4197998
 123.1117555 135.5038692  53.9105107 133.8201643 130.5315266  44.3675900
 134.6547247 130.0996464  44.1853375 133.6585986 130.3597280  45.2952795
 133.4747535 127.0347379  45.7332240 133.4196339 126.8691651  44.7920684
 132.8493590 127.7423412  45.8894429 118.2640050 122.2715444  59.5593662
 118.9098914 121.7614398  60.0480887 118.0557201 123.0084125  60.1337087
 130.7893442 129.3396291  65.0585803 131.6584602 129.5136943  64.6972437
 130.3100194 130.1590708  64.9361532 126.7843660 116.5355488  45.3117558
 126.7722330 117.4797328  45.4685829 127.6767082 116.3525634  45.0177019
 124.9579622 136.4593392  56.7375236 125.8606869 136.4917002  57.0541731
 124.7316992 135.5293843  56.7521572 126.7133224 135.2124379  53.3985315
 125.7628855 135.2126240  53.2849687 127.0165711 134.4657113  52.8821349
 130.5995780 113.1298265  49.5663495 129.8328176 112.5756752  49.7120177
 131.0106485 113.2020134  50.4277647 122.6037541 119.4183061  63.6568676
 123.4669003 119.0619866  63.8672001 122.0302952 119.0796956  64.3444080
 142.4485918 141.0484917  54.4631077 143.0864328 140.9291664  53.7594417
 142.3306761 141.9965761  54.5219029 139.2575624 141.0012345  54.3992602
 138.9194136 140.8853410  53.5113137 140.1265392 140.6003510  54.3793608
 135.1162440 142.8547822  50.3889493 134.5527305 142.7637759  49.6205781
 135.0014835 142.0347726  50.8691985 139.7395407 142.1547197  60.3578807
 139.7284048 141.7599995  59.4859311 139.9016047 141.4213270  60.9512579
 132.6626872 144.3499013  53.2273713 133.4548164 144.0089838  52.8120013
 132.9023522 144.4593988  54.1475867 134.6217626 143.6107926  46.0991092
 135.3948502 143.0636914  45.9603968 134.9743025 144.4752176  46.3105554
 136.4602668 144.9384309  59.3057991 136.1692534 145.8429940  59.1904658
 137.0959653 144.9800836  60.0202061 137.3858875 142.3161157  55.8959351
 137.9822447 142.0917180  55.1816314 137.4433847 141.5745903  56.4984799
 136.9583904 139.7700593  43.7309542 137.2109424 139.2482114  42.9693005
 136.0208463 139.6066738  43.8336226 142.0027186 138.7736371  51.5384285
 142.7890276 138.3555794  51.1874702 142.2665891 139.6782463  51.7065934
 142.1737264 144.2109221  46.2372942 141.5383097 144.2843848  46.9493847
 141.8434670 144.8002820  45.5592021 147.4035614 138.7111604  52.4417264
 148.1360785 138.1410821  52.6755093 146.6474969 138.3233205  52.8823769
 136.6780192 141.6728699  45.9333917 136.5616450 140.9973602  46.6015001
 136.7882452 141.1861072  45.1166070 139.0211733 141.1338846  49.6380606
 138.6569940 140.6069467  50.3493528 139.8778849 140.7437315  49.4647092
 144.9261034 132.4233178  56.9011872 144.5944359 133.2928589  56.6773087
 144.3306647 132.1069462  57.5805903 138.6617220 136.1628745  44.6341955
 138.8291623 137.0308982  45.0012426 138.4714389 136.3256027  43.7103244
 141.4192553 144.6245724  56.3007785 141.1193276 145.5270763  56.1923592
 141.0743613 144.3577907  57.1528938 134.8705035 141.0759521  52.3344490
 133.9455531 140.9435735  52.5422181 135.1189448 141.8553740  52.8314432
 144.8189697 137.1428264  53.9805222 143.9106575 137.0743673  53.6863983
 144.7677293 137.6200209  54.8087048 138.6406441 138.6186403  45.6188622
 138.5206066 139.0643454  46.4574102 137.9459029 138.9671721  45.0602160
 132.2313846 140.7192795  53.1688279 132.3606227 140.9727274  54.0827690
 131.5511297 141.3120503  52.8492934 138.8930563 138.5617910  61.9240120
 138.1163897 139.1211830  61.9142984 139.5321126 139.0474693  62.4454990
 146.6851344 135.3444703  55.7583096 146.0425724 135.6377236  55.1122891
 146.1806272 135.2297623  56.5636293 144.3391507 139.0907876  46.4468956
 145.2509363 139.3235263  46.2716653 143.8301154 139.6744920  45.8844034
 137.1476935 141.3703363  61.4858087 137.8891620 141.9088407  61.2092910
 136.4413921 141.9969652  61.6429639 142.6232275 143.5132504  60.0830248
 143.0315631 143.0714914  59.3384881 141.9009536 142.9385131  60.3364441
 138.9763345 138.4505111  57.4563805 139.8224540 138.8744524  57.5998454
 138.9161983 137.7938735  58.1502368 142.9461090 144.0733694  53.8382537
 142.3169952 144.2379409  53.1358605 142.5586752 144.4875304  54.6093501
 142.1262790 136.1109479  59.1144979 141.8823722 136.8651540  58.5779254
 142.4022721 136.4894827  59.9492226 144.0801253 142.6548091  57.7922244
 144.2918148 143.2979851  57.1156625 144.0331001 141.8210408  57.3244174
 141.6827482 135.2665912  54.6958817 140.8211961 135.5647166  54.9875554
 141.7089917 135.4836311  53.7639849 138.4989051 143.8108103  51.1032622
 138.9627397 144.0895806  50.3137245 138.2345850 142.9091547  50.9205713
 135.3913132 143.3579584  54.0412385 135.9614490 143.7866852  53.4029870
 135.9821244 143.0762169  54.7396571 137.4357937 139.9331255  47.9122187
 138.1381981 140.3852299  48.3796114 137.1038566 139.2915074  48.5402080
 135.8838299 138.5243012  62.2873397 135.2536960 139.2059292  62.5208794
 135.7774387 138.4126093  61.3426535 131.1783271 138.1914808  53.2139321
 130.3882325 138.4472336  52.7379431 131.6694519 139.0063145  53.3191361
 145.1947081 145.5320047  55.9644602 146.0164525 145.1300234  55.6827283
 145.1909484 145.4288281  56.9160718 133.1298017 138.5559387  50.1722798
 132.3329180 138.6678081  50.6906293 132.9023609 138.8946039  49.3063688
 138.9603684 145.0804090  58.1205312 139.0248117 145.5424497  58.9563484
 138.2514608 144.4501455  58.2487622 129.4620974 138.4445298  55.6454312
 129.7129013 139.3292308  55.9111888 129.9980523 138.2649900  54.8729404
 138.6751702 146.7472198  47.9884293 138.5397377 147.5923733  48.4169140
 139.2161515 146.9491475  47.2250226 135.1619042 132.8263777  64.6498648
 134.7685987 132.2729976  65.3246292 135.9785182 133.1374356  65.0405165
 132.1281099 144.2647636  48.5612218 132.6405620 145.0590886  48.7117782
 132.7803812 143.5673926  48.4945819 133.9375984 147.3813392  50.6434971
 134.1142613 148.3031357  50.4555955 134.7332818 147.0671811  51.0729351
 138.0787003 134.2421656  62.2418904 138.8196716 134.8428810  62.1623367
 138.3104926 133.4999294  61.6836947 133.2228341 139.4278024  60.5197134
 133.1081856 138.5263281  60.8204233 132.3672858 139.6741721  60.1681951
 140.3020178 147.3695764  62.1184635 139.8584033 146.5832143  61.8005539
 140.9637392 147.5574915  61.4528525 135.0607300 148.8991566  56.6445313
 135.6114725 148.7708629  55.8722307 134.2218776 149.1986455  56.2940206
 138.8574471 145.1642693  60.9889544 139.3902808 144.4030982  60.7588852
 138.3288552 144.8716345  61.7313699 142.0244166 130.2702759  56.5183186
 141.6808435 131.1604401  56.4422297 142.3923128 130.0804417  55.6552771
 130.0930016 142.5936290  49.3371788 130.9305238 143.0033298  49.1205496
 130.2708284 141.6535732  49.3071982 141.9894448 140.2611371  45.0255621
 141.4741072 141.0315975  45.2644009 141.7171757 139.5876507  45.6488683
 139.5741559 135.1061071  50.0840859 138.7183156 134.7167922  49.9046498
 139.9868511 135.1853032  49.2240645 141.1040706 132.6407415  54.4832419
 140.6005502 132.6037550  53.6700225 141.3971313 133.5500157  54.5429076
 137.3483592 132.7246144  53.4898601 138.2136589 132.5288953  53.1304490
 137.4161101 132.4956496  54.4167958 141.7780752 138.1338463  46.8515402
 141.4730887 138.4484612  47.7025545 142.7311194 138.2119883  46.8942735
 140.2227183 144.2928686  48.5008356 139.6948545 143.5581446  48.1881594
 139.7214686 145.0703362  48.2548325 145.2020029 142.4877706  53.6175403
 144.5443704 143.1776968  53.7055531 146.0060429 142.8774138  53.9609389
 134.9545911 134.9548352  50.8614968 135.5289663 134.7323534  50.1288161
 135.5416893 135.0237047  51.6143569 144.0125488 140.8422079  51.6679344
 144.5257370 141.4752071  52.1701054 144.6626712 140.2423275  51.3022704
 135.2815498 136.9852813  44.8810853 134.4452810 137.3227500  45.2020128
 135.1420268 136.8501793  43.9437990 137.2568579 131.8289601  49.5890037
 136.6032991 131.5138618  48.9646652 137.2149053 131.2065342  50.3149860
 140.4906319 138.3171535  53.9137685 139.5728880 138.5386482  53.7559373
 140.9066463 138.3917845  53.0549392 141.2741367 139.7162950  49.0440365
 142.0213186 140.2284348  48.7347487 141.5432956 139.3947003  49.9044759
 139.5468017 142.2121491  46.0267319 138.6379236 141.9280524  46.1239789
 139.5763101 142.6320570  45.1670626 144.7787284 145.8228081  49.7958487
 144.3249612 144.9818990  49.8523677 144.1481251 146.4589479  50.1333267
 143.7220204 136.7520067  51.0259154 142.9842961 136.2397453  51.3569397
 143.9746978 136.3120448  50.2142431 143.8231831 129.5296319  51.6200924
 144.1290708 128.6693682  51.3326839 144.5484436 130.1213939  51.4199918
 130.1156187 139.9327005  50.0082522 129.9180587 139.3396366  49.2833588
 129.5602851 139.6279215  50.7258460 138.0952911 139.8250112  52.1277115
 138.1501521 138.8723948  52.0519591 137.2844113 139.9809551  52.6118413
 136.0345271 138.4427171  49.8867494 135.2213137 138.7421342  50.2932686
 136.5304265 138.0482860  50.6041976 138.1853849 148.4384928  51.8201758
 138.1430028 148.6645775  50.8910290 139.1016548 148.2048303  51.9687559
 141.6319483 138.9068996  58.7182388 141.9868870 139.1340469  59.5776853
 142.2791614 139.2387373  58.0959643 147.3617220 142.0287432  49.4231717
 147.2235118 142.2189028  48.4952906 147.0053438 142.7906815  49.8799768
 135.5259346 136.0145527  55.5028729 136.1658725 135.8734286  54.8051692
 134.6936876 135.7280040  55.1267331 136.3019650 145.3147957  51.6163721
 137.0960248 144.8198278  51.4146296 135.5911342 144.7865821  51.2531427
 141.1214494 147.6966053  55.9676089 141.1751516 148.2656989  56.7353805
 140.2529275 147.8667938  55.6030126 132.6102413 139.4591039  47.6923474
 131.6800001 139.3975495  47.9093436 132.7059885 138.9366992  46.8960115
 132.5287962 135.9845852  50.2801715 132.7894779 136.8991185  50.1710876
 133.3505134 135.5170295  50.4298328 134.0012888 137.3983609  57.4500540
 134.6735941 137.1900971  56.8013189 133.1742674 137.2005695  57.0105772
 139.9038460 134.0245550  59.4666201 139.2566375 134.7235500  59.3730677
 140.6739475 134.4581694  59.8342449 143.3117257 144.2894402  62.5416754
 143.1602764 144.0604954  61.6246838 143.3021937 145.2465004  62.5548099
 140.0802594 141.8626315  57.5263020 141.0094654 142.0137475  57.3531988
 139.6593624 141.9510336  56.6711667 138.8790926 145.8876979  55.2961558
 138.7402011 145.5195764  56.1687496 138.0905522 146.4024619  55.1245516
 140.4296141 145.2658582  52.6850396 140.0945973 145.2259352  53.5808046
 139.9300086 144.6003298  52.2120806 134.4040385 140.6726212  58.2102977
 134.2660183 139.9406451  58.8114516 135.3145308 140.5835112  57.9287165
 137.0322685 140.3846171  57.6986657 137.7422304 139.7439364  57.6573275
 136.9891994 140.6359066  58.6212837 135.7451619 137.3711389  59.5182296
 135.2088976 136.9202128  60.1703893 135.1568328 137.5057298  58.7752761
 135.1553878 136.8300041  42.0808760 134.2783345 136.7088841  41.7171007
 135.6311631 136.0386119  41.8287648 145.0226871 145.2853109  58.8507216
 144.1353650 144.9479030  58.9733614 145.5925422 144.5536140  59.0875981
 126.6756018 141.6177200  52.1750267 127.3627058 141.3038930  51.5871282
 126.5204147 142.5218565  51.9017518 131.4790741 136.5067397  56.6035291
 131.3948929 135.8993067  55.8685701 130.6573447 136.9976415  56.6044787
 138.3417804 149.1826331  49.3271280 137.5585326 149.7248011  49.4209505
 139.0410550 149.7000311  49.7265522 141.6514455 134.9920961  51.9705486
 142.1483154 134.2390923  51.6506556 140.8801436 135.0285277  51.4048695
 149.5044212 140.6961326  53.6123777 149.4934088 141.5786041  53.2417710
 148.6361591 140.3432877  53.4178314 142.7344235 143.7492648  49.5443909
 141.8000514 143.8694110  49.3748613 142.9120904 142.8465115  49.2803919
 138.2349423 137.1338344  51.6977170 137.8647211 136.5809384  52.3858076
 138.7308516 136.5296477  51.1452170 146.1216787 139.5909967  50.0793943
 146.5877239 140.4237959  50.0054246 146.5724287 139.1254949  50.7839202
 136.0638622 147.5935839  58.7932188 136.7648081 148.2272322  58.9461583
 135.5933737 147.9350570  58.0327828 144.1893018 145.9353788  47.0780095
 144.4652862 145.8210383  47.9873969 143.3197516 145.5371273  47.0392268
 144.0933449 131.9590554  54.1184845 143.1796529 132.1894781  54.2867052
 144.5226551 132.0428998  54.9698877 143.8639908 140.1480446  56.6184739
 143.2111358 140.3956353  55.9637191 144.2420288 139.3344584  56.2847216
 139.9127481 140.8900257  63.1050776 139.2368118 140.7894386  63.7753151
 140.7355115 140.7339471  63.5686773 131.6606340 147.1272194  55.7263291
 132.2459777 146.3815881  55.8591195 131.4631178 147.4376150  56.6099955
 134.5144995 150.1623441  50.7425733 133.8455370 150.6469569  50.2589773
 134.3757865 150.4092661  51.6569112 126.2523995 139.6977794  54.4467734
 126.2908094 139.1641384  55.2404852 125.7464287 139.1712999  53.8278711
 133.6314757 134.5442334  57.9430276 133.6956083 135.4057165  57.5307674
 133.5681877 133.9316336  57.2102635 133.1067029 136.6165467  61.5903311
 133.7339068 136.2342544  62.2040835 132.2494948 136.3979669  61.9559003
 129.8832572 138.4241896  47.5221665 130.1786013 137.5152574  47.4688719
 128.9820608 138.4029635  47.2002668 133.4126819 136.4997893  53.5049214
 132.6913405 137.1133860  53.3656687 134.2020075 137.0355657  53.4265860
 136.2153133 133.8352319  59.7789866 136.7387535 134.0814616  60.5416175
 135.9965466 134.6672354  59.3593003 131.6120414 136.1055994  47.6460991
 131.2833120 135.2253373  47.4636097 131.9659784 136.0503662  48.5337380
 140.8599993 147.7410896  52.1555976 140.7124955 146.8127604  52.3363546
 141.6853486 147.7630987  51.6713051 134.7262237 136.3928963  48.0136468
 135.0658309 136.9214885  47.2915077 135.1734357 136.7309370  48.7895035
 137.4205678 134.7766014  57.4639536 137.0802498 133.9773827  57.8660216
 136.7144684 135.0767725  56.8916370 138.0722150 131.8615327  55.9166859
 138.8948219 131.3875805  55.7945750 138.3160213 132.6405810  56.4165546
 136.7130384 134.8903585  46.2129761 137.4338747 135.2684838  45.7093478
 136.0895688 135.6092462  46.3164739 140.8561507 135.5948734  47.1488093
 141.0725121 136.4773372  46.8476922 140.3755574 135.2034947  46.4193735
 135.5960728 138.5534447  53.7258838 135.4505309 138.8674750  54.6183120
 135.1185932 139.1719348  53.1729737 137.4557111 135.5436995  53.7739728
 137.4418680 134.6478088  53.4372026 138.1729539 135.5507659  54.4078014
 139.3083242 135.9774335  55.8192855 139.0501020 136.8991406  55.8177185
 138.7768282 135.5804770  56.5093319 130.0706391 141.0939792  56.6646499
 129.5259859 141.8699600  56.7966774 130.9485740 141.4410596  56.5065621
 136.8594007 134.4251375  49.0427298 136.9809918 133.4968022  49.2418185
 136.5696050 134.4390061  48.1305613 139.7285198 132.1106286  52.1794018
 139.7506894 132.1745619  51.2245997 140.1453257 131.2710795  52.3734524
 150.1068822 141.8461545  50.2173240 150.5499968 141.0968871  49.8192363
 149.2295332 141.8371682  49.8346972 130.8572412 140.2209688  59.5576656
 130.1154148 140.3692323  60.1441286 130.5365157 140.4817953  58.6943405
 131.3029026 148.1075117  51.5887051 132.1287046 147.8078888  51.2085694
 130.9523078 147.3382739  52.0376839 136.2710559 147.4601585  53.6584724
 135.6490568 146.7972290  53.3586952 136.9415426 147.4862717  52.9758372
 129.5037631 146.0261443  52.5475984 128.6669539 145.5983617  52.3659986
 129.4761277 146.2193886  53.4846775 136.3435087 135.9383373  63.2517230
 136.3923242 136.8145496  62.8695000 136.8857601 135.3960766  62.6788874
 146.9487807 143.3316962  59.8451096 146.9985812 143.1666970  60.7866619
 146.8401731 142.4644221  59.4548977 135.8324066 146.0105508  47.1343185
 135.9812186 146.6940973  46.4809858 136.6390510 145.9910598  47.6492641
 144.2391570 139.3147890  61.1610403 145.1401433 139.1754355  60.8694400
 144.3139544 139.4802345  62.1008580 138.5734375 136.6914745  60.0063589
 137.7037685 136.9848311  59.7346178 138.8093856 137.2755190  60.7270853
 146.6993193 140.8746519  58.5573175 147.1747314 141.0674165  57.7492027
 145.7758758 140.9305704  58.3116559 133.5876699 142.0370686  48.1404254
 133.3422741 141.1333016  48.3384464 133.7572614 142.0387836  47.1983732
 141.2773409 132.9094362  57.5229009 141.7955353 133.6455389  57.1975498
 140.9228542 133.2158355  58.3575768 132.8572347 137.7699043  45.6390415
 132.1641592 137.8443398  44.9830451 132.6124099 137.0059387  46.1611932
 141.5286003 129.3294645  53.0429906 141.8087757 128.6617834  53.6690332
 142.3136610 129.5223740  52.5304570 145.3994862 137.7512279  56.7901481
 146.3512284 137.8510376  56.8113705 145.2298312 136.9590547  57.2999565
 143.4209241 134.8367862  56.9760882 142.8259173 135.1172875  56.2807371
 143.1358938 135.3261763  57.7477623 147.8782939 140.9718398  55.9043781
 147.8459259 140.0334399  56.0903465 148.4883563 141.0502435  55.1709606
 139.7166270 139.8414451  41.9470985 140.6625375 139.7120659  42.0159403
 139.3380515 139.1029113  42.4240413 148.0277428 137.7629442  55.9502064
 147.5116476 136.9787898  55.7631993 148.9117376 137.4348158  56.1148583
 145.6888155 131.5070457  51.9097877 145.4912976 131.1985546  52.7941209
 146.2987860 132.2332096  52.0395806 151.7774786 140.1742268  55.6424269
 151.0507950 140.0398233  55.0340760 151.3622073 140.4819096  56.4480987
 139.6004963 143.8932197  63.4071642 140.5207972 144.0710796  63.6011688
 139.5654546 142.9488243  63.2551341 137.9009187 137.7664428  41.8825870
 136.9940643 137.4697540  41.9588584 138.1785168 137.4694246  41.0160156
 128.8187128 139.0870791  52.3324916 128.4989912 138.2336099  52.0399290
 128.2720556 139.3019369  53.0882884 132.5967035 141.8033232  56.0494423
 132.8153045 142.7350340  56.0682457 133.0092809 141.4441207  56.8349227
 139.5171253 132.3101317  48.0370111 138.7071981 131.9648402  48.4125357
 140.2055670 132.0008861  48.6257723 141.4461801 131.3879364  49.6594408
 141.9992840 131.8074818  50.3184431 141.6831888 130.4615112  49.7017364
 137.4694901 137.3766438  65.4397172 137.3691627 138.3260795  65.3709263
 137.2516443 137.0484677  64.5673242 136.6707972 134.6251363  42.0237849
 137.5327136 134.9506261  42.2833667 136.8558316 133.8382859  41.5110915
 128.6875388 142.7073703  54.3018038 127.9938859 142.2927655  53.7887992
 129.4348379 142.7494239  53.7051457 144.8240608 133.4979889  49.1673072
 144.2439277 134.1564693  48.7851125 144.5576541 132.6757234  48.7560490
 143.2744175 132.8984947  51.3694393 143.7743953 133.0101482  50.5608711
 143.9179783 132.5946000  52.0095201 137.3326171 140.8063577  64.2562233
 136.8493252 141.6063937  64.4626123 137.4187110 140.8171522  63.3029677
 130.6012130 142.6391956  52.1784053 130.5782818 142.7379644  51.2265936
 130.9112767 143.4857107  52.5001219 133.2599508 144.6968111  56.2930667
 134.2142762 144.6652054  56.2260599 133.0612032 144.2358735  57.1080893
 133.8498890 143.2669227  58.8601465 134.6691779 143.7613306  58.8836302
 134.1235698 142.3501196  58.8319032 143.6065486 135.6579980  48.2229420
 142.7191341 135.9429630  48.0049615 144.0219475 135.4973743  47.3756697
 146.9580023 135.6826501  51.9383760 147.7340413 136.1722953  52.2108377
 146.2328157 136.1084555  52.3955629 149.3952581 136.3954120  52.9957700
 149.9897072 136.1549856  52.2851009 149.4679165 135.6761251  53.6231237
 131.6149737 150.2387731  53.3100865 131.4804205 149.4788132  52.7438863
 131.1981799 150.9628631  52.8429654 143.5806510 141.1734516  48.4379711
 143.5241712 141.6303067  47.5987343 144.1334853 140.4125200  48.2602553
 147.3911316 136.9624248  49.2629830 147.1348250 136.5620883  50.0938038
 146.7664184 137.6768042  49.1379969 151.7023654 139.7020321  51.7701121
 151.1423212 139.7713510  52.5432684 151.0967157 139.5261305  51.0500618
 134.7718863 151.1357048  53.5219308 134.6551247 152.0802480  53.4197998
 133.9511309 150.8330610  53.9105107 144.3141289 142.3639297  45.7332240
 144.2590093 142.1983568  44.7920684 143.6887345 143.0715330  45.8894429
 129.1033804 137.6007361  59.5593662 129.7492668 137.0906315  60.0480887
 128.8950956 138.3376043  60.1337087 141.6287197 144.6688209  65.0585803
 142.4978356 144.8428861  64.6972437 141.1493948 145.4882626  64.9361532
 137.6237415 131.8647406  45.3117558 137.6116085 132.8089246  45.4685829
 138.5160837 131.6817551  45.0177019 135.7973377 151.7885310  56.7375236
 136.7000624 151.8208920  57.0541731 135.5710747 150.8585761  56.7521572
 137.5526979 150.5416296  53.3985315 136.6022610 150.5418158  53.2849687
 137.8559465 149.7949031  52.8821349 141.4389534 128.4590183  49.5663495
 140.6721930 127.9048669  49.7120177 141.8500239 128.5312051  50.4277647
 133.4431295 134.7474978  63.6568676 134.3062757 134.3911783  63.8672001
 132.8696706 134.4088873  64.3444080  53.0245373  -3.4726022  47.0824114
  53.0134013  -3.8673224  46.2104618  53.1866012  -4.2059949  47.6757886
  49.7452634  -0.6888910  46.0303298  49.4542500   0.2156721  45.9149964
  50.3809618  -0.6472382  46.7447368  54.7042519  -1.0027495  43.0253092
  54.4043242  -0.1002456  42.9168899  54.3593578  -1.2695311  43.8774245
  52.1780528  -7.0655309  48.6485426  51.4013862  -6.5061389  48.6388291
  52.8171091  -6.5798526  49.1700296  50.4326901  -4.2569855  48.2103393
  51.1741585  -3.7184811  47.9338217  49.7263886  -3.6303567  48.3674945
  55.9082240  -2.1140715  46.8075555  56.3165596  -2.5558304  46.0630187
  55.1859502  -2.6888087  47.0609748  52.2613310  -7.1768108  44.1809112
  53.1074505  -6.7528695  44.3243761  52.2011948  -7.8334484  44.8747675
  56.2311055  -1.5539524  40.5627844  55.6019917  -1.3893810  39.8603912
  55.8436717  -1.1397915  41.3338808  60.1100287  -0.6185086  37.9172207
  59.4251325  -0.2386185  37.3669241  60.1944136  -0.0089760  38.6504155
  55.4112756  -9.5163740  45.8390285  55.1673687  -8.7621679  45.3024561
  55.6872686  -9.1378392  46.6737532  57.3651218  -2.9725127  44.5167551
  57.5768114  -2.3293368  43.8401932  57.3180967  -3.8062811  44.0489481
  49.1688264  -7.1030207  49.0118703  48.5386925  -6.4213926  49.2454100
  49.0624352  -7.2147126  48.0671842  58.4797046  -0.0953172  42.6889908
  59.3014490  -0.4972985  42.4072590  58.4759449  -0.1984938  43.6406024
  52.2453650  -0.5469129  44.8450619  52.3098082  -0.0848722  45.6808791
  51.5364574  -1.1771764  44.9732929  66.5703039  -3.7514424  39.0374880
  65.8166748  -4.3207025  38.8818884  66.7050581  -3.7851759  39.9845515
  51.3636968 -11.3851562  48.9664211  52.1046681 -10.7844409  48.8868673
  51.5954891 -12.1273925  48.4082254  46.5078306  -6.1995195  47.2442441
  46.3931821  -7.1009938  47.5449540  45.6522824  -5.9531498  46.8927257
  53.5870144   1.7422545  48.8429941  53.1433998   0.9558924  48.5250846
  54.2487357   1.9301696  48.1773832  48.3457265   3.2718347  43.3690620
  48.8964690   3.1435410  42.5967614  47.5068741   3.5713236  43.0185513
  55.6851382   2.0225345  46.8711343  55.6669857   2.8434226  46.3791612
  56.6071302   1.8979420  47.0961484  52.1424436  -0.4630525  47.7134851
  52.6752773  -1.2242237  47.4834159  51.6138517  -0.7556874  48.4559005
  58.4869995  -3.1395512  40.3420709  57.8293669  -2.4496251  40.4300838
  59.2910394  -2.7499080  40.6854696  56.5070189   2.0331358  37.4553612
  56.7993163   2.5936416  36.7365977  57.0168810   2.3259919  38.2106771
  54.9169448  -6.7204223  45.4427694  55.2718836  -6.4932750  46.3022160
  55.5641579  -6.3885846  44.8204949  60.6736565  -1.5309260  41.1588295
  61.1073071  -1.6233971  42.0071349  61.3868145  -1.5551760  40.5208311
  54.4064459   2.0692834  42.6921395  54.4601482   2.6383770  43.4599111
  53.5379241   2.2394719  42.3275432  61.5352114  -1.4885559  43.6921180
  61.7288004  -0.5839749  43.9380455  61.4352732  -1.9478140  44.5259765
  53.1888425 -11.6027669  46.1911507  52.5416340 -10.9037719  46.0975984
  53.9589440 -11.1691525  46.5587756  56.5967223  -1.3378817  49.2662061
  56.4452729  -1.5668265  48.3492144  56.5871902  -0.3808215  49.2793406
  53.3652559  -3.7646904  44.2508327  54.2944619  -3.6135744  44.0777294
  52.9443589  -3.6762883  43.3956974  52.1640891   0.2603761  42.0206865
  52.0251977  -0.1077455  42.8932803  51.3755487   0.7751400  41.8490823
  47.6890350  -4.9547007  44.9348284  47.5510148  -5.6866768  45.5359823
  48.5995274  -5.0438107  44.6532471  50.3172651  -5.2427047  44.4231963
  51.0272269  -5.8833855  44.3818582  50.2741959  -4.9914153  45.3458144
  58.3059429   1.6940306  47.3438543  58.2471976   1.0099526  46.6769126
  58.7078948   2.4359296  46.8919169  47.3250128   8.5102220  40.1372261
  47.5646726   9.1420744  40.8151280  46.4819325   8.1590260  40.4237621
  58.3076837  -0.3420110  45.5752522  57.4203615  -0.6794188  45.6978921
  58.8775388  -1.0737079  45.8121288  51.8377990   4.3181342  42.5413765
  51.7648162   5.1236314  43.0533070  51.3955383   4.5173308  41.7161787
  62.7894177  -4.9311893  40.3369084  62.7784053  -4.0487177  39.9663017
  61.9211557  -5.2840342  40.1423621  54.2976674   4.2168176  44.6971924
  55.0104646   4.8515641  44.6247826  53.8066702   4.3132042  43.8811926
  49.3488587   1.9662620  45.5177495  50.0498047   2.5999103  45.6706889
  48.8783702   2.3077351  44.7573134  57.1489873  -5.4792773  43.3430045
  56.4961323  -5.2316865  42.6882498  57.5270253  -6.2928635  43.0092523
  54.1097047   4.5566920  37.4458216  54.2919442   3.7388576  37.9085968
  54.9330033   4.7734613  37.0083106  53.1977446  -4.7372962  49.8296082
  52.5218083  -4.8378832  50.4998458  54.0205080  -4.8933748  50.2932080
  44.9456305   1.4998975  42.4508598  45.5309742   0.7542663  42.5836502
  44.7481144   1.8102931  43.3345262  51.9400229   6.5693966  44.0653698
  52.4918537   6.7325587  44.8302784  52.2806422   7.1598404  43.3933723
  56.7911103   1.3955223  49.9202353  57.3351007   2.0085181  49.4257308
  56.2097948   1.9534802  50.4369366  55.0768616   4.5175941  41.0517381
  54.9519756   3.7165681  40.5428326  55.7347707   5.0122135  40.5631350
  57.1403525   2.3184961  42.6796931  56.1933860   2.1990312  42.6075257
  57.4886298   1.4307459  42.7623192  54.1449958   2.1137678  38.8801283
  53.9974920   1.1854385  39.0608853  54.9703451   2.1357768  38.3958358
  57.7484080   2.9366236  39.9666156  58.6730627   2.7309098  39.8290607
  57.5799383   2.6882637  40.8755497  52.0866040   4.1352447  46.0802353
  52.3953167   3.8901594  46.9525052  52.8841522   4.3399086  45.5921223
  52.1086652   6.2890357  38.3107729  51.6691643   5.7966736  39.0040586
  52.8594769   5.7463325  38.0699805  49.6285052  -9.6889846  49.9762537
  49.6773208  -8.8127723  49.5940307  50.1707566 -10.2312453  49.4034180
  60.1139898   0.8551277  49.2563674  59.3235441   0.8375416  48.7168173
  59.8773252   1.3939571  50.0112711  60.2337773  -2.2956256  46.5696403
  60.2835778  -2.4606249  47.5111925  60.1251696  -3.1628997  46.1794283
  57.5241535  -6.3125328  47.8855709  58.4251398  -6.4518863  47.5939707
  57.5989510  -6.1470874  48.8253887  51.8584340  -8.9358474  46.7308896
  50.9887650  -8.6424908  46.4591484  52.0943821  -8.3518029  47.4516159
  61.7355970   0.1240685  46.8138424  61.4440778   0.4870666  47.6501885
  61.1228101  -0.5892307  46.6351756  62.9351652  -2.3106435  39.3340994
  63.7698543  -1.8716631  39.4978555  63.0710781  -2.7867782  38.5149240
  59.9843158  -4.7526700  45.2818482  60.4597279  -4.5599054  44.4737333
  59.0608723  -4.6967514  45.0361866  58.6844827  -7.8760940  43.5146788
  59.6362250  -7.7762842  43.5359012  58.5148277  -8.6682672  44.0244872
  61.1632905  -4.6554820  42.6289087  61.1309225  -5.5938820  42.8148771
  61.7733528  -4.5770784  41.8954912  61.3127393  -7.8643777  42.6747371
  60.7966442  -8.6485320  42.4877299  62.1967342  -8.1925060  42.8393890
  66.9809454  -3.5938814  41.7695124  67.7112843  -3.8553525  42.3302827
  66.3716400  -4.3310092  41.8097192  65.0624752  -5.4530951  42.3669575
  64.3357915  -5.5874986  41.7586067  64.6472038  -5.1454122  43.1726293
  52.8854928  -1.7341021  50.1316948  53.8057937  -1.5562422  50.3256995
  52.8504511  -2.6784976  49.9796648  50.7544866  -8.2506781  52.1642478
  50.6541593  -7.3012424  52.0954570  50.5366408  -8.5788542  51.2918549
  50.6176136  -4.8209642  50.9807540  50.1343218  -4.0209282  51.1871429
  50.7037075  -4.8101697  50.0274984  46.5449473  -0.9305107  43.0175974
  47.4992727  -0.9621165  42.9505905  46.3461997  -1.3914484  43.8326200
  47.1348856  -2.3603991  45.5846772  47.9541745  -1.8659913  45.6081609
  47.4085663  -3.2772023  45.5564339  48.0568828   5.5083829  40.2464614
  47.9401212   6.4529262  40.1443305  47.2361274   5.2057391  40.6350414
  54.9137162  -0.9585010  51.7831109  55.7828322  -0.7844358  51.4217744
  54.4343913  -0.1390593  51.6606839  49.0823342   6.1612091  43.4620543
  49.9850589   6.1935701  43.7787038  48.8560712   5.2312542  43.4766879
  50.8376944   4.9143078  40.1230621  49.8872575   4.9144939  40.0094994
  51.1409430   4.1675812  39.6066656  66.5729638  10.7503616  41.1876384
  67.2108048  10.6310363  40.4839724  66.4550481  11.6984460  41.2464336
  63.3819344  10.7031044  41.1237909  63.0437856  10.5872109  40.2358443
  64.2509112  10.3022209  41.1038915  59.2406160  12.5566520  37.1134800
  58.6771025  12.4656457  36.3451087  59.1258555  11.7366425  37.5937292
  63.8639127  11.8565896  47.0824114  63.8527768  11.4618694  46.2104618
  64.0259766  11.1231968  47.6757886  56.7870592  14.0517712  39.9519020
  57.5791884  13.7108537  39.5365319  57.0267242  14.1612687  40.8721173
  64.8205718  16.2237488  32.4249264  64.1693698  16.8091569  32.0383278
  65.6150081  16.7543683  32.4844302  58.7461346  13.3126625  32.8236399
  59.5192222  12.7655612  32.6849275  59.0986744  14.1770875  33.0350860
  60.5846388  14.6403008  46.0303298  60.2936254  15.5448638  45.9149964
  61.2203372  14.6819535  46.7447368  61.5102595  12.0179856  42.6204658
  62.1066167  11.7935879  41.9061621  61.5677567  11.2764602  43.2230106
  66.1270906   8.4755070  38.2629592  66.9133995   8.0574493  37.9120009
  66.3909611   9.3801162  38.4311240  66.2980984  13.9127920  32.9618249
  65.6626817  13.9862547  33.6739153  65.9678390  14.5021519  32.2837328
  71.5279333   8.4130303  39.1662570  72.2604505   7.8429520  39.4000400
  70.7718689   8.0251903  39.6069076  60.8023912  11.3747397  32.6579224
  60.6860170  10.6992301  33.3260308  60.9126172  10.8879771  31.8411377
  63.1455453  10.8357545  36.3625913  62.7813660  10.3088165  37.0738834
  64.0022569  10.4456014  36.1892398  69.0504754   2.1251877  43.6257179
  68.7188078   2.9947288  43.4018394  68.4550367   1.8088161  44.3051209
  65.5436273  14.3264423  43.0253092  65.2436996  15.2289462  42.9168899
  65.1987333  14.0596606  43.8774245  58.9948755  10.7778220  39.0589796
  58.0699251  10.6454434  39.2667488  59.2433168  11.5572439  39.5559739
  68.9433417   6.8446963  40.7050529  68.0350294   6.7762372  40.4109290
  68.8921013   7.3218908  41.5332355  62.7650161   8.3205102  32.3433928
  62.6449786   8.7662152  33.1819408  62.0702749   8.6690419  31.7847466
  56.3557566  10.4211494  39.8933585  56.4849947  10.6745972  40.8072997
  55.6755017  11.0139202  39.5738240  60.5257053  21.0908743  35.9924059
  60.4481083  22.0416569  36.0712540  59.9218697  20.7454616  36.6498986
  63.0174283   8.2636609  48.6485426  62.2407617   8.8230529  48.6388291
  63.6564846   8.7493392  49.1700296  70.8095063   5.0463402  42.4828403
  70.1669444   5.3395935  41.8368198  70.3049992   4.9316322  43.2881600
  68.4635227   8.7926575  33.1714262  69.3753083   9.0253962  32.9961960
  67.9544874   9.3763619  32.6089341  61.2720655  11.0722062  48.2103393
  62.0135339  11.6107106  47.9338217  60.5657641  11.6988351  48.3674945
  66.7475995  13.2151203  46.8075555  67.1559351  12.7733613  46.0630187
  66.0253256  12.6403830  47.0609748  63.1007065   8.1523809  44.1809112
  63.9468260   8.5763223  44.3243761  63.0405702   7.4957434  44.8747675
  67.0704809  13.7752393  40.5627844  66.4413672  13.9398107  39.8603912
  66.6830471  14.1894003  41.3338808  70.9494041  14.7106831  37.9172207
  70.2645079  15.0905733  37.3669241  71.0337891  15.3202158  38.6504155
  66.2506510   5.8128178  45.8390285  66.0067442   6.5670238  45.3024561
  66.5266441   6.1913525  46.6737532  68.2044973  12.3566790  44.5167551
  68.4161868  12.9998550  43.8401932  68.1574721  11.5229107  44.0489481
  65.8071202   4.9684611  41.4204123  64.9455681   5.2665864  41.7120861
  65.8333636   5.1855010  40.4885156  62.6232771  13.5126801  37.8277929
  63.0871117  13.7914504  37.0382551  62.3589569  12.6110246  37.6451020
  59.5156852  13.0598283  40.7657692  60.0858209  13.4885551  40.1275177
  60.1064964  12.7780868  41.4641878  61.5601657   9.6349954  34.6367494
  62.2625701  10.0870997  35.1041420  61.2282286   8.9933773  35.2647387
  60.0082019   8.2261710  49.0118703  59.3780679   8.9077991  49.2454100
  59.9018107   8.1144792  48.0671842  55.3026991   7.8933506  39.9384628
  54.5126045   8.1491035  39.4624738  55.7938239   8.7081844  40.0436668
  69.3190801  15.2338746  42.6889908  70.1408245  14.8318933  42.4072590
  69.3153204  15.1306980  43.6406024  57.2541737   8.2578086  36.8968104
  56.4572900   8.3696780  37.4151600  57.0267329   8.5964738  36.0308995
  63.0847404  14.7822789  44.8450619  63.1491837  15.2443196  45.6808791
  62.3758328  14.1520154  44.9732929  53.5864694   8.1463997  42.3699618
  53.8372733   9.0311007  42.6357194  54.1224243   7.9668598  41.5974710
  77.4096794  11.5777494  39.0374880  76.6560502  11.0084892  38.8818884
  77.5444335  11.5440159  39.9845515  62.7995422  16.4490896  34.7129599
  62.6641097  17.2942432  35.1414447  63.3405234  16.6510174  33.9495533
  59.2862762   2.5282476  51.3743954  58.8929707   1.9748675  52.0491599
  60.1028902   2.8393055  51.7650472  56.2524819  13.9666334  35.2857524
  56.7649340  14.7609585  35.4363089  56.9047532  13.2692625  35.2191126
  58.0619704  17.0832091  37.3680277  58.2386332  18.0050055  37.1801261
  58.8576538  16.7690510  37.7974657  62.2030723   3.9440355  48.9664211
  62.9440436   4.5447508  48.8868673  62.4348645   3.2017993  48.4082254
  57.3472061   9.1296723  47.2442441  57.2325576   8.2281980  47.5449540
  56.4916578   9.3760419  46.8927257  64.4263898  17.0714463  48.8429941
  63.9827752  16.2850841  48.5250846  65.0881112  17.2593613  48.1773832
  59.1851019  18.6010265  43.3690620  59.7358445  18.4727328  42.5967614
  58.3462495  18.9005154  43.0185513  66.5245136  17.3517263  46.8711343
  66.5063612  18.1726144  46.3791612  67.4465056  17.2271338  47.0961484
  62.9818191  14.8661392  47.7134851  63.5146527  14.1049681  47.4834159
  62.4532272  14.5735044  48.4559005  66.1487886  -0.0278542  43.2428493
  65.8052155   0.8623100  43.1667603  66.5166848  -0.2176884  42.3798078
  54.2173736  12.2954989  36.0617095  55.0548958  12.7051997  35.8450803
  54.3952004  11.3554431  36.0317289  66.1138168   9.9630069  31.7500928
  65.5984792  10.7334674  31.9889315  65.8415477   9.2895206  32.3733989
  63.6985279   4.8079770  36.8086166  62.8426876   4.4186621  36.6291805
  64.1112231   4.8871731  35.9485952  65.2284426   2.3426113  41.2077726
  64.7249221   2.3056249  40.3945531  65.5215033   3.2518856  41.2674383
  61.4727312   2.4264843  40.2143908  62.3380309   2.2307652  39.8549797
  61.5404821   2.1975195  41.1413264  71.0872442  12.7162424  33.6854101
  70.3101885  12.3773584  33.2409263  71.7663923  12.7215047  33.0109066
  65.9024471   7.8357162  33.5760709  65.5974607   8.1503311  34.4270852
  66.8554914   7.9138581  33.6188042  64.3470903  13.9947385  35.2253663
  63.8192265  13.2600144  34.9126900  63.8458406  14.7722061  34.9793631
  69.3263749  12.1896405  40.3420709  68.6687424  12.8795667  40.4300838
  70.1304148  12.5792837  40.6854696  59.0789631   4.6567051  37.5860274
  59.6533383   4.4342233  36.8533467  59.6660613   4.7255746  38.3388876
  68.1369208  10.5440778  38.3924651  68.6501090  11.1770770  38.8946361
  68.7870432   9.9441974  38.0268011  61.3812299   1.5308300  36.3135344
  60.7276711   1.2157317  35.6891959  61.3392773   0.9084040  37.0395167
  65.3991582  20.5225102  31.1485322  64.7253281  20.8256799  31.7570280
  65.7857404  21.3254183  30.7990779  64.6150039   8.0190234  40.6382991
  63.6972600   8.2405181  40.4804680  65.0310183   8.0936544  39.7794699
  65.3985087   9.4181649  35.7685672  66.1456906   9.9303046  35.4592794
  65.6676676   9.0965702  36.6290065  63.6711737  11.9140190  32.7512626
  62.7622956  11.6299223  32.8485096  63.7006821  12.3339269  31.8915933
  68.9031004  15.5246779  36.5203794  68.4493331  14.6837689  36.5768984
  68.2724971  16.1608178  36.8578574  67.8463924   6.4538765  37.7504461
  67.1086681   5.9416152  38.0814704  68.0990697   6.0139147  36.9387738
  67.3463944  17.3623276  37.4553612  67.6386918  17.9228333  36.7365977
  67.8562564  17.6551837  38.2106771  67.9475551  -0.7684983  38.3446230
  68.2534428  -1.6287619  38.0572145  68.6728156  -0.1767362  38.1445224
  54.2399907   9.6345704  36.7327828  54.0424307   9.0415065  36.0078895
  53.6846571   9.3297914  37.4503767  62.2196631   9.5268811  38.8522421
  62.2745241   8.5742647  38.7764898  61.4087833   9.6828250  39.3363720
  63.3687825  13.4548934  30.0900705  62.9307255  12.7384793  29.6306342
  64.1098266  13.6825048  29.5285796  60.1588991   8.1445870  36.6112800
  59.3456856   8.4440041  37.0177992  60.6547985   7.7501559  37.3287283
  62.3097569  18.1403627  38.5447065  62.2673748  18.3664474  37.6155597
  63.2260268  17.9067002  38.6932866  65.7563203   8.6087695  45.4427694
  66.1112590   8.8359168  46.3022160  66.4035334   8.9406072  44.8204949
  71.4860939  11.7306131  36.1477023  71.3478838  11.9207727  35.2198212
  71.1297158  12.4925513  36.6045074  59.6503066   5.7164226  42.2274035
  60.2902445   5.5752985  41.5296999  58.8180596   5.4298739  41.8512637
  71.5130319  13.7982658  41.1588295  71.9466826  13.7057947  42.0071349
  72.2261900  13.7740158  40.5208311  60.4263369  15.0166656  38.3409028
  61.2203968  14.5216976  38.1391603  59.7155062  14.4884519  37.9776733
  65.2458214  17.3984752  42.6921395  65.2995236  17.9675688  43.4599111
  64.3772995  17.5686637  42.3275432  56.7346133   9.1609738  34.4168780
  55.8043721   9.0994193  34.6338742  56.8303605   8.6385691  33.6205422
  56.6531682   5.6864551  37.0047022  56.9138499   6.6009884  36.8956182
  57.4748854   5.2188993  37.1543635  58.1256607   7.1002308  44.1745847
  58.7979661   6.8919670  43.5258495  57.2986394   6.9024394  43.7351079
  72.3745869  13.8406358  43.6921180  72.5681759  14.7452169  43.9380455
  72.2746487  13.3813777  44.5259765  64.0282179   3.7264249  46.1911507
  63.3810094   4.4254199  46.0975984  64.7983195   4.1600393  46.5587756
  67.4360977  13.9913101  49.2662061  67.2846484  13.7623653  48.3492144
  67.4265657  14.9483702  49.2793406  64.2046314  11.5645014  44.2508327
  65.1338374  11.7156173  44.0777294  63.7837344  11.6529035  43.3956974
  63.0034645  15.5895678  42.0206865  62.8645731  15.2214463  42.8932803
  62.2149242  16.1043318  41.8490823  63.5982797  20.6904775  33.3632401
  63.7734553  20.2192818  34.1778024  62.9115585  21.3170541  33.5913662
  64.5539861  14.9677281  39.4095703  64.2189693  14.9278051  40.3053352
  64.0543806  14.3021997  38.9366113  58.5284105  10.3744911  44.9348284
  58.3903903   9.6425150  45.5359823  59.4389028  10.2853811  44.6532471
  67.4899052  12.3133315  29.6832762  66.8728223  11.5880143  29.5865815
  67.0215541  13.0742676  29.3399836  61.1566405  10.0864870  44.4231963
  61.8666024   9.4458062  44.3818582  61.1135713  10.3377765  45.3458144
  69.1453184  17.0232224  47.3438543  69.0865730  16.3391444  46.6769126
  69.5472702  17.7651214  46.8919169  59.8695339   7.0730088  46.2427603
  59.3332696   6.6220827  46.8949199  59.2812048   7.2075997  45.4998067
  58.1643883  23.8394137  40.1372261  58.4040481  24.4712662  40.8151280
  57.3213079  23.4882177  40.4237621  69.1470591  14.9871808  45.5752522
  68.2597370  14.6497729  45.6978921  69.7169142  14.2554839  45.8121288
  50.7999738  11.3195899  38.8995574  51.4870778  11.0057629  38.3116589
  50.6447867  12.2237264  38.6262825  55.6034460   6.2086096  43.3280597
  55.5192649   5.6011765  42.5931007  54.7817167   6.6995114  43.3290094
  62.6771745  19.6473260  42.5413765  62.6041916  20.4528231  43.0533070
  62.2349138  19.8465226  41.7161787  62.4661524  18.8845030  36.0516587
  61.6829046  19.4266710  36.1454812  63.1654269  19.4019010  36.4510828
  65.7758174   4.6939659  38.6950792  66.2726874   3.9409622  38.3751863
  65.0045156   4.7303976  38.1294002  73.6287932  10.3980025  40.3369084
  73.6177808  11.2804740  39.9663017  72.7605311  10.0451576  40.1423621
  65.1370428  19.5460094  44.6971924  65.8498400  20.1807559  44.6247826
  64.6460457  19.6423960  43.8811926  66.8587955  13.4511347  36.2689216
  65.9244234  13.5712809  36.0993920  67.0364623  12.5483813  36.0049226
  62.3593143   6.8357042  38.4222477  61.9890931   6.2828083  39.1103383
  62.8552236   6.2315176  37.8697477  70.2460506   9.2928666  36.8039250
  70.7120959  10.1256657  36.7299553  70.6968007   8.8273647  37.5084508
  60.1882342  17.2954537  45.5177495  60.8891801  17.9291020  45.6706889
  59.7177457  17.6369269  44.7573134  68.3136737  15.6372487  33.8025402
  68.5896581  15.5229082  34.7119276  67.4441236  15.2389972  33.7637575
  68.2177169   1.6609253  40.8430151  67.3040249   1.8913480  41.0112358
  68.6470271   1.7447697  41.6944184  67.9883628   9.8499145  43.3430045
  67.3355078  10.0975052  42.6882498  68.3664008   9.0363283  43.0092523
  64.9490801  19.8858838  37.4458216  65.1313196  19.0680494  37.9085968
  65.7723788  20.1026530  37.0083106  65.2832967  18.8127023  34.7073264
  65.8120733  18.3019478  34.0943426  65.5461187  18.4969553  35.5718797
  64.0371201  10.5918956  49.8296082  63.3611838  10.4913085  50.4998458
  64.8598835  10.4358170  50.2932080  55.7850060  16.8290892  42.4508598
  56.3703497  16.0834580  42.5836502  55.5874898  17.1394849  43.3345262
  58.6388715  19.8642140  37.4671040  57.9699090  20.3488267  36.9835080
  58.5001585  20.1111360  38.3814419  50.3767714   9.3996493  41.1713041
  50.4151814   8.8660083  41.9650159  49.8708007   8.8731698  40.5524018
  62.7793984  21.8985883  44.0653698  63.3312292  22.0617505  44.8302784
  63.1200177  22.4890321  43.3933723  57.7558477   4.2461033  44.6675583
  57.8199803   5.1075864  44.2552981  57.6925597   3.6335035  43.9347942
  57.2310749   6.3184166  48.3148617  57.8582788   5.9361243  48.9286142
  56.3738668   6.0998368  48.6804310  67.6304858  16.7247141  49.9202353
  68.1744762  17.3377099  49.4257308  67.0491703  17.2826719  50.4369366
  65.9162371  19.8467859  41.0517381  65.7913510  19.0457599  40.5428326
  66.5741462  20.3414052  40.5631350  57.5370539   6.2016591  40.2294521
  56.8157125   6.8152559  40.0901994  58.3263795   6.7374356  40.1511167
  67.9797279  17.6476879  42.6796931  67.0327615  17.5282230  42.6075257
  68.3280052  16.7599377  42.7623192  60.3396853   3.5371018  46.5035173
  60.8631254   3.7833314  47.2661482  60.1209186   4.3691053  46.0838310
  64.9843712  17.4429595  38.8801283  64.8368675  16.5146303  39.0608853
  65.8097206  17.4649686  38.3958358  58.8505957   6.0947662  34.7381775
  59.1902029   6.6233584  34.0160383  59.2978077   6.4328068  35.5140342
  68.5877834  18.2658154  39.9666156  69.5124382  18.0601015  39.8290607
  68.4193138  18.0174555  40.8755497  61.5449398   4.4784713  44.1884843
  61.2046218   3.6792526  44.5905523  60.8388404   4.7786424  43.6161676
  62.1965869   1.5634025  42.6412166  63.0191939   1.0894504  42.5191056
  62.4403933   2.3424509  43.1410852  64.9805227   5.2967433  33.8733400
  65.1968841   6.1792071  33.5722228  64.4999294   4.9053646  33.1439042
  59.7204448   8.2553146  40.4504145  59.5749029   8.5693449  41.3428426
  59.2429652   8.8738046  39.8975043  61.5800831   5.2455694  40.4985034
  61.5662400   4.3496787  40.1617332  62.2973259   5.2526358  41.1323320
  63.4326962   5.6793034  42.5438162  63.1744740   6.6010105  42.5422492
  62.9012002   5.2823469  43.2338626  68.3773151  18.7843821  35.3228247
  68.5510028  18.2190244  34.5702099  68.8702042  19.5844716  35.1407737
  54.1950110  10.7958490  43.3891806  53.6503578  11.5718298  43.5212080
  55.0729460  11.1429295  43.2310927  60.9837727   4.1270074  35.7672604
  61.1053638   3.1986720  35.9663492  60.6939769   4.1408760  34.8550920
  63.8528917   1.8124985  38.9039324  63.8750614   1.8764318  37.9491304
  64.2696976   0.9729493  39.0979830  74.2312542  11.5480244  36.9418547
  74.6743688  10.7987570  36.5437670  73.3539052  11.5390381  36.5592279
  69.3648323  18.1010586  32.4225145  70.0599228  18.7217278  32.6412460
  69.7071473  17.2505937  32.6977523  54.9816132   9.9228387  46.2821963
  54.2397868  10.0711022  46.8686593  54.6608876  10.1836652  45.4188712
  71.2639746  15.5510291  33.9512476  71.7891070  15.8897564  33.2261796
  71.1762099  14.6157307  33.7675611  62.9259795  19.4644365  46.0802353
  63.2346921  19.2193512  46.9525052  63.7235277  19.6691003  45.5921223
  62.9480407  21.6182275  38.3107729  62.5085397  21.1258653  39.0040586
  63.6988524  21.0755242  38.0699805  55.4272746  17.8093815  38.3132357
  56.2530766  17.5097587  37.9331001  55.0766798  17.0401438  38.7622146
  60.3954279  17.1620284  40.3830031  59.7734288  16.4990989  40.0832259
  61.0659146  17.1881416  39.7003679  53.6281351  15.7280142  39.2721291
  52.7913259  15.3002316  39.0905292  53.6004996  15.9212585  40.2092082
  60.4678807   5.6402072  49.9762537  60.5166962   6.5164194  49.5940307
  61.0101321   5.0979465  49.4034180  70.9533652  16.1843195  49.2563674
  70.1629196  16.1667334  48.7168173  70.7167007  16.7231489  50.0112711
  71.0731527  13.0335661  46.5696403  71.1229532  12.8685669  47.5111925
  70.9645451  12.1662920  46.1794283  59.9567786  15.7124207  33.8588491
  60.1055906  16.3959671  33.2055164  60.7634229  15.6929297  34.3737947
  68.3635290   9.0166589  47.8855709  69.2645152   8.8773054  47.5939707
  68.4383264   9.1821044  48.8253887  62.6978095   6.3933444  46.7308896
  61.8281404   6.6867010  46.4591484  62.9337575   6.9773889  47.4516159
  72.5749724  15.4532603  46.8138424  72.2834532  15.8162583  47.6501885
  71.9621855  14.7399611  46.6351756  73.7745406  13.0185483  39.3340994
  74.6092298  13.4575287  39.4978555  73.9104535  12.5424136  38.5149240
  70.8236912  10.5765217  45.2818482  71.2991034  10.7692864  44.4737333
  69.9002478  10.6324403  45.0361866  57.7120419  11.7389385  34.8649560
  57.4666461  10.8351715  35.0629771  57.8816333  11.7406535  33.9229038
  65.4017129   2.6113061  44.2474316  65.9199073   3.3474088  43.9220805
  65.0472262   2.9177054  45.0821075  65.6529723  -0.9686656  39.7675213
  65.9331477  -1.6363467  40.3935639  66.4380330  -0.7757561  39.2549876
  63.4563191  18.2072337  31.3300239  62.8837159  18.8262525  30.8770711
  64.0295985  18.7571699  31.8640161  69.5238581   7.4530978  43.5146788
  70.4756004   7.5529075  43.5359012  69.3542032   6.6609246  44.0244872
  67.5452961   4.5386561  43.7006189  66.9502893   4.8191573  43.0052677
  67.2602657   5.0280462  44.4722930  66.6760451  18.4909488  32.4608821
  67.6091124  18.4255049  32.6641697  66.5883664  19.3265754  32.0023354
  69.3048468  17.8075358  29.4212769  69.2262099  17.4735222  30.3148527
  70.1258135  18.2997126  29.4204241  72.0026659  10.6737097  42.6289087
  71.9702979   9.7353098  42.8148771  72.6127283  10.7521134  41.8954912
  72.1521148   7.4648141  42.6747371  71.6360196   6.6806597  42.4877299
  73.0361096   7.1366857  42.8393890  69.8131875   1.2089156  38.6343183
  69.6156696   0.9004244  39.5186515  70.4231580   1.9350795  38.7641113
  77.8203209  11.7353104  41.7695124  78.5506597  11.4738392  42.3302827
  77.2110154  10.9981826  41.8097192  75.9018506   9.8760967  42.3669575
  75.1751670   9.7416932  41.7586067  75.4865793  10.1837795  43.1726293
  63.7248683  13.5950896  50.1316948  64.6451692  13.7729495  50.3256995
  63.6898266  12.6506942  49.9796648  52.9430848   8.7889490  39.0570223
  52.6233632   7.9354798  38.7644597  52.3964276   9.0038068  39.8128190
  56.7210755  11.5051931  42.7739730  56.9396765  12.4369039  42.7927763
  57.1336529  11.1459905  43.5594533  63.6414973   2.0120016  34.7615418
  62.8315701   1.6667101  35.1370664  64.3299390   1.7027560  35.3503029
  65.5705521   1.0898063  36.3839715  66.1236560   1.5093517  37.0429738
  65.8075607   0.1633811  36.4262671  61.5938620   7.0785137  52.1642478
  61.4935347   8.0279494  52.0954570  61.3760162   6.7503376  51.2918549
  52.8119108  12.4092401  41.0263345  52.1182579  11.9946354  40.5133299
  53.5592099  12.4512938  40.4296764  68.9484328   3.1998588  35.8918379
  68.3682997   3.8583392  35.5096431  68.6820261   2.3775933  35.4805796
  67.3987895   2.6003646  38.0939699  67.8987673   2.7120181  37.2854018
  68.0423503   2.2964699  38.7340508  61.4569890  10.5082276  50.9807540
  60.9736972  11.3082636  51.1871429  61.5430829  10.5190220  50.0274984
  54.7255850  12.3410655  38.9029359  54.7026538  12.4398343  37.9511243
  55.0356487  13.1875806  39.2246526  57.3843228  14.3986810  43.0175974
  58.3386481  14.3670753  42.9505905  57.1855751  13.9377434  43.8326200
  57.9742610  12.9687926  45.5846772  58.7935499  13.4632005  45.6081609
  58.2479418  12.0519894  45.5564339  67.7309206   5.3598679  34.9474727
  66.8435061   5.6448329  34.7294922  68.1463195   5.1992442  34.1002004
  71.0823742   5.3845200  38.6629066  71.8584132   5.8741652  38.9353683
  70.3571877   5.8103254  39.1200936  73.5196301   6.0972819  39.7203007
  74.1140792   5.8568555  39.0096315  73.5922885   5.3779949  40.3476543
  55.7393457  19.9406430  40.0346172  55.6047925  19.1806831  39.4684170
  55.3225519  20.6647330  39.5674961  66.8752420  15.1243353  29.0422747
  67.5788270  15.3293356  29.6580403  66.1515068  15.6920115  29.3071831
  67.7050230  10.8753215  35.1625017  67.6485431  11.3321766  34.3232650
  68.2578572  10.1143899  34.9847860  71.5155036   6.6642946  35.9875137
  71.2591970   6.2639582  36.8183344  70.8907904   7.3786740  35.8625276
  75.8267374   9.4039020  38.4946428  75.2666932   9.4732209  39.2677990
  75.2210877   9.2280004  37.7745924  58.8962583  20.8375747  40.2464614
  58.7794967  21.7821179  40.1443305  58.0755029  20.5349308  40.6350414
  68.7839117  15.5625883  31.0921207  69.6184721  15.1307081  30.9098682
  68.6223460  15.3907896  32.0198102  68.4385009  12.0657996  32.4577546
  68.3833813  11.9002267  31.5165991  67.8131065  12.7734029  32.6139736
  53.2277524   7.3026060  46.2838969  53.8736388   6.7925014  46.7726194
  53.0194675   8.0394742  46.8582394  65.7530916  14.3706908  51.7831109
  66.6222076  14.5447560  51.4217744  65.2737668  15.1901325  51.6606839
  59.9217097  21.4904009  43.4620543  60.8244343  21.5227619  43.7787038
  59.6954467  20.5604460  43.4766879  61.6770699  20.2434995  40.1230621
  60.7266330  20.2436857  40.0094994  61.9803185  19.4967730  39.6066656
  65.5633254  -1.8391119  36.2908802  64.7965650  -2.3932632  36.4365484
  65.9743959  -1.7669250  37.1522953  57.5675015   4.4493677  50.3813983
  58.4306477   4.0930482  50.5917307  56.9940426   4.1107572  51.0689387
  77.4123392  26.0795534  41.1876384  78.0501802  25.9602281  40.4839724
  77.2944235  27.0276378  41.2464336  74.2213098  26.0322962  41.1237909
  73.8831610  25.9164026  40.2358443  75.0902867  25.6314127  41.1038915
  70.0799914  27.8858438  37.1134800  69.5164779  27.7948375  36.3451087
  69.9652309  27.0658343  37.5937292  74.7032881  27.1857813  47.0824114
  74.6921522  26.7910612  46.2104618  74.8653521  26.4523886  47.6757886
  67.6264346  29.3809630  39.9519020  68.4185638  29.0400454  39.5365319
  67.8660996  29.4904605  40.8721173  75.6599473  31.5529406  32.4249264
  75.0087453  32.1383486  32.0383278  76.4543836  32.0835601  32.4844302
  69.5855100  28.6418543  32.8236399  70.3585976  28.0947530  32.6849275
  69.9380499  29.5062792  33.0350860  71.4240143  29.9694925  46.0303298
  71.1330009  30.8740556  45.9149964  72.0597127  30.0111453  46.7447368
  72.3496349  27.3471774  42.6204658  72.9459922  27.1227796  41.9061621
  72.4071321  26.6056519  43.2230106  71.9221378  24.8011209  30.4554849
  72.1746899  24.2792730  29.6938312  70.9845937  24.6377355  30.5581532
  76.9664661  23.8046987  38.2629592  77.7527750  23.3866411  37.9120009
  77.2303365  24.7093080  38.4311240  77.1374738  29.2419838  32.9618249
  76.5020571  29.3154464  33.6739153  76.8072144  29.8313437  32.2837328
  82.3673088  23.7422221  39.1662570  83.0998260  23.1721437  39.4000400
  81.6112444  23.3543821  39.6069076  71.6417667  26.7039315  32.6579224
  71.5253925  26.0284218  33.3260308  71.7519927  26.2171689  31.8411377
  73.9849208  26.1649462  36.3625913  73.6207415  25.6380083  37.0738834
  74.8416323  25.7747931  36.1892398  79.8898508  17.4543795  43.6257179
  79.5581833  18.3239206  43.4018394  79.2944122  17.1380079  44.3051209
  73.6254695  21.1939362  31.3587261  73.7929097  22.0619598  31.7257732
  73.4351864  21.3566644  30.4348551  76.3830028  29.6556341  43.0253092
  76.0830751  30.5581380  42.9168899  76.0381087  29.3888524  43.8774245
  69.8342509  26.1070138  39.0589796  68.9093006  25.9746352  39.2667488
  70.0826922  26.8864357  39.5559739  79.7827172  22.1738881  40.7050529
  78.8744049  22.1054289  40.4109290  79.7314767  22.6510826  41.5332355
  73.6043915  23.6497019  32.3433928  73.4843541  24.0954070  33.1819408
  72.9096504  23.9982337  31.7847466  67.1951320  25.7503411  39.8933585
  67.3243701  26.0037890  40.8072997  66.5148772  26.3431119  39.5738240
  71.3650808  36.4200661  35.9924059  71.2874837  37.3708486  36.0712540
  70.7612451  36.0746534  36.6498986  73.8568037  23.5928527  48.6485426
  73.0801371  24.1522447  48.6388291  74.4958600  24.0785310  49.1700296
  81.6488818  20.3755319  42.4828403  81.0063198  20.6687853  41.8368198
  81.1443746  20.2608240  43.2881600  79.3028982  24.1218493  33.1714262
  80.2146838  24.3545879  32.9961960  78.7938629  24.7055537  32.6089341
  72.1114410  26.4013980  48.2103393  72.8529094  26.9399024  47.9338217
  71.4051395  27.0280269  48.3674945  77.5869749  28.5443120  46.8075555
  77.9953105  28.1025531  46.0630187  76.8647011  27.9695748  47.0609748
  73.9400819  23.4815727  44.1809112  74.7862014  23.9055141  44.3243761
  73.8799457  22.8249351  44.8747675  77.9098564  29.1044311  40.5627844
  77.2807426  29.2690025  39.8603912  77.5224226  29.5185921  41.3338808
  81.7887796  30.0398749  37.9172207  81.1038834  30.4197650  37.3669241
  81.8731645  30.6494076  38.6504155  77.0900265  21.1420096  45.8390285
  76.8461196  21.8962156  45.3024561  77.3660195  21.5205443  46.6737532
  79.0438727  27.6858708  44.5167551  79.2555623  28.3290468  43.8401932
  78.9968476  26.8521024  44.0489481  76.6464956  20.2976529  41.4204123
  75.7849435  20.5957782  41.7120861  76.6727391  20.5146927  40.4885156
  73.4626526  28.8418719  37.8277929  73.9264871  29.1206422  37.0382551
  73.1983324  27.9402164  37.6451020  70.3550607  28.3890201  40.7657692
  70.9251964  28.8177469  40.1275177  70.9458719  28.1072785  41.4641878
  72.3995412  24.9641871  34.6367494  73.1019455  25.4162915  35.1041420
  72.0676040  24.3225690  35.2647387  70.8475773  23.5553628  49.0118703
  70.2174434  24.2369909  49.2454100  70.7411861  23.4436710  48.0671842
  66.1420746  23.2225424  39.9384628  65.3519800  23.4782953  39.4624738
  66.6331993  24.0373762  40.0436668  80.1584555  30.5630663  42.6889908
  80.9801999  30.1610851  42.4072590  80.1546958  30.4598897  43.6406024
  68.0935491  23.5870003  36.8968104  67.2966654  23.6988698  37.4151600
  67.8661083  23.9256656  36.0308995  73.9241159  30.1114707  44.8450619
  73.9885591  30.5735114  45.6808791  73.2152083  29.4812072  44.9732929
  64.4258449  23.4755915  42.3699618  64.6766487  24.3602924  42.6357194
  64.9617997  23.2960516  41.5974710  88.2490548  26.9069412  39.0374880
  87.4954257  26.3376810  38.8818884  88.3838090  26.8732076  39.9845515
  73.6389176  31.7782814  34.7129599  73.5034851  32.6234350  35.1414447
  74.1798989  31.9802092  33.9495533  70.1256516  17.8574394  51.3743954
  69.7323462  17.3040592  52.0491599  70.9422656  18.1684972  51.7650472
  67.0918574  29.2958252  35.2857524  67.6043094  30.0901502  35.4363089
  67.7441287  28.5984543  35.2191126  68.9013459  32.4124008  37.3680277
  69.0780087  33.3341973  37.1801261  69.6970292  32.0982428  37.7974657
  73.0424477  19.2732273  48.9664211  73.7834190  19.8739426  48.8868673
  73.2742400  18.5309911  48.4082254  68.1865815  24.4588640  47.2442441
  68.0719330  23.5573898  47.5449540  67.3310333  24.7052337  46.8927257
  75.2657653  32.4006381  48.8429941  74.8221507  31.6142759  48.5250846
  75.9274866  32.5885531  48.1773832  70.0244774  33.9302182  43.3690620
  70.5752199  33.8019246  42.5967614  69.1856250  34.2297071  43.0185513
  77.3638891  32.6809181  46.8711343  77.3457366  33.5018062  46.3791612
  78.2858811  32.5563256  47.0961484  73.8211945  30.1953310  47.7134851
  74.3540282  29.4341598  47.4834159  73.2926026  29.9026962  48.4559005
  76.9881640  15.3013376  43.2428493  76.6445909  16.1915018  43.1667603
  77.3560603  15.1115034  42.3798078  65.0567491  27.6246906  36.0617095
  65.8942713  28.0343915  35.8450803  65.2345758  26.6846349  36.0317289
  76.9531923  25.2921987  31.7500928  76.4378546  26.0626592  31.9889315
  76.6809231  24.6187123  32.3733989  74.5379034  20.1371688  36.8086166
  73.6820630  19.7478538  36.6291805  74.9505986  20.2163649  35.9485952
  76.0678180  17.6718031  41.2077726  75.5642976  17.6348166  40.3945531
  76.3608787  18.5810774  41.2674383  72.3121066  17.7556761  40.2143908
  73.1774063  17.5599570  39.8549797  72.3798575  17.5267113  41.1413264
  81.9266197  28.0454342  33.6854101  81.1495640  27.7065501  33.2409263
  82.6057678  28.0506965  33.0109066  76.7418226  23.1649079  33.5760709
  76.4368361  23.4795228  34.4270852  77.6948668  23.2430499  33.6188042
  75.1864658  29.3239302  35.2253663  74.6586019  28.5892062  34.9126900
  74.6852160  30.1013979  34.9793631  80.1657504  27.5188323  40.3420709
  79.5081178  28.2087584  40.4300838  80.9697903  27.9084755  40.6854696
  69.9183385  19.9858969  37.5860274  70.4927137  19.7634150  36.8533467
  70.5054368  20.0547663  38.3388876  78.9762963  25.8732696  38.3924651
  79.4894844  26.5062688  38.8946361  79.6264186  25.2733891  38.0268011
  70.2452972  22.0163430  31.6056160  69.4090285  22.3538116  31.9265434
  70.1057742  21.8812410  30.6683297  72.2206053  16.8600218  36.3135344
  71.5670465  16.5449235  35.6891959  72.1786527  16.2375958  37.0395167
  73.3317258  27.1419513  28.2288636  72.4244320  26.9108766  28.4279785
  73.8288290  26.3457132  28.4162617  76.2385337  35.8517020  31.1485322
  75.5647036  36.1548717  31.7570280  76.6251159  36.6546100  30.7990779
  75.4543793  23.3482151  40.6382991  74.5366355  23.5697098  40.4804680
  75.8703937  23.4228462  39.7794699  76.2378841  24.7473567  35.7685672
  76.9850660  25.2594964  35.4592794  76.5070431  24.4257620  36.6290065
  74.5105491  27.2432108  32.7512626  73.6016711  26.9591140  32.8485096
  74.5400575  27.6631186  31.8915933  79.7424759  30.8538697  36.5203794
  79.2887086  30.0129607  36.5768984  79.1118725  31.4900095  36.8578574
  78.6857678  21.7830683  37.7504461  77.9480435  21.2708069  38.0814704
  78.9384452  21.3431065  36.9387738  78.1857698  32.6915194  37.4553612
  78.4780672  33.2520251  36.7365977  78.6956319  32.9843755  38.2106771
  78.7869306  14.5606935  38.3446230  79.0928182  13.7004299  38.0572145
  79.5121910  15.1524555  38.1445224  65.0793662  24.9637622  36.7327828
  64.8818062  24.3706982  36.0078895  64.5240326  24.6589832  37.4503767
  73.0590385  24.8560728  38.8522421  73.1138995  23.9034565  38.7764898
  72.2481587  25.0120167  39.3363720  74.2081579  28.7840851  30.0900705
  73.7701009  28.0676710  29.6306342  74.9492020  29.0116966  29.5285796
  70.9982745  23.4737788  36.6112800  70.1850611  23.7731959  37.0177992
  71.4941739  23.0793477  37.3287283  73.1491323  33.4695545  38.5447065
  73.1067502  33.6956391  37.6155597  74.0654022  33.2358919  38.6932866
  76.5956957  23.9379612  45.4427694  76.9506345  24.1651086  46.3022160
  77.2429088  24.2697989  44.8204949  82.3254694  27.0598048  36.1477023
  82.1872593  27.2499644  35.2198212  81.9690913  27.8217431  36.6045074
  70.4896820  21.0456143  42.2274035  71.1296199  20.9044903  41.5296999
  69.6574351  20.7590657  41.8512637  82.3524074  29.1274575  41.1588295
  82.7860580  29.0349864  42.0071349  83.0655654  29.1032076  40.5208311
  71.2657124  30.3458574  38.3409028  72.0597722  29.8508894  38.1391603
  70.5548816  29.8176437  37.9776733  76.0851968  32.7276669  42.6921395
  76.1388991  33.2967606  43.4599111  75.2166750  32.8978554  42.3275432
  67.5739887  24.4901656  34.4168780  66.6437476  24.4286111  34.6338742
  67.6697359  23.9677608  33.6205422  67.4925436  21.0156468  37.0047022
  67.7532254  21.9301802  36.8956182  68.3142609  20.5480911  37.1543635
  68.9650362  22.4294226  44.1745847  69.6373415  22.2211588  43.5258495
  68.1380148  22.2316312  43.7351079  83.2139623  29.1698276  43.6921180
  83.4075513  30.0744086  43.9380455  83.1140241  28.7105695  44.5259765
  74.8675934  19.0556167  46.1911507  74.2203849  19.7546116  46.0975984
  75.6376949  19.4892310  46.5587756  78.2754732  29.3205019  49.2662061
  78.1240238  29.0915570  48.3492144  78.2659411  30.2775620  49.2793406
  75.0440068  26.8936931  44.2508327  75.9732128  27.0448091  44.0777294
  74.6231098  26.9820952  43.3956974  73.8428400  30.9187596  42.0206865
  73.7039486  30.5506380  42.8932803  73.0542996  31.4335235  41.8490823
  74.4376552  36.0196692  33.3632401  74.6128308  35.5484736  34.1778024
  73.7509340  36.6462459  33.5913662  75.3933615  30.2969199  39.4095703
  75.0583448  30.2569969  40.3053352  74.8937561  29.6313915  38.9366113
  69.3677859  25.7036829  44.9348284  69.2297657  24.9717067  45.5359823
  70.2782783  25.6145729  44.6532471  78.3292807  27.6425233  29.6832762
  77.7121977  26.9172061  29.5865815  77.8609295  28.4034593  29.3399836
  71.9960160  25.4156788  44.4231963  72.7059778  24.7749980  44.3818582
  71.9529468  25.6669683  45.3458144  79.9846938  32.3524141  47.3438543
  79.9259485  31.6683361  46.6769126  80.3866457  33.0943131  46.8919169
  70.7089094  22.4022006  46.2427603  70.1726451  21.9512744  46.8949199
  70.1205802  22.5367915  45.4998067  69.0037637  39.1686055  40.1372261
  69.2434235  39.8004579  40.8151280  68.1606834  38.8174095  40.4237621
  70.1191353  21.8610657  28.8054066  69.2420819  21.7399458  28.4416313
  70.5949106  21.0696736  28.5532955  79.9864346  30.3163725  45.5752522
  79.0991124  29.9789647  45.6978921  80.5562897  29.5846756  45.8121288
  61.6393493  26.6487817  38.8995574  62.3264533  26.3349547  38.3116589
  61.4841621  27.5529182  38.6262825  66.4428215  21.5378014  43.3280597
  66.3586404  20.9303683  42.5931007  65.6210921  22.0287032  43.3290094
  73.5165499  34.9765178  42.5413765  73.4435671  35.7820149  43.0533070
  73.0742892  35.1757143  41.7161787  73.3055279  34.2136948  36.0516587
  72.5222801  34.7558628  36.1454812  74.0048024  34.7310927  36.4510828
  76.6151929  20.0231577  38.6950792  77.1120628  19.2701539  38.3751863
  75.8438910  20.0595894  38.1294002  84.4681686  25.7271943  40.3369084
  84.4571562  26.6096658  39.9663017  83.5999066  25.3743493  40.1423621
  75.9764183  34.8752012  44.6971924  76.6892155  35.5099476  44.6247826
  75.4854211  34.9715878  43.8811926  77.6981710  28.7803264  36.2689216
  76.7637988  28.9004727  36.0993920  77.8758378  27.8775731  36.0049226
  73.1986898  22.1648960  38.4222477  72.8284685  21.6120000  39.1103383
  73.6945990  21.5607094  37.8697477  81.0854261  24.6220584  36.8039250
  81.5514713  25.4548575  36.7299553  81.5361761  24.1565565  37.5084508
  71.0276096  32.6246455  45.5177495  71.7285556  33.2582938  45.6706889
  70.5571211  32.9661187  44.7573134  79.1530492  30.9664405  33.8025402
  79.4290336  30.8520999  34.7119276  78.2834991  30.5681890  33.7637575
  79.0570924  16.9901171  40.8430151  78.1434003  17.2205397  41.0112358
  79.4864025  17.0739615  41.6944184  78.8277382  25.1791063  43.3430045
  78.1748832  25.4266970  42.6882498  79.2057762  24.3655201  43.0092523
  75.7884556  35.2150756  37.4458216  75.9706951  34.3972412  37.9085968
  76.6117542  35.4318448  37.0083106  76.1226721  34.1418941  34.7073264
  76.6514488  33.6311395  34.0943426  76.3854941  33.8261471  35.5718797
  74.8764955  25.9210874  49.8296082  74.2005592  25.8205003  50.4998458
  75.6992589  25.7650087  50.2932080  66.6243814  32.1582810  42.4508598
  67.2097251  31.4126498  42.5836502  66.4268653  32.4686767  43.3345262
  69.4782469  35.1934058  37.4671040  68.8092845  35.6780185  36.9835080
  69.3395339  35.4403278  38.3814419  61.2161469  24.7288410  41.1713041
  61.2545568  24.1952001  41.9650159  60.7101762  24.2023616  40.5524018
  73.6187738  37.2277801  44.0653698  74.1706046  37.3909423  44.8302784
  73.9593931  37.8182239  43.3933723  68.5952231  19.5752951  44.6675583
  68.6593558  20.4367782  44.2552981  68.5319351  18.9626952  43.9347942
  68.0704504  21.6476083  48.3148617  68.6976543  21.2653161  48.9286142
  67.2132423  21.4290285  48.6804310  78.4698612  32.0539059  49.9202353
  79.0138516  32.6669017  49.4257308  77.8885457  32.6118637  50.4369366
  64.8470047  23.4552512  34.2466972  65.1423488  22.5463191  34.1934026
  63.9458082  23.4340252  33.9247974  76.7556125  35.1759777  41.0517381
  76.6307265  34.3749516  40.5428326  77.4135216  35.6705970  40.5631350
  68.3764294  21.5308509  40.2294521  67.6550879  22.1444477  40.0901994
  69.1657549  22.0666274  40.1511167  78.8191034  32.9768797  42.6796931
  77.8721369  32.8574148  42.6075257  79.1673807  32.0891295  42.7623192
  71.1790607  18.8662936  46.5035173  71.7025009  19.1125232  47.2661482
  70.9602940  19.6982970  46.0838310  66.5757888  21.1366610  34.3706297
  66.2470594  20.2563989  34.1881403  66.9297259  21.0814279  35.2582687
  75.8237467  32.7721513  38.8801283  75.6762429  31.8438220  39.0608853
  76.6490960  32.7941604  38.3958358  69.6899711  21.4239580  34.7381775
  70.0295784  21.9525501  34.0160383  70.1371832  21.7619986  35.5140342
  79.4271589  33.5950072  39.9666156  80.3518136  33.3892933  39.8290607
  79.2586892  33.3466473  40.8755497  72.3843152  19.8076631  44.1884843
  72.0439972  19.0084444  44.5905523  71.6782158  20.1078342  43.6161676
  73.0359624  16.8925943  42.6412166  73.8585693  16.4186421  42.5191056
  73.2797687  17.6716427  43.1410852  71.6767858  19.9214202  32.9375068
  72.3976221  20.2995454  32.4338785  71.0533163  20.6403078  33.0410046
  75.8198981  20.6259351  33.8733400  76.0362596  21.5083988  33.5722228
  75.3393048  20.2345564  33.1439042  70.5598203  23.5845064  40.4504145
  70.4142783  23.8985367  41.3428426  70.0823406  24.2029964  39.8975043
  72.4194586  20.5747612  40.4985034  72.4056154  19.6788705  40.1617332
  73.1367014  20.5818275  41.1323320  74.2720716  21.0084952  42.5438162
  74.0138494  21.9302023  42.5422492  73.7405757  20.6115386  43.2338626
  79.2166905  34.1135739  35.3228247  79.3903783  33.5482162  34.5702099
  79.7095796  34.9136634  35.1407737  65.0343865  26.1250408  43.3891806
  64.4897333  26.9010216  43.5212080  65.9123215  26.4721213  43.2310927
  71.8231481  19.4561992  35.7672604  71.9447393  18.5278638  35.9663492
  71.5333524  19.4700678  34.8550920  74.6922672  17.1416902  38.9039324
  74.7144369  17.2056236  37.9491304  75.1090731  16.3021411  39.0979830
  85.0706296  26.8772162  36.9418547  85.5137442  26.1279487  36.5437670
  84.1932806  26.8682298  36.5592279  80.2042078  33.4302503  32.4225145
  80.8992982  34.0509196  32.6412460  80.5465228  32.5797855  32.6977523
  65.8209887  25.2520304  46.2821963  65.0791623  25.4002940  46.8686593
  65.5002631  25.5128570  45.4188712  82.1033501  30.8802209  33.9512476
  82.6284825  31.2189482  33.2261796  82.0155853  29.9449224  33.7675611
  73.7653549  34.7936283  46.0802353  74.0740676  34.5485429  46.9525052
  74.5629031  34.9982921  45.5921223  73.7874161  36.9474192  38.3107729
  73.3479152  36.4550571  39.0040586  74.5382278  36.4047160  38.0699805
  66.2666500  33.1385733  38.3132357  67.0924520  32.8389505  37.9331001
  65.9160552  32.3693356  38.7622146  71.2348034  32.4912201  40.3830031
  70.6128043  31.8282906  40.0832259  71.9052900  32.5173333  39.7003679
  64.4675105  31.0572060  39.2721291  63.6307014  30.6294234  39.0905292
  64.4398751  31.2504503  40.2092082  71.3072561  20.9693989  49.9762537
  71.3560716  21.8456112  49.5940307  71.8495075  20.4271382  49.4034180
  81.7927407  31.5135113  49.2563674  81.0022950  31.4959251  48.7168173
  81.5560761  32.0523406  50.0112711  81.9125282  28.3627579  46.5696403
  81.9623287  28.1977586  47.5111925  81.8039205  27.4954838  46.1794283
  70.7961540  31.0416125  33.8588491  70.9449661  31.7251589  33.2055164
  71.6027984  31.0221215  34.3737947  79.2029044  24.3458507  47.8855709
  80.1038907  24.2064972  47.5939707  79.2777019  24.5112962  48.8253887
  73.5371849  21.7225362  46.7308896  72.6675159  22.0158928  46.4591484
  73.7731330  22.3065807  47.4516159  83.4143479  30.7824521  46.8138424
  83.1228287  31.1454501  47.6501885  82.8015610  30.0691529  46.6351756
  84.6139161  28.3477400  39.3340994  85.4486052  28.7867204  39.4978555
  84.7498290  27.8716053  38.5149240  81.6630667  25.9057135  45.2818482
  82.1384788  26.0984781  44.4737333  80.7396232  25.9616321  45.0361866
  68.5514173  27.0681302  34.8649560  68.3060215  26.1643632  35.0629771
  68.7210088  27.0698453  33.9229038  76.2410883  17.9404979  44.2474316
  76.7592827  18.6766006  43.9220805  75.8866016  18.2468972  45.0821075
  67.8209821  22.8009660  32.3635722  67.1279066  22.8754015  31.7075758
  67.5761573  22.0370004  32.8857239  76.4923477  14.3605261  39.7675213
  76.7725231  13.6928450  40.3935639  77.2774084  14.5534357  39.2549876
  74.2956946  33.5364255  31.3300239  73.7230913  34.1554442  30.8770711
  74.8689740  34.0863617  31.8640161  80.3632336  22.7822895  43.5146788
  81.3149759  22.8820993  43.5359012  80.1935786  21.9901164  44.0244872
  78.3846715  19.8678478  43.7006189  77.7896647  20.1483491  43.0052677
  78.0996412  20.3572379  44.4722930  77.5154206  33.8201405  32.4608821
  78.4484879  33.7546967  32.6641697  77.4277419  34.6557672  32.0023354
  80.1442222  33.1367276  29.4212769  80.0655854  32.8027139  30.3148527
  80.9651889  33.6289044  29.4204241  82.8420414  26.0029015  42.6289087
  82.8096734  25.0645016  42.8148771  83.4521037  26.0813052  41.8954912
  74.6803744  24.8725068  28.6716291  75.6262849  24.7431276  28.7404709
  74.3017989  24.1339730  29.1485720  82.9914902  22.7940058  42.6747371
  82.4753951  22.0098515  42.4877299  83.8754851  22.4658775  42.8393890
  80.6525629  16.5381074  38.6343183  80.4550450  16.2296162  39.5186515
  81.2625335  17.2642713  38.7641113  88.6596963  27.0645022  41.7695124
  89.3900352  26.8030310  42.3302827  88.0503909  26.3273744  41.8097192
  86.7412261  25.2052884  42.3669575  86.0145424  25.0708849  41.7586067
  86.3259547  25.5129713  43.1726293  74.5642437  28.9242814  50.1316948
  75.4845446  29.1021413  50.3256995  74.5292020  27.9798859  49.9796648
  72.8646662  22.7975044  28.6071177  71.9578117  22.5008157  28.6833890
  73.1422643  22.5004862  27.7405463  63.7824602  24.1181408  39.0570223
  63.4627386  23.2646716  38.7644597  63.2358030  24.3329986  39.8128190
  67.5604510  26.8343849  42.7739730  67.7790519  27.7660956  42.7927763
  67.9730283  26.4751823  43.5594533  74.4808727  17.3411934  34.7615418
  73.6709456  16.9959019  35.1370664  75.1693144  17.0319478  35.3503029
  76.4099276  16.4189981  36.3839715  76.9630314  16.8385434  37.0429738
  76.6469362  15.4925729  36.4262671  72.4332375  22.4077054  52.1642478
  72.3329102  23.3571411  52.0954570  72.2153917  22.0795293  51.2918549
  71.6345446  19.6561979  28.7483156  72.4964610  19.9816878  29.0078973
  71.8195790  18.8693475  28.2356222  63.6512862  27.7384319  41.0263345
  62.9576333  27.3238272  40.5133299  64.3985853  27.7804856  40.4296764
  79.7878083  18.5290506  35.8918379  79.2076752  19.1875310  35.5096431
  79.5214015  17.7067851  35.4805796  78.2381649  17.9295564  38.0939699
  78.7381427  18.0412098  37.2854018  78.8817257  17.6256617  38.7340508
  72.2963645  25.8374193  50.9807540  71.8130727  26.6374553  51.1871429
  72.3824584  25.8482138  50.0274984  65.5649605  27.6702573  38.9029359
  65.5420293  27.7690260  37.9511243  65.8750241  28.5167724  39.2246526
  68.2236982  29.7278728  43.0175974  69.1780236  29.6962670  42.9505905
  68.0249506  29.2669352  43.8326200  68.8136365  28.2979844  45.5846772
  69.6329254  28.7923923  45.6081609  69.0873172  27.3811812  45.5564339
  78.5702961  20.6890596  34.9474727  77.6828816  20.9740247  34.7294922
  78.9856950  20.5284360  34.1002004  81.9217497  20.7137117  38.6629066
  82.6977887  21.2033570  38.9353683  81.1965631  21.1395172  39.1200936
  84.3590055  21.4264737  39.7203007  84.9534546  21.1860472  39.0096315
  84.4316639  20.7071867  40.3476543  66.5787211  35.2698347  40.0346172
  66.4441679  34.5098748  39.4684170  66.1619273  35.9939247  39.5674961
  77.7146174  30.4535271  29.0422747  78.4182024  30.6585274  29.6580403
  76.9908823  31.0212033  29.3071831  78.5443984  26.2045132  35.1625017
  78.4879186  26.6613684  34.3232650  79.0972327  25.4435817  34.9847860
  82.3548790  21.9934864  35.9875137  82.0985725  21.5931500  36.8183344
  81.7301658  22.7078658  35.8625276  86.6661128  24.7330937  38.4946428
  86.1060686  24.8024127  39.2677990  86.0604632  24.5571922  37.7745924
  69.7356337  36.1667664  40.2464614  69.6188721  37.1113097  40.1443305
  68.9148783  35.8641226  40.6350414  79.6232872  30.8917800  31.0921207
  80.4578476  30.4598999  30.9098682  79.4617215  30.7199814  32.0198102
  79.2778764  27.3949914  32.4577546  79.2227568  27.2294185  31.5165991
  78.6524819  28.1025946  32.6139736  64.0671279  22.6317978  46.2838969
  64.7130142  22.1216932  46.7726194  63.8588430  23.3686660  46.8582394
  76.5924671  29.6998825  51.7831109  77.4615831  29.8739478  51.4217744
  76.1131422  30.5193242  51.6606839  72.5874889  16.8958023  32.0362865
  72.5753559  17.8399862  32.1931136  73.4798311  16.7128168  31.7422326
  70.7610851  36.8195926  43.4620543  71.6638098  36.8519537  43.7787038
  70.5348221  35.8896377  43.4766879  72.5164453  35.5726913  40.1230621
  71.5660084  35.5728775  40.0094994  72.8196939  34.8259647  39.6066656
  76.4027009  13.4900799  36.2908802  75.6359405  12.9359286  36.4365484
  76.8137714  13.5622668  37.1522953  68.4068770  19.7785595  50.3813983
  69.2700231  19.4222400  50.5917307  67.8334180  19.4399490  51.0689387
  88.2517147  41.4087451  41.1876384  88.8895557  41.2894199  40.4839724
  88.1337990  42.3568295  41.2464336  85.0606853  41.3614879  41.1237909
  84.7225365  41.2455944  40.2358443  85.9296621  40.9606045  41.1038915
  80.9193669  43.2150356  37.1134800  80.3558534  43.1240293  36.3451087
  80.8046064  42.3950260  37.5937292  85.5426636  42.5149731  47.0824114
  85.5315277  42.1202529  46.2104618  85.7047275  41.7815804  47.6757886
  78.4658101  44.7101547  39.9519020  79.2579393  44.3692372  39.5365319
  78.7054751  44.8196522  40.8721173  86.4993227  46.8821324  32.4249264
  85.8481207  47.4675404  32.0383278  87.2937590  47.4127518  32.4844302
  80.4248855  43.9710461  32.8236399  81.1979731  43.4239448  32.6849275
  80.7774253  44.8354710  33.0350860  82.2633897  45.2986843  46.0303298
  81.9723763  46.2032474  45.9149964  82.8990881  45.3403371  46.7447368
  83.1890104  42.6763691  42.6204658  83.7853676  42.4519714  41.9061621
  83.2465075  41.9348437  43.2230106  82.7615132  40.1303127  30.4554849
  83.0140653  39.6084648  29.6938312  81.8239691  39.9669272  30.5581532
  87.8058415  39.1338905  38.2629592  88.5921504  38.7158328  37.9120009
  88.0697120  40.0384997  38.4311240  87.9768493  44.5711755  32.9618249
  87.3414326  44.6446382  33.6739153  87.6465899  45.1605354  32.2837328
  93.2066842  39.0714138  39.1662570  93.9392014  38.5013355  39.4000400
  92.4506198  38.6835739  39.6069076  82.4811421  42.0331233  32.6579224
  82.3647679  41.3576136  33.3260308  82.5913681  41.5463607  31.8411377
  84.8242962  41.4941380  36.3625913  84.4601169  40.9672001  37.0738834
  85.6810078  41.1039849  36.1892398  90.7292263  32.7835712  43.6257179
  90.3975587  33.6531123  43.4018394  90.1337876  32.4671996  44.3051209
  84.4648449  36.5231280  31.3587261  84.6322851  37.3911516  31.7257732
  84.2745618  36.6858561  30.4348551  87.2223782  44.9848258  43.0253092
  86.9224505  45.8873297  42.9168899  86.8774842  44.7180442  43.8774245
  80.6736264  41.4362055  39.0589796  79.7486760  41.3038269  39.2667488
  80.9220677  42.2156275  39.5559739  90.6220926  37.5030799  40.7050529
  89.7137803  37.4346207  40.4109290  90.5708522  37.9802744  41.5332355
  84.4437670  38.9788937  32.3433928  84.3237295  39.4245988  33.1819408
  83.7490258  39.3274255  31.7847466  78.0345075  41.0795329  39.8933585
  78.1637456  41.3329808  40.8072997  77.3542526  41.6723037  39.5738240
  82.2044562  51.7492579  35.9924059  82.1268592  52.7000404  36.0712540
  81.6006206  51.4038451  36.6498986  84.6961792  38.9220444  48.6485426
  83.9195126  39.4814364  48.6388291  85.3352355  39.4077227  49.1700296
  92.4882572  35.7047237  42.4828403  91.8456953  35.9979770  41.8368198
  91.9837501  35.5900157  43.2881600  90.1422736  39.4510410  33.1714262
  91.0540592  39.6837797  32.9961960  89.6332383  40.0347454  32.6089341
  82.9508164  41.7305898  48.2103393  83.6922848  42.2690942  47.9338217
  82.2445150  42.3572186  48.3674945  88.4263504  43.8735038  46.8075555
  88.8346860  43.4317449  46.0630187  87.7040765  43.2987666  47.0609748
  84.7794574  38.8107645  44.1809112  85.6255769  39.2347058  44.3243761
  84.7193211  38.1541269  44.8747675  88.7492318  44.4336229  40.5627844
  88.1201181  44.5981943  39.8603912  88.3617980  44.8477838  41.3338808
  92.6281550  45.3690667  37.9172207  91.9432588  45.7489568  37.3669241
  92.7125400  45.9785993  38.6504155  87.9294019  36.4712013  45.8390285
  87.6854951  37.2254074  45.3024561  88.2053950  36.8497361  46.6737532
  89.8832482  43.0150626  44.5167551  90.0949377  43.6582385  43.8401932
  89.8362230  42.1812942  44.0489481  87.4858711  35.6268446  41.4204123
  86.6243190  35.9249700  41.7120861  87.5121145  35.8438845  40.4885156
  84.3020280  44.1710637  37.8277929  84.7658626  44.4498340  37.0382551
  84.0377078  43.2694081  37.6451020  81.1944361  43.7182118  40.7657692
  81.7645718  44.1469387  40.1275177  81.7852473  43.4364703  41.4641878
  83.2389166  40.2933789  34.6367494  83.9413210  40.7454833  35.1041420
  82.9069795  39.6517608  35.2647387  81.6869528  38.8845546  49.0118703
  81.0568188  39.5661827  49.2454100  81.5805616  38.7728627  48.0671842
  76.9814500  38.5517342  39.9384628  76.1913554  38.8074870  39.4624738
  77.4725748  39.3665680  40.0436668  90.9978310  45.8922581  42.6889908
  91.8195754  45.4902768  42.4072590  90.9940713  45.7890815  43.6406024
  78.9329246  38.9161921  36.8968104  78.1360409  39.0280615  37.4151600
  78.7054838  39.2548573  36.0308995  84.7634913  45.4406624  44.8450619
  84.8279346  45.9027032  45.6808791  84.0545837  44.8103989  44.9732929
  75.2652203  38.8047832  42.3699618  75.5160242  39.6894842  42.6357194
  75.8011752  38.6252434  41.5974710  99.0884303  42.2361329  39.0374880
  98.3348011  41.6668728  38.8818884  99.2231844  42.2023994  39.9845515
  84.4782931  47.1074732  34.7129599  84.3428606  47.9526267  35.1414447
  85.0192743  47.3094009  33.9495533  80.9650271  33.1866312  51.3743954
  80.5717216  32.6332510  52.0491599  81.7816411  33.4976890  51.7650472
  77.9312328  44.6250170  35.2857524  78.4436849  45.4193420  35.4363089
  78.5835041  43.9276460  35.2191126  79.7407213  47.7415926  37.3680277
  79.9173841  48.6633891  37.1801261  80.5364047  47.4274345  37.7974657
  83.8818232  34.6024191  48.9664211  84.6227945  35.2031344  48.8868673
  84.1136154  33.8601829  48.4082254  79.0259570  39.7880558  47.2442441
  78.9113085  38.8865815  47.5449540  78.1704087  40.0344255  46.8927257
  86.1051407  47.7298298  48.8429941  85.6615261  46.9434677  48.5250846
  86.7668621  47.9177449  48.1773832  80.8638528  49.2594100  43.3690620
  81.4145954  49.1311163  42.5967614  80.0250004  49.5588989  43.0185513
  88.2032645  48.0101098  46.8711343  88.1851121  48.8309979  46.3791612
  89.1252565  47.8855173  47.0961484  84.6605700  45.5245228  47.7134851
  85.1934036  44.7633516  47.4834159  84.1319781  45.2318880  48.4559005
  87.8275394  30.6305294  43.2428493  87.4839664  31.5206935  43.1667603
  88.1954357  30.4406951  42.3798078  75.8961245  42.9538824  36.0617095
  76.7336467  43.3635832  35.8450803  76.0739513  42.0138266  36.0317289
  87.7925677  40.6213905  31.7500928  87.2772301  41.3918509  31.9889315
  87.5202986  39.9479041  32.3733989  85.3772788  35.4663606  36.8086166
  84.5214385  35.0770456  36.6291805  85.7899740  35.5455566  35.9485952
  86.9071935  33.0009949  41.2077726  86.4036730  32.9640084  40.3945531
  87.2002542  33.9102692  41.2674383  83.1514821  33.0848679  40.2143908
  84.0167818  32.8891487  39.8549797  83.2192330  32.8559030  41.1413264
  92.7659951  43.3746259  33.6854101  91.9889394  43.0357419  33.2409263
  93.4451432  43.3798883  33.0109066  87.5811980  38.4940997  33.5760709
  87.2762116  38.8087146  34.4270852  88.5342422  38.5722417  33.6188042
  86.0258412  44.6531220  35.2253663  85.4979774  43.9183980  34.9126900
  85.5245915  45.4305897  34.9793631  91.0051258  42.8480241  40.3420709
  90.3474933  43.5379502  40.4300838  91.8091657  43.2376673  40.6854696
  80.7577140  35.3150886  37.5860274  81.3320892  35.0926068  36.8533467
  81.3448122  35.3839581  38.3388876  89.8156717  41.2024613  38.3924651
  90.3288599  41.8354605  38.8946361  90.4657941  40.6025809  38.0268011
  81.0846727  37.3455347  31.6056160  80.2484039  37.6830034  31.9265434
  80.9451497  37.2104327  30.6683297  83.0599808  32.1892135  36.3135344
  82.4064220  31.8741153  35.6891959  83.0180282  31.5667876  37.0395167
  84.1711012  42.4711430  28.2288636  83.2638074  42.2400684  28.4279785
  84.6682044  41.6749050  28.4162617  87.0779091  51.1808938  31.1485322
  86.4040790  51.4840634  31.7570280  87.4644913  51.9838018  30.7990779
  86.2937548  38.6774069  40.6382991  85.3760109  38.8989016  40.4804680
  86.7097692  38.7520379  39.7794699  87.0772596  40.0765485  35.7685672
  87.8244415  40.5886882  35.4592794  87.3464185  39.7549537  36.6290065
  85.3499246  42.5724025  32.7512626  84.4410465  42.2883058  32.8485096
  85.3794330  42.9923104  31.8915933  90.5818513  46.1830615  36.5203794
  90.1280840  45.3421525  36.5768984  89.9512480  46.8192013  36.8578574
  89.5251433  37.1122601  37.7504461  88.7874190  36.5999987  38.0814704
  89.7778206  36.6722982  36.9387738  89.0251452  48.0207111  37.4553612
  89.3174427  48.5812169  36.7365977  89.5350073  48.3135672  38.2106771
  89.6263060  29.8898853  38.3446230  89.9321937  29.0296216  38.0572145
  90.3515665  30.4816473  38.1445224  75.9187416  40.2929539  36.7327828
  75.7211816  39.6998900  36.0078895  75.3634080  39.9881750  37.4503767
  83.8984140  40.1852646  38.8522421  83.9532750  39.2326482  38.7764898
  83.0875342  40.3412085  39.3363720  85.0475334  44.1132769  30.0900705
  84.6094764  43.3968628  29.6306342  85.7885775  44.3408884  29.5285796
  81.8376500  38.8029706  36.6112800  81.0244365  39.1023876  37.0177992
  82.3335494  38.4085394  37.3287283  83.9885078  48.7987463  38.5447065
  83.9461256  49.0248309  37.6155597  84.9047777  48.5650837  38.6932866
  87.4350711  39.2671530  45.4427694  87.7900099  39.4943003  46.3022160
  88.0822843  39.5989907  44.8204949  93.1648448  42.3889966  36.1477023
  93.0266347  42.5791562  35.2198212  92.8084667  43.1509349  36.6045074
  81.3290575  36.3748061  42.2274035  81.9689954  36.2336820  41.5296999
  80.4968105  36.0882575  41.8512637  93.1917828  44.4566493  41.1588295
  93.6254335  44.3641782  42.0071349  93.9049409  44.4323993  40.5208311
  82.1050878  45.6750492  38.3409028  82.8991477  45.1800812  38.1391603
  81.3942571  45.1468355  37.9776733  86.9245723  48.0568587  42.6921395
  86.9782745  48.6259523  43.4599111  86.0560504  48.2270472  42.3275432
  78.4133642  39.8193573  34.4168780  77.4831230  39.7578029  34.6338742
  78.5091114  39.2969526  33.6205422  78.3319191  36.3448386  37.0047022
  78.5926008  37.2593719  36.8956182  79.1536363  35.8772829  37.1543635
  79.8044116  37.7586143  44.1745847  80.4767170  37.5503505  43.5258495
  78.9773903  37.5608229  43.7351079  94.0533378  44.4990194  43.6921180
  94.2469268  45.4036004  43.9380455  93.9533996  44.0397613  44.5259765
  85.7069688  34.3848084  46.1911507  85.0597603  35.0838034  46.0975984
  86.4770704  34.8184228  46.5587756  89.1148486  44.6496936  49.2662061
  88.9633993  44.4207488  48.3492144  89.1053166  45.6067538  49.2793406
  85.8833823  42.2228849  44.2508327  86.8125883  42.3740009  44.0777294
  85.4624853  42.3112870  43.3956974  84.6822154  46.2479514  42.0206865
  84.5433240  45.8798298  42.8932803  83.8936751  46.7627153  41.8490823
  85.2770306  51.3488610  33.3632401  85.4522062  50.8776653  34.1778024
  84.5903094  51.9754376  33.5913662  86.2327370  45.6261116  39.4095703
  85.8977202  45.5861886  40.3053352  85.7331315  44.9605832  38.9366113
  80.2071614  41.0328746  44.9348284  80.0691412  40.3008985  45.5359823
  81.1176537  40.9437646  44.6532471  89.1686561  42.9717151  29.6832762
  88.5515732  42.2463979  29.5865815  88.7003050  43.7326511  29.3399836
  82.8353914  40.7448706  44.4231963  83.5453533  40.1041898  44.3818582
  82.7923222  40.9961600  45.3458144  90.8240693  47.6816059  47.3438543
  90.7653239  46.9975279  46.6769126  91.2260211  48.4235049  46.8919169
  81.5482848  37.7313924  46.2427603  81.0120205  37.2804662  46.8949199
  80.9599557  37.8659832  45.4998067  79.8431392  54.4977973  40.1372261
  80.0827990  55.1296497  40.8151280  79.0000588  54.1466013  40.4237621
  80.9585107  37.1902575  28.8054066  80.0814573  37.0691376  28.4416313
  81.4342860  36.3988653  28.5532955  90.8258100  45.6455643  45.5752522
  89.9384879  45.3081565  45.6978921  91.3956651  44.9138674  45.8121288
  72.4787247  41.9779735  38.8995574  73.1658287  41.6641465  38.3116589
  72.3235376  42.8821099  38.6262825  77.2821969  36.8669931  43.3280597
  77.1980158  36.2595601  42.5931007  76.4604676  37.3578950  43.3290094
  84.3559254  50.3057095  42.5413765  84.2829425  51.1112067  43.0533070
  83.9136647  50.5049061  41.7161787  84.1449033  49.5428865  36.0516587
  83.3616555  50.0850545  36.1454812  84.8441778  50.0602845  36.4510828
  87.4545683  35.3523495  38.6950792  87.9514383  34.5993457  38.3751863
  86.6832665  35.3887811  38.1294002  95.3075441  41.0563860  40.3369084
  95.2965317  41.9388576  39.9663017  94.4392820  40.7035411  40.1423621
  86.8157937  50.2043929  44.6971924  87.5285909  50.8391394  44.6247826
  86.3247966  50.3007795  43.8811926  88.5375464  44.1095182  36.2689216
  87.6031743  44.2296644  36.0993920  88.7152132  43.2067649  36.0049226
  84.0380652  37.4940878  38.4222477  83.6678440  36.9411918  39.1103383
  84.5339745  36.8899011  37.8697477  91.9248015  39.9512501  36.8039250
  92.3908468  40.7840493  36.7299553  92.3755516  39.4857483  37.5084508
  81.8669851  47.9538373  45.5177495  82.5679310  48.5874856  45.6706889
  81.3964966  48.2953104  44.7573134  89.9924246  46.2956323  33.8025402
  90.2684090  46.1812917  34.7119276  89.1228745  45.8973807  33.7637575
  89.8964678  32.3193088  40.8430151  88.9827758  32.5497315  41.0112358
  90.3257780  32.4031532  41.6944184  89.6671137  40.5082980  43.3430045
  89.0142587  40.7558888  42.6882498  90.0451516  39.6947118  43.0092523
  86.6278310  50.5442673  37.4458216  86.8100705  49.7264329  37.9085968
  87.4511296  50.7610366  37.0083106  86.9620476  49.4710859  34.7073264
  87.4908242  48.9603313  34.0943426  87.2248696  49.1553389  35.5718797
  85.7158710  41.2502791  49.8296082  85.0399347  41.1496921  50.4998458
  86.5386344  41.0942005  50.2932080  77.4637569  47.4874728  42.4508598
  78.0491006  46.7418416  42.5836502  77.2662407  47.7978685  43.3345262
  80.3176224  50.5225975  37.4671040  79.6486599  51.0072103  36.9835080
  80.1789094  50.7695196  38.3814419  72.0555223  40.0580328  41.1713041
  72.0939323  39.5243919  41.9650159  71.5495516  39.5315534  40.5524018
  84.4581493  52.5569719  44.0653698  85.0099801  52.7201340  44.8302784
  84.7987686  53.1474157  43.3933723  79.4345986  34.9044869  44.6675583
  79.4987312  35.7659699  44.2552981  79.3713106  34.2918870  43.9347942
  78.9098258  36.9768001  48.3148617  79.5370297  36.5945078  48.9286142
  78.0526177  36.7582203  48.6804310  89.3092367  47.3830976  49.9202353
  89.8532271  47.9960934  49.4257308  88.7279212  47.9410555  50.4369366
  75.6863801  38.7844430  34.2466972  75.9817242  37.8755109  34.1934026
  74.7851837  38.7632170  33.9247974  87.5949880  50.5051694  41.0517381
  87.4701019  49.7041434  40.5428326  88.2528971  50.9997888  40.5631350
  79.2158048  36.8600427  40.2294521  78.4944634  37.4736394  40.0901994
  80.0051304  37.3958192  40.1511167  89.6584788  48.3060714  42.6796931
  88.7115124  48.1866066  42.6075257  90.0067561  47.4183212  42.7623192
  82.0184362  34.1954853  46.5035173  82.5418763  34.4417150  47.2661482
  81.7996695  35.0274888  46.0838310  77.4151643  36.4658528  34.3706297
  77.0864349  35.5855907  34.1881403  77.7691013  36.4106197  35.2582687
  86.6631221  48.1013431  38.8801283  86.5156184  47.1730138  39.0608853
  87.4884715  48.1233521  38.3958358  80.5293466  36.7531498  34.7381775
  80.8689538  37.2817419  34.0160383  80.9765586  37.0911904  35.5140342
  90.2665343  48.9241989  39.9666156  91.1911891  48.7184851  39.8290607
  90.0980647  48.6758390  40.8755497  83.2236907  35.1368548  44.1884843
  82.8833727  34.3376361  44.5905523  82.5175913  35.4370259  43.6161676
  83.8753378  32.2217861  42.6412166  84.6979448  31.7478339  42.5191056
  84.1191442  33.0008345  43.1410852  82.5161613  35.2506119  32.9375068
  83.2369975  35.6287372  32.4338785  81.8926917  35.9694996  33.0410046
  86.6592736  35.9551268  33.8733400  86.8756350  36.8375906  33.5722228
  86.1786803  35.5637482  33.1439042  81.3991957  38.9136981  40.4504145
  81.2536538  39.2277284  41.3428426  80.9217161  39.5321882  39.8975043
  83.2588340  35.9039529  40.4985034  83.2449909  35.0080623  40.1617332
  83.9760768  35.9110193  41.1323320  85.1114471  36.3376870  42.5438162
  84.8532249  37.2593940  42.5422492  84.5799511  35.9407304  43.2338626
  90.0560660  49.4427657  35.3228247  90.2297537  48.8774079  34.5702099
  90.5489551  50.2428552  35.1407737  75.8737619  41.4542326  43.3891806
  75.3291087  42.2302134  43.5212080  76.7516969  41.8013130  43.2310927
  82.6625236  34.7853910  35.7672604  82.7841147  33.8570556  35.9663492
  82.3727278  34.7992596  34.8550920  85.5316426  32.4708820  38.9039324
  85.5538123  32.5348153  37.9491304  85.9484485  31.6313329  39.0979830
  95.9100051  42.2064080  36.9418547  96.3531197  41.4571405  36.5437670
  95.0326561  42.1974216  36.5592279  91.0435832  48.7594421  32.4225145
  91.7386737  49.3801114  32.6412460  91.3858982  47.9089772  32.6977523
  76.6603641  40.5812222  46.2821963  75.9185377  40.7294857  46.8686593
  76.3396385  40.8420488  45.4188712  92.9427255  46.2094127  33.9512476
  93.4678579  46.5481399  33.2261796  92.8549608  45.2741142  33.7675611
  84.6047304  50.1228200  46.0802353  84.9134430  49.8777347  46.9525052
  85.4022786  50.3274839  45.5921223  84.6267916  52.2766110  38.3107729
  84.1872906  51.7842489  39.0040586  85.3776033  51.7339078  38.0699805
  77.1060255  48.4677651  38.3132357  77.9318275  48.1681423  37.9331001
  76.7554307  47.6985273  38.7622146  82.0741788  47.8204119  40.3830031
  81.4521797  47.1574824  40.0832259  82.7446655  47.8465251  39.7003679
  75.3068860  46.3863977  39.2721291  74.4700768  45.9586152  39.0905292
  75.2792505  46.5796421  40.2092082  82.1466316  36.2985907  49.9762537
  82.1954471  37.1748030  49.5940307  82.6888830  35.7563300  49.4034180
  92.6321161  46.8427030  49.2563674  91.8416705  46.8251169  48.7168173
  92.3954516  47.3815324  50.0112711  92.7519036  43.6919497  46.5696403
  92.8017041  43.5269504  47.5111925  92.6432960  42.8246756  46.1794283
  81.6355295  46.3708042  33.8588491  81.7843415  47.0543507  33.2055164
  82.4421738  46.3513132  34.3737947  90.0422799  39.6750425  47.8855709
  90.9432661  39.5356890  47.5939707  90.1170773  39.8404880  48.8253887
  84.3765604  37.0517279  46.7308896  83.5068913  37.3450846  46.4591484
  84.6125084  37.6357724  47.4516159  94.2537233  46.1116438  46.8138424
  93.9622041  46.4746419  47.6501885  93.6409364  45.3983446  46.6351756
  95.4532915  43.6769318  39.3340994  96.2879807  44.1159122  39.4978555
  95.5892044  43.2007971  38.5149240  92.5024421  41.2349053  45.2818482
  92.9778543  41.4276699  44.4737333  91.5789987  41.2908239  45.0361866
  79.3907928  42.3973220  34.8649560  79.1453970  41.4935550  35.0629771
  79.5603842  42.3990370  33.9229038  87.0804638  33.2696896  44.2474316
  87.5986582  34.0057923  43.9220805  86.7259771  33.5760890  45.0821075
  78.6603575  38.1301578  32.3635722  77.9672820  38.2045933  31.7075758
  78.4155327  37.3661921  32.8857239  87.3317232  29.6897179  39.7675213
  87.6118986  29.0220368  40.3935639  88.1167839  29.8826275  39.2549876
  85.1350700  48.8656173  31.3300239  84.5624668  49.4846360  30.8770711
  85.7083494  49.4155534  31.8640161  91.2026090  38.1114813  43.5146788
  92.1543513  38.2112911  43.5359012  91.0329541  37.3193081  44.0244872
  89.2240470  35.1970396  43.7006189  88.6290402  35.4775409  43.0052677
  88.9390166  35.6864297  44.4722930  88.3547960  49.1493323  32.4608821
  89.2878633  49.0838885  32.6641697  88.2671173  49.9849590  32.0023354
  90.9835977  48.4659193  29.4212769  90.9049608  48.1319057  30.3148527
  91.8045644  48.9580961  29.4204241  93.6814168  41.3320933  42.6289087
  93.6490488  40.3936933  42.8148771  94.2914792  41.4104969  41.8954912
  85.5197499  40.2016986  28.6716291  86.4656604  40.0723194  28.7404709
  85.1411744  39.4631647  29.1485720  93.8308657  38.1231976  42.6747371
  93.3147705  37.3390433  42.4877299  94.7148605  37.7950693  42.8393890
  91.4919383  31.8672992  38.6343183  91.2944205  31.5588080  39.5186515
  92.1019089  32.5934630  38.7641113  99.4990718  42.3936939  41.7695124
 100.2294106  42.1322228  42.3302827  98.8897663  41.6565661  41.8097192
  97.5806015  40.5344802  42.3669575  96.8539179  40.4000767  41.7586067
  97.1653302  40.8421631  43.1726293  85.4036191  44.2534732  50.1316948
  86.3239201  44.4313331  50.3256995  85.3685775  43.3090777  49.9796648
  83.7040416  38.1266962  28.6071177  82.7971871  37.8300075  28.6833890
  83.9816397  37.8296780  27.7405463  74.6218356  39.4473325  39.0570223
  74.3021141  38.5938634  38.7644597  74.0751785  39.6621904  39.8128190
  78.3998264  42.1635766  42.7739730  78.6184274  43.0952874  42.7927763
  78.8124038  41.8043741  43.5594533  85.3202482  32.6703852  34.7615418
  84.5103210  32.3250937  35.1370664  86.0086899  32.3611395  35.3503029
  87.2493030  31.7481898  36.3839715  87.8024069  32.1677352  37.0429738
  87.4863116  30.8217647  36.4262671  83.2726129  37.7368972  52.1642478
  83.1722856  38.6863329  52.0954570  83.0547671  37.4087211  51.2918549
  82.4739201  34.9853897  28.7483156  83.3358365  35.3108795  29.0078973
  82.6589545  34.1985393  28.2356222  74.4906616  43.0676237  41.0263345
  73.7970088  42.6530190  40.5133299  75.2379607  43.1096773  40.4296764
  90.6271837  33.8582424  35.8918379  90.0470506  34.5167228  35.5096431
  90.3607770  33.0359768  35.4805796  89.0775404  33.2587481  38.0939699
  89.5775182  33.3704016  37.2854018  89.7211011  32.9548534  38.7340508
  83.1357399  41.1666111  50.9807540  82.6524481  41.9666471  51.1871429
  83.2218338  41.1774056  50.0274984  76.4043359  42.9994491  38.9029359
  76.3814047  43.0982178  37.9511243  76.7143996  43.8459641  39.2246526
  79.0630737  45.0570646  43.0175974  80.0173990  45.0254588  42.9505905
  78.8643260  44.5961269  43.8326200  79.6530119  43.6271762  45.5846772
  80.4723008  44.1215840  45.6081609  79.9266927  42.7103730  45.5564339
  89.4096715  36.0182514  34.9474727  88.5222570  36.3032165  34.7294922
  89.8250704  35.8576277  34.1002004  92.7611251  36.0429035  38.6629066
  93.5371641  36.5325487  38.9353683  92.0359386  36.4687089  39.1200936
  95.1983810  36.7556654  39.7203007  95.7928301  36.5152390  39.0096315
  95.2710394  36.0363785  40.3476543  77.4180966  50.5990265  40.0346172
  77.2835434  49.8390666  39.4684170  77.0013028  51.3231165  39.5674961
  88.5539929  45.7827189  29.0422747  89.2575779  45.9877191  29.6580403
  87.8302577  46.3503951  29.3071831  89.3837739  41.5337050  35.1625017
  89.3272940  41.9905601  34.3232650  89.9366081  40.7727735  34.9847860
  93.1942545  37.3226782  35.9875137  92.9379479  36.9223417  36.8183344
  92.5695413  38.0370576  35.8625276  97.5054883  40.0622855  38.4946428
  96.9454441  40.1316044  39.2677990  96.8998386  39.8863840  37.7745924
  80.5750092  51.4959582  40.2464614  80.4582476  52.4405015  40.1443305
  79.7542538  51.1933144  40.6350414  90.4626626  46.2209718  31.0921207
  91.2972230  45.7890916  30.9098682  90.3010969  46.0491732  32.0198102
  90.1172518  42.7241831  32.4577546  90.0621322  42.5586103  31.5165991
  89.4918574  43.4317864  32.6139736  74.9065033  37.9609896  46.2838969
  75.5523897  37.4508850  46.7726194  74.6982184  38.6978577  46.8582394
  87.4318425  45.0290743  51.7831109  88.3009585  45.2031395  51.4217744
  86.9525177  45.8485160  51.6606839  83.4268644  32.2249940  32.0362865
  83.4147314  33.1691780  32.1931136  84.3192066  32.0420086  31.7422326
  81.6004606  52.1487844  43.4620543  82.5031852  52.1811454  43.7787038
  81.3741976  51.2188295  43.4766879  83.3558208  50.9018831  40.1230621
  82.4053839  50.9020692  40.0094994  83.6590694  50.1551565  39.6066656
  87.2420763  28.8192717  36.2908802  86.4753159  28.2651204  36.4365484
  87.6531468  28.8914586  37.1522953  79.2462524  35.1077513  50.3813983
  80.1093986  34.7514317  50.5917307  78.6727935  34.7691407  51.0689387
  99.0910901  56.7379369  41.1876384  99.7289311  56.6186116  40.4839724
  98.9731744  57.6860213  41.2464336  95.9000607  56.6906797  41.1237909
  95.5619119  56.5747862  40.2358443  96.7690376  56.2897962  41.1038915
  91.7587423  58.5442274  37.1134800  91.1952288  58.4532210  36.3451087
  91.6439818  57.7242178  37.5937292  96.3820390  57.8441649  47.0824114
  96.3709031  57.4494447  46.2104618  96.5441030  57.1107721  47.6757886
  89.3051855  60.0393465  39.9519020  90.0973147  59.6984290  39.5365319
  89.5448505  60.1488440  40.8721173  97.3386982  62.2113241  32.4249264
  96.6874962  62.7967322  32.0383278  98.1331345  62.7419436  32.4844302
  91.2642609  59.3002378  32.8236399  92.0373485  58.7531365  32.6849275
  91.6168008  60.1646628  33.0350860  93.1027652  60.6278761  46.0303298
  92.8117518  61.5324391  45.9149964  93.7384636  60.6695288  46.7447368
  94.0283858  58.0055609  42.6204658  94.6247431  57.7811632  41.9061621
  94.0858830  57.2640355  43.2230106  93.6008887  55.4595044  30.4554849
  93.8534408  54.9376566  29.6938312  92.6633446  55.2961190  30.5581532
  98.6452170  54.4630823  38.2629592  99.4315259  54.0450246  37.9120009
  98.9090874  55.3676915  38.4311240  98.8162247  59.9003673  32.9618249
  98.1808080  59.9738300  33.6739153  98.4859653  60.4897272  32.2837328
 104.0460597  54.4006056  39.1662570 104.7785769  53.8305273  39.4000400
 103.2899953  54.0127656  39.6069076  93.3205176  57.3623150  32.6579224
  93.2041434  56.6868054  33.3260308  93.4307435  56.8755524  31.8411377
  95.6636717  56.8233298  36.3625913  95.2994924  56.2963919  37.0738834
  96.5203832  56.4331767  36.1892398 101.5686017  48.1127630  43.6257179
 101.2369342  48.9823041  43.4018394 100.9731631  47.7963914  44.3051209
  95.3042204  51.8523197  31.3587261  95.4716606  52.7203434  31.7257732
  95.1139373  52.0150479  30.4348551  98.0617537  60.3140176  43.0253092
  97.7618260  61.2165215  42.9168899  97.7168596  60.0472359  43.8774245
  91.5130018  56.7653973  39.0589796  90.5880515  56.6330187  39.2667488
  91.7614431  57.5448192  39.5559739 101.4614680  52.8322716  40.7050529
 100.5531558  52.7638125  40.4109290 101.4102276  53.3094661  41.5332355
  95.2831424  54.3080855  32.3433928  95.1631050  54.7537906  33.1819408
  94.5884013  54.6566172  31.7847466  88.8738829  56.4087247  39.8933585
  89.0031210  56.6621725  40.8072997  88.1936281  57.0014955  39.5738240
  93.0438316  67.0784496  35.9924059  92.9662346  68.0292322  36.0712540
  92.4399960  66.7330369  36.6498986  95.5355546  54.2512362  48.6485426
  94.7588880  54.8106282  48.6388291  96.1746109  54.7369145  49.1700296
 103.3276327  51.0339155  42.4828403 102.6850707  51.3271688  41.8368198
 102.8231255  50.9192075  43.2881600 100.9816491  54.7802328  33.1714262
 101.8934347  55.0129715  32.9961960 100.4726138  55.3639372  32.6089341
  93.7901919  57.0597815  48.2103393  94.5316603  57.5982859  47.9338217
  93.0838904  57.6864104  48.3674945  99.2657258  59.2026956  46.8075555
  99.6740614  58.7609366  46.0630187  98.5434520  58.6279583  47.0609748
  95.6188328  54.1399563  44.1809112  96.4649523  54.5638976  44.3243761
  95.5586966  53.4833187  44.8747675  99.5886073  59.7628146  40.5627844
  98.9594935  59.9273860  39.8603912  99.2011735  60.1769756  41.3338808
 103.4675305  60.6982584  37.9172207 102.7826343  61.0781486  37.3669241
 103.5519154  61.3077911  38.6504155  98.7687774  51.8003931  45.8390285
  98.5248705  52.5545991  45.3024561  99.0447704  52.1789278  46.6737532
 100.7226236  58.3442543  44.5167551 100.9343132  58.9874303  43.8401932
 100.6755985  57.5104860  44.0489481  98.3252465  50.9560364  41.4204123
  97.4636944  51.2541617  41.7120861  98.3514900  51.1730763  40.4885156
  95.1414035  59.5002554  37.8277929  95.6052380  59.7790257  37.0382551
  94.8770833  58.5985999  37.6451020  92.0338116  59.0474036  40.7657692
  92.6039473  59.4761304  40.1275177  92.6246228  58.7656621  41.4641878
  94.0782921  55.6225707  34.6367494  94.7806964  56.0746750  35.1041420
  93.7463549  54.9809526  35.2647387  92.5263282  54.2137463  49.0118703
  91.8961943  54.8953744  49.2454100  92.4199370  54.1020545  48.0671842
  87.8208255  53.8809259  39.9384628  87.0307309  54.1366788  39.4624738
  88.3119502  54.6957597  40.0436668 101.8372064  61.2214499  42.6889908
 102.6589508  60.8194686  42.4072590 101.8334467  61.1182733  43.6406024
  89.7723000  54.2453839  36.8968104  88.9754163  54.3572533  37.4151600
  89.5448592  54.5840491  36.0308995  95.6028668  60.7698542  44.8450619
  95.6673100  61.2318949  45.6808791  94.8939592  60.1395907  44.9732929
  86.1045958  54.1339750  42.3699618  86.3553996  55.0186760  42.6357194
  86.6405506  53.9544351  41.5974710 109.9278057  57.5653247  39.0374880
 109.1741766  56.9960645  38.8818884 110.0625599  57.5315912  39.9845515
  95.3176685  62.4366649  34.7129599  95.1822360  63.2818185  35.1414447
  95.8586498  62.6385927  33.9495533  91.8044025  48.5158229  51.3743954
  91.4110971  47.9624428  52.0491599  92.6210165  48.8268808  51.7650472
  88.7706083  59.9542087  35.2857524  89.2830603  60.7485338  35.4363089
  89.4228796  59.2568378  35.2191126  90.5800967  63.0707844  37.3680277
  90.7567596  63.9925808  37.1801261  91.3757801  62.7566263  37.7974657
  94.7211986  49.9316108  48.9664211  95.4621699  50.5323262  48.8868673
  94.9529909  49.1893746  48.4082254  89.8653324  55.1172476  47.2442441
  89.7506839  54.2157733  47.5449540  89.0097842  55.3636172  46.8927257
  96.9445162  63.0590216  48.8429941  96.5009016  62.2726595  48.5250846
  97.6062375  63.2469366  48.1773832  91.7032283  64.5886018  43.3690620
  92.2539708  64.4603081  42.5967614  90.8643759  64.8880907  43.0185513
  99.0426400  63.3393016  46.8711343  99.0244875  64.1601897  46.3791612
  99.9646320  63.2147091  47.0961484  95.4999454  60.8537145  47.7134851
  96.0327791  60.0925434  47.4834159  94.9713535  60.5610797  48.4559005
  98.6669149  45.9597211  43.2428493  98.3233418  46.8498853  43.1667603
  99.0348112  45.7698869  42.3798078  86.7355000  58.2830742  36.0617095
  87.5730222  58.6927750  35.8450803  86.9133267  57.3430184  36.0317289
  98.6319432  55.9505822  31.7500928  98.1166055  56.7210427  31.9889315
  98.3596740  55.2770959  32.3733989  96.2166543  50.7955523  36.8086166
  95.3608139  50.4062374  36.6291805  96.6293494  50.8747484  35.9485952
  97.7465689  48.3301866  41.2077726  97.2430485  48.2932002  40.3945531
  98.0396296  49.2394609  41.2674383  93.9908575  48.4140596  40.2143908
  94.8561572  48.2183405  39.8549797  94.0586084  48.1850948  41.1413264
 103.6053706  58.7038177  33.6854101 102.8283149  58.3649337  33.2409263
 104.2845187  58.7090800  33.0109066  98.4205735  53.8232915  33.5760709
  98.1155870  54.1379064  34.4270852  99.3736177  53.9014334  33.6188042
  96.8652167  59.9823138  35.2253663  96.3373528  59.2475897  34.9126900
  96.3639669  60.7597814  34.9793631 101.8445013  58.1772158  40.3420709
 101.1868687  58.8671420  40.4300838 102.6485412  58.5668590  40.6854696
  91.5970894  50.6442804  37.5860274  92.1714646  50.4217986  36.8533467
  92.1841877  50.7131499  38.3388876 100.6550472  56.5316531  38.3924651
 101.1682353  57.1646523  38.8946361 101.3051695  55.9317727  38.0268011
  91.9240481  52.6747265  31.6056160  91.0877794  53.0121952  31.9265434
  91.7845251  52.5396245  30.6683297  93.8993562  47.5184053  36.3135344
  93.2457974  47.2033070  35.6891959  93.8574036  46.8959793  37.0395167
  95.0104767  57.8003348  28.2288636  94.1031829  57.5692602  28.4279785
  95.5075799  57.0040967  28.4162617  97.9172846  66.5100855  31.1485322
  97.2434545  66.8132552  31.7570280  98.3038668  67.3129936  30.7990779
  97.1331302  54.0065987  40.6382991  96.2153864  54.2280934  40.4804680
  97.5491446  54.0812297  39.7794699  97.9166350  55.4057402  35.7685672
  98.6638169  55.9178799  35.4592794  98.1857940  55.0841455  36.6290065
  96.1893000  57.9015943  32.7512626  95.2804220  57.6174976  32.8485096
  96.2188084  58.3215022  31.8915933 101.4212268  61.5122532  36.5203794
 100.9674595  60.6713442  36.5768984 100.7906234  62.1483931  36.8578574
 100.3645187  52.4414519  37.7504461  99.6267944  51.9291905  38.0814704
 100.6171961  52.0014900  36.9387738  99.8645207  63.3499029  37.4553612
 100.1568181  63.9104086  36.7365977 100.3743828  63.6427590  38.2106771
 100.4656815  45.2190771  38.3446230 100.7715691  44.3588134  38.0572145
 101.1909419  45.8108391  38.1445224  86.7581171  55.6221457  36.7327828
  86.5605571  55.0290818  36.0078895  86.2027835  55.3173667  37.4503767
  94.7377894  55.5144564  38.8522421  94.7926504  54.5618400  38.7764898
  93.9269096  55.6704003  39.3363720  95.8869088  59.4424687  30.0900705
  95.4488518  58.7260546  29.6306342  96.6279529  59.6700801  29.5285796
  92.6770254  54.1321623  36.6112800  91.8638120  54.4315794  37.0177992
  93.1729248  53.7377312  37.3287283  94.8278832  64.1279380  38.5447065
  94.7855011  64.3540227  37.6155597  95.7441531  63.8942755  38.6932866
  98.2744466  54.5963448  45.4427694  98.6293854  54.8234921  46.3022160
  98.9216597  54.9281825  44.8204949 104.0042203  57.7181884  36.1477023
 103.8660102  57.9083480  35.2198212 103.6478422  58.4801267  36.6045074
  92.1684329  51.7039979  42.2274035  92.8083708  51.5628738  41.5296999
  91.3361860  51.4174492  41.8512637 104.0311583  59.7858411  41.1588295
 104.4648089  59.6933700  42.0071349 104.7443163  59.7615911  40.5208311
  92.9444633  61.0042409  38.3409028  93.7385231  60.5092729  38.1391603
  92.2336325  60.4760272  37.9776733  97.7639477  63.3860505  42.6921395
  97.8176500  63.9551441  43.4599111  96.8954259  63.5562390  42.3275432
  89.2527396  55.1485491  34.4168780  88.3224985  55.0869946  34.6338742
  89.3484868  54.6261444  33.6205422  89.1712945  51.6740304  37.0047022
  89.4319763  52.5885637  36.8956182  89.9930118  51.2064746  37.1543635
  90.6437871  53.0878061  44.1745847  91.3160924  52.8795423  43.5258495
  89.8167657  52.8900147  43.7351079 104.8927132  59.8282111  43.6921180
 105.0863022  60.7327922  43.9380455 104.7927750  59.3689530  44.5259765
  96.5463443  49.7140002  46.1911507  95.8991358  50.4129952  46.0975984
  97.3164458  50.1476146  46.5587756  99.9542241  59.9788854  49.2662061
  99.8027747  59.7499406  48.3492144  99.9446920  60.9359456  49.2793406
  96.7227577  57.5520767  44.2508327  97.6519637  57.7031926  44.0777294
  96.3018607  57.6404788  43.3956974  95.5215909  61.5771431  42.0206865
  95.3826995  61.2090216  42.8932803  94.7330505  62.0919071  41.8490823
  96.1164061  66.6780528  33.3632401  96.2915817  66.2068571  34.1778024
  95.4296849  67.3046294  33.5913662  97.0721124  60.9553034  39.4095703
  96.7370957  60.9153804  40.3053352  96.5725070  60.2897750  38.9366113
  91.0465368  56.3620664  44.9348284  90.9085166  55.6300903  45.5359823
  91.9570292  56.2729564  44.6532471 100.0080316  58.3009068  29.6832762
  99.3909486  57.5755896  29.5865815  99.5396804  59.0618429  29.3399836
  93.6747669  56.0740623  44.4231963  94.3847287  55.4333816  44.3818582
  93.6316977  56.3253518  45.3458144 101.6634447  63.0107977  47.3438543
 101.6046994  62.3267197  46.6769126 102.0653966  63.7526967  46.8919169
  92.3876603  53.0605841  46.2427603  91.8513960  52.6096580  46.8949199
  91.7993311  53.1951750  45.4998067  90.6825146  69.8269890  40.1372261
  90.9221744  70.4588415  40.8151280  89.8394343  69.4757931  40.4237621
  91.7978862  52.5194493  28.8054066  90.9208328  52.3983293  28.4416313
  92.2736615  51.7280571  28.5532955 101.6651855  60.9747561  45.5752522
 100.7778633  60.6373482  45.6978921 102.2350406  60.2430592  45.8121288
  83.3181002  57.3071652  38.8995574  84.0052042  56.9933382  38.3116589
  83.1629130  58.2113017  38.6262825  88.1215724  52.1961849  43.3280597
  88.0373913  51.5887518  42.5931007  87.2998430  52.6870867  43.3290094
  95.1953008  65.6349013  42.5413765  95.1223180  66.4403984  43.0533070
  94.7530401  65.8340979  41.7161787  94.9842788  64.8720783  36.0516587
  94.2010310  65.4142463  36.1454812  95.6835533  65.3894763  36.4510828
  98.2939438  50.6815412  38.6950792  98.7908137  49.9285375  38.3751863
  97.5226419  50.7179729  38.1294002 106.1469195  56.3855778  40.3369084
 106.1359071  57.2680493  39.9663017 105.2786575  56.0327329  40.1423621
  97.6551692  65.5335847  44.6971924  98.3679664  66.1683312  44.6247826
  97.1641720  65.6299713  43.8811926  99.3769218  59.4387100  36.2689216
  98.4425497  59.5588562  36.0993920  99.5545887  58.5359566  36.0049226
  94.8774407  52.8232795  38.4222477  94.5072194  52.2703836  39.1103383
  95.3733499  52.2190929  37.8697477 102.7641770  55.2804419  36.8039250
 103.2302222  56.1132411  36.7299553 103.2149270  54.8149400  37.5084508
  92.7063605  63.2830290  45.5177495  93.4073065  63.9166773  45.6706889
  92.2358720  63.6245022  44.7573134 100.8318001  61.6248240  33.8025402
 101.1077845  61.5104835  34.7119276  99.9622500  61.2265725  33.7637575
 100.7358433  47.6485006  40.8430151  99.8221512  47.8789233  41.0112358
 101.1651534  47.7323450  41.6944184 100.5064891  55.8374898  43.3430045
  99.8536341  56.0850805  42.6882498 100.8845271  55.0239036  43.0092523
  97.4672065  65.8734591  37.4458216  97.6494459  65.0556247  37.9085968
  98.2905051  66.0902283  37.0083106  97.8014230  64.8002776  34.7073264
  98.3301997  64.2895231  34.0943426  98.0642450  64.4845306  35.5718797
  96.5552464  56.5794709  49.8296082  95.8793101  56.4788838  50.4998458
  97.3780098  56.4233923  50.2932080  88.3031323  62.8166645  42.4508598
  88.8884760  62.0710333  42.5836502  88.1056162  63.1270602  43.3345262
  91.1569978  65.8517893  37.4671040  90.4880354  66.3364020  36.9835080
  91.0182848  66.0987113  38.3814419  82.8948978  55.3872246  41.1713041
  82.9333077  54.8535836  41.9650159  82.3889271  54.8607451  40.5524018
  95.2975247  67.8861636  44.0653698  95.8493555  68.0493258  44.8302784
  95.6381440  68.4766074  43.3933723  90.2739740  50.2336786  44.6675583
  90.3381067  51.0951617  44.2552981  90.2106860  49.6210788  43.9347942
  89.7492013  52.3059919  48.3148617  90.3764052  51.9236996  48.9286142
  88.8919932  52.0874121  48.6804310 100.1486121  62.7122894  49.9202353
 100.6926025  63.3252852  49.4257308  99.5672966  63.2702472  50.4369366
  86.5257556  54.1136348  34.2466972  86.8210997  53.2047026  34.1934026
  85.6245591  54.0924087  33.9247974  98.4343634  65.8343612  41.0517381
  98.3094774  65.0333352  40.5428326  99.0922725  66.3289805  40.5631350
  90.0551803  52.1892344  40.2294521  89.3338388  52.8028312  40.0901994
  90.8445058  52.7250109  40.1511167 100.4978543  63.6352632  42.6796931
  99.5508878  63.5157983  42.6075257 100.8461316  62.7475130  42.7623192
  92.8578116  49.5246771  46.5035173  93.3812518  49.7709067  47.2661482
  92.6390449  50.3566806  46.0838310  88.2545397  51.7950445  34.3706297
  87.9258103  50.9147824  34.1881403  88.6084768  51.7398114  35.2582687
  97.5024976  63.4305348  38.8801283  97.3549938  62.5022056  39.0608853
  98.3278469  63.4525439  38.3958358  91.3687220  52.0823415  34.7381775
  91.7083293  52.6109337  34.0160383  91.8159341  52.4203821  35.5140342
 101.1059098  64.2533907  39.9666156 102.0305645  64.0476768  39.8290607
 100.9374401  64.0050308  40.8755497  94.0630661  50.4660466  44.1884843
  93.7227481  49.6668279  44.5905523  93.3569667  50.7662177  43.6161676
  94.7147133  47.5509778  42.6412166  95.5373202  47.0770257  42.5191056
  94.9585196  48.3300262  43.1410852  93.3555367  50.5798037  32.9375068
  94.0763730  50.9579290  32.4338785  92.7320672  51.2986914  33.0410046
  97.4986490  51.2843186  33.8733400  97.7150105  52.1667824  33.5722228
  97.0180557  50.8929399  33.1439042  92.2385712  54.2428899  40.4504145
  92.0930292  54.5569202  41.3428426  91.7610915  54.8613799  39.8975043
  94.0982095  51.2331447  40.4985034  94.0843663  50.3372540  40.1617332
  94.8154523  51.2402111  41.1323320  95.9508225  51.6668787  42.5438162
  95.6926003  52.5885858  42.5422492  95.4193266  51.2699222  43.2338626
 100.8954414  64.7719574  35.3228247 101.0691292  64.2065997  34.5702099
 101.3883305  65.5720469  35.1407737  86.7131374  56.7834243  43.3891806
  86.1684842  57.5594051  43.5212080  87.5910724  57.1305048  43.2310927
  93.5018990  50.1145827  35.7672604  93.6234902  49.1862474  35.9663492
  93.2121033  50.1284513  34.8550920  96.3710181  47.8000738  38.9039324
  96.3931878  47.8640071  37.9491304  96.7878240  46.9605246  39.0979830
 106.7493805  57.5355997  36.9418547 107.1924951  56.7863323  36.5437670
 105.8720315  57.5266134  36.5592279 101.8829586  64.0886339  32.4225145
 102.5780491  64.7093031  32.6412460 102.2252737  63.2381690  32.6977523
  87.4997396  55.9104140  46.2821963  86.7579132  56.0586775  46.8686593
  87.1790140  56.1712405  45.4188712 103.7821010  61.5386044  33.9512476
 104.3072334  61.8773317  33.2261796 103.6943362  60.6033060  33.7675611
  95.4441058  65.4520118  46.0802353  95.7528185  65.2069265  46.9525052
  96.2416540  65.6566756  45.5921223  95.4661670  67.6058028  38.3107729
  95.0266661  67.1134406  39.0040586  96.2169787  67.0630995  38.0699805
  87.9454009  63.7969568  38.3132357  88.7712029  63.4973340  37.9331001
  87.5948061  63.0277191  38.7622146  92.9135543  63.1496037  40.3830031
  92.2915552  62.4866742  40.0832259  93.5840409  63.1757169  39.7003679
  86.1462614  61.7155895  39.2721291  85.3094523  61.2878069  39.0905292
  86.1186260  61.9088338  40.2092082  92.9860070  51.6277825  49.9762537
  93.0348225  52.5039948  49.5940307  93.5282584  51.0855218  49.4034180
 103.4714916  62.1718948  49.2563674 102.6810459  62.1543087  48.7168173
 103.2348270  62.7107242  50.0112711 103.5912791  59.0211414  46.5696403
 103.6410796  58.8561422  47.5111925 103.4826714  58.1538673  46.1794283
  92.4749049  61.6999960  33.8588491  92.6237170  62.3835424  33.2055164
  93.2815493  61.6805050  34.3737947 100.8816553  55.0042342  47.8855709
 101.7826416  54.8648807  47.5939707 100.9564528  55.1696797  48.8253887
  95.2159358  52.3809197  46.7308896  94.3462668  52.6742763  46.4591484
  95.4518839  52.9649642  47.4516159 105.0930988  61.4408356  46.8138424
 104.8015796  61.8038336  47.6501885 104.4803119  60.7275364  46.6351756
 106.2926670  59.0061236  39.3340994 107.1273561  59.4451040  39.4978555
 106.4285799  58.5299889  38.5149240 103.3418176  56.5640970  45.2818482
 103.8172297  56.7568617  44.4737333 102.4183741  56.6200156  45.0361866
  90.2301682  57.7265138  34.8649560  89.9847724  56.8227468  35.0629771
  90.3997597  57.7282288  33.9229038  97.9198392  48.5988814  44.2474316
  98.4380336  49.3349841  43.9220805  97.5653525  48.9052807  45.0821075
  89.4997330  53.4593495  32.3635722  88.8066575  53.5337850  31.7075758
  89.2549082  52.6953839  32.8857239  98.1710986  45.0189097  39.7675213
  98.4512740  44.3512286  40.3935639  98.9561593  45.2118192  39.2549876
  95.9744455  64.1948090  31.3300239  95.4018422  64.8138278  30.8770711
  96.5477249  64.7447452  31.8640161 102.0419845  53.4406731  43.5146788
 102.9937268  53.5404828  43.5359012 101.8723295  52.6484999  44.0244872
 100.0634224  50.5262314  43.7006189  99.4684156  50.8067327  43.0052677
  99.7783921  51.0156215  44.4722930  99.1941715  64.4785241  32.4608821
 100.1272388  64.4130802  32.6641697  99.1064928  65.3141507  32.0023354
 101.8229731  63.7951111  29.4212769 101.7443363  63.4610975  30.3148527
 102.6439398  64.2872879  29.4204241 104.5207923  56.6612850  42.6289087
 104.4884243  55.7228851  42.8148771 105.1308546  56.7396887  41.8954912
  96.3591253  55.5308903  28.6716291  97.3050358  55.4015111  28.7404709
  95.9805498  54.7923565  29.1485720 104.6702411  53.4523894  42.6747371
 104.1541460  52.6682350  42.4877299 105.5542360  53.1242610  42.8393890
 102.3313138  47.1964909  38.6343183 102.1337959  46.8879997  39.5186515
 102.9412844  47.9226548  38.7641113 110.3384472  57.7228857  41.7695124
 111.0687861  57.4614145  42.3302827 109.7291418  56.9857579  41.8097192
 108.4199770  55.8636720  42.3669575 107.6932933  55.7292685  41.7586067
 108.0047056  56.1713548  43.1726293  96.2429946  59.5826649  50.1316948
  97.1632955  59.7605248  50.3256995  96.2079529  58.6382695  49.9796648
  94.5434171  53.4558880  28.6071177  93.6365626  53.1591992  28.6833890
  94.8210152  53.1588698  27.7405463  85.4612111  54.7765243  39.0570223
  85.1414895  53.9230551  38.7644597  84.9145539  54.9913821  39.8128190
  89.2392019  57.4927684  42.7739730  89.4578028  58.4244792  42.7927763
  89.6517792  57.1335658  43.5594533  96.1596236  47.9995769  34.7615418
  95.3496965  47.6542854  35.1370664  96.8480653  47.6903313  35.3503029
  98.0886785  47.0773816  36.3839715  98.6417823  47.4969270  37.0429738
  98.3256871  46.1509564  36.4262671  94.1119884  53.0660890  52.1642478
  94.0116611  54.0155247  52.0954570  93.8941426  52.7379129  51.2918549
  93.3132955  50.3145815  28.7483156  94.1752119  50.6400713  29.0078973
  93.4983299  49.5277311  28.2356222  85.3300371  58.3968155  41.0263345
  84.6363842  57.9822107  40.5133299  86.0773362  58.4388691  40.4296764
 101.4665592  49.1874341  35.8918379 100.8864261  49.8459145  35.5096431
 101.2001524  48.3651686  35.4805796  99.9169158  48.5879399  38.0939699
 100.4168936  48.6995934  37.2854018 100.5604766  48.2840452  38.7340508
  93.9751154  56.4958029  50.9807540  93.4918236  57.2958389  51.1871429
  94.0612093  56.5065973  50.0274984  87.2437114  58.3286408  38.9029359
  87.2207802  58.4274096  37.9511243  87.5537750  59.1751559  39.2246526
  89.9024491  60.3862563  43.0175974  90.8567745  60.3546506  42.9505905
  89.7037015  59.9253187  43.8326200  90.4923874  58.9563679  45.5846772
  91.3116763  59.4507758  45.6081609  90.7660681  58.0395648  45.5564339
 100.2490470  51.3474432  34.9474727  99.3616325  51.6324082  34.7294922
 100.6644459  51.1868195  34.1002004 103.6005006  51.3720953  38.6629066
 104.3765396  51.8617405  38.9353683 102.8753140  51.7979007  39.1200936
 106.0377564  52.0848572  39.7203007 106.6322055  51.8444308  39.0096315
 106.1104148  51.3655702  40.3476543  88.2574720  65.9282183  40.0346172
  88.1229188  65.1682584  39.4684170  87.8406782  66.6523083  39.5674961
  99.3933683  61.1119106  29.0422747 100.0969533  61.3169109  29.6580403
  98.6696332  61.6795868  29.3071831 100.2231493  56.8628968  35.1625017
 100.1666695  57.3197519  34.3232650 100.7759836  56.1019652  34.9847860
 104.0336299  52.6518699  35.9875137 103.7773234  52.2515335  36.8183344
 103.4089167  53.3662493  35.8625276 108.3448637  55.3914773  38.4946428
 107.7848195  55.4607962  39.2677990 107.7392141  55.2155757  37.7745924
  91.4143846  66.8251500  40.2464614  91.2976230  67.7696932  40.1443305
  90.5936292  66.5225061  40.6350414 101.3020381  61.5501636  31.0921207
 102.1365985  61.1182834  30.9098682 101.1404724  61.3783649  32.0198102
 100.9566273  58.0533749  32.4577546 100.9015077  57.8878020  31.5165991
 100.3312328  58.7609782  32.6139736  85.7458788  53.2901813  46.2838969
  86.3917651  52.7800767  46.7726194  85.5375939  54.0270495  46.8582394
  98.2712180  60.3582661  51.7831109  99.1403340  60.5323313  51.4217744
  97.7918931  61.1777078  51.6606839  94.2662398  47.5541858  32.0362865
  94.2541068  48.4983698  32.1931136  95.1585820  47.3712003  31.7422326
  92.4398360  67.4779762  43.4620543  93.3425607  67.5103372  43.7787038
  92.2135730  66.5480213  43.4766879  94.1951962  66.2310748  40.1230621
  93.2447593  66.2312610  40.0094994  94.4984448  65.4843483  39.6066656
  98.0814518  44.1484635  36.2908802  97.3146913  43.5943121  36.4365484
  98.4925223  44.2206503  37.1522953  90.0856279  50.4369430  50.3813983
  90.9487740  50.0806235  50.5917307  89.5121689  50.0983325  51.0689387
 109.9304656  72.0671287  41.1876384 110.5683066  71.9478034  40.4839724
 109.8125499  73.0152131  41.2464336 106.7394362  72.0198715  41.1237909
 106.4012873  71.9039779  40.2358443 107.6084130  71.6189880  41.1038915
 102.5981178  73.8734191  37.1134800 102.0346043  73.7824128  36.3451087
 102.4833573  73.0534096  37.5937292 107.2214145  73.1733566  47.0824114
 107.2102786  72.7786365  46.2104618 107.3834784  72.4399639  47.6757886
 100.1445610  75.3685383  39.9519020 100.9366902  75.0276207  39.5365319
 100.3842260  75.4780358  40.8721173 108.1780736  77.5405159  32.4249264
 107.5268716  78.1259239  32.0383278 108.9725099  78.0711354  32.4844302
 102.1036364  74.6294296  32.8236399 102.8767240  74.0823283  32.6849275
 102.4561762  75.4938545  33.0350860 103.9421406  75.9570678  46.0303298
 103.6511272  76.8616309  45.9149964 104.5778390  75.9987206  46.7447368
 104.8677613  73.3347527  42.6204658 105.4641185  73.1103549  41.9061621
 104.9252584  72.5932272  43.2230106 104.4402641  70.7886962  30.4554849
 104.6928162  70.2668483  29.6938312 103.5027200  70.6253108  30.5581532
 109.4845924  69.7922741  38.2629592 110.2709013  69.3742164  37.9120009
 109.7484628  70.6968833  38.4311240 109.6556002  75.2295591  32.9618249
 109.0201834  75.3030217  33.6739153 109.3253408  75.8189190  32.2837328
 114.8854351  69.7297974  39.1662570 115.6179523  69.1597191  39.4000400
 114.1293707  69.3419574  39.6069076 104.1598930  72.6915068  32.6579224
 104.0435188  72.0159971  33.3260308 104.2701190  72.2047442  31.8411377
 106.5030471  72.1525215  36.3625913 106.1388678  71.6255836  37.0738834
 107.3597587  71.7623684  36.1892398 112.4079772  63.4419548  43.6257179
 112.0763096  64.3114959  43.4018394 111.8125385  63.1255832  44.3051209
 106.1435958  67.1815115  31.3587261 106.3110360  68.0495351  31.7257732
 105.9533127  67.3442397  30.4348551 108.9011291  75.6432094  43.0253092
 108.6012014  76.5457133  42.9168899 108.5562351  75.3764277  43.8774245
 102.3523773  72.0945891  39.0589796 101.4274269  71.9622105  39.2667488
 102.6008186  72.8740110  39.5559739 112.3008435  68.1614634  40.7050529
 111.3925312  68.0930042  40.4109290 112.2496031  68.6386579  41.5332355
 106.1225179  69.6372772  32.3433928 106.0024804  70.0829823  33.1819408
 105.4277767  69.9858090  31.7847466  99.7132584  71.7379164  39.8933585
  99.8424965  71.9913643  40.8072997  99.0330035  72.3306872  39.5738240
 103.8832071  82.4076414  35.9924059 103.8056101  83.3584239  36.0712540
 103.2793715  82.0622287  36.6498986 106.3749301  69.5804280  48.6485426
 105.5982635  70.1398200  48.6388291 107.0139864  70.0661063  49.1700296
 114.1670081  66.3631072  42.4828403 113.5244462  66.6563606  41.8368198
 113.6625010  66.2483993  43.2881600 111.8210245  70.1094246  33.1714262
 112.7328101  70.3421632  32.9961960 111.3119892  70.6931290  32.6089341
 104.6295673  72.3889733  48.2103393 105.3710357  72.9274777  47.9338217
 103.9232659  73.0156022  48.3674945 110.1051013  74.5318873  46.8075555
 110.5134369  74.0901284  46.0630187 109.3828274  73.9571501  47.0609748
 106.4582083  69.4691480  44.1809112 107.3043278  69.8930894  44.3243761
 106.3980720  68.8125105  44.8747675 110.4279827  75.0920064  40.5627844
 109.7988690  75.2565778  39.8603912 110.0405489  75.5061674  41.3338808
 114.3069059  76.0274502  37.9172207 113.6220097  76.4073403  37.3669241
 114.3912909  76.6369829  38.6504155 109.6081528  67.1295849  45.8390285
 109.3642460  67.8837909  45.3024561 109.8841459  67.5081196  46.6737532
 111.5619991  73.6734461  44.5167551 111.7736886  74.3166221  43.8401932
 111.5149739  72.8396777  44.0489481 109.1646220  66.2852282  41.4204123
 108.3030699  66.5833535  41.7120861 109.1908654  66.5022680  40.4885156
 105.9807789  74.8294472  37.8277929 106.4446135  75.1082175  37.0382551
 105.7164587  73.9277917  37.6451020 102.8731870  74.3765954  40.7657692
 103.4433227  74.8053222  40.1275177 103.4639982  74.0948538  41.4641878
 104.9176675  70.9517625  34.6367494 105.6200719  71.4038668  35.1041420
 104.5857304  70.3101443  35.2647387 103.3657037  69.5429381  49.0118703
 102.7355697  70.2245662  49.2454100 103.2593125  69.4312463  48.0671842
  98.6602009  69.2101177  39.9384628  97.8701063  69.4658706  39.4624738
  99.1513257  70.0249515  40.0436668 112.6765819  76.5506416  42.6889908
 113.4983263  76.1486604  42.4072590 112.6728222  76.4474651  43.6406024
 100.6116755  69.5745756  36.8968104  99.8147918  69.6864451  37.4151600
 100.3842347  69.9132409  36.0308995 106.4422422  76.0990460  44.8450619
 106.5066855  76.5610867  45.6808791 105.7333346  75.4687825  44.9732929
  96.9439712  69.4631668  42.3699618  97.1947751  70.3478678  42.6357194
  97.4799261  69.2836269  41.5974710 120.7671812  72.8945165  39.0374880
 120.0135520  72.3252563  38.8818884 120.9019353  72.8607829  39.9845515
 106.1570440  77.7658567  34.7129599 106.0216115  78.6110103  35.1414447
 106.6980252  77.9677845  33.9495533 102.6437780  63.8450147  51.3743954
 102.2504725  63.2916346  52.0491599 103.4603920  64.1560725  51.7650472
  99.6099837  75.2834005  35.2857524 100.1224358  76.0777255  35.4363089
 100.2622550  74.5860296  35.2191126 101.4194722  78.3999761  37.3680277
 101.5961350  79.3217726  37.1801261 102.2151556  78.0858181  37.7974657
 105.5605741  65.2608026  48.9664211 106.3015454  65.8615179  48.8868673
 105.7923663  64.5185664  48.4082254 100.7047079  70.4464393  47.2442441
 100.5900594  69.5449651  47.5449540  99.8491596  70.6928090  46.8927257
 107.7838916  78.3882134  48.8429941 107.3402770  77.6018512  48.5250846
 108.4456130  78.5761284  48.1773832 102.5426037  79.9177935  43.3690620
 103.0933463  79.7894999  42.5967614 101.7037513  80.2172824  43.0185513
 109.8820154  78.6684934  46.8711343 109.8638630  79.4893815  46.3791612
 110.8040074  78.5439009  47.0961484 106.3393209  76.1829063  47.7134851
 106.8721545  75.4217351  47.4834159 105.8107290  75.8902715  48.4559005
 109.5062903  61.2889129  43.2428493 109.1627173  62.1790771  43.1667603
 109.8741866  61.0990787  42.3798078  97.5748754  73.6122659  36.0617095
  98.4123976  74.0219668  35.8450803  97.7527022  72.6722102  36.0317289
 109.4713186  71.2797740  31.7500928 108.9559810  72.0502345  31.9889315
 109.1990495  70.6062876  32.3733989 107.0560297  66.1247441  36.8086166
 106.2001894  65.7354291  36.6291805 107.4687249  66.2039402  35.9485952
 108.5859444  63.6593784  41.2077726 108.0824239  63.6223919  40.3945531
 108.8790051  64.5686527  41.2674383 104.8302330  63.7432514  40.2143908
 105.6955327  63.5475323  39.8549797 104.8979839  63.5142866  41.1413264
 114.4447460  74.0330095  33.6854101 113.6676903  73.6941254  33.2409263
 115.1238941  74.0382718  33.0109066 109.2599489  69.1524832  33.5760709
 108.9549625  69.4670981  34.4270852 110.2129931  69.2306252  33.6188042
 107.7045921  75.3115056  35.2253663 107.1767283  74.5767815  34.9126900
 107.2033424  76.0889732  34.9793631 112.6838767  73.5064076  40.3420709
 112.0262442  74.1963337  40.4300838 113.4879166  73.8960508  40.6854696
 102.4364649  65.9734722  37.5860274 103.0108401  65.7509903  36.8533467
 103.0235631  66.0423416  38.3388876 111.4944226  71.8608449  38.3924651
 112.0076108  72.4938441  38.8946361 112.1445450  71.2609644  38.0268011
 102.7634236  68.0039183  31.6056160 101.9271548  68.3413869  31.9265434
 102.6239006  67.8688163  30.6683297 104.7387317  62.8475971  36.3135344
 104.0851729  62.5324988  35.6891959 104.6967791  62.2251711  37.0395167
 105.8498521  73.1295266  28.2288636 104.9425583  72.8984519  28.4279785
 106.3469553  72.3332885  28.4162617 108.7566600  81.8392773  31.1485322
 108.0828299  82.1424470  31.7570280 109.1432422  82.6421853  30.7990779
 107.9725057  69.3357904  40.6382991 107.0547618  69.5572851  40.4804680
 108.3885201  69.4104215  39.7794699 108.7560105  70.7349320  35.7685672
 109.5031924  71.2470717  35.4592794 109.0251694  70.4133373  36.6290065
 107.0286755  73.2307861  32.7512626 106.1197974  72.9466893  32.8485096
 107.0581839  73.6506939  31.8915933 112.2606022  76.8414450  36.5203794
 111.8068349  76.0005360  36.5768984 111.6299989  77.4775849  36.8578574
 111.2038942  67.7706436  37.7504461 110.4661699  67.2583822  38.0814704
 111.4565715  67.3306818  36.9387738 110.7038961  78.6790947  37.4553612
 110.9961936  79.2396004  36.7365977 111.2137582  78.9719508  38.2106771
 111.3050569  60.5482688  38.3446230 111.6109446  59.6880052  38.0572145
 112.0303174  61.1400308  38.1445224  97.5974925  70.9513375  36.7327828
  97.3999325  70.3582735  36.0078895  97.0421589  70.6465585  37.4503767
 105.5771649  70.8436481  38.8522421 105.6320259  69.8910318  38.7764898
 104.7662851  70.9995920  39.3363720 106.7262843  74.7716604  30.0900705
 106.2882273  74.0552463  29.6306342 107.4673283  74.9992719  29.5285796
 103.5164009  69.4613541  36.6112800 102.7031874  69.7607712  37.0177992
 104.0123003  69.0669230  37.3287283 105.6672587  79.4571298  38.5447065
 105.6248765  79.6832144  37.6155597 106.5835286  79.2234673  38.6932866
 109.1138220  69.9255365  45.4427694 109.4687608  70.1526839  46.3022160
 109.7610352  70.2573742  44.8204949 114.8435957  73.0473801  36.1477023
 114.7053856  73.2375397  35.2198212 114.4872176  73.8093184  36.6045074
 103.0078084  67.0331897  42.2274035 103.6477463  66.8920656  41.5296999
 102.1755614  66.7466410  41.8512637 114.8705337  75.1150328  41.1588295
 115.3041844  75.0225617  42.0071349 115.5836918  75.0907829  40.5208311
 103.7838387  76.3334327  38.3409028 104.5778986  75.8384647  38.1391603
 103.0730080  75.8052190  37.9776733 108.6033232  78.7152422  42.6921395
 108.6570254  79.2843359  43.4599111 107.7348013  78.8854308  42.3275432
 100.0921151  70.4777409  34.4168780  99.1618739  70.4161864  34.6338742
 100.1878623  69.9553361  33.6205422 100.0106700  67.0032222  37.0047022
 100.2713517  67.9177555  36.8956182 100.8323872  66.5356664  37.1543635
 101.4831625  68.4169979  44.1745847 102.1554679  68.2087341  43.5258495
 100.6561412  68.2192065  43.7351079 115.7320887  75.1574029  43.6921180
 115.9256777  76.0619840  43.9380455 115.6321505  74.6981448  44.5259765
 107.3857197  65.0431920  46.1911507 106.7385112  65.7421869  46.0975984
 108.1558213  65.4768064  46.5587756 110.7935995  75.3080772  49.2662061
 110.6421502  75.0791323  48.3492144 110.7840675  76.2651373  49.2793406
 107.5621332  72.8812685  44.2508327 108.4913392  73.0323844  44.0777294
 107.1412362  72.9696705  43.3956974 106.3609663  76.9063349  42.0206865
 106.2220749  76.5382133  42.8932803 105.5724260  77.4210988  41.8490823
 106.9557815  82.0072445  33.3632401 107.1309571  81.5360489  34.1778024
 106.2690603  82.6338212  33.5913662 107.9114879  76.2844952  39.4095703
 107.5764711  76.2445722  40.3053352 107.4118824  75.6189668  38.9366113
 101.8859123  71.6912582  44.9348284 101.7478920  70.9592820  45.5359823
 102.7964046  71.6021482  44.6532471 110.8474070  73.6300986  29.6832762
 110.2303241  72.9047814  29.5865815 110.3790559  74.3910346  29.3399836
 104.5141423  71.4032541  44.4231963 105.2241042  70.7625733  44.3818582
 104.4710731  71.6545436  45.3458144 112.5028202  78.3399894  47.3438543
 112.4440748  77.6559114  46.6769126 112.9047720  79.0818884  46.8919169
 103.2270357  68.3897759  46.2427603 102.6907714  67.9388497  46.8949199
 102.6387066  68.5243668  45.4998067 101.5218901  85.1561808  40.1372261
 101.7615499  85.7880332  40.8151280 100.6788097  84.8049848  40.4237621
 102.6372616  67.8486410  28.8054066 101.7602082  67.7275211  28.4416313
 103.1130369  67.0572489  28.5532955 112.5045609  76.3039478  45.5752522
 111.6172388  75.9665400  45.6978921 113.0744160  75.5722509  45.8121288
  94.1574756  72.6363570  38.8995574  94.8445796  72.3225300  38.3116589
  94.0022885  73.5404935  38.6262825  98.9609478  67.5253767  43.3280597
  98.8767667  66.9179436  42.5931007  98.1392185  68.0162785  43.3290094
 106.0346763  80.9640931  42.5413765 105.9616934  81.7695902  43.0533070
 105.5924156  81.1632896  41.7161787 105.8236542  80.2012701  36.0516587
 105.0404064  80.7434381  36.1454812 106.5229287  80.7186680  36.4510828
 109.1333192  66.0107330  38.6950792 109.6301892  65.2577292  38.3751863
 108.3620174  66.0471647  38.1294002 116.9862950  71.7147696  40.3369084
 116.9752826  72.5972411  39.9663017 116.1180329  71.3619246  40.1423621
 108.4945446  80.8627765  44.6971924 109.2073418  81.4975229  44.6247826
 108.0035475  80.9591631  43.8811926 110.2162973  74.7679017  36.2689216
 109.2819252  74.8880480  36.0993920 110.3939641  73.8651484  36.0049226
 105.7168161  68.1524713  38.4222477 105.3465949  67.5995753  39.1103383
 106.2127254  67.5482847  37.8697477 113.6035524  70.6096337  36.8039250
 114.0695977  71.4424328  36.7299553 114.0543025  70.1441318  37.5084508
 103.5457360  78.6122208  45.5177495 104.2466819  79.2458691  45.6706889
 103.0752475  78.9536940  44.7573134 111.6711755  76.9540158  33.8025402
 111.9471599  76.8396752  34.7119276 110.8016254  76.5557643  33.7637575
 111.5752187  62.9776924  40.8430151 110.6615267  63.2081150  41.0112358
 112.0045289  63.0615368  41.6944184 111.3458646  71.1666816  43.3430045
 110.6930096  71.4142723  42.6882498 111.7239025  70.3530954  43.0092523
 108.3065819  81.2026509  37.4458216 108.4888214  80.3848165  37.9085968
 109.1298805  81.4194201  37.0083106 108.6407985  80.1294694  34.7073264
 109.1695751  79.6187148  34.0943426 108.9036205  79.8137224  35.5718797
 107.3946219  71.9086627  49.8296082 106.7186856  71.8080756  50.4998458
 108.2173852  71.7525840  50.2932080  99.1425078  78.1458563  42.4508598
  99.7278514  77.4002251  42.5836502  98.9449916  78.4562520  43.3345262
 101.9963733  81.1809811  37.4671040 101.3274108  81.6655938  36.9835080
 101.8576603  81.4279031  38.3814419  93.7342732  70.7164163  41.1713041
  93.7726832  70.1827754  41.9650159  93.2283025  70.1899369  40.5524018
 106.1369001  83.2153554  44.0653698 106.6887310  83.3785176  44.8302784
 106.4775195  83.8057992  43.3933723 101.1133495  65.5628704  44.6675583
 101.1774821  66.4243535  44.2552981 101.0500615  64.9502706  43.9347942
 100.5885767  67.6351836  48.3148617 101.2157806  67.2528914  48.9286142
  99.7313686  67.4166038  48.6804310 110.9879876  78.0414812  49.9202353
 111.5319780  78.6544770  49.4257308 110.4066721  78.5994390  50.4369366
  97.3651310  69.4428266  34.2466972  97.6604751  68.5338944  34.1934026
  96.4639346  69.4216005  33.9247974 109.2737389  81.1635530  41.0517381
 109.1488528  80.3625269  40.5428326 109.9316480  81.6581723  40.5631350
 100.8945557  67.5184262  40.2294521 100.1732143  68.1320230  40.0901994
 101.6838813  68.0542027  40.1511167 111.3372297  78.9644550  42.6796931
 110.3902633  78.8449901  42.6075257 111.6855070  78.0767048  42.7623192
 103.6971871  64.8538689  46.5035173 104.2206272  65.1000985  47.2661482
 103.4784204  65.6858723  46.0838310  99.0939152  67.1242363  34.3706297
  98.7651858  66.2439742  34.1881403  99.4478522  67.0690032  35.2582687
 108.3418730  78.7597266  38.8801283 108.1943693  77.8313973  39.0608853
 109.1672224  78.7817357  38.3958358 102.2080975  67.4115333  34.7381775
 102.5477047  67.9401254  34.0160383 102.6553095  67.7495739  35.5140342
 111.9452852  79.5825825  39.9666156 112.8699400  79.3768686  39.8290607
 111.7768156  79.3342226  40.8755497 104.9024416  65.7952384  44.1884843
 104.5621236  64.9960197  44.5905523 104.1963422  66.0954095  43.6161676
 105.5540887  62.8801696  42.6412166 106.3766957  62.4062174  42.5191056
 105.7978951  63.6592180  43.1410852 104.1949122  65.9089955  32.9375068
 104.9157484  66.2871207  32.4338785 103.5714426  66.6278831  33.0410046
 108.3380245  66.6135104  33.8733400 108.5543859  67.4959741  33.5722228
 107.8574312  66.2221317  33.1439042 103.0779466  69.5720817  40.4504145
 102.9324047  69.8861120  41.3428426 102.6004670  70.1905717  39.8975043
 104.9375849  66.5623365  40.4985034 104.9237418  65.6664458  40.1617332
 105.6548277  66.5694028  41.1323320 106.7901980  66.9960705  42.5438162
 106.5319758  67.9177776  42.5422492 106.2587020  66.5991139  43.2338626
 111.7348168  80.1011492  35.3228247 111.9085046  79.5357915  34.5702099
 112.2277060  80.9012387  35.1407737  97.5525128  72.1126161  43.3891806
  97.0078596  72.8885969  43.5212080  98.4304478  72.4596966  43.2310927
 104.3412745  65.4437745  35.7672604 104.4628656  64.5154391  35.9663492
 104.0514787  65.4576431  34.8550920 107.2103935  63.1292655  38.9039324
 107.2325632  63.1931989  37.9491304 107.6271994  62.2897164  39.0979830
 117.5887560  72.8647915  36.9418547 118.0318706  72.1155240  36.5437670
 116.7114070  72.8558051  36.5592279 112.7223341  79.4178256  32.4225145
 113.4174246  80.0384949  32.6412460 113.0646491  78.5673608  32.6977523
  98.3391150  71.2396057  46.2821963  97.5972886  71.3878693  46.8686593
  98.0183894  71.5004323  45.4188712 114.6214764  76.8677962  33.9512476
 115.1466088  77.2065235  33.2261796 114.5337117  75.9324977  33.7675611
 106.2834813  80.7812036  46.0802353 106.5921939  80.5361182  46.9525052
 107.0810295  80.9858674  45.5921223 106.3055425  82.9349945  38.3107729
 105.8660415  82.4426324  39.0040586 107.0563542  82.3922913  38.0699805
  98.7847764  79.1261486  38.3132357  99.6105784  78.8265258  37.9331001
  98.4341816  78.3569109  38.7622146 103.7529297  78.4787954  40.3830031
 103.1309306  77.8158659  40.0832259 104.4234164  78.5049086  39.7003679
  96.9856369  77.0447813  39.2721291  96.1488277  76.6169987  39.0905292
  96.9580014  77.2380256  40.2092082 103.8253824  66.9569742  49.9762537
 103.8741980  67.8331865  49.5940307 104.3676339  66.4147135  49.4034180
 114.3108670  77.5010866  49.2563674 113.5204214  77.4835004  48.7168173
 114.0742025  78.0399159  50.0112711 114.4306545  74.3503332  46.5696403
 114.4804550  74.1853339  47.5111925 114.3220469  73.4830591  46.1794283
 103.3142804  77.0291878  33.8588491 103.4630924  77.7127342  33.2055164
 104.1209247  77.0096968  34.3737947 111.7210308  70.3334260  47.8855709
 112.6220170  70.1940725  47.5939707 111.7958282  70.4988715  48.8253887
 106.0553113  67.7101115  46.7308896 105.1856422  68.0034681  46.4591484
 106.2912593  68.2941560  47.4516159 115.9324742  76.7700274  46.8138424
 115.6409550  77.1330254  47.6501885 115.3196873  76.0567282  46.6351756
 117.1320424  74.3353153  39.3340994 117.9667316  74.7742957  39.4978555
 117.2679553  73.8591807  38.5149240 114.1811930  71.8932888  45.2818482
 114.6566052  72.0860534  44.4737333 113.2577496  71.9492074  45.0361866
 101.0695437  73.0557055  34.8649560 100.8241479  72.1519385  35.0629771
 101.2391351  73.0574206  33.9229038 108.7592147  63.9280732  44.2474316
 109.2774091  64.6641759  43.9220805 108.4047280  64.2344725  45.0821075
 100.3391084  68.7885413  32.3635722  99.6460329  68.8629768  31.7075758
 100.0942836  68.0245757  32.8857239 109.0104741  60.3481014  39.7675213
 109.2906495  59.6804203  40.3935639 109.7955348  60.5410110  39.2549876
 106.8138209  79.5240008  31.3300239 106.2412177  80.1430195  30.8770711
 107.3871003  80.0739370  31.8640161 112.8813599  68.7698648  43.5146788
 113.8331022  68.8696746  43.5359012 112.7117050  67.9776917  44.0244872
 110.9027979  65.8554231  43.7006189 110.3077911  66.1359244  43.0052677
 110.6177675  66.3448132  44.4722930 110.0335469  79.8077158  32.4608821
 110.9666142  79.7422720  32.6641697 109.9458682  80.6433425  32.0023354
 112.6623486  79.1243029  29.4212769 112.5837117  78.7902892  30.3148527
 113.4833153  79.6164797  29.4204241 115.3601677  71.9904768  42.6289087
 115.3277997  71.0520769  42.8148771 115.9702301  72.0688805  41.8954912
 107.1985008  70.8600821  28.6716291 108.1444113  70.7307029  28.7404709
 106.8199253  70.1215483  29.1485720 115.5096166  68.7815811  42.6747371
 114.9935214  67.9974268  42.4877299 116.3936114  68.4534528  42.8393890
 113.1706892  62.5256827  38.6343183 112.9731714  62.2171915  39.5186515
 113.7806598  63.2518466  38.7641113 121.1778227  73.0520775  41.7695124
 121.9081615  72.7906063  42.3302827 120.5685172  72.3149497  41.8097192
 119.2593524  71.1928637  42.3669575 118.5326688  71.0584602  41.7586067
 118.8440811  71.5005466  43.1726293 107.0823700  74.9118567  50.1316948
 108.0026710  75.0897166  50.3256995 107.0473284  73.9674612  49.9796648
 105.3827925  68.7850797  28.6071177 104.4759380  68.4883910  28.6833890
 105.6603906  68.4880615  27.7405463  96.3005865  70.1057161  39.0570223
  95.9808650  69.2522469  38.7644597  95.7539294  70.3205739  39.8128190
 100.0785773  72.8219602  42.7739730 100.2971783  73.7536710  42.7927763
 100.4911547  72.4627576  43.5594533 106.9989991  63.3287687  34.7615418
 106.1890719  62.9834772  35.1370664 107.6874408  63.0195231  35.3503029
 108.9280539  62.4065734  36.3839715 109.4811578  62.8261187  37.0429738
 109.1650625  61.4801482  36.4262671 104.9513638  68.3952807  52.1642478
 104.8510365  69.3447164  52.0954570 104.7335180  68.0671046  51.2918549
 104.1526710  65.6437733  28.7483156 105.0145874  65.9692631  29.0078973
 104.3377054  64.8569228  28.2356222  96.1694125  73.7260072  41.0263345
  95.4757597  73.3114025  40.5133299  96.9167116  73.7680609  40.4296764
 112.3059346  64.5166259  35.8918379 111.7258015  65.1751063  35.5096431
 112.0395279  63.6943604  35.4805796 110.7562913  63.9171317  38.0939699
 111.2562691  64.0287851  37.2854018 111.3998520  63.6132370  38.7340508
 104.8144908  71.8249946  50.9807540 104.3311990  72.6250306  51.1871429
 104.9005847  71.8357891  50.0274984  98.0830868  73.6578326  38.9029359
  98.0601556  73.7566013  37.9511243  98.3931504  74.5043477  39.2246526
 100.7418246  75.7154481  43.0175974 101.6961499  75.6838423  42.9505905
 100.5430769  75.2545105  43.8326200 101.3317628  74.2855597  45.5846772
 102.1510517  74.7799676  45.6081609 101.6054436  73.3687565  45.5564339
 111.0884224  66.6766349  34.9474727 110.2010079  66.9616000  34.7294922
 111.5038213  66.5160113  34.1002004 114.4398760  66.7012870  38.6629066
 115.2159150  67.1909323  38.9353683 113.7146895  67.1270925  39.1200936
 116.8771319  67.4140490  39.7203007 117.4715810  67.1736226  39.0096315
 116.9497903  66.6947620  40.3476543  99.0968475  81.2574101  40.0346172
  98.9622943  80.4974501  39.4684170  98.6800537  81.9815000  39.5674961
 110.2327438  76.4411024  29.0422747 110.9363288  76.6461027  29.6580403
 109.5090086  77.0087786  29.3071831 111.0625248  72.1920885  35.1625017
 111.0060449  72.6489437  34.3232650 111.6153590  71.4311570  34.9847860
 114.8730054  67.9810617  35.9875137 114.6166988  67.5807253  36.8183344
 114.2482922  68.6954411  35.8625276 119.1842392  70.7206690  38.4946428
 118.6241950  70.7899880  39.2677990 118.5785895  70.5447675  37.7745924
 102.2537601  82.1543418  40.2464614 102.1369985  83.0988850  40.1443305
 101.4330047  81.8516979  40.6350414 112.1414135  76.8793553  31.0921207
 112.9759739  76.4474752  30.9098682 111.9798478  76.7075567  32.0198102
 111.7960027  73.3825667  32.4577546 111.7408831  73.2169938  31.5165991
 111.1706083  74.0901699  32.6139736  96.5852542  68.6193731  46.2838969
  97.2311406  68.1092685  46.7726194  96.3769693  69.3562413  46.8582394
 109.1105934  75.6874578  51.7831109 109.9797094  75.8615231  51.4217744
 108.6312686  76.5068995  51.6606839 105.1056153  62.8833776  32.0362865
 105.0934823  63.8275615  32.1931136 105.9979575  62.7003921  31.7422326
 103.2792115  82.8071679  43.4620543 104.1819361  82.8395290  43.7787038
 103.0529485  81.8772130  43.4766879 105.0345717  81.5602666  40.1230621
 104.0841348  81.5604528  40.0094994 105.3378203  80.8135401  39.6066656
 108.9208272  59.4776552  36.2908802 108.1540668  58.9235039  36.4365484
 109.3318977  59.5498421  37.1522953 100.9250033  65.7661348  50.3813983
 101.7881495  65.4098153  50.5917307 100.3515444  65.4275243  51.0689387
 120.7698410  87.3963204  41.1876384 121.4076820  87.2769952  40.4839724
 120.6519253  88.3444048  41.2464336 117.5788116  87.3490632  41.1237909
 117.2406628  87.2331697  40.2358443 118.4477885  86.9481798  41.1038915
 113.4374932  89.2026109  37.1134800 112.8739797  89.1116046  36.3451087
 113.3227327  88.3826013  37.5937292 119.0174491  92.8697077  32.4249264
 118.3662471  93.4551157  32.0383278 119.8118854  93.4003271  32.4844302
 112.9430118  89.9586214  32.8236399 113.7160994  89.4115201  32.6849275
 113.2955517  90.8230463  33.0350860 115.2796396  86.1178880  30.4554849
 115.5321917  85.5960401  29.6938312 114.3420955  85.9545025  30.5581532
 120.3239679  85.1214658  38.2629592 121.1102768  84.7034081  37.9120009
 120.5878383  86.0260750  38.4311240 120.4949756  90.5587509  32.9618249
 119.8595589  90.6322135  33.6739153 120.1647162  91.1481107  32.2837328
 125.7248106  85.0589891  39.1662570 126.4573278  84.4889108  39.4000400
 124.9687461  84.6711492  39.6069076 114.9992685  88.0206986  32.6579224
 114.8828943  87.3451889  33.3260308 115.1094944  87.5339360  31.8411377
 117.3424226  87.4817133  36.3625913 116.9782433  86.9547754  37.0738834
 118.1991341  87.0915602  36.1892398 123.2473526  78.7711466  43.6257179
 122.9156851  79.6406876  43.4018394 122.6519140  78.4547750  44.3051209
 116.9829712  82.5107033  31.3587261 117.1504115  83.3787269  31.7257732
 116.7926882  82.6734314  30.4348551 119.7405046  90.9724011  43.0253092
 119.4405769  91.8749050  42.9168899 119.3956105  90.7056195  43.8774245
 113.1917527  87.4237808  39.0589796 112.2668024  87.2914022  39.2667488
 113.4401940  88.2032028  39.5559739 123.1402189  83.4906552  40.7050529
 122.2319067  83.4221960  40.4109290 123.0889785  83.9678497  41.5332355
 116.9618933  84.9664690  32.3433928 116.8418559  85.4121741  33.1819408
 116.2671522  85.3150008  31.7847466 114.7225825  97.7368332  35.9924059
 114.6449855  98.6876157  36.0712540 114.1187469  97.3914204  36.6498986
 125.0063836  81.6922990  42.4828403 124.3638216  81.9855523  41.8368198
 124.5018764  81.5775910  43.2881600 122.6604000  85.4386163  33.1714262
 123.5721856  85.6713550  32.9961960 122.1513647  86.0223207  32.6089341
 120.9444767  89.8610791  46.8075555 121.3528123  89.4193202  46.0630187
 120.2222029  89.2863419  47.0609748 121.2673582  90.4211982  40.5627844
 120.6382444  90.5857696  39.8603912 120.8799244  90.8353591  41.3338808
 125.1462814  91.3566420  37.9172207 124.4613852  91.7365321  37.3669241
 125.2306663  91.9661746  38.6504155 120.4475283  82.4587766  45.8390285
 120.2036214  83.2129827  45.3024561 120.7235213  82.8373114  46.6737532
 122.4013745  89.0026379  44.5167551 122.6130641  89.6458138  43.8401932
 122.3543494  88.1688695  44.0489481 120.0039974  81.6144199  41.4204123
 119.1424453  81.9125453  41.7120861 120.0302409  81.8314598  40.4885156
 116.8201544  90.1586390  37.8277929 117.2839889  90.4374093  37.0382551
 116.5558342  89.2569834  37.6451020 115.7570430  86.2809542  34.6367494
 116.4594473  86.7330586  35.1041420 115.4251058  85.6393361  35.2647387
 109.4995764  84.5393095  39.9384628 108.7094818  84.7950623  39.4624738
 109.9907011  85.3541433  40.0436668 123.5159573  91.8798334  42.6889908
 124.3377017  91.4778521  42.4072590 123.5121976  91.7766568  43.6406024
 111.4510509  84.9037674  36.8968104 110.6541672  85.0156368  37.4151600
 111.2236101  85.2424326  36.0308995 107.7833467  84.7923585  42.3699618
 108.0341505  85.6770595  42.6357194 108.3193015  84.6128187  41.5974710
 131.6065566  88.2237082  39.0374880 130.8529275  87.6544481  38.8818884
 131.7413108  88.1899747  39.9845515 116.9964194  93.0950485  34.7129599
 116.8609869  93.9402021  35.1414447 117.5374007  93.2969762  33.9495533
 113.4831534  79.1742065  51.3743954 113.0898480  78.6208263  52.0491599
 114.2997674  79.4852643  51.7650472 110.4493592  90.6125923  35.2857524
 110.9618112  91.4069173  35.4363089 111.1016305  89.9152213  35.2191126
 112.2588476  93.7291679  37.3680277 112.4355105  94.6509644  37.1801261
 113.0545310  93.4150098  37.7974657 116.3999495  80.5899944  48.9664211
 117.1409208  81.1907097  48.8868673 116.6317418  79.8477582  48.4082254
 118.6232671  93.7174051  48.8429941 118.1796525  92.9310430  48.5250846
 119.2849884  93.9053202  48.1773832 113.3819792  95.2469853  43.3690620
 113.9327217  95.1186916  42.5967614 112.5431268  95.5464742  43.0185513
 120.7213909  93.9976851  46.8711343 120.7032384  94.8185732  46.3791612
 121.6433829  93.8730926  47.0961484 120.3456658  76.6181047  43.2428493
 120.0020927  77.5082688  43.1667603 120.7135621  76.4282704  42.3798078
 108.4142509  88.9414577  36.0617095 109.2517731  89.3511586  35.8450803
 108.5920776  88.0014019  36.0317289 120.3106941  86.6089658  31.7500928
 119.7953564  87.3794262  31.9889315 120.0384249  85.9354794  32.3733989
 117.8954052  81.4539359  36.8086166 117.0395648  81.0646209  36.6291805
 118.3081003  81.5331319  35.9485952 119.4253198  78.9885702  41.2077726
 118.9217994  78.9515837  40.3945531 119.7183805  79.8978445  41.2674383
 115.6696084  79.0724432  40.2143908 116.5349081  78.8767240  39.8549797
 115.7373593  78.8434783  41.1413264 125.2841215  89.3622012  33.6854101
 124.5070658  89.0233172  33.2409263 125.9632696  89.3674636  33.0109066
 120.0993244  84.4816750  33.5760709 119.7943379  84.7962899  34.4270852
 121.0523686  84.5598170  33.6188042 118.5439676  90.6406973  35.2253663
 118.0161037  89.9059733  34.9126900 118.0427178  91.4181650  34.9793631
 123.5232522  88.8355994  40.3420709 122.8656196  89.5255255  40.4300838
 124.3272921  89.2252426  40.6854696 113.2758403  81.3026639  37.5860274
 113.8502155  81.0801821  36.8533467 113.8629386  81.3715334  38.3388876
 122.3337981  87.1900366  38.3924651 122.8469862  87.8230358  38.8946361
 122.9839204  86.5901562  38.0268011 113.6027990  83.3331101  31.6056160
 112.7665303  83.6705787  31.9265434 113.4632760  83.1980080  30.6683297
 115.5781071  78.1767888  36.3135344 114.9245483  77.8616906  35.6891959
 115.5361545  77.5543629  37.0395167 116.6892276  88.4587183  28.2288636
 115.7819338  88.2276437  28.4279785 117.1863308  87.6624803  28.4162617
 119.5960355  97.1684691  31.1485322 118.9222054  97.4716387  31.7570280
 119.9826177  97.9713771  30.7990779 118.8118811  84.6649822  40.6382991
 117.8941373  84.8864769  40.4804680 119.2278955  84.7396132  39.7794699
 119.5953859  86.0641238  35.7685672 120.3425678  86.5762635  35.4592794
 119.8645449  85.7425290  36.6290065 117.8680509  88.5599778  32.7512626
 116.9591729  88.2758811  32.8485096 117.8975593  88.9798857  31.8915933
 123.0999777  92.1706368  36.5203794 122.6462104  91.3297278  36.5768984
 122.4693743  92.8067766  36.8578574 122.0432696  83.0998354  37.7504461
 121.3055453  82.5875740  38.0814704 122.2959470  82.6598735  36.9387738
 121.5432716  94.0082865  37.4553612 121.8355690  94.5687922  36.7365977
 122.0531337  94.3011426  38.2106771 122.1444324  75.8774606  38.3446230
 122.4503200  75.0171969  38.0572145 122.8696928  76.4692226  38.1445224
 108.4368680  86.2805292  36.7327828 108.2393080  85.6874653  36.0078895
 107.8815344  85.9757503  37.4503767 116.4165403  86.1728399  38.8522421
 116.4714013  85.2202235  38.7764898 115.6056605  86.3287838  39.3363720
 117.5656597  90.1008522  30.0900705 117.1276027  89.3844381  29.6306342
 118.3067038  90.3284637  29.5285796 114.3557763  84.7905459  36.6112800
 113.5425629  85.0899629  37.0177992 114.8516757  84.3961147  37.3287283
 116.5066341  94.7863216  38.5447065 116.4642520  95.0124062  37.6155597
 117.4229040  94.5526590  38.6932866 125.6829712  88.3765719  36.1477023
 125.5447610  88.5667315  35.2198212 125.3265931  89.1385102  36.6045074
 113.8471838  82.3623814  42.2274035 114.4871217  82.2212573  41.5296999
 113.0149369  82.0758328  41.8512637 125.7099092  90.4442246  41.1588295
 126.1435598  90.3517535  42.0071349 126.4230672  90.4199747  40.5208311
 114.6232142  91.6626245  38.3409028 115.4172740  91.1676565  38.1391603
 113.9123834  91.1344108  37.9776733 119.4426986  94.0444340  42.6921395
 119.4964009  94.6135276  43.4599111 118.5741768  94.2146225  42.3275432
 110.9314905  85.8069326  34.4168780 110.0012493  85.7453782  34.6338742
 111.0272377  85.2845279  33.6205422 110.8500454  82.3324139  37.0047022
 111.1107272  83.2469472  36.8956182 111.6717627  81.8648582  37.1543635
 112.3225380  83.7461896  44.1745847 112.9948433  83.5379258  43.5258495
 111.4955166  83.5483982  43.7351079 126.5714641  90.4865947  43.6921180
 126.7650531  91.3911757  43.9380455 126.4715259  90.0273366  44.5259765
 118.2250952  80.3723837  46.1911507 117.5778867  81.0713787  46.0975984
 118.9951967  80.8059981  46.5587756 121.6329750  90.6372689  49.2662061
 121.4815256  90.4083241  48.3492144 121.6234429  91.5943291  49.2793406
 117.2003418  92.2355267  42.0206865 117.0614504  91.8674051  42.8932803
 116.4118014  92.7502906  41.8490823 117.7951570  97.3364363  33.3632401
 117.9703326  96.8652406  34.1778024 117.1084358  97.9630129  33.5913662
 118.7508633  91.6136869  39.4095703 118.4158466  91.5737639  40.3053352
 118.2512579  90.9481585  38.9366113 121.6867825  88.9592904  29.6832762
 121.0696995  88.2339732  29.5865815 121.2184313  89.7202264  29.3399836
 123.3421956  93.6691812  47.3438543 123.2834503  92.9851032  46.6769126
 123.7441475  94.4110802  46.8919169 112.3612655 100.4853726  40.1372261
 112.6009253 101.1172250  40.8151280 111.5181852 100.1341766  40.4237621
 113.4766371  83.1778328  28.8054066 112.5995837  83.0567129  28.4416313
 113.9524124  82.3864406  28.5532955 123.3439364  91.6331396  45.5752522
 122.4566142  91.2957318  45.6978921 123.9137915  90.9014427  45.8121288
 104.9968511  87.9655488  38.8995574 105.6839551  87.6517218  38.3116589
 104.8416639  88.8696852  38.6262825 109.8003233  82.8545684  43.3280597
 109.7161422  82.2471354  42.5931007 108.9785939  83.3454703  43.3290094
 116.8740517  96.2932848  42.5413765 116.8010689  97.0987820  43.0533070
 116.4317910  96.4924814  41.7161787 116.6630297  95.5304618  36.0516587
 115.8797819  96.0726298  36.1454812 117.3623042  96.0478598  36.4510828
 119.9726947  81.3399248  38.6950792 120.4695646  80.5869210  38.3751863
 119.2013928  81.3763564  38.1294002 127.8256704  87.0439613  40.3369084
 127.8146580  87.9264329  39.9663017 126.9574084  86.6911164  40.1423621
 119.3339201  96.1919682  44.6971924 120.0467173  96.8267147  44.6247826
 118.8429229  96.2883548  43.8811926 121.0556727  90.0970935  36.2689216
 120.1213006  90.2172397  36.0993920 121.2333396  89.1943402  36.0049226
 116.5561916  83.4816631  38.4222477 116.1859703  82.9287671  39.1103383
 117.0521008  82.8774764  37.8697477 124.4429279  85.9388254  36.8039250
 124.9089731  86.7716246  36.7299553 124.8936779  85.4733236  37.5084508
 122.5105510  92.2832076  33.8025402 122.7865354  92.1688670  34.7119276
 121.6410009  91.8849560  33.7637575 122.4145942  78.3068841  40.8430151
 121.5009021  78.5373068  41.0112358 122.8439043  78.3907285  41.6944184
 122.1852400  86.4958733  43.3430045 121.5323850  86.7434641  42.6882498
 122.5632780  85.6822871  43.0092523 119.1459574  96.5318426  37.4458216
 119.3281968  95.7140082  37.9085968 119.9692560  96.7486119  37.0083106
 119.4801739  95.4586612  34.7073264 120.0089506  94.9479066  34.0943426
 119.7429959  95.1429142  35.5718797 109.9818832  93.4750481  42.4508598
 110.5672269  92.7294169  42.5836502 109.7843671  93.7854438  43.3345262
 112.8357487  96.5101728  37.4671040 112.1667863  96.9947856  36.9835080
 112.6970357  96.7570949  38.3814419 104.5736487  86.0456081  41.1713041
 104.6120586  85.5119672  41.9650159 104.0676780  85.5191287  40.5524018
 116.9762756  98.5445472  44.0653698 117.5281064  98.7077093  44.8302784
 117.3168949  99.1349910  43.3933723 111.9527249  80.8920622  44.6675583
 112.0168576  81.7535452  44.2552981 111.8894369  80.2794623  43.9347942
 121.8273630  93.3706729  49.9202353 122.3713534  93.9836688  49.4257308
 121.2460475  93.9286308  50.4369366 108.2045064  84.7720183  34.2466972
 108.4998506  83.8630862  34.1934026 107.3033100  84.7507923  33.9247974
 120.1131143  96.4927447  41.0517381 119.9882283  95.6917187  40.5428326
 120.7710234  96.9873641  40.5631350 111.7339311  82.8476180  40.2294521
 111.0125897  83.4612147  40.0901994 112.5232567  83.3833945  40.1511167
 122.1766052  94.2936467  42.6796931 121.2296387  94.1741819  42.6075257
 122.5248825  93.4058965  42.7623192 114.5365625  80.1830606  46.5035173
 115.0600027  80.4292903  47.2661482 114.3177958  81.0150641  46.0838310
 109.9332906  82.4534281  34.3706297 109.6045612  81.5731660  34.1881403
 110.2872277  82.3981950  35.2582687 119.1812485  94.0889184  38.8801283
 119.0337447  93.1605891  39.0608853 120.0065978  94.1109274  38.3958358
 113.0474729  82.7407251  34.7381775 113.3870802  83.2693172  34.0160383
 113.4946850  83.0787657  35.5140342 122.7846607  94.9117742  39.9666156
 123.7093154  94.7060604  39.8290607 122.6161910  94.6634143  40.8755497
 115.7418170  81.1244301  44.1884843 115.4014990  80.3252114  44.5905523
 115.0357176  81.4246012  43.6161676 116.3934642  78.2093614  42.6412166
 117.2160711  77.7354092  42.5191056 116.6372705  78.9884098  43.1410852
 115.0342876  81.2381872  32.9375068 115.7551239  81.6163125  32.4338785
 114.4108180  81.9570749  33.0410046 119.1773999  81.9427021  33.8733400
 119.3937614  82.8251659  33.5722228 118.6968066  81.5513235  33.1439042
 113.9173221  84.9012734  40.4504145 113.7717801  85.2153038  41.3428426
 113.4398424  85.5197635  39.8975043 115.7769604  81.8915282  40.4985034
 115.7631172  80.9956376  40.1617332 116.4942032  81.8985946  41.1323320
 117.6295734  82.3252623  42.5438162 117.3713512  83.2469693  42.5422492
 117.0980775  81.9283057  43.2338626 122.5741923  95.4303410  35.3228247
 122.7478801  94.8649832  34.5702099 123.0670814  96.2304305  35.1407737
 115.1806499  80.7729663  35.7672604 115.3022411  79.8446309  35.9663492
 114.8908542  80.7868349  34.8550920 118.0497690  78.4584573  38.9039324
 118.0719387  78.5223906  37.9491304 118.4665749  77.6189082  39.0979830
 128.4281314  88.1939833  36.9418547 128.8712460  87.4447158  36.5437670
 127.5507824  88.1849969  36.5592279 123.5617095  94.7470174  32.4225145
 124.2568000  95.3676867  32.6412460 123.9040246  93.8965525  32.6977523
 125.4608519  92.1969880  33.9512476 125.9859843  92.5357152  33.2261796
 125.3730871  91.2616895  33.7675611 117.1228567  96.1103953  46.0802353
 117.4315694  95.8653100  46.9525052 117.9204049  96.3150592  45.5921223
 117.1449179  98.2641863  38.3107729 116.7054170  97.7718242  39.0040586
 117.8957296  97.7214831  38.0699805 109.6241518  94.4553404  38.3132357
 110.4499538  94.1557176  37.9331001 109.2735570  93.6861026  38.7622146
 114.5923051  93.8079872  40.3830031 113.9703061  93.1450577  40.0832259
 115.2627918  93.8341004  39.7003679 107.8250123  92.3739730  39.2721291
 106.9882032  91.9461905  39.0905292 107.7973769  92.5672174  40.2092082
 114.6647579  82.2861660  49.9762537 114.7135734  83.1623783  49.5940307
 115.2070093  81.7439053  49.4034180 125.1502425  92.8302783  49.2563674
 124.3597968  92.8126922  48.7168173 124.9135779  93.3691077  50.0112711
 125.2700300  89.6795250  46.5696403 125.3198305  89.5145257  47.5111925
 125.1614223  88.8122509  46.1794283 114.1536558  92.3583795  33.8588491
 114.3024679  93.0419260  33.2055164 114.9603002  92.3388885  34.3737947
 122.5604062  85.6626178  47.8855709 123.4613925  85.5232643  47.5939707
 122.6352037  85.8280633  48.8253887 126.7718497  92.0992191  46.8138424
 126.4803305  92.4622172  47.6501885 126.1590628  91.3859199  46.6351756
 127.9714179  89.6645071  39.3340994 128.8061070  90.1034875  39.4978555
 128.1073308  89.1883724  38.5149240 125.0205685  87.2224806  45.2818482
 125.4959806  87.4152452  44.4737333 124.0971250  87.2783992  45.0361866
 111.9089191  88.3848973  34.8649560 111.6635233  87.4811303  35.0629771
 112.0785106  88.3866123  33.9229038 119.5985901  79.2572649  44.2474316
 120.1167845  79.9933676  43.9220805 119.2441034  79.5636643  45.0821075
 111.1784839  84.1177331  32.3635722 110.4854084  84.1921686  31.7075758
 110.9336591  83.3537674  32.8857239 119.8498495  75.6772932  39.7675213
 120.1300249  75.0096121  40.3935639 120.6349102  75.8702028  39.2549876
 117.6531964  94.8531926  31.3300239 117.0805931  95.4722113  30.8770711
 118.2264758  95.4031288  31.8640161 123.7207354  84.0990566  43.5146788
 124.6724777  84.1988664  43.5359012 123.5510804  83.3068834  44.0244872
 121.7421733  81.1846149  43.7006189 121.1471665  81.4651162  43.0052677
 121.4571430  81.6740050  44.4722930 120.8729224  95.1369076  32.4608821
 121.8059897  95.0714638  32.6641697 120.7852437  95.9725343  32.0023354
 123.5017240  94.4534946  29.4212769 123.4230872  94.1194810  30.3148527
 124.3226907  94.9456714  29.4204241 126.1995432  87.3196686  42.6289087
 126.1671752  86.3812686  42.8148771 126.8096055  87.3980722  41.8954912
 118.0378762  86.1892739  28.6716291 118.9837867  86.0598947  28.7404709
 117.6593007  85.4507400  29.1485720 126.3489920  84.1107729  42.6747371
 125.8328969  83.3266186  42.4877299 127.2329869  83.7826446  42.8393890
 124.0100647  77.8548745  38.6343183 123.8125468  77.5463833  39.5186515
 124.6200353  78.5810384  38.7641113 132.0171981  88.3812692  41.7695124
 132.7475370  88.1197981  42.3302827 131.4078927  87.6441414  41.8097192
 130.0987279  86.5220555  42.3669575 129.3720442  86.3876520  41.7586067
 129.6834565  86.8297384  43.1726293 116.2221680  84.1142715  28.6071177
 115.3153135  83.8175828  28.6833890 116.4997661  83.8172533  27.7405463
 107.1399620  85.4349078  39.0570223 106.8202404  84.5814387  38.7644597
 106.5933048  85.6497657  39.8128190 117.8383745  78.6579605  34.7615418
 117.0284474  78.3126690  35.1370664 118.5268162  78.3487148  35.3503029
 119.7674294  77.7357652  36.3839715 120.3205332  78.1553105  37.0429738
 120.0044380  76.8093400  36.4262671 114.9920464  80.9729650  28.7483156
 115.8539628  81.2984549  29.0078973 115.1770808  80.1861146  28.2356222
 107.0087880  89.0551990  41.0263345 106.3151351  88.6405943  40.5133299
 107.7560871  89.0972526  40.4296764 123.1453101  79.8458177  35.8918379
 122.5651770  80.5042981  35.5096431 122.8789033  79.0235521  35.4805796
 121.5956667  79.2463234  38.0939699 122.0956445  79.3579769  37.2854018
 122.2392275  78.9424287  38.7340508 108.9224622  88.9870244  38.9029359
 108.8995311  89.0857931  37.9511243 109.2325259  89.8335394  39.2246526
 121.9277979  82.0058267  34.9474727 121.0403834  82.2907918  34.7294922
 122.3431968  81.8452030  34.1002004 125.2792515  82.0304788  38.6629066
 126.0552905  82.5201240  38.9353683 124.5540649  82.4562842  39.1200936
 127.7165073  82.7432407  39.7203007 128.3109564  82.5028143  39.0096315
 127.7891657  82.0239538  40.3476543 109.9362229  96.5866018  40.0346172
 109.8016697  95.8266419  39.4684170 109.5194291  97.3106918  39.5674961
 121.0721192  91.7702942  29.0422747 121.7757042  91.9752944  29.6580403
 120.3483841  92.3379704  29.3071831 121.9019002  87.5212803  35.1625017
 121.8454204  87.9781354  34.3232650 122.4547345  86.7603488  34.9847860
 125.7123808  83.3102535  35.9875137 125.4560743  82.9099171  36.8183344
 125.0876676  84.0246329  35.8625276 130.0236146  86.0498608  38.4946428
 129.4635704  86.1191797  39.2677990 129.4179650  85.8739593  37.7745924
 113.0931355  97.4835335  40.2464614 112.9763739  98.4280768  40.1443305
 112.2723801  97.1808897  40.6350414 122.9807890  92.2085471  31.0921207
 123.8153493  91.7766669  30.9098682 122.8192232  92.0367485  32.0198102
 122.6353782  88.7117584  32.4577546 122.5802586  88.5461856  31.5165991
 122.0099837  89.4193617  32.6139736 107.4246297  83.9485649  46.2838969
 108.0705160  83.4384603  46.7726194 107.2163448  84.6854330  46.8582394
 115.9449907  78.2125693  32.0362865 115.9328577  79.1567533  32.1931136
 116.8373329  78.0295839  31.7422326 114.1185869  98.1363597  43.4620543
 115.0213116  98.1687207  43.7787038 113.8923239  97.2064048  43.4766879
 115.8739471  96.8894584  40.1230621 114.9235102  96.8896445  40.0094994
 116.1771957  96.1427318  39.6066656 119.7602027  74.8068470  36.2908802
 118.9934422  74.2526957  36.4365484 120.1712732  74.8790339  37.1522953
 111.7643788  81.0953266  50.3813983 112.6275249  80.7390071  50.5917307
 111.1909198  80.7567160  51.0689387 131.6092165 102.7255122  41.1876384
 132.2470575 102.6061869  40.4839724 131.4913008 103.6735966  41.2464336
 128.4181871 102.6782550  41.1237909 128.0800382 102.5623615  40.2358443
 129.2871639 102.2773715  41.1038915 124.2768687 104.5318027  37.1134800
 123.7133552 104.4407963  36.3451087 124.1621082 103.7117931  37.5937292
 128.9001654 103.8317402  47.0824114 128.8890295 103.4370200  46.2104618
 129.0622293 103.0983474  47.6757886 121.8233119 106.0269218  39.9519020
 122.6154410 105.6860043  39.5365319 122.0629769 106.1364193  40.8721173
 129.8568245 108.1988994  32.4249264 129.2056225 108.7843075  32.0383278
 130.6512608 108.7295189  32.4844302 123.7823873 105.2878131  32.8236399
 124.5554749 104.7407118  32.6849275 124.1349271 106.1522381  33.0350860
 125.6208915 106.6154514  46.0303298 125.3298781 107.5200145  45.9149964
 126.2565899 106.6571041  46.7447368 126.5465122 103.9931362  42.6204658
 127.1428694 103.7687385  41.9061621 126.6040093 103.2516108  43.2230106
 126.1190150 101.4470798  30.4554849 126.3715671 100.9252319  29.6938312
 125.1814709 101.2836943  30.5581532 131.1633433 100.4506576  38.2629592
 131.9496522 100.0325999  37.9120009 131.4272137 101.3552668  38.4311240
 131.3343510 105.8879426  32.9618249 130.6989343 105.9614053  33.6739153
 131.0040917 106.4773025  32.2837328 136.5641860 100.3881809  39.1662570
 137.2967032  99.8181026  39.4000400 135.8081216 100.0003410  39.6069076
 125.8386439 103.3498903  32.6579224 125.7222697 102.6743807  33.3260308
 125.9488699 102.8631277  31.8411377 128.1817980 102.8109051  36.3625913
 127.8176187 102.2839672  37.0738834 129.0385096 102.4207520  36.1892398
 134.0867281  94.1003383  43.6257179 133.7550605  94.9698794  43.4018394
 133.4912894  93.7839667  44.3051209 127.8223467  97.8398950  31.3587261
 127.9897869  98.7079187  31.7257732 127.6320636  98.0026232  30.4348551
 130.5798800 106.3015929  43.0253092 130.2799523 107.2040968  42.9168899
 130.2349860 106.0348112  43.8774245 124.0311282 102.7529726  39.0589796
 123.1061778 102.6205940  39.2667488 124.2795695 103.5323945  39.5559739
 133.9795944  98.8198469  40.7050529 133.0712821  98.7513878  40.4109290
 133.9283540  99.2970414  41.5332355 127.8012688 100.2956608  32.3433928
 127.6812313 100.7413659  33.1819408 127.1065276 100.6441925  31.7847466
 121.3920093 102.3963000  39.8933585 121.5212474 102.6497478  40.8072997
 120.7117544 102.9890708  39.5738240 125.5619580 113.0660250  35.9924059
 125.4843610 114.0168075  36.0712540 124.9581224 112.7206122  36.6498986
 128.0536810 100.2388115  48.6485426 127.2770144 100.7982035  48.6388291
 128.6927373 100.7244898  49.1700296 135.8457590  97.0214908  42.4828403
 135.2031971  97.3147441  41.8368198 135.3412519  96.9067828  43.2881600
 133.4997754 100.7678081  33.1714262 134.4115610 101.0005468  32.9961960
 132.9907401 101.3515125  32.6089341 126.3083182 103.0473568  48.2103393
 127.0497866 103.5858612  47.9338217 125.6020168 103.6739857  48.3674945
 131.7838522 105.1902709  46.8075555 132.1921878 104.7485119  46.0630187
 131.0615783 104.6155336  47.0609748 128.1369592 100.1275316  44.1809112
 128.9830787 100.5514729  44.3243761 128.0768229  99.4708940  44.8747675
 132.1067336 105.7503899  40.5627844 131.4776199 105.9149614  39.8603912
 131.7192998 106.1645509  41.3338808 135.9856568 106.6858337  37.9172207
 135.3007606 107.0657239  37.3669241 136.0700418 107.2953664  38.6504155
 131.2869037  97.7879684  45.8390285 131.0429969  98.5421744  45.3024561
 131.5628968  98.1665032  46.6737532 133.2407500 104.3318296  44.5167551
 133.4524395 104.9750056  43.8401932 133.1937248 103.4980613  44.0489481
 130.8433729  96.9436117  41.4204123 129.9818208  97.2417370  41.7120861
 130.8696163  97.1606516  40.4885156 127.6595298 105.4878307  37.8277929
 128.1233644 105.7666010  37.0382551 127.3952096 104.5861752  37.6451020
 124.5519379 105.0349789  40.7657692 125.1220736 105.4637057  40.1275177
 125.1427491 104.7532374  41.4641878 126.5964184 101.6101460  34.6367494
 127.2988228 102.0622504  35.1041420 126.2644813 100.9685279  35.2647387
 125.0444546 100.2013216  49.0118703 124.4143206 100.8829497  49.2454100
 124.9380634 100.0896298  48.0671842 120.3389518  99.8685013  39.9384628
 119.5488572 100.1242541  39.4624738 120.8300766 100.6833350  40.0436668
 134.3553328 107.2090252  42.6889908 135.1770771 106.8070439  42.4072590
 134.3515731 107.1058486  43.6406024 122.2904264 100.2329592  36.8968104
 121.4935427 100.3448286  37.4151600 122.0629856 100.5716244  36.0308995
 128.1209931 106.7574295  44.8450619 128.1854364 107.2194702  45.6808791
 127.4120855 106.1271660  44.9732929 118.6227221 100.1215503  42.3699618
 118.8735260 101.0062513  42.6357194 119.1586770  99.9420104  41.5974710
 142.4459321 103.5529000  39.0374880 141.6923029 102.9836398  38.8818884
 142.5806862 103.5191665  39.9845515 127.8357949 108.4242402  34.7129599
 127.7003624 109.2693938  35.1414447 128.3767761 108.6261680  33.9495533
 124.3225289  94.5033982  51.3743954 123.9292234  93.9500181  52.0491599
 125.1391429  94.8144561  51.7650472 121.2887346 105.9417841  35.2857524
 121.8011867 106.7361091  35.4363089 121.9410059 105.2444131  35.2191126
 123.0982231 109.0583597  37.3680277 123.2748859 109.9801561  37.1801261
 123.8939064 108.7442016  37.7974657 127.2393250  95.9191861  48.9664211
 127.9802963  96.5199015  48.8868673 127.4711172  95.1769499  48.4082254
 122.3834588 101.1048229  47.2442441 122.2688103 100.2033486  47.5449540
 121.5279105 101.3511925  46.8927257 129.4626425 109.0465969  48.8429941
 129.0190279 108.2602348  48.5250846 130.1243639 109.2345119  48.1773832
 124.2213546 110.5761771  43.3690620 124.7720972 110.4478834  42.5967614
 123.3825022 110.8756660  43.0185513 131.5607663 109.3268769  46.8711343
 131.5426139 110.1477650  46.3791612 132.4827583 109.2022844  47.0961484
 128.0180717 106.8412898  47.7134851 128.5509054 106.0801187  47.4834159
 127.4894799 106.5486550  48.4559005 131.1850412  91.9472964  43.2428493
 130.8414682  92.8374606  43.1667603 131.5529375  91.7574622  42.3798078
 119.2536263 104.2706495  36.0617095 120.0911485 104.6803503  35.8450803
 119.4314531 103.3305937  36.0317289 131.1500695 101.9381575  31.7500928
 130.6347319 102.7086180  31.9889315 130.8778004 101.2646712  32.3733989
 128.7347806  96.7831276  36.8086166 127.8789403  96.3938127  36.6291805
 129.1474758  96.8623237  35.9485952 130.2646953  94.3177620  41.2077726
 129.7611748  94.2807755  40.3945531 130.5577560  95.2270362  41.2674383
 126.5089839  94.4016349  40.2143908 127.3742835  94.2059158  39.8549797
 126.5767348  94.1726701  41.1413264 136.1234969 104.6913930  33.6854101
 135.3464412 104.3525090  33.2409263 136.8026450 104.6966553  33.0109066
 130.9386998  99.8108668  33.5760709 130.6337134 100.1254817  34.4270852
 131.8917440  99.8890087  33.6188042 129.3833430 105.9698891  35.2253663
 128.8554792 105.2351650  34.9126900 128.8820933 106.7473567  34.9793631
 134.3626276 104.1647911  40.3420709 133.7049951 104.8547173  40.4300838
 135.1666675 104.5544343  40.6854696 124.1152158  96.6318557  37.5860274
 124.6895910  96.4093739  36.8533467 124.7023140  96.7007252  38.3388876
 133.1731735 102.5192284  38.3924651 133.6863617 103.1522276  38.8946361
 133.8232959 101.9193480  38.0268011 124.4421745  98.6623018  31.6056160
 123.6059057  98.9997705  31.9265434 124.3026515  98.5271998  30.6683297
 126.4174826  93.5059806  36.3135344 125.7639238  93.1908823  35.6891959
 126.3755300  92.8835547  37.0395167 127.5286030 103.7879101  28.2288636
 126.6213092 103.5568355  28.4279785 128.0257062 102.9916720  28.4162617
 130.4354109 112.4976608  31.1485322 129.7615808 112.8008305  31.7570280
 130.8219931 113.3005689  30.7990779 129.6512566  99.9941740  40.6382991
 128.7335127 100.2156687  40.4804680 130.0672709 100.0688050  39.7794699
 130.4347614 101.3933155  35.7685672 131.1819433 101.9054552  35.4592794
 130.7039203 101.0717208  36.6290065 128.7074264 103.8891696  32.7512626
 127.7985483 103.6050729  32.8485096 128.7369348 104.3090775  31.8915933
 133.9393531 107.4998286  36.5203794 133.4855858 106.6589195  36.5768984
 133.3087498 108.1359684  36.8578574 132.8826451  98.4290272  37.7504461
 132.1449208  97.9167658  38.0814704 133.1353224  97.9890653  36.9387738
 132.3826470 109.3374782  37.4553612 132.6749445 109.8979839  36.7365977
 132.8925091 109.6303343  38.2106771 132.9838078  91.2066524  38.3446230
 133.2896955  90.3463887  38.0572145 133.7090683  91.7984144  38.1445224
 119.2762434 101.6097210  36.7327828 119.0786834 101.0166571  36.0078895
 118.7209098 101.3049420  37.4503767 127.2559158 101.5020317  38.8522421
 127.3107768 100.5494153  38.7764898 126.4450360 101.6579756  39.3363720
 128.4050352 105.4300440  30.0900705 127.9669782 104.7136299  29.6306342
 129.1460792 105.6576554  29.5285796 125.1951518 100.1197376  36.6112800
 124.3819383 100.4191547  37.0177992 125.6910512  99.7253065  37.3287283
 127.3460096 110.1155133  38.5447065 127.3036274 110.3415980  37.6155597
 128.2622795 109.8818508  38.6932866 130.7925729 100.5839201  45.4427694
 131.1475117 100.8110674  46.3022160 131.4397861 100.9157578  44.8204949
 136.5223466 103.7057637  36.1477023 136.3841365 103.8959233  35.2198212
 136.1659685 104.4677020  36.6045074 124.6865593  97.6915732  42.2274035
 125.3264972  97.5504491  41.5296999 123.8543123  97.4050245  41.8512637
 136.5492846 105.7734164  41.1588295 136.9829353 105.6809453  42.0071349
 137.2624427 105.7491664  40.5208311 125.4625896 106.9918162  38.3409028
 126.2566495 106.4968482  38.1391603 124.7517589 106.4636025  37.9776733
 130.2820741 109.3736258  42.6921395 130.3357763 109.9427194  43.4599111
 129.4135522 109.5438143  42.3275432 121.7708660 101.1361244  34.4168780
 120.8406248 101.0745700  34.6338742 121.8666132 100.6137197  33.6205422
 121.6894209  97.6616057  37.0047022 121.9501026  98.5761390  36.8956182
 122.5111381  97.1940499  37.1543635 123.1619134  99.0753814  44.1745847
 123.8342188  98.8671176  43.5258495 122.3348921  98.8775900  43.7351079
 137.4108396 105.8157864  43.6921180 137.6044286 106.7203675  43.9380455
 137.3109014 105.3565283  44.5259765 129.0644706  95.7015755  46.1911507
 128.4172621  96.4005705  46.0975984 129.8345722  96.1351899  46.5587756
 132.4723504 105.9664607  49.2662061 132.3209011 105.7375159  48.3492144
 132.4628184 106.9235209  49.2793406 129.2408841 103.5396520  44.2508327
 130.1700901 103.6907679  44.0777294 128.8199871 103.6280541  43.3956974
 128.0397172 107.5647184  42.0206865 127.9008258 107.1965969  42.8932803
 127.2511769 108.0794824  41.8490823 128.6345324 112.6656281  33.3632401
 128.8097080 112.1944324  34.1778024 127.9478112 113.2922047  33.5913662
 129.5902388 106.9428787  39.4095703 129.2552220 106.9029557  40.3053352
 129.0906333 106.2773503  38.9366113 123.5646632 102.3496417  44.9348284
 123.4266429 101.6176656  45.5359823 124.4751555 102.2605317  44.6532471
 132.5261579 104.2884821  29.6832762 131.9090750 103.5631649  29.5865815
 132.0578068 105.0494182  29.3399836 126.1928932 102.0616376  44.4231963
 126.9028551 101.4209569  44.3818582 126.1498240 102.3129271  45.3458144
 134.1815711 108.9983730  47.3438543 134.1228257 108.3142950  46.6769126
 134.5835229 109.7402720  46.8919169 124.9057866  99.0481594  46.2427603
 124.3695223  98.5972333  46.8949199 124.3174575  99.1827503  45.4998067
 123.2006410 115.8145644  40.1372261 123.4403008 116.4464168  40.8151280
 122.3575606 115.4633684  40.4237621 124.3160125  98.5070246  28.8054066
 123.4389591  98.3859046  28.4416313 124.7917878  97.7156324  28.5532955
 134.1833118 106.9623314  45.5752522 133.2959897 106.6249235  45.6978921
 134.7531669 106.2306345  45.8121288 115.8362265 103.2947405  38.8995574
 116.5233305 102.9809135  38.3116589 115.6810394 104.1988770  38.6262825
 120.6396987  98.1837602  43.3280597 120.5555176  97.5763271  42.5931007
 119.8179694  98.6746620  43.3290094 127.7134272 111.6224766  42.5413765
 127.6404443 112.4279737  43.0533070 127.2711665 111.8216732  41.7161787
 127.5024051 110.8596536  36.0516587 126.7191573 111.4018216  36.1454812
 128.2016796 111.3770516  36.4510828 130.8120701  96.6691165  38.6950792
 131.3089401  95.9161128  38.3751863 130.0407683  96.7055482  38.1294002
 138.6650459 102.3731531  40.3369084 138.6540335 103.2556246  39.9663017
 137.7967838 102.0203082  40.1423621 130.1732955 111.5211600  44.6971924
 130.8860927 112.1559065  44.6247826 129.6822984 111.6175466  43.8811926
 131.8950482 105.4262853  36.2689216 130.9606761 105.5464315  36.0993920
 132.0727150 104.5235319  36.0049226 127.3955670  98.8108548  38.4222477
 127.0253458  98.2579589  39.1103383 127.8914762  98.2066682  37.8697477
 135.2823033 101.2680172  36.8039250 135.7483486 102.1008164  36.7299553
 135.7330534 100.8025154  37.5084508 125.2244869 109.2706043  45.5177495
 125.9254328 109.9042526  45.6706889 124.7539984 109.6120775  44.7573134
 133.3499264 107.6123993  33.8025402 133.6259108 107.4980588  34.7119276
 132.4803763 107.2141478  33.7637575 133.2539696  93.6360759  40.8430151
 132.3402776  93.8664986  41.0112358 133.6832798  93.7199203  41.6944184
 133.0246155 101.8250651  43.3430045 132.3717605 102.0726558  42.6882498
 133.4026534 101.0114789  43.0092523 129.9853328 111.8610344  37.4458216
 130.1675723 111.0432000  37.9085968 130.8086314 112.0778036  37.0083106
 130.3195494 110.7878529  34.7073264 130.8483260 110.2770984  34.0943426
 130.5823714 110.4721059  35.5718797 129.0733728 102.5670462  49.8296082
 128.3974365 102.4664591  50.4998458 129.8961361 102.4109676  50.2932080
 120.8212587 108.8042398  42.4508598 121.4066023 108.0586086  42.5836502
 120.6237425 109.1146355  43.3345262 123.6751242 111.8393646  37.4671040
 123.0061617 112.3239774  36.9835080 123.5364112 112.0862866  38.3814419
 115.4130241 101.3747999  41.1713041 115.4514341 100.8411589  41.9650159
 114.9070534 100.8483204  40.5524018 127.8156510 113.8737389  44.0653698
 128.3674818 114.0369011  44.8302784 128.1562704 114.4641827  43.3933723
 122.7921004  96.2212539  44.6675583 122.8562330  97.0827370  44.2552981
 122.7288124  95.6086541  43.9347942 122.2673276  98.2935672  48.3148617
 122.8945315  97.9112749  48.9286142 121.4101195  98.0749874  48.6804310
 132.6667385 108.6998647  49.9202353 133.2107289 109.3128605  49.4257308
 132.0854230 109.2578225  50.4369366 119.0438819 100.1012101  34.2466972
 119.3392260  99.1922779  34.1934026 118.1426855 100.0799840  33.9247974
 130.9524898 111.8219365  41.0517381 130.8276037 111.0209105  40.5428326
 131.6103989 112.3165558  40.5631350 122.5733066  98.1768097  40.2294521
 121.8519652  98.7904065  40.0901994 123.3626322  98.7125862  40.1511167
 133.0159806 109.6228385  42.6796931 132.0690142 109.5033736  42.6075257
 133.3642579 108.7350883  42.7623192 125.3759379  95.5122524  46.5035173
 125.8993781  95.7584820  47.2661482 125.1571713  96.3442559  46.0838310
 120.7726661  97.7826199  34.3706297 120.4439367  96.9023577  34.1881403
 121.1266031  97.7273867  35.2582687 130.0206239 109.4181101  38.8801283
 129.8731202 108.4897809  39.0608853 130.8459733 109.4401192  38.3958358
 123.8868484  98.0699168  34.7381775 124.2264556  98.5985090  34.0160383
 124.3340604  98.4079574  35.5140342 133.6240361 110.2409660  39.9666156
 134.5486909 110.0352521  39.8290607 133.4555665 109.9926061  40.8755497
 126.5811925  96.4536219  44.1884843 126.2408745  95.6544032  44.5905523
 125.8750931  96.7537930  43.6161676 127.2328396  93.5385531  42.6412166
 128.0554466  93.0646010  42.5191056 127.4766460  94.3176015  43.1410852
 125.8736631  96.5673790  32.9375068 126.5944993  96.9455043  32.4338785
 125.2501935  97.2862667  33.0410046 130.0167754  97.2718939  33.8733400
 130.2331368  98.1543577  33.5722228 129.5361821  96.8805152  33.1439042
 124.7566975 100.2304652  40.4504145 124.6111556 100.5444955  41.3428426
 124.2792179 100.8489552  39.8975043 126.6163358  97.2207200  40.4985034
 126.6024927  96.3248293  40.1617332 127.3335786  97.2277864  41.1323320
 128.4689489  97.6544540  42.5438162 128.2107267  98.5761611  42.5422492
 127.9374529  97.2574975  43.2338626 133.4135677 110.7595327  35.3228247
 133.5872555 110.1941750  34.5702099 133.9064569 111.5596222  35.1407737
 119.2312637 102.7709997  43.3891806 118.6866105 103.5469804  43.5212080
 120.1091987 103.1180801  43.2310927 126.0200254  96.1021580  35.7672604
 126.1416165  95.1738227  35.9663492 125.7302296  96.1160266  34.8550920
 128.8891444  93.7876491  38.9039324 128.9113141  93.8515824  37.9491304
 129.3059503  92.9480999  39.0979830 139.2675069 103.5231750  36.9418547
 139.7106215 102.7739076  36.5437670 138.3901579 103.5141887  36.5592279
 134.4010850 110.0762092  32.4225145 135.0961755 110.6968785  32.6412460
 134.7434000 109.2257443  32.6977523 120.0178659 101.8979893  46.2821963
 119.2760395 102.0462528  46.8686593 119.6971403 102.1588158  45.4188712
 136.3002273 107.5261797  33.9512476 136.8253597 107.8649070  33.2261796
 136.2124626 106.5908813  33.7675611 127.9622322 111.4395871  46.0802353
 128.2709448 111.1945018  46.9525052 128.7597804 111.6442509  45.5921223
 127.9842934 113.5933781  38.3107729 127.5447924 113.1010159  39.0040586
 128.7351051 113.0506748  38.0699805 120.4635273 109.7845321  38.3132357
 121.2893293 109.4849093  37.9331001 120.1129325 109.0152944  38.7622146
 125.4316806 109.1371790  40.3830031 124.8096815 108.4742495  40.0832259
 126.1021673 109.1632922  39.7003679 118.6643878 107.7031648  39.2721291
 117.8275786 107.2753822  39.0905292 118.6367523 107.8964091  40.2092082
 125.5041333  97.6153578  49.9762537 125.5529489  98.4915701  49.5940307
 126.0463848  97.0730971  49.4034180 135.9896179 108.1594701  49.2563674
 135.1991723 108.1418840  48.7168173 135.7529534 108.6982995  50.0112711
 136.1094054 105.0087167  46.5696403 136.1592059 104.8437175  47.5111925
 136.0007978 104.1414426  46.1794283 124.9930313 107.6875713  33.8588491
 125.1418433 108.3711177  33.2055164 125.7996756 107.6680803  34.3737947
 133.3997817 100.9918095  47.8855709 134.3007679 100.8524560  47.5939707
 133.4745791 101.1572550  48.8253887 127.7340622  98.3684950  46.7308896
 126.8643931  98.6618516  46.4591484 127.9700102  98.9525395  47.4516159
 137.6112251 107.4284109  46.8138424 137.3197059 107.7914089  47.6501885
 136.9984382 106.7151117  46.6351756 138.8107933 104.9936989  39.3340994
 139.6454825 105.4326793  39.4978555 138.9467062 104.5175642  38.5149240
 135.8599439 102.5516724  45.2818482 136.3353561 102.7444370  44.4737333
 134.9365005 102.6075909  45.0361866 122.7482946 103.7140891  34.8649560
 122.5028988 102.8103221  35.0629771 122.9178860 103.7158041  33.9229038
 130.4379656  94.5864567  44.2474316 130.9561600  95.3225594  43.9220805
 130.0834789  94.8928560  45.0821075 122.0178593  99.4469248  32.3635722
 121.3247838  99.5213603  31.7075758 121.7730345  98.6829592  32.8857239
 130.6892250  91.0064850  39.7675213 130.9694004  90.3388039  40.3935639
 131.4742857  91.1993945  39.2549876 128.4925718 110.1823843  31.3300239
 127.9199686 110.8014031  30.8770711 129.0658512 110.7323205  31.8640161
 134.5601108  99.4282484  43.5146788 135.5118531  99.5280581  43.5359012
 134.3904559  98.6360752  44.0244872 132.5815488  96.5138067  43.7006189
 131.9865420  96.7943080  43.0052677 132.2965184  97.0031968  44.4722930
 131.7122978 110.4660994  32.4608821 132.6453651 110.4006555  32.6641697
 131.6246191 111.3017260  32.0023354 134.3410995 109.7826864  29.4212769
 134.2624626 109.4486728  30.3148527 135.1620662 110.2748632  29.4204241
 137.0389186 102.6488603  42.6289087 137.0065506 101.7104604  42.8148771
 137.6489810 102.7272640  41.8954912 128.8772517 101.5184656  28.6716291
 129.8231622 101.3890864  28.7404709 128.4986762 100.7799318  29.1485720
 137.1883675  99.4399647  42.6747371 136.6722723  98.6558103  42.4877299
 138.0723623  99.1118363  42.8393890 134.8494401  93.1840662  38.6343183
 134.6519223  92.8755750  39.5186515 135.4594107  93.9102301  38.7641113
 142.8565736 103.7104610  41.7695124 143.5869124 103.4489898  42.3302827
 142.2472681 102.9733332  41.8097192 140.9381033 101.8512473  42.3669575
 140.2114197 101.7168438  41.7586067 140.5228320 102.1589301  43.1726293
 128.7611209 105.5702402  50.1316948 129.6814219 105.7481001  50.3256995
 128.7260792 104.6258448  49.9796648 127.0615434  99.4434633  28.6071177
 126.1546889  99.1467745  28.6833890 127.3391415  99.1464451  27.7405463
 117.9793374 100.7640996  39.0570223 117.6596159  99.9106304  38.7644597
 117.4326803 100.9789574  39.8128190 121.7573282 103.4803437  42.7739730
 121.9759292 104.4120545  42.7927763 122.1699056 103.1211411  43.5594533
 128.6777500  93.9871522  34.7615418 127.8678228  93.6418607  35.1370664
 129.3661917  93.6779066  35.3503029 130.6068048  93.0649569  36.3839715
 131.1599087  93.4845023  37.0429738 130.8438134  92.1385317  36.4262671
 126.6301147  99.0536643  52.1642478 126.5297874 100.0031000  52.0954570
 126.4122689  98.7254882  51.2918549 125.8314219  96.3021568  28.7483156
 126.6933383  96.6276466  29.0078973 126.0164563  95.5153064  28.2356222
 117.8481634 104.3843908  41.0263345 117.1545106 103.9697860  40.5133299
 118.5954625 104.4264444  40.4296764 133.9846855  95.1750094  35.8918379
 133.4045524  95.8334898  35.5096431 133.7182788  94.3527439  35.4805796
 132.4350422  94.5755152  38.0939699 132.9350200  94.6871687  37.2854018
 133.0786029  94.2716205  38.7340508 126.4932417 102.4833782  50.9807540
 126.0099499 103.2834142  51.1871429 126.5793356 102.4941727  50.0274984
 119.7618377 104.3162161  38.9029359 119.7389065 104.4149849  37.9511243
 120.0719013 105.1627312  39.2246526 122.4205755 106.3738316  43.0175974
 123.3749008 106.3422259  42.9505905 122.2218278 105.9128940  43.8326200
 123.0105137 104.9439432  45.5846772 123.8298026 105.4383511  45.6081609
 123.2841945 104.0271401  45.5564339 132.7671733  97.3350185  34.9474727
 131.8797588  97.6199835  34.7294922 133.1825722  97.1743948  34.1002004
 136.1186269  97.3596706  38.6629066 136.8946659  97.8493158  38.9353683
 135.3934403  97.7854760  39.1200936 138.5558828  98.0724325  39.7203007
 139.1503319  97.8320061  39.0096315 138.6285412  97.3531455  40.3476543
 120.7755984 111.9157936  40.0346172 120.6410452 111.1558337  39.4684170
 120.3588046 112.6398836  39.5674961 131.9114947 107.0994859  29.0422747
 132.6150797 107.3044862  29.6580403 131.1877595 107.6671621  29.3071831
 132.7412757 102.8504721  35.1625017 132.6847958 103.3073272  34.3232650
 133.2941099 102.0895405  34.9847860 136.5517563  98.6394453  35.9875137
 136.2954497  98.2391088  36.8183344 135.9270431  99.3538246  35.8625276
 140.8629901 101.3790526  38.4946428 140.3029459 101.4483715  39.2677990
 140.2573404 101.2031510  37.7745924 123.9325110 112.8127253  40.2464614
 123.8157494 113.7572685  40.1443305 123.1117556 112.5100814  40.6350414
 133.8201644 107.5377389  31.0921207 134.6547248 107.1058587  30.9098682
 133.6585987 107.3659402  32.0198102 133.4747536 104.0409502  32.4577546
 133.4196340 103.8753773  31.5165991 132.8493592 104.7485535  32.6139736
 118.2640051  99.2777566  46.2838969 118.9098915  98.7676520  46.7726194
 118.0557202 100.0146248  46.8582394 130.7893443 106.3458414  51.7831109
 131.6584603 106.5199066  51.4217744 130.3100195 107.1652831  51.6606839
 126.7843662  93.5417611  32.0362865 126.7722332  94.4859451  32.1931136
 127.6767084  93.3587756  31.7422326 124.9579624 113.4655515  43.4620543
 125.8606870 113.4979125  43.7787038 124.7316994 112.5355966  43.4766879
 126.7133226 112.2186501  40.1230621 125.7628857 112.2188363  40.0094994
 127.0165712 111.4719236  39.6066656 130.5995781  90.1360388  36.2908802
 129.8328177  89.5818874  36.4365484 131.0106486  90.2082256  37.1522953
 122.6037542  96.4245183  50.3813983 123.4669004  96.0681988  50.5917307
 122.0302953  96.0859078  51.0689387 142.4485919 118.0547040  41.1876384
 143.0864329 117.9353787  40.4839724 142.3306762 119.0027884  41.2464336
 139.2575625 118.0074468  41.1237909 138.9194137 117.8915532  40.2358443
 140.1265394 117.6065633  41.1038915 135.1162441 119.8609944  37.1134800
 134.5527306 119.7699881  36.3451087 135.0014836 119.0409849  37.5937292
 139.7395408 119.1609320  47.0824114 139.7284049 118.7662118  46.2104618
 139.9016048 118.4275392  47.6757886 132.6626873 121.3561136  39.9519020
 133.4548165 121.0151960  39.5365319 132.9023523 121.4656111  40.8721173
 134.6217627 120.6170049  32.8236399 135.3948503 120.0699036  32.6849275
 134.9743026 121.4814298  33.0350860 136.4602670 121.9446431  46.0303298
 136.1692536 122.8492062  45.9149964 137.0959654 121.9862959  46.7447368
 137.3858876 119.3223280  42.6204658 137.9822449 119.0979302  41.9061621
 137.4433848 118.5808025  43.2230106 136.9583905 116.7762715  30.4554849
 137.2109425 116.2544236  29.6938312 136.0208464 116.6128861  30.5581532
 142.0027188 115.7798494  38.2629592 142.7890277 115.3617917  37.9120009
 142.2665892 116.6844586  38.4311240 142.1737265 121.2171344  32.9618249
 141.5383098 121.2905970  33.6739153 141.8434671 121.8064943  32.2837328
 147.4035615 115.7173727  39.1662570 148.1360787 115.1472944  39.4000400
 146.6474970 115.3295327  39.6069076 136.6780194 118.6790821  32.6579224
 136.5616452 118.0035725  33.3260308 136.7882453 118.1923195  31.8411377
 139.0211734 118.1400968  36.3625913 138.6569942 117.6131589  37.0738834
 139.8778850 117.7499437  36.1892398 144.9261035 109.4295301  43.6257179
 144.5944360 110.2990712  43.4018394 144.3306649 109.1131585  44.3051209
 138.6617221 113.1690868  31.3587261 138.8291624 114.0371104  31.7257732
 138.4714391 113.3318150  30.4348551 141.4192555 121.6307847  43.0253092
 141.1193278 122.5332886  42.9168899 141.0743614 121.3640030  43.8774245
 134.8705036 118.0821644  39.0589796 133.9455533 117.9497858  39.2667488
 135.1189449 118.8615863  39.5559739 144.8189698 114.1490387  40.7050529
 143.9106576 114.0805795  40.4109290 144.7677294 114.6262332  41.5332355
 138.6406442 115.6248525  32.3433928 138.5206068 116.0705576  33.1819408
 137.9459031 115.9733843  31.7847466 132.2313847 117.7254917  39.8933585
 132.3606228 117.9789396  40.8072997 131.5511298 118.3182625  39.5738240
 136.4013334 128.3952167  35.9924059 136.3237364 129.3459992  36.0712540
 135.7974978 128.0498040  36.6498986 138.8930564 115.5680033  48.6485426
 138.1163898 116.1273953  48.6388291 139.5321127 116.0536816  49.1700296
 146.6851345 112.3506825  42.4828403 146.0425725 112.6439359  41.8368198
 146.1806273 112.2359746  43.2881600 144.3391509 116.0969999  33.1714262
 145.2509365 116.3297385  32.9961960 143.8301156 116.6807043  32.6089341
 137.1476937 118.3765486  48.2103393 137.8891621 118.9150530  47.9338217
 136.4413922 119.0031775  48.3674945 142.6232276 120.5194626  46.8075555
 143.0315632 120.0777037  46.0630187 141.9009538 119.9447254  47.0609748
 138.9763346 115.4567233  44.1809112 139.8224541 115.8806647  44.3243761
 138.9161984 114.8000858  44.8747675 142.9461091 121.0795817  40.5627844
 142.3169953 121.2441531  39.8603912 142.5586753 121.4937427  41.3338808
 146.8250323 122.0150255  37.9172207 146.1401361 122.3949156  37.3669241
 146.9094172 122.6245582  38.6504155 142.1262792 113.1171602  45.8390285
 141.8823723 113.8713662  45.3024561 142.4022722 113.4956949  46.6737532
 144.0801254 119.6610214  44.5167551 144.2918150 120.3041974  43.8401932
 144.0331003 118.8272531  44.0489481 141.6827483 112.2728035  41.4204123
 140.8211962 112.5709288  41.7120861 141.7089918 112.4898433  40.4885156
 138.4989053 120.8170225  37.8277929 138.9627398 121.0957928  37.0382551
 138.2345851 119.9153670  37.6451020 135.3913134 120.3641707  40.7657692
 135.9614491 120.7928975  40.1275177 135.9821246 120.0824291  41.4641878
 137.4357939 116.9393378  34.6367494 138.1381982 117.3914421  35.1041420
 137.1038567 116.2977196  35.2647387 135.8838300 115.5305134  49.0118703
 135.2536961 116.2121415  49.2454100 135.7774388 115.4188216  48.0671842
 131.1783273 115.1976930  39.9384628 130.3882327 115.4534459  39.4624738
 131.6694520 116.0125268  40.0436668 145.1947082 122.5382169  42.6889908
 146.0164526 122.1362357  42.4072590 145.1909485 122.4350404  43.6406024
 133.1298018 115.5621509  36.8968104 132.3329181 115.6740204  37.4151600
 132.9023610 115.9008162  36.0308995 138.9603686 122.0866213  44.8450619
 139.0248118 122.5486620  45.6808791 138.2514610 121.4563578  44.9732929
 129.4620976 115.4507421  42.3699618 129.7129014 116.3354431  42.6357194
 129.9980524 115.2712022  41.5974710 153.2853075 118.8820918  39.0374880
 152.5316784 118.3128316  38.8818884 153.4200617 118.8483582  39.9845515
 138.6751703 123.7534320  34.7129599 138.5397378 124.5985856  35.1414447
 139.2161516 123.9553598  33.9495533 135.1619043 109.8325900  51.3743954
 134.7685989 109.2792099  52.0491599 135.9785183 110.1436478  51.7650472
 132.1281101 121.2709758  35.2857524 132.6405621 122.0653008  35.4363089
 132.7803814 120.5736049  35.2191126 133.9375985 124.3875514  37.3680277
 134.1142614 125.3093479  37.1801261 134.7332819 124.0733934  37.7974657
 138.0787004 111.2483779  48.9664211 138.8196717 111.8490932  48.8868673
 138.3104927 110.5061417  48.4082254 133.2228342 116.4340146  47.2442441
 133.1081857 115.5325404  47.5449540 132.3672860 116.6803843  46.8927257
 140.3020180 124.3757887  48.8429941 139.8584034 123.5894265  48.5250846
 140.9637393 124.5637037  48.1773832 135.0607301 125.9053688  43.3690620
 135.6114726 125.7770752  42.5967614 134.2218777 126.2048577  43.0185513
 142.4001418 124.6560687  46.8711343 142.3819893 125.4769568  46.3791612
 143.3221338 124.5314762  47.0961484 138.8574472 122.1704816  47.7134851
 139.3902809 121.4093104  47.4834159 138.3288553 121.8778468  48.4559005
 142.0244167 107.2764882  43.2428493 141.6808436 108.1666524  43.1667603
 142.3923130 107.0866540  42.3798078 130.0930018 119.5998412  36.0617095
 130.9305240 120.0095421  35.8450803 130.2708285 118.6597855  36.0317289
 141.9894450 117.2673493  31.7500928 141.4741073 118.0378098  31.9889315
 141.7171758 116.5938629  32.3733989 139.5741561 112.1123194  36.8086166
 138.7183157 111.7230044  36.6291805 139.9868512 112.1915155  35.9485952
 141.1040707 109.6469537  41.2077726 140.6005503 109.6099672  40.3945531
 141.3971314 110.5562280  41.2674383 137.3483593 109.7308267  40.2143908
 138.2136590 109.5351076  39.8549797 137.4161102 109.5018619  41.1413264
 141.7780753 115.1400585  33.5760709 141.4730888 115.4546734  34.4270852
 142.7311195 115.2182005  33.6188042 140.2227185 121.2990809  35.2253663
 139.6948546 120.5643568  34.9126900 139.7214687 122.0765485  34.9793631
 145.2020031 119.4939829  40.3420709 144.5443705 120.1839090  40.4300838
 146.0060430 119.8836261  40.6854696 134.9545912 111.9610475  37.5860274
 135.5289664 111.7385656  36.8533467 135.5416895 112.0299169  38.3388876
 144.0125489 117.8484202  38.3924651 144.5257371 118.4814194  38.8946361
 144.6626713 117.2485397  38.0268011 135.2815499 113.9914936  31.6056160
 134.4452812 114.3289622  31.9265434 135.1420269 113.8563916  30.6683297
 137.2568580 108.8351724  36.3135344 136.6032992 108.5200741  35.6891959
 137.2149054 108.2127464  37.0395167 140.4906320 115.3233657  40.6382991
 139.5728882 115.5448604  40.4804680 140.9066464 115.3979968  39.7794699
 141.2741368 116.7225073  35.7685672 142.0213187 117.2346470  35.4592794
 141.5432958 116.4009126  36.6290065 139.5468018 119.2183614  32.7512626
 138.6379238 118.9342646  32.8485096 139.5763102 119.6382692  31.8915933
 144.7787286 122.8290203  36.5203794 144.3249613 121.9881113  36.5768984
 144.1481252 123.4651602  36.8578574 143.7220205 113.7582189  37.7504461
 142.9842962 113.2459575  38.0814704 143.9746979 113.3182571  36.9387738
 143.2220225 124.6666700  37.4553612 143.5143199 125.2271757  36.7365977
 143.7318846 124.9595261  38.2106771 143.8231833 106.5358441  38.3446230
 144.1290709 105.6755805  38.0572145 144.5484437 107.1276061  38.1445224
 130.1156189 116.9389128  36.7327828 129.9180588 116.3458489  36.0078895
 129.5602853 116.6341338  37.4503767 138.0952912 116.8312234  38.8522421
 138.1501522 115.8786071  38.7764898 137.2844114 116.9871673  39.3363720
 136.0345272 115.4489294  36.6112800 135.2213138 115.7483465  37.0177992
 136.5304266 115.0544983  37.3287283 138.1853850 125.4447051  38.5447065
 138.1430029 125.6707897  37.6155597 139.1016549 125.2110426  38.6932866
 141.6319484 115.9131119  45.4427694 141.9868872 116.1402592  46.3022160
 142.2791615 116.2449495  44.8204949 147.3617221 119.0349554  36.1477023
 147.2235119 119.2251150  35.2198212 147.0053440 119.7968937  36.6045074
 135.5259347 113.0207650  42.2274035 136.1658726 112.8796409  41.5296999
 134.6936878 112.7342163  41.8512637 147.3886600 121.1026081  41.1588295
 147.8223107 121.0101370  42.0071349 148.1018181 121.0783582  40.5208311
 136.3019651 122.3210080  38.3409028 137.0960249 121.8260400  38.1391603
 135.5911343 121.7927943  37.9776733 141.1214495 124.7028176  42.6921395
 141.1751518 125.2719112  43.4599111 140.2529277 124.8730061  42.3275432
 132.6102414 116.4653162  34.4168780 131.6800002 116.4037617  34.6338742
 132.7059886 115.9429114  33.6205422 132.5287963 112.9907975  37.0047022
 132.7894781 113.9053308  36.8956182 133.3505136 112.5232417  37.1543635
 134.0012889 114.4045732  44.1745847 134.6735942 114.1963094  43.5258495
 133.1742675 114.2067818  43.7351079 148.2502150 121.1449782  43.6921180
 148.4438040 122.0495593  43.9380455 148.1502768 120.6857201  44.5259765
 139.9038461 111.0307673  46.1911507 139.2566376 111.7297622  46.0975984
 140.6739476 111.4643817  46.5587756 143.3117259 121.2956525  49.2662061
 143.1602765 121.0667076  48.3492144 143.3021938 122.2527126  49.2793406
 140.0802595 118.8688438  44.2508327 141.0094655 119.0199597  44.0777294
 139.6593625 118.9572458  43.3956974 138.8790927 122.8939102  42.0206865
 138.7402013 122.5257886  42.8932803 138.0905523 123.4086741  41.8490823
 140.4296142 122.2720705  39.4095703 140.0945975 122.2321475  40.3053352
 139.9300088 121.6065421  38.9366113 134.4040386 117.6788335  44.9348284
 134.2660184 116.9468574  45.5359823 135.3145309 117.5897235  44.6532471
 137.0322687 117.3908294  44.4231963 137.7422305 116.7501486  44.3818582
 136.9891995 117.6421189  45.3458144 145.0209465 124.3275647  47.3438543
 144.9622012 123.6434867  46.6769126 145.4228984 125.0694637  46.8919169
 135.7451621 114.3773512  46.2427603 135.2088978 113.9264250  46.8949199
 135.1568329 114.5119421  45.4998067 134.0400164 131.1437561  40.1372261
 134.2796762 131.7756085  40.8151280 133.1969361 130.7925601  40.4237621
 135.1553880 113.8362163  28.8054066 134.2783346 113.7150964  28.4416313
 135.6311633 113.0448242  28.5532955 145.0226873 122.2915231  45.5752522
 144.1353651 121.9541153  45.6978921 145.5925424 121.5598263  45.8121288
 126.6756020 118.6239323  38.8995574 127.3627060 118.3101053  38.3116589
 126.5204148 119.5280688  38.6262825 131.4790742 113.5129520  43.3280597
 131.3948931 112.9055189  42.5931007 130.6573448 114.0038538  43.3290094
 138.5528026 126.9516684  42.5413765 138.4798198 127.7571655  43.0533070
 138.1105419 127.1508649  41.7161787 138.3417806 126.1888454  36.0516587
 137.5585328 126.7310134  36.1454812 139.0410551 126.7062433  36.4510828
 141.6514456 111.9983083  38.6950792 142.1483155 111.2453045  38.3751863
 140.8801437 112.0347400  38.1294002 149.5044213 117.7023449  40.3369084
 149.4934089 118.5848164  39.9663017 148.6361593 117.3494999  40.1423621
 141.0126710 126.8503518  44.6971924 141.7254682 127.4850982  44.6247826
 140.5216738 126.9467384  43.8811926 142.7344236 120.7554770  36.2689216
 141.8000515 120.8756233  36.0993920 142.9120905 119.8527237  36.0049226
 138.2349425 114.1400466  38.4222477 137.8647212 113.5871506  39.1103383
 138.7308517 113.5358600  37.8697477 146.1216788 116.5972090  36.8039250
 146.5877240 117.4300081  36.7299553 146.5724288 116.1317071  37.5084508
 136.0638623 124.5997961  45.5177495 136.7648083 125.2334444  45.6706889
 135.5933738 124.9412693  44.7573134 144.1893019 122.9415911  33.8025402
 144.4652863 122.8272505  34.7119276 143.3197518 122.5433396  33.7637575
 144.0933451 108.9652677  40.8430151 143.1796530 109.1956903  41.0112358
 144.5226552 109.0491121  41.6944184 143.8639909 117.1542569  43.3430045
 143.2111359 117.4018476  42.6882498 144.2420289 116.3406707  43.0092523
 140.8247083 127.1902262  37.4458216 141.0069477 126.3723918  37.9085968
 141.6480069 127.4069954  37.0083106 139.9127482 117.8962380  49.8296082
 139.2368119 117.7956509  50.4998458 140.7355116 117.7401593  50.2932080
 131.6606341 124.1334316  42.4508598 132.2459778 123.3878004  42.5836502
 131.4631180 124.4438273  43.3345262 134.5144996 127.1685564  37.4671040
 133.8455372 127.6531691  36.9835080 134.3757866 127.4154784  38.3814419
 126.2523996 116.7039916  41.1713041 126.2908095 116.1703507  41.9650159
 125.7464289 116.1775122  40.5524018 138.6550265 129.2029307  44.0653698
 139.2068573 129.3660929  44.8302784 138.9956458 129.7933745  43.3933723
 133.6314758 111.5504457  44.6675583 133.6956085 112.4119288  44.2552981
 133.5681878 110.9378459  43.9347942 133.1067031 113.6227589  48.3148617
 133.7339070 113.2404667  48.9286142 132.2494950 113.4041791  48.6804310
 143.5061139 124.0290565  49.9202353 144.0501043 124.6420523  49.4257308
 142.9247984 124.5870143  50.4369366 129.8832573 115.4304019  34.2466972
 130.1786015 114.5214697  34.1934026 128.9820609 115.4091758  33.9247974
 141.7918652 127.1511283  41.0517381 141.6669792 126.3501022  40.5428326
 142.4497743 127.6457476  40.5631350 133.4126820 113.5060015  40.2294521
 132.6913406 114.1195983  40.0901994 134.2020076 114.0417780  40.1511167
 143.8553561 124.9520303  42.6796931 142.9083896 124.8325654  42.6075257
 144.2036334 124.0642801  42.7623192 136.2153134 110.8414442  46.5035173
 136.7387536 111.0876738  47.2661482 135.9965467 111.6734476  46.0838310
 131.6120415 113.1118116  34.3706297 131.2833121 112.2315495  34.1881403
 131.9659786 113.0565785  35.2582687 140.8599994 124.7473019  38.8801283
 140.7124956 123.8189726  39.0608853 141.6853487 124.7693110  38.3958358
 134.7262238 113.3991086  34.7381775 135.0658311 113.9277007  34.0160383
 135.1734359 113.7371492  35.5140342 144.4634116 125.5701578  39.9666156
 145.3880663 125.3644439  39.8290607 144.2949419 125.3217979  40.8755497
 137.4205679 111.7828137  44.1884843 137.0802499 110.9835950  44.5905523
 136.7144685 112.0829848  43.6161676 138.0722151 108.8677449  42.6412166
 138.8948220 108.3937927  42.5191056 138.3160214 109.6467933  43.1410852
 136.7130385 111.8965708  32.9375068 137.4338748 112.2746960  32.4338785
 136.0895689 112.6154584  33.0410046 140.8561508 112.6010857  33.8733400
 141.0725123 113.4835494  33.5722228 140.3755575 112.2097070  33.1439042
 135.5960730 115.5596570  40.4504145 135.4505310 115.8736873  41.3428426
 135.1185933 116.1781470  39.8975043 137.4557112 112.5499118  40.4985034
 137.4418681 111.6540211  40.1617332 138.1729541 112.5569782  41.1323320
 139.3083243 112.9836458  42.5438162 139.0501021 113.9053529  42.5422492
 138.7768284 112.5866893  43.2338626 130.0706392 118.1001914  43.3891806
 129.5259860 118.8761722  43.5212080 130.9485742 118.4472719  43.2310927
 136.8594008 111.4313498  35.7672604 136.9809920 110.5030144  35.9663492
 136.5696051 111.4452184  34.8550920 139.7285199 109.1168408  38.9039324
 139.7506896 109.1807742  37.9491304 140.1453258 108.2772917  39.0979830
 150.1068823 118.8523668  36.9418547 150.5499969 118.1030993  36.5437670
 149.2295333 118.8433804  36.5592279 130.8572414 117.2271810  46.2821963
 130.1154150 117.3754446  46.8686593 130.5365158 117.4880076  45.4188712
 138.8016076 126.7687789  46.0802353 139.1103203 126.5236935  46.9525052
 139.5991558 126.9734427  45.5921223 138.8236688 128.9225698  38.3107729
 138.3841679 128.4302077  39.0040586 139.5744805 128.3798666  38.0699805
 131.3029027 125.1137239  38.3132357 132.1287047 124.8141011  37.9331001
 130.9523079 124.3444862  38.7622146 136.2710560 124.4663707  40.3830031
 135.6490570 123.8034412  40.0832259 136.9415427 124.4924839  39.7003679
 129.5037632 123.0323566  39.2721291 128.6669541 122.6045740  39.0905292
 129.4761278 123.2256009  40.2092082 136.3435088 112.9445495  49.9762537
 136.3923243 113.8207618  49.5940307 136.8857602 112.4022888  49.4034180
 146.8289934 123.4886619  49.2563674 146.0385477 123.4710758  48.7168173
 146.5923288 124.0274912  50.0112711 146.9487809 120.3379085  46.5696403
 146.9985814 120.1729092  47.5111925 146.8401732 119.4706344  46.1794283
 135.8324067 123.0167631  33.8588491 135.9812188 123.7003095  33.2055164
 136.6390511 122.9972721  34.3737947 144.2391571 116.3210013  47.8855709
 145.1401434 116.1816478  47.5939707 144.3139546 116.4864468  48.8253887
 138.5734376 113.6976868  46.7308896 137.7037686 113.9910434  46.4591484
 138.8093857 114.2817313  47.4516159 148.4506006 122.7576027  46.8138424
 148.1590814 123.1206007  47.6501885 147.8378137 122.0443035  46.6351756
 149.6501688 120.3228906  39.3340994 150.4848579 120.7618710  39.4978555
 149.7860817 119.8467560  38.5149240 146.6993194 117.8808641  45.2818482
 147.1747315 118.0736287  44.4737333 145.7758759 117.9367827  45.0361866
 133.5876700 119.0432808  34.8649560 133.3422742 118.1395138  35.0629771
 133.7572615 119.0449959  33.9229038 141.2773410 109.9156485  44.2474316
 141.7955354 110.6517512  43.9220805 140.9228543 110.2220478  45.0821075
 132.8572348 114.7761166  32.3635722 132.1641593 114.8505521  31.7075758
 132.6124100 114.0121510  32.8857239 141.5286004 106.3356767  39.7675213
 141.8087758 105.6679956  40.3935639 142.3136611 106.5285863  39.2549876
 145.3994863 114.7574401  43.5146788 146.3512286 114.8572499  43.5359012
 145.2298313 113.9652670  44.0244872 143.4209242 111.8429984  43.7006189
 142.8259174 112.1234997  43.0052677 143.1358939 112.3323885  44.4722930
 147.8782941 117.9780521  42.6289087 147.8459261 117.0396522  42.8148771
 148.4883564 118.0564558  41.8954912 139.7166271 116.8476574  28.6716291
 140.6625376 116.7182782  28.7404709 139.3380516 116.1091236  29.1485720
 148.0277429 114.7691564  42.6747371 147.5116478 113.9850021  42.4877299
 148.9117378 114.4410281  42.8393890 145.6888156 108.5132580  38.6343183
 145.4912977 108.2047668  39.5186515 146.2987862 109.2394219  38.7641113
 153.6959490 119.0396528  41.7695124 154.4262879 118.7781816  42.3302827
 153.0866436 118.3025250  41.8097192 151.7774788 117.1804390  42.3669575
 151.0507951 117.0460355  41.7586067 151.3622074 117.4881219  43.1726293
 139.6004964 120.8994320  50.1316948 140.5207973 121.0772919  50.3256995
 139.5654547 119.9550365  49.9796648 137.9009189 114.7726550  28.6071177
 136.9940644 114.4759663  28.6833890 138.1785170 114.4756368  27.7405463
 128.8187129 116.0932914  39.0570223 128.4989913 115.2398222  38.7644597
 128.2720557 116.3081492  39.8128190 132.5967036 118.8095355  42.7739730
 132.8153046 119.7412463  42.7927763 133.0092810 118.4503329  43.5594533
 139.5171254 109.3163440  34.7615418 138.7071983 108.9710525  35.1370664
 140.2055671 109.0070984  35.3503029 141.4461803 108.3941487  36.3839715
 141.9992841 108.8136940  37.0429738 141.6831889 107.4677235  36.4262671
 137.4694902 114.3828560  52.1642478 137.3691629 115.3322917  52.0954570
 137.2516444 114.0546799  51.2918549 136.6707973 111.6313486  28.7483156
 137.5327137 111.9568384  29.0078973 136.8558317 110.8444981  28.2356222
 128.6875389 119.7135825  41.0263345 127.9938860 119.2989778  40.5133299
 129.4348380 119.7556362  40.4296764 144.8240610 110.5042012  35.8918379
 144.2439279 111.1626816  35.5096431 144.5576542 109.6819357  35.4805796
 143.2744176 109.9047070  38.0939699 143.7743954 110.0163604  37.2854018
 143.9179784 109.6008123  38.7340508 137.3326172 117.8125699  50.9807540
 136.8493254 118.6126059  51.1871429 137.4187111 117.8233644  50.0274984
 130.6012131 119.6454079  38.9029359 130.5782820 119.7441766  37.9511243
 130.9112768 120.4919230  39.2246526 133.2599509 121.7030234  43.0175974
 134.2142763 121.6714176  42.9505905 133.0612033 121.2420858  43.8326200
 133.8498891 120.2731350  45.5846772 134.6691780 120.7675429  45.6081609
 134.1235699 119.3563318  45.5564339 143.6065488 112.6642102  34.9474727
 142.7191343 112.9491753  34.7294922 144.0219477 112.5035866  34.1002004
 146.9580024 112.6888623  38.6629066 147.7340414 113.1785076  38.9353683
 146.2328158 113.1146678  39.1200936 149.3952582 113.4016243  39.7203007
 149.9897073 113.1611979  39.0096315 149.4679166 112.6823373  40.3476543
 131.6149738 127.2449854  40.0346172 131.4804206 126.4850254  39.4684170
 131.1981800 127.9690753  39.5674961 143.5806511 118.1796638  35.1625017
 143.5241713 118.6365190  34.3232650 144.1334854 117.4187323  34.9847860
 147.3911317 113.9686370  35.9875137 147.1348252 113.5683006  36.8183344
 146.7664185 114.6830164  35.8625276 151.7023655 116.7082443  38.4946428
 151.1423213 116.7775633  39.2677990 151.0967159 116.5323428  37.7745924
 134.7718864 128.1419171  40.2464614 134.6551248 129.0864603  40.1443305
 133.9511310 127.8392732  40.6350414 144.3141291 119.3701420  32.4577546
 144.2590095 119.2045691  31.5165991 143.6887346 120.0777452  32.6139736
 129.1033806 114.6069484  46.2838969 129.7492669 114.0968438  46.7726194
 128.8950957 115.3438166  46.8582394 141.6287198 121.6750331  51.7831109
 142.4978358 121.8490984  51.4217744 141.1493949 122.4944748  51.6606839
 137.6237416 108.8709529  32.0362865 137.6116086 109.8151368  32.1931136
 138.5160838 108.6879674  31.7422326 135.7973378 128.7947432  43.4620543
 136.7000625 128.8271043  43.7787038 135.5710748 127.8647883  43.4766879
 137.5526980 127.5478419  40.1230621 136.6022611 127.5480281  40.0094994
 137.8559466 126.8011154  39.6066656 141.4389536 105.4652305  36.2908802
 140.6721931 104.9110792  36.4365484 141.8500241 105.5374174  37.1522953
 133.4431297 111.7537101  50.3813983 134.3062758 111.3973906  50.5917307
 132.8696707 111.4150996  51.0689387 150.5789163 134.4901237  47.0824114
 150.5677804 134.0954035  46.2104618 150.7409802 133.7567310  47.6757886
 147.2996424 137.2738349  46.0303298 147.0086290 138.1783980  45.9149964
 147.9353408 137.3154877  46.7447368 155.7654790 124.7587219  43.6257179
 155.4338114 125.6282629  43.4018394 155.1700403 124.4423503  44.3051209
 143.0707602 133.0546835  39.8933585 143.1999983 133.3081314  40.8072997
 142.3905053 133.6474543  39.5738240 149.7324319 130.8971950  48.6485426
 148.9557653 131.4565870  48.6388291 150.3714882 131.3828733  49.1700296
 157.5245099 127.6798743  42.4828403 156.8819480 127.9731276  41.8368198
 157.0200028 127.5651663  43.2881600 147.9870691 133.7057404  48.2103393
 148.7285375 134.2442448  47.9338217 147.2807676 134.3323692  48.3674945
 153.4626031 135.8486544  46.8075555 153.8709387 135.4068955  46.0630187
 152.7403292 135.2739172  47.0609748 149.8157101 130.7859151  44.1809112
 150.6618296 131.2098564  44.3243761 149.7555738 130.1292775  44.8747675
 152.9656546 128.4463519  45.8390285 152.7217478 129.2005580  45.3024561
 153.2416477 128.8248867  46.6737532 152.5221238 127.6019952  41.4204123
 151.6605717 127.9001206  41.7120861 152.5483672 127.8190351  40.4885156
 146.7232055 130.8597052  49.0118703 146.0930715 131.5413333  49.2454100
 146.6168143 130.7480133  48.0671842 142.0177027 130.5268848  39.9384628
 141.2276081 130.7826376  39.4624738 142.5088275 131.3417186  40.0436668
 149.7997440 137.4158130  44.8450619 149.8641873 137.8778538  45.6808791
 149.0908364 136.7855495  44.9732929 140.3014730 130.7799338  42.3699618
 140.5522769 131.6646348  42.6357194 140.8374279 130.6003940  41.5974710
 146.0012797 125.1617818  51.3743954 145.6079743 124.6084016  52.0491599
 146.8178938 125.4728396  51.7650472 148.9180758 126.5775697  48.9664211
 149.6590472 127.1782850  48.8868673 149.1498681 125.8353335  48.4082254
 144.0622096 131.7632064  47.2442441 143.9475612 130.8617321  47.5449540
 143.2066614 132.0095761  46.8927257 151.1413934 139.7049804  48.8429941
 150.6977788 138.9186183  48.5250846 151.8031148 139.8928955  48.1773832
 149.6968226 137.4996734  47.7134851 150.2296563 136.7385022  47.4834159
 149.1682308 137.2070386  48.4559005 152.8637921 122.6056800  43.2428493
 152.5202191 123.4958441  43.1667603 153.2316884 122.4158457  42.3798078
 151.9434462 124.9761455  41.2077726 151.4399257 124.9391590  40.3945531
 152.2365069 125.8854198  41.2674383 148.1877348 125.0600185  40.2143908
 149.0530344 124.8642993  39.8549797 148.2554857 124.8310536  41.1413264
 145.7939667 127.2902393  37.5860274 146.3683419 127.0677574  36.8533467
 146.3810649 127.3591087  38.3388876 148.0962334 124.1643641  36.3135344
 147.4426747 123.8492659  35.6891959 148.0542809 123.5419382  37.0395167
 154.6625587 121.8650359  38.3446230 154.9684464 121.0047722  38.0572145
 155.3878192 122.4567979  38.1445224 152.4713238 131.2423036  45.4427694
 152.8262626 131.4694509  46.3022160 153.1185370 131.5741413  44.8204949
 146.3653101 128.3499567  42.2274035 147.0052481 128.2088326  41.5296999
 145.5330632 128.0634081  41.8512637 144.8406643 129.7337649  44.1745847
 145.5129697 129.5255012  43.5258495 144.0136430 129.5359735  43.7351079
 150.7432215 126.3599590  46.1911507 150.0960130 127.0589540  46.0975984
 151.5133231 126.7935734  46.5587756 154.1511013 136.6248442  49.2662061
 153.9996520 136.3958994  48.3492144 154.1415693 137.5819044  49.2793406
 150.9196350 134.1980355  44.2508327 151.8488410 134.3491515  44.0777294
 150.4987380 134.2864376  43.3956974 145.2434141 133.0080252  44.9348284
 145.1053938 132.2760491  45.5359823 146.1539064 132.9189152  44.6532471
 147.8716441 132.7200212  44.4231963 148.5816060 132.0793404  44.3818582
 147.8285749 132.9713107  45.3458144 146.5845375 129.7065430  46.2427603
 146.0482732 129.2556168  46.8949199 145.9962084 129.8411338  45.4998067
 137.5149774 133.9531241  38.8995574 138.2020814 133.6392971  38.3116589
 137.3597903 134.8572605  38.6262825 142.3184496 128.8421437  43.3280597
 142.2342685 128.2347107  42.5931007 141.4967203 129.3330456  43.3290094
 146.9032378 139.9289879  45.5177495 147.6041837 140.5626362  45.6706889
 146.4327493 140.2704610  44.7573134 154.9327205 124.2944594  40.8430151
 154.0190285 124.5248821  41.0112358 155.3620307 124.3783038  41.6944184
 150.7521237 133.2254297  49.8296082 150.0761874 133.1248427  50.4998458
 151.5748870 133.0693511  50.2932080 142.5000096 139.4626234  42.4508598
 143.0853532 138.7169922  42.5836502 142.3024934 139.7730191  43.3345262
 137.0917750 132.0331834  41.1713041 137.1301850 131.4995425  41.9650159
 136.5858043 131.5067040  40.5524018 144.4708513 126.8796375  44.6675583
 144.5349839 127.7411205  44.2552981 144.4075633 126.2670376  43.9347942
 143.9460785 128.9519507  48.3148617 144.5732824 128.5696584  48.9286142
 143.0888704 128.7333709  48.6804310 144.2520575 128.8351933  40.2294521
 143.5307161 129.4487901  40.0901994 145.0413831 129.3709698  40.1511167
 147.0546888 126.1706359  46.5035173 147.5781290 126.4168656  47.2661482
 146.8359222 127.0026394  46.0838310 148.2599434 127.1120054  44.1884843
 147.9196254 126.3127867  44.5905523 147.5538440 127.4121765  43.6161676
 148.9115905 124.1969367  42.6412166 149.7341975 123.7229845  42.5191056
 149.1553969 124.9759851  43.1410852 146.4354484 130.8888487  40.4504145
 146.2899065 131.2028791  41.3428426 145.9579688 131.5073388  39.8975043
 148.2950867 127.8791035  40.4985034 148.2812436 126.9832129  40.1617332
 149.0123295 127.8861699  41.1323320 150.1476998 128.3128376  42.5438162
 149.8894776 129.2345446  42.5422492 149.6162038 127.9158810  43.2338626
 140.9100146 133.4293832  43.3891806 140.3653614 134.2053640  43.5212080
 141.7879496 133.7764636  43.2310927 150.5678953 124.4460326  38.9039324
 150.5900650 124.5099659  37.9491304 150.9847012 123.6064835  39.0979830
 141.6966168 132.5563728  46.2821963 140.9547904 132.7046363  46.8686593
 141.3758912 132.8171994  45.4188712 147.1828842 128.2737413  49.9762537
 147.2316998 129.1499536  49.5940307 147.7251357 127.7314806  49.4034180
 157.7881563 135.6671003  46.5696403 157.8379568 135.5021010  47.5111925
 157.6795487 134.7998262  46.1794283 155.0785326 131.6501931  47.8855709
 155.9795188 131.5108396  47.5939707 155.1533300 131.8156386  48.8253887
 149.4128131 129.0268786  46.7308896 148.5431440 129.3202352  46.4591484
 149.6487611 129.6109231  47.4516159 152.1167165 125.2448402  44.2474316
 152.6349109 125.9809429  43.9220805 151.7622298 125.5512396  45.0821075
 152.3679759 121.6648685  39.7675213 152.6481513 120.9971874  40.3935639
 153.1530366 121.8577781  39.2549876 156.2388617 130.0866319  43.5146788
 157.1906040 130.1864417  43.5359012 156.0692068 129.2944588  44.0244872
 154.2602997 127.1721902  43.7006189 153.6652929 127.4526915  43.0052677
 153.9752693 127.6615803  44.4722930 150.4398718 136.2286238  50.1316948
 151.3601728 136.4064837  50.3256995 150.4048301 135.2842283  49.9796648
 139.6580883 131.4224831  39.0570223 139.3383668 130.5690140  38.7644597
 139.1114312 131.6373410  39.8128190 143.4360791 134.1387272  42.7739730
 143.6546801 135.0704380  42.7927763 143.8486565 133.7795247  43.5594533
 148.3088656 129.7120478  52.1642478 148.2085383 130.6614835  52.0954570
 148.0910198 129.3838717  51.2918549 139.5269143 135.0427743  41.0263345
 138.8332615 134.6281696  40.5133299 140.2742134 135.0848279  40.4296764
 148.1719926 133.1417617  50.9807540 147.6887008 133.9417977  51.1871429
 148.2580865 133.1525562  50.0274984 144.0993264 137.0322152  43.0175974
 145.0536517 137.0006094  42.9505905 143.9005787 136.5712775  43.8326200
 144.6892646 135.6023268  45.5846772 145.5085535 136.0967346  45.6081609
 144.9629454 134.6855236  45.5564339 139.9427560 129.9361402  46.2838969
 140.5886424 129.4260356  46.7726194 139.7344711 130.6730083  46.8582394
 152.4680952 137.0042249  51.7831109 153.3372112 137.1782901  51.4217744
 151.9887704 137.8236666  51.6606839 152.2783290 120.7944223  36.2908802
 151.5115686 120.2402710  36.4365484 152.6893995 120.8666092  37.1522953
 144.2825051 127.0829019  50.3813983 145.1456513 126.7265824  50.5917307
 143.7090462 126.7442914  51.0689387  74.7032883   4.1919936  33.8069421
  74.6921524   3.7972734  32.9349924  74.8653522   3.4586009  34.4003192
  71.4240144   6.9757048  32.7548605  71.1330010   7.8802679  32.6395271
  72.0597128   7.0173575  33.4692674  76.3830029   6.6618463  29.7498398
  76.0830752   7.5643502  29.6414206  76.0381088   6.3950647  30.6019551
  73.8568039   0.5990649  35.3730733  73.0801373   1.1584569  35.3633598
  74.4958602   1.0847432  35.8945603  72.1114411   3.4076103  34.9348700
  72.8529095   3.9461146  34.6583524  71.4051396   4.0342391  35.0920252
  77.5869750   5.5505243  33.5320861  77.9953107   5.1087654  32.7875494
  76.8647012   4.9757870  33.7855054  73.9400821   0.4877850  30.9054418
  74.7862016   0.9117263  31.0489067  73.8799458  -0.1688526  31.5992982
  77.9098565   6.1106434  27.2873150  77.2807428   6.2752148  26.5849218
  77.5224227   6.5248043  28.0584114  81.7887797   7.0460871  24.6417514
  81.1038835   7.4259773  24.0914547  81.8731646   7.6556198  25.3749462
  77.0900266  -1.8517782  32.5635592  76.8461198  -1.0975721  32.0269868
  77.3660196  -1.4732434  33.3982839  79.0438729   4.6920830  31.2412858
  79.2555624   5.3352590  30.5647239  78.9968477   3.8583147  30.7734788
  70.8475775   0.5615751  35.7364010  70.2174435   1.2432032  35.9699407
  70.7411862   0.4498832  34.7917148  80.1584557   7.5692786  29.4135215
  80.9802000   7.1672973  29.1317897  80.1546959   7.4661020  30.3651331
  73.9241160   7.1176829  31.5695925  73.9885593   7.5797236  32.4054097
  73.2152084   6.4874194  31.6978235  88.2490550   3.9131534  25.7620186
  87.4954258   3.3438932  25.6064191  88.3838091   3.8794199  26.7090821
  70.1256517  -5.1363483  38.0989261  69.7323463  -5.6897285  38.7736905
  70.9422658  -4.8252905  38.4895779  73.0424478  -3.7205604  35.6909518
  73.7834192  -3.1198451  35.6113980  73.2742401  -4.4627967  35.1327560
  68.1865816   1.4650763  33.9687747  68.0719331   0.5636020  34.2694846
  67.3310334   1.7114460  33.6172564  75.2657654   9.4068503  35.5675248
  74.8221508   8.6204882  35.2496152  75.9274868   9.5947654  34.9019139
  70.0244775  10.9364305  30.0935926  70.5752200  10.8081368  29.3212920
  69.1856251  11.2359194  29.7430819  77.3638892   9.6871303  33.5956649
  77.3457367  10.5080184  33.1036918  78.2858812   9.5625378  33.8206790
  73.8211946   7.2015433  34.4380158  74.3540283   6.4403721  34.2079466
  73.2926027   6.9089084  35.1804312  80.1657505   4.5250446  27.0666016
  79.5081179   5.2149707  27.1546144  80.9697904   4.9146878  27.4100002
  78.1857699   9.6977316  24.1798918  78.4780674  10.2582374  23.4611284
  78.6956320   9.9905877  24.9352077  76.5956958   0.9441735  32.1673001
  76.9506346   1.1713208  33.0267467  77.2429089   1.2760112  31.5450256
  82.3524075   6.1336698  27.8833601  82.7860581   6.0411987  28.7316655
  83.0655655   6.1094198  27.2453617  76.0851970   9.7338792  29.4166702
  76.1388992  10.3029728  30.1844418  75.2166751   9.9040677  29.0520739
  83.2139624   6.1760399  30.4166487  83.4075514   7.0806209  30.6625762
  83.1140243   5.7167818  31.2505072  74.8675935  -3.9381711  32.9156814
  74.2203850  -3.2391761  32.8221290  75.6376950  -3.5045567  33.2833062
  78.2754733   6.3267141  35.9907367  78.1240239   6.0977693  35.0737451
  78.2659413   7.2837743  36.0038712  75.0440069   3.8999054  30.9753634
  75.9732129   4.0510214  30.8022601  74.6231099   3.9883075  30.1202280
  73.8428401   7.9249718  28.7452171  73.7039487   7.5568503  29.6178110
  73.0542997   8.4397358  28.5736129  69.3677860   2.7098951  31.6593590
  69.2297658   1.9779190  32.2605129  70.2782784   2.6207851  31.3777778
  71.9960161   2.4218911  31.1477270  72.7059780   1.7812103  31.1063888
  71.9529469   2.6731805  32.0703451  79.9846940   9.3586264  34.0683849
  79.9259486   8.6745484  33.4014432  80.3866458  10.1005254  33.6164475
  69.0037638  16.1748178  26.8617568  69.2434237  16.8066702  27.5396587
  68.1606835  15.8236218  27.1482927  79.9864347   7.3225848  32.2997829
  79.0991126   6.9851770  32.4224228  80.5562898   6.5908879  32.5366594
  73.5165500  11.9827300  29.2659072  73.4435672  12.7882272  29.7778377
  73.0742893  12.1819266  28.4407093  84.4681687   2.7334065  27.0614391
  84.4571564   3.6158781  26.6908324  83.5999067   2.3805616  26.8668928
  75.9764184  11.8814134  31.4217231  76.6892156  12.5161599  31.3493132
  75.4854213  11.9778000  30.6057233  71.0276097   9.6308578  32.2422802
  71.7285557  10.2645061  32.3952196  70.5571212   9.9723309  31.4818441
  78.8277383   2.1853185  30.0675352  78.1748834   2.4329093  29.4127805
  79.2057763   1.3717323  29.7337829  75.7884557  12.2212878  24.1703522
  75.9706952  11.4034534  24.6331275  76.6117543  12.4380571  23.7328412
  74.8764956   2.9272996  36.5541389  74.2005593   2.8267126  37.2243764
  75.6992590   2.7712210  37.0177386  66.6243815   9.1644933  29.1753904
  67.2097252   8.4188621  29.3081808  66.4268654   9.4748889  30.0590568
  73.6187739  14.2339924  30.7899005  74.1706047  14.3971545  31.5548090
  73.9593933  14.8244361  30.1179030  68.0704505  -1.3461794  35.0393924
  68.6976544  -1.7284717  35.6531448  67.2132424  -1.5647592  35.4049616
  78.4698614   9.0601181  36.6447659  79.0138518   9.6731139  36.1502614
  77.8885458   9.6180760  37.1614672  76.7556127  12.1821899  27.7762687
  76.6307266  11.3811639  27.2673633  77.4135218  12.6768093  27.2876657
  78.8191035   9.9830919  29.4042237  77.8721370   9.8636270  29.3320564
  79.1673808   9.0953417  29.4868499  75.8237468   9.7783635  25.6046589
  75.6762431   8.8500343  25.7854160  76.6490962   9.8003726  25.1203665
  79.4271590  10.6012194  26.6911462  80.3518138  10.3955056  26.5535913
  79.2586893  10.3528595  27.6000804  73.7653551  11.7998405  32.8047659
  74.0740677  11.5547552  33.6770359  74.5629033  12.0045044  32.3166530
  73.7874163  13.9536315  25.0353036  73.3479153  13.4612694  25.7285893
  74.5382280  13.4109283  24.7945111  71.3072562  -2.0243888  36.7007844
  71.3560718  -1.1481765  36.3185613  71.8495076  -2.5666495  36.1279487
  81.7927408   8.5197235  35.9808981  81.0022952   8.5021374  35.4413480
  81.5560763   9.0585529  36.7358017  81.9125283   5.3689702  33.2941709
  81.9623288   5.2039709  34.2357232  81.8039206   4.5016961  32.9039590
  79.2029045   1.3520630  34.6101016  80.1038908   1.2127094  34.3185014
  79.2777020   1.5175084  35.5499193  73.5371851  -1.2712516  33.4554202
  72.6675160  -0.9778950  33.1836791  73.7731331  -0.6872071  34.1761466
  83.4143480   7.7886643  33.5383731  83.1228288   8.1516624  34.3747192
  82.8015611   7.0753651  33.3597063  84.6139162   5.3539523  26.0586301
  85.4486054   5.7929327  26.2223861  84.7498291   4.8778176  25.2394547
  81.6630668   2.9119258  32.0063789  82.1384790   3.1046904  31.1982640
  80.7396233   2.9678444  31.7607172  80.3632337  -0.2114982  30.2392094
  81.3149760  -0.1116885  30.2604318  80.1935787  -1.0036714  30.7490179
  82.8420415   3.0091138  29.3534394  82.8096735   2.0707138  29.5394078
  83.4521039   3.0875174  28.6200219  82.9914903  -0.1997819  29.3992677
  82.4753952  -0.9839362  29.2122606  83.8754852  -0.5279102  29.5639197
  88.6596965   4.0707144  28.4940431  89.3900353   3.8092432  29.0548134
  88.0503910   3.3335866  28.5342499  86.7412262   2.2115007  29.0914882
  86.0145425   2.0770972  28.4831374  86.3259549   2.5191836  29.8971600
  74.5642438   5.9304937  36.8562255  75.4845448   6.1083536  37.0502302
  74.5292021   4.9860982  36.7041954  72.4332376  -0.5860823  38.8887785
  72.3329103   0.3633534  38.8199876  72.2153918  -0.9142584  38.0163855
  72.2963646   2.8436316  37.7052847  71.8130728   3.6436676  37.9116736
  72.3824585   2.8544261  36.7520291  68.2236984   6.7340851  29.7421281
  69.1780237   6.7024793  29.6751212  68.0249507   6.2731474  30.5571506
  68.8136366   5.3041967  32.3092078  69.6329255   5.7986045  32.3326915
  69.0873173   4.3873935  32.2809646  69.7356338  13.1729787  26.9709921
  69.6188722  14.1175220  26.8688611  68.9148785  12.8703349  27.3595720
  76.5924672   6.7060948  38.5076416  77.4615832   6.8801600  38.1463051
  76.1131424   7.5255365  38.3852145  70.7610852  13.8258049  30.1865849
  71.6638099  13.8581659  30.5032344  70.5348223  12.8958500  30.2012185
  72.5164454  12.5789036  26.8475928  71.5660085  12.5790897  26.7340300
  72.8196941  11.8321770  26.3311963  68.4068771  -3.2152282  37.1059290
  69.2700233  -3.5715478  37.3162614  67.8334182  -3.5538388  37.7934694
  88.2517148  18.4149574  27.9121691  88.8895558  18.2956321  27.2085031
  88.1337991  19.3630418  27.9709643  85.0606854  18.3677002  27.8483215
  84.7225366  18.2518067  26.9603750  85.9296622  17.9668167  27.8284221
  80.9193670  20.2212478  23.8380106  80.3558535  20.1302415  23.0696394
  80.8046065  19.4012383  24.3182599  85.5426637  19.5211854  33.8069421
  85.5315278  19.1264652  32.9349924  85.7047277  18.7877926  34.4003192
  78.4658102  21.7163670  26.6764327  79.2579394  21.3754495  26.2610626
  78.7054752  21.8258645  27.5966480  86.4993229  23.8883446  19.1494571
  85.8481208  24.4737527  18.7628585  87.2937591  24.4189641  19.2089609
  80.4248856  20.9772583  19.5481705  81.1979732  20.4301570  19.4094581
  80.7774255  21.8416833  19.7596167  82.2633898  22.3048966  32.7548605
  81.9723764  23.2094596  32.6395271  82.8990883  22.3465493  33.4692674
  83.1890105  19.6825814  29.3449964  83.7853677  19.4581836  28.6306927
  83.2465077  18.9410560  29.9475412  87.8058416  16.1401028  24.9874899
  88.5921506  15.7220451  24.6365316  88.0697121  17.0447120  25.1556547
  87.9768494  21.5773878  19.6863555  87.3414327  21.6508505  20.3984460
  87.6465900  22.1667477  19.0082635  93.2066844  16.0776261  25.8907877
  93.9392016  15.5075478  26.1245707  92.4506199  15.6897861  26.3314383
  82.4811422  19.0393355  19.3824530  82.3647680  18.3638259  20.0505615
  82.5913682  18.5525729  18.5656683  84.8242963  18.5003502  23.0871220
  84.4601171  17.9734123  23.7984141  85.6810079  18.1101972  22.9137705
  90.7292264   9.7897835  30.3502486  90.3975589  10.6593246  30.1263701
  90.1337877   9.4734119  31.0296516  87.2223783  21.9910381  29.7498398
  86.9224507  22.8935420  29.6414206  86.8774843  21.7242564  30.6019551
  80.6736265  18.4424178  25.7835103  79.7486761  18.3100392  25.9912795
  80.9220678  19.2218397  26.2805045  90.6220927  14.5092921  27.4295836
  89.7137805  14.4408330  27.1354597  90.5708523  14.9864866  28.2577661
  84.4437671  15.9851060  19.0679235  84.3237296  16.4308110  19.9064715
  83.7490260  16.3336377  18.5092773  78.0345076  18.0857451  26.6178892
  78.1637457  18.3391930  27.5318304  77.3542527  18.6785159  26.2983547
  82.2044563  28.7554701  22.7169366  82.1268593  29.7062526  22.7957847
  81.6006207  28.4100574  23.3744292  84.6961793  15.9282567  35.3730733
  83.9195127  16.4876487  35.3633598  85.3352356  16.4139350  35.8945603
  92.4882574  12.7109360  29.2073710  91.8456954  13.0041893  28.5613504
  91.9837502  12.5962280  30.0126906  90.1422737  16.4572533  19.8959569
  91.0540593  16.6899920  19.7207266  89.6332384  17.0409577  19.3334648
  82.9508165  18.7368020  34.9348700  83.6922850  19.2753064  34.6583524
  82.2445151  19.3634309  35.0920252  88.4263505  20.8797161  33.5320861
  88.8346861  20.4379571  32.7875494  87.7040766  20.3049788  33.7855054
  84.7794575  15.8169767  30.9054418  85.6255770  16.2409181  31.0489067
  84.7193213  15.1603392  31.5992982  88.7492320  21.4398351  27.2873150
  88.1201182  21.6044065  26.5849218  88.3617982  21.8539961  28.0584114
  92.6281552  22.3752789  24.6417514  91.9432590  22.7551690  24.0914547
  92.7125401  22.9848116  25.3749462  87.9294020  13.4774136  32.5635592
  87.6854952  14.2316196  32.0269868  88.2053951  13.8559483  33.3982839
  89.8832483  20.0212748  31.2412858  90.0949378  20.6644508  30.5647239
  89.8362231  19.1875065  30.7734788  87.4858712  12.6330569  28.1449430
  86.6243191  12.9311822  28.4366167  87.5121147  12.8500968  27.2130462
  84.3020281  21.1772759  24.5523235  84.7658627  21.4560462  23.7627858
  84.0377080  20.2756204  24.3696326  81.1944363  20.7244241  27.4902999
  81.7645720  21.1531509  26.8520483  81.7852474  20.4426826  28.1887184
  83.2389168  17.2995912  21.3612801  83.9413211  17.7516955  21.8286727
  82.9069796  16.6579731  21.9892694  81.6869529  15.8907668  35.7364010
  81.0568190  16.5723949  35.9699407  81.5805617  15.7790750  34.7917148
  76.9814502  15.5579464  26.6629934  76.1913555  15.8136993  26.1870045
  77.4725749  16.3727802  26.7681975  90.9978311  22.8984704  29.4135215
  91.8195755  22.4964891  29.1317897  90.9940714  22.7952938  30.3651331
  78.9329247  15.9224044  23.6213411  78.1360410  16.0342738  24.1396907
  78.7054839  16.2610696  22.7554301  84.7634915  22.4468747  31.5695925
  84.8279347  22.9089154  32.4054097  84.0545838  21.8166112  31.6978235
  75.2652204  15.8109955  29.0944925  75.5160243  16.6956965  29.3602501
  75.8011753  15.6314556  28.3220017  99.0884304  19.2423452  25.7620186
  98.3348013  18.6730850  25.6064191  99.2231845  19.2086117  26.7090821
  84.4782932  24.1136854  21.4374906  84.3428607  24.9588390  21.8659754
  85.0192745  24.3156132  20.6740840  80.9650272  10.1928434  38.0989261
  80.5717217   9.6394633  38.7736905  81.7816412  10.5039013  38.4895779
  77.9312330  21.6312292  22.0102831  78.4436850  22.4255543  22.1608396
  78.5835042  20.9338583  21.9436432  79.7407214  24.7478049  24.0925584
  79.9173843  25.6696013  23.9046568  80.5364048  24.4336468  24.5219964
  83.8818233  11.6086313  35.6909518  84.6227946  12.2093466  35.6113980
  84.1136156  10.8663951  35.1327560  79.0259571  16.7942681  33.9687747
  78.9113086  15.8927938  34.2694846  78.1704089  17.0406377  33.6172564
  86.1051409  24.7360421  35.5675248  85.6615263  23.9496799  35.2496152
  86.7668622  24.9239571  34.9019139  80.8638530  26.2656222  30.0935926
  81.4145955  26.1373286  29.3212920  80.0250006  26.5651111  29.7430819
  88.2032647  25.0163221  33.5956649  88.1851122  25.8372102  33.1036918
  89.1252567  24.8917296  33.8206790  84.6605701  22.5307350  34.4380158
  85.1934038  21.7695638  34.2079466  84.1319782  22.2381002  35.1804312
  87.8275396   7.6367416  29.9673799  87.4839665   8.5269058  29.8912910
  88.1954358   7.4469074  29.1043384  75.8961246  19.9600947  22.7862401
  76.7336468  20.3697955  22.5696109  76.0739514  19.0200389  22.7562595
  87.7925678  17.6276027  18.4746234  87.2772302  18.3980632  18.7134622
  87.5202987  16.9541164  19.0979296  85.3772789  12.4725728  23.5331473
  84.5214386  12.0832579  23.3537111  85.7899741  12.5517689  22.6731258
  86.9071936  10.0072071  27.9323033  86.4036732   9.9702207  27.1190838
  87.2002543  10.9164814  27.9919689  83.1514822  10.0910801  26.9389214
  84.0167819   9.8953610  26.5795104  83.2192331   9.8621153  27.8658571
  92.7659953  20.3808382  20.4099408  91.9889395  20.0419541  19.9654570
  93.4451434  20.3861005  19.7354373  87.5811982  15.5003119  20.3006016
  87.2762117  15.8149269  21.1516159  88.5342424  15.5784539  20.3433349
  86.0258413  21.6593343  21.9498970  85.4979775  20.9246102  21.6372207
  85.5245916  22.4368019  21.7038938  91.0051259  19.8542363  27.0666016
  90.3474934  20.5441625  27.1546144  91.8091659  20.2438795  27.4100002
  80.7577141  12.3213009  24.3105581  81.3320893  12.0988191  23.5778774
  81.3448124  12.3901704  25.0634182  89.8156718  18.2086736  25.1169958
  90.3288600  18.8416728  25.6191667  90.4657942  17.6087931  24.7513318
  83.0599809   9.1954258  23.0380651  82.4064221   8.8803275  22.4137265
  83.0180283   8.5729998  23.7640473  87.0779093  28.1871060  17.8730629
  86.4040791  28.4902757  18.4815587  87.4644915  28.9900141  17.5236086
  86.2937549  15.6836191  27.3628298  85.3760111  15.9051138  27.2049986
  86.7097693  15.7582502  26.5040005  87.0772597  17.0827607  22.4930978
  87.8244416  17.5949004  22.1838100  87.3464186  16.7611660  23.3535372
  85.3499247  19.5786148  19.4757933  84.4410466  19.2945181  19.5730402
  85.3794331  19.9985226  18.6161240  90.5818515  23.1892737  23.2449100
  90.1280842  22.3483647  23.3014291  89.9512481  23.8254136  23.5823880
  89.5251434  14.1184723  24.4749768  88.7874191  13.6062110  24.8060010
  89.7778208  13.6785105  23.6633045  89.0251454  25.0269234  24.1798918
  89.3174428  25.5874291  23.4611284  89.5350074  25.3197795  24.9352077
  89.6263061   6.8960975  25.0691537  89.9321938   6.0358339  24.7817452
  90.3515666   7.4878596  24.8690531  75.9187417  17.2991662  23.4573135
  75.7211817  16.7061023  22.7324201  75.3634081  16.9943872  24.1749074
  83.8984141  17.1914768  25.5767728  83.9532751  16.2388605  25.5010205
  83.0875343  17.3474208  26.0609026  85.0475335  21.1194892  16.8146011
  84.6094765  20.4030750  16.3551649  85.7885776  21.3471006  16.2531103
  81.8376501  15.8091828  23.3358107  81.0244367  16.1085999  23.7423299
  82.3335495  15.4147517  24.0532589  83.9885079  25.8049585  25.2692372
  83.9461258  26.0310431  24.3400904  84.9047778  25.5712960  25.4178173
  87.4350713  16.2733653  32.1673001  87.7900100  16.5005126  33.0267467
  88.0822844  16.6052030  31.5450256  93.1648450  19.3952089  22.8722330
  93.0266348  19.5853685  21.9443519  92.8084668  20.1571471  23.3290381
  81.3290576  13.3810184  28.9519342  81.9689955  13.2398943  28.2542305
  80.4968106  13.0944697  28.5757944  93.1917829  21.4628616  27.8833601
  93.6254336  21.3703905  28.7316655  93.9049410  21.4386116  27.2453617
  82.1050880  22.6812614  25.0654334  82.8991478  22.1862934  24.8636909
  81.3942572  22.1530477  24.7022040  86.9245724  25.0630710  29.4166702
  86.9782746  25.6321646  30.1844418  86.0560506  25.2332595  29.0520739
  78.4133643  16.8255696  21.1414087  77.4831231  16.7640151  21.3584049
  78.5091115  16.3031649  20.3450728  78.3319192  13.3510509  23.7292329
  78.5926010  14.2655842  23.6201489  79.1536365  12.8834951  23.8788941
  79.8044118  14.7648266  30.8991153  80.4767171  14.5565628  30.2503802
  78.9773904  14.5670352  30.4596385  94.0533379  21.5052316  30.4166487
  94.2469269  22.4098127  30.6625762  93.9533997  21.0459735  31.2505072
  85.7069690  11.3910207  32.9156814  85.0597605  12.0900157  32.8221290
  86.4770705  11.8246351  33.2833062  89.1148488  21.6559059  35.9907367
  88.9633994  21.4269611  35.0737451  89.1053167  22.6129660  36.0038712
  85.8833824  19.2290972  30.9753634  86.8125884  19.3802131  30.8022601
  85.4624854  19.3174993  30.1202280  84.6822156  23.2541636  28.7452171
  84.5433241  22.8860421  29.6178110  83.8936752  23.7689276  28.5736129
  85.2770308  28.3550733  20.0877708  85.4522063  27.8838776  20.9023331
  84.5903096  28.9816499  20.3158969  86.2327371  22.6323239  26.1341009
  85.8977203  22.5924009  27.0298659  85.7331317  21.9667955  25.6611419
  80.2071615  18.0390869  31.6593590  80.0691413  17.3071108  32.2605129
  81.1176538  17.9499769  31.3777778  89.1686563  19.9779273  16.4078069
  88.5515733  19.2526101  16.3111122  88.7003051  20.7388633  16.0645143
  82.8353915  17.7510828  31.1477270  83.5453534  17.1104020  31.1063888
  82.7923224  18.0023723  32.0703451  90.8240694  24.6878182  34.0683849
  90.7653240  24.0037402  33.4014432  91.2260213  25.4297172  33.6164475
  81.5482849  14.7376046  32.9672909  81.0120206  14.2866785  33.6194506
  80.9599558  14.8721955  32.2243374  79.8431393  31.5040095  26.8617568
  80.0827991  32.1358620  27.5396587  79.0000589  31.1528135  27.1482927
  90.8258101  22.6517766  32.2997829  89.9384880  22.3143687  32.4224228
  91.3956652  21.9200797  32.5366594  72.4787249  18.9841857  25.6240880
  73.1658288  18.6703587  25.0361896  72.3235377  19.8883222  25.3508132
  77.2821971  13.8732054  30.0525904  77.1980159  13.2657723  29.3176314
  76.4604677  14.3641072  30.0535400  84.3559255  27.3119218  29.2659072
  84.2829426  28.1174189  29.7778377  83.9136648  27.5111184  28.4407093
  84.1449034  26.5490988  22.7761894  83.3616556  27.0912668  22.8700118
  84.8441780  27.0664968  23.1756135  87.4545685  12.3585617  25.4196099
  87.9514384  11.6055580  25.0997169  86.6832666  12.3949934  24.8539308
  95.3075442  18.0625983  27.0614391  95.2965318  18.9450698  26.6908324
  94.4392821  17.7097534  26.8668928  86.8157938  27.2106052  31.4217231
  87.5285911  27.8453517  31.3493132  86.3247967  27.3069918  30.6057233
  88.5375465  21.1157305  22.9934522  87.6031744  21.2358767  22.8239227
  88.7152134  20.2129771  22.7294532  84.0380653  14.5003000  25.1467784
  83.6678441  13.9474041  25.8348689  84.5339746  13.8961134  24.5942784
  91.9248017  16.9574624  23.5284557  92.3908469  17.7902615  23.4544859
  92.3755517  16.4919605  24.2329815  81.8669852  24.9600495  32.2422802
  82.5679311  25.5936978  32.3952196  81.3964967  25.3015227  31.4818441
  89.9924248  23.3018445  20.5270709  90.2684092  23.1875040  21.4364583
  89.1228746  22.9035930  20.4882882  89.8964679   9.3255211  27.5675458
  88.9827759   9.5559438  27.7357665  90.3257781   9.4093655  28.4189490
  89.6671138  17.5145103  30.0675352  89.0142588  17.7621010  29.4127805
  90.0451518  16.7009241  29.7337829  86.6278312  27.5504796  24.1703522
  86.8100706  26.7326452  24.6331275  87.4511298  27.7672488  23.7328412
  86.9620477  26.4772981  21.4318571  87.4908244  25.9665436  20.8188733
  87.2248697  26.1615511  22.2964104  85.7158711  18.2564914  36.5541389
  85.0399348  18.1559043  37.2243764  86.5386345  18.1004128  37.0177386
  77.4637570  24.4936850  29.1753904  78.0491007  23.7480538  29.3081808
  77.2662408  24.8040807  30.0590568  80.3176225  27.5288098  24.1916347
  79.6486600  28.0134225  23.7080387  80.1789095  27.7757318  25.1059725
  72.0555225  17.0642451  27.8958347  72.0939324  16.5306041  28.6895465
  71.5495518  16.5377656  27.2769325  84.4581494  29.5631841  30.7899005
  85.0099802  29.7263463  31.5548090  84.7987687  30.1536279  30.1179030
  79.4345987  11.9106991  31.3920890  79.4987313  12.7721822  30.9798287
  79.3713107  11.2980993  30.6593248  78.9098260  13.9830124  35.0393924
  79.5370298  13.6007201  35.6531448  78.0526178  13.7644326  35.4049616
  89.3092368  24.3893099  36.6447659  89.8532272  25.0023057  36.1502614
  88.7279213  24.9472677  37.1614672  87.5949881  27.5113817  27.7762687
  87.4701020  26.7103557  27.2673633  88.2528972  28.0060010  27.2876657
  79.2158049  13.8662549  26.9539827  78.4944635  14.4798517  26.8147301
  80.0051305  14.4020314  26.8756473  89.6584789  25.3122837  29.4042237
  88.7115125  25.1928188  29.3320564  90.0067563  24.4245335  29.4868499
  82.0184363  11.2016976  33.2280479  82.5418765  11.4479272  33.9906788
  81.7996696  12.0337011  32.8083616  86.6631223  25.1075553  25.6046589
  86.5156185  24.1792261  25.7854160  87.4884716  25.1295644  25.1203665
  80.5293467  13.7593620  21.4627082  80.8689540  14.2879541  20.7405690
  80.9765587  14.0974026  22.2385648  90.2665345  25.9304112  26.6911462
  91.1911892  25.7246973  26.5535913  90.0980648  25.6820513  27.6000804
  83.2236908  12.1430671  30.9130150  82.8833728  11.3438484  31.3150830
  82.5175914  12.4432382  30.3406983  83.8753380   9.2279983  29.3657473
  84.6979449   8.7540462  29.2436363  84.1191443  10.0070467  29.8656159
  86.6592737  12.9613391  20.5978707  86.8756351  13.8438029  20.2967535
  86.1786804  12.5699604  19.8684349  81.3991958  15.9199104  27.1749451
  81.2536539  16.2339407  28.0673733  80.9217162  16.5384004  26.6220350
  83.2588341  12.9101652  27.2230341  83.2449910  12.0142745  26.8862639
  83.9760769  12.9172316  27.8568627  85.1114472  13.3438992  29.2683468
  84.8532250  14.2656063  29.2667799  84.5799512  12.9469427  29.9583932
  90.0560661  26.4489779  22.0473554  90.2297538  25.8836202  21.2947406
  90.5489552  27.2490674  21.8653044  75.8737621  18.4604448  30.1137112
  75.3291089  19.2364256  30.2457387  76.7516970  18.8075253  29.9556234
  82.6625237  11.7916032  22.4917911  82.7841148  10.8632678  22.6908798
  82.3727280  11.8054718  21.5796226  85.5316428   9.4770943  25.6284631
  85.5538124   9.5410276  24.6736610  85.9484487   8.6375451  25.8225137
  95.9100052  19.2126202  23.6663853  96.3531198  18.4633527  23.2682977
  95.0326562  19.2036339  23.2837585  91.0435833  25.7656544  19.1470452
  91.7386738  26.3863236  19.3657767  91.3858983  24.9151895  19.4222830
  76.6603642  17.5874345  33.0067269  75.9185378  17.7356980  33.5931900
  76.3396387  17.8482610  32.1434019  92.9427256  23.2156249  20.6757783
  93.4678580  23.5543522  19.9507103  92.8549609  22.2803265  20.4920917
  84.6047305  27.1290323  32.8047659  84.9134432  26.8839470  33.6770359
  85.4022787  27.3336961  32.3166530  84.6267917  29.2828233  25.0353036
  84.1872907  28.7904611  25.7285893  85.3776034  28.7401200  24.7945111
  77.1060256  25.4739773  25.0377664  77.9318276  25.1743545  24.6576308
  76.7554308  24.7047396  25.4867453  82.0741789  24.8266242  27.1075338
  81.4521799  24.1636947  26.8077565  82.7446656  24.8527374  26.4248985
  75.3068861  23.3926100  25.9966598  74.4700769  22.9648274  25.8150599
  75.2792507  23.5858543  26.9337389  82.1466317  13.3048030  36.7007844
  82.1954472  14.1810152  36.3185613  82.6888831  12.7625423  36.1279487
  92.6321162  23.8489153  35.9808981  91.8416706  23.8313292  35.4413480
  92.3954517  24.3877447  36.7358017  92.7519037  20.6981619  33.2941709
  92.8017042  20.5331627  34.2357232  92.6432961  19.8308878  32.9039590
  81.6355296  23.3770165  20.5833798  81.7843417  24.0605629  19.9300471
  82.4421740  23.3575255  21.0983254  90.0422800  16.6812547  34.6101016
  90.9432663  16.5419012  34.3185014  90.1170774  16.8467002  35.5499193
  84.3765605  14.0579402  33.4554202  83.5068915  14.3512968  33.1836791
  84.6125086  14.6419847  34.1761466  94.2537234  23.1178561  33.5383731
  93.9622043  23.4808541  34.3747192  93.6409366  22.4045569  33.3597063
  95.4532917  20.6831441  26.0586301  96.2879808  21.1221245  26.2223861
  95.5892045  20.2070094  25.2394547  92.5024423  18.2411175  32.0063789
  92.9778544  18.4338822  31.1982640  91.5789988  18.2970361  31.7607172
  79.3907929  19.4035343  21.5894867  79.1453971  18.4997673  21.7875077
  79.5603844  19.4052493  20.6474345  87.0804639  10.2759019  30.9719623
  87.5986583  11.0120046  30.6466111  86.7259772  10.5823012  31.8066382
  87.3317233   6.6959302  26.4920519  87.6118987   6.0282491  27.1180946
  88.1167840   6.8888397  25.9795183  85.1350702  25.8718295  18.0545546
  84.5624669  26.4908483  17.6016017  85.7083495  26.4217657  18.5885467
  91.2026092  15.1176935  30.2392094  92.1543514  15.2175033  30.2604318
  91.0329542  14.3255204  30.7490179  89.2240471  12.2032519  30.4251495
  88.6290403  12.4837531  29.7297984  88.9390168  12.6926420  31.1968236
  88.3547961  26.1555446  19.1854128  89.2878635  26.0901007  19.3887003
  88.2671174  26.9911712  18.7268660  90.9835978  25.4721316  16.1458075
  90.9049610  25.1381179  17.0393833  91.8045645  25.9643084  16.1449548
  93.6814169  18.3383055  29.3534394  93.6490489  17.3999056  29.5394078
  94.2914793  18.4167092  28.6200219  93.8308658  15.1294099  29.3992677
  93.3147706  14.3452555  29.2122606  94.7148606  14.8012815  29.5639197
  91.4919385   8.8735114  25.3588490  91.2944206   8.5650202  26.2431822
  92.1019090   9.5996753  25.4886420  99.4990719  19.3999062  28.4940431
 100.2294108  19.1384350  29.0548134  98.8897665  18.6627784  28.5342499
  97.5806016  17.5406925  29.0914882  96.8539180  17.4062890  28.4831374
  97.1653303  17.8483753  29.8971600  85.4036193  21.2596854  36.8562255
  86.3239202  21.4375453  37.0502302  85.3685776  20.3152900  36.7041954
  74.6218358  16.4535448  25.7815530  74.3021142  15.6000756  25.4889904
  74.0751786  16.6684026  26.5373497  78.3998265  19.1697889  29.4985036
  78.6184275  20.1014997  29.5173070  78.8124039  18.8105863  30.2839840
  85.3202483   9.6765974  21.4860725  84.5103211   9.3313059  21.8615971
  86.0086900   9.3673518  22.0748336  87.2493031   8.7544021  23.1085021
  87.8024070   9.1739474  23.7675044  87.4863118   7.8279769  23.1507977
  83.2726131  14.7431095  38.8887785  83.1722858  15.6925452  38.8199876
  83.0547673  14.4149334  38.0163855  74.4906618  20.0738359  27.7508651
  73.7970089  19.6592312  27.2378606  75.2379609  20.1158896  27.1542070
  90.6271838  10.8644546  22.6163685  90.0470508  11.5229350  22.2341738
  90.3607771  10.0421891  22.2051103  89.0775405  10.2649604  24.8185006
  89.5775183  10.3766138  24.0099325  89.7211013   9.9610657  25.4585814
  83.1357401  18.1728234  37.7052847  82.6524482  18.9728594  37.9116736
  83.2218340  18.1836178  36.7520291  76.4043360  20.0056613  25.6274666
  76.3814048  20.1044300  24.6756549  76.7143997  20.8521764  25.9491832
  79.0630738  22.0632768  29.7421281  80.0173992  22.0316711  29.6751212
  78.8643262  21.6023392  30.5571506  79.6530120  20.6333884  32.3092078
  80.4723009  21.1277963  32.3326915  79.9266928  19.7165852  32.2809646
  89.4096716  13.0244637  21.6720034  88.5222572  13.3094287  21.4540228
  89.8250706  12.8638400  20.8247311  92.7611253  13.0491158  25.3874373
  93.5371643  13.5387610  25.6598990  92.0359387  13.4749212  25.8446242
  95.1983811  13.7618777  26.4448314  95.7928302  13.5214513  25.7341622
  95.2710395  13.0425907  27.0721850  77.4180967  27.6052388  26.7591478
  77.2835435  26.8452789  26.1929476  77.0013029  28.3293288  26.2920267
  88.5539930  22.7889311  15.7668054  89.2575780  22.9939314  16.3825709
  87.8302579  23.3566073  16.0317137  89.3837740  18.5399173  21.8870324
  89.3272942  18.9967724  21.0477956  89.9366083  17.7789857  21.7093167
  93.1942546  14.3288904  22.7120443  92.9379480  13.9285540  23.5428651
  92.5695414  15.0432698  22.5870583  97.5054884  17.0684978  25.2191735
  96.9454442  17.1378167  25.9923297  96.8998387  16.8925962  24.4991231
  80.5750093  28.5021705  26.9709921  80.4582477  29.4467137  26.8688611
  79.7542539  28.1995266  27.3595720  90.4626627  23.2271840  17.8166514
  91.2972231  22.7953039  17.6343989  90.3010970  23.0553854  18.7443408
  90.1172520  19.7303954  19.1822853  90.0621323  19.5648225  18.2411297
  89.4918575  20.4379987  19.3385043  74.9065035  14.9672018  33.0084275
  75.5523898  14.4570972  33.4971500  74.6982186  15.7040700  33.5827701
  87.4318427  22.0352866  38.5076416  88.3009586  22.2093518  38.1463051
  86.9525178  22.8547282  38.3852145  81.6004607  29.1549967  30.1865849
  82.5031854  29.1873577  30.5032344  81.3741977  28.2250418  30.2012185
  83.3558209  27.9080953  26.8475928  82.4053840  27.9082815  26.7340300
  83.6590695  27.1613688  26.3311963  87.2420764   5.8254839  23.0154108
  86.4753160   5.2713326  23.1610791  87.6531469   5.8976708  23.8768260
  79.2462526  12.1139635  37.1059290  80.1093987  11.7576440  37.3162614
  78.6727936  11.7753530  37.7934694  99.0910902  33.7441492  27.9121691
  99.7289312  33.6248239  27.2085031  98.9731745  34.6922336  27.9709643
  95.9000609  33.6968920  27.8483215  95.5619120  33.5809984  26.9603750
  96.7690377  33.2960085  27.8284221  91.7587424  35.5504396  23.8380106
  91.1952290  35.4594333  23.0696394  91.6439819  34.7304301  24.3182599
  96.3820392  34.8503771  33.8069421  96.3709032  34.4556570  32.9349924
  96.5441031  34.1169844  34.4003192  89.3051856  37.0455588  26.6764327
  90.0973148  36.7046412  26.2610626  89.5448507  37.1550563  27.5966480
  97.3386983  39.2175364  19.1494571  96.6874963  39.8029444  18.7628585
  98.1331346  39.7481559  19.2089609  91.2642610  36.3064501  19.5481705
  92.0373486  35.7593488  19.4094581  91.6168009  37.1708750  19.7596167
  93.1027653  37.6340883  32.7548605  92.8117519  38.5386514  32.6395271
  93.7384637  37.6757411  33.4692674  94.0283860  35.0117732  29.3449964
  94.6247432  34.7873754  28.6306927  94.0858831  34.2702477  29.9475412
  93.6008888  32.4657167  17.1800155  93.8534409  31.9438688  16.4183618
  92.6633447  32.3023313  17.2826839  98.6452171  31.4692945  24.9874899
  99.4315260  31.0512369  24.6365316  98.9090875  32.3739038  25.1556547
  98.8162248  36.9065796  19.6863555  98.1808081  36.9800422  20.3984460
  98.4859655  37.4959395  19.0082635 104.0460598  31.4068179  25.8907877
 104.7785770  30.8367395  26.1245707 103.2899954  31.0189779  26.3314383
  93.3205177  34.3685273  19.3824530  93.2041435  33.6930176  20.0505615
  93.4307437  33.8817647  18.5656683  95.6636718  33.8295420  23.0871220
  95.2994925  33.3026041  23.7984141  96.5203834  33.4393889  22.9137705
 101.5686018  25.1189753  30.3502486 101.2369343  25.9885164  30.1263701
 100.9731632  24.8026037  31.0296516  95.3042205  28.8585320  18.0832568
  95.4716607  29.7265556  18.4503039  95.1139374  29.0212602  17.1593857
  98.0617538  37.3202299  29.7498398  97.7618261  38.2227338  29.6414206
  97.7168597  37.0534482  30.6019551  91.5130019  33.7716096  25.7835103
  90.5880516  33.6392310  25.9912795  91.7614433  34.5510315  26.2805045
 101.4614682  29.8384839  27.4295836 100.5531559  29.7700247  27.1354597
 101.4102278  30.3156784  28.2577661  95.2831426  31.3142977  19.0679235
  95.1631051  31.7600028  19.9064715  94.5884014  31.6628295  18.5092773
  88.8738830  33.4149369  26.6178892  89.0031212  33.6683848  27.5318304
  88.1936282  34.0077077  26.2983547  93.0438318  44.0846619  22.7169366
  92.9662347  45.0354444  22.7957847  92.4399961  43.7392492  23.3744292
  95.5355548  31.2574485  35.3730733  94.7588882  31.8168405  35.3633598
  96.1746111  31.7431267  35.8945603 103.3276328  28.0401277  29.2073710
 102.6850708  28.3333810  28.5613504 102.8231257  27.9254198  30.0126906
 100.9816492  31.7864451  19.8959569 101.8934348  32.0191837  19.7207266
 100.4726139  32.3701495  19.3334648  93.7901920  34.0659938  34.9348700
  94.5316604  34.6044982  34.6583524  93.0838905  34.6926227  35.0920252
  99.2657259  36.2089078  33.5320861  99.6740615  35.7671489  32.7875494
  98.5434521  35.6341706  33.7855054  95.6188330  31.1461685  30.9054418
  96.4649525  31.5701099  31.0489067  95.5586967  30.4895309  31.5992982
  99.5886074  36.7690269  27.2873150  98.9594937  36.9335983  26.5849218
  99.2011736  37.1831879  28.0584114 103.4675306  37.7044707  24.6417514
 102.7826344  38.0843608  24.0914547 103.5519155  38.3140033  25.3749462
  98.7687775  28.8066053  32.5635592  98.5248707  29.5608114  32.0269868
  99.0447705  29.1851401  33.3982839 100.7226238  35.3504666  31.2412858
 100.9343133  35.9936426  30.5647239 100.6755986  34.5166982  30.7734788
  98.3252467  27.9622486  28.1449430  97.4636946  28.2603740  28.4366167
  98.3514901  28.1792885  27.2130462  95.1414036  36.5064677  24.5523235
  95.6052382  36.7852380  23.7627858  94.8770834  35.6048122  24.3696326
  92.0338117  36.0536159  27.4902999  92.6039474  36.4823427  26.8520483
  92.6246229  35.7718743  28.1887184  94.0782922  32.6287829  21.3612801
  94.7806965  33.0808873  21.8286727  93.7463551  31.9871648  21.9892694
  92.5263284  31.2199586  35.7364010  91.8961944  31.9015867  35.9699407
  92.4199371  31.1082668  34.7917148  87.8208256  30.8871382  26.6629934
  87.0307310  31.1428911  26.1870045  88.3119503  31.7019720  26.7681975
 101.8372066  38.2276621  29.4135215 102.6589509  37.8256809  29.1317897
 101.8334468  38.1244855  30.3651331  89.7723001  31.2515961  23.6213411
  88.9754165  31.3634656  24.1396907  89.5448594  31.5902614  22.7554301
  95.6028669  37.7760665  31.5695925  95.6673102  38.2381072  32.4054097
  94.8939593  37.1458029  31.6978235  86.1045959  31.1401873  29.0944925
  86.3553997  32.0248882  29.3602501  86.6405507  30.9606474  28.3220017
 109.9278059  34.5715370  25.7620186 109.1741767  34.0022768  25.6064191
 110.0625600  34.5378034  26.7090821  95.3176687  39.4428772  21.4374906
  95.1822361  40.2880308  21.8659754  95.8586499  39.6448050  20.6740840
  91.8044026  25.5220352  38.0989261  91.4110972  24.9686550  38.7736905
  92.6210167  25.8330930  38.4895779  88.7706084  36.9604210  22.0102831
  89.2830605  37.7547460  22.1608396  89.4228797  36.2630501  21.9436432
  90.5800969  40.0769966  24.0925584  90.7567597  40.9987931  23.9046568
  91.3757802  39.7628386  24.5219964  94.7211987  26.9378231  35.6909518
  95.4621701  27.5385384  35.6113980  94.9529910  26.1955869  35.1327560
  89.8653325  32.1234598  33.9687747  89.7506840  31.2219855  34.2694846
  89.0097843  32.3698295  33.6172564  96.9445163  40.0652339  35.5675248
  96.5009017  39.2788717  35.2496152  97.6062377  40.2531489  34.9019139
  91.7032284  41.5948140  30.0935926  92.2539709  41.4665204  29.3212920
  90.8643760  41.8943029  29.7430819  99.0426401  40.3455138  33.5956649
  99.0244876  41.1664020  33.1036918  99.9646321  40.2209214  33.8206790
  95.4999455  37.8599268  34.4380158  96.0327792  37.0987556  34.2079466
  94.9713536  37.5672920  35.1804312  98.6669150  22.9659334  29.9673799
  98.3233420  23.8560976  29.8912910  99.0348113  22.7760992  29.1043384
  86.7355001  35.2892864  22.7862401  87.5730223  35.6989873  22.5696109
  86.9133269  34.3492307  22.7562595  98.6319433  32.9567945  18.4746234
  98.1166056  33.7272550  18.7134622  98.3596741  32.2833081  19.0979296
  96.2166544  27.8017646  23.5331473  95.3608140  27.4124496  23.3537111
  96.6293496  27.8809607  22.6731258  97.7465691  25.3363989  27.9323033
  97.2430486  25.2994124  27.1190838  98.0396297  26.2456732  27.9919689
  93.9908576  25.4202719  26.9389214  94.8561573  25.2245527  26.5795104
  94.0586085  25.1913071  27.8658571 103.6053707  35.7100300  20.4099408
 102.8283150  35.3711459  19.9654570 104.2845188  35.7152923  19.7354373
  98.4205736  30.8295037  20.3006016  98.1155872  31.1441186  21.1516159
  99.3736178  30.9076457  20.3433349  96.8652168  36.9885260  21.9498970
  96.3373530  36.2538020  21.6372207  96.3639671  37.7659937  21.7038938
 101.8445014  35.1834281  27.0666016 101.1868688  35.8733542  27.1546144
 102.6485413  35.5730713  27.4100002  91.5970896  27.6504927  24.3105581
  92.1714647  27.4280108  23.5778774  92.1841878  27.7193621  25.0634182
 100.6550473  33.5378654  25.1169958 101.1682355  34.1708645  25.6191667
 101.3051697  32.9379849  24.7513318  91.9240483  29.6809388  18.3301466
  91.0877795  30.0184074  18.6510741  91.7845252  29.5458368  17.3928603
  93.8993563  24.5246176  23.0380651  93.2457976  24.2095193  22.4137265
  93.8574037  23.9021916  23.7640473  95.0104768  34.8065471  14.9533943
  94.1031830  34.5754724  15.1525092  95.5075800  34.0103090  15.1407924
  97.9172847  43.5162978  17.8730629  97.2434546  43.8194675  18.4815587
  98.3038669  44.3192058  17.5236086  97.1331304  31.0128109  27.3628298
  96.2153865  31.2343056  27.2049986  97.5491447  31.0874420  26.5040005
  97.9166351  32.4119525  22.4930978  98.6638170  32.9240922  22.1838100
  98.1857941  32.0903578  23.3535372  96.1893002  34.9078066  19.4757933
  95.2804221  34.6237098  19.5730402  96.2188085  35.3277144  18.6161240
 101.4212269  38.5184655  23.2449100 100.9674596  37.6775565  23.3014291
 100.7906236  39.1546053  23.5823880 100.3645189  29.4476641  24.4749768
  99.6267945  28.9354027  24.8060010 100.6171962  29.0077023  23.6633045
  99.8645208  40.3561152  24.1798918 100.1568183  40.9166209  23.4611284
 100.3743829  40.6489713  24.9352077 100.4656816  22.2252893  25.0691537
 100.7715693  21.3650257  24.7817452 101.1909421  22.8170513  24.8690531
  86.7581172  32.6283580  23.4573135  86.5605572  32.0352940  22.7324201
  86.2027836  32.3235790  24.1749074  94.7377896  32.5206686  25.5767728
  94.7926505  31.5680523  25.5010205  93.9269098  32.6766125  26.0609026
  95.8869089  36.4486809  16.8146011  95.4488519  35.7322668  16.3551649
  96.6279530  36.6762924  16.2531103  92.6770256  31.1383746  23.3358107
  91.8638121  31.4377916  23.7423299  93.1729250  30.7439435  24.0532589
  94.8278833  41.1341503  25.2692372  94.7855012  41.3602349  24.3400904
  95.7441532  40.9004877  25.4178173  98.2744467  31.6025570  32.1673001
  98.6293855  31.8297044  33.0267467  98.9216598  31.9343947  31.5450256
 104.0042204  34.7244006  22.8722330 103.8660103  34.9145602  21.9443519
 103.6478423  35.4863389  23.3290381  92.1684330  28.7102101  28.9519342
  92.8083710  28.5690861  28.2542305  91.3361861  28.4236615  28.5757944
 104.0311584  36.7920533  27.8833601 104.4648090  36.6995822  28.7316655
 104.7443164  36.7678034  27.2453617  92.9444634  38.0104532  25.0654334
  93.7385233  37.5154852  24.8636909  92.2336327  37.4822395  24.7022040
  97.7639479  40.3922627  29.4166702  97.8176501  40.9613564  30.1844418
  96.8954260  40.5624512  29.0520739  89.2527398  32.1547614  21.1414087
  88.3224986  32.0932069  21.3584049  89.3484870  31.6323566  20.3450728
  89.1712947  28.6802426  23.7292329  89.4319764  29.5947760  23.6201489
  89.9930119  28.2126869  23.8788941  90.6437872  30.0940184  30.8991153
  91.3160925  29.8857546  30.2503802  89.8167659  29.8962270  30.4596385
 104.8927133  36.8344234  30.4166487 105.0863023  37.7390044  30.6625762
 104.7927751  36.3751653  31.2505072  96.5463444  26.7202125  32.9156814
  95.8991359  27.4192074  32.8221290  97.3164459  27.1538268  33.2833062
  99.9542242  36.9850977  35.9907367  99.8027748  36.7561528  35.0737451
  99.9446921  37.9421578  36.0038712  96.7227578  34.5582889  30.9753634
  97.6519638  34.7094049  30.8022601  96.3018608  34.6466910  30.1202280
  95.5215910  38.5833554  28.7452171  95.3826996  38.2152338  29.6178110
  94.7330506  39.0981193  28.5736129  96.1164062  43.6842650  20.0877708
  96.2915818  43.2130694  20.9023331  95.4296850  44.3108417  20.3158969
  97.0721125  37.9615157  26.1341009  96.7370958  37.9215927  27.0298659
  96.5725071  37.2959872  25.6611419  91.0465369  33.3682787  31.6593590
  90.9085167  32.6363025  32.2605129  91.9570293  33.2791687  31.3777778
 100.0080317  35.3071191  16.4078069  99.3909488  34.5818019  16.3111122
  99.5396805  36.0680551  16.0645143  93.6747670  33.0802746  31.1477270
  94.3847289  32.4395938  31.1063888  93.6316978  33.3315641  32.0703451
 101.6634449  40.0170099  34.0683849 101.6046995  39.3329319  33.4014432
 102.0653967  40.7589089  33.6164475  92.3876604  30.0667964  32.9672909
  91.8513961  29.6158702  33.6194506  91.7993312  30.2013873  32.2243374
  90.6825147  46.8332013  26.8617568  90.9221746  47.4650537  27.5396587
  89.8394344  46.4820053  27.1482927  91.7978863  29.5256615  15.5299373
  90.9208329  29.4045416  15.1661620  92.2736616  28.7342693  15.2778262
 101.6651856  37.9809683  32.2997829 100.7778635  37.6435605  32.4224228
 102.2350407  37.2492714  32.5366594  83.3181003  34.3133775  25.6240880
  84.0052043  33.9995505  25.0361896  83.1629132  35.2175140  25.3508132
  88.1215725  29.2023971  30.0525904  88.0373914  28.5949641  29.3176314
  87.2998432  29.6932990  30.0535400  95.1953009  42.6411136  29.2659072
  95.1223181  43.4466107  29.7778377  94.7530402  42.8403101  28.4407093
  94.9842789  41.8782906  22.7761894  94.2010311  42.4204586  22.8700118
  95.6835534  42.3956885  23.1756135  98.2939439  27.6877535  25.4196099
  98.7908139  26.9347497  25.0997169  97.5226421  27.7241852  24.8539308
 106.1469196  33.3917901  27.0614391 106.1359073  34.2742616  26.6908324
 105.2786576  33.0389451  26.8668928  97.6551693  42.5397970  31.4217231
  98.3679665  43.1745434  31.3493132  97.1641721  42.6361836  30.6057233
  99.3769220  36.4449222  22.9934522  98.4425498  36.5650685  22.8239227
  99.5545888  35.5421689  22.7294532  94.8774408  29.8294918  25.1467784
  94.5072195  29.2765958  25.8348689  95.3733500  29.2253051  24.5942784
 102.7641771  32.2866542  23.5284557 103.2302223  33.1194533  23.4544859
 103.2149272  31.8211523  24.2329815  92.7063606  40.2892413  32.2422802
  93.4073066  40.9228896  32.3952196  92.2358721  40.6307145  31.4818441
 100.8318002  38.6310363  20.5270709 101.1077846  38.5166957  21.4364583
  99.9622501  38.2327848  20.4882882 100.7358434  24.6547129  27.5675458
  99.8221514  24.8851355  27.7357665 101.1651535  24.7385573  28.4189490
 100.5064892  32.8437020  30.0675352  99.8536343  33.0912928  29.4127805
 100.8845272  32.0301159  29.7337829  97.4672066  42.8796714  24.1703522
  97.6494461  42.0618370  24.6331275  98.2905052  43.0964406  23.7328412
  97.8014232  41.8064899  21.4318571  98.3301998  41.2957353  20.8188733
  98.0642451  41.4907429  22.2964104  96.5552465  33.5856832  36.5541389
  95.8793102  33.4850961  37.2243764  97.3780099  33.4296045  37.0177386
  88.3031324  39.8228768  29.1753904  88.8884761  39.0772456  29.3081808
  88.1056163  40.1332725  30.0590568  91.1569980  42.8580015  24.1916347
  90.4880355  43.3426143  23.7080387  91.0182849  43.1049236  25.1059725
  82.8948979  32.3934368  27.8958347  82.9333079  31.8597959  28.6895465
  82.3889272  31.8669574  27.2769325  95.2975248  44.8923759  30.7899005
  95.8493556  45.0555380  31.5548090  95.6381442  45.4828197  30.1179030
  90.2739741  27.2398909  31.3920890  90.3381068  28.1013740  30.9798287
  90.2106862  26.6272910  30.6593248  89.7492014  29.3122041  35.0393924
  90.3764053  28.9299119  35.6531448  88.8919933  29.0936243  35.4049616
 100.1486123  39.7185016  36.6447659 100.6926027  40.3314975  36.1502614
  99.5672967  40.2764595  37.1614672  86.5257557  31.1198470  20.9712279
  86.8210998  30.2109149  20.9179332  85.6245593  31.0986210  20.6493281
  98.4343636  42.8405735  27.7762687  98.3094775  42.0395474  27.2673633
  99.0922727  43.3351928  27.2876657  90.0551804  29.1954467  26.9539827
  89.3338390  29.8090435  26.8147301  90.8445060  29.7312232  26.8756473
 100.4978544  40.6414755  29.4042237  99.5508879  40.5220106  29.3320564
 100.8461317  39.7537253  29.4868499  92.8578117  26.5308894  33.2280479
  93.3812519  26.7771190  33.9906788  92.6390451  27.3628928  32.8083616
  88.2545398  28.8012568  21.0951604  87.9258104  27.9209947  20.9126710
  88.6084769  28.7460237  21.9827993  97.5024977  40.4367471  25.6046589
  97.3549940  39.5084178  25.7854160  98.3278471  40.4587562  25.1203665
  91.3687221  29.0885538  21.4627082  91.7083294  29.6171459  20.7405690
  91.8159342  29.4265944  22.2385648 101.1059099  41.2596030  26.6911462
 102.0305647  41.0538891  26.5535913 100.9374402  41.0112431  27.6000804
  94.0630662  27.4722589  30.9130150  93.7227483  26.6730402  31.3150830
  93.3569669  27.7724299  30.3406983  94.7147134  24.5571901  29.3657473
  95.5373203  24.0832379  29.2436363  94.9585198  25.3362385  29.8656159
  93.3555369  27.5860159  19.6620374  94.0763731  27.9641412  19.1584091
  92.7320673  28.3049036  19.7655352  97.4986492  28.2905308  20.5978707
  97.7150106  29.1729946  20.2967535  97.0180559  27.8991522  19.8684349
  92.2385713  31.2491022  27.1749451  92.0930294  31.5631325  28.0673733
  91.7610917  31.8675922  26.6220350  94.0982096  28.2393570  27.2230341
  94.0843665  27.3434663  26.8862639  94.8154524  28.2464233  27.8568627
  95.9508227  28.6730910  29.2683468  95.6926004  29.5947981  29.2667799
  95.4193267  28.2761344  29.9583932 100.8954415  41.7781697  22.0473554
 101.0691293  41.2128119  21.2947406 101.3883306  42.5782592  21.8653044
  86.7131375  33.7896366  30.1137112  86.1684843  34.5656174  30.2457387
  87.5910725  34.1367171  29.9556234  93.5018992  27.1207950  22.4917911
  93.6234903  26.1924596  22.6908798  93.2121034  27.1346636  21.5796226
  96.3710182  24.8062860  25.6284631  96.3931879  24.8702193  24.6736610
  96.7878241  23.9667369  25.8225137 106.7493806  34.5418120  23.6663853
 107.1924952  33.7925445  23.2682977 105.8720317  34.5328256  23.2837585
 101.8829588  41.0948461  19.1470452 102.5780492  41.7155154  19.3657767
 102.2252738  40.2443813  19.4222830  87.4997397  32.9166262  33.0067269
  86.7579133  33.0648898  33.5931900  87.1790141  33.1774528  32.1434019
 103.7821011  38.5448167  20.6757783 104.3072335  38.8835440  19.9507103
 103.6943363  37.6095182  20.4920917  95.4441060  42.4582241  32.8047659
  95.7528186  42.2131387  33.6770359  96.2416542  42.6628879  32.3166530
  95.4661672  44.6120150  25.0353036  95.0266662  44.1196529  25.7285893
  96.2169789  44.0693118  24.7945111  87.9454011  40.8031691  25.0377664
  88.7712031  40.5035463  24.6576308  87.5948063  40.0339313  25.4867453
  92.9135544  40.1558159  27.1075338  92.2915553  39.4928864  26.8077565
  93.5840411  40.1819291  26.4248985  86.1462616  38.7218018  25.9966598
  85.3094524  38.2940192  25.8150599  86.1186261  38.9150461  26.9337389
  92.9860071  28.6339947  36.7007844  93.0348227  29.5102070  36.3185613
  93.5282585  28.0917340  36.1279487 103.4714917  39.1781071  35.9808981
 102.6810461  39.1605209  35.4413480 103.2348272  39.7169364  36.7358017
 103.5912792  36.0273537  33.2941709 103.6410797  35.8623544  34.2357232
 103.4826715  35.1600796  32.9039590  92.4749051  38.7062083  20.5833798
  92.6237171  39.3897547  19.9300471  93.2815494  38.6867173  21.0983254
 100.8816554  32.0104465  34.6101016 101.7826417  31.8710930  34.3185014
 100.9564529  32.1758920  35.5499193  95.2159360  29.3871320  33.4554202
  94.3462669  29.6804886  33.1836791  95.4518840  29.9711765  34.1761466
 105.0930989  38.4470478  33.5383731 104.8015797  38.8100459  34.3747192
 104.4803120  37.7337487  33.3597063 106.2926671  36.0123358  26.0586301
 107.1273563  36.4513162  26.2223861 106.4285800  35.5362011  25.2394547
 103.3418177  33.5703093  32.0063789 103.8172299  33.7630739  31.1982640
 102.4183742  33.6262279  31.7607172  90.2301684  34.7327260  21.5894867
  89.9847726  33.8289590  21.7875077  90.3997598  34.7344411  20.6474345
  97.9198394  25.6050937  30.9719623  98.4380337  26.3411964  30.6466111
  97.5653526  25.9114930  31.8066382  89.4997331  30.4655618  19.0881028
  88.8066576  30.5399973  18.4321064  89.2549083  29.7015961  19.6102545
  98.1710988  22.0251219  26.4920519  98.4512741  21.3574408  27.1180946
  98.9561595  22.2180315  25.9795183  95.9744456  41.2010213  18.0545546
  95.4018423  41.8200400  17.6016017  96.5477250  41.7509575  18.5885467
 102.0419846  30.4468853  30.2392094 102.9937269  30.5466951  30.2604318
 101.8723296  29.6547122  30.7490179 100.0634226  27.5324436  30.4251495
  99.4684158  27.8129449  29.7297984  99.7783922  28.0218337  31.1968236
  99.1941716  41.4847363  19.1854128 100.1272389  41.4192925  19.3887003
  99.1064929  42.3203630  18.7268660 101.8229733  40.8013234  16.1458075
 101.7443364  40.4673097  17.0393833 102.6439399  41.2935001  16.1449548
 104.5207924  33.6674973  29.3534394 104.4884244  32.7290974  29.5394078
 105.1308547  33.7459010  28.6200219  96.3591255  32.5371026  15.3961598
  97.3050359  32.4077234  15.4650016  95.9805500  31.7985688  15.8731026
 104.6702412  30.4586016  29.3992677 104.1541461  29.6744473  29.2122606
 105.5542361  30.1304733  29.5639197 102.3313139  24.2027032  25.3588490
 102.1337960  23.8942120  26.2431822 102.9412845  24.9288671  25.4886420
 110.3384474  34.7290980  28.4940431 111.0687862  34.4676268  29.0548134
 109.7291419  33.9919702  28.5342499 108.4199771  32.8698842  29.0914882
 107.6932934  32.7354807  28.4831374 108.0047058  33.1775671  29.8971600
  96.2429947  36.5888772  36.8562255  97.1632957  36.7667371  37.0502302
  96.2079530  35.6444817  36.7041954  94.5434172  30.4621002  15.3316483
  93.6365627  30.1654115  15.4079197  94.8210153  30.1650820  14.4650769
  85.4612112  31.7827366  25.7815530  85.1414897  30.9292674  25.4889904
  84.9145540  31.9975944  26.5373497  89.2392020  34.4989807  29.4985036
  89.4578030  35.4306914  29.5173070  89.6517794  34.1397781  30.2839840
  96.1596238  25.0057892  21.4860725  95.3496966  24.6604977  21.8615971
  96.8480655  24.6965436  22.0748336  98.0886786  24.0835939  23.1085021
  98.6417824  24.5031392  23.7675044  98.3256872  23.1571687  23.1507977
  94.1119885  30.0723012  38.8887785  94.0116612  31.0217369  38.8199876
  93.8941427  29.7441251  38.0163855  93.3132956  27.3207937  15.4728462
  94.1752120  27.6462836  15.7324280  93.4983301  26.5339433  14.9601528
  85.3300372  35.4030277  27.7508651  84.6363844  34.9884230  27.2378606
  86.0773363  35.4450814  27.1542070 101.4665593  26.1936464  22.6163685
 100.8864262  26.8521268  22.2341738 101.2001526  25.3713808  22.2051103
  99.9169159  25.5941522  24.8185006 100.4168938  25.7058056  24.0099325
 100.5604767  25.2902574  25.4585814  93.9751155  33.5020151  37.7052847
  93.4918237  34.3020511  37.9116736  94.0612094  33.5128096  36.7520291
  87.2437115  35.3348531  25.6274666  87.2207803  35.4336218  24.6756549
  87.5537751  36.1813682  25.9491832  89.9024493  37.3924686  29.7421281
  90.8567746  37.3608628  29.6751212  89.7037016  36.9315310  30.5571506
  90.4923875  35.9625802  32.3092078  91.3116764  36.4569881  32.3326915
  90.7660682  35.0457770  32.2809646 100.2490471  28.3536554  21.6720034
  99.3616326  28.6386205  21.4540228 100.6644460  28.1930318  20.8247311
 103.6005007  28.3783075  25.3874373 104.3765397  28.8679528  25.6598990
 102.8753141  28.8041129  25.8446242 106.0377566  29.0910694  26.4448314
 106.6322057  28.8506430  25.7341622 106.1104149  28.3717825  27.0721850
  88.2574721  42.9344305  26.7591478  88.1229189  42.1744706  26.1929476
  87.8406784  43.6585205  26.2920267  99.3933684  38.1181229  15.7668054
 100.0969535  38.3231231  16.3825709  98.6696333  38.6857991  16.0317137
 100.2231495  33.8691090  21.8870324 100.1666696  34.3259642  21.0477956
 100.7759837  33.1081775  21.7093167 104.0336301  29.6580822  22.7120443
 103.7773235  29.2577458  23.5428651 103.4089169  30.3724616  22.5870583
 108.3448638  32.3976895  25.2191735 107.7848196  32.4670085  25.9923297
 107.7392142  32.2217880  24.4991231  91.4143847  43.8313622  26.9709921
  91.2976231  44.7759055  26.8688611  90.5936294  43.5287184  27.3595720
 101.3020382  38.5563758  17.8166514 102.1365986  38.1244957  17.6343989
 101.1404725  38.3845772  18.7443408 100.9566274  35.0595871  19.1822853
 100.9015078  34.8940143  18.2411297 100.3312329  35.7671904  19.3385043
  85.7458789  30.2963936  33.0084275  86.3917653  29.7862890  33.4971500
  85.5375940  31.0332617  33.5827701  98.2712181  37.3644783  38.5076416
  99.1403341  37.5385436  38.1463051  97.7918933  38.1839200  38.3852145
  94.2662399  24.5603980  18.7608171  94.2541069  25.5045820  18.9176442
  95.1585821  24.3774126  18.4667633  92.4398361  44.4841884  30.1865849
  93.3425608  44.5165495  30.5032344  92.2135731  43.5542335  30.2012185
  94.1951963  43.2372871  26.8475928  93.2447594  43.2374732  26.7340300
  94.4984450  42.4905605  26.3311963  98.0814519  21.1546757  23.0154108
  97.3146915  20.6005244  23.1610791  98.4925224  21.2268626  23.8768260
  90.0856280  27.4431553  37.1059290  90.9487742  27.0868358  37.3162614
  89.5121691  27.1045448  37.7934694 109.9304657  49.0733409  27.9121691
 110.5683067  48.9540157  27.2085031 109.8125500  50.0214253  27.9709643
 106.7394363  49.0260837  27.8483215 106.4012875  48.9101902  26.9603750
 107.6084131  48.6252002  27.8284221 102.5981179  50.8796314  23.8380106
 102.0346044  50.7886251  23.0696394 102.4833574  50.0596218  24.3182599
 107.2214146  50.1795689  33.8069421 107.2102787  49.7848487  32.9349924
 107.3834786  49.4461762  34.4003192 100.1445611  52.3747505  26.6764327
 100.9366903  52.0338330  26.2610626 100.3842261  52.4842480  27.5966480
 108.1780738  54.5467281  19.1494571 107.5268717  55.1321362  18.7628585
 108.9725100  55.0773476  19.2089609 102.1036365  51.6356419  19.5481705
 102.8767241  51.0885406  19.4094581 102.4561764  52.5000668  19.7596167
 103.9421407  52.9632801  32.7548605 103.6511273  53.8678432  32.6395271
 104.5778392  53.0049329  33.4692674 104.8677614  50.3409649  29.3449964
 105.4641186  50.1165672  28.6306927 104.9252586  49.5994395  29.9475412
 104.4402643  47.7949085  17.1800155 104.6928163  47.2730606  16.4183618
 103.5027202  47.6315230  17.2826839 109.4845925  46.7984863  24.9874899
 110.2709015  46.3804286  24.6365316 109.7484630  47.7030955  25.1556547
 109.6556003  52.2357713  19.6863555 109.0201836  52.3092340  20.3984460
 109.3253409  52.8251312  19.0082635 114.8854353  46.7360096  25.8907877
 115.6179524  46.1659313  26.1245707 114.1293708  46.3481697  26.3314383
 104.1598931  49.6977191  19.3824530 104.0435189  49.0222094  20.0505615
 104.2701191  49.2109565  18.5656683 106.5030472  49.1587338  23.0871220
 106.1388680  48.6317959  23.7984141 107.3597588  48.7685807  22.9137705
 112.4079773  40.4481670  30.3502486 112.0763098  41.3177081  30.1263701
 111.8125386  40.1317954  31.0296516 106.1435959  44.1877238  18.0832568
 106.3110362  45.0557474  18.4503039 105.9533128  44.3504519  17.1593857
 108.9011292  52.6494216  29.7498398 108.6012016  53.5519255  29.6414206
 108.5562352  52.3826400  30.6019551 102.3523774  49.1008013  25.7835103
 101.4274270  48.9684227  25.9912795 102.6008187  49.8802232  26.2805045
 112.3008436  45.1676757  27.4295836 111.3925314  45.0992165  27.1354597
 112.2496032  45.6448702  28.2577661 106.1225180  46.6434895  19.0679235
 106.0024805  47.0891946  19.9064715 105.4277769  46.9920213  18.5092773
  99.7132585  48.7441287  26.6178892  99.8424966  48.9975766  27.5318304
  99.0330036  49.3368995  26.2983547 103.8832072  59.4138537  22.7169366
 103.8056102  60.3646362  22.7957847 103.2793716  59.0684409  23.3744292
 106.3749302  46.5866402  35.3730733 105.5982636  47.1460322  35.3633598
 107.0139865  47.0723185  35.8945603 114.1670083  43.3693195  29.2073710
 113.5244463  43.6625728  28.5613504 113.6625011  43.2546115  30.0126906
 111.8210246  47.1156368  19.8959569 112.7328102  47.3483755  19.7207266
 111.3119893  47.6993412  19.3334648 104.6295674  49.3951856  34.9348700
 105.3710359  49.9336900  34.6583524 103.9232660  50.0218144  35.0920252
 110.1051014  51.5380996  33.5320861 110.5134370  51.0963407  32.7875494
 109.3828275  50.9633624  33.7855054 106.4582084  46.4753603  30.9054418
 107.3043279  46.8993016  31.0489067 106.3980722  45.8187227  31.5992982
 110.4279829  52.0982187  27.2873150 109.7988691  52.2627901  26.5849218
 110.0405491  52.5123796  28.0584114 114.3069060  53.0336624  24.6417514
 113.6220099  53.4135526  24.0914547 114.3912910  53.6431951  25.3749462
 109.6081529  44.1357971  32.5635592 109.3642461  44.8900032  32.0269868
 109.8841460  44.5143319  33.3982839 111.5619992  50.6796584  31.2412858
 111.7736887  51.3228343  30.5647239 111.5149740  49.8458900  30.7734788
 109.1646221  43.2914404  28.1449430 108.3030700  43.5895658  28.4366167
 109.1908656  43.5084803  27.2130462 105.9807790  51.8356595  24.5523235
 106.4446136  52.1144298  23.7627858 105.7164589  50.9340039  24.3696326
 102.8731872  51.3828076  27.4902999 103.4433229  51.8115345  26.8520483
 103.4639983  51.1010661  28.1887184 104.9176677  47.9579747  21.3612801
 105.6200720  48.4100791  21.8286727 104.5857305  47.3163566  21.9892694
 103.3657038  46.5491504  35.7364010 102.7355699  47.2307785  35.9699407
 103.2593126  46.4374585  34.7917148  98.6602010  46.2163300  26.6629934
  97.8701064  46.4720828  26.1870045  99.1513258  47.0311638  26.7681975
 112.6765820  53.5568539  29.4135215 113.4983264  53.1548726  29.1317897
 112.6728223  53.4536773  30.3651331 100.6116756  46.5807879  23.6213411
  99.8147919  46.6926573  24.1396907 100.3842348  46.9194531  22.7554301
 106.4422423  53.1052582  31.5695925 106.5066856  53.5672989  32.4054097
 105.7333347  52.4749947  31.6978235  96.9439713  46.4693790  29.0944925
  97.1947752  47.3540800  29.3602501  97.4799262  46.2898392  28.3220017
 120.7671813  49.9007287  25.7620186 120.0135521  49.3314685  25.6064191
 120.9019354  49.8669952  26.7090821 106.1570441  54.7720690  21.4374906
 106.0216116  55.6172225  21.8659754 106.6980254  54.9739967  20.6740840
 102.6437781  40.8512270  38.0989261 102.2504726  40.2978468  38.7736905
 103.4603921  41.1622848  38.4895779  99.6099839  52.2896128  22.0102831
 100.1224359  53.0839378  22.1608396 100.2622551  51.5922418  21.9436432
 101.4194723  55.4061884  24.0925584 101.5961352  56.3279849  23.9046568
 102.2151557  55.0920303  24.5219964 105.5605742  42.2670149  35.6909518
 106.3015455  42.8677302  35.6113980 105.7923665  41.5247786  35.1327560
 100.7047080  47.4526516  33.9687747 100.5900595  46.5511773  34.2694846
  99.8491598  47.6990213  33.6172564 107.7838918  55.3944256  35.5675248
 107.3402772  54.6080635  35.2496152 108.4456131  55.5823407  34.9019139
 102.5426039  56.9240058  30.0935926 103.0933464  56.7957121  29.3212920
 101.7037515  57.2234947  29.7430819 109.8820156  55.6747056  33.5956649
 109.8638631  56.4955937  33.1036918 110.8040076  55.5501131  33.8206790
 106.3393210  53.1891186  34.4380158 106.8721547  52.4279474  34.2079466
 105.8107291  52.8964837  35.1804312 109.5062905  38.2951252  29.9673799
 109.1627174  39.1852893  29.8912910 109.8741867  38.1052909  29.1043384
  97.5748755  50.6184782  22.7862401  98.4123977  51.0281790  22.5696109
  97.7527023  49.6784224  22.7562595 109.4713187  48.2859863  18.4746234
 108.9559811  49.0564467  18.7134622 109.1990496  47.6124999  19.0979296
 107.0560298  43.1309563  23.5331473 106.2001895  42.7416414  23.3537111
 107.4687250  43.2101524  22.6731258 108.5859445  40.6655907  27.9323033
 108.0824241  40.6286042  27.1190838 108.8790052  41.5748649  27.9919689
 104.8302331  40.7494636  26.9389214 105.6955328  40.5537445  26.5795104
 104.8979840  40.5204988  27.8658571 114.4447462  51.0392217  20.4099408
 113.6676904  50.7003377  19.9654570 115.1238943  51.0444841  19.7354373
 109.2599491  46.1586955  20.3006016 108.9549626  46.4733104  21.1516159
 110.2129933  46.2368375  20.3433349 107.7045922  52.3177178  21.9498970
 107.1767284  51.5829938  21.6372207 107.2033425  53.0951854  21.7038938
 112.6838768  50.5126199  27.0666016 112.0262443  51.2025460  27.1546144
 113.4879168  50.9022631  27.4100002 102.4364650  42.9796844  24.3105581
 103.0108402  42.7572026  23.5778774 103.0235633  43.0485539  25.0634182
 111.4944227  48.8670571  25.1169958 112.0076109  49.5000563  25.6191667
 112.1445451  48.2671767  24.7513318 102.7634237  45.0101305  18.3301466
 101.9271549  45.3475992  18.6510741 102.6239007  44.8750285  17.3928603
 104.7387318  39.8538093  23.0380651 104.0851730  39.5387110  22.4137265
 104.6967792  39.2313834  23.7640473 105.8498523  50.1357388  14.9533943
 104.9425584  49.9046642  15.1525092 106.3469555  49.3395008  15.1407924
 108.7566602  58.8454896  17.8730629 108.0828300  59.1486592  18.4815587
 109.1432423  59.6483976  17.5236086 107.9725058  46.3420027  27.3628298
 107.0547620  46.5634974  27.2049986 108.3885202  46.4166337  26.5040005
 108.7560106  47.7411443  22.4930978 109.5031925  48.2532840  22.1838100
 109.0251695  47.4195495  23.3535372 107.0286756  50.2369983  19.4757933
 106.1197975  49.9529016  19.5730402 107.0581840  50.6569062  18.6161240
 112.2606023  53.8476573  23.2449100 111.8068351  53.0067483  23.3014291
 111.6299990  54.4837971  23.5823880 111.2038943  44.7768559  24.4749768
 110.4661700  44.2645945  24.8060010 111.4565717  44.3368940  23.6633045
 110.7038963  55.6853069  24.1798918 110.9961937  56.2458127  23.4611284
 111.2137583  55.9781630  24.9352077 111.3050570  37.5544811  25.0691537
 111.6109447  36.6942174  24.7817452 112.0303175  38.1462431  24.8690531
  97.5974926  47.9575497  23.4573135  97.3999326  47.3644858  22.7324201
  97.0421590  47.6527708  24.1749074 105.5771650  47.8498604  25.5767728
 105.6320260  46.8972440  25.5010205 104.7662852  48.0058043  26.0609026
 106.7262844  51.7778727  16.8146011 106.2882274  51.0614586  16.3551649
 107.4673285  52.0054842  16.2531103 103.5164010  46.4675664  23.3358107
 102.7031876  46.7669834  23.7423299 104.0123004  46.0731352  24.0532589
 105.6672588  56.4633421  25.2692372 105.6248767  56.6894267  24.3400904
 106.5835287  56.2296795  25.4178173 109.1138222  46.9317488  32.1673001
 109.4687609  47.1588961  33.0267467 109.7610353  47.2635865  31.5450256
 114.8435959  50.0535924  22.8722330 114.7053857  50.2437520  21.9443519
 114.4872177  50.8155307  23.3290381 103.0078085  44.0394019  28.9519342
 103.6477464  43.8982778  28.2542305 102.1755615  43.7528533  28.5757944
 114.8705338  52.1212451  27.8833601 115.3041845  52.0287740  28.7316655
 115.5836919  52.0969951  27.2453617 103.7838389  53.3396450  25.0654334
 104.5778987  52.8446770  24.8636909 103.0730081  52.8114313  24.7022040
 108.6033233  55.7214545  29.4166702 108.6570255  56.2905481  30.1844418
 107.7348015  55.8916430  29.0520739 100.0921152  47.4839531  21.1414087
  99.1618740  47.4223987  21.3584049 100.1878624  46.9615484  20.3450728
 100.0106701  44.0094344  23.7292329 100.2713519  44.9239677  23.6201489
 100.8323874  43.5418787  23.8788941 101.4831627  45.4232101  30.8991153
 102.1554680  45.2149463  30.2503802 100.6561413  45.2254187  30.4596385
 115.7320888  52.1636152  30.4166487 115.9256778  53.0681962  30.6625762
 115.6321506  51.7043571  31.2505072 107.3857199  42.0494042  32.9156814
 106.7385114  42.7483992  32.8221290 108.1558214  42.4830186  33.2833062
 110.7935997  52.3142894  35.9907367 110.6421503  52.0853446  35.0737451
 110.7840676  53.2713496  36.0038712 107.5621333  49.8874807  30.9753634
 108.4913393  50.0385967  30.8022601 107.1412363  49.9758828  30.1202280
 106.3609665  53.9125472  28.7452171 106.2220750  53.5444256  29.6178110
 105.5724261  54.4273111  28.5736129 106.9557817  59.0134568  20.0877708
 107.1309572  58.5422611  20.9023331 106.2690605  59.6400334  20.3158969
 107.9114880  53.2907074  26.1341009 107.5764712  53.2507844  27.0298659
 107.4118826  52.6251790  25.6611419 101.8859124  48.6974704  31.6593590
 101.7478922  47.9654943  32.2605129 102.7964047  48.6083604  31.3777778
 110.8474071  50.6363109  16.4078069 110.2303242  49.9109937  16.3111122
 110.3790560  51.3972469  16.0645143 104.5141424  48.4094664  31.1477270
 105.2241043  47.7687856  31.1063888 104.4710733  48.6607558  32.0703451
 112.5028203  55.3462017  34.0683849 112.4440749  54.6621237  33.4014432
 112.9047722  56.0881007  33.6164475 103.2270358  45.3959881  32.9672909
 102.6907715  44.9450620  33.6194506 102.6387067  45.5305790  32.2243374
 101.5218902  62.1623931  26.8617568 101.7615500  62.7942455  27.5396587
 100.6788098  61.8111971  27.1482927 102.6372617  44.8548533  15.5299373
 101.7602084  44.7337334  15.1661620 103.1130370  44.0634611  15.2778262
 112.5045610  53.3101601  32.2997829 111.6172389  52.9727523  32.4224228
 113.0744161  52.5784632  32.5366594  94.1574758  49.6425693  25.6240880
  94.8445797  49.3287423  25.0361896  94.0022886  50.5467057  25.3508132
  98.9609480  44.5315889  30.0525904  98.8767668  43.9241559  29.3176314
  98.1392186  45.0224907  30.0535400 106.0346764  57.9703053  29.2659072
 105.9616935  58.7758025  29.7778377 105.5924157  58.1695019  28.4407093
 105.8236543  57.2074823  22.7761894 105.0404065  57.7496503  22.8700118
 106.5229289  57.7248803  23.1756135 109.1333194  43.0169453  25.4196099
 109.6301893  42.2639415  25.0997169 108.3620175  43.0533769  24.8539308
 116.9862951  48.7209818  27.0614391 116.9752827  49.6034534  26.6908324
 116.1180330  48.3681369  26.8668928 108.4945447  57.8689887  31.4217231
 109.2073420  58.5037352  31.3493132 108.0035476  57.9653753  30.6057233
 110.2162974  51.7741140  22.9934522 109.2819253  51.8942602  22.8239227
 110.3939643  50.8713607  22.7294532 105.7168162  45.1586836  25.1467784
 105.3465950  44.6057876  25.8348689 106.2127255  44.5544969  24.5942784
 113.6035526  47.6158459  23.5284557 114.0695978  48.4486451  23.4544859
 114.0543026  47.1503441  24.2329815 103.5457361  55.6184331  32.2422802
 104.2466820  56.2520814  32.3952196 103.0752476  55.9599062  31.4818441
 111.6711757  53.9602280  20.5270709 111.9471601  53.8458875  21.4364583
 110.8016255  53.5619765  20.4882882 111.5752188  39.9839046  27.5675458
 110.6615268  40.2143273  27.7357665 112.0045290  40.0677490  28.4189490
 111.3458647  48.1728938  30.0675352 110.6930097  48.4204846  29.4127805
 111.7239027  47.3593076  29.7337829 108.3065821  58.2088631  24.1703522
 108.4888215  57.3910287  24.6331275 109.1298807  58.4256324  23.7328412
 108.6407986  57.1356816  21.4318571 109.1695753  56.6249271  20.8188733
 108.9036206  56.8199347  22.2964104 107.3946220  48.9148749  36.5541389
 106.7186857  48.8142879  37.2243764 108.2173854  48.7587963  37.0177386
  99.1425079  55.1520686  29.1753904  99.7278516  54.4064374  29.3081808
  98.9449917  55.4624642  30.0590568 101.9963734  58.1871933  24.1916347
 101.3274109  58.6718061  23.7080387 101.8576604  58.4341154  25.1059725
  93.7342734  47.7226286  27.8958347  93.7726833  47.1889877  28.6895465
  93.2283026  47.1961491  27.2769325 106.1369003  60.2215677  30.7899005
 106.6887311  60.3847298  31.5548090 106.4775196  60.8120114  30.1179030
 101.1133496  42.5690826  31.3920890 101.1774822  43.4305657  30.9798287
 101.0500616  41.9564828  30.6593248 100.5885768  44.6413959  35.0393924
 101.2157807  44.2591036  35.6531448  99.7313687  44.4228161  35.4049616
 110.9879877  55.0476934  36.6447659 111.5319781  55.6606892  36.1502614
 110.4066722  55.6056513  37.1614672  97.3651311  46.4490388  20.9712279
  97.6604752  45.5401067  20.9179332  96.4639347  46.4278128  20.6493281
 109.2737390  58.1697652  27.7762687 109.1488529  57.3687392  27.2673633
 109.9316481  58.6643846  27.2876657 100.8945558  44.5246385  26.9539827
 100.1732144  45.1382352  26.8147301 101.6838814  45.0604150  26.8756473
 111.3372298  55.9706672  29.4042237 110.3902634  55.8512023  29.3320564
 111.6855072  55.0829170  29.4868499 103.6971872  41.8600811  33.2280479
 104.2206274  42.1063108  33.9906788 103.4784205  42.6920846  32.8083616
  99.0939153  44.1304486  21.0951604  98.7651859  43.2501865  20.9126710
  99.4478524  44.0752154  21.9827993 108.3418732  55.7659388  25.6046589
 108.1943694  54.8376096  25.7854160 109.1672225  55.7879479  25.1203665
 102.2080976  44.4177456  21.4627082 102.5477048  44.9463377  20.7405690
 102.6553096  44.7557862  22.2385648 111.9452854  56.5887947  26.6911462
 112.8699401  56.3830809  26.5535913 111.7768157  56.3404348  27.6000804
 104.9024417  42.8014506  30.9130150 104.5621237  42.0022319  31.3150830
 104.1963423  43.1016217  30.3406983 105.5540889  39.8863819  29.3657473
 106.3766958  39.4124297  29.2436363 105.7978952  40.6654302  29.8656159
 104.1949123  42.9152077  19.6620374 104.9157486  43.2933330  19.1584091
 103.5714427  43.6340954  19.7655352 108.3380246  43.6197226  20.5978707
 108.5543860  44.5021864  20.2967535 107.8574313  43.2283440  19.8684349
 103.0779467  46.5782939  27.1749451 102.9324048  46.8923242  28.0673733
 102.6004671  47.1967840  26.6220350 104.9375850  43.5685487  27.2230341
 104.9237419  42.6726581  26.8862639 105.6548278  43.5756151  27.8568627
 106.7901981  44.0022828  29.2683468 106.5319759  44.9239898  29.2667799
 106.2587021  43.6053262  29.9583932 111.7348170  57.1073615  22.0473554
 111.9085047  56.5420037  21.2947406 112.2277061  57.9074510  21.8653044
  97.5525130  49.1188284  30.1137112  97.0078598  49.8948092  30.2457387
  98.4304479  49.4659088  29.9556234 104.3412746  42.4499868  22.4917911
 104.4628657  41.5216514  22.6908798 104.0514789  42.4638554  21.5796226
 107.2103937  40.1354778  25.6284631 107.2325633  40.1994111  24.6736610
 107.6271996  39.2959287  25.8225137 117.5887561  49.8710038  23.6663853
 118.0318707  49.1217363  23.2682977 116.7114071  49.8620174  23.2837585
 112.7223342  56.4240379  19.1470452 113.4174247  57.0447072  19.3657767
 113.0646492  55.5735730  19.4222830  98.3391151  48.2458180  33.0067269
  97.5972887  48.3940815  33.5931900  98.0183896  48.5066446  32.1434019
 114.6214765  53.8740085  20.6757783 115.1466089  54.2127357  19.9507103
 114.5337118  52.9387100  20.4920917 106.2834814  57.7874158  32.8047659
 106.5921941  57.5423305  33.6770359 107.0810296  57.9920797  32.3166530
 106.3055426  59.9412068  25.0353036 105.8660416  59.4488447  25.7285893
 107.0563543  59.3985036  24.7945111  98.7847765  56.1323609  25.0377664
  99.6105785  55.8327381  24.6576308  98.4341817  55.3631231  25.4867453
 103.7529298  55.4850077  27.1075338 103.1309308  54.8220782  26.8077565
 104.4234165  55.5111209  26.4248985  96.9856370  54.0509935  25.9966598
  96.1488278  53.6232110  25.8150599  96.9580016  54.2442379  26.9337389
 103.8253826  43.9631865  36.7007844 103.8741981  44.8393988  36.3185613
 104.3676340  43.4209258  36.1279487 114.3108671  54.5072988  35.9808981
 113.5204215  54.4897127  35.4413480 114.0742026  55.0461282  36.7358017
 114.4306546  51.3565455  33.2941709 114.4804551  51.1915462  34.2357232
 114.3220470  50.4892714  32.9039590 103.3142805  54.0354000  20.5833798
 103.4630926  54.7189465  19.9300471 104.1209249  54.0159090  21.0983254
 111.7210309  47.3396383  34.6101016 112.6220172  47.2002847  34.3185014
 111.7958283  47.5050837  35.5499193 106.0553114  44.7163237  33.4554202
 105.1856424  45.0096803  33.1836791 106.2912595  45.3003682  34.1761466
 115.9324743  53.7762396  33.5383731 115.6409552  54.1392377  34.3747192
 115.3196875  53.0629404  33.3597063 117.1320426  51.3415276  26.0586301
 117.9667317  51.7805080  26.2223861 117.2679554  50.8653929  25.2394547
 114.1811932  48.8995011  32.0063789 114.6566053  49.0922657  31.1982640
 113.2577497  48.9554197  31.7607172 101.0695438  50.0619178  21.5894867
 100.8241480  49.1581508  21.7875077 101.2391353  50.0636328  20.6474345
 108.7592148  40.9342854  30.9719623 109.2774092  41.6703881  30.6466111
 108.4047281  41.2406848  31.8066382 100.3391086  45.7947536  19.0881028
  99.6460331  45.8691891  18.4321064 100.0942838  45.0307879  19.6102545
 109.0104742  37.3543137  26.4920519 109.2906496  36.6866326  27.1180946
 109.7955349  37.5472232  25.9795183 106.8138211  56.5302131  18.0545546
 106.2412178  57.1492318  17.6016017 107.3871004  57.0801492  18.5885467
 112.8813601  45.7760771  30.2392094 113.8331023  45.8758869  30.2604318
 112.7117051  44.9839039  30.7490179 110.9027980  42.8616354  30.4251495
 110.3077912  43.1421367  29.7297984 110.6177677  43.3510255  31.1968236
 110.0335470  56.8139281  19.1854128 110.9666144  56.7484843  19.3887003
 109.9458683  57.6495548  18.7268660 112.6623487  56.1305151  16.1458075
 112.5837119  55.7965015  17.0393833 113.4833154  56.6226919  16.1449548
 115.3601678  48.9966891  29.3534394 115.3277998  48.0582891  29.5394078
 115.9702302  49.0750927  28.6200219 107.1985009  47.8662944  15.3961598
 108.1444114  47.7369152  15.4650016 106.8199254  47.1277605  15.8731026
 115.5096167  45.7877934  29.3992677 114.9935215  45.0036391  29.2122606
 116.3936115  45.4596651  29.5639197 113.1706894  39.5318950  25.3588490
 112.9731715  39.2234038  26.2431822 113.7806599  40.2580588  25.4886420
 121.1778228  50.0582897  28.4940431 121.9081617  49.7968186  29.0548134
 120.5685174  49.3211619  28.5342499 119.2593525  48.1990760  29.0914882
 118.5326689  48.0646725  28.4831374 118.8440812  48.5067589  29.8971600
 107.0823702  51.9180690  36.8562255 108.0026711  52.0959289  37.0502302
 107.0473285  50.9736735  36.7041954 105.3827926  45.7912920  15.3316483
 104.4759382  45.4946033  15.4079197 105.6603907  45.4942738  14.4650769
  96.3005867  47.1119283  25.7815530  95.9808651  46.2584591  25.4889904
  95.7539295  47.3267861  26.5373497 100.0785774  49.8281724  29.4985036
 100.2971784  50.7598832  29.5173070 100.4911548  49.4689699  30.2839840
 106.9989992  40.3349810  21.4860725 106.1890720  39.9896895  21.8615971
 107.6874409  40.0257353  22.0748336 108.9280540  39.4127856  23.1085021
 109.4811579  39.8323310  23.7675044 109.1650627  38.4863605  23.1507977
 104.9513640  45.4014930  38.8887785 104.8510366  46.3509287  38.8199876
 104.7335182  45.0733169  38.0163855 104.1526711  42.6499855  15.4728462
 105.0145875  42.9754753  15.7324280 104.3377055  41.8631351  14.9601528
  96.1694127  50.7322195  27.7508651  95.4757598  50.3176148  27.2378606
  96.9167118  50.7742731  27.1542070 112.3059347  41.5228382  22.6163685
 111.7258016  42.1813186  22.2341738 112.0395280  40.7005726  22.2051103
 110.7562914  40.9233439  24.8185006 111.2562692  41.0349974  24.0099325
 111.3998522  40.6194492  25.4585814 104.8144910  48.8312069  37.7052847
 104.3311991  49.6312429  37.9116736 104.9005849  48.8420014  36.7520291
  98.0830869  50.6640449  25.6274666  98.0601557  50.7628136  24.6756549
  98.3931506  51.5105599  25.9491832 100.7418247  52.7216604  29.7421281
 101.6961501  52.6900546  29.6751212 100.5430771  52.2607227  30.5571506
 101.3317629  51.2917720  32.3092078 102.1510518  51.7861798  32.3326915
 101.6054437  50.3749688  32.2809646 111.0884225  43.6828472  21.6720034
 110.2010080  43.9678123  21.4540228 111.5038215  43.5222235  20.8247311
 114.4398762  43.7074993  25.3874373 115.2159152  44.1971445  25.6598990
 113.7146896  44.1333047  25.8446242 116.8771320  44.4202612  26.4448314
 117.4715811  44.1798348  25.7341622 116.9497904  43.7009743  27.0721850
  99.0968476  58.2636223  26.7591478  98.9622944  57.5036624  26.1929476
  98.6800538  58.9877123  26.2920267 110.2327439  53.4473147  15.7668054
 110.9363289  53.6523149  16.3825709 109.5090088  54.0149909  16.0317137
 111.0625249  49.1983008  21.8870324 111.0060451  49.6551559  21.0477956
 111.6153592  48.4373692  21.7093167 114.8730055  44.9872740  22.7120443
 114.6166989  44.5869375  23.5428651 114.2482923  45.7016534  22.5870583
 119.1842393  47.7268813  25.2191735 118.6241951  47.7962002  25.9923297
 118.5785896  47.5509798  24.4991231 102.2537602  59.1605540  26.9709921
 102.1369986  60.1050973  26.8688611 101.4330048  58.8579102  27.3595720
 112.1414136  53.8855676  17.8166514 112.9759740  53.4536874  17.6343989
 111.9798479  53.7137690  18.7443408 111.7960029  50.3887789  19.1822853
 111.7408832  50.2232061  18.2411297 111.1706084  51.0963822  19.3385043
  96.5852544  45.6255854  33.0084275  97.2311407  45.1154807  33.4971500
  96.3769695  46.3624535  33.5827701 109.1105936  52.6936701  38.5076416
 109.9797095  52.8677353  38.1463051 108.6312687  53.5131118  38.3852145
 105.1056154  39.8895898  18.7608171 105.0934824  40.8337738  18.9176442
 105.9979576  39.7066044  18.4667633 103.2792116  59.8133802  30.1865849
 104.1819363  59.8457412  30.5032344 103.0529486  58.8834253  30.2012185
 105.0345718  58.5664789  26.8475928 104.0841349  58.5666650  26.7340300
 105.3378204  57.8197523  26.3311963 108.9208273  36.4838675  23.0154108
 108.1540669  35.9297161  23.1610791 109.3318978  36.5560544  23.8768260
 100.9250034  42.7723471  37.1059290 101.7881496  42.4160275  37.3162614
 100.3515445  42.4337365  37.7934694 120.7698411  64.4025327  27.9121691
 121.4076821  64.2832074  27.2085031 120.6519254  65.3506171  27.9709643
 117.5788118  64.3552755  27.8483215 117.2406629  64.2393820  26.9603750
 118.4477886  63.9543920  27.8284221 113.4374933  66.2088231  23.8380106
 112.8739799  66.1178168  23.0696394 113.3227328  65.3888136  24.3182599
 118.0607901  65.5087607  33.8069421 118.0496541  65.1140405  32.9349924
 118.2228540  64.7753679  34.4003192 110.9839365  67.7039423  26.6764327
 111.7760657  67.3630248  26.2610626 111.2236015  67.8134398  27.5966480
 119.0174492  69.8759199  19.1494571 118.3662472  70.4613280  18.7628585
 119.8118855  70.4065394  19.2089609 112.9430119  66.9648336  19.5481705
 113.7160995  66.4177323  19.4094581 113.2955518  67.8292586  19.7596167
 114.7815162  68.2924719  32.7548605 114.4905028  69.1970349  32.6395271
 115.4172146  68.3341246  33.4692674 115.7071369  65.6701567  29.3449964
 116.3034941  65.4457589  28.6306927 115.7646340  64.9286313  29.9475412
 115.2796397  63.1241002  17.1800155 115.5321918  62.6022524  16.4183618
 114.3420956  62.9607148  17.2826839 120.3239680  62.1276781  24.9874899
 121.1102769  61.7096204  24.6365316 120.5878384  63.0322873  25.1556547
 120.4949757  67.5649631  19.6863555 119.8595590  67.6384258  20.3984460
 120.1647164  68.1543230  19.0082635 125.7248107  62.0652014  25.8907877
 126.4573279  61.4951231  26.1245707 124.9687463  61.6773614  26.3314383
 114.9992686  65.0269108  19.3824530 114.8828944  64.3514012  20.0505615
 115.1094946  64.5401482  18.5656683 117.3424227  64.4879255  23.0871220
 116.9782434  63.9609876  23.7984141 118.1991343  64.0977725  22.9137705
 123.2473527  55.7773588  30.3502486 122.9156852  56.6468999  30.1263701
 122.6519141  55.4609872  31.0296516 116.9829714  59.5169155  18.0832568
 117.1504116  60.3849392  18.4503039 116.7926883  59.6796437  17.1593857
 119.7405047  67.9786134  29.7498398 119.4405770  68.8811173  29.6414206
 119.3956106  67.7118317  30.6019551 113.1917528  64.4299931  25.7835103
 112.2668025  64.2976145  25.9912795 113.4401942  65.2094150  26.2805045
 123.1402191  60.4968674  27.4295836 122.2319068  60.4284083  27.1354597
 123.0889787  60.9740619  28.2577661 116.9618935  61.9726813  19.0679235
 116.8418560  62.4183863  19.9064715 116.2671523  62.3212130  18.5092773
 110.5526339  64.0733204  26.6178892 110.6818721  64.3267683  27.5318304
 109.8723791  64.6660912  26.2983547 114.7225827  74.7430454  22.7169366
 114.6449856  75.6938280  22.7957847 114.1187470  74.3976327  23.3744292
 117.2143056  61.9158320  35.3730733 116.4376391  62.4752240  35.3633598
 117.8533620  62.4015103  35.8945603 125.0063837  58.6985113  29.2073710
 124.3638217  58.9917646  28.5613504 124.5018766  58.5838033  30.0126906
 122.6604001  62.4448286  19.8959569 123.5721857  62.6775673  19.7207266
 122.1513648  63.0285330  19.3334648 115.4689429  64.7243773  34.9348700
 116.2104113  65.2628817  34.6583524 114.7626414  65.3510062  35.0920252
 120.9444768  66.8672914  33.5320861 121.3528124  66.4255324  32.7875494
 120.2222030  66.2925541  33.7855054 117.2975838  61.8045520  30.9054418
 118.1437034  62.2284934  31.0489067 117.2374476  61.1479145  31.5992982
 121.2673583  67.4274104  27.2873150 120.6382446  67.5919818  26.5849218
 120.8799245  67.8415714  28.0584114 125.1462815  68.3628542  24.6417514
 124.4613853  68.7427444  24.0914547 125.2306664  68.9723869  25.3749462
 120.4475284  59.4649889  32.5635592 120.2036216  60.2191949  32.0269868
 120.7235214  59.8435236  33.3982839 122.4013747  66.0088501  31.2412858
 122.6130642  66.6520261  30.5647239 122.3543495  65.1750818  30.7734788
 120.0039976  58.6206322  28.1449430 119.1424455  58.9187575  28.4366167
 120.0302410  58.8376721  27.2130462 116.8201545  67.1648512  24.5523235
 117.2839890  67.4436215  23.7627858 116.5558343  66.2631957  24.3696326
 113.7125626  66.7119994  27.4902999 114.2826983  67.1407262  26.8520483
 114.3033738  66.4302579  28.1887184 115.7570431  63.2871665  21.3612801
 116.4594474  63.7392708  21.8286727 115.4251060  62.6455484  21.9892694
 114.2050793  61.8783421  35.7364010 113.5749453  62.5599702  35.9699407
 114.0986880  61.7666503  34.7917148 109.4995765  61.5455217  26.6629934
 108.7094819  61.8012746  26.1870045 109.9907012  62.3603555  26.7681975
 123.5159575  68.8860457  29.4135215 124.3377018  68.4840644  29.1317897
 123.5121977  68.7828691  30.3651331 111.4510510  61.9099797  23.6213411
 110.6541674  62.0218491  24.1396907 111.2236103  62.2486449  22.7554301
 117.2816178  68.4344500  31.5695925 117.3460610  68.8964907  32.4054097
 116.5727102  67.8041865  31.6978235 107.7833468  61.7985708  29.0944925
 108.0341506  62.6832718  29.3602501 108.3193016  61.6190309  28.3220017
 131.6065568  65.2299205  25.7620186 130.8529276  64.6606603  25.6064191
 131.7413109  65.1961870  26.7090821 116.9964196  70.1012607  21.4374906
 116.8609870  70.9464143  21.8659754 117.5374008  70.3031885  20.6740840
 113.4831535  56.1804187  38.0989261 113.0898481  55.6270386  38.7736905
 114.2997676  56.4914766  38.4895779 110.4493593  67.6188045  22.0102831
 110.9618114  68.4131296  22.1608396 111.1016306  66.9214336  21.9436432
 112.2588478  70.7353802  24.0925584 112.4355106  71.6571766  23.9046568
 113.0545311  70.4212221  24.5219964 116.3999496  57.5962066  35.6909518
 117.1409210  58.1969219  35.6113980 116.6317419  56.8539704  35.1327560
 111.5440834  62.7818434  33.9687747 111.4294349  61.8803691  34.2694846
 110.6885352  63.0282130  33.6172564 118.6232672  70.7236174  35.5675248
 118.1796526  69.9372552  35.2496152 119.2849886  70.9115324  34.9019139
 113.3819793  72.2531975  30.0935926 113.9327218  72.1249039  29.3212920
 112.5431269  72.5526865  29.7430819 120.7213910  71.0038974  33.5956649
 120.7032385  71.8247855  33.1036918 121.6433830  70.8793049  33.8206790
 117.1786964  68.5183103  34.4380158 117.7115301  67.7571391  34.2079466
 116.6501045  68.2256755  35.1804312 120.3456659  53.6243169  29.9673799
 120.0020929  54.5144811  29.8912910 120.7135622  53.4344827  29.1043384
 108.4142510  65.9476700  22.7862401 109.2517732  66.3573708  22.5696109
 108.5920778  65.0076142  22.7562595 120.3106942  63.6151780  18.4746234
 119.7953565  64.3856385  18.7134622 120.0384250  62.9416917  19.0979296
 117.8954053  58.4601481  23.5331473 117.0395649  58.0708332  23.3537111
 118.3081005  58.5393442  22.6731258 119.4253200  55.9947824  27.9323033
 118.9217995  55.9577960  27.1190838 119.7183806  56.9040567  27.9919689
 115.6696085  56.0786554  26.9389214 116.5349082  55.8829363  26.5795104
 115.7373594  55.8496906  27.8658571 125.2841216  66.3684135  20.4099408
 124.5070659  66.0295295  19.9654570 125.9632697  66.3736758  19.7354373
 120.0993245  61.4878872  20.3006016 119.7943381  61.8025022  21.1516159
 121.0523687  61.5660292  20.3433349 118.5439677  67.6469096  21.9498970
 118.0161039  66.9121855  21.6372207 118.0427180  68.4243772  21.7038938
 123.5232523  65.8418116  27.0666016 122.8656197  66.5317378  27.1546144
 124.3272922  66.2314548  27.4100002 113.2758405  58.3088762  24.3105581
 113.8502156  58.0863944  23.5778774 113.8629387  58.3777457  25.0634182
 122.3337982  64.1962489  25.1169958 122.8469864  64.8292481  25.6191667
 122.9839206  63.5963684  24.7513318 113.6027992  60.3393223  18.3301466
 112.7665304  60.6767910  18.6510741 113.4632761  60.2042203  17.3928603
 115.5781072  55.1830011  23.0380651 114.9245485  54.8679028  22.4137265
 115.5361546  54.5605751  23.7640473 116.6892277  65.4649306  14.9533943
 115.7819339  65.2338560  15.1525092 117.1863309  64.6686925  15.1407924
 119.5960356  74.1746813  17.8730629 118.9222055  74.4778510  18.4815587
 119.9826178  74.9775894  17.5236086 118.8118813  61.6711945  27.3628298
 117.8941374  61.8926892  27.2049986 119.2278956  61.7458255  26.5040005
 119.5953860  63.0703360  22.4930978 120.3425679  63.5824757  22.1838100
 119.8645450  62.7487413  23.3535372 117.8680511  65.5661901  19.4757933
 116.9591730  65.2820934  19.5730402 117.8975594  65.9860979  18.6161240
 123.0999778  69.1768490  23.2449100 122.6462105  68.3359400  23.3014291
 122.4693745  69.8129889  23.5823880 122.0432698  60.1060476  24.4749768
 121.3055454  59.5937863  24.8060010 122.2959471  59.6660858  23.6633045
 121.5432717  71.0144987  24.1798918 121.8355692  71.5750044  23.4611284
 122.0531338  71.3073548  24.9352077 122.1444325  52.8836728  25.0691537
 122.4503202  52.0234092  24.7817452 122.8696930  53.4754349  24.8690531
 108.4368681  63.2867415  23.4573135 108.2393081  62.6936776  22.7324201
 107.8815345  62.9819625  24.1749074 116.4165405  63.1790522  25.5767728
 116.4714014  62.2264358  25.5010205 115.6056607  63.3349961  26.0609026
 117.5656598  67.1070645  16.8146011 117.1276028  66.3906504  16.3551649
 118.3067039  67.3346759  16.2531103 114.3557765  61.7967581  23.3358107
 113.5425630  62.0961752  23.7423299 114.8516759  61.4023270  24.0532589
 116.5066342  71.7925338  25.2692372 116.4642521  72.0186185  24.3400904
 117.4229041  71.5588713  25.4178173 119.9531976  62.2609406  32.1673001
 120.3081364  62.4880879  33.0267467 120.6004107  62.5927783  31.5450256
 125.6829713  65.3827842  22.8722330 125.5447612  65.5729438  21.9443519
 125.3265932  66.1447224  23.3290381 113.8471839  59.3685937  28.9519342
 114.4871219  59.2274696  28.2542305 113.0149370  59.0820450  28.5757944
 125.7099093  67.4504369  27.8833601 126.1435599  67.3579658  28.7316655
 126.4230673  67.4261869  27.2453617 114.6232143  68.6688367  25.0654334
 115.4172742  68.1738687  24.8636909 113.9123836  68.1406230  24.7022040
 119.4426988  71.0506463  29.4166702 119.4964010  71.6197399  30.1844418
 118.5741769  71.2208348  29.0520739 110.9314907  62.8131449  21.1414087
 110.0012495  62.7515904  21.3584049 111.0272379  62.2907402  20.3450728
 110.8500456  59.3386262  23.7292329 111.1107273  60.2531595  23.6201489
 111.6717628  58.8710704  23.8788941 112.3225381  60.7524019  30.8991153
 112.9948434  60.5441381  30.2503802 111.4955168  60.5546105  30.4596385
 126.5714642  67.4928069  30.4166487 126.7650532  68.3973880  30.6625762
 126.4715260  67.0335488  31.2505072 118.2250953  57.3785960  32.9156814
 117.5778868  58.0775910  32.8221290 118.9951968  57.8122104  33.2833062
 121.6329751  67.6434812  35.9907367 121.4815257  67.4145364  35.0737451
 121.6234430  68.6005413  36.0038712 118.4015087  65.2166725  30.9753634
 119.3307147  65.3677884  30.8022601 117.9806117  65.3050746  30.1202280
 117.2003419  69.2417389  28.7452171 117.0614505  68.8736174  29.6178110
 116.4118015  69.7565029  28.5736129 117.7951571  74.3426486  20.0877708
 117.9703327  73.8714529  20.9023331 117.1084359  74.9692252  20.3158969
 118.7508634  68.6198992  26.1341009 118.4158467  68.5799762  27.0298659
 118.2512580  67.9543708  25.6611419 112.7252878  64.0266622  31.6593590
 112.5872676  63.2946861  32.2605129 113.6357802  63.9375522  31.3777778
 121.6867826  65.9655026  16.4078069 121.0696997  65.2401854  16.3111122
 121.2184314  66.7264387  16.0645143 115.3535179  63.7386581  31.1477270
 116.0634797  63.0979773  31.1063888 115.3104487  63.9899476  32.0703451
 123.3421958  70.6753935  34.0683849 123.2834504  69.9913155  33.4014432
 123.7441476  71.4172925  33.6164475 114.0664113  60.7251799  32.9672909
 113.5301470  60.2742538  33.6194506 113.4780821  60.8597708  32.2243374
 112.3612656  77.4915848  26.8617568 112.6009255  78.1234373  27.5396587
 111.5181853  77.1403888  27.1482927 113.4766372  60.1840451  15.5299373
 112.5995838  60.0629251  15.1661620 113.9524125  59.3926529  15.2778262
 123.3439365  68.6393519  32.2997829 122.4566144  68.3019440  32.4224228
 123.9137916  67.9076550  32.5366594 104.9968512  64.9717610  25.6240880
 105.6839552  64.6579340  25.0361896 104.8416641  65.8758975  25.3508132
 109.8003234  59.8607807  30.0525904 109.7161423  59.2533476  29.3176314
 108.9785941  60.3516825  30.0535400 116.8740518  73.2994971  29.2659072
 116.8010690  74.1049942  29.7778377 116.4317911  73.4986937  28.4407093
 116.6630298  72.5366741  22.7761894 115.8797820  73.0788421  22.8700118
 117.3623043  73.0540721  23.1756135 119.9726948  58.3461370  25.4196099
 120.4695648  57.5931333  25.0997169 119.2013930  58.3825687  24.8539308
 127.8256705  64.0501736  27.0614391 127.8146582  64.9326451  26.6908324
 126.9574085  63.6973287  26.8668928 119.3339202  73.1981805  31.4217231
 120.0467174  73.8329270  31.3493132 118.8429230  73.2945671  30.6057233
 121.0556729  67.1033058  22.9934522 120.1213007  67.2234520  22.8239227
 121.2333397  66.2005524  22.7294532 116.5561917  60.4878753  25.1467784
 116.1859704  59.9349794  25.8348689 117.0521009  59.8836887  24.5942784
 124.4429280  62.9450377  23.5284557 124.9089732  63.7778368  23.4544859
 124.8936781  62.4795358  24.2329815 114.3851115  70.9476248  32.2422802
 115.0860575  71.5812731  32.3952196 113.9146230  71.2890980  31.4818441
 122.5105511  69.2894198  20.5270709 122.7865355  69.1750793  21.4364583
 121.6410010  68.8911683  20.4882882 122.4145943  55.3130964  27.5675458
 121.5009023  55.5435191  27.7357665 122.8439044  55.3969408  28.4189490
 122.1852401  63.5020856  30.0675352 121.5323852  63.7496763  29.4127805
 122.5632781  62.6884994  29.7337829 119.1459575  73.5380549  24.1703522
 119.3281970  72.7202205  24.6331275 119.9692561  73.7548241  23.7328412
 119.4801741  72.4648734  21.4318571 120.0089507  71.9541189  20.8188733
 119.7429960  72.1491264  22.2964104 118.2339974  64.2440667  36.5541389
 117.5580611  64.1434796  37.2243764 119.0567608  64.0879881  37.0177386
 109.9818833  70.4812603  29.1753904 110.5672270  69.7356291  29.3081808
 109.7843672  70.7916560  30.0590568 112.8357489  73.5163851  24.1916347
 112.1667864  74.0009978  23.7080387 112.6970358  73.7633071  25.1059725
 104.5736488  63.0518204  27.8958347 104.6120588  62.5181794  28.6895465
 104.0676781  62.5253409  27.2769325 116.9762757  75.5507594  30.7899005
 117.5281065  75.7139216  31.5548090 117.3168951  76.1412032  30.1179030
 111.9527250  57.8982744  31.3920890 112.0168577  58.7597575  30.9798287
 111.8894371  57.2856746  30.6593248 111.4279523  59.9705877  35.0393924
 112.0551562  59.5882954  35.6531448 110.5707442  59.7520079  35.4049616
 121.8273632  70.3768852  36.6447659 122.3713536  70.9898810  36.1502614
 121.2460476  70.9348430  37.1614672 108.2045066  61.7782306  20.9712279
 108.4998507  60.8692984  20.9179332 107.3033101  61.7570045  20.6493281
 120.1131144  73.4989570  27.7762687 119.9882284  72.6979310  27.2673633
 120.7710236  73.9935763  27.2876657 111.7339313  59.8538302  26.9539827
 111.0125898  60.4674270  26.8147301 112.5232568  60.3896067  26.8756473
 122.1766053  71.2998590  29.4042237 121.2296388  71.1803941  29.3320564
 122.5248826  70.4121088  29.4868499 114.5365626  57.1892729  33.2280479
 115.0600028  57.4355025  33.9906788 114.3177960  58.0212764  32.8083616
 109.9332907  59.4596403  21.0951604 109.6045613  58.5793782  20.9126710
 110.2872278  59.4044072  21.9827993 119.1812486  71.0951306  25.6046589
 119.0337449  70.1668014  25.7854160 120.0065980  71.1171397  25.1203665
 113.0474730  59.7469373  21.4627082 113.3870803  60.2755294  20.7405690
 113.4946851  60.0849779  22.2385648 122.7846608  71.9179865  26.6911462
 123.7093156  71.7122726  26.5535913 122.6161911  71.6696266  27.6000804
 115.7418171  58.1306424  30.9130150 115.4014992  57.3314237  31.3150830
 115.0357178  58.4308135  30.3406983 116.3934643  55.2155736  29.3657473
 117.2160712  54.7416215  29.2436363 116.6372707  55.9946220  29.8656159
 115.0342878  58.2443995  19.6620374 115.7551240  58.6225248  19.1584091
 114.4108182  58.9632872  19.7655352 119.1774000  58.9489144  20.5978707
 119.3937615  59.8313782  20.2967535 118.6968068  58.5575357  19.8684349
 113.9173222  61.9074857  27.1749451 113.7717803  62.2215160  28.0673733
 113.4398426  62.5259757  26.6220350 115.7769605  58.8977405  27.2230341
 115.7631174  58.0018498  26.8862639 116.4942033  58.9048069  27.8568627
 117.6295735  59.3314745  29.2683468 117.3713513  60.2531816  29.2667799
 117.0980776  58.9345180  29.9583932 122.5741924  72.4365532  22.0473554
 122.7478802  71.8711955  21.2947406 123.0670815  73.2366427  21.8653044
 108.3918884  64.4480201  30.1137112 107.8472352  65.2240009  30.2457387
 109.2698234  64.7951006  29.9556234 115.1806501  57.7791785  22.4917911
 115.3022412  56.8508431  22.6908798 114.8908543  57.7930471  21.5796226
 118.0497691  55.4646696  25.6284631 118.0719388  55.5286029  24.6736610
 118.4665750  54.6251204  25.8225137 128.4281315  65.2001955  23.6663853
 128.8712461  64.4509280  23.2682977 127.5507826  65.1912092  23.2837585
 123.5617097  71.7532297  19.1470452 124.2568001  72.3738989  19.3657767
 123.9040247  70.9027648  19.4222830 109.1784906  63.5750098  33.0067269
 108.4366642  63.7232733  33.5931900 108.8577650  63.8358363  32.1434019
 125.4608520  69.2032002  20.6757783 125.9859844  69.5419275  19.9507103
 125.3730872  68.2679018  20.4920917 117.1228569  73.1166076  32.8047659
 117.4315695  72.8715223  33.6770359 117.9204051  73.3212714  32.3166530
 117.1449181  75.2703986  25.0353036 116.7054171  74.7780364  25.7285893
 117.8957298  74.7276953  24.7945111 109.6241520  71.4615526  25.0377664
 110.4499539  71.1619298  24.6576308 109.2735572  70.6923149  25.4867453
 114.5923053  70.8141995  27.1075338 113.9703062  70.1512700  26.8077565
 115.2627920  70.8403127  26.4248985 107.8250125  69.3801853  25.9966598
 106.9882033  68.9524027  25.8150599 107.7973770  69.5734296  26.9337389
 114.6647580  59.2923783  36.7007844 114.7135736  60.1685905  36.3185613
 115.2070094  58.7501176  36.1279487 125.1502426  69.8364906  35.9808981
 124.3597970  69.8189045  35.4413480 124.9135780  70.3753200  36.7358017
 125.2700301  66.6857372  33.2941709 125.3198306  66.5207380  34.2357232
 125.1614224  65.8184631  32.9039590 114.1536560  69.3645918  20.5833798
 114.3024680  70.0481382  19.9300471 114.9603003  69.3451008  21.0983254
 122.5604063  62.6688300  34.6101016 123.4613926  62.5294765  34.3185014
 122.6352038  62.8342755  35.5499193 116.8946869  60.0455155  33.4554202
 116.0250178  60.3388721  33.1836791 117.1306349  60.6295600  34.1761466
 126.7718498  69.1054314  33.5383731 126.4803306  69.4684294  34.3747192
 126.1590629  68.3921322  33.3597063 127.9714180  66.6707194  26.0586301
 128.8061071  67.1096998  26.2223861 128.1073309  66.1945847  25.2394547
 125.0205686  64.2286928  32.0063789 125.4959808  64.4214575  31.1982640
 124.0971251  64.2846114  31.7607172 111.9089193  65.3911096  21.5894867
 111.6635235  64.4873426  21.7875077 112.0785107  65.3928246  20.6474345
 119.5985903  56.2634772  30.9719623 120.1167846  56.9995799  30.6466111
 119.2441035  56.5698765  31.8066382 111.1784840  61.1239453  19.0881028
 110.4854085  61.1983808  18.4321064 110.9336592  60.3599797  19.6102545
 119.8498497  52.6835055  26.4920519 120.1300250  52.0158244  27.1180946
 120.6349104  52.8764150  25.9795183 117.6531965  71.8594048  18.0545546
 117.0805932  72.4784236  17.6016017 118.2264759  72.4093410  18.5885467
 123.7207355  61.1052689  30.2392094 124.6724778  61.2050786  30.2604318
 123.5510805  60.3130957  30.7490179 121.7421734  58.1908272  30.4251495
 121.1471667  58.4713284  29.7297984 121.4571431  58.6802173  31.1968236
 120.8729225  72.1431199  19.1854128 121.8059898  72.0776760  19.3887003
 120.7852438  72.9787465  18.7268660 123.5017242  71.4597069  16.1458075
 123.4230873  71.1256933  17.0393833 124.3226908  71.9518837  16.1449548
 126.1995433  64.3258808  29.3534394 126.1671753  63.3874809  29.5394078
 126.8096056  64.4042845  28.6200219 118.0378764  63.1954861  15.3961598
 118.9837868  63.0661069  15.4650016 117.6593009  62.4569523  15.8731026
 126.3489921  61.1169852  29.3992677 125.8328970  60.3328308  29.2122606
 127.2329870  60.7888568  29.5639197 124.0100648  54.8610867  25.3588490
 123.8125469  54.5525955  26.2431822 124.6200354  55.5872506  25.4886420
 132.0171983  65.3874815  28.4940431 132.7475371  65.1260103  29.0548134
 131.4078928  64.6503537  28.5342499 130.0987280  63.5282678  29.0914882
 129.3720443  63.3938643  28.4831374 129.6834567  63.8359506  29.8971600
 117.9217456  67.2472607  36.8562255 118.8420466  67.4251206  37.0502302
 117.8867039  66.3028653  36.7041954 116.2221681  61.1204838  15.3316483
 115.3153136  60.8237950  15.4079197 116.4997662  60.8234656  14.4650769
 107.1399621  62.4411201  25.7815530 106.8202406  61.5876509  25.4889904
 106.5933049  62.6559779  26.5373497 110.9179529  65.1573642  29.4985036
 111.1365539  66.0890750  29.5173070 111.3305303  64.7981616  30.2839840
 117.8383747  55.6641727  21.4860725 117.0284475  55.3188812  21.8615971
 118.5268163  55.3549271  22.0748336 119.7674295  54.7419774  23.1085021
 120.3205333  55.1615228  23.7675044 120.0044381  53.8155522  23.1507977
 115.7907394  60.7306848  38.8887785 115.6904121  61.6801205  38.8199876
 115.5728936  60.4025087  38.0163855 114.9920465  57.9791773  15.4728462
 115.8539629  58.3046671  15.7324280 115.1770810  57.1923269  14.9601528
 107.0087881  66.0614112  27.7508651 106.3151353  65.6468065  27.2378606
 107.7560872  66.1034649  27.1542070 123.1453102  56.8520299  22.6163685
 122.5651771  57.5105103  22.2341738 122.8789035  56.0297644  22.2051103
 121.5956668  56.2525357  24.8185006 122.0956447  56.3641891  24.0099325
 122.2392276  55.9486410  25.4585814 115.6538664  64.1603987  37.7052847
 115.1705746  64.9604347  37.9116736 115.7399603  64.1711931  36.7520291
 108.9224624  65.9932366  25.6274666 108.8995312  66.0920054  24.6756549
 109.2325260  66.8397517  25.9491832 111.5812002  68.0508521  29.7421281
 112.5355255  68.0192464  29.6751212 111.3824525  67.5899145  30.5571506
 112.1711384  66.6209637  32.3092078 112.9904273  67.1153716  32.3326915
 112.4448191  65.7041605  32.2809646 121.9277980  59.0120390  21.6720034
 121.0403835  59.2970040  21.4540228 122.3431969  58.8514153  20.8247311
 125.2792516  59.0366911  25.3874373 126.0552906  59.5263363  25.6598990
 124.5540650  59.4624965  25.8446242 127.7165075  59.7494530  26.4448314
 128.3109566  59.5090266  25.7341622 127.7891658  59.0301660  27.0721850
 109.9362230  73.5928141  26.7591478 109.8016698  72.8328542  26.1929476
 109.5194293  74.3169041  26.2920267 121.0721193  68.7765064  15.7668054
 121.7757044  68.9815067  16.3825709 120.3483842  69.3441826  16.0317137
 121.9019004  64.5274926  21.8870324 121.8454205  64.9843477  21.0477956
 122.4547346  63.7665610  21.7093167 125.7123810  60.3164657  22.7120443
 125.4560744  59.9161293  23.5428651 125.0876678  61.0308451  22.5870583
 130.0236147  63.0560731  25.2191735 129.4635705  63.1253920  25.9923297
 129.4179651  62.8801715  24.4991231 113.0931356  74.4897458  26.9709921
 112.9763740  75.4342890  26.8688611 112.2723803  74.1871019  27.3595720
 122.9807891  69.2147594  17.8166514 123.8153495  68.7828792  17.6343989
 122.8192234  69.0429607  18.7443408 122.6353783  65.7179707  19.1822853
 122.5802587  65.5523978  18.2411297 122.0099838  66.4255740  19.3385043
 107.4246298  60.9547771  33.0084275 108.0705162  60.4446725  33.4971500
 107.2163449  61.6916453  33.5827701 119.9499690  68.0228619  38.5076416
 120.8190850  68.1969271  38.1463051 119.4706442  68.8423036  38.3852145
 115.9449908  55.2187816  18.7608171 115.9328578  56.1629656  18.9176442
 116.8373330  55.0357961  18.4667633 114.1185870  75.1425720  30.1865849
 115.0213117  75.1749330  30.5032344 113.8923240  74.2126171  30.2012185
 115.8739472  73.8956706  26.8475928 114.9235103  73.8958568  26.7340300
 116.1771959  73.1489441  26.3311963 119.7602028  51.8130592  23.0154108
 118.9934424  51.2589079  23.1610791 120.1712733  51.8852461  23.8768260
 111.7643789  58.1015388  37.1059290 112.6275251  57.7452193  37.3162614
 111.1909200  57.7629283  37.7934694 131.6092166  79.7317245  27.9121691
 132.2470576  79.6123992  27.2085031 131.4913009  80.6798089  27.9709643
 128.4181872  79.6844673  27.8483215 128.0800384  79.5685737  26.9603750
 129.2871640  79.2835838  27.8284221 124.2768688  81.5380149  23.8380106
 123.7133553  81.4470086  23.0696394 124.1621083  80.7180054  24.3182599
 128.9001655  80.8379524  33.8069421 128.8890296  80.4432323  32.9349924
 129.0622295  80.1045597  34.4003192 121.8233120  83.0331341  26.6764327
 122.6154412  82.6922165  26.2610626 122.0629770  83.1426316  27.5966480
 129.8568247  85.2051117  19.1494571 129.2056226  85.7905197  18.7628585
 130.6512609  85.7357312  19.2089609 123.7823874  82.2940254  19.5481705
 124.5554750  81.7469241  19.4094581 124.1349273  83.1584503  19.7596167
 125.6208916  83.6216636  32.7548605 125.3298782  84.5262267  32.6395271
 126.2565901  83.6633164  33.4692674 126.5465123  80.9993485  29.3449964
 127.1428695  80.7749507  28.6306927 126.6040095  80.2578230  29.9475412
 126.1190152  78.4532920  17.1800155 126.3715672  77.9314441  16.4183618
 125.1814711  78.2899066  17.2826839 131.1633434  77.4568698  24.9874899
 131.9496524  77.0388122  24.6365316 131.4272139  78.3614791  25.1556547
 131.3343512  82.8941549  19.6863555 130.6989345  82.9676175  20.3984460
 131.0040918  83.4835148  19.0082635 136.5641862  77.3943932  25.8907877
 137.2967033  76.8243148  26.1245707 135.8081217  77.0065532  26.3314383
 125.8386440  80.3561026  19.3824530 125.7222698  79.6805929  20.0505615
 125.9488700  79.8693400  18.5656683 128.1817981  79.8171173  23.0871220
 127.8176188  79.2901794  23.7984141 129.0385097  79.4269642  22.9137705
 134.0867282  71.1065506  30.3502486 133.7550607  71.9760917  30.1263701
 133.4912895  70.7901790  31.0296516 127.8223468  74.8461073  18.0832568
 127.9897871  75.7141309  18.4503039 127.6320637  75.0088355  17.1593857
 130.5798801  83.3078052  29.7498398 130.2799525  84.2103091  29.6414206
 130.2349861  83.0410235  30.6019551 124.0311283  79.7591849  25.7835103
 123.1061779  79.6268063  25.9912795 124.2795696  80.5386068  26.2805045
 133.9795945  75.8260592  27.4295836 133.0712823  75.7576000  27.1354597
 133.9283541  76.3032537  28.2577661 127.8012689  77.3018730  19.0679235
 127.6812314  77.7475781  19.9064715 127.1065277  77.6504048  18.5092773
 121.3920094  79.4025122  26.6178892 121.5212475  79.6559601  27.5318304
 120.7117545  79.9952830  26.2983547 125.5619581  90.0722372  22.7169366
 125.4843611  91.0230197  22.7957847 124.9581225  89.7268245  23.3744292
 128.0536811  77.2450238  35.3730733 127.2770145  77.8044158  35.3633598
 128.6927374  77.7307021  35.8945603 135.8457592  74.0277030  29.2073710
 135.2031972  74.3209564  28.5613504 135.3412520  73.9129951  30.0126906
 133.4997755  77.7740204  19.8959569 134.4115611  78.0067590  19.7207266
 132.9907402  78.3577248  19.3334648 126.3083183  80.0535691  34.9348700
 127.0497868  80.5920735  34.6583524 125.6020169  80.6801980  35.0920252
 131.7838523  82.1964831  33.5320861 132.1921879  81.7547242  32.7875494
 131.0615784  81.6217459  33.7855054 128.1369593  77.1337438  30.9054418
 128.9830788  77.5576852  31.0489067 128.0768231  76.4771062  31.5992982
 132.1067338  82.7566022  27.2873150 131.4776200  82.9211736  26.5849218
 131.7193000  83.1707632  28.0584114 135.9856569  83.6920460  24.6417514
 135.3007608  84.0719361  24.0914547 136.0700419  84.3015786  25.3749462
 131.2869038  74.7941806  32.5635592 131.0429970  75.5483867  32.0269868
 131.5628969  75.1727154  33.3982839 133.2407501  81.3380419  31.2412858
 133.4524396  81.9812179  30.5647239 133.1937249  80.5042735  30.7734788
 130.8433730  73.9498240  28.1449430 129.9818209  74.2479493  28.4366167
 130.8696165  74.1668638  27.2130462 127.6595299  82.4940430  24.5523235
 128.1233645  82.7728133  23.7627858 127.3952098  81.5923875  24.3696326
 124.5519381  82.0411912  27.4902999 125.1220738  82.4699180  26.8520483
 125.1427492  81.7594496  28.1887184 126.5964186  78.6163582  21.3612801
 127.2988229  79.0684626  21.8286727 126.2644814  77.9747401  21.9892694
 125.0444547  77.2075339  35.7364010 124.4143208  77.8891620  35.9699407
 124.9380635  77.0958421  34.7917148 120.3389519  76.8747135  26.6629934
 119.5488573  77.1304664  26.1870045 120.8300767  77.6895473  26.7681975
 134.3553329  84.2152374  29.4135215 135.1770773  83.8132562  29.1317897
 134.3515732  84.1120608  30.3651331 122.2904265  77.2391714  23.6213411
 121.4935428  77.3510409  24.1396907 122.0629857  77.5778367  22.7554301
 128.1209932  83.7636418  31.5695925 128.1854365  84.2256825  32.4054097
 127.4120856  83.1333783  31.6978235 118.6227222  77.1277626  29.0944925
 118.8735261  78.0124635  29.3602501 119.1586771  76.9482227  28.3220017
 142.4459322  80.5591123  25.7620186 141.6923030  79.9898521  25.6064191
 142.5806863  80.5253787  26.7090821 127.8357950  85.4304525  21.4374906
 127.7003625  86.2756061  21.8659754 128.3767763  85.6323803  20.6740840
 124.3225290  71.5096105  38.0989261 123.9292235  70.9562303  38.7736905
 125.1391430  71.8206683  38.4895779 121.2887348  82.9479963  22.0102831
 121.8011868  83.7423213  22.1608396 121.9410060  82.2506254  21.9436432
 123.0982232  86.0645719  24.0925584 123.2748861  86.9863684  23.9046568
 123.8939066  85.7504139  24.5219964 127.2393251  72.9253984  35.6909518
 127.9802964  73.5261137  35.6113980 127.4711174  72.1831622  35.1327560
 122.3834589  78.1110351  33.9687747 122.2688104  77.2095609  34.2694846
 121.5279107  78.3574048  33.6172564 129.4626427  86.0528092  35.5675248
 129.0190281  85.2664470  35.2496152 130.1243640  86.2407242  34.9019139
 124.2213548  87.5823893  30.0935926 124.7720973  87.4540957  29.3212920
 123.3825024  87.8818782  29.7430819 131.5607665  86.3330892  33.5956649
 131.5426140  87.1539773  33.1036918 132.4827585  86.2084967  33.8206790
 128.0180719  83.8475021  34.4380158 128.5509056  83.0863309  34.2079466
 127.4894800  83.5548673  35.1804312 131.1850414  68.9535087  29.9673799
 130.8414683  69.8436729  29.8912910 131.5529376  68.7636745  29.1043384
 119.2536264  81.2768617  22.7862401 120.0911486  81.6865626  22.5696109
 119.4314532  80.3368060  22.7562595 131.1500696  78.9443698  18.4746234
 130.6347320  79.7148303  18.7134622 130.8778005  78.2708834  19.0979296
 128.7347807  73.7893399  23.5331473 127.8789404  73.4000249  23.3537111
 129.1474759  73.8685360  22.6731258 130.2646954  71.3239742  27.9323033
 129.7611750  71.2869877  27.1190838 130.5577561  72.2332485  27.9919689
 126.5089840  71.4078472  26.9389214 127.3742837  71.2121281  26.5795104
 126.5767349  71.1788824  27.8658571 136.1234971  81.6976053  20.4099408
 135.3464413  81.3587212  19.9654570 136.8026452  81.7028676  19.7354373
 130.9387000  76.8170790  20.3006016 130.6337135  77.1316939  21.1516159
 131.8917442  76.8952210  20.3433349 129.3833431  82.9761013  21.9498970
 128.8554793  82.2413773  21.6372207 128.8820934  83.7535690  21.7038938
 134.3626277  81.1710034  27.0666016 133.7049952  81.8609295  27.1546144
 135.1666677  81.5606466  27.4100002 124.1152159  73.6380680  24.3105581
 124.6895911  73.4155861  23.5778774 124.7023141  73.7069374  25.0634182
 133.1731736  79.5254407  25.1169958 133.6863618  80.1584398  25.6191667
 133.8232960  78.9255602  24.7513318 124.4421746  75.6685141  18.3301466
 123.6059058  76.0059827  18.6510741 124.3026516  75.5334121  17.3928603
 126.4174827  70.5121929  23.0380651 125.7639239  70.1970946  22.4137265
 126.3755301  69.8897669  23.7640473 127.5286032  80.7941224  14.9533943
 126.6213093  80.5630477  15.1525092 128.0257064  79.9978843  15.1407924
 130.4354111  89.5038731  17.8730629 129.7615809  89.8070428  18.4815587
 130.8219932  90.3067811  17.5236086 129.6512567  77.0003862  27.3628298
 128.7335128  77.2218809  27.2049986 130.0672711  77.0750173  26.5040005
 130.4347615  78.3995278  22.4930978 131.1819434  78.9116675  22.1838100
 130.7039204  78.0779331  23.3535372 128.7074265  80.8953819  19.4757933
 127.7985484  80.6112851  19.5730402 128.7369349  81.3152897  18.6161240
 133.9393532  84.5060408  23.2449100 133.4855860  83.6651318  23.3014291
 133.3087499  85.1421806  23.5823880 132.8826452  75.4352394  24.4749768
 132.1449209  74.9229780  24.8060010 133.1353226  74.9952776  23.6633045
 132.3826472  86.3436905  24.1798918 132.6749446  86.9041962  23.4611284
 132.8925092  86.6365466  24.9352077 132.9838079  68.2128646  25.0691537
 133.2896956  67.3526010  24.7817452 133.7090684  68.8046266  24.8690531
 119.2762435  78.6159333  23.4573135 119.0786835  78.0228693  22.7324201
 118.7209099  78.3111543  24.1749074 127.2559159  78.5082439  25.5767728
 127.3107769  77.5556276  25.5010205 126.4450361  78.6641878  26.0609026
 128.4050353  82.4362562  16.8146011 127.9669783  81.7198421  16.3551649
 129.1460794  82.6638677  16.2531103 125.1951519  77.1259499  23.3358107
 124.3819385  77.4253670  23.7423299 125.6910513  76.7315188  24.0532589
 127.3460097  87.1217256  25.2692372 127.3036276  87.3478102  24.3400904
 128.2622796  86.8880630  25.4178173 130.7925731  77.5901323  32.1673001
 131.1475118  77.8172797  33.0267467 131.4397862  77.9219700  31.5450256
 136.5223468  80.7119759  22.8722330 136.3841366  80.9021355  21.9443519
 136.1659686  81.4739142  23.3290381 124.6865594  74.6977854  28.9519342
 125.3264973  74.5566614  28.2542305 123.8543124  74.4112368  28.5757944
 136.5492847  82.7796286  27.8833601 136.9829354  82.6871575  28.7316655
 137.2624428  82.7553787  27.2453617 125.4625898  83.9980285  25.0654334
 126.2566496  83.5030605  24.8636909 124.7517590  83.4698148  24.7022040
 130.2820742  86.3798380  29.4166702 130.3357764  86.9489317  30.1844418
 129.4135524  86.5500265  29.0520739 121.7708661  78.1423367  21.1414087
 120.8406249  78.0807822  21.3584049 121.8666133  77.6199319  20.3450728
 121.6894210  74.6678179  23.7292329 121.9501027  75.5823513  23.6201489
 122.5111383  74.2002622  23.8788941 123.1619136  76.0815937  30.8991153
 123.8342189  75.8733299  30.2503802 122.3348922  75.8838023  30.4596385
 137.4108397  82.8219987  30.4166487 137.6044287  83.7265797  30.6625762
 137.3109015  82.3627406  31.2505072 129.0644708  72.7077878  32.9156814
 128.4172623  73.4067827  32.8221290 129.8345723  73.1414021  33.2833062
 132.4723505  82.9726730  35.9907367 132.3209012  82.7437281  35.0737451
 132.4628185  83.9297331  36.0038712 129.2408842  80.5458642  30.9753634
 130.1700902  80.6969802  30.8022601 128.8199872  80.6342663  30.1202280
 128.0397174  84.5709307  28.7452171 127.9008259  84.2028091  29.6178110
 127.2511770  85.0856946  28.5736129 128.6345326  89.6718403  20.0877708
 128.8097081  89.2006447  20.9023331 127.9478114  90.2984170  20.3158969
 129.5902389  83.9490910  26.1341009 129.2552221  83.9091680  27.0298659
 129.0906335  83.2835625  25.6611419 123.5646633  79.3558540  31.6593590
 123.4266431  78.6238778  32.2605129 124.4751556  79.2667440  31.3777778
 132.5261580  81.2946944  16.4078069 131.9090751  80.5693772  16.3111122
 132.0578069  82.0556304  16.0645143 126.1928933  79.0678499  31.1477270
 126.9028552  78.4271691  31.1063888 126.1498242  79.3191394  32.0703451
 134.1815712  86.0045852  34.0683849 134.1228258  85.3205072  33.4014432
 134.5835231  86.7464842  33.6164475 124.9057867  76.0543717  32.9672909
 124.3695224  75.6034455  33.6194506 124.3174576  76.1889626  32.2243374
 123.2006411  92.8207766  26.8617568 123.4403009  93.4526290  27.5396587
 122.3575607  92.4695806  27.1482927 124.3160126  75.5132368  15.5299373
 123.4389593  75.3921169  15.1661620 124.7917879  74.7218447  15.2778262
 134.1833119  83.9685436  32.2997829 133.2959898  83.6311358  32.4224228
 134.7531670  83.2368467  32.5366594 115.8362267  80.3009528  25.6240880
 116.5233306  79.9871258  25.0361896 115.6810395  81.2050893  25.3508132
 120.6396989  75.1899725  30.0525904 120.5555177  74.5825394  29.3176314
 119.8179695  75.6808743  30.0535400 127.7134273  88.6286889  29.2659072
 127.6404444  89.4341860  29.7778377 127.2711666  88.8278854  28.4407093
 127.5024052  87.8658659  22.7761894 126.7191574  88.4080339  22.8700118
 128.2016798  88.3832638  23.1756135 130.8120703  73.6753288  25.4196099
 131.3089402  72.9223250  25.0997169 130.0407684  73.7117605  24.8539308
 138.6650460  79.3793654  27.0614391 138.6540336  80.2618369  26.6908324
 137.7967839  79.0265204  26.8668928 130.1732956  88.5273723  31.4217231
 130.8860929  89.1621187  31.3493132 129.6822985  88.6237589  30.6057233
 131.8950483  82.4324975  22.9934522 130.9606762  82.5526438  22.8239227
 132.0727152  81.5297442  22.7294532 127.3955671  75.8170671  25.1467784
 127.0253459  75.2641711  25.8348689 127.8914764  75.2128805  24.5942784
 135.2823035  78.2742295  23.5284557 135.7483487  79.1070286  23.4544859
 135.7330535  77.8087276  24.2329815 125.2244870  86.2768166  32.2422802
 125.9254329  86.9104649  32.3952196 124.7539985  86.6182898  31.4818441
 133.3499266  84.6186116  20.5270709 133.6259110  84.5042710  21.4364583
 132.4803764  84.2203601  20.4882882 133.2539697  70.6422882  27.5675458
 132.3402777  70.8727108  27.7357665 133.6832799  70.7261326  28.4189490
 133.0246156  78.8312774  30.0675352 132.3717606  79.0788681  29.4127805
 133.4026536  78.0176912  29.7337829 129.9853330  88.8672467  24.1703522
 130.1675724  88.0494123  24.6331275 130.8086316  89.0840159  23.7328412
 130.3195495  87.7940652  21.4318571 130.8483262  87.2833106  20.8188733
 130.5823715  87.4783182  22.2964104 129.0733729  79.5732585  36.5541389
 128.3974366  79.4726714  37.2243764 129.8961363  79.4171798  37.0177386
 120.8212588  85.8104521  29.1753904 121.4066025  85.0648209  29.3081808
 120.6237426  86.1208478  30.0590568 123.6751243  88.8455768  24.1916347
 123.0061618  89.3301896  23.7080387 123.5364113  89.0924989  25.1059725
 115.4130243  78.3810121  27.8958347 115.4514342  77.8473712  28.6895465
 114.9070535  77.8545327  27.2769325 127.8156512  90.8799512  30.7899005
 128.3674820  91.0431134  31.5548090 128.1562705  91.4703950  30.1179030
 122.7921005  73.2274662  31.3920890 122.8562331  74.0889493  30.9798287
 122.7288125  72.6148663  30.6593248 122.2673277  75.2997794  35.0393924
 122.8945316  74.9174872  35.6531448 121.4101196  75.0811996  35.4049616
 132.6667386  85.7060770  36.6447659 133.2107290  86.3190728  36.1502614
 132.0854231  86.2640348  37.1614672 119.0438820  77.1074223  20.9712279
 119.3392261  76.1984902  20.9179332 118.1426856  77.0861963  20.6493281
 130.9524899  88.8281488  27.7762687 130.8276038  88.0271227  27.2673633
 131.6103990  89.3227681  27.2876657 122.5733067  75.1830220  26.9539827
 121.8519653  75.7966188  26.8147301 123.3626323  75.7187985  26.8756473
 133.0159807  86.6290508  29.4042237 132.0690143  86.5095859  29.3320564
 133.3642580  85.7413006  29.4868499 125.3759381  72.5184647  33.2280479
 125.8993783  72.7646943  33.9906788 125.1571714  73.3504681  32.8083616
 120.7726662  74.7888321  21.0951604 120.4439368  73.9085700  20.9126710
 121.1266033  74.7335990  21.9827993 130.0206241  86.4243224  25.6046589
 129.8731203  85.4959931  25.7854160 130.8459734  86.4463315  25.1203665
 123.8868485  75.0761291  21.4627082 124.2264557  75.6047212  20.7405690
 124.3340605  75.4141697  22.2385648 133.6240363  87.2471783  26.6911462
 134.5486910  87.0414644  26.5535913 133.4555666  86.9988184  27.6000804
 126.5811926  73.4598342  30.9130150 126.2408746  72.6606155  31.3150830
 125.8750932  73.7600052  30.3406983 127.2328398  70.5447654  29.3657473
 128.0554467  70.0708132  29.2436363 127.4766461  71.3238138  29.8656159
 125.8736632  73.5735913  19.6620374 126.5944995  73.9517165  19.1584091
 125.2501936  74.2924789  19.7655352 130.0167755  74.2781061  20.5978707
 130.2331369  75.1605699  20.2967535 129.5361822  73.8867275  19.8684349
 124.7566976  77.2366775  27.1749451 124.6111557  77.5507078  28.0673733
 124.2792180  77.8551675  26.6220350 126.6163359  74.2269323  27.2230341
 126.6024928  73.3310416  26.8862639 127.3335787  74.2339986  27.8568627
 128.4689490  74.6606663  29.2683468 128.2107268  75.5823734  29.2667799
 127.9374530  74.2637097  29.9583932 133.4135679  87.7657450  22.0473554
 133.5872556  87.2003873  21.2947406 133.9064570  88.5658345  21.8653044
 119.2312639  79.7772119  30.1137112 118.6866107  80.5531927  30.2457387
 120.1091988  80.1242924  29.9556234 126.0200255  73.1083703  22.4917911
 126.1416166  72.1800349  22.6908798 125.7302298  73.1222389  21.5796226
 128.8891446  70.7938613  25.6284631 128.9113142  70.8577946  24.6736610
 129.3059505  69.9543122  25.8225137 139.2675070  80.5293873  23.6663853
 139.7106216  79.7801198  23.2682977 138.3901580  80.5204009  23.2837585
 134.4010851  87.0824214  19.1470452 135.0961756  87.7030907  19.3657767
 134.7434001  86.2319566  19.4222830 120.0178660  78.9042015  33.0067269
 119.2760396  79.0524651  33.5931900 119.6971405  79.1650281  32.1434019
 136.3002274  84.5323920  20.6757783 136.8253598  84.8711193  19.9507103
 136.2124627  83.5970935  20.4920917 127.9622323  88.4457994  32.8047659
 128.2709449  88.2007140  33.6770359 128.7597805  88.6504632  32.3166530
 127.9842935  90.5995903  25.0353036 127.5447925  90.1072282  25.7285893
 128.7351052  90.0568871  24.7945111 120.4635274  86.7907444  25.0377664
 121.2893294  86.4911216  24.6576308 120.1129326  86.0215067  25.4867453
 125.4316807  86.1433912  27.1075338 124.8096817  85.4804617  26.8077565
 126.1021674  86.1695044  26.4248985 118.6643879  84.7093771  25.9966598
 117.8275787  84.2815945  25.8150599 118.6367525  84.9026214  26.9337389
 125.5041335  74.6215700  36.7007844 125.5529490  75.4977823  36.3185613
 126.0463849  74.0793093  36.1279487 135.9896180  85.1656824  35.9808981
 135.1991724  85.1480962  35.4413480 135.7529535  85.7045117  36.7358017
 136.1094055  82.0149290  33.2941709 136.1592060  81.8499297  34.2357232
 136.0007979  81.1476549  32.9039590 124.9930314  84.6937836  20.5833798
 125.1418435  85.3773300  19.9300471 125.7996758  84.6742926  21.0983254
 133.3997818  77.9980218  34.6101016 134.3007681  77.8586683  34.3185014
 133.4745792  78.1634673  35.5499193 127.7340623  75.3747073  33.4554202
 126.8643933  75.6680639  33.1836791 127.9700104  75.9587518  34.1761466
 137.6112252  84.4346231  33.5383731 137.3197061  84.7976212  34.3747192
 136.9984384  83.7213240  33.3597063 138.8107935  81.9999111  26.0586301
 139.6454826  82.4388915  26.2223861 138.9467063  81.5237764  25.2394547
 135.8599441  79.5578846  32.0063789 136.3353562  79.7506492  31.1982640
 134.9365006  79.6138032  31.7607172 122.7482947  80.7203013  21.5894867
 122.5028989  79.8165343  21.7875077 122.9178862  80.7220164  20.6474345
 130.4379657  71.5926690  30.9719623 130.9561601  72.3287717  30.6466111
 130.0834790  71.8990683  31.8066382 122.0178595  76.4531371  19.0881028
 121.3247840  76.5275726  18.4321064 121.7730347  75.6891715  19.6102545
 130.6892251  68.0126972  26.4920519 130.9694005  67.3450161  27.1180946
 131.4742858  68.2056068  25.9795183 128.4925720  87.1885966  18.0545546
 127.9199687  87.8076153  17.6016017 129.0658513  87.7385328  18.5885467
 134.5601110  76.4344606  30.2392094 135.5118532  76.5342704  30.2604318
 134.3904560  75.6422875  30.7490179 132.5815489  73.5200189  30.4251495
 131.9865421  73.8005202  29.7297984 132.2965186  74.0094090  31.1968236
 131.7122979  87.4723116  19.1854128 132.6453653  87.4068678  19.3887003
 131.6246192  88.3079383  18.7268660 134.3410996  86.7888987  16.1458075
 134.2624628  86.4548850  17.0393833 135.1620663  87.2810754  16.1449548
 137.0389187  79.6550726  29.3534394 137.0065507  78.7166727  29.5394078
 137.6489811  79.7334763  28.6200219 128.8772518  78.5246779  15.3961598
 129.8231623  78.3952987  15.4650016 128.4986763  77.7861441  15.8731026
 137.1883676  76.4461769  29.3992677 136.6722724  75.6620226  29.2122606
 138.0723624  76.1180486  29.5639197 134.8494403  70.1902785  25.3588490
 134.6519224  69.8817873  26.2431822 135.4594108  70.9164424  25.4886420
 142.8565737  80.7166733  28.4940431 143.5869126  80.4552021  29.0548134
 142.2472683  79.9795455  28.5342499 140.9381034  78.8574595  29.0914882
 140.2114198  78.7230560  28.4831374 140.5228321  79.1651424  29.8971600
 128.7611211  82.5764525  36.8562255 129.6814220  82.7543124  37.0502302
 128.7260794  81.6320570  36.7041954 127.0615435  76.4496755  15.3316483
 126.1546891  76.1529868  15.4079197 127.3391416  76.1526573  14.4650769
 117.9793376  77.7703119  25.7815530 117.6596160  76.9168427  25.4889904
 117.4326804  77.9851697  26.5373497 121.7573283  80.4865560  29.4985036
 121.9759293  81.4182667  29.5173070 122.1699057  80.1273534  30.2839840
 128.6777501  70.9933645  21.4860725 127.8678229  70.6480730  21.8615971
 129.3661918  70.6841189  22.0748336 130.6068049  70.0711692  23.1085021
 131.1599088  70.4907145  23.7675044 130.8438136  69.1447440  23.1507977
 126.6301149  76.0598765  38.8887785 126.5297875  77.0093122  38.8199876
 126.4122691  75.7317004  38.0163855 125.8314220  73.3083690  15.4728462
 126.6933384  73.6338589  15.7324280 126.0164564  72.5215186  14.9601528
 117.8481636  81.3906030  27.7508651 117.1545107  80.9759983  27.2378606
 118.5954627  81.4326567  27.1542070 133.9846856  72.1812217  22.6163685
 133.4045525  72.8397021  22.2341738 133.7182789  71.3589562  22.2051103
 132.4350423  71.5817275  24.8185006 132.9350201  71.6933809  24.0099325
 133.0786031  71.2778327  25.4585814 126.4932419  79.4895904  37.7052847
 126.0099500  80.2896264  37.9116736 126.5793358  79.5003849  36.7520291
 119.7618378  81.3224284  25.6274666 119.7389066  81.4211971  24.6756549
 120.0719015  82.1689435  25.9491832 122.4205756  83.3800439  29.7421281
 123.3749010  83.3484381  29.6751212 122.2218280  82.9191063  30.5571506
 123.0105138  81.9501555  32.3092078 123.8298027  82.4445634  32.3326915
 123.2841946  81.0333523  32.2809646 132.7671734  74.3412307  21.6720034
 131.8797589  74.6261958  21.4540228 133.1825724  74.1806071  20.8247311
 136.1186271  74.3658828  25.3874373 136.8946661  74.8555281  25.6598990
 135.3934405  74.7916882  25.8446242 138.5558829  75.0786448  26.4448314
 139.1503320  74.8382183  25.7341622 138.6285413  74.3593578  27.0721850
 120.7755985  88.9220058  26.7591478 120.6410453  88.1620459  26.1929476
 120.3588047  89.6460958  26.2920267 131.9114948  84.1056982  15.7668054
 132.6150798  84.3106984  16.3825709 131.1877597  84.6733744  16.0317137
 132.7412758  79.8566843  21.8870324 132.6847960  80.3135395  21.0477956
 133.2941101  79.0957528  21.7093167 136.5517564  75.6456575  22.7120443
 136.2954498  75.2453211  23.5428651 135.9270432  76.3600369  22.5870583
 140.8629902  78.3852648  25.2191735 140.3029460  78.4545838  25.9923297
 140.2573405  78.2093633  24.4991231 123.9325111  89.8189375  26.9709921
 123.8157495  90.7634808  26.8688611 123.1117557  89.5162937  27.3595720
 133.8201645  84.5439511  17.8166514 134.6547249  84.1120710  17.6343989
 133.6585988  84.3721525  18.7443408 133.4747538  81.0471624  19.1822853
 133.4196341  80.8815896  18.2411297 132.8493593  81.7547657  19.3385043
 118.2640052  76.2839689  33.0084275 118.9098916  75.7738643  33.4971500
 118.0557204  77.0208371  33.5827701 130.7893445  83.3520536  38.5076416
 131.6584604  83.5261189  38.1463051 130.3100196  84.1714953  38.3852145
 126.7843663  70.5479733  18.7608171 126.7722333  71.4921573  18.9176442
 127.6767085  70.3649879  18.4667633 124.9579625  90.4717637  30.1865849
 125.8606872  90.5041248  30.5032344 124.7316995  89.5418088  30.2012185
 126.7133227  89.2248624  26.8475928 125.7628858  89.2250486  26.7340300
 127.0165713  88.4781358  26.3311963 130.5995782  67.1422510  23.0154108
 129.8328178  66.5880997  23.1610791 131.0106487  67.2144379  23.8768260
 122.6037543  73.4307306  37.1059290 123.4669005  73.0744111  37.3162614
 122.0302954  73.0921201  37.7934694 142.4485920  95.0609162  27.9121691
 143.0864330  94.9415910  27.2085031 142.3306763  96.0090006  27.9709643
 139.2575627  95.0136590  27.8483215 138.9194138  94.8977655  26.9603750
 140.1265395  94.6127755  27.8284221 135.1162442  96.8672067  23.8380106
 134.5527308  96.7762004  23.0696394 135.0014837  96.0471971  24.3182599
 139.7395410  96.1671442  33.8069421 139.7284050  95.7724240  32.9349924
 139.9016049  95.4337515  34.4003192 132.6626874  98.3623258  26.6764327
 133.4548166  98.0214083  26.2610626 132.9023524  98.4718233  27.5966480
 134.6217628  97.6232172  19.5481705 135.3948504  97.0761159  19.4094581
 134.9743027  98.4876421  19.7596167 136.4602671  98.9508554  32.7548605
 136.1692537  99.8554185  32.6395271 137.0959655  98.9925082  33.4692674
 137.3858878  96.3285402  29.3449964 137.9822450  96.1041425  28.6306927
 137.4433849  95.5870148  29.9475412 136.9583906  93.7824838  17.1800155
 137.2109427  93.2606359  16.4183618 136.0208465  93.6190983  17.2826839
 142.0027189  92.7860616  24.9874899 142.7890278  92.3680039  24.6365316
 142.2665893  93.6906708  25.1556547 142.1737266  98.2233466  19.6863555
 141.5383099  98.2968093  20.3984460 141.8434673  98.8127065  19.0082635
 147.4035616  92.7235849  25.8907877 148.1360788  92.1535066  26.1245707
 146.6474972  92.3357450  26.3314383 136.6780195  95.6852944  19.3824530
 136.5616453  95.0097847  20.0505615 136.7882455  95.1985318  18.5656683
 139.0211736  95.1463091  23.0871220 138.6569943  94.6193712  23.7984141
 139.8778852  94.7561560  22.9137705 144.9261036  86.4357423  30.3502486
 144.5944361  87.3052834  30.1263701 144.3306650  86.1193707  31.0296516
 138.6617223  90.1752991  18.0832568 138.8291625  91.0433227  18.4503039
 138.4714392  90.3380272  17.1593857 141.4192556  98.6369969  29.7498398
 141.1193279  99.5395008  29.6414206 141.0743615  98.3702153  30.6019551
 134.8705037  95.0883766  25.7835103 133.9455534  94.9559980  25.9912795
 135.1189451  95.8677986  26.2805045 144.8189700  91.1552510  27.4295836
 143.9106577  91.0867918  27.1354597 144.7677295  91.6324455  28.2577661
 138.6406444  92.6310648  19.0679235 138.5206069  93.0767699  19.9064715
 137.9459032  92.9795966  18.5092773 132.2313848  94.7317040  26.6178892
 132.3606230  94.9851519  27.5318304 131.5511300  95.3244748  26.2983547
 136.4013336 105.4014290  22.7169366 136.3237365 106.3522115  22.7957847
 135.7974979 105.0560162  23.3744292 138.8930565  92.5742155  35.3730733
 138.1163900  93.1336075  35.3633598 139.5321129  93.0598938  35.8945603
 146.6851346  89.3568948  29.2073710 146.0425726  89.6501481  28.5613504
 146.1806275  89.2421868  30.0126906 144.3391510  93.1032121  19.8959569
 145.2509366  93.3359508  19.7207266 143.8301157  93.6869165  19.3334648
 137.1476938  95.3827609  34.9348700 137.8891622  95.9212653  34.6583524
 136.4413923  96.0093897  35.0920252 142.6232277  97.5256749  33.5320861
 143.0315633  97.0839160  32.7875494 141.9009539  96.9509377  33.7855054
 138.9763347  92.4629356  30.9054418 139.8224543  92.8868769  31.0489067
 138.9161985  91.8062980  31.5992982 142.9461092  98.0857940  27.2873150
 142.3169955  98.2503654  26.5849218 142.5586754  98.4999549  28.0584114
 146.8250324  99.0212378  24.6417514 146.1401362  99.4011279  24.0914547
 146.9094173  99.6307704  25.3749462 142.1262793  90.1233724  32.5635592
 141.8823725  90.8775785  32.0269868 142.4022723  90.5019072  33.3982839
 144.0801256  96.6672337  31.2412858 144.2918151  97.3104096  30.5647239
 144.0331004  95.8334653  30.7734788 141.6827485  89.2790157  28.1449430
 140.8211964  89.5771411  28.4366167 141.7089919  89.4960556  27.2130462
 138.4989054  97.8232348  24.5523235 138.9627399  98.1020051  23.7627858
 138.2345852  96.9215792  24.3696326 135.3913135  97.3703829  27.4902999
 135.9614492  97.7991098  26.8520483 135.9821247  97.0886414  28.1887184
 137.4357940  93.9455500  21.3612801 138.1381983  94.3976544  21.8286727
 137.1038568  93.3039319  21.9892694 135.8838302  92.5367257  35.7364010
 135.2536962  93.2183538  35.9699407 135.7774389  92.4250338  34.7917148
 131.1783274  92.2039053  26.6629934 130.3882328  92.4596581  26.1870045
 131.6694521  93.0187391  26.7681975 145.1947084  99.5444292  29.4135215
 146.0164527  99.1424479  29.1317897 145.1909486  99.4412526  30.3651331
 133.1298019  92.5683632  23.6213411 132.3329183  92.6802326  24.1396907
 132.9023612  92.9070284  22.7554301 138.9603687  99.0928335  31.5695925
 139.0248119  99.5548742  32.4054097 138.2514611  98.4625700  31.6978235
 129.4620977  92.4569543  29.0944925 129.7129015  93.3416553  29.3602501
 129.9980525  92.2774145  28.3220017 153.2853077  95.8883040  25.7620186
 152.5316785  95.3190439  25.6064191 153.4200618  95.8545705  26.7090821
 138.6751705 100.7596443  21.4374906 138.5397379 101.6047978  21.8659754
 139.2161517 100.9615720  20.6740840 135.1619044  86.8388023  38.0989261
 134.7685990  86.2854221  38.7736905 135.9785185  87.1498601  38.4895779
 132.1281102  98.2771881  22.0102831 132.6405623  99.0715131  22.1608396
 132.7803815  97.5798171  21.9436432 133.9375987 101.3937637  24.0925584
 134.1142615 102.3155602  23.9046568 134.7332820 101.0796056  24.5219964
 138.0787005  88.2545902  35.6909518 138.8196719  88.8553055  35.6113980
 138.3104928  87.5123539  35.1327560 133.2228343  93.4402269  33.9687747
 133.1081858  92.5387526  34.2694846 132.3672861  93.6865966  33.6172564
 140.3020181 101.3820009  35.5675248 139.8584035 100.5956388  35.2496152
 140.9637395 101.5699160  34.9019139 135.0607302 102.9115811  30.0935926
 135.6114727 102.7832874  29.3212920 134.2218778 103.2110700  29.7430819
 142.4001419 101.6622809  33.5956649 142.3819894 102.4831690  33.1036918
 143.3221339 101.5376884  33.8206790 138.8574473  99.1766939  34.4380158
 139.3902810  98.4155227  34.2079466 138.3288554  98.8840590  35.1804312
 142.0244168  84.2827005  29.9673799 141.6808438  85.1728646  29.8912910
 142.3923131  84.0928662  29.1043384 130.0930019  96.6060535  22.7862401
 130.9305241  97.0157543  22.5696109 130.2708286  95.6659977  22.7562595
 141.9894451  94.2735616  18.4746234 141.4741074  95.0440220  18.7134622
 141.7171759  93.6000752  19.0979296 139.5741562  89.1185317  23.5331473
 138.7183158  88.7292167  23.3537111 139.9868514  89.1977277  22.6731258
 141.1040709  86.6531660  27.9323033 140.6005504  86.6161795  27.1190838
 141.3971315  87.5624403  27.9919689 137.3483594  86.7370390  26.9389214
 138.2136591  86.5413198  26.5795104 137.4161103  86.5080741  27.8658571
 141.7780754  92.1462708  20.3006016 141.4730890  92.4608857  21.1516159
 142.7311196  92.2244128  20.3433349 140.2227186  98.3052931  21.9498970
 139.6948548  97.5705691  21.6372207 139.7214689  99.0827607  21.7038938
 145.2020032  96.5001952  27.0666016 144.5443706  97.1901213  27.1546144
 146.0060431  96.8898384  27.4100002 134.9545914  88.9672597  24.3105581
 135.5289665  88.7447779  23.5778774 135.5416896  89.0361292  25.0634182
 144.0125491  94.8546324  25.1169958 144.5257372  95.4876316  25.6191667
 144.6626715  94.2547520  24.7513318 135.2815501  90.9977058  18.3301466
 134.4452813  91.3351745  18.6510741 135.1420270  90.8626038  17.3928603
 137.2568581  85.8413846  23.0380651 136.6032994  85.5262864  22.4137265
 137.2149055  85.2189587  23.7640473 140.4906322  92.3295780  27.3628298
 139.5728883  92.5510727  27.2049986 140.9066465  92.4042090  26.5040005
 141.2741369  93.7287196  22.4930978 142.0213188  94.2408593  22.1838100
 141.5432959  93.4071248  23.3535372 139.5468020  96.2245736  19.4757933
 138.6379239  95.9404769  19.5730402 139.5763103  96.6444815  18.6161240
 144.7787287  99.8352326  23.2449100 144.3249614  98.9943236  23.3014291
 144.1481254 100.4713724  23.5823880 143.7220207  90.7644312  24.4749768
 142.9842963  90.2521698  24.8060010 143.9746980  90.3244693  23.6633045
 143.2220226 101.6728822  24.1798918 143.5143201 102.2333880  23.4611284
 143.7318847 101.9657383  24.9352077 143.8231834  83.5420564  25.0691537
 144.1290711  82.6817927  24.7817452 144.5484439  84.1338184  24.8690531
 130.1156190  93.9451250  23.4573135 129.9180590  93.3520611  22.7324201
 129.5602854  93.6403461  24.1749074 138.0952914  93.8374357  25.5767728
 138.1501523  92.8848193  25.5010205 137.2844116  93.9933796  26.0609026
 136.0345274  92.4551417  23.3358107 135.2213139  92.7545587  23.7423299
 136.5304268  92.0607105  24.0532589 138.1853851 102.4509174  25.2692372
 138.1430030 102.6770020  24.3400904 139.1016550 102.2172548  25.4178173
 141.6319485  92.9193241  32.1673001 141.9868873  93.1464714  33.0267467
 142.2791616  93.2511618  31.5450256 147.3617222  96.0411677  22.8722330
 147.2235121  96.2313273  21.9443519 147.0053441  96.8031060  23.3290381
 135.5259348  90.0269772  28.9519342 136.1658728  89.8858531  28.2542305
 134.6936879  89.7404286  28.5757944 147.3886602  98.1088204  27.8833601
 147.8223108  98.0163493  28.7316655 148.1018182  98.0845704  27.2453617
 136.3019652  99.3272203  25.0654334 137.0960251  98.8322523  24.8636909
 135.5911345  98.7990066  24.7022040 141.1214497 101.7090298  29.4166702
 141.1751519 102.2781234  30.1844418 140.2529278 101.8792183  29.0520739
 132.6102416  93.4715284  21.1414087 131.6800004  93.4099740  21.3584049
 132.7059888  92.9491237  20.3450728 132.5287965  89.9970097  23.7292329
 132.7894782  90.9115430  23.6201489 133.3505137  89.5294540  23.8788941
 134.0012890  91.4107854  30.8991153 134.6735943  91.2025216  30.2503802
 133.1742677  91.2129940  30.4596385 148.2502151  98.1511905  30.4166487
 148.4438041  99.0557715  30.6625762 148.1502769  97.6919324  31.2505072
 139.9038462  88.0369795  32.9156814 139.2566377  88.7359745  32.8221290
 140.6739477  88.4705939  33.2833062 143.3117260  98.3018647  35.9907367
 143.1602766  98.0729199  35.0737451 143.3021939  99.2589249  36.0038712
 140.0802596  95.8750560  30.9753634 141.0094656  96.0261720  30.8022601
 139.6593626  95.9634581  30.1202280 138.8790928  99.9001225  28.7452171
 138.7402014  99.5320009  29.6178110 138.0905524 100.4148864  28.5736129
 140.4296143  99.2782827  26.1341009 140.0945976  99.2383597  27.0298659
 139.9300089  98.6127543  25.6611419 134.4040387  94.6850457  31.6593590
 134.2660185  93.9530696  32.2605129 135.3145311  94.5959357  31.3777778
 137.0322688  94.3970417  31.1477270 137.7422306  93.7563609  31.1063888
 136.9891996  94.6483311  32.0703451 145.0209467 101.3337770  34.0683849
 144.9622013 100.6496990  33.4014432 145.4228985 102.0756760  33.6164475
 135.7451622  91.3835634  32.9672909 135.2088979  90.9326373  33.6194506
 135.1568330  91.5181543  32.2243374 134.0400165 108.1499684  26.8617568
 134.2796764 108.7818208  27.5396587 133.1969362 107.7987724  27.1482927
 135.1553881  90.8424286  15.5299373 134.2783347  90.7213087  15.1661620
 135.6311634  90.0510364  15.2778262 145.0226874  99.2977354  32.2997829
 144.1353653  98.9603276  32.4224228 145.5925425  98.5660385  32.5366594
 126.6756021  95.6301446  25.6240880 127.3627061  95.3163176  25.0361896
 126.5204150  96.5342810  25.3508132 131.4790743  90.5191642  30.0525904
 131.3948932  89.9117312  29.3176314 130.6573450  91.0100661  30.0535400
 138.5528027 103.9578806  29.2659072 138.4798199 104.7633778  29.7778377
 138.1105420 104.1570772  28.4407093 138.3417807 103.1950576  22.7761894
 137.5585329 103.7372256  22.8700118 139.0410552 103.7124556  23.1756135
 141.6514457  89.0045206  25.4196099 142.1483157  88.2515168  25.0997169
 140.8801439  89.0409522  24.8539308 149.5044214  94.7085571  27.0614391
 149.4934091  95.5910287  26.6908324 148.6361594  94.3557122  26.8668928
 141.0126711 103.8565640  31.4217231 141.7254683 104.4913105  31.3493132
 140.5216739 103.9529506  30.6057233 142.7344238  97.7616893  22.9934522
 141.8000516  97.8818355  22.8239227 142.9120906  96.8589360  22.7294532
 138.2349426  91.1462589  25.1467784 137.8647213  90.5933629  25.8348689
 138.7308518  90.5420722  24.5942784 146.1216789  93.6034212  23.5284557
 146.5877241  94.4362204  23.4544859 146.5724290  93.1379194  24.2329815
 136.0638624 101.6060084  32.2422802 136.7648084 102.2396567  32.3952196
 135.5933739 101.9474815  31.4818441 144.1893020  99.9478034  20.5270709
 144.4652864  99.8334628  21.4364583 143.3197519  99.5495518  20.4882882
 144.0933452  85.9714799  27.5675458 143.1796532  86.2019026  27.7357665
 144.5226553  86.0553243  28.4189490 143.8639910  94.1604691  30.0675352
 143.2111361  94.4080599  29.4127805 144.2420290  93.3468829  29.7337829
 140.8247084 104.1964384  24.1703522 141.0069479 103.3786040  24.6331275
 141.6480070 104.4132077  23.7328412 139.9127483  94.9024502  36.5541389
 139.2368120  94.8018632  37.2243764 140.7355117  94.7463716  37.0177386
 131.6606342 101.1396439  29.1753904 132.2459779 100.3940127  29.3081808
 131.4631181 101.4500395  30.0590568 134.5144998 104.1747686  24.1916347
 133.8455373 104.6593814  23.7080387 134.3757867 104.4216907  25.1059725
 126.2523997  93.7102039  27.8958347 126.2908097  93.1765630  28.6895465
 125.7464290  93.1837244  27.2769325 138.6550266 106.2091430  30.7899005
 139.2068574 106.3723051  31.5548090 138.9956460 106.7995868  30.1179030
 133.6314759  88.5566579  31.3920890 133.6956086  89.4181410  30.9798287
 133.5681880  87.9440581  30.6593248 133.1067032  90.6289712  35.0393924
 133.7339071  90.2466789  35.6531448 132.2494951  90.4103914  35.4049616
 143.5061141 101.0352687  36.6447659 144.0501045 101.6482645  36.1502614
 142.9247985 101.5932266  37.1614672 129.8832575  92.4366141  20.9712279
 130.1786016  91.5276820  20.9179332 128.9820610  92.4153881  20.6493281
 141.7918653 104.1573405  27.7762687 141.6669793 103.3563145  27.2673633
 142.4497745 104.6519599  27.2876657 133.4126822  90.5122138  26.9539827
 132.6913407  91.1258105  26.8147301 134.2020077  91.0479903  26.8756473
 143.8553562 101.9582425  29.4042237 142.9083897 101.8387776  29.3320564
 144.2036335 101.0704923  29.4868499 136.2153135  87.8476564  33.2280479
 136.7387537  88.0938861  33.9906788 135.9965469  88.6796599  32.8083616
 131.6120416  90.1180239  21.0951604 131.2833122  89.2377618  20.9126710
 131.9659787  90.0627907  21.9827993 140.8599995 101.7535142  25.6046589
 140.7124958 100.8251849  25.7854160 141.6853489 101.7755232  25.1203665
 134.7262239  90.4053209  21.4627082 135.0658312  90.9339130  20.7405690
 135.1734360  90.7433615  22.2385648 144.4634117 102.5763700  26.6911462
 145.3880664 102.3706562  26.5535913 144.2949420 102.3280101  27.6000804
 137.4205680  88.7890259  30.9130150 137.0802501  87.9898072  31.3150830
 136.7144687  89.0891970  30.3406983 138.0722152  85.8739572  29.3657473
 138.8948221  85.4000050  29.2436363 138.3160216  86.6530056  29.8656159
 136.7130387  88.9027830  19.6620374 137.4338749  89.2809083  19.1584091
 136.0895691  89.6216707  19.7655352 140.8561509  89.6072979  20.5978707
 141.0725124  90.4897617  20.2967535 140.3755577  89.2159193  19.8684349
 135.5960731  92.5658692  27.1749451 135.4505312  92.8798995  28.0673733
 135.1185934  93.1843593  26.6220350 137.4557114  89.5561240  27.2230341
 137.4418683  88.6602334  26.8862639 138.1729542  89.5631904  27.8568627
 139.3083244  89.9898581  29.2683468 139.0501022  90.9115651  29.2667799
 138.7768285  89.5929015  29.9583932 130.0706393  95.1064037  30.1137112
 129.5259861  95.8823845  30.2457387 130.9485743  95.4534841  29.9556234
 136.8594010  88.4375621  22.4917911 136.9809921  87.5092267  22.6908798
 136.5696052  88.4514307  21.5796226 139.7285200  86.1230531  25.6284631
 139.7506897  86.1869864  24.6736610 140.1453259  85.2835040  25.8225137
 150.1068824  95.8585791  23.6663853 150.5499970  95.1093116  23.2682977
 149.2295335  95.8495927  23.2837585 130.8572415  94.2333933  33.0067269
 130.1154151  94.3816568  33.5931900 130.5365159  94.4942199  32.1434019
 138.8016078 103.7749911  32.8047659 139.1103204 103.5299058  33.6770359
 139.5991560 103.9796550  32.3166530 138.8236690 105.9287821  25.0353036
 138.3841680 105.4364200  25.7285893 139.5744807 105.3860789  24.7945111
 131.3029029 102.1199362  25.0377664 132.1287048 101.8203134  24.6576308
 130.9523081 101.3506984  25.4867453 136.2710562 101.4725830  27.1075338
 135.6490571 100.8096535  26.8077565 136.9415429 101.4986962  26.4248985
 129.5037634 100.0385688  25.9966598 128.6669542  99.6107863  25.8150599
 129.4761279 100.2318132  26.9337389 136.3435089  89.9507618  36.7007844
 136.3923245  90.8269741  36.3185613 136.8857603  89.4085011  36.1279487
 146.8289935 100.4948741  35.9808981 146.0385479 100.4772880  35.4413480
 146.5923289 101.0337035  36.7358017 146.9487810  97.3441208  33.2941709
 146.9985815  97.1791215  34.2357232 146.8401733  96.4768467  32.9039590
 135.8324069 100.0229753  20.5833798 135.9812189 100.7065218  19.9300471
 136.6390512 100.0034843  21.0983254 144.2391572  93.3272136  34.6101016
 145.1401435  93.1878601  34.3185014 144.3139547  93.4926591  35.5499193
 138.5734378  90.7038990  33.4554202 137.7037687  90.9972556  33.1836791
 138.8093858  91.2879435  34.1761466 148.4506007  99.7638149  33.5383731
 148.1590815 100.1268130  34.3747192 147.8378138  99.0505157  33.3597063
 149.6501689  97.3291029  26.0586301 150.4848580  97.7680833  26.2223861
 149.7860818  96.8529682  25.2394547 146.6993195  94.8870764  32.0063789
 147.1747317  95.0798410  31.1982640 145.7758760  94.9429950  31.7607172
 133.5876702  96.0494931  21.5894867 133.3422744  95.1457261  21.7875077
 133.7572616  96.0512081  20.6474345 141.2773411  86.9218607  30.9719623
 141.7955355  87.6579634  30.6466111 140.9228544  87.2282601  31.8066382
 132.8572349  91.7823289  19.0881028 132.1641594  91.8567644  18.4321064
 132.6124101  91.0183632  19.6102545 141.5286006  83.3418890  26.4920519
 141.8087759  82.6742079  27.1180946 142.3136613  83.5347985  25.9795183
 145.3994864  91.7636524  30.2392094 146.3512287  91.8634622  30.2604318
 145.2298314  90.9714792  30.7490179 143.4209243  88.8492107  30.4251495
 142.8259176  89.1297120  29.7297984 143.1358940  89.3386008  31.1968236
 147.8782942  94.9842644  29.3534394 147.8459262  94.0458644  29.5394078
 148.4883565  95.0626680  28.6200219 139.7166273  93.8538697  15.3961598
 140.6625377  93.7244905  15.4650016 139.3380518  93.1153358  15.8731026
 148.0277430  91.7753687  29.3992677 147.5116479  90.9912144  29.2122606
 148.9117379  91.4472404  29.5639197 145.6888157  85.5194703  25.3588490
 145.4912978  85.2109791  26.2431822 146.2987863  86.2456341  25.4886420
 153.6959492  96.0458650  28.4940431 154.4262880  95.7843939  29.0548134
 153.0866437  95.3087372  28.5342499 151.7774789  94.1866513  29.0914882
 151.0507952  94.0522478  28.4831374 151.3622076  94.4943342  29.8971600
 139.6004965  97.9056443  36.8562255 140.5207975  98.0835042  37.0502302
 139.5654548  96.9612488  36.7041954 137.9009190  91.7788673  15.3316483
 136.9940645  91.4821786  15.4079197 138.1785171  91.4818491  14.4650769
 128.8187130  93.0995036  25.7815530 128.4989915  92.2460345  25.4889904
 128.2720558  93.3143614  26.5373497 132.5967038  95.8157477  29.4985036
 132.8153048  96.7474585  29.5173070 133.0092812  95.4565452  30.2839840
 139.5171256  86.3225563  21.4860725 138.7071984  85.9772648  21.8615971
 140.2055672  86.0133106  22.0748336 141.4461804  85.4003609  23.1085021
 141.9992842  85.8199063  23.7675044 141.6831890  84.4739358  23.1507977
 137.4694903  91.3890683  38.8887785 137.3691630  92.3385040  38.8199876
 137.2516445  91.0608922  38.0163855 136.6707974  88.6375608  15.4728462
 137.5327138  88.9630506  15.7324280 136.8558319  87.8507104  14.9601528
 128.6875390  96.7197948  27.7508651 127.9938862  96.3051901  27.2378606
 129.4348381  96.7618484  27.1542070 144.8240611  87.5104135  22.6163685
 144.2439280  88.1688939  22.2341738 144.5576544  86.6881479  22.2051103
 143.2744177  86.9109192  24.8185006 143.7743956  87.0225727  24.0099325
 143.9179785  86.6070245  25.4585814 137.3326173  94.8187822  37.7052847
 136.8493255  95.6188182  37.9116736 137.4187112  94.8295767  36.7520291
 130.6012133  96.6516202  25.6274666 130.5782821  96.7503889  24.6756549
 130.9112769  97.4981352  25.9491832 133.2599511  98.7092357  29.7421281
 134.2142764  98.6776299  29.6751212 133.0612034  98.2482980  30.5571506
 133.8498893  97.2793473  32.3092078 134.6691782  97.7737551  32.3326915
 134.1235700  96.3625441  32.2809646 143.6065489  89.6704225  21.6720034
 142.7191344  89.9553876  21.4540228 144.0219478  89.5097988  20.8247311
 146.9580025  89.6950746  25.3874373 147.7340415  90.1847198  25.6598990
 146.2328159  90.1208800  25.8446242 149.3952584  90.4078365  26.4448314
 149.9897075  90.1674101  25.7341622 149.4679167  89.6885496  27.0721850
 131.6149739 104.2511976  26.7591478 131.4804207 103.4912377  26.1929476
 131.1981802 104.9752876  26.2920267 143.5806513  95.1858761  21.8870324
 143.5241714  95.6427312  21.0477956 144.1334855  94.4249446  21.7093167
 147.3911319  90.9748493  22.7120443 147.1348253  90.5745128  23.5428651
 146.7664187  91.6892287  22.5870583 151.7023656  93.7144566  25.2191735
 151.1423214  93.7837755  25.9923297 151.0967160  93.5385551  24.4991231
 134.7718865 105.1481293  26.9709921 134.6551249 106.0926726  26.8688611
 133.9511312 104.8454855  27.3595720 144.3141292  96.3763542  19.1822853
 144.2590096  96.2107814  18.2411297 143.6887347  97.0839575  19.3385043
 129.1033807  91.6131607  33.0084275 129.7492671  91.1030561  33.4971500
 128.8950958  92.3500288  33.5827701 141.6287199  98.6812454  38.5076416
 142.4978359  98.8553106  38.1463051 141.1493951  99.5006871  38.3852145
 137.6237417  85.8771651  18.7608171 137.6116087  86.8213491  18.9176442
 138.5160839  85.6941797  18.4667633 135.7973379 105.8009555  30.1865849
 136.7000626 105.8333165  30.5032344 135.5710749 104.8710006  30.2012185
 137.5526981 104.5540542  26.8475928 136.6022612 104.5542403  26.7340300
 137.8559468 103.8073276  26.3311963 141.4389537  82.4714428  23.0154108
 140.6721933  81.9172915  23.1610791 141.8500242  82.5436297  23.8768260
 133.4431298  88.7599224  37.1059290 134.3062760  88.4036028  37.3162614
 132.8696709  88.4213118  37.7934694 150.5789164 111.4963360  33.8069421
 150.5677805 111.1016158  32.9349924 150.7409804 110.7629432  34.4003192
 147.2996425 114.2800472  32.7548605 147.0086291 115.1846102  32.6395271
 147.9353410 114.3216999  33.4692674 155.7654791 101.7649341  30.3502486
 155.4338116 102.6344752  30.1263701 155.1700404 101.4485625  31.0296516
 143.0707603 110.0608958  26.6178892 143.1999984 110.3143436  27.5318304
 142.3905054 110.6536666  26.2983547 149.7324320 107.9034073  35.3730733
 148.9557654 108.4627993  35.3633598 150.3714883 108.3890856  35.8945603
 157.5245101 104.6860866  29.2073710 156.8819481 104.9793399  28.5613504
 157.0200029 104.5713786  30.0126906 147.9870692 110.7119526  34.9348700
 148.7285377 111.2504570  34.6583524 147.2807678 111.3385815  35.0920252
 153.4626032 112.8548667  33.5320861 153.8709388 112.4131077  32.7875494
 152.7403293 112.2801294  33.7855054 149.8157102 107.7921273  30.9054418
 150.6618297 108.2160687  31.0489067 149.7555740 107.1354898  31.5992982
 152.9656547 105.4525642  32.5635592 152.7217479 106.2067702  32.0269868
 153.2416478 105.8310989  33.3982839 152.5221239 104.6082075  28.1449430
 151.6605718 104.9063328  28.4366167 152.5483674 104.8252474  27.2130462
 146.7232056 107.8659174  35.7364010 146.0930717 108.5475455  35.9699407
 146.6168144 107.7542256  34.7917148 142.0177028 107.5330970  26.6629934
 141.2276082 107.7888499  26.1870045 142.5088276 108.3479308  26.7681975
 149.7997441 114.4220253  31.5695925 149.8641874 114.8840660  32.4054097
 149.0908365 113.7917618  31.6978235 140.3014731 107.7861461  29.0944925
 140.5522770 108.6708471  29.3602501 140.8374280 107.6066062  28.3220017
 146.0012799 102.1679940  38.0989261 145.6079744 101.6146139  38.7736905
 146.8178939 102.4790519  38.4895779 148.9180760 103.5837819  35.6909518
 149.6590473 104.1844972  35.6113980 149.1498683 102.8415457  35.1327560
 144.0622098 108.7694187  33.9687747 143.9475613 107.8679444  34.2694846
 143.2066615 109.0157883  33.6172564 151.1413935 116.7111927  35.5675248
 150.6977790 115.9248305  35.2496152 151.8031149 116.8991077  34.9019139
 149.6968228 114.5058856  34.4380158 150.2296565 113.7447145  34.2079466
 149.1682309 114.2132508  35.1804312 152.8637923  99.6118922  29.9673799
 152.5202192 100.5020564  29.8912910 153.2316885  99.4220580  29.1043384
 151.9434463 101.9823577  27.9323033 151.4399259 101.9453713  27.1190838
 152.2365070 102.8916320  27.9919689 148.1877349 102.0662307  26.9389214
 149.0530346 101.8705116  26.5795104 148.2554858 101.8372659  27.8658571
 145.7939668 104.2964515  24.3105581 146.3683420 104.0739697  23.5778774
 146.3810650 104.3653210  25.0634182 148.0962336 101.1705764  23.0380651
 147.4426748 100.8554781  22.4137265 148.0542810 100.5481504  23.7640473
 154.6625588  98.8712481  25.0691537 154.9684465  98.0109845  24.7817452
 155.3878193  99.4630102  24.8690531 152.4713240 108.2485159  32.1673001
 152.8262627 108.4756632  33.0267467 153.1185371 108.5803536  31.5450256
 146.3653103 105.3561690  28.9519342 147.0052482 105.2150449  28.2542305
 145.5330633 105.0696203  28.5757944 144.8406645 106.7399772  30.8991153
 145.5129698 106.5317134  30.2503802 144.0136431 106.5421858  30.4596385
 150.7432217 103.3661713  32.9156814 150.0960132 104.0651663  32.8221290
 151.5133232 103.7997857  33.2833062 154.1511014 113.6310565  35.9907367
 153.9996521 113.4021117  35.0737451 154.1415694 114.5881166  36.0038712
 150.9196351 111.2042478  30.9753634 151.8488411 111.3553637  30.8022601
 150.4987381 111.2926499  30.1202280 145.2434142 110.0142375  31.6593590
 145.1053940 109.2822614  32.2605129 146.1539065 109.9251275  31.3777778
 147.8716442 109.7262334  31.1477270 148.5816061 109.0855526  31.1063888
 147.8285751 109.9775229  32.0703451 146.5845376 106.7127552  32.9672909
 146.0482733 106.2618291  33.6194506 145.9962085 106.8473461  32.2243374
 137.5149775 110.9593363  25.6240880 138.2020815 110.6455093  25.0361896
 137.3597904 111.8634728  25.3508132 142.3184498 105.8483560  30.0525904
 142.2342686 105.2409229  29.3176314 141.4967204 106.3392578  30.0535400
 146.9032379 116.9352001  32.2422802 147.6041838 117.5688484  32.3952196
 146.4327494 117.2766733  31.4818441 154.9327206 101.3006717  27.5675458
 154.0190286 101.5310944  27.7357665 155.3620308 101.3845161  28.4189490
 150.7521238 110.2316420  36.5541389 150.0761875 110.1310549  37.2243764
 151.5748872 110.0755634  37.0177386 142.5000097 116.4688356  29.1753904
 143.0853534 115.7232044  29.3081808 142.3024935 116.7792313  30.0590568
 137.0917752 109.0393957  27.8958347 137.1301851 108.5057547  28.6895465
 136.5858044 108.5129162  27.2769325 144.4708514 103.8858497  31.3920890
 144.5349840 104.7473328  30.9798287 144.4075634 103.2732499  30.6593248
 143.9460786 105.9581630  35.0393924 144.5732825 105.5758707  35.6531448
 143.0888705 105.7395832  35.4049616 154.3454895 116.3644605  36.6447659
 154.8894799 116.9774563  36.1502614 153.7641740 116.9224183  37.1614672
 144.2520576 105.8414055  26.9539827 143.5307162 106.4550023  26.8147301
 145.0413832 106.3771820  26.8756473 147.0546890 103.1768482  33.2280479
 147.5781292 103.4230778  33.9906788 146.8359223 104.0088517  32.8083616
 148.2599435 104.1182177  30.9130150 147.9196255 103.3189990  31.3150830
 147.5538441 104.4183888  30.3406983 148.9115907 101.2031489  29.3657473
 149.7341976 100.7291968  29.2436363 149.1553970 101.9821973  29.8656159
 146.4354485 107.8950610  27.1749451 146.2899066 108.2090913  28.0673733
 145.9579689 108.5135510  26.6220350 148.2950868 104.8853158  27.2230341
 148.2812437 103.9894251  26.8862639 149.0123296 104.8923822  27.8568627
 150.1476999 105.3190498  29.2683468 149.8894777 106.2407569  29.2667799
 149.6162039 104.9220933  29.9583932 140.9100148 110.4355954  30.1137112
 140.3653616 111.2115762  30.2457387 141.7879497 110.7826759  29.9556234
 150.5678955 101.4522449  25.6284631 150.5900651 101.5161782  24.6736610
 150.9847014 100.6126957  25.8225137 141.6966169 109.5625851  33.0067269
 140.9547905 109.7108486  33.5931900 141.3758914 109.8234116  32.1434019
 147.1828844 105.2799536  36.7007844 147.2316999 106.1561658  36.3185613
 147.7251358 104.7376929  36.1279487 157.6683689 115.8240659  35.9808981
 156.8779233 115.8064798  35.4413480 157.4317044 116.3628953  36.7358017
 157.7881564 112.6733125  33.2941709 157.8379569 112.5083133  34.2357232
 157.6795488 111.8060384  32.9039590 155.0785327 108.6564053  34.6101016
 155.9795190 108.5170518  34.3185014 155.1533301 108.8218508  35.5499193
 149.4128132 106.0330908  33.4554202 148.5431442 106.3264474  33.1836791
 149.6487613 106.6171353  34.1761466 152.1167166 102.2510525  30.9719623
 152.6349110 102.9871552  30.6466111 151.7622299 102.5574518  31.8066382
 152.3679760  98.6710808  26.4920519 152.6481514  98.0033997  27.1180946
 153.1530367  98.8639903  25.9795183 156.2388619 107.0928442  30.2392094
 157.1906041 107.1926539  30.2604318 156.0692069 106.3006710  30.7490179
 154.2602998 104.1784025  30.4251495 153.6652930 104.4589037  29.7297984
 153.9752695 104.6677926  31.1968236 150.4398720 113.2348360  36.8562255
 151.3601729 113.4126959  37.0502302 150.4048303 112.2904406  36.7041954
 139.6580885 108.4286954  25.7815530 139.3383669 107.5752262  25.4889904
 139.1114313 108.6435532  26.5373497 143.4360792 111.1449395  29.4985036
 143.6546802 112.0766503  29.5173070 143.8486566 110.7857369  30.2839840
 148.3088658 106.7182601  38.8887785 148.2085384 107.6676958  38.8199876
 148.0910200 106.3900840  38.0163855 139.5269145 112.0489865  27.7508651
 138.8332616 111.6343818  27.2378606 140.2742136 112.0910402  27.1542070
 148.1719928 110.1479740  37.7052847 147.6887009 110.9480100  37.9116736
 148.2580867 110.1587684  36.7520291 144.0993265 114.0384274  29.7421281
 145.0536519 114.0068217  29.6751212 143.9005789 113.5774898  30.5571506
 144.6892647 112.6085390  32.3092078 145.5085536 113.1029469  32.3326915
 144.9629455 111.6917358  32.2809646 139.9427561 106.9423524  33.0084275
 140.5886425 106.4322478  33.4971500 139.7344713 107.6792206  33.5827701
 152.4680954 114.0104372  38.5076416 153.3372113 114.1845024  38.1463051
 151.9887705 114.8298789  38.3852145 152.2783291  97.8006345  23.0154108
 151.5115687  97.2464832  23.1610791 152.6893996  97.8728214  23.8768260
 144.2825052 104.0891141  37.1059290 145.1456514 103.7327946  37.3162614
 143.7090463 103.7505036  37.7934694 156.8406553 117.4971858  38.0989261
 156.4473499 116.9438057  38.7736905 157.6572694 117.8082436  38.4895779
 155.1218807 119.4183059  37.1059290 155.9850269 119.0619864  37.3162614
 154.5484218 119.0796954  37.7934694  96.3820393  11.8565894  20.5314727
  96.3709034  11.4618692  19.6595231  96.5441032  11.1231967  21.1248499
  93.1027654  14.6403006  19.4793911  92.8117520  15.5448637  19.3640578
  93.7384638  14.6819533  20.1937981  98.0617539  14.3264421  16.4743705
  97.7618262  15.2289460  16.3659512  97.7168599  14.0596605  17.3264858
  95.5355549   8.2636607  22.0976040  94.7588883   8.8230527  22.0878904
  96.1746112   8.7493390  22.6190910  93.7901921  11.0722060  21.6594007
  94.5316605  11.6107104  21.3828830  93.0838907  11.6988349  21.8165558
  99.2657261  13.2151201  20.2566168  99.6740617  12.7733611  19.5120800
  98.5434522  12.6403828  20.5100361  95.6188331   8.1523808  17.6299725
  96.4649526   8.5763221  17.7734374  95.5586968   7.4957432  18.3238288
  99.5886075  13.7752392  14.0118457  98.9594938  13.9398106  13.3094525
  99.2011737  14.1894001  14.7829421 103.4675307  14.7106829  11.3662821
 102.7826345  15.0905731  10.8159854 103.5519157  15.3202156  12.0994769
  98.7687776   5.8128176  19.2880899  98.5248708   6.5670237  18.7515174
  99.0447707   6.1913524  20.1228146 100.7226239  12.3566788  17.9658164
 100.9343134  12.9998548  17.2892545 100.6755987  11.5229105  17.4980094
  92.5263285   8.2261709  22.4609317  91.8961945   8.9077989  22.6944713
  92.4199373   8.1144790  21.5162455 101.8372067  15.2338744  16.1380522
 102.6589511  14.8318931  15.8563203 101.8334470  15.1306978  17.0896637
  95.6028670  14.7822787  18.2941232  95.6673103  15.2443194  19.1299404
  94.8939594  14.1520152  18.4223542  91.8044028   2.5282474  24.8234568
  91.4110973   1.9748673  25.4982212  92.6210168   2.8393053  25.2141085
  94.7211989   3.9440354  22.4154824  95.4621702   4.5447507  22.3359287
  94.9529911   3.2017991  21.8572867  89.8653327   9.1296721  20.6933054
  89.7506842   8.2281978  20.9940153  89.0097844   9.3760418  20.3417870
  96.9445164  17.0714461  22.2920555  96.5009018  16.2850840  21.9741459
  97.6062378  17.2593612  21.6264445  91.7032285  18.6010263  16.8181233
  92.2539711  18.4727326  16.0458227  90.8643761  18.9005152  16.4676126
  99.0426402  17.3517261  20.3201956  99.0244878  18.1726142  19.8282225
  99.9646322  17.2271336  20.5452097  95.4999457  14.8661391  21.1625464
  96.0327793  14.1049679  20.9324772  94.9713538  14.5735042  21.9049619
 101.8445015  12.1896404  13.7911322 101.1868690  12.8795665  13.8791451
 102.6485414  12.5792835  14.1345309  99.8645210  17.3623274  10.9044225
 100.1568184  17.9228331  10.1856591 100.3743830  17.6551835  11.6597384
  98.2744468   8.6087693  18.8918307  98.6293856   8.8359166  19.7512773
  98.9216600   8.9406070  18.2695563 104.0311585  13.7982656  14.6078908
 104.4648092  13.7057945  15.4561962 104.7443166  13.7740156  13.9698924
  97.7639480  17.3984750  16.1412009  97.8176502  17.9675686  16.9089724
  96.8954261  17.5686635  15.7766046 104.8927135  13.8406357  17.1411793
 105.0863025  14.7452167  17.3871068 104.7927753  13.3813776  17.9750378
  96.5463445   3.7264247  19.6402121  95.8991360   4.4254197  19.5466597
  97.3164461   4.1600391  20.0078369  99.9542243  13.9913099  22.7152674
  99.8027750  13.7623651  21.7982758  99.9446923  14.9483701  22.7284019
  96.7227580  11.5645012  17.6998940  97.6519640  11.7156172  17.5267908
  96.3018610  11.6529033  16.8447587  95.5215911  15.5895676  15.4697478
  95.3826997  15.2214461  16.3423416  94.7330508  16.1043316  15.2981436
  91.0465371  10.3744909  18.3838897  90.9085169   9.6425148  18.9850436
  91.9570294  10.2853809  18.1023085  93.6747671  10.0864868  17.8722577
  94.3847290   9.4458061  17.8309195  93.6316979  10.3377763  18.7948757
 101.6634450  17.0232222  20.7929156 101.6046996  16.3391442  20.1259739
 102.0653968  17.7651212  20.3409782  90.6825149  23.8394136  13.5862875
  90.9221747  24.4712660  14.2641893  89.8394345  23.4882176  13.8728234
 101.6651857  14.9871806  19.0243136 100.7778636  14.6497728  19.1469534
 102.2350408  14.2554837  19.2611901  95.1953011  19.6473258  15.9904379
  95.1223182  20.4528230  16.5023683  94.7530404  19.8465224  15.1652400
 106.1469198  10.3980023  13.7859697 106.1359074  11.2804739  13.4153630
 105.2786577  10.0451574  13.5914234  97.6551694  19.5460092  18.1462537
  98.3679666  20.1807557  18.0738439  97.1641723  19.6423958  17.3302539
  92.7063608  17.2954536  18.9668108  93.4073067  17.9291019  19.1197502
  92.2358723  17.6369267  18.2063747 100.5064894   9.8499143  16.7920659
  99.8536344  10.0975051  16.1373111 100.8845274   9.0363281  16.4583136
  97.4672067  19.8858836  10.8948829  97.6494462  19.0680492  11.3576581
  98.2905053  20.1026528  10.4573719  96.5552467  10.5918954  23.2786696
  95.8793104  10.4913083  23.9489071  97.3780101  10.4358168  23.7422693
  88.3031326  16.8290891  15.8999211  88.8884763  16.0834579  16.0327115
  88.1056164  17.1394847  16.7835875  95.2975250  21.8985882  17.5144312
  95.8493558  22.0617503  18.2793397  95.6381443  22.4890319  16.8424336
  89.7492015   6.3184164  21.7639231  90.3764054   5.9361241  22.3776755
  88.8919934   6.0998366  22.1294923 100.1486124  16.7247139  23.3692966
 100.6926028  17.3377097  22.8747921  99.5672969  17.2826717  23.8859979
  98.4343637  19.8467857  14.5007994  98.3094776  19.0457597  13.9918939
  99.0922728  20.3414050  14.0121964 100.4978545  17.6476877  16.1287544
  99.5508881  17.5282228  16.0565871 100.8461318  16.7599375  16.2113805
  97.5024978  17.4429593  12.3291896  97.3549941  16.5146301  12.5099466
  98.3278472  17.4649684  11.8448971 101.1059100  18.2658152  13.4156769
 102.0305648  18.0601013  13.2781220 100.9374404  18.0174553  14.3246110
  95.4441061  19.4644363  19.5292966  95.7528187  19.2193510  20.4015666
  96.2416543  19.6691002  19.0411836  95.4661673  21.6182273  11.7598343
  95.0266663  21.1258651  12.4531199  96.2169790  21.0755240  11.5190418
  92.9860073   5.6402070  23.4253150  93.0348228   6.5164193  23.0430920
  93.5282587   5.0979463  22.8524793 103.4714918  16.1843193  22.7054287
 102.6810462  16.1667332  22.1658787 103.2348273  16.7231487  23.4603324
 103.5912793  13.0335660  20.0187016 103.6410798  12.8685667  20.9602539
 103.4826717  12.1662919  19.6284897 100.8816556   9.0166588  21.3346323
 101.7826418   8.8773052  21.0430320 100.9564530   9.1821042  22.2744500
  95.2159361   6.3933442  20.1799509  94.3462670   6.6867008  19.9082097
  95.4518841   6.9773887  20.9006773 105.0930990  15.4532601  20.2629037
 104.8015798  15.8162582  21.0992498 104.4803121  14.7399609  20.0842369
 106.2926672  13.0185481  12.7831608 107.1273564  13.4575285  12.9469168
 106.4285801  12.5424134  11.9639853 103.3418178  10.5765216  18.7309095
 103.8172300  10.7692862  17.9227947 102.4183744  10.6324402  18.4852479
 102.0419847   7.4530976  16.9637401 102.9937270   7.5529073  16.9849625
 101.8723298   6.6609244  17.4735485 104.5207925  10.6737095  16.0779701
 104.4884245   9.7353096  16.2639384 105.1308549  10.7521132  15.3445526
 104.6702414   7.4648139  16.1237984 104.1541462   6.6806596  15.9367913
 105.5542362   7.1366856  16.2884503 110.3384475  11.7353102  15.2185737
 111.0687863  11.4738390  15.7793441 109.7291420  10.9981824  15.2587805
 108.4199772   9.8760965  15.8160189 107.6932936   9.7416930  15.2076680
 108.0047059  10.1837793  16.6216907  96.2429948  13.5950895  23.5807562
  97.1632958  13.7729494  23.7747608  96.2079532  12.6506940  23.4287261
  94.1119886   7.0785135  25.6133092  94.0116613   8.0279492  25.5445183
  93.8941428   6.7503374  24.7409162  93.9751156  10.5082274  24.4298153
  93.4918238  11.3082634  24.6362042  94.0612095  10.5190219  23.4765597
  89.9024494  14.3986809  16.4666587  90.8567747  14.3670751  16.3996519
  89.7037017  13.9377432  17.2816813  90.4923876  12.9687925  19.0337385
  91.3116765  13.4632003  19.0572222  90.7660684  12.0519893  19.0054952
  91.4143849  20.8375745  13.6955228  91.2976233  21.7821178  13.5933918
  90.5936295  20.5349307  14.0841027  98.2712182  14.3706906  25.2321722
  99.1403342  14.5447558  24.8708357  97.7918934  15.1901323  25.1097452
  92.4398363  21.4904007  16.9111156  93.3425609  21.5227617  17.2277651
  92.2135733  20.5604458  16.9257492  94.1951965  20.2434993  13.5721235
  93.2447596  20.2436855  13.4585607  94.4984451  19.4967728  13.0557269
  90.0856281   4.4493676  23.8304596  90.9487743   4.0930480  24.0407921
  89.5121692   4.1107570  24.5180000 109.9304658  26.0795532  14.6366997
 110.5683068  25.9602279  13.9330337 109.8125501  27.0276376  14.6954949
 106.7394364  26.0322960  14.5728522 106.4012876  25.9164025  13.6849057
 107.6084133  25.6314125  14.5529528 102.5981180  27.8858436  10.5625413
 102.0346045  27.7948373   9.7941701 102.4833575  27.0658341  11.0427905
 107.2214147  27.1857812  20.5314727 107.2102788  26.7910610  19.6595231
 107.3834787  26.4523884  21.1248499 100.1445612  29.3809628  13.4009633
 100.9366904  29.0400453  12.9855933 100.3842262  29.4904603  14.3211787
 108.1780739  31.5529404   5.8739878 107.5268719  32.1383484   5.4873891
 108.9725102  32.0835599   5.9334915 102.1036366  28.6418541   6.2727012
 102.8767242  28.0947528   6.1339888 102.4561765  29.5062791   6.4841473
 103.9421409  29.9694923  19.4793911 103.6511275  30.8740554  19.3640578
 104.5778393  30.0111451  20.1937981 104.8677615  27.3471772  16.0695271
 105.4641188  27.1227794  15.3552234 104.9252587  26.6056517  16.6720719
 109.4845927  23.8046986  11.7120205 110.2709016  23.3866409  11.3610622
 109.7484631  24.7093078  11.8801854 109.6556004  29.2419836   6.4108862
 109.0201837  29.3154463   7.1229767 109.3253410  29.8313435   5.7327941
 114.8854354  23.7422219  12.6153184 115.6179526  23.1721436  12.8491013
 114.1293710  23.3543819  13.0559689 104.1598933  26.7039313   6.1069837
 104.0435191  26.0284217   6.7750921 104.2701192  26.2171687   5.2901990
 106.5030474  26.1649460   9.8116526 106.1388681  25.6380081  10.5229448
 107.3597589  25.7747929   9.6383012 112.4079774  17.4543793  17.0747792
 112.0763099  18.3239204  16.8509007 111.8125388  17.1380077  17.7541823
 108.9011294  29.6556339  16.4743705 108.6012017  30.5581378  16.3659512
 108.5562353  29.3888522  17.3264858 102.3523775  26.1070136  12.5080409
 101.4274272  25.9746350  12.7158101 102.6008188  26.8864355  13.0050352
 112.3008437  22.1738879  14.1541142 111.3925315  22.1054288  13.8599903
 112.2496033  22.6510824  14.9822968 106.1225181  23.6497018   5.7924541
 106.0024807  24.0954068   6.6310022 105.4277770  23.9982335   5.2338080
  99.7132586  25.7503409  13.3424199  99.8424967  26.0037888  14.2563610
  99.0330038  26.3431117  13.0228854 103.8832073  36.4200659   9.4414673
 103.8056103  37.3708484   9.5203153 103.2793717  36.0746532  10.0989599
 106.3749303  23.5928525  22.0976040 105.5982637  24.1522445  22.0878904
 107.0139866  24.0785308  22.6190910 114.1670084  20.3755318  15.9319016
 113.5244464  20.6687851  15.2858811 113.6625012  20.2608238  16.7372213
 104.6295676  26.4013978  21.6594007 105.3710360  26.9399022  21.3828830
 103.9232661  27.0280267  21.8165558 110.1051015  28.5443119  20.2566168
 110.5134371  28.1025529  19.5120800 109.3828277  27.9695746  20.5100361
 106.4582085  23.4815725  17.6299725 107.3043280  23.9055139  17.7734374
 106.3980723  22.8249350  18.3238288 110.4279830  29.1044309  14.0118457
 109.7988692  29.2690023  13.3094525 110.0405492  29.5185919  14.7829421
 114.3069062  30.0398747  11.3662821 113.6220100  30.4197648  10.8159854
 114.3912911  30.6494074  12.0994769 109.6081531  21.1420094  19.2880899
 109.3642462  21.8962154  18.7515174 109.8841461  21.5205441  20.1228146
 111.5619993  27.6858706  17.9658164 111.7736889  28.3290466  17.2892545
 111.5149742  26.8521023  17.4980094 109.1646222  20.2976527  14.8694736
 108.3030701  20.5957780  15.1611474 109.1908657  20.5146926  13.9375769
 105.9807792  28.8418717  11.2768542 106.4446137  29.1206420  10.4873165
 105.7164590  27.9402162  11.0941633 102.8731873  28.3890199  14.2148305
 103.4433230  28.8177467  13.5765790 103.4639985  28.1072784  14.9132491
 104.9176678  24.9641870   8.0858107 105.6200721  25.4162913   8.5532034
 104.5857306  24.3225689   8.7138000 103.3657039  23.5553626  22.4609317
 102.7355700  24.2369907  22.6944713 103.2593127  23.4436708  21.5162455
  98.6602012  23.2225422  13.3875241  97.8701066  23.4782951  12.9115351
  99.1513259  24.0373760  13.4927281 112.6765821  30.5630662  16.1380522
 113.4983265  30.1610849  15.8563203 112.6728224  30.4598896  17.0896637
 100.6116757  23.5870002  10.3458717  99.8147920  23.6988696  10.8642213
 100.3842349  23.9256654   9.4799608 106.4422425  30.1114705  18.2941232
 106.5066857  30.5735112  19.1299404 105.7333349  29.4812070  18.4223542
  96.9439715  23.4755913  15.8190232  97.1947753  24.3602923  16.0847808
  97.4799263  23.2960514  15.0465323 106.1570442  31.7782812   8.1620212
 106.0216117  32.6234348   8.5905060 106.6980255  31.9802090   7.3986146
 102.6437782  17.8574392  24.8234568 102.2504728  17.3040591  25.4982212
 103.4603922  18.1684971  25.2141085  99.6099840  29.2958250   8.7348138
 100.1224360  30.0901501   8.8853702 100.2622553  28.5984541   8.6681739
 101.4194725  32.4124007  10.8170891 101.5961353  33.3341971  10.6291875
 102.2151558  32.0982426  11.2465271 105.5605743  19.2732271  22.4154824
 106.3015456  19.8739424  22.3359287 105.7923666  18.5309909  21.8572867
 100.7047081  24.4588639  20.6933054 100.5900596  23.5573896  20.9940153
  99.8491599  24.7052335  20.3417870 107.7838919  32.4006379  22.2920555
 107.3402773  31.6142757  21.9741459 108.4456132  32.5885529  21.6264445
 102.5426040  33.9302180  16.8181233 103.0933465  33.8019244  16.0458227
 101.7037516  34.2297069  16.4676126 109.8820157  32.6809179  20.3201956
 109.8638632  33.5018060  19.8282225 110.8040077  32.5563254  20.5452097
 106.3393211  30.1953308  21.1625464 106.8721548  29.4341596  20.9324772
 105.8107292  29.9026960  21.9049619 109.5062906  15.3013374  16.6919106
 109.1627175  16.1915016  16.6158217 109.8741869  15.1115032  15.8288691
  97.5748757  27.6246905   9.5107708  98.4123979  28.0343913   9.2941416
  97.7527024  26.6846347   9.4807902 107.0560300  20.1371686  10.2576779
 106.2001896  19.7478536  10.0782418 107.4687251  20.2163647   9.3976565
 108.5859446  17.6718029  14.6568339 108.0824242  17.6348165  13.8436144
 108.8790053  18.5810772  14.7164996 104.8302332  17.7556759  13.6634521
 105.6955329  17.5599568  13.3040410 104.8979841  17.5267111  14.5903878
 107.7045924  29.3239301   8.6744276 107.1767285  28.5892060   8.3617514
 107.2033426  30.1013977   8.4284245 112.6838770  27.5188321  13.7911322
 112.0262444  28.2087583  13.8791451 113.4879169  27.9084753  14.1345309
 102.4364651  19.9858967  11.0350888 103.0108403  19.7634148  10.3024081
 103.0235634  20.0547662  11.7879489 111.4944229  25.8732694  11.8415264
 112.0076110  26.5062686  12.3436974 112.1445452  25.2733889  11.4758624
 104.7387319  16.8600216   9.7625957 104.0851731  16.5449233   9.1382572
 104.6967793  16.2375956  10.4885780 108.7566603  35.8517018   4.5975935
 108.0828302  36.1548715   5.2060893 109.1432425  36.6546099   4.2481392
 107.9725059  23.3482149  14.0873605 107.0547621  23.5697096  13.9295293
 108.3885203  23.4228460  13.2285312 108.7560107  24.7473565   9.2176285
 109.5031926  25.2594962   8.9083407 109.0251697  24.4257618  10.0780679
 107.0286757  27.2432106   6.2003239 106.1197977  26.9591139   6.2975709
 107.0581841  27.6631184   5.3406546 112.2606025  30.8538695   9.9694407
 111.8068352  30.0129605  10.0259597 111.6299991  31.4900094  10.3069187
 111.2038944  21.7830681  11.1995074 110.4661701  21.2708068  11.5305317
 111.4565718  21.3431063  10.3878351 110.7038964  32.6915192  10.9044225
 110.9961938  33.2520249  10.1856591 111.2137585  32.9843753  11.6597384
  97.5974928  24.9637620  10.1818442  97.3999328  24.3706981   9.4569508
  97.0421592  24.6589830  10.8994380 105.5771651  24.8560726  12.3013035
 105.6320261  23.9034563  12.2255511 104.7662853  25.0120166  12.7854333
 106.7262845  28.7840850   3.5391318 106.2882275  28.0676708   3.0796955
 107.4673286  29.0116964   2.9776409 103.5164011  23.4737786  10.0603414
 102.7031877  23.7731957  10.4668606 104.0123005  23.0793475  10.7777896
 105.6672589  33.4695543  11.9937678 105.6248768  33.6956389  11.0646210
 106.5835288  33.2358918  12.1423479 109.1138223  23.9379611  18.8918307
 109.4687611  24.1651084  19.7512773 109.7610354  24.2697987  18.2695563
 103.0078086  21.0456142  15.6764648 103.6477465  20.9044901  14.9787612
 102.1755617  20.7590655  15.3003250 114.8705340  29.1274574  14.6078908
 115.3041846  29.0349863  15.4561962 115.5836920  29.1032074  13.9698924
 103.7838390  30.3458572  11.7899641 104.5778988  29.8508892  11.5882216
 103.0730082  29.8176435  11.4267347 108.6033234  32.7276668  16.1412009
 108.6570257  33.2967604  16.9089724 107.7348016  32.8978553  15.7766046
 100.0921153  24.4901654   7.8659394  99.1618742  24.4286109   8.0829356
 100.1878625  23.9677607   7.0696035 100.0106702  21.0156467  10.4537635
 100.2713520  21.9301800  10.3446796 100.8323875  20.5480909  10.6034248
 101.4831628  22.4294224  17.6236460 102.1554681  22.2211586  16.9749109
 100.6561414  22.2316310  17.1841692 115.7320889  29.1698274  17.1411793
 115.9256779  30.0744085  17.3871068 115.6321507  28.7105693  17.9750378
 107.3857200  19.0556165  19.6402121 106.7385115  19.7546114  19.5466597
 108.1558215  19.4892309  20.0078369 110.7935998  29.3205017  22.7152674
 110.6421504  29.0915569  21.7982758 110.7840677  30.2775618  22.7284019
 107.5621334  26.8936930  17.6998940 108.4913394  27.0448089  17.5267908
 107.1412364  26.9820950  16.8447587 106.3609666  30.9187594  15.4697478
 106.2220752  30.5506379  16.3423416 105.5724262  31.4335234  15.2981436
 106.9557818  36.0196691   6.8123015 107.1309574  35.5484734   7.6268637
 106.2690606  36.6462457   7.0404275 107.9114881  30.2969197  12.8586316
 107.5764714  30.2569967  13.7543966 107.4118827  29.6313913  12.3856726
 101.8859125  25.7036827  18.3838897 101.7478923  24.9717066  18.9850436
 102.7964049  25.6145727  18.1023085 104.5141426  25.4156786  17.8722577
 105.2241044  24.7749978  17.8309195 104.4710734  25.6669681  18.7948757
 112.5028204  32.3524140  20.7929156 112.4440751  31.6683360  20.1259739
 112.9047723  33.0943130  20.3409782 103.2270360  22.4022004  19.6918216
 102.6907717  21.9512743  20.3439812 102.6387068  22.5367913  18.9488680
 101.5218903  39.1686053  13.5862875 101.7615501  39.8004578  14.2641893
 100.6788100  38.8174093  13.8728234 112.5045612  30.3163723  19.0243136
 111.6172390  29.9789645  19.1469534 113.0744163  29.5846755  19.2611901
  94.1574759  26.6487815  12.3486187  94.8445799  26.3349545  11.7607202
  94.0022887  27.5529180  12.0753438  98.9609481  21.5378012  16.7771211
  98.8767670  20.9303681  16.0421621  98.1392187  22.0287030  16.7780707
 106.0346765  34.9765176  15.9904379 105.9616937  35.7820147  16.5023683
 105.5924158  35.1757142  15.1652400 105.8236545  34.2136946   9.5007200
 105.0404067  34.7558626   9.5945425 106.5229290  34.7310925   9.9001441
 109.1333195  20.0231575  12.1441406 109.6301894  19.2701538  11.8242476
 108.3620176  20.0595892  11.5784615 116.9862952  25.7271941  13.7859697
 116.9752828  26.6096656  13.4153630 116.1180332  25.3743492  13.5914234
 108.4945449  34.8752010  18.1462537 109.2073421  35.5099475  18.0738439
 108.0035477  34.9715876  17.3302539 110.2162976  28.7803263   9.7179829
 109.2819254  28.9004725   9.5484533 110.3939644  27.8775729   9.4539839
 105.7168164  22.1648958  11.8713090 105.3465951  21.6119999  12.5593996
 106.2127256  21.5607092  11.3188090 113.6035527  24.6220582  10.2529863
 114.0695979  25.4548573  10.1790166 114.0543027  24.1565563  10.9575122
 103.5457362  32.6246453  18.9668108 104.2466822  33.2582936  19.1197502
 103.0752477  32.9661185  18.2063747 111.6711758  30.9664403   7.2516015
 111.9471602  30.8520998   8.1609889 110.8016257  30.5681888   7.2128188
 111.5752190  16.9901169  14.2920765 110.6615269  17.2205396  14.4602971
 112.0045291  17.0739613  15.1434797 111.3458648  25.1791061  16.7920659
 110.6930098  25.4266968  16.1373111 111.7239028  24.3655199  16.4583136
 108.3065822  35.2150754  10.8948829 108.4888217  34.3972410  11.3576581
 109.1298808  35.4318446  10.4573719 108.6407987  34.1418939   8.1563877
 109.1695754  33.6311394   7.5434039 108.9036207  33.8261469   9.0209410
 107.3946221  25.9210872  23.2786696 106.7186858  25.8205001  23.9489071
 108.2173855  25.7650086  23.7422693  99.1425080  32.1582808  15.8999211
  99.7278517  31.4126496  16.0327115  98.9449919  32.4686765  16.7835875
 101.9963735  35.1934056  10.9161653 101.3274111  35.6780183  10.4325693
 101.8576605  35.4403276  11.8305032  93.7342735  24.7288409  14.6203654
  93.7726834  24.1951999  15.4140772  93.2283028  24.2023614  14.0014631
 106.1369004  37.2277799  17.5144312 106.6887312  37.3909421  18.2793397
 106.4775197  37.8182237  16.8424336 101.1133497  19.5752949  18.1166196
 101.1774824  20.4367780  17.7043594 101.0500617  18.9626951  17.3838555
 100.5885770  21.6476082  21.7639231 101.2157809  21.2653159  22.3776755
  99.7313689  21.4290284  22.1294923 110.9879878  32.0539057  23.3692966
 111.5319782  32.6669015  22.8747921 110.4066723  32.6118635  23.8859979
 109.2737391  35.1759775  14.5007994 109.1488531  34.3749515  13.9918939
 109.9316482  35.6705968  14.0121964 100.8945560  21.5308507  13.6785134
 100.1732145  22.1444475  13.5392607 101.6838815  22.0666272  13.6001780
 111.3372300  32.9768795  16.1287544 110.3902635  32.8574146  16.0565871
 111.6855073  32.0891293  16.2113805 103.6971873  18.8662934  19.9525786
 104.2206275  19.1125230  20.7152095 103.4784206  19.6982969  19.5328923
 108.3418733  32.7721511  12.3291896 108.1943695  31.8438218  12.5099466
 109.1672226  32.7941602  11.8448971 102.2080977  21.4239578   8.1872388
 102.5477050  21.9525499   7.4650997 102.6553098  21.7619984   8.9630955
 111.9452855  33.5950070  13.4156769 112.8699402  33.3892931  13.2781220
 111.7768158  33.3466471  14.3246110 104.9024418  19.8076629  17.6375456
 104.5621238  19.0084442  18.0396136 104.1963424  20.1078340  17.0652289
 105.5540890  16.8925941  16.0902779 106.3766959  16.4186420  15.9681670
 105.7978953  17.6716425  16.5901466 103.0779469  23.5845062  13.8994758
 102.9324049  23.8985365  14.7919039 102.6004672  24.2029962  13.3465657
 104.9375852  20.5747610  13.9475647 104.9237420  19.6788703  13.6107945
 105.6548280  20.5818274  14.5813934 106.7901982  21.0084950  15.9928775
 106.5319760  21.9302021  15.9913105 106.2587023  20.6115385  16.6829239
 111.7348171  34.1135737   8.7718860 111.9085049  33.5482160   8.0192713
 112.2277062  34.9136632   8.5898350  97.5525131  26.1250406  16.8382419
  97.0078599  26.9010214  16.9702693  98.4304481  26.4721211  16.6801541
 104.3412747  19.4561990   9.2163218 104.4628659  18.5278636   9.4154105
 104.0514790  19.4700676   8.3041533 107.2103938  17.1416901  12.3529937
 107.2325635  17.2056234  11.3981917 107.6271997  16.3021409  12.5470444
 112.7223343  33.4302502   5.8715759 113.4174248  34.0509194   6.0903073
 113.0646494  32.5797853   6.1468136  98.3391153  25.2520303  19.7312576
  97.5972889  25.4002938  20.3177206  98.0183897  25.5128568  18.8679325
 106.2834815  34.7936281  19.5292966 106.5921942  34.5485428  20.4015666
 107.0810297  34.9982919  19.0411836 106.3055427  36.9474190  11.7598343
 105.8660418  36.4550569  12.4531199 107.0563544  36.4047158  11.5190418
  98.7847766  33.1385731  11.7622971  99.6105786  32.8389503  11.3821614
  98.4341818  32.3693354  12.2112759 103.7529300  32.4912200  13.8320644
 103.1309309  31.8282905  13.5322872 104.4234166  32.5173331  13.1494292
  96.9856371  31.0572058  12.7211904  96.1488280  30.6294232  12.5395905
  96.9580017  31.2504501  13.6582695 103.8253827  20.9693988  23.4253150
 103.8741982  21.8456110  23.0430920 104.3676341  20.4271381  22.8524793
 114.3108673  31.5135111  22.7054287 113.5204216  31.4959250  22.1658787
 114.0742027  32.0523405  23.4603324 114.4306548  28.3627577  20.0187016
 114.4804553  28.1977585  20.9602539 114.3220471  27.4954836  19.6284897
 103.3142806  31.0416123   7.3079105 103.4630927  31.7251587   6.6545777
 104.1209250  31.0221213   7.8228560 111.7210310  24.3458505  21.3346323
 112.6220173  24.2064970  21.0430320 111.7958285  24.5112960  22.2744500
 106.0553115  21.7225360  20.1799509 105.1856425  22.0158926  19.9082097
 106.2912596  22.3065805  20.9006773 115.9324745  30.7824519  20.2629037
 115.6409553  31.1454499  21.0992498 115.3196876  30.0691527  20.0842369
 117.1320427  28.3477399  12.7831608 117.9667318  28.7867203  12.9469168
 117.2679556  27.8716052  11.9639853 114.1811933  25.9057133  18.7309095
 114.6566054  26.0984780  17.9227947 113.2577498  25.9616319  18.4852479
 101.0695439  27.0681301   8.3140174 100.8241481  26.1643631   8.5120384
 101.2391354  27.0698451   7.3719652 108.7592149  17.9404977  17.6964929
 109.2774093  18.6766004  17.3711418 108.4047282  18.2468970  18.5311688
 109.0104743  14.3605259  13.2165826 109.2906497  13.6928449  13.8426252
 109.7955350  14.5534355  12.7040490 106.8138212  33.5364253   4.7790852
 106.2412179  34.1554440   4.3261324 107.3871006  34.0863615   5.3130774
 112.8813602  22.7822893  16.9637401 113.8331025  22.8820991  16.9849625
 112.7117052  21.9901162  17.4735485 110.9027981  19.8678477  17.1496802
 110.3077913  20.1483489  16.4543291 110.6177678  20.3572378  17.9213543
 110.0335472  33.8201403   5.9099434 110.9666145  33.7546965   6.1132310
 109.9458685  34.6557670   5.4513967 115.3601680  26.0029013  16.0779701
 115.3278000  25.0645014  16.2639384 115.9702303  26.0813050  15.3445526
 115.5096168  22.7940057  16.1237984 114.9935217  22.0098513  15.9367913
 116.3936117  22.4658773  16.2884503 121.1778229  27.0645020  15.2185737
 121.9081618  26.8030308  15.7793441 120.5685175  26.3273742  15.2587805
 119.2593527  25.2052883  15.8160189 118.5326690  25.0708847  15.2076680
 118.8440813  25.5129711  16.6216907 107.0823703  28.9242812  23.5807562
 108.0026712  29.1021411  23.7747608 107.0473286  27.9798858  23.4287261
  96.3005868  24.1181406  12.5060836  95.9808652  23.2646714  12.2135210
  95.7539296  24.3329984  13.2618804 100.0785776  26.8343847  16.2230343
 100.2971785  27.7660955  16.2418377 100.4911549  26.4751821  17.0085147
 104.9513641  22.4077053  25.6133092 104.8510368  23.3571410  25.5445183
 104.7335183  22.0795292  24.7409162  96.1694128  27.7384317  14.4753958
  95.4757599  27.3238270  13.9623912  96.9167119  27.7804854  13.8787377
 104.8144911  25.8374191  24.4298153 104.3311993  26.6374552  24.6362042
 104.9005850  25.8482136  23.4765597  98.0830871  27.6702571  12.3519973
  98.0601559  27.7690258  11.4001856  98.3931507  28.5167722  12.6737139
 100.7418248  29.7278726  16.4666587 101.6961502  29.6962669  16.3996519
 100.5430772  29.2669350  17.2816813 101.3317631  28.2979842  19.0337385
 102.1510520  28.7923921  19.0572222 101.6054438  27.3811810  19.0054952
  99.0968477  35.2698346  13.4836785  98.9622945  34.5098747  12.9174783
  98.6800539  35.9939246  13.0165574 111.0625250  26.2045130   8.6115631
 111.0060452  26.6613682   7.7723263 111.6153593  25.4435815   8.4338473
 102.2537603  36.1667663  13.6955228 102.1369987  37.1113095  13.5933918
 101.4330049  35.8641224  14.0841027  96.5852545  22.6317976  19.7329582
  97.2311408  22.1216930  20.2216807  96.3769696  23.3686658  20.3073007
 109.1105937  29.6998824  25.2321722 109.9797097  29.8739476  24.8708357
 108.6312688  30.5193240  25.1097452 103.2792117  36.8195925  16.9111156
 104.1819364  36.8519535  17.2277651 103.0529487  35.8896376  16.9257492
 105.0345719  35.5726911  13.5721235 104.0841350  35.5728773  13.4585607
 105.3378205  34.8259646  13.0557269 100.9250036  19.7785593  23.8304596
 101.7881497  19.4222398  24.0407921 100.3515446  19.4399488  24.5180000
 120.7698413  41.4087450  14.6366997 121.4076823  41.2894197  13.9330337
 120.6519256  42.3568293  14.6954949 117.5788119  41.3614878  14.5728522
 117.2406630  41.2455942  13.6849057 118.4477887  40.9606043  14.5529528
 113.4374935  43.2150354  10.5625413 112.8739800  43.1240291   9.7941701
 113.3227330  42.3950259  11.0427905 118.0607902  42.5149729  20.5314727
 118.0496543  42.1202528  19.6595231 118.2228541  41.7815802  21.1248499
 110.9839367  44.7101546  13.4009633 111.7760659  44.3692370  12.9855933
 111.2236017  44.8196521  14.3211787 119.0174493  46.8821322   5.8739878
 118.3662473  47.4675402   5.4873891 119.8118856  47.4127517   5.9334915
 112.9430121  43.9710459   6.2727012 113.7160997  43.4239446   6.1339888
 113.2955519  44.8354708   6.4841473 114.7815163  45.2986841  19.4793911
 114.4905029  46.2032472  19.3640578 115.4172147  45.3403369  20.1937981
 115.7071370  42.6763690  16.0695271 116.3034942  42.4519712  15.3552234
 115.7646341  41.9348435  16.6720719 115.2796398  40.1303125   3.9045462
 115.5321919  39.6084646   3.1428925 114.3420957  39.9669270   4.0072146
 120.3239681  39.1338903  11.7120205 121.1102770  38.7158327  11.3610622
 120.5878385  40.0384996  11.8801854 120.4949759  44.5711754   6.4108862
 119.8595592  44.6446380   7.1229767 120.1647165  45.1605353   5.7327941
 125.7248108  39.0714137  12.6153184 126.4573280  38.5013353  12.8491013
 124.9687464  38.6835737  13.0559689 114.9992687  42.0331231   6.1069837
 114.8828945  41.3576134   6.7750921 115.1094947  41.5463605   5.2901990
 117.3424228  41.4941378   9.8116526 116.9782435  40.9671999  10.5229448
 118.1991344  41.1039847   9.6383012 123.2473529  32.7835711  17.0747792
 122.9156853  33.6531122  16.8509007 122.6519142  32.4671995  17.7541823
 119.7405048  44.9848257  16.4743705 119.4405771  45.8873295  16.3659512
 119.3956108  44.7180440  17.3264858 113.1917530  41.4362054  12.5080409
 112.2668026  41.3038268  12.7158101 113.4401943  42.2156273  13.0050352
 123.1402192  37.5030797  14.1541142 122.2319069  37.4346205  13.8599903
 123.0889788  37.9802742  14.9822968 116.9618936  38.9788935   5.7924541
 116.8418561  39.4245986   6.6310022 116.2671524  39.3274253   5.2338080
 110.5526341  41.0795327  13.3424199 110.6818722  41.3329806  14.2563610
 109.8723792  41.6723035  13.0228854 114.7225828  51.7492577   9.4414673
 114.6449858  52.7000402   9.5203153 114.1187472  51.4038450  10.0989599
 117.2143058  38.9220442  22.0976040 116.4376392  39.4814363  22.0878904
 117.8533621  39.4077225  22.6190910 125.0063838  35.7047235  15.9319016
 124.3638219  35.9979768  15.2858811 124.5018767  35.5900156  16.7372213
 115.4689430  41.7305896  21.6594007 116.2104114  42.2690940  21.3828830
 114.7626416  42.3572185  21.8165558 120.9444770  43.8735036  20.2566168
 121.3528126  43.4317447  19.5120800 120.2222031  43.2987664  20.5100361
 117.2975840  38.8107643  17.6299725 118.1437035  39.2347057  17.7734374
 117.2374477  38.1541267  18.3238288 121.2673584  44.4336227  14.0118457
 120.6382447  44.5981941  13.3094525 120.8799246  44.8477836  14.7829421
 125.1462816  45.3690665  11.3662821 124.4613854  45.7489566  10.8159854
 125.2306666  45.9785991  12.0994769 120.4475285  36.4712011  19.2880899
 120.2036217  37.2254072  18.7515174 120.7235216  36.8497359  20.1228146
 122.4013748  43.0150624  17.9658164 122.6130643  43.6582384  17.2892545
 122.3543496  42.1812940  17.4980094 120.0039977  35.6268444  14.8694736
 119.1424456  35.9249698  15.1611474 120.0302411  35.8438843  13.9375769
 116.8201546  44.1710635  11.2768542 117.2839892  44.4498338  10.4873165
 116.5558344  43.2694080  11.0941633 113.7125627  43.7182117  14.2148305
 114.2826984  44.1469385  13.5765790 114.3033739  43.4364701  14.9132491
 115.7570432  40.2933787   8.0858107 116.4594476  40.7454831   8.5532034
 115.4251061  39.6517606   8.7138000 114.2050794  38.8845544  22.4609317
 113.5749454  39.5661825  22.6944713 114.0986882  38.7728626  21.5162455
 109.4995766  38.5517340  13.3875241 108.7094820  38.8074869  12.9115351
 109.9907014  39.3665678  13.4927281 123.5159576  45.8922579  16.1380522
 124.3377020  45.4902766  15.8563203 123.5121979  45.7890813  17.0896637
 111.4510512  38.9161919  10.3458717 110.6541675  39.0280614  10.8642213
 111.2236104  39.2548571   9.4799608 117.2816179  45.4406622  18.2941232
 117.3460612  45.9027030  19.1299404 116.5727103  44.8103987  18.4223542
 107.7833469  38.8047830  15.8190232 108.0341508  39.6894840  16.0847808
 108.3193018  38.6252432  15.0465323 116.9964197  47.1074730   8.1620212
 116.8609872  47.9526266   8.5905060 117.5374009  47.3094008   7.3986146
 113.4831537  33.1866310  24.8234568 113.0898482  32.6332508  25.4982212
 114.2997677  33.4976888  25.2141085 110.4493594  44.6250168   8.7348138
 110.9618115  45.4193418   8.8853702 111.1016307  43.9276458   8.6681739
 112.2588479  47.7415924  10.8170891 112.4355107  48.6633889  10.6291875
 113.0545313  47.4274344  11.2465271 116.3999498  34.6024189  22.4154824
 117.1409211  35.2031342  22.3359287 116.6317420  33.8601827  21.8572867
 111.5440836  39.7880556  20.6933054 111.4294351  38.8865813  20.9940153
 110.6885353  40.0344253  20.3417870 118.6232673  47.7298296  22.2920555
 118.1796527  46.9434675  21.9741459 119.2849887  47.9177447  21.6264445
 113.3819794  49.2594098  16.8181233 113.9327220  49.1311161  16.0458227
 112.5431270  49.5588987  16.4676126 120.7213911  48.0101096  20.3201956
 120.7032387  48.8309977  19.8282225 121.6433831  47.8855172  20.5452097
 117.1786966  45.5245226  21.1625464 117.7115302  44.7633514  20.9324772
 116.6501047  45.2318878  21.9049619 120.3456660  30.6305292  16.6919106
 120.0020930  31.5206934  16.6158217 120.7135623  30.4406950  15.8288691
 108.4142511  42.9538822   9.5107708 109.2517733  43.3635831   9.2941416
 108.5920779  42.0138264   9.4807902 117.8954054  35.4663604  10.2576779
 117.0395651  35.0770454  10.0782418 118.3081006  35.5455565   9.3976565
 119.4253201  33.0009947  14.6568339 118.9217996  32.9640082  13.8436144
 119.7183808  33.9102690  14.7164996 115.6696087  33.0848677  13.6634521
 116.5349084  32.8891485  13.3040410 115.7373596  32.8559029  14.5903878
 118.5439678  44.6531218   8.6744276 118.0161040  43.9183978   8.3617514
 118.0427181  45.4305895   8.4284245 123.5232524  42.8480239  13.7911322
 122.8656199  43.5379500  13.8791451 124.3272923  43.2376671  14.1345309
 113.2758406  35.3150885  11.0350888 113.8502158  35.0926066  10.3024081
 113.8629388  35.3839579  11.7879489 122.3337983  41.2024612  11.8415264
 122.8469865  41.8354603  12.3436974 122.9839207  40.6025807  11.4758624
 113.6027993  37.3455346   5.0546773 112.7665305  37.6830032   5.3756048
 113.4632763  37.2104325   4.1173910 115.5781074  32.1892134   9.7625957
 114.9245486  31.8741151   9.1382572 115.5361548  31.5667874  10.4885780
 119.5960357  51.1808936   4.5975935 118.9222056  51.4840633   5.2060893
 119.9826179  51.9838016   4.2481392 118.8118814  38.6774067  14.0873605
 117.8941375  38.8989014  13.9295293 119.2278958  38.7520378  13.2285312
 119.5953862  40.0765483   9.2176285 120.3425681  40.5886880   8.9083407
 119.8645451  39.7549536  10.0780679 117.8680512  42.5724024   6.2003239
 116.9591731  42.2883056   6.2975709 117.8975596  42.9923102   5.3406546
 123.0999779  46.1830613   9.9694407 122.6462106  45.3421523  10.0259597
 122.4693746  46.8192011  10.3069187 122.0432699  37.1122599  11.1995074
 121.3055456  36.5999985  11.5305317 122.2959472  36.6722981  10.3878351
 121.5432718  48.0207110  10.9044225 121.8355693  48.5812167  10.1856591
 122.0531339  48.3135671  11.6597384 108.4368682  40.2929538  10.1818442
 108.2393082  39.6998898   9.4569508 107.8815346  39.9881748  10.8994380
 116.4165406  40.1852644  12.3013035 116.4714016  39.2326481  12.2255511
 115.6056608  40.3412083  12.7854333 117.5656600  44.1132767   3.5391318
 117.1276030  43.3968626   3.0796955 118.3067040  44.3408882   2.9776409
 114.3557766  38.8029704  10.0603414 113.5425631  39.1023874  10.4668606
 114.8516760  38.4085393  10.7777896 116.5066344  48.7987461  11.9937678
 116.4642522  49.0248307  11.0646210 117.4229043  48.5650835  12.1423479
 119.9531977  39.2671528  18.8918307 120.3081365  39.4943001  19.7512773
 120.6004109  39.5989905  18.2695563 113.8471841  36.3748059  15.6764648
 114.4871220  36.2336818  14.9787612 113.0149371  36.0882573  15.3003250
 125.7099094  44.4566491  14.6078908 126.1435601  44.3641780  15.4561962
 126.4230675  44.4323992  13.9698924 114.6232144  45.6750490  11.7899641
 115.4172743  45.1800810  11.5882216 113.9123837  45.1468353  11.4267347
 119.4426989  48.0568585  16.1412009 119.4964011  48.6259522  16.9089724
 118.5741770  48.2270470  15.7766046 110.9314908  39.8193572   7.8659394
 110.0012496  39.7578027   8.0829356 111.0272380  39.2969524   7.0696035
 110.8500457  36.3448384  10.4537635 111.1107274  37.2593718  10.3446796
 111.6717629  35.8772827  10.6034248 112.3225382  37.7586142  17.6236460
 112.9948436  37.5503504  16.9749109 111.4955169  37.5608228  17.1841692
 126.5714644  44.4990192  17.1411793 126.7650534  45.4036002  17.3871068
 126.4715262  44.0397611  17.9750378 118.2250954  34.3848082  19.6402121
 117.5778869  35.0838032  19.5466597 118.9951970  34.8184226  20.0078369
 121.6329752  44.6496935  22.7152674 121.4815259  44.4207486  21.7982758
 121.6234432  45.6067536  22.7284019 118.4015089  42.2228847  17.6998940
 119.3307149  42.3740007  17.5267908 117.9806119  42.3112868  16.8447587
 117.2003420  46.2479512  15.4697478 117.0614506  45.8798296  16.3423416
 116.4118017  46.7627151  15.2981436 117.7951572  51.3488608   6.8123015
 117.9703328  50.8776651   7.6268637 117.1084360  51.9754374   7.0404275
 118.7508636  45.6261114  12.8586316 118.4158468  45.5861884  13.7543966
 118.2512581  44.9605830  12.3856726 112.7252880  41.0328745  18.3838897
 112.5872677  40.3008983  18.9850436 113.6357803  40.9437645  18.1023085
 115.3535180  40.7448704  17.8722577 116.0634799  40.1041896  17.8309195
 115.3104488  40.9961599  18.7948757 123.3421959  47.6816057  20.7929156
 123.2834505  46.9975277  20.1259739 123.7441477  48.4235047  20.3409782
 114.0664114  37.7313922  19.6918216 113.5301471  37.2804660  20.3439812
 113.4780823  37.8659831  18.9488680 112.3612658  54.4977971  13.5862875
 112.6009256  55.1296495  14.2641893 111.5181854  54.1466011  13.8728234
 123.3439366  45.6455641  19.0243136 122.4566145  45.3081563  19.1469534
 123.9137917  44.9138672  19.2611901 104.9968513  41.9779733  12.3486187
 105.6839553  41.6641463  11.7607202 104.8416642  42.8821098  12.0753438
 109.8003235  36.8669929  16.7771211 109.7161424  36.2595599  16.0421621
 108.9785942  37.3578948  16.7780707 116.8740520  50.3057093  15.9904379
 116.8010691  51.1112065  16.5023683 116.4317913  50.5049059  15.1652400
 116.6630299  49.5428864   9.5007200 115.8797821  50.0850544   9.5945425
 117.3623044  50.0602843   9.9001441 119.9726949  35.3523493  12.1441406
 120.4695649  34.5993455  11.8242476 119.2013931  35.3887810  11.5784615
 127.8256707  41.0563858  13.7859697 127.8146583  41.9388574  13.4153630
 126.9574086  40.7035409  13.5914234 119.3339203  50.2043928  18.1462537
 120.0467175  50.8391392  18.0738439 118.8429232  50.3007793  17.3302539
 121.0556730  44.1095180   9.7179829 120.1213009  44.2296643   9.5484533
 121.2333398  43.2067647   9.4539839 116.5561918  37.4940876  11.8713090
 116.1859706  36.9411916  12.5593996 117.0521011  36.8899009  11.3188090
 124.4429281  39.9512499  10.2529863 124.9089734  40.7840491  10.1790166
 124.8936782  39.4857481  10.9575122 114.3851117  47.9538371  18.9668108
 115.0860576  48.5874854  19.1197502 113.9146232  48.2953103  18.2063747
 122.5105512  46.2956321   7.2516015 122.7865356  46.1812915   8.1609889
 121.6410011  45.8973806   7.2128188 122.4145944  32.3193086  14.2920765
 121.5009024  32.5497313  14.4602971 122.8439046  32.4031531  15.1434797
 122.1852403  40.5082978  16.7920659 121.5323853  40.7558886  16.1373111
 122.5632782  39.6947117  16.4583136 119.1459576  50.5442672  10.8948829
 119.3281971  49.7264328  11.3576581 119.9692562  50.7610364  10.4573719
 119.4801742  49.4710857   8.1563877 120.0089508  48.9603311   7.5434039
 119.7429962  49.1553387   9.0209410 118.2339976  41.2502789  23.2786696
 117.5580613  41.1496919  23.9489071 119.0567609  41.0942003  23.7422693
 109.9818835  47.4874726  15.8999211 110.5672271  46.7418414  16.0327115
 109.7843673  47.7978683  16.7835875 112.8357490  50.5225973  10.9161653
 112.1667865  51.0072101  10.4325693 112.6970360  50.7695194  11.8305032
 104.5736489  40.0580326  14.6203654 104.6120589  39.5243917  15.4140772
 104.0676782  39.5315532  14.0014631 116.9762758  52.5569717  17.5144312
 117.5281067  52.7201338  18.2793397 117.3168952  53.1474155  16.8424336
 111.9527252  34.9044867  18.1166196 112.0168578  35.7659698  17.7043594
 111.8894372  34.2918868  17.3838555 111.4279524  36.9767999  21.7639231
 112.0551563  36.5945077  22.3776755 110.5707443  36.7582201  22.1294923
 121.8273633  47.3830974  23.3692966 122.3713537  47.9960933  22.8747921
 121.2460478  47.9410553  23.8859979 108.2045067  38.7844428   7.6957585
 108.4998508  37.8755107   7.6424639 107.3033103  38.7632168   7.3738588
 120.1131146  50.5051692  14.5007994 119.9882285  49.7041432  13.9918939
 120.7710237  50.9997886  14.0121964 111.7339314  36.8600425  13.6785134
 111.0125900  37.4736393  13.5392607 112.5232570  37.3958190  13.6001780
 122.1766054  48.3060713  16.1287544 121.2296390  48.1866064  16.0565871
 122.5248827  47.4183211  16.2113805 114.5365628  34.1954851  19.9525786
 115.0600029  34.4417148  20.7152095 114.3177961  35.0274886  19.5328923
 109.9332909  36.4658526   7.8196911 109.6045615  35.5855905   7.6372016
 110.2872279  36.4106195   8.7073300 119.1812487  48.1013429  12.3291896
 119.0337450  47.1730136  12.5099466 120.0065981  48.1233519  11.8448971
 113.0474732  36.7531496   8.1872388 113.3870804  37.2817417   7.4650997
 113.4946852  37.0911902   8.9630955 122.7846609  48.9241987  13.4156769
 123.7093157  48.7184849  13.2781220 122.6161913  48.6758389  14.3246110
 115.7418173  35.1368547  17.6375456 115.4014993  34.3376360  18.0396136
 115.0357179  35.4370257  17.0652289 116.3934644  32.2217859  16.0902779
 117.2160714  31.7478337  15.9681670 116.6372708  33.0008343  16.5901466
 115.0342879  35.2506117   6.3865681 115.7551241  35.6287370   5.8829398
 114.4108183  35.9694994   6.4900659 113.9173223  38.9136980  13.8994758
 113.7717804  39.2277283  14.7919039 113.4398427  39.5321880  13.3465657
 115.7769606  35.9039528  13.9475647 115.7631175  35.0080621  13.6107945
 116.4942034  35.9110191  14.5813934 117.6295737  36.3376868  15.9928775
 117.3713515  37.2593938  15.9913105 117.0980777  35.9407302  16.6829239
 122.5741926  49.4427655   8.7718860 122.7478803  48.8774077   8.0192713
 123.0670817  50.2428550   8.5898350 108.3918885  41.4542324  16.8382419
 107.8472353  42.2302132  16.9702693 109.2698235  41.8013128  16.6801541
 115.1806502  34.7853908   9.2163218 115.3022413  33.8570554   9.4154105
 114.8908544  34.7992594   8.3041533 118.0497692  32.4708818  12.3529937
 118.0719389  32.5348151  11.3981917 118.4665751  31.6313327  12.5470444
 123.5617098  48.7594419   5.8715759 124.2568003  49.3801112   6.0903073
 123.9040248  47.9089771   6.1468136 109.1784907  40.5812220  19.7312576
 108.4366643  40.7294856  20.3177206 108.8577651  40.8420486  18.8679325
 117.1228570  50.1228199  19.5292966 117.4315696  49.8777345  20.4015666
 117.9204052  50.3274837  19.0411836 117.1449182  52.2766108  11.7598343
 116.7054172  51.7842487  12.4531199 117.8957299  51.7339076  11.5190418
 109.6241521  48.4677649  11.7622971 110.4499541  48.1681421  11.3821614
 109.2735573  47.6985271  12.2112759 114.5923054  47.8204117  13.8320644
 113.9703063  47.1574822  13.5322872 115.2627921  47.8465249  13.1494292
 107.8250126  46.3863975  12.7211904 106.9882034  45.9586150  12.5395905
 107.7973771  46.5796419  13.6582695 114.6647582  36.2985905  23.4253150
 114.7135737  37.1748028  23.0430920 115.2070096  35.7563298  22.8524793
 125.1502427  46.8427029  22.7054287 124.3597971  46.8251167  22.1658787
 124.9135782  47.3815322  23.4603324 125.2700302  43.6919495  20.0187016
 125.3198307  43.5269502  20.9602539 125.1614226  42.8246754  19.6284897
 114.1536561  46.3708041   7.3079105 114.3024681  47.0543505   6.6545777
 114.9603004  46.3513131   7.8228560 122.5604065  39.6750423  21.3346323
 123.4613927  39.5356888  21.0430320 122.6352039  39.8404878  22.2744500
 116.8946870  37.0517278  20.1799509 116.0250179  37.3450844  19.9082097
 117.1306350  37.6357723  20.9006773 126.7718499  46.1116436  20.2629037
 126.4803307  46.4746417  21.0992498 126.1590630  45.3983445  20.0842369
 127.9714181  43.6769316  12.7831608 128.8061073  44.1159120  12.9469168
 128.1073310  43.2007969  11.9639853 125.0205687  41.2349051  18.7309095
 125.4959809  41.4276697  17.9227947 124.0971253  41.2908237  18.4852479
 111.9089194  42.3973218   8.3140174 111.6635236  41.4935548   8.5120384
 112.0785108  42.3990369   7.3719652 119.5985904  33.2696895  17.6964929
 120.1167848  34.0057922  17.3711418 119.2441037  33.5760888  18.5311688
 111.1784841  38.1301576   5.8126335 110.4854086  38.2045931   5.1566371
 110.9336593  37.3661919   6.3347852 119.8498498  29.6897177  13.2165826
 120.1300252  29.0220366  13.8426252 120.6349105  29.8826273  12.7040490
 117.6531966  48.8656171   4.7790852 117.0805934  49.4846358   4.3261324
 118.2264760  49.4155533   5.3130774 123.7207356  38.1114811  16.9637401
 124.6724779  38.2112909  16.9849625 123.5510807  37.3193080  17.4735485
 121.7421736  35.1970394  17.1496802 121.1471668  35.4775407  16.4543291
 121.4571432  35.6864295  17.9213543 120.8729226  49.1493321   5.9099434
 121.8059899  49.0838883   6.1132310 120.7852439  49.9849588   5.4513967
 126.1995434  41.3320931  16.0779701 126.1671754  40.3936932  16.2639384
 126.8096058  41.4104968  15.3445526 126.3489923  38.1231974  16.1237984
 125.8328971  37.3390431  15.9367913 127.2329871  37.7950691  16.2884503
 132.0171984  42.3936938  15.2185737 132.7475372  42.1322226  15.7793441
 131.4078929  41.6565660  15.2587805 130.0987281  40.5344800  15.8160189
 129.3720445  40.4000765  15.2076680 129.6834568  40.8421629  16.6216907
 117.9217457  44.2534730  23.5807562 118.8420467  44.4313329  23.7747608
 117.8867041  43.3090775  23.4287261 107.1399622  39.4473324  12.5060836
 106.8202407  38.5938632  12.2135210 106.5933051  39.6621902  13.2618804
 110.9179530  42.1635765  16.2230343 111.1365540  43.0952872  16.2418377
 111.3305304  41.8043739  17.0085147 115.7907395  37.7368970  25.6133092
 115.6904122  38.6863327  25.5445183 115.5728937  37.4087209  24.7409162
 107.0087882  43.0676235  14.4753958 106.3151354  42.6530188  13.9623912
 107.7560873  43.1096772  13.8787377 115.6538665  41.1666109  24.4298153
 115.1705747  41.9666469  24.6362042 115.7399604  41.1774054  23.4765597
 108.9224625  42.9994489  12.3519973 108.8995313  43.0982176  11.4001856
 109.2325261  43.8459640  12.6737139 111.5812003  45.0570644  16.4666587
 112.5355256  45.0254586  16.3996519 111.3824526  44.5961268  17.2816813
 112.1711385  43.6271760  19.0337385 112.9904274  44.1215839  19.0572222
 112.4448193  42.7103728  19.0054952 109.9362232  50.5990263  13.4836785
 109.8016700  49.8390664  12.9174783 109.5194294  51.3231163  13.0165574
 121.9019005  41.5337048   8.6115631 121.8454206  41.9905600   7.7723263
 122.4547347  40.7727733   8.4338473 113.0931358  51.4959580  13.6955228
 112.9763742  52.4405013  13.5933918 112.2723804  51.1933142  14.0841027
 107.4246299  37.9609894  19.7329582 108.0705163  37.4508848  20.2216807
 107.2163450  38.6978575  20.3073007 119.9499691  45.0290741  25.2321722
 120.8190851  45.2031394  24.8708357 119.4706443  45.8485158  25.1097452
 114.1185872  52.1487842  16.9111156 115.0213118  52.1811453  17.2277651
 113.8923242  51.2188293  16.9257492 115.8739474  50.9018829  13.5721235
 114.9235105  50.9020690  13.4585607 116.1771960  50.1551563  13.0557269
 111.7643790  35.1077511  23.8304596 112.6275252  34.7514316  24.0407921
 111.1909201  34.7691406  24.5180000 131.6092167  56.7379367  14.6366997
 132.2470577  56.6186115  13.9330337 131.4913010  57.6860211  14.6954949
 128.4181873  56.6906795  14.5728522 128.0800385  56.5747860  13.6849057
 129.2871642  56.2897960  14.5529528 124.2768689  58.5442272  10.5625413
 123.7133554  58.4532209   9.7941701 124.1621084  57.7242176  11.0427905
 128.9001656  57.8441647  20.5314727 128.8890297  57.4494445  19.6595231
 129.0622296  57.1107720  21.1248499 121.8233121  60.0393463  13.4009633
 122.6154413  59.6984288  12.9855933 122.0629771  60.1488438  14.3211787
 129.8568248  62.2113239   5.8739878 129.2056228  62.7967320   5.4873891
 130.6512611  62.7419434   5.9334915 123.7823875  59.3002377   6.2727012
 124.5554751  58.7531364   6.1339888 124.1349274  60.1646626   6.4841473
 125.6208918  60.6278759  19.4793911 125.3298784  61.5324390  19.3640578
 126.2565902  60.6695286  20.1937981 126.5465124  58.0055607  16.0695271
 127.1428697  57.7811630  15.3552234 126.6040096  57.2640353  16.6720719
 126.1190153  55.4595043   3.9045462 126.3715674  54.9376564   3.1428925
 125.1814712  55.2961188   4.0072146 131.1633436  54.4630821  11.7120205
 131.9496525  54.0450244  11.3610622 131.4272140  55.3676913  11.8801854
 131.3343513  59.9003671   6.4108862 130.6989346  59.9738298   7.1229767
 131.0040919  60.4897270   5.7327941 136.5641863  54.4006054  12.6153184
 137.2967035  53.8305271  12.8491013 135.8081218  54.0127655  13.0559689
 125.8386442  57.3623149   6.1069837 125.7222700  56.6868052   6.7750921
 125.9488701  56.8755523   5.2901990 128.1817983  56.8233296   9.8116526
 127.8176190  56.2963917  10.5229448 129.0385098  56.4331765   9.6383012
 134.0867283  48.1127628  17.0747792 133.7550608  48.9823039  16.8509007
 133.4912897  47.7963912  17.7541823 130.5798803  60.3140174  16.4743705
 130.2799526  61.2165213  16.3659512 130.2349862  60.0472358  17.3264858
 124.0311284  56.7653971  12.5080409 123.1061781  56.6330185  12.7158101
 124.2795697  57.5448190  13.0050352 133.9795946  52.8322715  14.1541142
 133.0712824  52.7638123  13.8599903 133.9283542  53.3094659  14.9822968
 127.8012690  54.3080853   5.7924541 127.6812316  54.7537904   6.6310022
 127.1065279  54.6566171   5.2338080 121.3920095  56.4087245  13.3424199
 121.5212476  56.6621724  14.2563610 120.7117546  57.0014953  13.0228854
 125.5619582  67.0784495   9.4414673 125.4843612  68.0292320   9.5203153
 124.9581226  66.7330367  10.0989599 128.0536812  54.2512360  22.0976040
 127.2770146  54.8106280  22.0878904 128.6927375  54.7369143  22.6190910
 135.8457593  51.0339153  15.9319016 135.2031973  51.3271686  15.2858811
 135.3412521  50.9192073  16.7372213 126.3083185  57.0597813  21.6594007
 127.0497869  57.5982857  21.3828830 125.6020170  57.6864102  21.8165558
 131.7838524  59.2026954  20.2566168 132.1921880  58.7609364  19.5120800
 131.0615786  58.6279581  20.5100361 128.1369594  54.1399561  17.6299725
 128.9830789  54.5638974  17.7734374 128.0768232  53.4833185  18.3238288
 132.1067339  59.7628145  14.0118457 131.4776201  59.9273859  13.3094525
 131.7193001  60.1769754  14.7829421 135.9856571  60.6982582  11.3662821
 135.3007609  61.0781484  10.8159854 136.0700420  61.3077909  12.0994769
 131.2869040  51.8003929  19.2880899 131.0429971  52.5545990  18.7515174
 131.5628970  52.1789277  20.1228146 133.2407502  58.3442541  17.9658164
 133.4524398  58.9874301  17.2892545 133.1937251  57.5104858  17.4980094
 130.8433731  50.9560362  14.8694736 129.9818210  51.2541616  15.1611474
 130.8696166  51.1730761  13.9375769 127.6595301  59.5002553  11.2768542
 128.1233646  59.7790256  10.4873165 127.3952099  58.5985997  11.0941633
 124.5519382  59.0474034  14.2148305 125.1220739  59.4761303  13.5765790
 125.1427494  58.7656619  14.9132491 126.5964187  55.6225705   8.0858107
 127.2988230  56.0746749   8.5532034 126.2644815  54.9809524   8.7138000
 125.0444548  54.2137462  22.4609317 124.4143209  54.8953743  22.6944713
 124.9380636  54.1020543  21.5162455 120.3389521  53.8809258  13.3875241
 119.5488575  54.1366786  12.9115351 120.8300768  54.6957596  13.4927281
 134.3553330  61.2214497  16.1380522 135.1770774  60.8194684  15.8563203
 134.3515733  61.1182731  17.0896637 122.2904266  54.2453837  10.3458717
 121.4935429  54.3572531  10.8642213 122.0629858  54.5840489   9.4799608
 128.1209934  60.7698540  18.2941232 128.1854366  61.2318947  19.1299404
 127.4120858  60.1395905  18.4223542 118.6227224  54.1339748  15.8190232
 118.8735262  55.0186758  16.0847808 119.1586772  53.9544350  15.0465323
 127.8357951  62.4366648   8.1620212 127.7003626  63.2818183   8.5905060
 128.3767764  62.6385925   7.3986146 124.3225291  48.5158228  24.8234568
 123.9292237  47.9624426  25.4982212 125.1391431  48.8268806  25.2141085
 121.2887349  59.9542086   8.7348138 121.8011869  60.7485336   8.8853702
 121.9410062  59.2568376   8.6681739 123.0982233  63.0707842  10.8170891
 123.2748862  63.9925807  10.6291875 123.8939067  62.7566261  11.2465271
 127.2393252  49.9316107  22.4154824 127.9802965  50.5323260  22.3359287
 127.4711175  49.1893744  21.8572867 122.3834590  55.1172474  20.6933054
 122.2688105  54.2157731  20.9940153 121.5279108  55.3636171  20.3417870
 129.4626428  63.0590214  22.2920555 129.0190282  62.2726593  21.9741459
 130.1243641  63.2469365  21.6264445 124.2213549  64.5886016  16.8181233
 124.7720974  64.4603079  16.0458227 123.3825025  64.8880905  16.4676126
 131.5607666  63.3393014  20.3201956 131.5426141  64.1601895  19.8282225
 132.4827586  63.2147089  20.5452097 128.0180720  60.8537144  21.1625464
 128.5509057  60.0925432  20.9324772 127.4894801  60.5610795  21.9049619
 131.1850415  45.9597210  16.6919106 130.8414684  46.8498851  16.6158217
 131.5529378  45.7698867  15.8288691 119.2536266  58.2830740   9.5107708
 120.0911488  58.6927748   9.2941416 119.4314533  57.3430182   9.4807902
 128.7347809  50.7955521  10.2576779 127.8789405  50.4062372  10.0782418
 129.1474760  50.8747482   9.3976565 130.2646955  48.3301865  14.6568339
 129.7611751  48.2932000  13.8436144 130.5577562  49.2394607  14.7164996
 126.5089841  48.4140594  13.6634521 127.3742838  48.2183403  13.3040410
 126.5767350  48.1850946  14.5903878 129.3833433  59.9823136   8.6744276
 128.8554794  59.2475896   8.3617514 128.8820935  60.7597812   8.4284245
 134.3626279  58.1772157  13.7911322 133.7049953  58.8671418  13.8791451
 135.1666678  58.5668588  14.1345309 124.1152160  50.6442802  11.0350888
 124.6895912  50.4217984  10.3024081 124.7023143  50.7131497  11.7879489
 133.1731738  56.5316529  11.8415264 133.6863619  57.1646521  12.3436974
 133.8232961  55.9317725  11.4758624 124.4421747  52.6747263   5.0546773
 123.6059060  53.0121950   5.3756048 124.3026517  52.5396243   4.1173910
 126.4174828  47.5184051   9.7625957 125.7639240  47.2033068   9.1382572
 126.3755302  46.8959792  10.4885780 130.4354112  66.5100854   4.5975935
 129.7615811  66.8132550   5.2060893 130.8219934  67.3129934   4.2481392
 129.6512568  54.0065985  14.0873605 128.7335130  54.2280932  13.9295293
 130.0672712  54.0812295  13.2285312 130.4347616  55.4057400   9.2176285
 131.1819435  55.9178798   8.9083407 130.7039206  55.0841453  10.0780679
 128.7074266  57.9015941   6.2003239 127.7985486  57.6174974   6.2975709
 128.7369350  58.3215020   5.3406546 133.9393534  61.5122531   9.9694407
 133.4855861  60.6713441  10.0259597 133.3087500  62.1483929  10.3069187
 132.8826453  52.4414517  11.1995074 132.1449210  51.9291903  11.5305317
 133.1353227  52.0014898  10.3878351 132.3826473  63.3499027  10.9044225
 132.6749447  63.9104084  10.1856591 132.8925094  63.6427588  11.6597384
 119.2762437  55.6221455  10.1818442 119.0786837  55.0290816   9.4569508
 118.7209101  55.3173666  10.8994380 127.2559160  55.5144562  12.3013035
 127.3107770  54.5618398  12.2255511 126.4450362  55.6704001  12.7854333
 128.4050354  59.4424685   3.5391318 127.9669784  58.7260544   3.0796955
 129.1460795  59.6700800   2.9776409 125.1951520  54.1321622  10.0603414
 124.3819386  54.4315792  10.4668606 125.6910514  53.7377310  10.7777896
 127.3460098  64.1279378  11.9937678 127.3036277  64.3540225  11.0646210
 128.2622797  63.8942753  12.1423479 130.7925732  54.5963446  18.8918307
 131.1475120  54.8234919  19.7512773 131.4397863  54.9281823  18.2695563
 124.6865595  51.7039977  15.6764648 125.3264974  51.5628736  14.9787612
 123.8543126  51.4174490  15.3003250 136.5492849  59.7858409  14.6078908
 136.9829355  59.6933698  15.4561962 137.2624429  59.7615909  13.9698924
 125.4625899  61.0042407  11.7899641 126.2566497  60.5092728  11.5882216
 124.7517591  60.4760271  11.4267347 130.2820743  63.3860503  16.1412009
 130.3357766  63.9551439  16.9089724 129.4135525  63.5562388  15.7766046
 121.7708662  55.1485489   7.8659394 120.8406251  55.0869945   8.0829356
 121.8666134  54.6261442   7.0696035 121.6894211  51.6740302  10.4537635
 121.9501029  52.5885635  10.3446796 122.5111384  51.2064745  10.6034248
 123.1619137  53.0878059  17.6236460 123.8342190  52.8795421  16.9749109
 122.3348923  52.8900145  17.1841692 137.4108398  59.8282110  17.1411793
 137.6044288  60.7327920  17.3871068 137.3109016  59.3689529  17.9750378
 129.0644709  49.7140000  19.6402121 128.4172624  50.4129950  19.5466597
 129.8345724  50.1476144  20.0078369 132.4723507  59.9788852  22.7152674
 132.3209013  59.7499404  21.7982758 132.4628186  60.9359454  22.7284019
 129.2408843  57.5520765  17.6998940 130.1700903  57.7031925  17.5267908
 128.8199873  57.6404786  16.8447587 128.0397175  61.5771429  15.4697478
 127.9008261  61.2090214  16.3423416 127.2511771  62.0919069  15.2981436
 128.6345327  66.6780526   6.8123015 128.8097083  66.2068569   7.6268637
 127.9478115  67.3046292   7.0404275 129.5902390  60.9553032  12.8586316
 129.2552223  60.9153802  13.7543966 129.0906336  60.2897748  12.3856726
 123.5646634  56.3620662  18.3838897 123.4266432  55.6300901  18.9850436
 124.4751558  56.2729562  18.1023085 126.1928935  56.0740622  17.8722577
 126.9028553  55.4333814  17.8309195 126.1498243  56.3253516  18.7948757
 134.1815713  63.0107975  20.7929156 134.1228260  62.3267195  20.1259739
 134.5835232  63.7526965  20.3409782 124.9057869  53.0605839  19.6918216
 124.3695226  52.6096578  20.3439812 124.3174577  53.1951748  18.9488680
 123.2006412  69.8269889  13.5862875 123.4403010  70.4588413  14.2641893
 122.3575609  69.4757929  13.8728234 134.1833121  60.9747559  19.0243136
 133.2959899  60.6373481  19.1469534 134.7531672  60.2430590  19.2611901
 115.8362268  57.3071651  12.3486187 116.5233308  56.9933381  11.7607202
 115.6810396  58.2113015  12.0753438 120.6396990  52.1961847  16.7771211
 120.5555179  51.5887517  16.0421621 119.8179696  52.6870865  16.7780707
 127.7134274  65.6349011  15.9904379 127.6404446  66.4403983  16.5023683
 127.2711667  65.8340977  15.1652400 127.5024054  64.8720781   9.5007200
 126.7191576  65.4142461   9.5945425 128.2016799  65.3894761   9.9001441
 130.8120704  50.6815411  12.1441406 131.3089403  49.9285373  11.8242476
 130.0407685  50.7179727  11.5784615 138.6650461  56.3855776  13.7859697
 138.6540337  57.2680492  13.4153630 137.7967841  56.0327327  13.5914234
 130.1732958  65.5335845  18.1462537 130.8860930  66.1683310  18.0738439
 129.6822986  65.6299711  17.3302539 131.8950484  59.4387098   9.7179829
 130.9606763  59.5588560   9.5484533 132.0727153  58.5359565   9.4539839
 127.3955673  52.8232794  11.8713090 127.0253460  52.2703834  12.5593996
 127.8914765  52.2190927  11.3188090 135.2823036  55.2804417  10.2529863
 135.7483488  56.1132409  10.1790166 135.7330536  54.8149399  10.9575122
 125.2244871  63.2830289  18.9668108 125.9254331  63.9166772  19.1197502
 124.7539986  63.6245020  18.2063747 133.3499267  61.6248238   7.2516015
 133.6259111  61.5104833   8.1609889 132.4803766  61.2265723   7.2128188
 133.2539699  47.6485004  14.2920765 132.3402778  47.8789231  14.4602971
 133.6832800  47.7323448  15.1434797 133.0246157  55.8374896  16.7920659
 132.3717607  56.0850804  16.1373111 133.4026537  55.0239034  16.4583136
 129.9853331  65.8734589  10.8948829 130.1675725  65.0556245  11.3576581
 130.8086317  66.0902282  10.4573719 130.3195496  64.8002774   8.1563877
 130.8483263  64.2895229   7.5434039 130.5823716  64.4845305   9.0209410
 129.0733730  56.5794707  23.2786696 128.3974367  56.4788836  23.9489071
 129.8961364  56.4233921  23.7422693 120.8212589  62.8166644  15.8999211
 121.4066026  62.0710332  16.0327115 120.6237428  63.1270600  16.7835875
 123.6751244  65.8517891  10.9161653 123.0061620  66.3364019  10.4325693
 123.5364114  66.0987112  11.8305032 115.4130244  55.3872244  14.6203654
 115.4514343  54.8535835  15.4140772 114.9070537  54.8607449  14.0014631
 127.8156513  67.8861635  17.5144312 128.3674821  68.0493256  18.2793397
 128.1562706  68.4766072  16.8424336 122.7921006  50.2336784  18.1166196
 122.8562333  51.0951615  17.7043594 122.7288126  49.6210786  17.3838555
 122.2673279  52.3059917  21.7639231 122.8945318  51.9236994  22.3776755
 121.4101198  52.0874119  22.1294923 132.6667387  62.7122892  23.3692966
 133.2107291  63.3252850  22.8747921 132.0854232  63.2702471  23.8859979
 119.0438821  54.1136346   7.6957585 119.3392263  53.2047024   7.6424639
 118.1426857  54.0924086   7.3738588 130.9524900  65.8343610  14.5007994
 130.8276040  65.0333350  13.9918939 131.6103991  66.3289803  14.0121964
 122.5733068  52.1892343  13.6785134 121.8519654  52.8028310  13.5392607
 123.3626324  52.7250107  13.6001780 133.0159809  63.6352630  16.1287544
 132.0690144  63.5157981  16.0565871 133.3642582  62.7475128  16.2113805
 125.3759382  49.5246769  19.9525786 125.8993784  49.7709066  20.7152095
 125.1571715  50.3566804  19.5328923 120.7726663  51.7950444   7.8196911
 120.4439369  50.9147823   7.6372016 121.1266034  51.7398112   8.7073300
 130.0206242  63.4305346  12.3291896 129.8731204  62.5022054  12.5099466
 130.8459735  63.4525437  11.8448971 123.8868486  52.0823414   8.1872388
 124.2264559  52.6109335   7.4650997 124.3340607  52.4203820   8.9630955
 133.6240364  64.2533905  13.4156769 134.5486911  64.0476767  13.2781220
 133.4555667  64.0050306  14.3246110 126.5811927  50.4660464  17.6375456
 126.2408747  49.6668277  18.0396136 125.8750933  50.7662175  17.0652289
 127.2328399  47.5509777  16.0902779 128.0554468  47.0770255  15.9681670
 127.4766462  48.3300260  16.5901466 125.8736633  50.5798035   6.3865681
 126.5944996  50.9579288   5.8829398 125.2501937  51.2986912   6.4900659
 124.7566978  54.2428897  13.8994758 124.6111558  54.5569200  14.7919039
 124.2792181  54.8613798  13.3465657 126.6163361  51.2331445  13.9475647
 126.6024929  50.3372539  13.6107945 127.3335789  51.2402109  14.5813934
 128.4689491  51.6668785  15.9928775 128.2107269  52.5885856  15.9913105
 127.9374532  51.2699220  16.6829239 133.4135680  64.7719573   8.7718860
 133.5872558  64.2065995   8.0192713 133.9064571  65.5720467   8.5898350
 119.2312640  56.7834242  16.8382419 118.6866108  57.5594050  16.9702693
 120.1091990  57.1305046  16.6801541 126.0200256  50.1145826   9.2163218
 126.1416168  49.1862472   9.4154105 125.7302299  50.1284512   8.3041533
 128.8891447  47.8000736  12.3529937 128.9113144  47.8640069  11.3981917
 129.3059506  46.9605245  12.5470444 134.4010852  64.0886337   5.8715759
 135.0961757  64.7093030   6.0903073 134.7434003  63.2381688   6.1468136
 120.0178662  55.9104138  19.7312576 119.2760398  56.0586773  20.3177206
 119.6971406  56.1712404  18.8679325 127.9622324  65.4520116  19.5292966
 128.2709451  65.2069263  20.4015666 128.7597806  65.6566755  19.0411836
 127.9842936  67.6058026  11.7598343 127.5447927  67.1134405  12.4531199
 128.7351053  67.0630993  11.5190418 120.4635275  63.7969567  11.7622971
 121.2893295  63.4973339  11.3821614 120.1129327  63.0277189  12.2112759
 125.4316809  63.1496035  13.8320644 124.8096818  62.4866740  13.5322872
 126.1021675  63.1757167  13.1494292 118.6643880  61.7155893  12.7211904
 117.8275789  61.2878068  12.5395905 118.6367526  61.9088336  13.6582695
 125.5041336  51.6277823  23.4253150 125.5529491  52.5039946  23.0430920
 126.0463850  51.0855216  22.8524793 135.9896182  62.1718946  22.7054287
 135.1991725  62.1543085  22.1658787 135.7529536  62.7107240  23.4603324
 136.1094057  59.0211413  20.0187016 136.1592062  58.8561420  20.9602539
 136.0007980  58.1538672  19.6284897 124.9930315  61.6999958   7.3079105
 125.1418436  62.3835423   6.6545777 125.7996759  61.6805048   7.8228560
 133.3997819  55.0042341  21.3346323 134.3007682  54.8648805  21.0430320
 133.4745794  55.1696795  22.2744500 127.7340624  52.3809195  20.1799509
 126.8643934  52.6742761  19.9082097 127.9700105  52.9649640  20.9006773
 137.6112254  61.4408354  20.2629037 137.3197062  61.8038335  21.0992498
 136.9984385  60.7275362  20.0842369 138.8107936  59.0061234  12.7831608
 139.6454827  59.4451038  12.9469168 138.9467065  58.5299887  11.9639853
 135.8599442  56.5640969  18.7309095 136.3353563  56.7568615  17.9227947
 134.9365007  56.6200155  18.4852479 122.7482948  57.7265136   8.3140174
 122.5028990  56.8227466   8.5120384 122.9178863  57.7282286   7.3719652
 130.4379658  48.5988812  17.6964929 130.9561602  49.3349839  17.3711418
 130.0834791  48.9052806  18.5311688 122.0178596  53.4593493   5.8126335
 121.3247841  53.5337848   5.1566371 121.7730348  52.6953837   6.3347852
 130.6892252  45.0189095  13.2165826 130.9694006  44.3512284  13.8426252
 131.4742859  45.2118190  12.7040490 128.4925721  64.1948089   4.7790852
 127.9199688  64.8138276   4.3261324 129.0658515  64.7447450   5.3130774
 134.5601111  53.4406729  16.9637401 135.5118534  53.5404826  16.9849625
 134.3904561  52.6484997  17.4735485 132.5815490  50.5262312  17.1496802
 131.9865422  50.8067325  16.4543291 132.2965187  51.0156213  17.9213543
 131.7122981  64.4785239   5.9099434 132.6453654  64.4130801   6.1132310
 131.6246194  65.3141506   5.4513967 137.0389189  56.6612848  16.0779701
 137.0065509  55.7228849  16.2639384 137.6489812  56.7396885  15.3445526
 137.1883677  53.4523892  16.1237984 136.6722726  52.6682349  15.9367913
 138.0723626  53.1242609  16.2884503 142.8565738  57.7228855  15.2185737
 143.5869127  57.4614143  15.7793441 142.2472684  56.9857577  15.2587805
 140.9381036  55.8636718  15.8160189 140.2114199  55.7292683  15.2076680
 140.5228322  56.1713547  16.6216907 128.7611212  59.5826648  23.5807562
 129.6814221  59.7605247  23.7747608 128.7260795  58.6382693  23.4287261
 117.9793377  54.7765241  12.5060836 117.6596161  53.9230549  12.2135210
 117.4326805  54.9913819  13.2618804 121.7573285  57.4927682  16.2230343
 121.9759294  58.4244790  16.2418377 122.1699058  57.1335657  17.0085147
 126.6301150  53.0660888  25.6133092 126.5297877  54.0155245  25.5445183
 126.4122692  52.7379127  24.7409162 117.8481637  58.3968153  14.4753958
 117.1545108  57.9822106  13.9623912 118.5954628  58.4388689  13.8787377
 126.4932420  56.4958027  24.4298153 126.0099502  57.2958387  24.6362042
 126.5793359  56.5065972  23.4765597 119.7618379  58.3286407  12.3519973
 119.7389068  58.4274094  11.4001856 120.0719016  59.1751557  12.6737139
 122.4205757  60.3862562  16.4666587 123.3749011  60.3546504  16.3996519
 122.2218281  59.9253185  17.2816813 123.0105139  58.9563678  19.0337385
 123.8298028  59.4507756  19.0572222 123.2841947  58.0395646  19.0054952
 120.7755986  65.9282181  13.4836785 120.6410454  65.1682582  12.9174783
 120.3588048  66.6523081  13.0165574 132.7412759  56.8628966   8.6115631
 132.6847961  57.3197517   7.7723263 133.2941102  56.1019650   8.4338473
 123.9325112  66.8251498  13.6955228 123.8157496  67.7696931  13.5933918
 123.1117558  66.5225060  14.0841027 118.2640054  53.2901811  19.7329582
 118.9098917  52.7800765  20.2216807 118.0557205  54.0270493  20.3073007
 130.7893446  60.3582659  25.2321722 131.6584606  60.5323311  24.8708357
 130.3100197  61.1777076  25.1097452 124.9579626  67.4779760  16.9111156
 125.8606873  67.5103370  17.2277651 124.7316996  66.5480211  16.9257492
 126.7133228  66.2310747  13.5721235 125.7628859  66.2312608  13.4585607
 127.0165714  65.4843481  13.0557269 122.6037545  50.4369429  23.8304596
 123.4669006  50.0806233  24.0407921 122.0302955  50.0983323  24.5180000
 142.4485922  72.0671285  14.6366997 143.0864332  71.9478032  13.9330337
 142.3306765  73.0152129  14.6954949 139.2575628  72.0198713  14.5728522
 138.9194139  71.9039778  13.6849057 140.1265396  71.6189878  14.5529528
 135.1162444  73.8734189  10.5625413 134.5527309  73.7824126   9.7941701
 135.0014839  73.0534094  11.0427905 139.7395411  73.1733565  20.5314727
 139.7284052  72.7786363  19.6595231 139.9016050  72.4399637  21.1248499
 132.6626876  75.3685381  13.4009633 133.4548167  75.0276206  12.9855933
 132.9023526  75.4780356  14.3211787 134.6217630  74.6294294   6.2727012
 135.3948506  74.0823281   6.1339888 134.9743028  75.4938544   6.4841473
 136.4602672  75.9570677  19.4793911 136.1692538  76.8616307  19.3640578
 137.0959656  75.9987204  20.1937981 137.3858879  73.3347525  16.0695271
 137.9822451  73.1103547  15.3552234 137.4433850  72.5932271  16.6720719
 136.9583907  70.7886960   3.9045462 137.2109428  70.2668482   3.1428925
 136.0208466  70.6253106   4.0072146 142.0027190  69.7922739  11.7120205
 142.7890279  69.3742162  11.3610622 142.2665894  70.6968831  11.8801854
 142.1737268  75.2295589   6.4108862 141.5383100  75.3030216   7.1229767
 141.8434674  75.8189188   5.7327941 147.4035617  69.7297972  12.6153184
 148.1360789  69.1597189  12.8491013 146.6474973  69.3419572  13.0559689
 136.6780196  72.6915066   6.1069837 136.5616454  72.0159970   6.7750921
 136.7882456  72.2047440   5.2901990 139.0211737  72.1525213   9.8116526
 138.6569944  71.6255834  10.5229448 139.8778853  71.7623682   9.6383012
 144.9261038  63.4419546  17.0747792 144.5944362  64.3114957  16.8509007
 144.3306651  63.1255830  17.7541823 141.4192557  75.6432092  16.4743705
 141.1193280  76.5457131  16.3659512 141.0743617  75.3764275  17.3264858
 134.8705039  72.0945889  12.5080409 133.9455535  71.9622103  12.7158101
 135.1189452  72.8740108  13.0050352 144.8189701  68.1614632  14.1541142
 143.9106578  68.0930041  13.8599903 144.7677297  68.6386577  14.9822968
 138.6406445  69.6372771   5.7924541 138.5206070  70.0829821   6.6310022
 137.9459033  69.9858088   5.2338080 132.2313850  71.7379162  13.3424199
 132.3606231  71.9913641  14.2563610 131.5511301  72.3306870  13.0228854
 136.4013337  82.4076412   9.4414673 136.3237367  83.3584237   9.5203153
 135.7974981  82.0622285  10.0989599 138.8930567  69.5804278  22.0976040
 138.1163901  70.1398198  22.0878904 139.5321130  70.0661061  22.6190910
 146.6851347  66.3631071  15.9319016 146.0425728  66.6563604  15.2858811
 146.1806276  66.2483991  16.7372213 137.1476939  72.3889731  21.6594007
 137.8891623  72.9274775  21.3828830 136.4413925  73.0156020  21.8165558
 142.6232279  74.5318872  20.2566168 143.0315635  74.0901282  19.5120800
 141.9009540  73.9571499  20.5100361 138.9763349  69.4691478  17.6299725
 139.8224544  69.8930892  17.7734374 138.9161986  68.8125103  18.3238288
 142.9461093  75.0920062  14.0118457 142.3169956  75.2565776  13.3094525
 142.5586755  75.5061672  14.7829421 146.8250325  76.0274500  11.3662821
 146.1401363  76.4073401  10.8159854 146.9094175  76.6369827  12.0994769
 142.1262794  67.1295847  19.2880899 141.8823726  67.8837907  18.7515174
 142.4022725  67.5081194  20.1228146 144.0801257  73.6734459  17.9658164
 144.2918152  74.3166219  17.2892545 144.0331005  72.8396776  17.4980094
 141.6827486  66.2852280  14.8694736 140.8211965  66.5833533  15.1611474
 141.7089920  66.5022679  13.9375769 138.4989055  74.8294470  11.2768542
 138.9627401  75.1082173  10.4873165 138.2345853  73.9277915  11.0941633
 135.3913136  74.3765952  14.2148305 135.9614493  74.8053220  13.5765790
 135.9821248  74.0948537  14.9132491 137.4357941  70.9517623   8.0858107
 138.1381985  71.4038666   8.5532034 137.1038570  70.3101442   8.7138000
 135.8838303  69.5429379  22.4609317 135.2536963  70.2245660  22.6944713
 135.7774391  69.4312461  21.5162455 131.1783275  69.2101175  13.3875241
 130.3882329  69.4658704  12.9115351 131.6694523  70.0249513  13.4927281
 145.1947085  76.5506415  16.1380522 146.0164529  76.1486602  15.8563203
 145.1909488  76.4474649  17.0896637 133.1298021  69.5745755  10.3458717
 132.3329184  69.6864449  10.8642213 132.9023613  69.9132407   9.4799608
 138.9603688  76.0990458  18.2941232 139.0248121  76.5610865  19.1299404
 138.2514612  75.4687823  18.4223542 129.4620978  69.4631666  15.8190232
 129.7129017  70.3478676  16.0847808 129.9980527  69.2836267  15.0465323
 138.6751706  77.7658565   8.1620212 138.5397381  78.6110101   8.5905060
 139.2161518  77.9677843   7.3986146 135.1619046  63.8450145  24.8234568
 134.7685991  63.2916344  25.4982212 135.9785186  64.1560724  25.2141085
 132.1281103  75.2834003   8.7348138 132.6405624  76.0777254   8.8853702
 132.7803816  74.5860294   8.6681739 133.9375988  78.3999760  10.8170891
 134.1142616  79.3217724  10.6291875 134.7332821  78.0858179  11.2465271
 138.0787007  65.2608024  22.4154824 138.8196720  65.8615177  22.3359287
 138.3104929  64.5185662  21.8572867 133.2228345  70.4464392  20.6933054
 133.1081860  69.5449649  20.9940153 132.3672862  70.6928088  20.3417870
 140.3020182  78.3882132  22.2920555 139.8584036  77.6018510  21.9741459
 140.9637396  78.5761282  21.6264445 135.0607303  79.9177933  16.8181233
 135.6114729  79.7894997  16.0458227 134.2218779  80.2172822  16.4676126
 142.4001420  78.6684932  20.3201956 142.3819896  79.4893813  19.8282225
 143.3221340  78.5439007  20.5452097 138.8574474  76.1829061  21.1625464
 139.3902811  75.4217349  20.9324772 138.3288556  75.8902713  21.9049619
 142.0244169  61.2889127  16.6919106 141.6808439  62.1790769  16.6158217
 142.3923132  61.0990785  15.8288691 130.0930020  73.6122658   9.5107708
 130.9305242  74.0219666   9.2941416 130.2708288  72.6722100   9.4807902
 139.5741563  66.1247439  10.2576779 138.7183160  65.7354290  10.0782418
 139.9868515  66.2039400   9.3976565 141.1040710  63.6593782  14.6568339
 140.6005505  63.6223918  13.8436144 141.3971317  64.5686525  14.7164996
 137.3483596  63.7432512  13.6634521 138.2136592  63.5475321  13.3040410
 137.4161105  63.5142864  14.5903878 140.2227187  75.3115054   8.6744276
 139.6948549  74.5767813   8.3617514 139.7214690  76.0889730   8.4284245
 145.2020033  73.5064074  13.7911322 144.5443708  74.1963336  13.8791451
 146.0060432  73.8960506  14.1345309 134.9545915  65.9734720  11.0350888
 135.5289667  65.7509902  10.3024081 135.5416897  66.0423415  11.7879489
 144.0125492  71.8608447  11.8415264 144.5257374  72.4938439  12.3436974
 144.6626716  71.2609642  11.4758624 135.2815502  68.0039181   5.0546773
 134.4452814  68.3413868   5.3756048 135.1420272  67.8688161   4.1173910
 137.2568583  62.8475969   9.7625957 136.6032995  62.5324986   9.1382572
 137.2149057  62.2251709  10.4885780 140.4906323  69.3357902  14.0873605
 139.5728884  69.5572849  13.9295293 140.9066466  69.4104213  13.2285312
 141.2741371  70.7349318   9.2176285 142.0213190  71.2470715   8.9083407
 141.5432960  70.4133371  10.0780679 139.5468021  73.2307859   6.2003239
 138.6379240  72.9466892   6.2975709 139.5763105  73.6506937   5.3406546
 144.7787288  76.8414448   9.9694407 144.3249615  76.0005358  10.0259597
 144.1481255  77.4775847  10.3069187 143.7220208  67.7706434  11.1995074
 142.9842965  67.2583821  11.5305317 143.9746981  67.3306816  10.3878351
 143.2220227  78.6790945  10.9044225 143.5143202  79.2396002  10.1856591
 143.7318848  78.9719506  11.6597384 130.1156191  70.9513373  10.1818442
 129.9180591  70.3582734   9.4569508 129.5602855  70.6465583  10.8994380
 138.0952915  70.8436479  12.3013035 138.1501525  69.8910316  12.2255511
 137.2844117  70.9995919  12.7854333 136.0345275  69.4613539  10.0603414
 135.2213140  69.7607710  10.4668606 136.5304269  69.0669228  10.7777896
 138.1853853  79.4571296  11.9937678 138.1430031  79.6832142  11.0646210
 139.1016552  79.2234671  12.1423479 141.6319486  69.9255364  18.8918307
 141.9868874  70.1526837  19.7512773 142.2791618  70.2573740  18.2695563
 135.5259350  67.0331895  15.6764648 136.1658729  66.8920654  14.9787612
 134.6936880  66.7466408  15.3003250 147.3886603  75.1150327  14.6078908
 147.8223110  75.0225616  15.4561962 148.1018184  75.0907827  13.9698924
 136.3019653  76.3334325  11.7899641 137.0960252  75.8384645  11.5882216
 135.5911346  75.8052188  11.4267347 141.1214498  78.7152421  16.1412009
 141.1751520  79.2843357  16.9089724 140.2529279  78.8854306  15.7766046
 132.6102417  70.4777407   7.8659394 131.6800005  70.4161862   8.0829356
 132.7059889  69.9553360   7.0696035 132.5287966  67.0032220  10.4537635
 132.7894783  67.9177553  10.3446796 133.3505138  66.5356662  10.6034248
 134.0012891  68.4169977  17.6236460 134.6735945  68.2087339  16.9749109
 133.1742678  68.2192063  17.1841692 148.2502153  75.1574027  17.1411793
 148.4438043  76.0619838  17.3871068 148.1502771  74.6981446  17.9750378
 139.9038463  65.0431918  19.6402121 139.2566378  65.7421867  19.5466597
 140.6739479  65.4768062  20.0078369 143.3117261  75.3080770  22.7152674
 143.1602768  75.0791322  21.7982758 143.3021941  76.2651371  22.7284019
 140.0802598  72.8812683  17.6998940 141.0094658  73.0323842  17.5267908
 139.6593628  72.9696704  16.8447587 138.8790929  76.9063347  15.4697478
 138.7402015  76.5382132  16.3423416 138.0905526  77.4210987  15.2981436
 140.4296145  76.2844950  12.8586316 140.0945977  76.2445720  13.7543966
 139.9300090  75.6189666  12.3856726 134.4040389  71.6912580  18.3838897
 134.2660186  70.9592819  18.9850436 135.3145312  71.6021480  18.1023085
 137.0322689  71.4032539  17.8722577 137.7422308  70.7625731  17.8309195
 136.9891997  71.6545434  18.7948757 145.0209468  78.3399893  20.7929156
 144.9622014  77.6559113  20.1259739 145.4228986  79.0818883  20.3409782
 135.7451623  68.3897757  19.6918216 135.2088980  67.9388496  20.3439812
 135.1568332  68.5243666  18.9488680 134.0400167  85.1561806  13.5862875
 134.2796765  85.7880331  14.2641893 133.1969363  84.8049846  13.8728234
 145.0226875  76.3039476  19.0243136 144.1353654  75.9665398  19.1469534
 145.5925426  75.5722508  19.2611901 126.6756022  72.6363568  12.3486187
 127.3627062  72.3225298  11.7607202 126.5204151  73.5404933  12.0753438
 131.4790744  67.5253765  16.7771211 131.3948933  66.9179434  16.0421621
 130.6573451  68.0162783  16.7780707 138.5528029  80.9640929  15.9904379
 138.4798200  81.7695900  16.5023683 138.1105422  81.1632895  15.1652400
 138.3417808  80.2012699   9.5007200 137.5585330  80.7434379   9.5945425
 139.0410553  80.7186678   9.9001441 141.6514458  66.0107328  12.1441406
 142.1483158  65.2577291  11.8242476 140.8801440  66.0471645  11.5784615
 149.5044216  71.7147694  13.7859697 149.4934092  72.5972409  13.4153630
 148.6361595  71.3619245  13.5914234 141.0126712  80.8627763  18.1462537
 141.7254684  81.4975228  18.0738439 140.5216741  80.9591629  17.3302539
 142.7344239  74.7679016   9.7179829 141.8000518  74.8880478   9.5484533
 142.9120907  73.8651482   9.4539839 138.2349427  68.1524711  11.8713090
 137.8647215  67.5995752  12.5593996 138.7308519  67.5482845  11.3188090
 146.1216790  70.6096335  10.2529863 146.5877243  71.4424326  10.1790166
 146.5724291  70.1441316  10.9575122 136.0638626  78.6122206  18.9668108
 136.7648085  79.2458689  19.1197502 135.5933741  78.9536938  18.2063747
 144.1893021  76.9540156   7.2516015 144.4652865  76.8396751   8.1609889
 143.3197520  76.5557641   7.2128188 144.0933453  62.9776922  14.2920765
 143.1796533  63.2081149  14.4602971 144.5226555  63.0615366  15.1434797
 143.8639912  71.1666814  16.7920659 143.2111362  71.4142721  16.1373111
 144.2420291  70.3530952  16.4583136 140.8247085  81.2026507  10.8948829
 141.0069480  80.3848163  11.3576581 141.6480071  81.4194199  10.4573719
 139.9127485  71.9086625  23.2786696 139.2368122  71.8080754  23.9489071
 140.7355118  71.7525839  23.7422693 131.6606344  78.1458561  15.8999211
 132.2459780  77.4002249  16.0327115 131.4631182  78.4562518  16.7835875
 134.5144999  81.1809809  10.9161653 133.8455374  81.6655936  10.4325693
 134.3757869  81.4279029  11.8305032 126.2523998  70.7164162  14.6203654
 126.2908098  70.1827752  15.4140772 125.7464291  70.1899367  14.0014631
 138.6550267  83.2153552  17.5144312 139.2068575  83.3785174  18.2793397
 138.9956461  83.8057990  16.8424336 133.6314761  65.5628702  18.1166196
 133.6956087  66.4243533  17.7043594 133.5681881  64.9502704  17.3838555
 133.1067033  67.6351835  21.7639231 133.7339072  67.2528912  22.3776755
 132.2494952  67.4166037  22.1294923 143.5061142  78.0414810  23.3692966
 144.0501046  78.6544768  22.8747921 142.9247987  78.5994388  23.8859979
 129.8832576  69.4428264   7.6957585 130.1786017  68.5338942   7.6424639
 128.9820612  69.4216003   7.3738588 141.7918655  81.1635528  14.5007994
 141.6669794  80.3625268  13.9918939 142.4497746  81.6581721  14.0121964
 133.4126823  67.5184260  13.6785134 132.6913409  68.1320228  13.5392607
 134.2020079  68.0542025  13.6001780 143.8553563  78.9644548  16.1287544
 142.9083899  78.8449899  16.0565871 144.2036336  78.0767046  16.2113805
 136.2153137  64.8538687  19.9525786 136.7387538  65.1000983  20.7152095
 135.9965470  65.6858722  19.5328923 131.6120418  67.1242361   7.8196911
 131.2833124  66.2439740   7.6372016 131.9659788  67.0690030   8.7073300
 140.8599996  78.7597264  12.3291896 140.7124959  77.8313972  12.5099466
 141.6853490  78.7817355  11.8448971 134.7262241  67.4115331   8.1872388
 135.0658313  67.9401252   7.4650997 135.1734361  67.7495737   8.9630955
 144.4634118  79.5825823  13.4156769 145.3880666  79.3768684  13.2781220
 144.2949422  79.3342224  14.3246110 137.4205682  65.7952382  17.6375456
 137.0802502  64.9960195  18.0396136 136.7144688  66.0954093  17.0652289
 138.0722153  62.8801694  16.0902779 138.8948223  62.4062173  15.9681670
 138.3160217  63.6592178  16.5901466 136.7130388  65.9089953   6.3865681
 137.4338750  66.2871206   5.8829398 136.0895692  66.6278830   6.4900659
 135.5960732  69.5720815  13.8994758 135.4505313  69.8861118  14.7919039
 135.1185936  70.1905715  13.3465657 137.4557115  66.5623363  13.9475647
 137.4418684  65.6664456  13.6107945 138.1729543  66.5694027  14.5813934
 139.3083246  66.9960703  15.9928775 139.0501024  67.9177774  15.9913105
 138.7768286  66.5991138  16.6829239 130.0706394  72.1126159  16.8382419
 129.5259862  72.8885967  16.9702693 130.9485744  72.4596964  16.6801541
 136.8594011  65.4437743   9.2163218 136.9809922  64.5154389   9.4154105
 136.5696053  65.4576429   8.3041533 139.7285201  63.1292654  12.3529937
 139.7506898  63.1931987  11.3981917 140.1453260  62.2897162  12.5470444
 130.8572416  71.2396056  19.7312576 130.1154152  71.3878691  20.3177206
 130.5365160  71.5004321  18.8679325 138.8016079  80.7812034  19.5292966
 139.1103205  80.5361181  20.4015666 139.5991561  80.9858672  19.0411836
 138.8236691  82.9349944  11.7598343 138.3841681  82.4426322  12.4531199
 139.5744808  82.3922911  11.5190418 131.3029030  79.1261484  11.7622971
 132.1287050  78.8265256  11.3821614 130.9523082  78.3569107  12.2112759
 136.2710563  78.4787953  13.8320644 135.6490572  77.8158658  13.5322872
 136.9415430  78.5049084  13.1494292 129.5037635  77.0447811  12.7211904
 128.6669543  76.6169985  12.5395905 129.4761280  77.2380254  13.6582695
 136.3435090  66.9569741  23.4253150 136.3923246  67.8331863  23.0430920
 136.8857605  66.4147134  22.8524793 146.8289936  77.5010864  22.7054287
 146.0385480  77.4835003  22.1658787 146.5923291  78.0399158  23.4603324
 146.9487811  74.3503330  20.0187016 146.9985816  74.1853338  20.9602539
 146.8401735  73.4830589  19.6284897 135.8324070  77.0291876   7.3079105
 135.9812190  77.7127340   6.6545777 136.6390513  77.0096966   7.8228560
 144.2391574  70.3334258  21.3346323 145.1401436  70.1940723  21.0430320
 144.3139548  70.4988713  22.2744500 138.5734379  67.7101113  20.1799509
 137.7037688  68.0034679  19.9082097 138.8093859  68.2941558  20.9006773
 148.4506008  76.7700272  20.2629037 148.1590816  77.1330252  21.0992498
 147.8378139  76.0567280  20.0842369 149.6501690  74.3353152  12.7831608
 150.4848582  74.7742956  12.9469168 149.7860819  73.8591805  11.9639853
 146.6993196  71.8932886  18.7309095 147.1747318  72.0860533  17.9227947
 145.7758762  71.9492072  18.4852479 133.5876703  73.0557054   8.3140174
 133.3422745  72.1519384   8.5120384 133.7572617  73.0574204   7.3719652
 141.2773413  63.9280730  17.6964929 141.7955357  64.6641757  17.3711418
 140.9228546  64.2344723  18.5311688 132.8572350  68.7885411   5.8126335
 132.1641595  68.8629766   5.1566371 132.6124102  68.0245755   6.3347852
 141.5286007  60.3481012  13.2165826 141.8087761  59.6804202  13.8426252
 142.3136614  60.5410108  12.7040490 145.3994865  68.7698646  16.9637401
 146.3512288  68.8696744  16.9849625 145.2298316  67.9776915  17.4735485
 143.4209245  65.8554230  17.1496802 142.8259177  66.1359242  16.4543291
 143.1358941  66.3448131  17.9213543 147.8782943  71.9904766  16.0779701
 147.8459263  71.0520767  16.2639384 148.4883567  72.0688803  15.3445526
 148.0277432  68.7815810  16.1237984 147.5116480  67.9974266  15.9367913
 148.9117380  68.4534526  16.2884503 153.6959493  73.0520773  15.2185737
 154.4262881  72.7906061  15.7793441 153.0866438  72.3149495  15.2587805
 151.7774790  71.1928636  15.8160189 151.0507954  71.0584601  15.2076680
 151.3622077  71.5005464  16.6216907 139.6004966  74.9118565  23.5807562
 140.5207976  75.0897164  23.7747608 139.5654549  73.9674611  23.4287261
 128.8187131  70.1057159  12.5060836 128.4989916  69.2522467  12.2135210
 128.2720560  70.3205737  13.2618804 132.5967039  72.8219600  16.2230343
 132.8153049  73.7536708  16.2418377 133.0092813  72.4627574  17.0085147
 137.4694904  68.3952806  25.6133092 137.3691631  69.3447163  25.5445183
 137.2516446  68.0671045  24.7409162 128.6875391  73.7260070  14.4753958
 127.9938863  73.3114023  13.9623912 129.4348382  73.7680607  13.8787377
 137.3326174  71.8249945  24.4298153 136.8493256  72.6250305  24.6362042
 137.4187113  71.8357889  23.4765597 130.6012134  73.6578324  12.3519973
 130.5782822  73.7566011  11.4001856 130.9112770  74.5043475  12.6737139
 133.2599512  75.7154479  16.4666587 134.2142765  75.6838422  16.3996519
 133.0612035  75.2545103  17.2816813 133.8498894  74.2855595  19.0337385
 134.6691783  74.7799674  19.0572222 134.1235702  73.3687563  19.0054952
 131.6149741  81.2574099  13.4836785 131.4804209  80.4974500  12.9174783
 131.1981803  81.9814999  13.0165574 143.5806514  72.1920884   8.6115631
 143.5241715  72.6489435   7.7723263 144.1334856  71.4311568   8.4338473
 134.7718867  82.1543416  13.6955228 134.6551251  83.0988848  13.5933918
 133.9511313  81.8516977  14.0841027 129.1033808  68.6193729  19.7329582
 129.7492672  68.1092683  20.2216807 128.8950959  69.3562411  20.3073007
 141.6287200  75.6874577  25.2321722 142.4978360  75.8615229  24.8708357
 141.1493952  76.5068993  25.1097452 135.7973381  82.8071678  16.9111156
 136.7000627  82.8395288  17.2277651 135.5710751  81.8772129  16.9257492
 137.5526983  81.5602664  13.5721235 136.6022614  81.5604526  13.4585607
 137.8559469  80.8135399  13.0557269 133.4431299  65.7661346  23.8304596
 134.3062761  65.4098151  24.0407921 132.8696710  65.4275241  24.5180000
 150.5789165  88.5025482  20.5314727 150.5677806  88.1078281  19.6595231
 150.7409805  87.7691555  21.1248499 147.2996427  91.2862594  19.4793911
 147.0086293  92.1908225  19.3640578 147.9353411  91.3279122  20.1937981
 155.7654792  78.7711464  17.0747792 155.4338117  79.6406875  16.8509007
 155.1700406  78.4547748  17.7541823 143.0707604  87.0671080  13.3424199
 143.1999985  87.3205559  14.2563610 142.3905055  87.6598788  13.0228854
 149.7324321  84.9096195  22.0976040 148.9557655  85.4690116  22.0878904
 150.3714884  85.3952978  22.6190910 157.5245102  81.6922988  15.9319016
 156.8819482  81.9855521  15.2858811 157.0200030  81.5775909  16.7372213
 147.9870694  87.7181649  21.6594007 148.7285378  88.2566693  21.3828830
 147.2807679  88.3447938  21.8165558 153.4626033  89.8610789  20.2566168
 153.8709389  89.4193200  19.5120800 152.7403295  89.2863417  20.5100361
 149.8157103  84.7983396  17.6299725 150.6618298  85.2222810  17.7734374
 149.7555741  84.1417020  18.3238288 152.9656549  82.4587764  19.2880899
 152.7217480  83.2129825  18.7515174 153.2416479  82.8373112  20.1228146
 152.5221240  81.6144197  14.8694736 151.6605719  81.9125451  15.1611474
 152.5483675  81.8314596  13.9375769 146.7232057  84.8721297  22.4609317
 146.0930718  85.5537578  22.6944713 146.6168145  84.7604379  21.5162455
 142.0177030  84.5393093  13.3875241 141.2276084  84.7950622  12.9115351
 142.5088277  85.3541431  13.4927281 149.7997443  91.4282376  18.2941232
 149.8641875  91.8902783  19.1299404 149.0908367  90.7979740  18.4223542
 140.3014733  84.7923584  15.8190232 140.5522771  85.6770593  16.0847808
 140.8374281  84.6128185  15.0465323 146.0012800  79.1742063  24.8234568
 145.6079746  78.6208261  25.4982212 146.8178940  79.4852641  25.2141085
 148.9180761  80.5899942  22.4154824 149.6590474  81.1907095  22.3359287
 149.1498684  79.8477580  21.8572867 144.0622099  85.7756309  20.6933054
 143.9475614  84.8741566  20.9940153 143.2066617  86.0220006  20.3417870
 151.1413937  93.7174050  22.2920555 150.6977791  92.9310428  21.9741459
 151.8031150  93.9053200  21.6264445 149.6968229  91.5120979  21.1625464
 150.2296566  90.7509267  20.9324772 149.1682310  91.2194631  21.9049619
 152.8637924  76.6181045  16.6919106 152.5202193  77.5082687  16.6158217
 153.2316887  76.4282703  15.8288691 151.9434464  78.9885700  14.6568339
 151.4399260  78.9515835  13.8436144 152.2365071  79.8978443  14.7164996
 148.1877350  79.0724430  13.6634521 149.0530347  78.8767238  13.3040410
 148.2554859  78.8434782  14.5903878 145.7939669  81.3026638  11.0350888
 146.3683421  81.0801819  10.3024081 146.3810652  81.3715332  11.7879489
 148.0962337  78.1767887   9.7625957 147.4426749  77.8616904   9.1382572
 148.0542811  77.5543627  10.4885780 152.4713241  85.2547281  18.8918307
 152.8262629  85.4818755  19.7512773 153.1185372  85.5865658  18.2695563
 146.3653104  82.3623812  15.6764648 147.0052483  82.2212572  14.9787612
 145.5330635  82.0758326  15.3003250 144.8406646  83.7461895  17.6236460
 145.5129699  83.5379257  16.9749109 144.0136432  83.5483981  17.1841692
 150.7432218  80.3723835  19.6402121 150.0960133  81.0713785  19.5466597
 151.5133233  80.8059979  20.0078369 154.1511016  90.6372688  22.7152674
 153.9996522  90.4083239  21.7982758 154.1415695  91.5943289  22.7284019
 150.9196352  88.2104600  17.6998940 151.8488412  88.3615760  17.5267908
 150.4987382  88.2988621  16.8447587 145.2434143  87.0204498  18.3838897
 145.1053941  86.2884736  18.9850436 146.1539066  86.9313398  18.1023085
 147.8716444  86.7324457  17.8722577 148.5816062  86.0917649  17.8309195
 147.8285752  86.9837352  18.7948757 146.5845378  83.7189675  19.6918216
 146.0482735  83.2680413  20.3439812 145.9962086  83.8535584  18.9488680
 137.5149777  87.9655486  12.3486187 138.2020817  87.6517216  11.7607202
 137.3597905  88.8696851  12.0753438 142.3184499  82.8545682  16.7771211
 142.2342688  82.2471352  16.0421621 141.4967205  83.3454701  16.7780707
 146.9032380  93.9414124  18.9668108 147.6041840  94.5750607  19.1197502
 146.4327495  94.2828856  18.2063747 154.9327208  78.3068839  14.2920765
 154.0190287  78.5373066  14.4602971 155.3620309  78.3907284  15.1434797
 150.7521239  87.2378543  23.2786696 150.0761876  87.1372672  23.9489071
 151.5748873  87.0817756  23.7422693 142.5000098  93.4750479  15.8999211
 143.0853535  92.7294167  16.0327115 142.3024937  93.7854436  16.7835875
 137.0917753  86.0456079  14.6203654 137.1301852  85.5119670  15.4140772
 136.5858046  85.5191285  14.0014631 144.4708515  80.8920620  18.1166196
 144.5349842  81.7535451  17.7043594 144.4075635  80.2794621  17.3838555
 143.9460788  82.9643752  21.7639231 144.5732827  82.5820830  22.3776755
 143.0888707  82.7457954  22.1294923 154.3454896  93.3706727  23.3692966
 154.8894800  93.9836686  22.8747921 153.7641741  93.9286306  23.8859979
 144.2520577  82.8476178  13.6785134 143.5307163  83.4612146  13.5392607
 145.0413833  83.3833943  13.6001780 147.0546891  80.1830604  19.9525786
 147.5781293  80.4292901  20.7152095 146.8359224  81.0150639  19.5328923
 148.2599436  81.1244300  17.6375456 147.9196256  80.3252113  18.0396136
 147.5538442  81.4246010  17.0652289 148.9115908  78.2093612  16.0902779
 149.7341977  77.7354090  15.9681670 149.1553971  78.9884096  16.5901466
 146.4354487  84.9012733  13.8994758 146.2899067  85.2153036  14.7919039
 145.9579690  85.5197633  13.3465657 148.2950869  81.8915281  13.9475647
 148.2812438  80.9956374  13.6107945 149.0123298  81.8985944  14.5813934
 150.1477000  82.3252621  15.9928775 149.8894778  83.2469691  15.9913105
 149.6162041  81.9283055  16.6829239 140.9100149  87.4418077  16.8382419
 140.3653617  88.2177885  16.9702693 141.7879499  87.7888882  16.6801541
 150.5678956  78.4584571  12.3529937 150.5900653  78.5223904  11.3981917
 150.9847015  77.6189080  12.5470444 141.6966171  86.5687973  19.7312576
 140.9547907  86.7170609  20.3177206 141.3758915  86.8296239  18.8679325
 147.1828845  82.2861658  23.4253150 147.2317000  83.1623781  23.0430920
 147.7251359  81.7439051  22.8524793 157.6683691  92.8302782  22.7054287
 156.8779234  92.8126920  22.1658787 157.4317045  93.3691075  23.4603324
 157.7881566  89.6795248  20.0187016 157.8379571  89.5145255  20.9602539
 157.6795489  88.8122507  19.6284897 155.0785328  85.6626176  21.3346323
 155.9795191  85.5232641  21.0430320 155.1533303  85.8280631  22.2744500
 149.4128133  83.0393031  20.1799509 148.5431443  83.3326597  19.9082097
 149.6487614  83.6233476  20.9006773 152.1167167  79.2572648  17.6964929
 152.6349111  79.9933675  17.3711418 151.7622300  79.5636641  18.5311688
 152.3679761  75.6772930  13.2165826 152.6481515  75.0096119  13.8426252
 153.1530368  75.8702026  12.7040490 156.2388620  84.0990564  16.9637401
 157.1906043  84.1988662  16.9849625 156.0692070  83.3068833  17.4735485
 154.2602999  81.1846147  17.1496802 153.6652931  81.4651160  16.4543291
 153.9752696  81.6740048  17.9213543 150.4398721  90.2410483  23.5807562
 151.3601730  90.4189082  23.7747608 150.4048304  89.2966528  23.4287261
 139.6580886  85.4349077  12.5060836 139.3383670  84.5814385  12.2135210
 139.1114314  85.6497655  13.2618804 143.4360793  88.1511518  16.2230343
 143.6546803  89.0828625  16.2418377 143.8486567  87.7919492  17.0085147
 148.3088659  83.7244723  25.6133092 148.2085386  84.6739080  25.5445183
 148.0910201  83.3962962  24.7409162 139.5269146  89.0551988  14.4753958
 138.8332617  88.6405941  13.9623912 140.2742137  89.0972525  13.8787377
 148.1719929  87.1541862  24.4298153 147.6887011  87.9542222  24.6362042
 148.2580868  87.1649807  23.4765597 144.0993266  91.0446397  16.4666587
 145.0536520  91.0130339  16.3996519 143.9005790  90.5837021  17.2816813
 144.6892648  89.6147513  19.0337385 145.5085537  90.1091592  19.0572222
 144.9629456  88.6979481  19.0054952 139.9427563  83.9485647  19.7329582
 140.5886426  83.4384601  20.2216807 139.7344714  84.6854328  20.3073007
 152.4680955  91.0166494  25.2321722 153.3372115  91.1907147  24.8708357
 151.9887706  91.8360911  25.1097452 144.2825054  81.0953264  23.8304596
 145.1456515  80.7390069  24.0407921 143.7090464  80.7567159  24.5180000
 156.8406554  94.5033981  24.8234568 156.4473500  93.9500179  25.4982212
 157.6572695  94.8144559  25.2141085 155.1218808  96.4245182  23.8304596
 155.9850270  96.0681986  24.0407921 154.5484219  96.0859076  24.5180000
   1.5340505  88.2237088 118.6903037   0.7804213  87.6544486 118.5347041
   1.6688046  88.1899752 119.6373672   1.9446920  88.3812698 121.4223281
   2.6750308  88.1197986 121.9830985   1.3353865  87.6441420 121.4625349
   1.5367103 102.7255127 120.8404541   2.1745513 102.6061875 120.1367881
   1.4187946 103.6735971 120.8992493   1.0908372 100.4506581 117.9157749
   1.8771461 100.0326004 117.5648166   1.3547076 101.3552673 118.0839397
   1.2618449 105.8879432 112.6146406   0.6264282 105.9614058 113.3267310
   0.9315855 106.4773030 111.9365485   6.4916799 100.3881814 118.8190728
   7.2241971  99.8181031 119.0528557   5.7356155 100.0003415 119.2597233
   4.0142219  94.1003389 123.2785336   3.6825544  94.9698799 123.0546551
   3.4187833  93.7839673 123.9579367   3.9070883  98.8198475 120.3578686
   2.9987760  98.7513883 120.0637447   3.8558478  99.2970420 121.1860512
   5.7732529  97.0214913 122.1356560   5.1306909  97.3147446 121.4896355
   5.2687457  96.9067833 122.9409757   3.4272693 100.7678086 112.8242419
   4.3390549 101.0005473 112.6490117   2.9182340 101.3515130 112.2617498
   1.7113460 105.1902714 126.4603712   2.1196816 104.7485125 125.7158344
   0.9890722 104.6155342 126.7137905   2.0342275 105.7503905 120.2156001
   1.4051137 105.9149619 119.5132069   1.6467937 106.1645514 120.9866965
   5.9131507 106.6858343 117.5700365   5.2282545 107.0657244 117.0197398
   5.9975356 107.2953669 118.3032312   1.2143976  97.7879689 125.4918443
   0.9704908  98.5421750 124.9552718   1.4903906  98.1665037 126.3265690
   3.1682438 104.3318302 124.1695708   3.3799334 104.9750061 123.4930089
   3.1212187 103.4980618 123.7017638   4.2828266 107.2090257 122.3418065
   5.1045710 106.8070444 122.0600747   4.2790669 107.1058491 123.2934181
  12.3734259 103.5529006 118.6903037  11.6197968 102.9836404 118.5347041
  12.5081801 103.5191670 119.6373672   1.4882602 109.3268774 126.5239500
   1.4701077 110.1477655 126.0319769   2.4102522 109.2022849 126.7489641
   1.1125351  91.9472970 122.8956650   0.7689620  92.8374611 122.8195760
   1.4804314  91.7574627 122.0326235   1.0775634 101.9381581 111.4029085
   0.5622257 102.7086185 111.6417472   0.8052942 101.2646717 112.0262146
   6.0509908 104.6913935 113.3382258   5.2739351 104.3525095 112.8937420
   6.7301389 104.6966559 112.6637223   0.8661937  99.8108673 113.2288866
   0.5612072 100.1254822 114.0799009   1.8192379  99.8890093 113.2716199
   4.2901215 104.1647917 119.9948866   3.6324889 104.8547178 120.0828995
   5.0941614 104.5544349 120.3382853   3.1006674 102.5192289 118.0452808
   3.6138555 103.1522281 118.5474518   3.7507897 101.9193485 117.6796168
   3.8668470 107.4998291 116.1731951   3.4130797 106.6589201 116.2297141
   3.2362436 108.1359689 116.5106731   2.8101389  98.4290277 117.4032618
   2.0724146  97.9167663 117.7342861   3.0628163  97.9890658 116.5915895
   2.3101409 109.3374788 117.1081769   2.6024383 109.8979845 116.3894134
   2.8200030 109.6303349 117.8634928   2.9113017  91.2066529 117.9974387
   3.2171893  90.3463892 117.7100302   3.6365621  91.7984149 117.7973381
   0.7200668 100.5839206 125.0955851   1.0750056 100.8110679 125.9550317
   1.3672799 100.9157583 124.4733107   6.4498405 103.7057642 115.8005180
   6.3116304 103.8959238 114.8726369   6.0934624 104.4677025 116.2573231
   6.4767785 105.7734169 120.8116452   6.9104291 105.6809458 121.6599506
   7.1899365 105.7491670 120.1736468   7.3383334 105.8157870 123.3449337
   7.5319224 106.7203680 123.5908612   7.2383952 105.3565289 124.1787922
   2.3998443 105.9664612 128.9190218   2.2483949 105.7375164 128.0020301
   2.3903122 106.9235214 128.9321563   2.4536518 104.2884827 109.3360919
   1.8365688 103.5631655 109.2393972   1.9853006 105.0494187 108.9927994
   4.1090649 108.9983735 126.9966700   4.0503196 108.3142955 126.3297283
   4.5110168 109.7402725 126.5447326   4.1108057 106.9623319 125.2280679
   3.2234835 106.6249241 125.3507078   4.6806608 106.2306350 125.4649445
   8.5925397 102.3731536 119.9897241   8.5815273 103.2556252 119.6191174
   7.7242777 102.0203087 119.7951778   1.8225421 105.4262858 115.9217373
   0.8881699 105.5464320 115.7522077   2.0002089 104.5235325 115.6577383
   5.2097972 101.2680177 116.4567407   5.6758424 102.1008169 116.3827710
   5.6605472 100.8025159 117.1612665   3.2774203 107.6123999 113.4553559
   3.5534047 107.4980593 114.3647433   2.4078702 107.2141483 113.4165732
   3.1814635  93.6360764 120.4958308   2.2677714  93.8664991 120.6640515
   3.6107736  93.7199208 121.3472341   2.9521093 101.8250656 122.9958202
   2.2992543 102.0726564 122.3410655   3.3301473 101.0114794 122.6620680
   0.8799836 111.8219370 120.7045538   0.7550976 111.0209110 120.1956483
   1.5378927 112.3165564 120.2159508   2.9434745 109.6228390 122.3325088
   1.9965080 109.5033742 122.2603414   3.2917518 108.7350888 122.4151349
   3.5515300 110.2409665 119.6194313   4.4761847 110.0352527 119.4818764
   3.3830603 109.9926066 120.5283654   3.3410616 110.7595333 114.9756404
   3.5147494 110.1941755 114.2230257   3.8339507 111.5596228 114.7935894
   9.1950007 103.5231756 116.5946704   9.6381153 102.7739081 116.1965827
   8.3176518 103.5141892 116.2120436   4.3285789 110.0762097 112.0753302
   5.0236693 110.6968790 112.2940617   4.6708939 109.2257448 112.3505680
   6.2277212 107.5261803 113.6040633   6.7528536 107.8649075 112.8789953
   6.1399564 106.5908818 113.4203768   5.9171118 108.1594706 128.9091831
   5.1266661 108.1418845 128.3696331   5.6804472 108.6983000 129.6640868
   6.0368993 105.0087173 126.2224560   6.0866998 104.8437180 127.1640082
   5.9282916 104.1414432 125.8322440   3.3272755 100.9918101 127.5383866
   4.2282618 100.8524566 127.2467864   3.4020730 101.1572556 128.4782044
   7.5387190 107.4284114 126.4666581   7.2471998 107.7914095 127.3030042
   6.9259321 106.7151123 126.2879913   8.7382872 104.9936994 118.9869151
   9.5729763 105.4326798 119.1506712   8.8742001 104.5175647 118.1677397
   5.7874378 102.5516729 124.9346639   6.2628499 102.7444375 124.1265491
   4.8639943 102.6075915 124.6890023   0.6167188  91.0064855 119.4203370
   0.8968942  90.3388044 120.0463796   1.4017795  91.1993951 118.9078034
   4.4876047  99.4282489 123.1674945   5.4393470  99.5280587 123.1887169
   4.3179497  98.6360757 123.6773029   2.5090426  96.5138072 123.3534346
   1.9140358  96.7943085 122.6580834   2.2240123  97.0031973 124.1251087
   1.6397917 110.4660999 112.1136978   2.5728590 110.4006561 112.3169854
   1.5521130 111.3017266 111.6551511   4.2685933 109.7826869 109.0740926
   4.1899565 109.4486733 109.9676684   5.0895600 110.2748637 109.0732398
   6.9664125 102.6488609 122.2817244   6.9340445 101.7104609 122.4676928
   7.5764748 102.7272645 121.5483069   7.1158613  99.4399652 122.3275528
   6.5997662  98.6558109 122.1405456   7.9998562  99.1118369 122.4922047
   4.7769340  93.1840668 118.2871340   4.5794161  92.8755756 119.1714672
   5.3869046  93.9102307 118.4169270  12.7840674 103.7104615 121.4223281
  13.5144063 103.4489904 121.9830985  12.1747620 102.9733337 121.4625349
  10.8655972 101.8512478 122.0197732  10.1389135 101.7168443 121.4114224
  10.4503258 102.1589307 122.8254450   0.5342987  93.0649575 116.0367872
   1.0874025  93.4845028 116.6957895   0.7713073  92.1385323 116.0790828
   3.9121794  95.1750100 115.5446536   3.3320463  95.8334904 115.1624588
   3.6457726  94.3527444 115.1333953   2.3625360  94.5755157 117.7467856
   2.8625138  94.6871692 116.9382175   3.0060968  94.2716210 118.3868665
   2.6946672  97.3350190 114.6002884   1.8072527  97.6199841 114.3823079
   3.1100661  97.1743953 113.7530161   6.0461208  97.3596711 118.3157223
   6.8221598  97.8493163 118.5881840   5.3209342  97.7854765 118.7729093
   8.4833767  98.0724330 119.3731164   9.0778257  97.8320066 118.6624472
   8.5560350  97.3531461 120.0004700   1.8389885 107.0994865 108.6950904
   2.5425735 107.3044867 109.3108560   1.1152534 107.6671627 108.9599988
   2.6687695 102.8504726 114.8153174   2.6122897 103.3073277 113.9760807
   3.2216038 102.0895411 114.6376017   6.4792501  98.6394458 115.6403294
   6.2229436  98.2391094 116.4711502   5.8545369  99.3538252 115.5153433
  10.7904839 101.3790531 118.1474585  10.2304397 101.4483720 118.9206147
  10.1848343 101.2031516 117.4274081   3.7476583 107.5377394 110.7449364
   4.5822187 107.1058592 110.5626839   3.5860926 107.3659408 111.6726259
   3.4022475 104.0409507 112.1105704   3.3471279 103.8753779 111.1694148
   2.7768530 104.7485540 112.2667893  12.3760858 118.0547045 120.8404541
  13.0139268 117.9353792 120.1367881  12.2581701 119.0027889 120.8992493
   9.1850564 118.0074473 120.7766066   8.8469076 117.8915538 119.8886601
  10.0540332 117.6065638 120.7567072   5.0437380 119.8609950 116.7662957
   4.4802245 119.7699886 115.9979244   4.9289775 119.0409854 117.2465449
   9.6670347 119.1609325 126.7352271   9.6558988 118.7662123 125.8632775
   9.8290986 118.4275397 127.3286043   2.5901812 121.3561141 119.6047177
   3.3823104 121.0151966 119.1893476   2.8298462 121.4656116 120.5249330
  10.6236938 123.5280917 112.0777422   9.9724918 124.1134998 111.6911435
  11.4181301 124.0587112 112.1372459   4.5492566 120.6170054 112.4764556
   5.3223442 120.0699041 112.3377432   4.9017964 121.4814304 112.6879017
   7.3133815 119.3223285 122.2732815   7.9097387 119.0979308 121.5589778
   7.3708787 118.5808031 122.8758263   6.8858843 116.7762721 110.1083006
   7.1384364 116.2544242 109.3466469   5.9483402 116.6128866 110.2109689
  11.9302126 115.7798499 117.9157749  12.7165215 115.3617922 117.5648166
  12.1940831 116.6844591 118.0839397  12.1012204 121.2171349 112.6146406
  11.4658037 121.2905976 113.3267310  11.7709610 121.8064948 111.9365485
  17.3310553 115.7173732 118.8190728  18.0635725 115.1472949 119.0528557
  16.5749909 115.3295333 119.2597233   6.6055132 118.6790826 112.3107381
   6.4891390 118.0035730 112.9788465   6.7157392 118.1923200 111.4939534
   8.9486673 118.1400974 116.0154070   8.5844880 117.6131595 116.7266991
   9.8053789 117.7499443 115.8420555  14.8535974 109.4295306 123.2785336
  14.5219298 110.2990717 123.0546551  14.2581587 109.1131590 123.9579367
   8.5892160 113.1690873 111.0115418   8.7566562 114.0371110 111.3785890
   8.3989329 113.3318155 110.0876708  11.3467493 121.6307852 122.6781249
  11.0468216 122.5332891 122.5697056  11.0018553 121.3640035 123.5302402
   4.7979975 118.0821649 118.7117953   3.8730471 117.9497863 118.9195645
   5.0464388 118.8615868 119.2087896  14.7464637 114.1490392 120.3578686
  13.8381514 114.0805801 120.0637447  14.6952233 114.6262337 121.1860512
   8.5681381 115.6248531 111.9962085   8.4481006 116.0705582 112.8347566
   7.8733969 115.9733848 111.4375623   2.1588786 117.7254923 119.5461742
   2.2881167 117.9789402 120.4601154   1.4786237 118.3182631 119.2266397
   6.3288273 128.3952173 115.6452217   6.2512303 129.3459998 115.7240697
   5.7249917 128.0498045 116.3027143   8.8205503 115.5680038 128.3013583
   8.0438837 116.1273958 128.2916448   9.4596066 116.0536821 128.8228454
  16.6126283 112.3506831 122.1356560  15.9700664 112.6439364 121.4896355
  16.1081212 112.2359751 122.9409757  14.2666447 116.0970004 112.8242419
  15.1784303 116.3297391 112.6490117  13.7576094 116.6807048 112.2617498
  12.5507215 120.5194632 126.4603712  12.9590571 120.0777042 125.7158344
  11.8284476 119.9447259 126.7137905   8.9038285 115.4567239 123.8337269
   9.7499480 115.8806652 123.9771918   8.8436922 114.8000863 124.5275832
  12.8736029 121.0795822 120.2156001  12.2444892 121.2441537 119.5132069
  12.4861691 121.4937432 120.9866965  16.7525261 122.0150260 117.5700365
  16.0676299 122.3949162 117.0197398  16.8369111 122.6245587 118.3032312
  12.0537730 113.1171607 125.4918443  11.8098662 113.8713667 124.9552718
  12.3297661 113.4956955 126.3265690  14.0076193 119.6610219 124.1695708
  14.2193088 120.3041979 123.4930089  13.9605941 118.8272536 123.7017638
  11.6102422 112.2728040 121.0732280  10.7486901 112.5709293 121.3649018
  11.6364856 112.4898439 120.1413313   8.4263991 120.8170230 117.4806086
   8.8902337 121.0957933 116.6910708   8.1620789 119.9153675 117.2979177
   5.3188072 120.3641712 120.4185849   5.8889429 120.7928980 119.7803334
   5.9096184 120.0824297 121.1170035   7.3632877 116.9393383 114.2895651
   8.0656921 117.3914427 114.7569577   7.0313506 116.2977202 114.9175544
  15.1222021 122.5382175 122.3418065  15.9439465 122.1362362 122.0600747
  15.1184424 122.4350409 123.2934181   3.0572957 115.5621515 116.5496261
   2.2604120 115.6740209 117.0679757   2.8298549 115.9008167 115.6837152
   8.8878624 122.0866218 124.4978776   8.9523057 122.5486625 125.3336948
   8.1789548 121.4563583 124.6261086  23.2128014 118.8820923 118.6903037
  22.4591722 118.3128321 118.5347041  23.3475555 118.8483588 119.6373672
   8.6026642 123.7534325 114.3657756   8.4672317 124.5985861 114.7942604
   9.1436454 123.9553603 113.6023690   2.0556039 121.2709764 114.9385681
   2.5680560 122.0653014 115.0891246   2.7078752 120.5736054 114.8719283
   3.8650924 124.3875520 117.0208435   4.0417552 125.3093485 116.8329418
   4.6607758 124.0733939 117.4502814   8.0061943 111.2483784 128.6192368
   8.7471656 111.8490938 128.5396831   8.2379865 110.5061422 128.0610411
  12.3276356 124.6560692 126.5239500  12.3094832 125.4769573 126.0319769
  13.2496276 124.5314767 126.7489641  11.9519106 107.2764887 122.8956650
  11.6083375 108.1666529 122.8195760  12.3198068 107.0866545 122.0326235
  11.9169388 117.2673498 111.4029085  11.4016012 118.0378103 111.6417472
  11.6446697 116.5938635 112.0262146   9.5016499 112.1123199 116.4614323
   8.6458096 111.7230050 116.2819962   9.9143451 112.1915160 115.6014109
  11.0315646 109.6469543 120.8605883  10.5280441 109.6099678 120.0473688
  11.3246253 110.5562285 120.9202540   7.2758532 109.7308272 119.8672065
   8.1411529 109.5351081 119.5077954   7.3436041 109.5018624 120.7941421
  16.8903662 120.0205853 113.3382258  16.1133105 119.6817013 112.8937420
  17.5695143 120.0258476 112.6637223  11.7055691 115.1400591 113.2288866
  11.4005827 115.4546740 114.0799009  12.6586134 115.2182010 113.2716199
  10.1502123 121.2990814 114.8781820   9.6223485 120.5643573 114.5655057
   9.6489626 122.0765490 114.6321788  15.1294969 119.4939834 119.9948866
  14.4718644 120.1839096 120.0828995  15.9335368 119.8836266 120.3382853
   4.8820851 111.9610480 117.2388432   5.4564603 111.7385662 116.5061624
   5.4691833 112.0299175 117.9917033  13.9400428 117.8484207 118.0452808
  14.4532310 118.4814199 118.5474518  14.5901652 117.2485403 117.6796168
   5.2090438 113.9914941 111.2584317   4.3727750 114.3289628 111.5793592
   5.0695208 113.8563921 110.3211454   7.1843519 108.8351729 115.9663501
   6.5307931 108.5200746 115.3420116   7.1423993 108.2127470 116.6923324
   8.2954723 119.1171024 107.8816793   7.3881785 118.8860278 108.0807942
   8.7925755 118.3208643 108.0690775  11.2022802 127.8268531 110.8013479
  10.5284501 128.1300228 111.4098437  11.5888624 128.6297612 110.4518936
  10.4181259 115.3233663 120.2911149   9.5003820 115.5448610 120.1332837
  10.8341403 115.3979973 119.4322856  11.2016307 116.7225078 115.4213829
  11.9488126 117.2346476 115.1120951  11.4707896 116.4009131 116.2818222
   9.4742957 119.2183619 112.4040783   8.5654176 118.9342652 112.5013253
   9.5038041 119.6382698 111.5444090  14.7062224 122.8290209 116.1731951
  14.2524551 121.9881118 116.2297141  14.0756191 123.4651607 116.5106731
  13.6495144 113.7582195 117.4032618  12.9117901 113.2459581 117.7342861
  13.9021917 113.3182576 116.5915895  13.1495164 124.6666705 117.1081769
  13.4418138 125.2271762 116.3894134  13.6593784 124.9595266 117.8634928
  13.7506771 106.5358447 117.9974387  14.0565648 105.6755810 117.7100302
  14.4759376 107.1276067 117.7973381   8.0227851 116.8312240 118.5050578
   8.0776461 115.8786076 118.4293055   7.2119053 116.9871679 118.9891877
   9.1719045 120.7592363 109.7428862   8.7338475 120.0428222 109.2834499
   9.9129486 120.9868478 109.1813953   5.9620211 115.4489299 116.2640957
   5.1488076 115.7483470 116.6706149   6.4579205 115.0544988 116.9815440
   8.1128789 125.4447056 118.1975222   8.0704968 125.6707903 117.2683754
   9.0291488 125.2110431 118.3461023  11.5594423 115.9131124 125.0955851
  11.9143810 116.1402597 125.9550317  12.2066554 116.2449501 124.4733107
  17.2892159 119.0349560 115.8005180  17.1510058 119.2251156 114.8726369
  16.9328378 119.7968943 116.2573231   5.4534286 113.0207655 121.8802192
   6.0933665 112.8796414 121.1825156   4.6211816 112.7342168 121.5040794
  17.3161539 121.1026087 120.8116452  17.7498046 121.0101376 121.6599506
  18.0293120 121.0783587 120.1736468   6.2294589 122.3210085 117.9937185
   7.0235188 121.8260405 117.7919760   5.5186282 121.7927948 117.6304890
  11.0489434 124.7028181 122.3449552  11.1026456 125.2719117 123.1127268
  10.1804215 124.8730066 121.9803590   2.5377353 116.4653167 114.0696937
   1.6074941 116.4037623 114.2866900   2.6334825 115.9429120 113.2733579
   2.4562902 112.9907980 116.6575179   2.7169719 113.9053313 116.5484340
   3.2780074 112.5232422 116.8071792   3.9287827 114.4045737 123.8274004
   4.6010881 114.1963099 123.1786653   3.1017614 114.2067823 123.3879236
  18.1777089 121.1449787 123.3449337  18.3712979 122.0495598 123.5908612
  18.0777707 120.6857206 124.1787922   9.8313399 111.0307678 125.8439665
   9.1841314 111.7297628 125.7504141  10.6014415 111.4643822 126.2115913
  13.2392197 121.2956530 128.9190218  13.0877704 121.0667082 128.0020301
  13.2296877 122.2527132 128.9321563  10.0077534 118.8688443 123.9036484
  10.9369594 119.0199602 123.7305452   9.5868564 118.9572464 123.0485131
   8.8065865 122.8939107 121.6735022   8.6676951 122.5257892 122.5460960
   8.0180462 123.4086747 121.5018980   9.4014017 127.9948204 113.0160558
   9.5765773 127.5236247 113.8306181   8.7146805 128.6213970 113.2441819
  10.3571081 122.2720710 119.0623860  10.0220913 122.2321480 119.9581510
   9.8575026 121.6065426 118.5894270   4.3315325 117.6788340 124.5876441
   4.1935123 116.9468579 125.1887980   5.2420248 117.5897240 124.3060629
  13.2930272 119.6176744 109.3360919  12.6759443 118.8923572 109.2393972
  12.8246761 120.3786105 108.9927994   6.9597625 117.3908299 124.0760120
   7.6697244 116.7501492 124.0346739   6.9166933 117.6421194 124.9986301
  14.9484404 124.3275653 126.9966700  14.8896950 123.6434873 126.3297283
  15.3503922 125.0694643 126.5447326   5.6726559 114.3773517 125.8955760
   5.1363916 113.9264256 126.5477356   5.0843268 114.5119426 125.1526224
   5.0828818 113.8362169 108.4582224   4.2058285 113.7150969 108.0944470
   5.5586571 113.0448247 108.2061112  14.9501811 122.2915237 125.2280679
  14.0628590 121.9541158 125.3507078  15.5200362 121.5598268 125.4649445
   1.4065680 113.5129525 122.9808754   1.3223869 112.9055194 122.2459164
   0.5848387 114.0038543 122.9818251   8.4802965 126.9516689 122.1941923
   8.4073136 127.7571660 122.7061227   8.0380358 127.1508655 121.3689944
   8.2692744 126.1888459 115.7044744   7.4860266 126.7310139 115.7982969
   8.9685489 126.7062439 116.1038985  11.5789394 111.9983088 118.3478949
  12.0758094 111.2453051 118.0280020  10.8076376 112.0347405 117.7822159
  19.4319152 117.7023454 119.9897241  19.4209028 118.5848169 119.6191174
  18.5636531 117.3495005 119.7951778  10.9401648 126.8503523 124.3500081
  11.6529620 127.4850988 124.2775983  10.4491677 126.9467389 123.5340083
  12.6619175 120.7554776 115.9217373  11.7275454 120.8756238 115.7522077
  12.8395843 119.8527242 115.6577383   8.1624363 114.1400471 118.0750634
   7.7922151 113.5871512 118.7631540   8.6583456 113.5358605 117.5225634
  16.0491726 116.5972095 116.4567407  16.5152179 117.4300087 116.3827710
  16.4999227 116.1317077 117.1612665  14.1167957 122.9415916 113.4553559
  14.3927801 122.8272511 114.3647433  13.2472456 122.5433401 113.4165732
  14.0208389 108.9652682 120.4958308  13.1071469 109.1956909 120.6640515
  14.4501491 109.0491126 121.3472341  13.7914848 117.1542574 122.9958202
  13.1386298 117.4018481 122.3410655  14.1695228 116.3406712 122.6620680
  10.7522021 127.1902267 117.0986373  10.9344416 126.3723923 117.5614125
  11.5755008 127.4069959 116.6611263  11.0864187 126.1170452 114.3601421
  11.6151953 125.6062907 113.7471583  11.3492407 125.8012982 115.2246954
   4.4419935 127.1685569 117.1199197   3.7730310 127.6531697 116.6363237
   4.3032805 127.4154789 118.0342576   3.5589697 111.5504462 124.3203740
   3.6231023 112.4119293 123.9081138   3.4956817 110.9378464 123.5876099
  11.7193591 127.1511288 120.7045538  11.5944730 126.3501028 120.1956483
  12.3772682 127.6457481 120.2159508   3.3401759 113.5060020 119.8822678
   2.6188345 114.1195988 119.7430151   4.1295015 114.0417785 119.8039324
  13.7828499 124.9520308 122.3325088  12.8358835 124.8325659 122.2603414
  14.1311272 124.0642806 122.4151349   6.1428073 110.8414447 126.1563330
   6.6662474 111.0876743 126.9189639   5.9240406 111.6734482 125.7366467
   1.5395354 113.1118122 114.0234454   1.2108060 112.2315500 113.8409560
   1.8934724 113.0565790 114.9110844  10.7874932 124.7473024 118.5329440
  10.6399895 123.8189732 118.7137010  11.6128426 124.7693115 118.0486515
   4.6537177 113.3991091 114.3909932   4.9933249 113.9277013 113.6688540
   5.1009297 113.7371497 115.1668499  14.3909054 125.5701583 119.6194313
  15.3155602 125.3644444 119.4818764  14.2224358 125.3217984 120.5283654
   7.3480618 111.7828142 123.8413000   7.0077438 110.9835955 124.2433680
   6.6419624 112.0829853 123.2689833   7.9997089 108.8677454 122.2940323
   8.8223159 108.3937933 122.1719213   8.2435153 109.6467938 122.7939009
   6.6405324 111.8965713 112.5903225   7.3613686 112.2746966 112.0866942
   6.0170628 112.6154590 112.6938203  10.7836447 112.6010862 113.5261557
  11.0000061 113.4835500 113.2250385  10.3030514 112.2097075 112.7967199
   5.5235668 115.5596575 120.1032302   5.3780249 115.8736878 120.9956583
   5.0460872 116.1781475 119.5503200   7.3832051 112.5499123 120.1513191
   7.3693620 111.6540216 119.8145489   8.1004479 112.5569787 120.7851477
   9.2358182 112.9836463 122.1966319   8.9775960 113.9053534 122.1950649
   8.7043222 112.5866898 122.8866783  14.1804371 126.0887250 114.9756404
  14.3541248 125.5233673 114.2230257  14.6733262 126.8888145 114.7935894
   6.7868947 111.4313503 115.4200761   6.9084858 110.5030150 115.6191649
   6.4970989 111.4452189 114.5079077   9.6560137 109.1168414 118.5567481
   9.6781834 109.1807747 117.6019461  10.0728196 108.2772922 118.7507987
  20.0343762 118.8523673 116.5946704  20.4774908 118.1030999 116.1965827
  19.1570272 118.8433810 116.2120436  15.1679543 125.4054015 112.0753302
  15.8630448 126.0260708 112.2940617  15.5102693 124.5549366 112.3505680
  17.0670966 122.8553720 113.6040633  17.5922290 123.1940993 112.8789953
  16.9793319 121.9200736 113.4203768   8.7511627 128.9225704 117.9635886
   8.3116617 128.4302082 118.6568743   9.5019744 128.3798671 117.7227962
   1.2303966 125.1137245 117.9660514   2.0561986 124.8141016 117.5859158
   0.8798018 124.3444867 118.4150303   6.1985499 124.4663713 120.0358188
   5.5765508 123.8034418 119.7360416   6.8690366 124.4924845 119.3531836
   6.2710027 112.9445501 129.6290694   6.3198182 113.8207624 129.2468464
   6.8132541 112.4022894 129.0562337  16.7564872 123.4886624 128.9091831
  15.9660416 123.4710763 128.3696331  16.5198227 124.0274918 129.6640868
  16.8762747 120.3379090 126.2224560  16.9260752 120.1729098 127.1640082
  16.7676671 119.4706349 125.8322440   5.7599006 123.0167636 113.5116649
   5.9087126 123.7003100 112.8583321   6.5665449 122.9972726 114.0266104
  14.1666510 116.3210018 127.5383866  15.0676372 116.1816483 127.2467864
  14.2414484 116.4864473 128.4782044   8.5009315 113.6976873 126.3837053
   7.6312624 113.9910439 126.1119641   8.7368795 114.2817318 127.1044316
  18.3780944 122.7576032 126.4666581  18.0865752 123.1206012 127.3030042
  17.7653075 122.0443040 126.2879913  19.5776626 120.3228912 118.9869151
  20.4123518 120.7618716 119.1506712  19.7135755 119.8467565 118.1677397
  16.6268132 117.8808647 124.9346639  17.1022254 118.0736293 124.1265491
  15.7033698 117.9367832 124.6890023   3.5151639 119.0432814 114.5177717
   3.2697681 118.1395144 114.7157928   3.6847553 119.0449964 113.5757195
  11.2048349 109.9156490 123.9002473  11.7230293 110.6517517 123.5748962
  10.8503482 110.2220483 124.7349232   2.7847286 114.7761171 112.0163879
   2.0916531 114.8505526 111.3603915   2.5399038 114.0121515 112.5385396
  11.4560943 106.3356773 119.4203370  11.7362697 105.6679962 120.0463796
  12.2411550 106.5285868 118.9078034   9.2594411 125.5115767 110.9828396
   8.6868379 126.1305954 110.5298868   9.8327205 126.0615128 111.5168318
  15.3269801 114.7574407 123.1674945  16.2787224 114.8572504 123.1887169
  15.1573252 113.9652675 123.6773029  13.3484181 111.8429990 123.3534346
  12.7534113 112.1235003 122.6580834  13.0633877 112.3323891 124.1251087
  12.4791671 125.7952917 112.1136978  13.4122344 125.7298478 112.3169854
  12.3914884 126.6309184 111.6551511  15.1079688 125.1118787 109.0740926
  15.0293319 124.7778651 109.9676684  15.9289355 125.6040555 109.0732398
  17.8057879 117.9780526 122.2817244  17.7734199 117.0396527 122.4676928
  18.4158503 118.0564563 121.5483069   9.6441210 116.8476579 108.3244448
  10.5900315 116.7182787 108.3932867   9.2655455 116.1091241 108.8013877
  17.9552368 114.7691570 122.3275528  17.4391416 113.9850026 122.1405456
  18.8392316 114.4410286 122.4922047  15.6163095 108.5132585 118.2871340
  15.4187916 108.2047673 119.1714672  16.2262800 109.2394224 118.4169270
  23.6234429 119.0396533 121.4223281  24.3537817 118.7781821 121.9830985
  23.0141374 118.3025255 121.4625349  21.7049726 117.1804396 122.0197732
  20.9782890 117.0460361 121.4114224  21.2897013 117.4881224 122.8254450
   7.8284127 114.7726556 108.2599334   6.9215583 114.4759668 108.3362047
   8.1060108 114.4756374 107.3933620   2.5241975 118.8095360 122.4267887
   2.7427985 119.7412468 122.4455920   2.9367749 118.4503334 123.2122690
   9.4446193 109.3163445 114.4143575   8.6346921 108.9710530 114.7898821
  10.1330610 109.0070989 115.0031187  11.3736741 108.3941492 116.0367872
  11.9267780 108.8136946 116.6957895  11.6106827 107.4677240 116.0790828
   6.5982912 111.6313491 108.4011313   7.4602076 111.9568389 108.6607130
   6.7833256 110.8444987 107.8884379  14.7515548 110.5042017 115.5446536
  14.1714217 111.1626821 115.1624588  14.4851481 109.6819362 115.1333953
  13.2019115 109.9047075 117.7467856  13.7018893 110.0163610 116.9382175
  13.8454723 109.6008128 118.3868665   0.5287070 119.6454084 118.5557517
   0.5057758 119.7441772 117.6039400   0.8387707 120.4919235 118.8774683
  13.5340426 112.6642108 114.6002884  12.6466281 112.9491758 114.3823079
  13.9494415 112.5035871 113.7530161  16.8854962 112.6888629 118.3157223
  17.6615352 113.1785081 118.5881840  16.1603097 113.1146683 118.7729093
  19.3227521 113.4016248 119.3731164  19.9172012 113.1611984 118.6624472
  19.3954105 112.6823378 120.0004700  12.6783640 122.4286782 108.6950904
  13.3819490 122.6336785 109.3108560  11.9546288 122.9963544 108.9599988
  13.5081450 118.1796644 114.8153174  13.4516651 118.6365195 113.9760807
  14.0609792 117.4187328 114.6376017  17.3186256 113.9686376 115.6403294
  17.0623190 113.5683011 116.4711502  16.6939124 114.6830169 115.5153433
  21.6298594 116.7082449 118.1474585  21.0698152 116.7775638 118.9206147
  21.0242097 116.5323433 117.4274081  14.5870337 122.8669312 110.7449364
  15.4215941 122.4350510 110.5626839  14.4254680 122.6951325 111.6726259
  14.2416229 119.3701425 112.1105704  14.1865033 119.2045696 111.1694148
  13.6162285 120.0777458 112.2667893   7.5512355 108.8709534 111.6891022
   7.5391025 109.8151374 111.8459293   8.4435777 108.6879679 111.3950483
   7.4801919 127.5478424 119.7758779   6.5297550 127.5480286 119.6623151
   7.7834405 126.8011159 119.2594813  11.3664474 105.4652311 115.9436959
  10.5996870 104.9110797 116.0893641  11.7775179 105.5374179 116.8051110
  23.2154612 133.3838963 120.8404541  23.8533022 133.2645710 120.1367881
  23.0975455 134.3319807 120.8992493  20.0244318 133.3366391 120.7766066
  19.6862830 133.2207456 119.8886601  20.8934087 132.9357556 120.7567072
  15.8831134 135.1901867 116.7662957  15.3195999 135.0991804 115.9979244
  15.7683529 134.3701772 117.2465449  20.5064101 134.4901243 126.7352271
  20.4952742 134.0954041 125.8632775  20.6684741 133.7567315 127.3286043
  13.4295566 136.6853059 119.6047177  14.2216858 136.3443883 119.1893476
  13.6692216 136.7948034 120.5249330  21.4630693 138.8572835 112.0777422
  20.8118673 139.4426915 111.6911435  22.2575056 139.3879030 112.1372459
  15.3886320 135.9461972 112.4764556  16.1617196 135.3990959 112.3377432
  15.7411719 136.8106221 112.6879017  18.1527569 134.6515203 122.2732815
  18.7491142 134.4271225 121.5589778  18.2102541 133.9099948 122.8758263
  17.7252598 132.1054638 110.1083006  17.9778119 131.5836159 109.3466469
  16.7877157 131.9420784 110.2109689  22.7695881 131.1090417 117.9157749
  23.5558970 130.6909840 117.5648166  23.0334585 132.0136509 118.0839397
  22.9405958 136.5463267 112.6146406  22.3051791 136.6197893 113.3267310
  22.6103364 137.1356866 111.9365485  28.1704308 131.0465650 118.8190728
  28.9029480 130.4764867 119.0528557  27.4143664 130.6587250 119.2597233
  17.4448887 134.0082744 112.3107381  17.3285145 133.3327648 112.9788465
  17.5551147 133.5215118 111.4939534  19.7880428 133.4692891 116.0154070
  19.4238635 132.9423512 116.7266991  20.6447543 133.0791360 115.8420555
  25.6929728 124.7587224 123.2785336  25.3613053 125.6282635 123.0546551
  25.0975342 124.4423508 123.9579367  19.4285915 128.4982791 111.0115418
  19.5960317 129.3663027 111.3785890  19.2383084 128.6610073 110.0876708
  22.1861248 136.9599770 122.6781249  21.8861971 137.8624809 122.5697056
  21.8412307 136.6931953 123.5302402  15.6373729 133.4113567 118.7117953
  14.7124226 133.2789781 118.9195645  15.8858142 134.1907786 119.2087896
  25.5858392 129.4782310 120.3578686  24.6775269 129.4097718 120.0637447
  25.5345987 129.9554255 121.1860512  19.4075135 130.9540448 111.9962085
  19.2874761 131.3997499 112.8347566  18.7127724 131.3025766 111.4375623
  12.9982540 133.0546840 119.5461742  13.1274921 133.3081319 120.4601154
  12.3179992 133.6474548 119.2266397  19.6599257 130.8971956 128.3013583
  18.8832591 131.4565876 128.2916448  20.2989820 131.3828739 128.8228454
  27.4520038 127.6798748 122.1356560  26.8094418 127.9731282 121.4896355
  26.9474966 127.5651669 122.9409757  25.1060202 131.4261922 112.8242419
  26.0178058 131.6589308 112.6490117  24.5969849 132.0098966 112.2617498
  23.3900969 135.8486549 126.4603712  23.7984325 135.4068960 125.7158344
  22.6678231 135.2739177 126.7137905  19.7432039 130.7859156 123.8337269
  20.5893234 131.2098570 123.9771918  19.6830677 130.1292781 124.5275832
  23.7129784 136.4087740 120.2156001  23.0838646 136.5733454 119.5132069
  23.3255446 136.8229350 120.9866965  27.5919016 137.3442178 117.5700365
  26.9070054 137.7241079 117.0197398  27.6762865 137.9537505 118.3032312
  22.8931485 128.4463525 125.4918443  22.6492416 129.2005585 124.9552718
  23.1691415 128.8248872 126.3265690  24.8469947 134.9902137 124.1695708
  25.0586843 135.6333897 123.4930089  24.7999696 134.1564454 123.7017638
  22.4496176 127.6019958 121.0732280  21.5880655 127.9001211 121.3649018
  22.4758611 127.8190357 120.1413313  19.2657746 136.1462148 117.4806086
  19.7296091 136.4249851 116.6910708  19.0014544 135.2445593 117.2979177
  16.1581827 135.6933630 120.4185849  16.7283184 136.1220898 119.7803334
  16.7489939 135.4116214 121.1170035  18.2026632 132.2685301 114.2895651
  18.9050675 132.7206344 114.7569577  17.8707260 131.6269119 114.9175544
  11.9451966 130.5268853 119.5912785  11.1551020 130.7826382 119.1152895
  12.4363213 131.3417191 119.6964825  25.9615775 137.8674092 122.3418065
  26.7833219 137.4654280 122.0600747  25.9578178 137.7642327 123.2934181
  13.8966711 130.8913432 116.5496261  13.0997874 131.0032127 117.0679757
  13.6692303 131.2300085 115.6837152  19.7272379 137.4158136 124.4978776
  19.7916811 137.8778543 125.3336948  19.0183303 136.7855501 124.6261086
  10.2289669 130.7799344 122.0227775  10.4797707 131.6646354 122.2885351
  10.7649217 130.6003945 121.2502867  34.0521768 134.2112841 118.6903037
  33.2985477 133.6420239 118.5347041  34.1869310 134.1775505 119.6373672
  19.4420396 139.0826243 114.3657756  19.3066071 139.9277779 114.7942604
  19.9830209 139.2845521 113.6023690  12.8949794 136.6001681 114.9385681
  13.4074314 137.3944931 115.0891246  13.5472507 135.9027972 114.8719283
  14.7044679 139.7167437 117.0208435  14.8811307 140.6385402 116.8329418
  15.5001512 139.4025857 117.4502814  18.8455697 126.5775702 128.6192368
  19.5865410 127.1782855 128.5396831  19.0773620 125.8353340 128.0610411
  23.1670111 139.9852610 126.5239500  23.1488586 140.8061491 126.0319769
  24.0890031 139.8606685 126.7489641  22.7912860 122.6056805 122.8956650
  22.4477129 123.4958447 122.8195760  23.1591823 122.4158463 122.0326235
  10.8598711 134.9290336 115.7145252  11.6973933 135.3387344 115.4978960
  11.0376978 133.9889778 115.6845446  22.7563143 132.5965416 111.4029085
  22.2409766 133.3670021 111.6417472  22.4840451 131.9230552 112.0262146
  20.3410254 127.4415117 116.4614323  19.4851850 127.0521967 116.2819962
  20.7537206 127.5207078 115.6014109  21.8709400 124.9761460 120.8605883
  21.3674196 124.9391595 120.0473688  22.1640007 125.8854203 120.9202540
  18.1152286 125.0600190 119.8672065  18.9805283 124.8642999 119.5077954
  18.1829795 124.8310542 120.7941421  27.7297417 135.3497771 113.3382258
  26.9526860 135.0108930 112.8937420  28.4088898 135.3550394 112.6637223
  22.5449446 130.4692508 113.2288866  22.2399581 130.7838657 114.0799009
  23.4979888 130.5473928 113.2716199  20.9895878 136.6282732 114.8781820
  20.4617239 135.8935491 114.5655057  20.4883380 137.4057408 114.6321788
  25.9688724 134.8231752 119.9948866  25.3112398 135.5131013 120.0828995
  26.7729123 135.2128184 120.3382853  15.7214605 127.2902398 117.2388432
  16.2958357 127.0677579 116.5061624  16.3085588 127.3591092 117.9917033
  24.7794183 133.1776125 118.0452808  25.2926064 133.8106117 118.5474518
  25.4295406 132.5777320 117.6796168  16.0484192 129.3206859 111.2584317
  15.2121505 129.6581545 111.5793592  15.9088962 129.1855839 110.3211454
  18.0237273 124.1643647 115.9663501  17.3701685 123.8492664 115.3420116
  17.9817747 123.5419387 116.6923324  19.1348478 134.4462942 107.8816793
  18.2275540 134.2152195 108.0807942  19.6319510 133.6500561 108.0690775
  21.2575013 130.6525580 120.2911149  20.3397575 130.8740527 120.1332837
  21.6735157 130.7271891 119.4322856  22.0410061 132.0516996 115.4213829
  22.7881880 132.5638393 115.1120951  22.3101651 131.7301049 116.2818222
  20.3136711 134.5475537 112.4040783  19.4047931 134.2634570 112.5013253
  20.3431795 134.9674615 111.5444090  25.5455979 138.1582126 116.1731951
  25.0918306 137.3173036 116.2297141  24.9149945 138.7943525 116.5106731
  24.4888898 129.0874112 117.4032618  23.7511655 128.5751498 117.7342861
  24.7415672 128.6474494 116.5915895  23.9888918 139.9958623 117.1081769
  24.2811892 140.5563680 116.3894134  24.4987539 140.2887184 117.8634928
  24.5900526 121.8650364 117.9974387  24.8959402 121.0047728 117.7100302
  25.3153130 122.4567984 117.7973381  10.8824882 132.2681051 116.3855985
  10.6849282 131.6750412 115.6607052  10.3271546 131.9633261 117.1031924
  18.8621605 132.1604157 118.5050578  18.9170215 131.2077994 118.4293055
  18.0512807 132.3163596 118.9891877  20.0112799 136.0884280 109.7428862
  19.5732229 135.3720139 109.2834499  20.7523240 136.3160395 109.1813953
  16.8013965 130.7781217 116.2640957  15.9881831 131.0775388 116.6706149
  17.2972959 130.3836906 116.9815440  18.9522543 140.7738974 118.1975222
  18.9098722 140.9999820 117.2683754  19.8685242 140.5402349 118.3461023
  22.3988177 131.2423042 125.0955851  22.7537565 131.4694515 125.9550317
  23.0460308 131.5741418 124.4733107  28.1285914 134.3641477 115.8005180
  27.9903813 134.5543073 114.8726369  27.7722133 135.1260860 116.2573231
  16.2928040 128.3499573 121.8802192  16.9327419 128.2088332 121.1825156
  15.4605571 128.0634086 121.5040794  28.1555294 136.4318004 120.8116452
  28.5891800 136.3393294 121.6599506  28.8686874 136.4075505 120.1736468
  17.0688344 137.6502003 117.9937185  17.8628942 137.1552323 117.7919760
  16.3580036 137.1219866 117.6304890  21.8883188 140.0320099 122.3449552
  21.9420211 140.6011035 123.1127268  21.0197970 140.2021984 121.9803590
  13.3771107 131.7945085 114.0696937  12.4468696 131.7329540 114.2866900
  13.4728579 131.2721037 113.2733579  13.2956656 128.3199898 116.6575179
  13.5563474 129.2345231 116.5484340  14.1173829 127.8524340 116.8071792
  14.7681582 129.7337655 123.8274004  15.4404635 129.5255017 123.1786653
  13.9411368 129.5359741 123.3879236  29.0170843 136.4741705 123.3449337
  29.2106733 137.3787516 123.5908612  28.9171461 136.0149124 124.1787922
  20.6707154 126.3599596 125.8439665  20.0235069 127.0589545 125.7504141
  21.4408169 126.7935740 126.2115913  24.0785952 136.6248448 128.9190218
  23.9271458 136.3959000 128.0020301  24.0690631 137.5819049 128.9321563
  20.8471288 134.1980361 123.9036484  21.7763348 134.3491520 123.7305452
  20.4262318 134.2864381 123.0485131  19.6459620 138.2231025 121.6735022
  19.5070706 137.8549809 122.5460960  18.8574216 138.7378664 121.5018980
  21.1964835 137.6012628 119.0623860  20.8614668 137.5613398 119.9581510
  20.6968781 136.9357344 118.5894270  15.1709079 133.0080258 124.5876441
  15.0328877 132.2760497 125.1887980  16.0814003 132.9189158 124.3060629
  24.1324027 134.9468662 109.3360919  23.5153197 134.2215490 109.2393972
  23.6640515 135.7078022 108.9927994  17.7991380 132.7200217 124.0760120
  18.5090998 132.0793409 124.0346739  17.7560688 132.9713112 124.9986301
  25.7878158 139.6567570 126.9966700  25.7290705 138.9726790 126.3297283
  26.1897677 140.3986560 126.5447326  16.5120314 129.7065435 125.8955760
  15.9757671 129.2556173 126.5477356  15.9237022 129.8411344 125.1526224
  15.9222573 129.1654086 108.4582224  15.0452039 129.0442887 108.0944470
  16.3980326 128.3740165 108.2061112  25.7895566 137.6207154 125.2280679
  24.9022344 137.2833076 125.3507078  26.3594117 136.8890186 125.4649445
  12.2459435 128.8421443 122.9808754  12.1617624 128.2347112 122.2459164
  11.4242141 129.3330461 122.9818251  19.1086499 141.5180377 115.7044744
  18.3254021 142.0602057 115.7982969  19.8079244 142.0354356 116.1038985
  22.4183149 127.3275006 118.3478949  22.9151848 126.5744968 118.0280020
  21.6470130 127.3639323 117.7822159  30.2712906 133.0315372 119.9897241
  30.2602782 133.9140087 119.6191174  29.4030286 132.6786922 119.7951778
  21.7795403 142.1795441 124.3500081  22.4923375 142.8142906 124.2775983
  21.2885431 142.2759307 123.5340083  23.5012930 136.0846693 115.9217373
  22.5669208 136.2048156 115.7522077  23.6789598 135.1819160 115.6577383
  19.0018118 129.4692389 118.0750634  18.6315905 128.9163430 118.7631540
  19.4977210 128.8650523 117.5225634  26.8885481 131.9264013 116.4567407
  27.3545933 132.7592004 116.3827710  27.3392981 131.4608994 117.1612665
  24.9561712 138.2707834 113.4553559  25.2321556 138.1564429 114.3647433
  24.0866211 137.8725319 113.4165732  24.8602144 124.2944600 120.4958308
  23.9465223 124.5248826 120.6640515  25.2895245 124.3783044 121.3472341
  24.6308602 132.4834492 122.9958202  23.9780052 132.7310399 122.3410655
  25.0088982 131.6698630 122.6620680  21.5915776 142.5194185 117.0986373
  21.7738171 141.7015841 117.5614125  22.4148762 142.7361877 116.6611263
  21.9257941 141.4462370 114.3601421  22.4545708 140.9354824 113.7471583
  22.1886161 141.1304900 115.2246954  14.3983451 126.8796380 124.3203740
  14.4624778 127.7411211 123.9081138  14.3350571 126.2670382 123.5876099
  10.6501267 130.7595942 113.8995129  10.9454708 129.8506620 113.8462183
   9.7489302 130.7383681 113.5776132  22.5587345 142.4803206 120.7045538
  22.4338485 141.6792945 120.1956483  23.2166436 142.9749399 120.2159508
  14.1795514 128.8351938 119.8822678  13.4582099 129.4487906 119.7430151
  14.9688769 129.3709703 119.8039324  24.6222254 140.2812226 122.3325088
  23.6752589 140.1617577 122.2603414  24.9705027 139.3934724 122.4151349
  16.9821827 126.1706365 126.1563330  17.5056229 126.4168661 126.9189639
  16.7634160 127.0026399 125.7366467  12.3789108 128.4410039 114.0234454
  12.0501814 127.5607418 113.8409560  12.7328479 128.3857708 114.9110844
  21.6268687 140.0764942 118.5329440  21.4793649 139.1481649 118.7137010
  22.4522180 140.0985033 118.0486515  15.4930931 128.7283009 114.3909932
  15.8327004 129.2568930 113.6688540  15.9403052 129.0663415 115.1668499
  25.2302809 140.8993501 119.6194313  26.1549356 140.6936362 119.4818764
  25.0618112 140.6509902 120.5283654  18.1874372 127.1120060 123.8413000
  17.8471192 126.3127873 124.2433680  17.4813378 127.4121771 123.2689833
  18.8390844 124.1969372 122.2940323  19.6616913 123.7229850 122.1719213
  19.0828907 124.9759856 122.7939009  17.4799078 127.2257631 112.5903225
  18.2007441 127.6038883 112.0866942  16.8564383 127.9446507 112.6938203
  21.6230201 127.9302780 113.5261557  21.8393816 128.8127417 113.2250385
  21.1424268 127.5388993 112.7967199  16.3629423 130.8888493 120.1032302
  16.2174003 131.2028796 120.9956583  15.8854626 131.5073393 119.5503200
  18.2225806 127.8791041 120.1513191  18.2087374 126.9832134 119.8145489
  18.9398234 127.8861705 120.7851477  20.0751936 128.3128381 122.1966319
  19.8169714 129.2345452 122.1950649  19.5436977 127.9158816 122.8866783
  25.0198125 141.4179168 114.9756404  25.1935003 140.8525591 114.2230257
  25.5127016 142.2180063 114.7935894  17.6262701 126.7605421 115.4200761
  17.7478613 125.8322067 115.6191649  17.3364744 126.7744107 114.5079077
  20.4953892 124.4460332 118.5567481  20.5175589 124.5099665 117.6019461
  20.9121951 123.6064840 118.7507987  30.8737516 134.1815591 116.5946704
  31.3168662 133.4322916 116.1965827  29.9964026 134.1725727 116.2120436
  26.0073298 140.7345933 112.0753302  26.7024202 141.3552625 112.2940617
  26.3496448 139.8841284 112.3505680  27.9064721 138.1845638 113.6040633
  28.4316045 138.5232911 112.8789953  27.8187073 137.2492653 113.4203768
  17.0379254 139.7955630 120.0358188  16.4159263 139.1326335 119.7360416
  17.7084120 139.8216762 119.3531836  17.1103781 128.2737418 129.6290694
  17.1591936 129.1499541 129.2468464  17.6526295 127.7314811 129.0562337
  27.5958627 138.8178542 128.9091831  26.8054170 138.8002681 128.3696331
  27.3591981 139.3566835 129.6640868  27.7156502 135.6671008 126.2224560
  27.7654507 135.5021016 127.1640082  27.6070425 134.7998267 125.8322440
  16.5992760 138.3459554 113.5116649  16.7480881 139.0295018 112.8583321
  17.4059204 138.3264644 114.0266104  25.0060264 131.6501936 127.5383866
  25.9070127 131.5108401 127.2467864  25.0808239 131.8156391 128.4782044
  19.3403069 129.0268791 126.3837053  18.4706379 129.3202357 126.1119641
  19.5762550 129.6109236 127.1044316  29.2174699 138.0867950 126.4666581
  28.9259507 138.4497930 127.3030042  28.6046830 137.3734958 126.2879913
  30.4170381 135.6520829 118.9869151  31.2517272 136.0910633 119.1506712
  30.5529510 135.1759483 118.1677397  27.4661887 133.2100564 124.9346639
  27.9416008 133.4028211 124.1265491  26.5427452 133.2659750 124.6890023
  14.3545393 134.3724731 114.5177717  14.1091435 133.4687061 114.7157928
  14.5241308 134.3741882 113.5757195  22.0442103 125.2448408 123.9002473
  22.5624047 125.9809435 123.5748962  21.6897236 125.5512401 124.7349232
  13.6241041 130.1053089 112.0163879  12.9310286 130.1797444 111.3603915
  13.3792793 129.3413433 112.5385396  22.2954697 121.6648690 119.4203370
  22.5756451 120.9971879 120.0463796  23.0805304 121.8577786 118.9078034
  20.0988166 140.8407684 110.9828396  19.5262133 141.4597871 110.5298868
  20.6720960 141.3907046 111.5168318  26.1663556 130.0866324 123.1674945
  27.1180979 130.1864422 123.1887169  25.9967006 129.2944593 123.6773029
  24.1877935 127.1721908 123.3534346  23.5927867 127.4526920 122.6580834
  23.9027632 127.6615808 124.1251087  23.3185426 141.1244834 112.1136978
  24.2516099 141.0590396 112.3169854  23.2308639 141.9601101 111.6551511
  25.9473442 140.4410705 109.0740926  25.8687074 140.1070568 109.9676684
  26.7683109 140.9332473 109.0732398  28.6451634 133.3072444 122.2817244
  28.6127954 132.3688445 122.4676928  29.2552257 133.3856481 121.5483069
  20.4834964 132.1768497 108.3244448  21.4294069 132.0474705 108.3932867
  20.1049209 131.4383159 108.8013877  28.7946122 130.0983487 122.3275528
  28.2785171 129.3141944 122.1405456  29.6786071 129.7702204 122.4922047
  26.4556849 123.8424503 118.2871340  26.2581670 123.5339591 119.1714672
  27.0656555 124.5686142 118.4169270  34.4628183 134.3688451 121.4223281
  35.1931572 134.1073739 121.9830985  33.8535129 133.6317173 121.4625349
  32.5443481 132.5096313 122.0197732  31.8176644 132.3752278 121.4114224
  32.1290767 132.8173142 122.8254450  18.6677882 130.1018473 108.2599334
  17.7609337 129.8051586 108.3362047  18.9453863 129.8048291 107.3933620
   9.5855822 131.4224837 118.7098380   9.2658606 130.5690145 118.4172754
   9.0389250 131.6373415 119.4656347  13.3635730 134.1387278 122.4267887
  13.5821739 135.0704386 122.4455920  13.7761503 133.7795252 123.2122690
  20.2839947 124.6455363 114.4143575  19.4740676 124.3002448 114.7898821
  20.9724364 124.3362907 115.0031187  22.2130496 123.7233410 116.0367872
  22.7661534 124.1428863 116.6957895  22.4500582 122.7969158 116.0790828
  17.4376666 126.9605409 108.4011313  18.2995830 127.2860307 108.6607130
  17.6227010 126.1736904 107.8884379  25.5909303 125.8333935 115.5446536
  25.0107972 126.4918739 115.1624588  25.3245235 125.0111280 115.1333953
  24.0412869 125.2338993 117.7467856  24.5412647 125.3455527 116.9382175
  24.6848477 124.9300046 118.3868665  11.3680825 134.9746002 118.5557517
  11.3451513 135.0733689 117.6039400  11.6781461 135.8211153 118.8774683
  24.3734181 127.9934025 114.6002884  23.4860036 128.2783676 114.3823079
  24.7888170 127.8327789 113.7530161  27.7248717 128.0180546 118.3157223
  28.5009107 128.5076999 118.5881840  26.9996851 128.4438601 118.7729093
  30.1621275 128.7308166 119.3731164  30.7565766 128.4903902 118.6624472
  30.2347859 128.0115296 120.0004700  23.5177394 137.7578700 108.6950904
  24.2213244 137.9628703 109.3108560  22.7940043 138.3255462 108.9599988
  24.3475204 133.5088561 114.8153174  24.2910406 133.9657113 113.9760807
  24.9003547 132.7479246 114.6376017  28.1580010 129.2978293 115.6403294
  27.9016945 128.8974929 116.4711502  27.5332878 130.0122087 115.5153433
  32.4692348 132.0374366 118.1474585  31.9091906 132.1067556 118.9206147
  31.8635852 131.8615351 117.4274081  25.4264092 138.1961229 110.7449364
  26.2609696 137.7642428 110.5626839  25.2648435 138.0243243 111.6726259
  25.0809984 134.6993343 112.1105704  25.0258788 134.5337614 111.1694148
  24.4556039 135.4069375 112.2667893  18.3906109 124.2001452 111.6891022
  18.3784779 125.1443292 111.8459293  19.2829531 124.0171597 111.3950483
  22.2058229 120.7944228 115.9436959  21.4390625 120.2402715 116.0893641
  22.6168934 120.8666097 116.8051110  33.6089635 146.4382334 117.9157749
  34.3952724 146.0201757 117.5648166  33.8728340 147.3428426 118.0839397
  39.0098062 146.3757567 118.8190728  39.7423234 145.8056784 119.0528557
  38.2537418 145.9879168 119.2597233  36.5323483 140.0879142 123.2785336
  36.2006807 140.9574553 123.0546551  35.9369096 139.7715426 123.9579367
  30.2679669 143.8274709 111.0115418  30.4354071 144.6954945 111.3785890
  30.0776838 143.9901990 110.0876708  36.4252146 144.8074228 120.3578686
  35.5169023 144.7389636 120.0637447  36.3739742 145.2846173 121.1860512
  38.2913792 143.0090666 122.1356560  37.6488173 143.3023199 121.4896355
  37.7868721 142.8943586 122.9409757  35.9453956 146.7553839 112.8242419
  36.8571812 146.9881226 112.6490117  35.4363603 147.3390884 112.2617498
  30.5825794 146.1151074 123.8337269  31.4286989 146.5390487 123.9771918
  30.5224431 145.4584698 124.5275832  33.7325239 143.7755442 125.4918443
  33.4886171 144.5297503 124.9552718  34.0085170 144.1540790 126.3265690
  33.2889931 142.9311875 121.0732280  32.4274410 143.2293129 121.3649018
  33.3152365 143.1482274 120.1413313  44.8915523 149.5404759 118.6903037
  44.1379231 148.9712157 118.5347041  45.0263064 149.5067423 119.6373672
  29.6849452 141.9067620 128.6192368  30.4259165 142.5074773 128.5396831
  29.9167374 141.1645258 128.0610411  33.6306614 137.9348723 122.8956650
  33.2870884 138.8250364 122.8195760  33.9985577 137.7450380 122.0326235
  31.1804008 142.7707035 116.4614323  30.3245605 142.3813885 116.2819962
  31.5930960 142.8498995 115.6014109  32.7103155 140.3053378 120.8605883
  32.2067950 140.2683513 120.0473688  33.0033762 141.2146121 120.9202540
  28.9546041 140.3892108 119.8672065  29.8199038 140.1934916 119.5077954
  29.0223550 140.1602459 120.7941421  33.3843200 145.7984426 113.2288866
  33.0793336 146.1130575 114.0799009  34.3373643 145.8765846 113.2716199
  26.5608360 142.6194316 117.2388432  27.1352112 142.3969497 116.5061624
  27.1479342 142.6883010 117.9917033  26.8877947 144.6498777 111.2584317
  26.0515259 144.9873463 111.5793592  26.7482717 144.5147756 110.3211454
  28.8631028 139.4935564 115.9663501  28.2095440 139.1784582 115.3420116
  28.8211502 138.8711305 116.6923324  32.0968768 145.9817498 120.2911149
  31.1791329 146.2032445 120.1332837  32.5128912 146.0563808 119.4322856
  35.3282653 144.4166030 117.4032618  34.5905410 143.9043416 117.7342861
  35.5809426 143.9766412 116.5915895  35.4294280 137.1942282 117.9974387
  35.7353157 136.3339645 117.7100302  36.1546885 137.7859902 117.7973381
  33.2381931 146.5714959 125.0955851  33.5931319 146.7986432 125.9550317
  33.8854063 146.9033336 124.4733107  27.1321795 143.6791490 121.8802192
  27.7721174 143.5380249 121.1825156  26.2999325 143.3926004 121.5040794
  31.5100908 141.6891513 125.8439665  30.8628823 142.3881463 125.7504141
  32.2801924 142.1227657 126.2115913  27.3514068 145.0357353 125.8955760
  26.8151425 144.5848091 126.5477356  26.7630777 145.1703261 125.1526224
  26.7616327 144.4946004 108.4582224  25.8845793 144.3734805 108.0944470
  27.2374080 143.7032082 108.2061112  33.2576903 142.6566924 118.3478949
  33.7545603 141.9036886 118.0280020  32.4863885 142.6931240 117.7822159
  41.1106661 148.3607289 119.9897241  41.0996537 149.2432005 119.6191174
  40.2424040 148.0078840 119.7951778  29.8411872 144.7984307 118.0750634
  29.4709660 144.2455347 118.7631540  30.3370965 144.1942440 117.5225634
  37.7279235 147.2555930 116.4567407  38.1939688 148.0883922 116.3827710
  38.1786736 146.7900912 117.1612665  35.6995898 139.6236517 120.4958308
  34.7858978 139.8540744 120.6640515  36.1289000 139.7074961 121.3472341
  35.4702357 147.8126409 122.9958202  34.8173807 148.0602317 122.3410655
  35.8482737 146.9990547 122.6620680  25.2377206 142.2088298 124.3203740
  25.3018532 143.0703128 123.9081138  25.1744326 141.5962299 123.5876099
  27.8215582 141.4998282 126.1563330  28.3449983 141.7460579 126.9189639
  27.6027915 142.3318317 125.7366467  23.2182863 143.7701957 114.0234454
  22.8895569 142.8899336 113.8409560  23.5722233 143.7149626 114.9110844
  26.3324686 144.0574927 114.3909932  26.6720758 144.5860848 113.6688540
  26.7796806 144.3955333 115.1668499  29.0268127 142.4411977 123.8413000
  28.6864947 141.6419790 124.2433680  28.3207133 142.7413688 123.2689833
  29.6784598 139.5261290 122.2940323  30.5010668 139.0521768 122.1719213
  29.9222662 140.3051774 122.7939009  28.3192833 142.5549548 112.5903225
  29.0401195 142.9330801 112.0866942  27.6958137 143.2738425 112.6938203
  32.4623956 143.2594697 113.5261557  32.6787570 144.1419335 113.2250385
  31.9818023 142.8680911 112.7967199  29.0619560 143.2082958 120.1513191
  29.0481129 142.3124052 119.8145489  29.7791988 143.2153622 120.7851477
  30.9145691 143.6420299 122.1966319  30.6563469 144.5637369 122.1950649
  30.3830731 143.2450733 122.8866783  28.4656456 142.0897339 115.4200761
  28.5872367 141.1613985 115.6191649  28.1758498 142.1036025 114.5079077
  31.3347646 139.7752249 118.5567481  31.3569343 139.8391582 117.6019461
  31.7515705 138.9356758 118.7507987  41.7131271 149.5107509 116.5946704
  42.1562417 148.7614834 116.1965827  40.8357781 149.5017645 116.2120436
  27.9497536 143.6029336 129.6290694  27.9985691 144.4791459 129.2468464
  28.4920050 143.0606729 129.0562337  35.8454019 146.9793854 127.5383866
  36.7463881 146.8400319 127.2467864  35.9201993 147.1448309 128.4782044
  30.1796824 144.3560709 126.3837053  29.3100133 144.6494275 126.1119641
  30.4156304 144.9401154 127.1044316  38.3055641 148.5392482 124.9346639
  38.7809763 148.7320128 124.1265491  37.3821207 148.5951668 124.6890023
  32.8835858 140.5740325 123.9002473  33.4017802 141.3101352 123.5748962
  32.5290991 140.8804319 124.7349232  33.1348452 136.9940608 119.4203370
  33.4150206 136.3263797 120.0463796  33.9199059 137.1869704 118.9078034
  37.0057310 145.4158242 123.1674945  37.9574733 145.5156340 123.1887169
  36.8360761 144.6236511 123.6773029  35.0271690 142.5013825 123.3534346
  34.4321622 142.7818838 122.6580834  34.7421386 142.9907726 124.1251087
  39.4845388 148.6364362 122.2817244  39.4521708 147.6980362 122.4676928
  40.0946012 148.7148398 121.5483069  39.6339877 145.4275405 122.3275528
  39.1178925 144.6433862 122.1405456  40.5179825 145.0994122 122.4922047
  37.2950603 139.1716421 118.2871340  37.0975425 138.8631509 119.1714672
  37.9050309 139.8978060 118.4169270  45.3021938 149.6980368 121.4223281
  46.0325326 149.4365657 121.9830985  44.6928883 148.9609090 121.4625349
  43.3837235 147.8388231 122.0197732  42.6570399 147.7044196 121.4114224
  42.9684522 148.1465060 122.8254450  29.5071636 145.4310391 108.2599334
  28.6003092 145.1343504 108.3362047  29.7847617 145.1340209 107.3933620
  31.1233702 139.9747281 114.4143575  30.3134430 139.6294366 114.7898821
  31.8118119 139.6654824 115.0031187  33.0524250 139.0525328 116.0367872
  33.6055289 139.4720781 116.6957895  33.2894336 138.1261076 116.0790828
  28.2770421 142.2897326 108.4011313  29.1389585 142.6152225 108.6607130
  28.4620765 141.5028822 107.8884379  36.4303057 141.1625853 115.5446536
  35.8501726 141.8210657 115.1624588  36.1638990 140.3403197 115.1333953
  34.8806624 140.5630910 117.7467856  35.3806402 140.6747445 116.9382175
  35.5242232 140.2591963 118.3868665  35.2127935 143.3225943 114.6002884
  34.3253790 143.6075594 114.3823079  35.6281924 143.1619706 113.7530161
  38.5642471 143.3472464 118.3157223  39.3402861 143.8368917 118.5881840
  37.8390606 143.7730518 118.7729093  41.0015030 144.0600083 119.3731164
  41.5959521 143.8195819 118.6624472  41.0741614 143.3407214 120.0004700
  38.9973765 144.6270211 115.6403294  38.7410699 144.2266847 116.4711502
  38.3726633 145.3414005 115.5153433  43.3086103 147.3666284 118.1474585
  42.7485661 147.4359473 118.9206147  42.7029606 147.1907269 117.4274081
  29.2299864 139.5293369 111.6891022  29.2178534 140.4735209 111.8459293
  30.1223286 139.3463515 111.3950483  33.0451983 136.1236146 115.9436959
  32.2784379 135.5694633 116.0893641  33.4562688 136.1958015 116.8051110
   1.5340506  65.2299210 105.4148344   0.7804215  64.6606608 105.2592348
   1.6688047  65.1961875 106.3618978   1.9446921  65.3874820 108.1468588
   2.6750310  65.1260109 108.7076291   1.3353867  64.6503542 108.1870656
   1.5367104  79.7317250 107.5649848   2.1745514  79.6123997 106.8613188
   1.4187947  80.6798094 107.6237800   1.0908373  77.4568704 104.6403056
   1.8771462  77.0388127 104.2893473   1.3547077  78.3614796 104.8084704
   1.2618450  82.8941554  99.3391712   0.6264283  82.9676181 100.0512617
   0.9315857  83.4835153  98.6610792   6.4916800  77.3943937 105.5436034
   7.2241972  76.8243154 105.7773864   5.7356156  77.0065537 105.9842540
   4.0142220  71.1065511 110.0030643   3.6825545  71.9760922 109.7791858
   3.4187834  70.7901795 110.6824673   3.9070884  75.8260597 107.0823993
   2.9987761  75.7576006 106.7882754   3.8558480  76.3032542 107.9105818
   5.7732530  74.0277036 108.8601867   5.1306910  74.3209569 108.2141661
   5.2687459  73.9129956 109.6655063   3.4272694  77.7740209  99.5487726
   4.3390550  78.0067596  99.3735424   2.9182341  78.3577253  98.9862805
   1.7113461  82.1964837 113.1849019   2.1196818  81.7547247 112.4403651
   0.9890723  81.6217464 113.4383211   2.0342276  82.7566027 106.9401307
   1.4051139  82.9211741 106.2377375   1.6467938  83.1707637 107.7112271
   5.9131508  83.6920465 104.2945671   5.2282546  84.0719367 103.7442705
   5.9975357  84.3015792 105.0277619   1.2143977  74.7941812 112.2163749
   0.9704909  75.5483872 111.6798025   1.4903907  75.1727159 113.0510996
   3.1682440  81.3380424 110.8941015   3.3799335  81.9812184 110.2175396
   3.1212188  80.5042741 110.4262945   4.2828268  84.2152380 109.0663372
   5.1045711  83.8132567 108.7846054   4.2790670  84.1120614 110.0179488
  12.3734261  80.5591128 105.4148344  11.6197969  79.9898526 105.2592348
  12.5081802  80.5253793 106.3618978   1.4882603  86.3330897 113.2484806
   1.4701078  87.1539778 112.7565075   2.4102523  86.2084972 113.4734947
   1.1125352  68.9535092 109.6201956   0.7689622  69.8436734 109.5441067
   1.4804315  68.7636750 108.7571541   1.0775635  78.9443703  98.1274391
   0.5622258  79.7148308  98.3662779   0.8052943  78.2708840  98.7507453
   6.0509909  81.6976058 100.0627565   5.2739352  81.3587218  99.6182727
   6.7301390  81.7028681  99.3882530   0.8661938  76.8170795  99.9534173
   0.5612074  77.1316945 100.8044316   1.8192380  76.8952215  99.9961506
   4.2901216  81.1710039 106.7194173   3.6324890  81.8609301 106.8074302
   5.0941615  81.5606471 107.0628159   3.1006675  79.5254412 104.7698115
   3.6138557  80.1584404 105.2719824   3.7507899  78.9255607 104.4041475
   3.8668471  84.5060413 102.8977257   3.4130798  83.6651323 102.9542448
   3.2362438  85.1421812 103.2352037   2.8101391  75.4352399 104.1277925
   2.0724147  74.9229786 104.4588167   3.0628164  74.9952781 103.3161202
   2.3101410  86.3436910 103.8327075   2.6024385  86.9041967 103.1139441
   2.8200031  86.6365471 104.5880235   2.9113018  68.2128651 104.7219694
   3.2171895  67.3526015 104.4345609   3.6365623  68.8046272 104.5218688
   0.7200669  77.5901329 111.8201158   1.0750057  77.8172802 112.6795624
   1.3672800  77.9219706 111.1978413   6.4498406  80.7119765 102.5250487
   6.3116305  80.9021361 101.5971676   6.0934625  81.4739147 102.9818538
   6.4767786  82.7796292 107.5361758   6.9104292  82.6871581 108.3844812
   7.1899367  82.7553792 106.8981774   7.3383335  82.8219992 110.0694644
   7.5319225  83.7265803 110.3153919   7.2383954  82.3627411 110.9033229
   2.3998444  82.9726735 115.6435524   2.2483950  82.7437287 114.7265608
   2.3903124  83.9297336 115.6566869   2.4536519  81.2946949  96.0606226
   1.8365690  80.5693777  95.9639279   1.9853008  82.0556310  95.7173300
   4.1090651  86.0045858 113.7212006   4.0503197  85.3205078 113.0542589
   4.5110169  86.7464848 113.2692632   4.1108058  83.9685442 111.9525986
   3.2234837  83.6311363 112.0752385   4.6806609  83.2368473 112.1894751
   8.5925399  79.3793659 106.7142548   8.5815275  80.2618374 106.3436481
   7.7242778  79.0265210 106.5197085   1.8225422  82.4324981 102.6462680
   0.8881701  82.5526443 102.4767384   2.0002090  81.5297447 102.3822689
   5.2097973  78.2742300 103.1812714   5.6758425  79.1070291 103.1073016
   5.6605474  77.8087281 103.8857972   3.2774204  84.6186121 100.1798866
   3.5534048  84.5042716 101.0892740   2.4078703  84.2203606 100.1411039
   3.1814636  70.6422887 107.2203615   2.2677716  70.8727114 107.3885822
   3.6107737  70.7261331 108.0717647   2.9521094  78.8312779 109.7203509
   2.2992545  79.0788686 109.0655962   3.3301474  78.0176917 109.3865986
   2.5942325  85.7060775 116.2975817   3.1382229  86.3190733 115.8030771
   2.0129169  86.2640353 116.8142830   0.8799838  88.8281493 107.4290844
   0.7550977  88.0271233 106.9201790   1.5378929  89.3227686 106.9404814
   2.9434746  86.6290513 109.0570394   1.9965081  86.5095864 108.9848721
   3.2917519  85.7413011 109.1396656   3.5515301  87.2471788 106.3439619
   4.4761849  87.0414649 106.2064070   3.3830604  86.9988189 107.2528961
   3.3410617  87.7657455 101.7001711   3.5147495  87.2003878 100.9475563
   3.8339509  88.5658350 101.5181201   9.1950008  80.5293878 103.3192011
   9.6381155  79.7801203 102.9211134   8.3176519  80.5204015 102.9365742
   4.3285790  87.0824220  98.7998609   5.0236694  87.7030912  99.0185924
   4.6708940  86.2319571  99.0750987   6.2277213  84.5323925 100.3285940
   6.7528537  84.8711198  99.6035260   6.1399565  83.5970941 100.1449074
   5.9171119  85.1656829 115.6337138   5.1266663  85.1480968 115.0941637
   5.6804474  85.7045123 116.3886174   6.0368994  82.0149295 112.9469866
   6.0866999  81.8499303 113.8885389   5.9282917  81.1476554 112.5567747
   3.3272756  77.9980223 114.2629173   4.2282619  77.8586688 113.9713171
   3.4020731  78.1634678 115.2027350   7.5387191  84.4346237 113.1911888
   7.2471999  84.7976217 114.0275349   6.9259322  83.7213245 113.0125220
   8.7382873  81.9999117 105.7114458   9.5729765  82.4388921 105.8752018
   8.8742002  81.5237770 104.8922704   5.7874379  79.5578851 111.6591946
   6.2628501  79.7506498 110.8510797   4.8639944  79.6138037 111.4135330
   0.6167190  68.0126978 106.1448676   0.8968944  67.3450167 106.7709103
   1.4017797  68.2056073 105.6323340   4.4876048  76.4344612 109.8920251
   5.4393471  76.5342709 109.9132475   4.3179499  75.6422880 110.4018336
   2.5090428  73.5200195 110.0779652   1.9140360  73.8005207 109.3826141
   2.2240124  74.0094096 110.8496393   1.6397918  87.4723122  98.8382285
   2.5728591  87.4068683  99.0415160   1.5521131  88.3079388  98.3796818
   4.2685935  86.7888992  95.7986232   4.1899566  86.4548856  96.6921990
   5.0895601  87.2810760  95.7977705   6.9664126  79.6550731 109.0062551
   6.9340446  78.7166732 109.1922235   7.5764750  79.7334768 108.2728376
   7.1158614  76.4461775 109.0520834   6.5997663  75.6620231 108.8650763
   7.9998563  76.1180491 109.2167354   4.7769341  70.1902790 105.0116647
   4.5794162  69.8817878 105.8959979   5.3869047  70.9164429 105.1414577
  12.7840676  80.7166738 108.1468588  13.5144064  80.4552026 108.7076291
  12.1747621  79.9795460 108.1870656  10.8655973  78.8574601 108.7443039
  10.1389136  78.7230566 108.1359531  10.4503260  79.1651429 109.5499757
   0.5342988  70.0711697 102.7613178   1.0874027  70.4907151 103.4203201
   0.7713074  69.1447445 102.8036134   3.9121795  72.1812222 102.2691843
   3.3320464  72.8397026 101.8869895   3.6457728  71.3589567 101.8579260
   2.3625361  71.5817280 104.4713163   2.8625140  71.6933815 103.6627482
   3.0060969  71.2778333 105.1113971   2.6946673  74.3412313 101.3248191
   1.8072528  74.6261963 101.1068386   3.1100662  74.1806076 100.4775468
   6.0461209  74.3658834 105.0402530   6.8221599  74.8555286 105.3127147
   5.3209343  74.7916888 105.4974400   8.4833768  75.0786453 106.0976471
   9.0778259  74.8382189 105.3869779   8.5560351  74.3593583 106.7250007
   1.8389886  84.1056987  95.4196211   2.5425737  84.3106990  96.0353866
   1.1152535  84.6733749  95.6845294   2.6687697  79.8566849 101.5398481
   2.6122898  80.3135400 100.7006113   3.2216039  79.0957533 101.3621324
   6.4792503  75.6456580 102.3648600   6.2229437  75.2453216 103.1956808
   5.8545371  76.3600374 102.2398740  10.7904841  78.3852654 104.8719892
  10.2304399  78.4545843 105.6451454  10.1848344  78.2093638 104.1519388
   3.7476584  84.5439517  97.4694671   4.5822188  84.1120715  97.2872146
   3.5860927  84.3721530  98.3971565   3.4022476  81.0471630  98.8351010
   3.3471280  80.8815901  97.8939454   2.7768531  81.7547663  98.9913200
  12.3760859  95.0609168 107.5649848  13.0139269  94.9415915 106.8613188
  12.2581702  96.0090012 107.6237800   9.1850565  95.0136596 107.5011372
   8.8469077  94.8977660 106.6131907  10.0540333  94.6127761 107.4812378
   5.0437381  96.8672072 103.4908263   4.4802246  96.7762009 102.7224551
   4.9289776  96.0471977 103.9710756   9.6670348  96.1671447 113.4597578
   9.6558989  95.7724246 112.5878081   9.8290988  95.4337520 114.0531349
   2.5901813  98.3623264 106.3292484   3.3823105  98.0214088 105.9138783
   2.8298463  98.4718239 107.2494637  10.6236940 100.5343040  98.8022728
   9.9724919 101.1197120  98.4156742  11.4181302 101.0649235  98.8617766
   4.5492567  97.6232177  99.2009862   5.3223443  97.0761164  99.0622738
   4.9017966  98.4876426  99.4124324   6.3877609  98.9508559 112.4076762
   6.0967475  99.8554190 112.2923428   7.0234594  98.9925087 113.1220831
   7.3133816  96.3285408 108.9978121   7.9097388  96.1041430 108.2835084
   7.3708788  95.5870153 109.6003569   6.8858845  93.7824843  96.8328312
   7.1384365  93.2606364  96.0711775   5.9483404  93.6190989  96.9354996
  11.9302127  92.7860621 104.6403056  12.7165217  92.3680045 104.2893473
  12.1940832  93.6906714 104.8084704  12.1012205  98.2233472  99.3391712
  11.4658038  98.2968098 100.0512617  11.7709611  98.8127071  98.6610792
  17.3310555  92.7235855 105.5436034  18.0635727  92.1535071 105.7773864
  16.5749910  92.3357455 105.9842540   6.6055133  95.6852949  99.0352687
   6.4891391  95.0097852  99.7033772   6.7157393  95.1985323  98.2184840
   8.9486674  95.1463096 102.7399377   8.5844882  94.6193717 103.4512298
   9.8053790  94.7561565 102.5665862  14.8535975  86.4357429 110.0030643
  14.5219300  87.3052840 109.7791858  14.2581588  86.1193713 110.6824673
   8.5892161  90.1752996  97.7360725   8.7566564  91.0433232  98.1031196
   8.3989330  90.3380278  96.8122014  11.3467494  98.6369975 109.4026555
  11.0468218  99.5395014 109.2942363  11.0018554  98.3702158 110.2547708
   4.7979976  95.0883772 105.4363260   3.8730472  94.9559986 105.6440952
   5.0464389  95.8677991 105.9333202  14.7464638  91.1552515 107.0823993
  13.8381516  91.0867923 106.7882754  14.6952234  91.6324460 107.9105818
   8.5681382  92.6310653  98.7207392   8.4481007  93.0767704  99.5592872
   7.8733971  92.9795971  98.1620930   2.1588787  94.7317045 106.2707049
   2.2881168  94.9851524 107.1846461   1.4786238  95.3244753 105.9511704
   6.3288274 105.4014295 102.3697523   6.2512304 106.3522120 102.4486004
   5.7249918 105.0560168 103.0272449   8.8205504  92.5742161 115.0258890
   8.0438838  93.1336081 115.0161755   9.4596067  93.0598944 115.5473760
  16.6126285  89.3568953 108.8601867  15.9700665  89.6501487 108.2141661
  16.1081213  89.2421874 109.6655063  14.2666448  93.1032127  99.5487726
  15.1784304  93.3359513  99.3735424  13.7576095  93.6869171  98.9862805
   7.0751876  95.3827614 114.5876857   7.8166561  95.9212658 114.3111681
   6.3688862  96.0093903 114.7448409  12.5507216  97.5256754 113.1849019
  12.9590572  97.0839165 112.4403651  11.8284477  96.9509382 113.4383211
   8.9038286  92.4629361 110.5582576   9.7499481  92.8868775 110.7017225
   8.8436924  91.8062985 111.2521139  12.8736031  98.0857945 106.9401307
  12.2444893  98.2503659 106.2377375  12.4861693  98.4999555 107.7112271
  16.7525263  99.0212383 104.2945671  16.0676301  99.4011284 103.7442705
  16.8369112  99.6307710 105.0277619  12.0537731  90.1233730 112.2163749
  11.8098663  90.8775790 111.6798025  12.3297662  90.5019077 113.0510996
  14.0076194  96.6672342 110.8941015  14.2193089  97.3104102 110.2175396
  13.9605942  95.8334658 110.4262945  11.6102423  89.2790163 107.7977587
  10.7486902  89.5771416 108.0894324  11.6364858  89.4960561 106.8658620
   8.4263993  97.8232353 104.2051393   8.8902338  98.1020056 103.4156015
   8.1620791  96.9215798 104.0224483   5.3188074  97.3703835 107.1431156
   5.8889431  97.7991103 106.5048640   5.9096185  97.0886419 107.8415341
   7.3632879  93.9455505 101.0140958   8.0656922  94.3976549 101.4814884
   7.0313507  93.3039324 101.6420851   5.8113240  92.5367262 115.3892167
   5.1811901  93.2183543 115.6227564   5.7049328  92.4250344 114.4445305
  15.1222022  99.5444297 109.0663372  15.9439466  99.1424485 108.7846054
  15.1184425  99.4412531 110.0179488   3.0572958  92.5683637 103.2741568
   2.2604121  92.6802332 103.7925064   2.8298550  92.9070290 102.4082458
   8.8878626  99.0928341 111.2224083   8.9523058  99.5548748 112.0582254
   8.1789549  98.4625706 111.3506392  23.2128015  95.8883046 105.4148344
  22.4591724  95.3190444 105.2592348  23.3475556  95.8545710 106.3618978
   8.6026643 100.7596448 101.0903063   8.4672318 101.6047984 101.5187911
   9.1436456 100.9615726 100.3268997   5.0893983  86.8388028 117.7517418
   4.6960928  86.2854226 118.4265062   5.9060123  87.1498606 118.1423936
   2.0556041  98.2771886 101.6630988   2.5680561  99.0715136 101.8136553
   2.7078753  97.5798177 101.5964589   3.8650925 101.3937642 103.7453741
   4.0417554 102.3155607 103.5574725   4.6607759 101.0796062 104.1748121
   8.0061944  88.2545907 115.3437675   8.7471657  88.8553060 115.2642137
   8.2379867  87.5123545 114.7855717   3.1503282  93.4402274 113.6215904
   3.0356797  92.5387532 113.9223003   2.2947800  93.6865971 113.2700721
  10.2295120 101.3820015 115.2203405   9.7858974 100.5956393 114.9024309
  10.8912333 101.5699165 114.5547296   4.9882241 102.9115816 109.7464084
   5.5389666 102.7832880 108.9741077   4.1493717 103.2110705 109.3958976
  12.3276358 101.6622815 113.2484806  12.3094833 102.4831696 112.7565075
  13.2496278 101.5376890 113.4734947   8.7849412  99.1766944 114.0908315
   9.3177749  98.4155232 113.8607623   8.2563493  98.8840596 114.8332469
  11.9519107  84.2827010 109.6201956  11.6083376  85.1728652 109.5441067
  12.3198069  84.0928668 108.7571541  11.9169389  94.2735621  98.1274391
  11.4016013  95.0440226  98.3662779  11.6446698  93.6000757  98.7507453
   9.5016501  89.1185322 103.1859630   8.6458097  88.7292172 103.0065269
   9.9143452  89.1977283 102.3259415  11.0315647  86.6531665 107.5851190
  10.5280443  86.6161800 106.7718995  11.3246254  87.5624408 107.6447846
   7.2758533  86.7370395 106.5917371   8.1411530  86.5413204 106.2323261
   7.3436042  86.5080747 107.5186728  16.8903664  97.0267976 100.0627565
  16.1133106  96.6879135  99.6182727  17.5695145  97.0320599  99.3882530
  11.7055693  92.1462713  99.9534173  11.4005828  92.4608862 100.8044316
  12.6586135  92.2244133  99.9961506  10.1502125  98.3052936 101.6027127
   9.6223486  97.5705696 101.2900364   9.6489627  99.0827613 101.3567095
  15.1294971  96.5001957 106.7194173  14.4718645  97.1901218 106.8074302
  15.9335370  96.8898389 107.0628159   4.8820852  88.9672603 103.9633738
   5.4564604  88.7447784 103.2306931   5.4691835  89.0361297 104.7162339
  13.9400429  94.8546330 104.7698115  14.4532311  95.4876321 105.2719824
  14.5901653  94.2547525 104.4041475   5.2090439  90.9977064  97.9829623
   4.3727751  91.3351750  98.3038898   5.0695209  90.8626044  97.0456760
   7.1843520  85.8413852 102.6908808   6.5307932  85.5262869 102.0665422
   7.1423994  85.2189592 103.4168631   8.2954725  96.1233147  94.6062100
   7.3881786  95.8922400  94.8053249   8.7925757  95.3270766  94.7936081
  11.2022804 104.8330654  97.5258786  10.5284502 105.1362351  98.1343744
  11.5888626 105.6359734  97.1764243  10.4181260  92.3295785 107.0156455
   9.5003822  92.5510732 106.8578143  10.8341404  92.4042096 106.1568163
  11.2016308  93.7287201 102.1459135  11.9488127  94.2408598 101.8366258
  11.4707897  93.4071254 103.0063529   9.4742958  96.2245742  99.1286090
   8.5654177  95.9404774  99.2258560   9.5038042  96.6444820  98.2689397
  14.7062226  99.8352331 102.8977257  14.2524553  98.9943241 102.9542448
  14.0756192 100.4713729 103.2352037  13.6495145  90.7644317 104.1277925
  12.9117902  90.2521703 104.4588167  13.9021919  90.3244699 103.3161202
  13.1495165 101.6728828 103.8327075  13.4418139 102.2333885 103.1139441
  13.6593785 101.9657389 104.5880235  13.7506772  83.5420569 104.7219694
  14.0565649  82.6817933 104.4345609  14.4759377  84.1338189 104.5218688
   8.0227852  93.8374362 105.2295885   8.0776462  92.8848199 105.1538362
   7.2119054  93.9933801 105.7137184   9.1719046  97.7654485  96.4674168
   8.7338476  97.0490344  96.0079806   9.9129487  97.9930600  95.9059260
   5.9620212  92.4551422 102.9886264   5.1488078  92.7545593 103.3951456
   6.4579206  92.0607111 103.7060746   8.1128790 102.4509179 104.9220529
   8.0704969 102.6770025 103.9929061   9.0291489 102.2172553 105.0706330
  11.5594424  92.9193246 111.8201158  11.9143811  93.1464720 112.6795624
  12.2066555  93.2511623 111.1978413  17.2892161  96.0411682 102.5250487
  17.1510059  96.2313278 101.5971676  16.9328380  96.8031065 102.9818538
   5.4534287  90.0269777 108.6047499   6.0933666  89.8858537 107.9070462
   4.6211817  89.7404291 108.2286101  17.3161540  98.1088209 107.5361758
  17.7498047  98.0163498 108.3844812  18.0293121  98.0845710 106.8981774
   6.2294591  99.3272208 104.7182491   7.0235189  98.8322528 104.5165066
   5.5186283  98.7990071 104.3550197  11.0489435 101.7090303 109.0694859
  11.1026457 102.2781240 109.8372575  10.1804217 101.8792188 108.7048896
   2.5377354  93.4715290 100.7942244   1.6074942  93.4099745 101.0112206
   2.6334826  92.9491242  99.9978885   2.4562903  89.9970102 103.3820486
   2.7169721  90.9115436 103.2729646   3.2780076  89.5294545 103.5317099
   3.9287829  91.4107860 110.5519310   4.6010882  91.2025222 109.9031959
   3.1017615  91.2129946 110.1124543  18.1777090  98.1511910 110.0694644
  18.3712980  99.0557720 110.3153919  18.0777708  97.6919329 110.9033229
   9.8313401  88.0369801 112.5684971   9.1841316  88.7359750 112.4749448
  10.6014416  88.4705944 112.9361219  13.2392199  98.3018653 115.6435524
  13.0877705  98.0729204 114.7265608  13.2296878  99.2589254 115.6566869
  10.0077535  95.8750565 110.6281791  10.9369595  96.0261725 110.4550758
   9.5868565  95.9634586 109.7730437   8.8065867  99.9001230 108.3980328
   8.6676952  99.5320014 109.2706267   8.0180463 100.4148869 108.2264286
   9.4014019 105.0010326  99.7405865   9.5765774 104.5298370 100.5551488
   8.7146807 105.6276093  99.9687126  10.3571082  99.2782833 105.7869166
  10.0220914  99.2383603 106.6826816   9.8575028  98.6127549 105.3139577
   4.3315326  94.6850463 111.3121747   4.1935124  93.9530701 111.9133286
   5.2420249  94.5959363 111.0305935  13.2930274  96.6238867  96.0606226
  12.6759444  95.8985695  95.9639279  12.8246762  97.3848227  95.7173300
   6.9597627  94.3970422 110.8005427   7.6697245  93.7563614 110.7592046
   6.9166935  94.6483317 111.7231608  14.9484405 101.3337775 113.7212006
  14.8896951 100.6496995 113.0542589  15.3503924 102.0756765 113.2692632
   5.6726560  91.3835640 112.6201067   5.1363918  90.9326378 113.2722663
   5.0843269  91.5181549 111.8771531   3.9675104 108.1499689 106.5145725
   4.2071702 108.7818213 107.1924744   3.1244300 107.7987729 106.8011084
   5.0828819  90.8424291  95.1827530   4.2058286  90.7213092  94.8189777
   5.5586573  90.0510370  94.9306419  14.9501812  99.2977359 111.9525986
  14.0628591  98.9603281 112.0752385  15.5200364  98.5660390 112.1894751
   1.4065682  90.5191648 109.7054061   1.3223870  89.9117317 108.9704471
   0.5848388  91.0100666 109.7063557   8.4802966 103.9578812 108.9187229
   8.4073137 104.7633783 109.4306534   8.0380359 104.1570777 108.0935251
   8.2692745 103.1950582 102.4290051   7.4860267 103.7372262 102.5228275
   8.9685491 103.7124561 102.8284292  11.5789396  89.0045211 105.0724256
  12.0758095  88.2515173 104.7525326  10.8076377  89.0409528 104.5067465
  19.4319153  94.7085577 106.7142548  19.4209029  95.5910292 106.3436481
  18.5636532  94.3557127 106.5197085  10.9401649 103.8565646 111.0745388
  11.6529622 104.4913110 111.0021289  10.4491678 103.9529512 110.2585390
  12.6619176  97.7616898 102.6462680  11.7275455  97.8818361 102.4767384
  12.8395845  96.8589365 102.3822689   8.1624364  91.1462594 104.7995941
   7.7922152  90.5933634 105.4876846   8.6583457  90.5420728 104.2470941
  16.0491728  93.6034218 103.1812714  16.5152180  94.4362209 103.1073016
  16.4999228  93.1379199 103.8857972   5.9913563 101.6060089 111.8950959
   6.6923022 102.2396572 112.0480353   5.5208678 101.9474821 111.1346598
  14.1167959  99.9478039 100.1798866  14.3927803  99.8334633 101.0892740
  13.2472457  99.5495524 100.1411039  14.0208390  85.9714805 107.2203615
  13.1071470  86.2019031 107.3885822  14.4501492  86.0553249 108.0717647
  13.7914849  94.1604697 109.7203509  13.1386299  94.4080604 109.0655962
  14.1695229  93.3468835 109.3865986  10.7522023 104.1964390 103.8231679
  10.9344417 103.3786046 104.2859432  11.5755009 104.4132082 103.3856569
  11.0864188 103.1232575 101.0846728  11.6151955 102.6125029 100.4716890
  11.3492408 102.8075105 101.9492261   9.8402422  94.9024508 116.2069546
   9.1643059  94.8018637 116.8771921  10.6630056  94.7463721 116.6705543
   1.5881281 101.1396444 108.8282061   2.1734718 100.3940132 108.9609966
   1.3906119 101.4500401 109.7118725   4.4419936 104.1747692 103.8444504
   3.7730311 104.6593819 103.3608544   4.3032806 104.4216912 104.7587882
   8.5825205 106.2091435 110.4427162   9.1343513 106.3723057 111.2076247
   8.9231398 106.7995873 109.7707187   3.5589698  88.5566585 111.0449047
   3.6231024  89.4181416 110.6326444   3.4956818  87.9440586 110.3121405
   3.0341971  90.6289717 114.6922081   3.6614009  90.2466795 115.3059605
   2.1769889  90.4103919 115.0577774  13.4336079 101.0352693 116.2975817
  13.9775983 101.6482651 115.8030771  12.8522924 101.5932271 116.8142830
  11.7193592 104.1573411 107.4290844  11.5944732 103.3563150 106.9201790
  12.3772683 104.6519604 106.9404814   3.3401760  90.5122143 106.6067984
   2.6188346  91.1258111 106.4675458   4.1295016  91.0479908 106.5284630
  13.7828500 101.9582431 109.0570394  12.8358836 101.8387782 108.9848721
  14.1311274 101.0704929 109.1396656   6.1428074  87.8476570 112.8808636
   6.6662476  88.0938866 113.6434946   5.9240407  88.6796604 112.4611774
   1.5395355  90.1180244 100.7479761   1.2108061  89.2377623 100.5654867
   1.8934726  90.0627913 101.6356150  10.7874934 101.7535147 105.2574747
  10.6399896 100.8251854 105.4382317  11.6128427 101.7755238 104.7731822
   4.6537178  90.4053214 101.1155239   4.9933251  90.9339135 100.3933847
   5.1009299  90.7433620 101.8913805  14.3909056 102.5763706 106.3439619
  15.3155603 102.3706567 106.2064070  14.2224359 102.3280107 107.2528961
   7.3480619  88.7890265 110.5658307   7.0077439  87.9898078 110.9678987
   6.6419625  89.0891975 109.9935140   7.9997091  85.8739577 109.0185630
   8.8223160  85.4000055 108.8964520   8.2435154  86.6530061 109.5184316
   6.6405325  88.9027836  99.3148531   7.3613688  89.2809088  98.8112248
   6.0170629  89.6216712  99.4183509  10.7836448  89.6072984 100.2506864
  11.0000062  90.4897622  99.9495692  10.3030515  89.2159198  99.5212506
   5.5235669  92.5658698 106.8277608   5.3780250  92.8799001 107.7201890
   5.0460873  93.1843598 106.2748507   7.3832052  89.5561246 106.8758498
   7.3693621  88.6602339 106.5390796   8.1004480  89.5631909 107.5096784
   9.2358183  89.9898586 108.9211625   8.9775961  90.9115657 108.9195956
   8.7043223  89.5929020 109.6112090  14.1804372 103.0949373 101.7001711
  14.3541249 102.5295796 100.9475563  14.6733263 103.8950268 101.5181201
   6.7868948  88.4375626 102.1446068   6.9084859  87.5092272 102.3436956
   6.4970991  88.4514312 101.2324384   9.6560139  86.1230536 105.2812788
   9.6781835  86.1869870 104.3264767  10.0728198  85.2835045 105.4753294
  20.0343763  95.8585796 103.3192011  20.4774909  95.1093121 102.9211134
  19.1570273  95.8495932 102.9365742  15.1679544 102.4116137  98.7998609
  15.8630449 103.0322830  99.0185924  15.5102694 101.5611489  99.0750987
  17.0670967  99.8615843 100.3285940  17.5922291 100.2003116  99.6035260
  16.9793320  98.9262858 100.1449074   8.7291016 103.7749917 112.4575816
   9.0378143 103.5299063 113.3298516   9.5266498 103.9796555 111.9694687
   8.7511628 105.9287826 104.6881193   8.3116618 105.4364205 105.3814050
   9.5019745 105.3860794 104.4473268   1.2303967 102.1199367 104.6905821
   2.0561987 101.8203139 104.3104465   0.8798019 101.3506990 105.1395610
   6.1985500 101.4725835 106.7603495   5.5765510 100.8096540 106.4605723
   6.8690367 101.4986967 106.0777142   6.2710028  89.9507623 116.3536001
   6.3198183  90.8269746 115.9713770   6.8132542  89.4085016 115.7807644
  16.7564873 100.4948747 115.6337138  15.9660417 100.4772885 115.0941637
  16.5198228 101.0337040 116.3886174  16.8762749  97.3441213 112.9469866
  16.9260753  97.1791220 113.8885389  16.7676672  96.4768472 112.5567747
   5.7599007 100.0229759 100.2361955   5.9087128 100.7065223  99.5828628
   6.5665451 100.0034849 100.7511411  14.1666511  93.3272141 114.2629173
  15.0676374  93.1878606 113.9713171  14.2414485  93.4926596 115.2027350
   8.5009316  90.7038996 113.1082359   7.6312626  90.9972562 112.8364948
   8.7368797  91.2879441 113.8289623  18.3780945  99.7638154 113.1911888
  18.0865754 100.1268135 114.0275349  17.7653077  99.0505163 113.0125220
  19.5776628  97.3291034 105.7114458  20.4123519  97.7680838 105.8752018
  19.7135756  96.8529687 104.8922704  16.6268134  94.8870769 111.6591946
  17.1022255  95.0798415 110.8510797  15.7033699  94.9429955 111.4135330
   3.5151640  96.0494936 101.2423024   3.2697682  95.1457266 101.4403234
   3.6847555  96.0512087 100.3002502  11.2048350  86.9218613 110.6247780
  11.7230294  87.6579640 110.2994268  10.8503483  87.2282606 111.4594539
   2.7847288  91.7823294  98.7409186   2.0916533  91.8567649  98.0849222
   2.5399040  91.0183638  99.2630703  11.4560944  83.3418895 106.1448676
  11.7362698  82.6742084 106.7709103  12.2411551  83.5347991 105.6323340
   9.2594413 102.5177889  97.7073703   8.6868380 103.1368076  97.2544174
   9.8327206 103.0677251  98.2413625  15.3269803  91.7636529 109.8920251
  16.2787225  91.8634627 109.9132475  15.1573253  90.9714798 110.4018336
  13.3484182  88.8492112 110.0779652  12.7534114  89.1297125 109.3826141
  13.0633879  89.3386013 110.8496393  12.4791673 102.8015039  98.8382285
  13.4122346 102.7360601  99.0415160  12.3914885 103.6371306  98.3796818
  15.1079689 102.1180910  95.7986232  15.0293321 101.7840773  96.6921990
  15.9289356 102.6102678  95.7977705  17.8057880  94.9842649 109.0062551
  17.7734200  94.0458650 109.1922235  18.4158504  95.0626686 108.2728376
   9.6441211  93.8538702  95.0489755  10.5900316  93.7244910  95.1178173
   9.2655456  93.1153364  95.5259183  17.9552369  91.7753692 109.0520834
  17.4391418  90.9912149 108.8650763  18.8392317  91.4472409 109.2167354
  15.6163096  85.5194708 105.0116647  15.4187917  85.2109796 105.8959979
  16.2262801  86.2456347 105.1414577  23.6234430  96.0458656 108.1468588
  24.3537819  95.7843944 108.7076291  23.0141376  95.3087378 108.1870656
  21.7049727  94.1866518 108.7443039  20.9782891  94.0522483 108.1359531
  21.2897014  94.4943347 109.5499757   9.5279904  97.9056448 116.5090412
  10.4482913  98.0835047 116.7030459   9.4929487  96.9612493 116.3570111
   7.8284128  91.7788678  94.9844640   6.9215584  91.4821791  95.0607354
   8.1060109  91.4818496  94.1178927   2.5241976  95.8157483 109.1513193
   2.7427986  96.7474590 109.1701227   2.9367750  95.4565457 109.9367997
   9.4446194  86.3225568 101.1388882   8.6346922  85.9772653 101.5144128
  10.1330611  86.0133112 101.7276493  11.3736742  85.4003615 102.7613178
  11.9267781  85.8199068 103.4203201  11.6106829  84.4739363 102.8036134
   7.3969842  91.3890688 118.5415942   7.2966569  92.3385045 118.4728033
   7.1791384  91.0608927 117.6692012   6.5982913  88.6375613  95.1256620
   7.4602077  88.9630512  95.3852437   6.7833257  87.8507109  94.6129685
  14.7515549  87.5104140 102.2691843  14.1714219  88.1688944 101.8869895
  14.4851482  86.6881485 101.8579260  13.2019116  86.9109198 104.4713163
  13.7018894  87.0225732 103.6627482  13.8454724  86.6070250 105.1113971
   7.2601112  94.8187827 117.3581004   6.7768193  95.6188187 117.5644893
   7.3462051  94.8295772 116.4048448   0.5287071  96.6516207 105.2802823
   0.5057759  96.7503894 104.3284706   0.8387708  97.4981358 105.6019989
   3.1874449  98.7092362 109.3949438   4.1417703  98.6776304 109.3279369
   2.9886973  98.2482986 110.2099664   3.7773831  97.2793478 111.9620235
   4.5966720  97.7737557 111.9855073   4.0510639  96.3625446 111.9337803
  13.5340428  89.6704230 101.3248191  12.6466283  89.9553881 101.1068386
  13.9494417  89.5097994 100.4775468  16.8854964  89.6950751 105.0402530
  17.6615354  90.1847204 105.3127147  16.1603098  90.1208805 105.4974400
  19.3227522  90.4078371 106.0976471  19.9172013  90.1674106 105.3869779
  19.3954106  89.6885501 106.7250007   1.5424678 104.2511981 106.4119636
   1.4079146 103.4912382 105.8457634   1.1256740 104.9752881 105.9448424
  12.6783641  99.4348905  95.4196211  13.3819491  99.6398907  96.0353866
  11.9546290 100.0025667  95.6845294  13.5081451  95.1858766 101.5398481
  13.4516653  95.6427318 100.7006113  14.0609794  94.4249451 101.3621324
  17.3186257  90.9748498 102.3648600  17.0623191  90.5745134 103.1956808
  16.6939125  91.6892292 102.2398740  21.6298595  93.7144571 104.8719892
  21.0698153  93.7837761 105.6451454  21.0242098  93.5385556 104.1519388
   4.6993804 105.1481298 106.6238078   4.5826188 106.0926731 106.5216768
   3.8786250 104.8454860 107.0123877  14.5870338  99.8731434  97.4694671
  15.4215942  99.4412633  97.2872146  14.4254681  99.7013448  98.3971565
  14.2416231  96.3763548  98.8351010  14.1865034  96.2107819  97.8939454
  13.6162286  97.0839580  98.9913200  11.5562138  98.6812459 118.1604573
  12.4253297  98.8553112 117.7991208  11.0768889  99.5006876 118.0380302
   7.5512356  85.8771657  98.4136329   7.5391026  86.8213496  98.5704599
   8.4435778  85.6941802  98.1195790   5.7248318 105.8009560 109.8394007
   6.6275565 105.8333171 110.1560502   5.4985688 104.8710011 109.8540342
   7.4801920 104.5540547 106.5004085   6.5297551 104.5542409 106.3868457
   7.7834406 103.8073281 105.9840120  11.3664475  82.4714433 102.6682265
  10.5996871  81.9172920 102.8138948  11.7775180  82.5436302 103.5296417
   3.3706237  88.7599229 116.7587447   4.2337698  88.4036034 116.9690771
   2.7971647  88.4213124 117.4462851  23.2154613 110.3901085 107.5649848
  23.8533023 110.2707833 106.8613188  23.0975456 111.3381929 107.6237800
  20.0244320 110.3428513 107.5011372  19.6862831 110.2269578 106.6131907
  20.8934088 109.9419679 107.4812378  15.8831135 112.1963990 103.4908263
  15.3196001 112.1053927 102.7224551  15.7683530 111.3763894 103.9710756
  20.5064103 111.4963365 113.4597578  20.4952744 111.1016163 112.5878081
  20.6684742 110.7629438 114.0531349  13.4295567 113.6915181 106.3292484
  14.2216859 113.3506006 105.9138783  13.6692218 113.8010156 107.2494637
  21.4630694 115.8634958  98.8022728  20.8118674 116.4489038  98.4156742
  22.2575057 116.3941152  98.8617766  15.3886321 112.9524095  99.2009862
  16.1617197 112.4053082  99.0622738  15.7411720 113.8168344  99.4124324
  17.2271364 114.2800477 112.4076762  16.9361230 115.1846108 112.2923428
  17.8628348 114.3217005 113.1220831  18.1527571 111.6577325 108.9978121
  18.7491143 111.4333348 108.2835084  18.2102542 110.9162071 109.6003569
  17.7252599 109.1116761  96.8328312  17.9778120 108.5898282  96.0711775
  16.7877158 108.9482906  96.9354996  22.7695882 108.1152539 104.6403056
  23.5558971 107.6971962 104.2893473  23.0334586 109.0198631 104.8084704
  22.9405959 113.5525389  99.3391712  22.3051792 113.6260016 100.0512617
  22.6103366 114.1418988  98.6610792  28.1704309 108.0527772 105.5436034
  28.9029481 107.4826989 105.7773864  27.4143665 107.6649373 105.9842540
  17.4448888 111.0144867  99.0352687  17.3285146 110.3389770  99.7033772
  17.5551148 110.5277241  98.2184840  19.7880429 110.4755014 102.7399377
  19.4238636 109.9485635 103.4512298  20.6447545 110.0853483 102.5665862
  25.6929729 101.7649346 110.0030643  25.3613054 102.6344757 109.7791858
  25.0975343 101.4485630 110.6824673  19.4285916 105.5044914  97.7360725
  19.5960318 106.3725150  98.1031196  19.2383085 105.6672195  96.8122014
  22.1861249 113.9661892 109.4026555  21.8861972 114.8686931 109.2942363
  21.8412308 113.6994076 110.2547708  15.6373730 110.4175689 105.4363260
  14.7124227 110.2851903 105.6440952  15.8858144 111.1969909 105.9333202
  25.5858393 106.4844433 107.0823993  24.6775270 106.4159841 106.7882754
  25.5345989 106.9616378 107.9105818  19.4075137 107.9602571  98.7207392
  19.2874762 108.4059622  99.5592872  18.7127725 108.3087889  98.1620930
  12.9982541 110.0608963 106.2707049  13.1274923 110.3143442 107.1846461
  12.3179993 110.6536671 105.9511704  17.1682029 120.7306213 102.3697523
  17.0906058 121.6814038 102.4486004  16.5643672 120.3852085 103.0272449
  19.6599259 107.9034078 115.0258890  18.8832593 108.4627998 115.0161755
  20.2989822 108.3890861 115.5473760  27.4520039 104.6860871 108.8601867
  26.8094419 104.9793404 108.2141661  26.9474968 104.5713791 109.6655063
  25.1060203 108.4324044  99.5487726  26.0178059 108.6651431  99.3735424
  24.5969850 109.0161088  98.9862805  17.9145631 110.7119532 114.5876857
  18.6560315 111.2504576 114.3111681  17.2082616 111.3385820 114.7448409
  23.3900970 112.8548672 113.1849019  23.7984327 112.4131083 112.4403651
  22.6678232 112.2801300 113.4383211  19.7432041 107.7921279 110.5582576
  20.5893236 108.2160692 110.7017225  19.6830678 107.1354903 111.2521139
  23.7129785 113.4149863 106.9401307  23.0838648 113.5795577 106.2377375
  23.3255447 113.8291472 107.7112271  27.5919017 114.3504301 104.2945671
  26.9070055 114.7303202 103.7442705  27.6762866 114.9599627 105.0277619
  22.8931486 105.4525647 112.2163749  22.6492418 106.2067708 111.6798025
  23.1691416 105.8310995 113.0510996  24.8469949 111.9964260 110.8941015
  25.0586844 112.6396019 110.2175396  24.7999697 111.1626576 110.4262945
  22.4496178 104.6082080 107.7977587  21.5880657 104.9063334 108.0894324
  22.4758612 104.8252479 106.8658620  19.2657747 113.1524271 104.2051393
  19.7296093 113.4311974 103.4156015  19.0014545 112.2507715 104.0224483
  16.1581828 112.6995752 107.1431156  16.7283185 113.1283021 106.5048640
  16.7489940 112.4178337 107.8415341  18.2026633 109.2747423 101.0140958
  18.9050676 109.7268467 101.4814884  17.8707262 108.6331242 101.6420851
  16.6506995 107.8659180 115.3892167  16.0205655 108.5475461 115.6227564
  16.5443082 107.7542261 114.4445305  11.9451967 107.5330976 106.3158091
  11.1551021 107.7888504 105.8398202  12.4363214 108.3479314 106.4210132
  25.9615777 114.8736215 109.0663372  26.7833220 114.4716402 108.7846054
  25.9578179 114.7704449 110.0179488  13.8966712 107.8975555 103.2741568
  13.0997876 108.0094249 103.7925064  13.6692305 108.2362207 102.4082458
  19.7272380 114.4220258 111.2224083  19.7916813 114.8840666 112.0582254
  19.0183304 113.7917623 111.3506392  10.2289670 107.7861466 108.7473082
  10.4797708 108.6708476 109.0130658  10.7649218 107.6066068 107.9748174
  34.0521770 111.2174963 105.4148344  33.2985478 110.6482362 105.2592348
  34.1869311 111.1837628 106.3618978  19.4420398 116.0888366 101.0903063
  19.3066072 116.9339901 101.5187911  19.9830210 116.2907643 100.3268997
  15.9287737 102.1679946 117.7517418  15.5354683 101.6146144 118.4265062
  16.7453878 102.4790524 118.1423936  12.8949795 113.6063804 101.6630988
  13.4074316 114.4007054 101.8136553  13.5472508 112.9090094 101.5964589
  14.7044680 116.7229560 103.7453741  14.8811308 117.6447525 103.5574725
  15.5001513 116.4087979 104.1748121  18.8455698 103.5837825 115.3437675
  19.5865412 104.1844978 115.2642137  19.0773621 102.8415462 114.7855717
  13.9897036 108.7694192 113.6215904  13.8750551 107.8679449 113.9223003
  13.1341554 109.0157889 113.2700721  21.0688874 116.7111932 115.2203405
  20.6252728 115.9248311 114.9024309  21.7306088 116.8991083 114.5547296
  15.8275995 118.2407734 109.7464084  16.3783420 118.1124797 108.9741077
  14.9887471 118.5402623 109.3958976  23.1670112 116.9914732 113.2484806
  23.1488587 117.8123613 112.7565075  24.0890032 116.8668807 113.4734947
  19.6243166 114.5058862 114.0908315  20.1571503 113.7447150 113.8607623
  19.0957247 114.2132513 114.8332469  22.7912861  99.6118928 109.6201956
  22.4477131 100.5020569 109.5441067  23.1591824  99.4220585 108.7571541
  10.8598712 111.9352458 102.4390559  11.6973934 112.3449466 102.2224266
  11.0376980 110.9951900 102.4090752  22.7563144 109.6027539  98.1274391
  22.2409767 110.3732143  98.3662779  22.4840452 108.9292675  98.7507453
  20.3410255 104.4477240 103.1859630  19.4851851 104.0584090 103.0065269
  20.7537207 104.5269200 102.3259415  21.8709402 101.9823583 107.5851190
  21.3674197 101.9453718 106.7718995  22.1640009 102.8916326 107.6447846
  18.1152288 102.0662313 106.5917371  18.9805284 101.8705121 106.2323261
  18.1829796 101.8372664 107.5186728  27.7297418 112.3559893 100.0627565
  26.9526861 112.0171053  99.6182727  28.4088899 112.3612517  99.3882530
  22.5449447 107.4754631  99.9534173  22.2399583 107.7900780 100.8044316
  23.4979889 107.5536051  99.9961506  20.9895879 113.6344854 101.6027127
  20.4617241 112.8997614 101.2900364  20.4883382 114.4119531 101.3567095
  25.9688725 111.8293875 106.7194173  25.3112399 112.5193136 106.8074302
  26.7729124 112.2190307 107.0628159  15.7214607 104.2964520 103.9633738
  16.2958359 104.0739702 103.2306931  16.3085589 104.3653215 104.7162339
  24.7794184 110.1838247 104.7698115  25.2926066 110.8168239 105.2719824
  25.4295408 109.5839443 104.4041475  16.0484194 106.3268981  97.9829623
  15.2121506 106.6643668  98.3038898  15.9088963 106.1917961  97.0456760
  18.0237274 101.1705769 102.6908808  17.3701687 100.8554787 102.0665422
  17.9817748 100.5481510 103.4168631  19.1348479 111.4525064  94.6062100
  18.2275541 111.2214318  94.8053249  19.6319511 110.6562684  94.7936081
  22.0416558 120.1622572  97.5258786  21.3678257 120.4654268  98.1343744
  22.4282380 120.9651652  97.1764243  21.2575015 107.6587703 107.0156455
  20.3397576 107.8802650 106.8578143  21.6735158 107.7334013 106.1568163
  22.0410062 109.0579119 102.1459135  22.7881881 109.5700516 101.8366258
  22.3101652 108.7363171 103.0063529  20.3136713 111.5537659  99.1286090
  19.4047932 111.2696692  99.2258560  20.3431796 111.9736738  98.2689397
  25.5455980 115.1644249 102.8977257  25.0918307 114.3235159 102.9542448
  24.9149947 115.8005647 103.2352037  24.4888900 106.0936235 104.1277925
  23.7511656 105.5813621 104.4588167  24.7415673 105.6536616 103.3161202
  23.9888919 117.0020745 103.8327075  24.2811894 117.5625803 103.1139441
  24.4987540 117.2949306 104.5880235  24.5900527  98.8712487 104.7219694
  24.8959404  98.0109850 104.4345609  25.3153132  99.4630107 104.5218688
  10.8824883 109.2743173 103.1101292  10.6849283 108.6812534 102.3852359
  10.3271547 108.9695384 103.8277231  18.8621607 109.1666280 105.2295885
  18.9170216 108.2140116 105.1538362  18.0512809 109.3225719 105.7137184
  20.0112800 113.0946403  96.4674168  19.5732230 112.3782262  96.0079806
  20.7523241 113.3222518  95.9059260  16.8013967 107.7843340 102.9886264
  15.9881832 108.0837510 103.3951456  17.2972961 107.3899028 103.7060746
  18.9522544 117.7801097 104.9220529  18.9098723 118.0061943 103.9929061
  19.8685243 117.5464471 105.0706330  22.3988178 108.2485164 111.8201158
  22.7537566 108.4756637 112.6795624  23.0460309 108.5803541 111.1978413
  28.1285915 111.3703600 102.5250487  27.9903814 111.5605196 101.5971676
  27.7722134 112.1322983 102.9818538  16.2928041 105.3561695 108.6047499
  16.9327421 105.2150454 107.9070462  15.4605572 105.0696209 108.2286101
  28.1555295 113.4380127 107.5361758  28.5891801 113.3455416 108.3844812
  28.8686875 113.4137627 106.8981774  17.0688345 114.6564126 104.7182491
  17.8628944 114.1614446 104.5165066  16.3580038 114.1281989 104.3550197
  21.8883190 117.0382221 109.0694859  21.9420212 117.6073157 109.8372575
  21.0197971 117.2084106 108.7048896  13.3771109 108.8007207 100.7942244
  12.4468697 108.7391663 101.0112206  13.4728581 108.2783160  99.9978885
  13.2956658 105.3262020 103.3820486  13.5563475 106.2407353 103.2729646
  14.1173830 104.8586463 103.5317099  14.7681583 106.7399777 110.5519310
  15.4404637 106.5317139 109.9031959  13.9411370 106.5421863 110.1124543
  29.0170844 113.4803828 110.0694644  29.2106734 114.3849638 110.3153919
  28.9171463 113.0211247 110.9033229  20.6707155 103.3661718 112.5684971
  20.0235070 104.0651668 112.4749448  21.4408170 103.7997862 112.9361219
  24.0785953 113.6310570 115.6435524  23.9271459 113.4021122 114.7265608
  24.0690633 114.5881172 115.6566869  20.8471289 111.2042483 110.6281791
  21.7763349 111.3553643 110.4550758  20.4262319 111.2926504 109.7730437
  19.6459621 115.2293148 108.3980328  19.5070707 114.8611932 109.2706267
  18.8574217 115.7440787 108.2264286  20.2407773 120.3302244  99.7405865
  20.4159529 119.8590287 100.5551488  19.5540561 120.9568010  99.9687126
  21.1964836 114.6074750 105.7869166  20.8614669 114.5675520 106.6826816
  20.6968782 113.9419466 105.3139577  15.1709080 110.0142380 111.3121747
  15.0328878 109.2822619 111.9133286  16.0814004 109.9251280 111.0305935
  24.1324028 111.9530785  96.0606226  23.5153199 111.2277613  95.9639279
  23.6640516 112.7140145  95.7173300  17.7991381 109.7262340 110.8005427
  18.5091000 109.0855532 110.7592046  17.7560689 109.9775234 111.7231608
  25.7878160 116.6629693 113.7212006  25.7290706 115.9788913 113.0542589
  26.1897678 117.4048683 113.2692632  16.5120315 106.7127558 112.6201067
  15.9757672 106.2618296 113.2722663  15.9237023 106.8473466 111.8771531
  14.8068858 123.4791607 106.5145725  15.0465457 124.1110131 107.1924744
  13.9638055 123.1279647 106.8011084  15.9222574 106.1716209  95.1827530
  15.0452040 106.0505010  94.8189777  16.3980327 105.3802287  94.9306419
  25.7895567 114.6269277 111.9525986  24.9022346 114.2895199 112.0752385
  26.3594118 113.8952308 112.1894751   7.4424714 110.9593369 105.2769037
   8.1295754 110.6455099 104.6890053   7.2872843 111.8634733 105.0036289
  12.2459436 105.8483565 109.7054061  12.1617625 105.2409235 108.9704471
  11.4242143 106.3392584 109.7063557  19.3196720 119.2870729 108.9187229
  19.2466892 120.0925701 109.4306534  18.8774113 119.4862695 108.0935251
  19.1086500 118.5242499 102.4290051  18.3254022 119.0664179 102.5228275
  19.8079245 119.0416479 102.8284292  22.4183150 104.3337129 105.0724256
  22.9151850 103.5807091 104.7525326  21.6470132 104.3701445 104.5067465
  30.2712907 110.0377494 106.7142548  30.2602784 110.9202210 106.3436481
  29.4030287 109.6849045 106.5197085  21.7795404 119.1857563 111.0745388
  22.4923376 119.8205028 111.0021289  21.2885433 119.2821429 110.2585390
  23.5012931 113.0908816 102.6462680  22.5669210 113.2110278 102.4767384
  23.6789599 112.1881283 102.3822689  19.0018119 106.4754512 104.7995941
  18.6315906 105.9225552 105.4876846  19.4977211 105.8712645 104.2470941
  26.8885482 108.9326135 103.1812714  27.3545934 109.7654127 103.1073016
  27.3392983 108.4671117 103.8857972  16.8307317 116.9352007 111.8950959
  17.5316777 117.5688490 112.0480353  16.3602432 117.2766738 111.1346598
  24.9561713 115.2769957 100.1798866  25.2321557 115.1626551 101.0892740
  24.0866212 114.8787441 100.1411039  24.8602145 101.3006722 107.2203615
  23.9465225 101.5310949 107.3885822  25.2895246 101.3845166 108.0717647
  24.6308603 109.4896614 109.7203509  23.9780054 109.7372522 109.0655962
  25.0088983 108.6760752 109.3865986  21.5915777 119.5256307 103.8231679
  21.7738172 118.7077963 104.2859432  22.4148763 119.7424000 103.3856569
  21.9257943 118.4524492 101.0846728  22.4545709 117.9416947 100.4716890
  22.1886162 118.1367023 101.9492261  20.6796176 110.2316425 116.2069546
  20.0036813 110.1310555 116.8771921  21.5023810 110.0755639 116.6705543
  12.4275035 116.4688362 108.8282061  13.0128472 115.7232050 108.9609966
  12.2299874 116.7792318 109.7118725  15.2813691 119.5039609 103.8444504
  14.6124066 119.9885737 103.3608544  15.1426560 119.7508830 104.7587882
   7.0192690 109.0393962 107.5486504   7.0576790 108.5057553 108.3423623
   6.5132983 108.5129168 106.9297482  19.4218959 121.5383353 110.4427162
  19.9737267 121.7014974 111.2076247  19.7625153 122.1287791 109.7707187
  14.3983452 103.8858503 111.0449047  14.4624779 104.7473333 110.6326444
  14.3350573 103.2732504 110.3121405  13.8735725 105.9581635 114.6922081
  14.5007764 105.5758712 115.3059605  13.0163644 105.7395837 115.0577774
  24.2729834 116.3644610 116.2975817  24.8169738 116.9774568 115.8030771
  23.6916678 116.9224189 116.8142830  10.6501268 107.7658064 100.6240436
  10.9454709 106.8568743 100.5707490   9.7489304 107.7445804 100.3021438
  22.5587347 119.4865328 107.4290844  22.4338486 118.6855068 106.9201790
  23.2166438 119.9811522 106.9404814  14.1795515 105.8414061 106.6067984
  13.4582101 106.4550028 106.4675458  14.9688771 106.3771826 106.5284630
  24.6222255 117.2874348 109.0570394  23.6752590 117.1679699 108.9848721
  24.9705028 116.3996846 109.1396656  16.9821828 103.1768487 112.8808636
  17.5056230 103.4230784 113.6434946  16.7634162 104.0088522 112.4611774
  12.3789109 105.4472162 100.7479761  12.0501816 104.5669541 100.5654867
  12.7328480 105.3919831 101.6356150  21.6268688 117.0827065 105.2574747
  21.4793651 116.1543772 105.4382317  22.4522182 117.1047155 104.7731822
  15.4930933 105.7345132 101.1155239  15.8327005 106.2631053 100.3933847
  15.9403053 106.0725538 101.8913805  25.2302810 117.9055623 106.3439619
  26.1549358 117.6998485 106.2064070  25.0618113 117.6572024 107.2528961
  18.1874373 104.1182182 110.5658307  17.8471194 103.3189995 110.9678987
  17.4813380 104.4183893 109.9935140  18.8390845 101.2031495 109.0185630
  19.6616914 100.7291973 108.8964520  19.0828909 101.9821979 109.5184316
  17.4799080 104.2319753  99.3148531  18.2007442 104.6101006  98.8112248
  16.8564384 104.9508630  99.4183509  21.6230203 104.9364902 100.2506864
  21.8393817 105.8189540  99.9495692  21.1424270 104.5451116  99.5212506
  16.3629424 107.8950615 106.8277608  16.2174005 108.2090918 107.7201890
  15.8854628 108.5135516 106.2748507  18.2225807 104.8853163 106.8758498
  18.2087376 103.9894257 106.5390796  18.9398235 104.8923827 107.5096784
  20.0751938 105.3190504 108.9211625  19.8169715 106.2407574 108.9195956
  19.5436978 104.9220938 109.6112090  25.0198126 118.4241291 101.7001711
  25.1935004 117.8587713 100.9475563  25.5127018 119.2242186 101.5181201
  10.8375086 110.4355960 109.7665270  10.2928554 111.2115768 109.8985544
  11.7154436 110.7826764 109.6084391  17.6262703 103.7667544 102.1446068
  17.7478614 102.8384190 102.3436956  17.3364745 103.7806230 101.2324384
  20.4953893 101.4522454 105.2812788  20.5175590 101.5161787 104.3264767
  20.9121952 100.6126963 105.4753294  30.8737517 111.1877714 103.3192011
  31.3168663 110.4385039 102.9211134  29.9964028 111.1787850 102.9365742
  26.0073299 117.7408055  98.7998609  26.7024203 118.3614748  99.0185924
  26.3496449 116.8903406  99.0750987  11.6241108 109.5625856 112.6595426
  10.8822844 109.7108491 113.2460057  11.3033852 109.8234122 111.7962176
  27.9064722 115.1907761 100.3285940  28.4316046 115.5295033  99.6035260
  27.8187074 114.2554776 100.1449074  19.5684771 119.1041834 112.4575816
  19.8771897 118.8590981 113.3298516  20.3660253 119.3088473 111.9694687
  19.5905383 121.2579744 104.6881193  19.1510373 120.7656123 105.3814050
  20.3413500 120.7152712 104.4473268  12.0697722 117.4491285 104.6905821
  12.8955742 117.1495057 104.3104465  11.7191774 116.6798907 105.1395610
  17.0379255 116.8017753 106.7603495  16.4159264 116.1388458 106.4605723
  17.7084122 116.8278885 106.0777142  10.2706327 115.3677611 105.6494755
   9.4338235 114.9399786 105.4678756  10.2429972 115.5610055 106.5865546
  17.1103782 105.2799541 116.3536001  17.1591938 106.1561664 115.9713770
  17.6526296 104.7376934 115.7807644  27.5958628 115.8240664 115.6337138
  26.8054172 115.8064803 115.0941637  27.3591983 116.3628958 116.3886174
  27.7156503 112.6733131 112.9469866  27.7654508 112.5083138 113.8885389
  27.6070426 111.8060390 112.5567747  16.5992762 115.3521676 100.2361955
  16.7480882 116.0357141  99.5828628  17.4059205 115.3326766 100.7511411
  25.0060265 108.6564059 114.2629173  25.9070128 108.5170524 113.9713171
  25.0808240 108.8218514 115.2027350  19.3403071 106.0330913 113.1082359
  18.4706380 106.3264479 112.8364948  19.5762551 106.6171358 113.8289623
  29.2174700 115.0930072 113.1911888  28.9259508 115.4560053 114.0275349
  28.6046831 114.3797080 113.0125220  30.4170382 112.6582952 105.7114458
  31.2517274 113.0972756 105.8752018  30.5529511 112.1821605 104.8922704
  27.4661888 110.2162687 111.6591946  27.9416010 110.4090333 110.8510797
  26.5427453 110.2721873 111.4135330  14.3545395 111.3786854 101.2423024
  14.1091437 110.4749184 101.4403234  14.5241309 111.3804004 100.3002502
  22.0442105 102.2510530 110.6247780  22.5624048 102.9871557 110.2994268
  21.6897237 102.5574524 111.4594539  13.6241042 107.1115212  98.7409186
  12.9310287 107.1859567  98.0849222  13.3792794 106.3475555  99.2630703
  22.2954699  98.6710813 106.1448676  22.5756452  98.0034002 106.7709103
  23.0805306  98.8639909 105.6323340  20.0988167 117.8469807  97.7073703
  19.5262134 118.4659994  97.2544174  20.6720961 118.3969168  98.2413625
  26.1663557 107.0928447 109.8920251  27.1180980 107.1926545 109.9132475
  25.9967007 106.3006715 110.4018336  24.1877937 104.1784030 110.0779652
  23.5927869 104.4589043 109.3826141  23.9027633 104.6677931 110.8496393
  23.3185427 118.1306957  98.8382285  24.2516100 118.0652519  99.0415160
  23.2308640 118.9663224  98.3796818  25.9473444 117.4472827  95.7986232
  25.8687075 117.1132691  96.6921990  26.7683110 117.9394595  95.7977705
  28.6451635 110.3134567 109.0062551  28.6127955 109.3750567 109.1922235
  29.2552259 110.3918603 108.2728376  20.4834966 109.1830620  95.0489755
  21.4294070 109.0536828  95.1178173  20.1049211 108.4445281  95.5259183
  28.7946123 107.1045610 109.0520834  28.2785172 106.3204067 108.8650763
  29.6786072 106.7764327 109.2167354  26.4556850 100.8486626 105.0116647
  26.2581671 100.5401714 105.8959979  27.0656556 101.5748264 105.1414577
  34.4628185 111.3750573 108.1468588  35.1931573 111.1135862 108.7076291
  33.8535130 110.6379295 108.1870656  32.5443482 109.5158436 108.7443039
  31.8176645 109.3814401 108.1359531  32.1290769 109.8235265 109.5499757
  20.3673658 113.2348366 116.5090412  21.2876668 113.4126965 116.7030459
  20.3323241 112.2904411 116.3570111  18.6677883 107.1080596  94.9844640
  17.7609338 106.8113709  95.0607354  18.9453864 106.8110414  94.1178927
   9.5855823 108.4286959 105.4343687   9.2658608 107.5752268 105.1418061
   9.0389251 108.6435537 106.1901654  13.3635731 111.1449400 109.1513193
  13.5821741 112.0766508 109.1701227  13.7761505 110.7857375 109.9367997
  20.2839949 101.6517486 101.1388882  19.4740677 101.3064571 101.5144128
  20.9724366 101.3425029 101.7276493  22.2130497 100.7295532 102.7613178
  22.7661535 101.1490986 103.4203201  22.4500583  99.8031281 102.8036134
  18.2363596 106.7182606 118.5415942  18.1360323 107.6676963 118.4728033
  18.0185138 106.3900845 117.6692012  17.4376668 103.9667531  95.1256620
  18.2995831 104.2922429  95.3852437  17.6227012 103.1799027  94.6129685
   9.4544083 112.0489871 107.4036808   8.7607555 111.6343824 106.8906763
  10.2017074 112.0910407 106.8070227  25.5909304 102.8396058 102.2691843
  25.0107973 103.4980862 101.8869895  25.3245237 102.0173402 101.8579260
  24.0412870 102.2401115 104.4713163  24.5412649 102.3517650 103.6627482
  24.6848478 101.9362168 105.1113971  18.0994866 110.1479745 117.3581004
  17.6161948 110.9480105 117.5644893  18.1855805 110.1587690 116.4048448
  11.3680826 111.9808125 105.2802823  11.3451514 112.0795812 104.3284706
  11.6781462 112.8273275 105.6019989  14.0268204 114.0384280 109.3949438
  14.9811457 114.0068222 109.3279369  13.8280727 113.5774903 110.2099664
  14.6167586 112.6085396 111.9620235  15.4360475 113.1029474 111.9855073
  14.8904394 111.6917364 111.9337803  24.3734182 104.9996148 101.3248191
  23.4860037 105.2845799 101.1068386  24.7888171 104.8389911 100.4775468
  27.7248718 105.0242669 105.0402530  28.5009108 105.5139121 105.3127147
  26.9996852 105.4500723 105.4974400  30.1621277 105.7370288 106.0976471
  30.7565768 105.4966024 105.3869779  30.2347860 105.0177419 106.7250007
  12.3818432 119.5803899 106.4119636  12.2472900 118.8204300 105.8457634
  11.9650495 120.3044799 105.9448424  23.5177395 114.7640823  95.4196211
  24.2213246 114.9690825  96.0353866  22.7940044 115.3317585  95.6845294
  24.3475206 110.5150684 101.5398481  24.2910407 110.9719235 100.7006113
  24.9003548 109.7541369 101.3621324  28.1580012 106.3040416 102.3648600
  27.9016946 105.9037051 103.1956808  27.5332880 107.0184210 102.2398740
  32.4692350 109.0436489 104.8719892  31.9091907 109.1129678 105.6451454
  31.8635853 108.8677474 104.1519388  15.5387558 120.4773216 106.6238078
  15.4219942 121.4218649 106.5216768  14.7180005 120.1746778 107.0123877
  25.4264093 115.2023352  97.4694671  26.2609697 114.7704550  97.2872146
  25.2648436 115.0305366  98.3971565  25.0809985 111.7055465  98.8351010
  25.0258789 111.5399737  97.8939454  24.4556040 112.4131498  98.9913200
   9.8702500 106.9423530 112.6612432  10.5161364 106.4322484 113.1499658
   9.6619651 107.6792211 113.2355858  22.3955892 114.0104377 118.1604573
  23.2647052 114.1845029 117.7991208  21.9162644 114.8298794 118.0380302
  18.3906111 101.2063574  98.4136329  18.3784780 102.1505414  98.5704599
  19.2829532 101.0233720  98.1195790  16.5642072 121.1301478 109.8394007
  17.4669319 121.1625088 110.1560502  16.3379443 120.2001929 109.8540342
  18.3195674 119.8832465 106.5004085  17.3691305 119.8834326 106.3868457
  18.6228161 119.1365199 105.9840120  22.2058230  97.8006351 102.6682265
  21.4390626  97.2464838 102.8138948  22.6168935  97.8728220 103.5296417
  14.2099991 104.0891147 116.7587447  15.0731453 103.7327951 116.9690771
  13.6365402 103.7505041 117.4462851  34.0548368 125.7193003 107.5649848
  34.6926778 125.5999750 106.8613188  33.9369211 126.6673847 107.6237800
  30.8638074 125.6720431 107.5011372  30.5256586 125.5561496 106.6131907
  31.7327842 125.2711596 107.4812378  26.7224890 127.5255908 103.4908263
  26.1589755 127.4345844 102.7224551  26.6077285 126.7055812 103.9710756
  31.3457857 126.8255283 113.4597578  31.3346498 126.4308081 112.5878081
  31.5078497 126.0921355 114.0531349  24.2689322 129.0207099 106.3292484
  25.0610614 128.6797924 105.9138783  24.5085972 129.1302074 107.2494637
  32.3024449 131.1926875  98.8022728  31.6512428 131.7780956  98.4156742
  33.0968811 131.7233070  98.8617766  26.2280076 128.2816012  99.2009862
  27.0010952 127.7344999  99.0622738  26.5805475 129.1460262  99.4124324
  28.0665118 129.6092395 112.4076762  27.7754984 130.5138025 112.2923428
  28.7022103 129.6508922 113.1220831  28.9921325 126.9869243 108.9978121
  29.5884897 126.7625266 108.2835084  29.0496297 126.2453989 109.6003569
  28.5646354 124.4408678  96.8328312  28.8171874 123.9190200  96.0711775
  27.6270913 124.2774824  96.9354996  33.6089636 123.4444457 104.6403056
  34.3952726 123.0263880 104.2893473  33.8728341 124.3490549 104.8084704
  33.7799714 128.8817307  99.3391712  33.1445547 128.9551934 100.0512617
  33.4497120 129.4710906  98.6610792  39.0098064 123.3819690 105.5436034
  39.7423236 122.8118907 105.7773864  38.2537419 122.9941290 105.9842540
  28.2842642 126.3436784  99.0352687  28.1678900 125.6681688  99.7033772
  28.3944902 125.8569158  98.2184840  30.6274183 125.8046932 102.7399377
  30.2632391 125.2777553 103.4512298  31.4841299 125.4145401 102.5665862
  36.5323484 117.0941264 110.0030643  36.2006809 117.9636675 109.7791858
  35.9369097 116.7777548 110.6824673  30.2679670 120.8336831  97.7360725
  30.4354073 121.7017068  98.1031196  30.0776839 120.9964113  96.8122014
  33.0255003 129.2953810 109.4026555  32.7255727 130.1978849 109.2942363
  32.6806063 129.0285993 110.2547708  26.4767485 125.7467607 105.4363260
  25.5517981 125.6143821 105.6440952  26.7251898 126.5261826 105.9333202
  36.4252147 121.8136350 107.0823993  35.5169025 121.7451759 106.7882754
  36.3739743 122.2908295 107.9105818  30.2468891 123.2894489  98.7207392
  30.1268516 123.7351539  99.5592872  29.5521480 123.6379806  98.1620930
  23.8376296 125.3900881 106.2707049  23.9668677 125.6435359 107.1846461
  23.1573747 125.9828589 105.9511704  28.0075783 136.0598130 102.3697523
  27.9299813 137.0105956 102.4486004  27.4037427 135.7144003 103.0272449
  30.4993013 123.2325996 115.0258890  29.7226347 123.7919916 115.0161755
  31.1383576 123.7182779 115.5473760  38.2913794 120.0152789 108.8601867
  37.6488174 120.3085322 108.2141661  37.7868722 119.9005709 109.6655063
  35.9453957 123.7615962  99.5487726  36.8571813 123.9943349  99.3735424
  35.4363604 124.3453006  98.9862805  28.7539385 126.0411449 114.5876857
  29.4954070 126.5796493 114.3111681  28.0476371 126.6677738 114.7448409
  34.2294725 128.1840590 113.1849019  34.6378081 127.7423000 112.4403651
  33.5071986 127.6093217 113.4383211  30.5825795 123.1213196 110.5582576
  31.4286990 123.5452610 110.7017225  30.5224433 122.4646821 111.2521139
  34.5523540 128.7441780 106.9401307  33.9232402 128.9087494 106.2377375
  34.1649202 129.1583390 107.7112271  38.4312772 129.6796218 104.2945671
  37.7463810 130.0595120 103.7442705  38.5156621 130.2891545 105.0277619
  33.7325240 120.7817565 112.2163749  33.4886172 121.5359625 111.6798025
  34.0085171 121.1602912 113.0510996  35.6863703 127.3256177 110.8941015
  35.8980598 127.9687937 110.2175396  35.6393451 126.4918494 110.4262945
  33.2889932 119.9373998 107.7977587  32.4274411 120.2355251 108.0894324
  33.3152367 120.1544397 106.8658620  30.1051501 128.4816188 104.2051393
  30.5689847 128.7603891 103.4156015  29.8408300 127.5799633 104.0224483
  26.9975583 128.0287670 107.1431156  27.5676940 128.4574938 106.5048640
  27.5883694 127.7470255 107.8415341  29.0420388 124.6039341 101.0140958
  29.7444431 125.0560384 101.4814884  28.7101016 123.9623160 101.6420851
  27.4900749 123.1951097 115.3892167  26.8599410 123.8767378 115.6227564
  27.3836837 123.0834179 114.4445305  22.7845722 122.8622893 106.3158091
  21.9944775 123.1180422 105.8398202  23.2756969 123.6771231 106.4210132
  36.8009531 130.2028133 109.0663372  37.6226975 129.8008320 108.7846054
  36.7971934 130.0996367 110.0179488  24.7360467 123.2267473 103.2741568
  23.9391630 123.3386167 103.7925064  24.5086059 123.5654125 102.4082458
  30.5666135 129.7512176 111.2224083  30.6310567 130.2132583 112.0582254
  29.8577058 129.1209541 111.3506392  21.0683424 123.1153384 108.7473082
  21.3191463 124.0000394 109.0130658  21.6042973 122.9357985 107.9748174
  44.8915524 126.5466881 105.4148344  44.1379233 125.9774279 105.2592348
  45.0263065 126.5129546 106.3618978  30.2814152 131.4180283 101.0903063
  30.1459827 132.2631819 101.5187911  30.8223965 131.6199561 100.3268997
  26.7681492 117.4971863 117.7517418  26.3748437 116.9438062 118.4265062
  27.5847632 117.8082442 118.1423936  23.7343550 128.9355721 101.6630988
  24.2468070 129.7298972 101.8136553  24.3866262 128.2382012 101.5964589
  25.5438434 132.0521478 103.7453741  25.7205063 132.9739442 103.5574725
  26.3395268 131.7379897 104.1748121  29.6849453 118.9129742 115.3437675
  30.4259166 119.5136896 115.2642137  29.9167376 118.1707380 114.7855717
  24.8290791 124.0986110 113.6215904  24.7144306 123.1971367 113.9223003
  23.9735309 124.3449806 113.2700721  31.9082629 132.0403850 115.2203405
  31.4646483 131.2540229 114.9024309  32.5699842 132.2283000 114.5547296
  26.6669750 133.5699652 109.7464084  27.2177175 133.4416715 108.9741077
  25.8281226 133.8694541 109.3958976  34.0063867 132.3206650 113.2484806
  33.9882342 133.1415531 112.7565075  34.9283787 132.1960725 113.4734947
  30.4636921 129.8350779 114.0908315  30.9965258 129.0739068 113.8607623
  29.9351002 129.5424431 114.8332469  33.6306616 114.9410845 109.6201956
  33.2870885 115.8312487 109.5441067  33.9985578 114.7512503 108.7571541
  21.6992466 127.2644376 102.4390559  22.5367688 127.6741384 102.2224266
  21.8770734 126.3243818 102.4090752  33.5956898 124.9319456  98.1274391
  33.0803522 125.7024061  98.3662779  33.3234207 124.2584593  98.7507453
  31.1804009 119.7769157 103.1859630  30.3245606 119.3876008 103.0065269
  31.5930961 119.8561118 102.3259415  32.7103156 117.3115500 107.5851190
  32.2067952 117.2745636 106.7718995  33.0033763 118.2208243 107.6447846
  28.9546042 117.3954230 106.5917371  29.8199039 117.1997039 106.2323261
  29.0223551 117.1664582 107.5186728  38.5691173 127.6851811 100.0627565
  37.7920615 127.3462971  99.6182727  39.2482654 127.6904434  99.3882530
  33.3843202 122.8046549  99.9534173  33.0793337 123.1192698 100.8044316
  34.3373644 122.8827968  99.9961506  31.8289633 128.9636772 101.6027127
  31.3010995 128.2289531 101.2900364  31.3277136 129.7411448 101.3567095
  36.8082480 127.1585792 106.7194173  36.1506154 127.8485054 106.8074302
  37.6122879 127.5482224 107.0628159  26.5608361 119.6256438 103.9633738
  27.1352113 119.4031620 103.2306931  27.1479344 119.6945133 104.7162339
  35.6187938 125.5130165 104.7698115  36.1319820 126.1460157 105.2719824
  36.2689162 124.9131361 104.4041475  26.8877948 121.6560899  97.9829623
  26.0515260 121.9935586  98.3038898  26.7482718 121.5209879  97.0456760
  28.8631029 116.4997687 102.6908808  28.2095441 116.1846704 102.0665422
  28.8211503 115.8773427 103.4168631  29.9742234 126.7816982  94.6062100
  29.0669295 126.5506236  94.8053249  30.4713266 125.9854601  94.7936081
  32.8810313 135.4914489  97.5258786  32.2072011 135.7946186  98.1343744
  33.2676135 136.2943570  97.1764243  32.0968769 122.9879621 107.0156455
  31.1791331 123.2094568 106.8578143  32.5128913 123.0625931 106.1568163
  32.8803817 124.3871036 102.1459135  33.6275636 124.8992433 101.8366258
  33.1495406 124.0655089 103.0063529  31.1530467 126.8829577  99.1286090
  30.2441686 126.5988610  99.2258560  31.1825551 127.3028656  98.2689397
  36.3849735 130.4936166 102.8977257  35.9312062 129.6527076 102.9542448
  35.7543701 131.1297565 103.2352037  35.3282654 121.4228153 104.1277925
  34.5905411 120.9105539 104.4588167  35.5809428 120.9828534 103.3161202
  34.8282674 132.3312663 103.8327075  35.1205648 132.8917720 103.1139441
  35.3381294 132.6241224 104.5880235  35.4294281 114.2004405 104.7219694
  35.7353158 113.3401768 104.4345609  36.1546886 114.7922025 104.5218688
  21.7218637 124.6035091 103.1101292  21.5243037 124.0104452 102.3852359
  21.1665301 124.2987301 103.8277231  29.7015361 124.4958198 105.2295885
  29.7563971 123.5432034 105.1538362  28.8906563 124.6517637 105.7137184
  30.8506555 128.4238321  96.4674168  30.4125985 127.7074180  96.0079806
  31.5916996 128.6514435  95.9059260  27.6407721 123.1135257 102.9886264
  26.8275587 123.4129428 103.3951456  28.1366715 122.7190946 103.7060746
  29.7916299 133.1093014 104.9220529  29.7492478 133.3353861 103.9929061
  30.7078998 132.8756389 105.0706330  33.2381933 123.5777082 111.8201158
  33.5931320 123.8048555 112.6795624  33.8854064 123.9095459 111.1978413
  38.9679670 126.6995518 102.5250487  38.8297568 126.8897114 101.5971676
  38.6115888 127.4614900 102.9818538  27.1321796 120.6853613 108.6047499
  27.7721175 120.5442372 107.9070462  26.2999326 120.3988126 108.2286101
  38.9949049 128.7672045 107.5361758  39.4285556 128.6747334 108.3844812
  39.7080630 128.7429545 106.8981774  27.9082100 129.9856043 104.7182491
  28.7022698 129.4906363 104.5165066  27.1973792 129.4573906 104.3550197
  32.7276944 132.3674139 109.0694859  32.7813966 132.9365075 109.8372575
  31.8591726 132.5376024 108.7048896  24.2164863 124.1299125 100.7942244
  23.2862451 124.0683580 101.0112206  24.3122335 123.6075078  99.9978885
  24.1350412 120.6553938 103.3820486  24.3957230 121.5699271 103.2729646
  24.9567585 120.1878380 103.5317099  25.6075338 122.0691695 110.5519310
  26.2798391 121.8609057 109.9031959  24.7805124 121.8713781 110.1124543
  39.8564599 128.8095745 110.0694644  40.0500489 129.7141556 110.3153919
  39.7565217 128.3503164 110.9033229  31.5100910 118.6953636 112.5684971
  30.8628825 119.3943586 112.4749448  32.2801925 119.1289780 112.9361219
  34.9179708 128.9602488 115.6435524  34.7665214 128.7313040 114.7265608
  34.9084387 129.9173090 115.6566869  31.6865044 126.5334401 110.6281791
  32.6157104 126.6845560 110.4550758  31.2656074 126.6218422 109.7730437
  30.4853376 130.5585065 108.3980328  30.3464461 130.1903850 109.2706267
  29.6967972 131.0732705 108.2264286  31.0801528 135.6594162  99.7405865
  31.2553283 135.1882205 100.5551488  30.3934316 136.2859928  99.9687126
  32.0358591 129.9366668 105.7869166  31.7008423 129.8967438 106.6826816
  31.5362537 129.2711384 105.3139577  26.0102835 125.3434298 111.3121747
  25.8722633 124.6114537 111.9133286  26.9207758 125.2543198 111.0305935
  34.9717783 127.2822702  96.0606226  34.3546953 126.5569530  95.9639279
  34.5034271 128.0432063  95.7173300  28.6385135 125.0554257 110.8005427
  29.3484754 124.4147449 110.7592046  28.5954444 125.3067152 111.7231608
  36.6271914 131.9921611 113.7212006  36.5684460 131.3080831 113.0542589
  37.0291433 132.7340601 113.2692632  27.3514069 122.0419475 112.6201067
  26.8151426 121.5910214 113.2722663  26.7630778 122.1765384 111.8771531
  25.6462613 138.8083524 106.5145725  25.8859211 139.4402049 107.1924744
  24.8031809 138.4571564 106.8011084  26.7616328 121.5008127  95.1827530
  25.8845795 121.3796927  94.8189777  27.2374081 120.7094205  94.9306419
  36.6289321 129.9561195 111.9525986  35.7416100 129.6187116 112.0752385
  37.1987873 129.2244226 112.1894751  18.2818469 126.2885286 105.2769037
  18.9689508 125.9747016 104.6890053  18.1266597 127.1926651 105.0036289
  23.0853191 121.1775483 109.7054061  23.0011379 120.5701152 108.9704471
  22.2635897 121.6684501 109.7063557  30.1590475 134.6162647 108.9187229
  30.0860646 135.4217618 109.4306534  29.7167868 134.8154613 108.0935251
  29.9480254 133.8534417 102.4290051  29.1647776 134.3956097 102.5228275
  30.6473000 134.3708397 102.8284292  33.2576905 119.6629046 105.0724256
  33.7545604 118.9099009 104.7525326  32.4863886 119.6993363 104.5067465
  41.1106662 125.3669412 106.7142548  41.0996538 126.2494127 106.3436481
  40.2424041 125.0140963 106.5197085  32.6189158 134.5149481 111.0745388
  33.3317131 135.1496946 111.0021289  32.1279187 134.6113347 110.2585390
  34.3406685 128.4200734 102.6462680  33.4062964 128.5402196 102.4767384
  34.5183354 127.5173200 102.3822689  29.8411873 121.8046429 104.7995941
  29.4709661 121.2517470 105.4876846  30.3370966 121.2004563 104.2470941
  37.7279237 124.2618053 103.1812714  38.1939689 125.0946045 103.1073016
  38.1786737 123.7963034 103.8857972  27.6701072 132.2643924 111.8950959
  28.3710531 132.8980407 112.0480353  27.1996187 132.6058656 111.1346598
  35.7955468 130.6061874 100.1798866  36.0715312 130.4918469 101.0892740
  34.9259966 130.2079359 100.1411039  35.6995899 116.6298640 107.2203615
  34.7858979 116.8602867 107.3885822  36.1289001 116.7137084 108.0717647
  35.4702358 124.8188532 109.7203509  34.8173808 125.0664439 109.0655962
  35.8482738 124.0052670 109.3865986  32.4309532 134.8548225 103.8231679
  32.6131926 134.0369881 104.2859432  33.2542518 135.0715917 103.3856569
  32.7651697 133.7816410 101.0846728  33.2939464 133.2708865 100.4716890
  33.0279917 133.4658940 101.9492261  31.5189931 125.5608343 116.2069546
  30.8430568 125.4602472 116.8771921  32.3417565 125.4047557 116.6705543
  23.2668790 131.7980279 108.8282061  23.8522227 131.0523967 108.9609966
  23.0693628 132.1084236 109.7118725  26.1207445 134.8331527 103.8444504
  25.4517820 135.3177654 103.3608544  25.9820315 135.0800747 104.7587882
  17.8586445 124.3685880 107.5486504  17.8970544 123.8349470 108.3423623
  17.3526738 123.8421085 106.9297482  30.2612714 136.8675270 110.4427162
  30.8131022 137.0306892 111.2076247  30.6018907 137.4579708 109.7707187
  25.2377207 119.2150420 111.0449047  25.3018533 120.0765251 110.6326444
  25.1744327 118.6024422 110.3121405  24.7129480 121.2873553 114.6922081
  25.3401518 120.9050630 115.3059605  23.8557398 121.0687755 115.0577774
  35.1123588 131.6936528 116.2975817  35.6563492 132.3066486 115.8030771
  34.5310433 132.2516106 116.8142830  21.4895022 123.0949982 100.6240436
  21.7848463 122.1860660 100.5707490  20.5883058 123.0737721 100.3021438
  33.3981101 134.8157246 107.4290844  33.2732240 134.0146986 106.9201790
  34.0560192 135.3103439 106.9404814  25.0189269 121.1705978 106.6067984
  24.2975855 121.7841946 106.4675458  25.8082525 121.7063743 106.5284630
  35.4616009 132.6166266 109.0570394  34.5146345 132.4971617 108.9848721
  35.8098783 131.7288764 109.1396656  27.8215583 118.5060405 112.8808636
  28.3449985 118.7522701 113.6434946  27.6027916 119.3380440 112.4611774
  23.2182864 120.7764079 100.7479761  22.8895570 119.8961458 100.5654867
  23.5722235 120.7211748 101.6356150  32.4662443 132.4118982 105.2574747
  32.3187405 131.4835690 105.4382317  33.2915936 132.4339073 104.7731822
  26.3324687 121.0637049 101.1155239  26.6720760 121.5922971 100.3933847
  26.7796807 121.4017455 101.8913805  36.0696565 133.2347541 106.3439619
  36.9943112 133.0290402 106.2064070  35.9011868 132.9863942 107.2528961
  29.0268128 119.4474100 110.5658307  28.6864948 118.6481913 110.9678987
  28.3207134 119.7475811 109.9935140  29.6784600 116.5323412 109.0185630
  30.5010669 116.0583891 108.8964520  29.9222663 117.3113896 109.5184316
  28.3192834 119.5611671  99.3148531  29.0401197 119.9392924  98.8112248
  27.6958138 120.2800548  99.4183509  32.4623957 120.2656820 100.2506864
  32.6787571 121.1481458  99.9495692  31.9818024 119.8743033  99.5212506
  27.2023178 123.2242533 106.8277608  27.0567759 123.5382836 107.7201890
  26.7248382 123.8427433 106.2748507  29.0619561 120.2145081 106.8758498
  29.0481130 119.3186174 106.5390796  29.7791989 120.2215745 107.5096784
  30.9145692 120.6482421 108.9211625  30.6563470 121.5699492 108.9195956
  30.3830732 120.2512856 109.6112090  35.8591881 133.7533208 101.7001711
  36.0328758 133.1879631 100.9475563  36.3520772 134.5534103 101.5181201
  21.6768841 125.7647877 109.7665270  21.1322309 126.5407685 109.8985544
  22.5548190 126.1118682 109.6084391  28.4656457 119.0959461 102.1446068
  28.5872368 118.1676108 102.3436956  28.1758500 119.1098147 101.2324384
  31.3347648 116.7814372 105.2812788  31.3569344 116.8453705 104.3264767
  31.7515707 115.9418880 105.4753294  41.7131272 126.5169631 103.3192011
  42.1562418 125.7676957 102.9211134  40.8357782 126.5079768 102.9365742
  36.8467053 133.0699973  98.7998609  37.5417958 133.6906665  99.0185924
  37.1890203 132.2195324  99.0750987  22.4634862 124.8917774 112.6595426
  21.7216598 125.0400409 113.2460057  22.1427607 125.1526039 111.7962176
  38.7458476 130.5199678 100.3285940  39.2709800 130.8586951  99.6035260
  38.6580829 129.5846694 100.1449074  30.4078525 134.4333752 112.4575816
  30.7165652 134.1882899 113.3298516  31.2054007 134.6380390 111.9694687
  30.4299137 136.5871662 104.6881193  29.9904127 136.0948040 105.3814050
  31.1807254 136.0444629 104.4473268  22.9091476 132.7783202 104.6905821
  23.7349496 132.4786974 104.3104465  22.5585528 132.0090825 105.1395610
  27.8773009 132.1309671 106.7603495  27.2553019 131.4680376 106.4605723
  28.5477876 132.1570803 106.0777142  21.1100081 130.6969529 105.6494755
  20.2731989 130.2691703 105.4678756  21.0823727 130.8901972 106.5865546
  27.9497537 120.6091459 116.3536001  27.9985692 121.4853582 115.9713770
  28.4920051 120.0668852 115.7807644  38.4352382 131.1532582 115.6337138
  37.6447926 131.1356721 115.0941637  38.1985737 131.6920876 116.3886174
  38.5550257 128.0025048 112.9469866  38.6048262 127.8375056 113.8885389
  38.4464181 127.1352307 112.5567747  27.4386516 130.6813594 100.2361955
  27.5874637 131.3649058  99.5828628  28.2452960 130.6618684 100.7511411
  35.8454020 123.9855976 114.2629173  36.7463883 123.8462441 113.9713171
  35.9201994 124.1510431 115.2027350  30.1796825 121.3622831 113.1082359
  29.3100135 121.6556397 112.8364948  30.4156306 121.9463276 113.8289623
  40.0568454 130.4221990 113.1911888  39.7653263 130.7851970 114.0275349
  39.4440586 129.7088998 113.0125220  41.2564137 127.9874870 105.7114458
  42.0911028 128.4264674 105.8752018  41.3923265 127.5113523 104.8922704
  38.3055643 125.5454604 111.6591946  38.7809764 125.7382251 110.8510797
  37.3821208 125.6013790 111.4135330  25.1939149 126.7078772 101.2423024
  24.9485191 125.8041102 101.4403234  25.3635064 126.7095922 100.3002502
  32.8835859 117.5802448 110.6247780  33.4017803 118.3163475 110.2994268
  32.5290992 117.8866441 111.4594539  24.4634797 122.4407129  98.7409186
  23.7704042 122.5151484  98.0849222  24.2186549 121.6767473  99.2630703
  33.1348453 114.0002731 106.1448676  33.4150207 113.3325920 106.7709103
  33.9199060 114.1931826 105.6323340  30.9381922 133.1761724  97.7073703
  30.3655889 133.7951912  97.2544174  31.5114715 133.7261086  98.2413625
  37.0057312 122.4220365 109.8920251  37.9574734 122.5218462 109.9132475
  36.8360762 121.6298633 110.4018336  35.0271691 119.5075948 110.0779652
  34.4321623 119.7880960 109.3826141  34.7421388 119.9969849 110.8496393
  34.1579181 133.4598875  98.8382285  35.0909855 133.3944436  99.0415160
  34.0702394 134.2955141  98.3796818  36.7867198 132.7764745  95.7986232
  36.7080830 132.4424609  96.6921990  37.6076865 133.2686513  95.7977705
  39.4845389 125.6426484 109.0062551  39.4521709 124.7042485 109.1922235
  40.0946013 125.7210521 108.2728376  31.3228720 124.5122537  95.0489755
  32.2687825 124.3828745  95.1178173  30.9442965 123.7737199  95.5259183
  39.6339878 122.4337528 109.0520834  39.1178926 121.6495984 108.8650763
  40.5179826 122.1056244 109.2167354  37.2950605 116.1778543 105.0116647
  37.0975426 115.8693631 105.8959979  37.9050310 116.9040182 105.1414577
  45.3021939 126.7042491 108.1468588  46.0325328 126.4427779 108.7076291
  44.6928885 125.9671213 108.1870656  43.3837236 124.8450354 108.7443039
  42.6570400 124.7106319 108.1359531  42.9684523 125.1527182 109.5499757
  31.2067413 128.5640283 116.5090412  32.1270422 128.7418882 116.7030459
  31.1716996 127.6196329 116.3570111  29.5071637 122.4372514  94.9844640
  28.6003093 122.1405626  95.0607354  29.7847618 122.1402332  94.1178927
  20.4249578 123.7578877 105.4343687  20.1052362 122.9044185 105.1418061
  19.8783006 123.9727455 106.1901654  24.2029485 126.4741318 109.1513193
  24.4215495 127.4058426 109.1701227  24.6155259 126.1149292 109.9367997
  31.1233703 116.9809403 101.1388882  30.3134431 116.6356488 101.5144128
  31.8118120 116.6716947 101.7276493  33.0524251 116.0587450 102.7613178
  33.6055290 116.4782904 103.4203201  33.2894338 115.1323198 102.8036134
  29.0757351 122.0474524 118.5415942  28.9754078 122.9968881 118.4728033
  28.8578893 121.7192763 117.6692012  28.2770422 119.2959449  95.1256620
  29.1389586 119.6214347  95.3852437  28.4620766 118.5090945  94.6129685
  20.2937838 127.3781789 107.4036808  19.6001309 126.9635741 106.8906763
  21.0410829 127.4202325 106.8070227  36.4303058 118.1687975 102.2691843
  35.8501728 118.8272779 101.8869895  36.1638991 117.3465320 101.8579260
  34.8806625 117.5693033 104.4713163  35.3806403 117.6809568 103.6627482
  35.5242233 117.2654086 105.1113971  28.9388621 125.4771663 117.3581004
  28.4555702 126.2772023 117.5644893  29.0249560 125.4879607 116.4048448
  22.2074580 127.3100042 105.2802823  22.1845268 127.4087730 104.3284706
  22.5175217 128.1565193 105.6019989  24.8661958 129.3676197 109.3949438
  25.8205212 129.3360140 109.3279369  24.6674482 128.9066821 110.2099664
  25.4561340 127.9377313 111.9620235  26.2754229 128.4321392 111.9855073
  25.7298148 127.0209282 111.9337803  35.2127936 120.3288066 101.3248191
  34.3253792 120.6137716 101.1068386  35.6281926 120.1681829 100.4775468
  38.5642473 120.3534587 105.0402530  39.3402863 120.8431039 105.3127147
  37.8390607 120.7792641 105.4974400  41.0015031 121.0662206 106.0976471
  41.5959522 120.8257942 105.3869779  41.0741615 120.3469336 106.7250007
  23.2212187 134.9095817 106.4119636  23.0866655 134.1496218 105.8457634
  22.8044249 135.6336717 105.9448424  34.3571150 130.0932740  95.4196211
  35.0607000 130.2982743  96.0353866  33.6333799 130.6609502  95.6845294
  35.1868960 125.8442602 101.5398481  35.1304162 126.3011153 100.7006113
  35.7397303 125.0833286 101.3621324  38.9973766 121.6332333 102.3648600
  38.7410700 121.2328969 103.1956808  38.3726634 122.3476127 102.2398740
  43.3086104 124.3728407 104.8719892  42.7485662 124.4421596 105.6451454
  42.7029607 124.1969391 104.1519388  26.3781313 135.8065134 106.6238078
  26.2613697 136.7510566 106.5216768  25.5573759 135.5038695 107.0123877
  36.2657847 130.5315270  97.4694671  37.1003451 130.0996468  97.2872146
  36.1042190 130.3597283  98.3971565  35.9203740 127.0347383  98.8351010
  35.8652543 126.8691654  97.8939454  35.2949795 127.7423416  98.9913200
  20.7096255 122.2715447 112.6612432  21.3555118 121.7614401 113.1499658
  20.5013406 123.0084129 113.2355858  33.2349647 129.3396295 118.1604573
  34.1040806 129.5136947 117.7991208  32.7556398 130.1590712 118.0380302
  29.2299865 116.5355492  98.4136329  29.2178535 117.4797332  98.5704599
  30.1223287 116.3525637  98.1195790  27.4035827 136.4593396 109.8394007
  28.3063074 136.4917006 110.1560502  27.1773197 135.5293847 109.8540342
  29.1589429 135.2124382 106.5004085  28.2085060 135.2126244 106.3868457
  29.4621915 134.4657117 105.9840120  33.0451984 113.1298268 102.6682265
  32.2784380 112.5756755 102.8138948  33.4562689 113.2020137 103.5296417
  25.0493746 119.4183064 116.7587447  25.9125207 119.0619869 116.9690771
  24.4759156 119.0796959 117.4462851  44.8942122 141.0484921 107.5649848
  45.5320532 140.9291668 106.8613188  44.7762965 141.9965765 107.6237800
  41.7031829 141.0012349 107.5011372  41.3650340 140.8853413 106.6131907
  42.5721597 140.6003514 107.4812378  37.5618644 142.8547825 103.4908263
  36.9983510 142.7637762 102.7224551  37.4471039 142.0347730 103.9710756
  42.1851612 142.1547200 113.4597578  42.1740252 141.7599999 112.5878081
  42.3472251 141.4213273 114.0531349  35.1083076 144.3499017 106.3292484
  35.9004368 144.0089841 105.9138783  35.3479727 144.4593992 107.2494637
  43.1418203 146.5218793  98.8022728  42.4906183 147.1072873  98.4156742
  43.9362566 147.0524988  98.8617766  37.0673830 143.6107930  99.2009862
  37.8404706 143.0636917  99.0622738  37.4199229 144.4752179  99.4124324
  38.9058873 144.9384312 112.4076762  38.6148739 145.8429943 112.2923428
  39.5415857 144.9800840 113.1220831  39.8315080 142.3161161 108.9978121
  40.4278652 142.0917183 108.2835084  39.8890051 141.5745906 109.6003569
  39.4040108 139.7700596  96.8328312  39.6565629 139.2482117  96.0711775
  38.4664667 139.6066742  96.9354996  44.4483391 138.7736375 104.6403056
  45.2346480 138.3555798 104.2893473  44.7122095 139.6782467 104.8084704
  44.6193468 144.2109225  99.3391712  43.9839301 144.2843851 100.0512617
  44.2890875 144.8002824  98.6610792  49.8491818 138.7111608 105.5436034
  50.5816990 138.1410825 105.7773864  49.0931174 138.3233208 105.9842540
  39.1236397 141.6728702  99.0352687  39.0072655 140.9973605  99.7033772
  39.2338657 141.1861076  98.2184840  41.4667938 141.1338849 102.7399377
  41.1026145 140.6069470 103.4512298  42.3235054 140.7437318 102.5665862
  47.3717238 132.4233182 110.0030643  47.0400563 133.2928593 109.7791858
  46.7762852 132.1069466 110.6824673  41.1073425 136.1628749  97.7360725
  41.2747827 137.0308985  98.1031196  40.9170594 136.3256031  96.8122014
  43.8648758 144.6245728 109.4026555  43.5649481 145.5270767 109.2942363
  43.5199817 144.3577911 110.2547708  37.3161239 141.0759525 105.4363260
  36.3911736 140.9435739 105.6440952  37.5645653 141.8553744 105.9333202
  47.2645902 137.1428268 107.0823993  46.3562779 137.0743676 106.7882754
  47.2133498 137.6200213 107.9105818  41.0862646 138.6186406  98.7207392
  40.9662271 139.0643457  99.5592872  40.3915234 138.9671724  98.1620930
  34.6770050 140.7192798 106.2707049  34.8062432 140.9727277 107.1846461
  33.9967502 141.3120506 105.9511704  41.3386768 138.5617914 115.0258890
  40.5620102 139.1211834 115.0161755  41.9777331 139.0474697 115.5473760
  49.1307548 135.3444706 108.8601867  48.4881928 135.6377240 108.2141661
  48.6262477 135.2297627 109.6655063  46.7847712 139.0907880  99.5487726
  47.6965568 139.3235266  99.3735424  46.2757359 139.6744924  98.9862805
  39.5933140 141.3703367 114.5876857  40.3347824 141.9088411 114.3111681
  38.8870125 141.9969656 114.7448409  45.0688479 143.5132507 113.1849019
  45.4771835 143.0714918 112.4403651  44.3465741 142.9385135 113.4383211
  41.4219550 138.4505114 110.5582576  42.2680745 138.8744528 110.7017225
  41.3618187 137.7938738 111.2521139  45.3917294 144.0733698 106.9401307
  44.7626157 144.2379412 106.2377375  45.0042956 144.4875308 107.7112271
  49.2706526 145.0088136 104.2945671  48.5857564 145.3887037 103.7442705
  49.3550375 145.6183463 105.0277619  44.5718995 136.1109483 112.2163749
  44.3279927 136.8651543 111.6798025  44.8478925 136.4894830 113.0510996
  46.5257458 142.6548095 110.8941015  46.7374353 143.2979855 110.2175396
  46.4787206 141.8210411 110.4262945  44.1283687 135.2665916 107.7977587
  43.2668166 135.5647169 108.0894324  44.1546121 135.4836314 106.8658620
  40.9445256 143.8108106 104.2051393  41.4083602 144.0895809 103.4156015
  40.6802054 142.9091551 104.0224483  37.8369337 143.3579588 107.1431156
  38.4070694 143.7866856 106.5048640  38.4277449 143.0762172 107.8415341
  39.8814142 139.9331258 101.0140958  40.5838185 140.3852302 101.4814884
  39.5494771 139.2915077 101.6420851  38.3294504 138.5243015 115.3892167
  37.6993164 139.2059296 115.6227564  38.2230591 138.4126097 114.4445305
  33.6239476 138.1914811 106.3158091  32.8338530 138.4472340 105.8398202
  34.1150723 139.0063149 106.4210132  47.6403286 145.5320050 109.0663372
  48.4620729 145.1300238 108.7846054  47.6365688 145.4288284 110.0179488
  35.5754221 138.5559390 103.2741568  34.7785385 138.6678085 103.7925064
  35.3479814 138.8946043 102.4082458  41.4059889 145.0804094 111.2224083
  41.4704322 145.5424501 112.0582254  40.6970813 144.4501459 111.3506392
  31.9077179 138.4445302 108.7473082  32.1585217 139.3292312 109.0130658
  32.4436727 138.2649903 107.9748174  55.7309279 141.8758799 105.4148344
  54.9772987 141.3066197 105.2592348  55.8656820 141.8421463 106.3618978
  41.1207907 146.7472201 101.0903063  40.9853581 147.5923737 101.5187911
  41.6617719 146.9491479 100.3268997  37.6075246 132.8263781 117.7517418
  37.2142192 132.2729980 118.4265062  38.4241387 133.1374359 118.1423936
  34.5737304 144.2647639 101.6630988  35.0861825 145.0590889 101.8136553
  35.2260017 143.5673930 101.5964589  36.3832189 147.3813395 103.7453741
  36.5598817 148.3031360 103.5574725  37.1789022 147.0671815 104.1748121
  40.5243207 134.2421660 115.3437675  41.2652921 134.8428813 115.2642137
  40.7561130 133.4999298 114.7855717  35.6684545 139.4278027 113.6215904
  35.5538060 138.5263285 113.9223003  34.8129063 139.6741724 113.2700721
  42.7476383 147.3695768 115.2203405  42.3040237 146.5832146 114.9024309
  43.4093597 147.5574918 114.5547296  44.8457621 147.6498568 113.2484806
  44.8276096 148.4707449 112.7565075  45.7677541 147.5252643 113.4734947
  41.3030675 145.1642697 114.0908315  41.8359012 144.4030985 113.8607623
  40.7744756 144.8716349 114.8332469  44.4700370 130.2702763 109.6201956
  44.1264640 131.1604405 109.5441067  44.8379333 130.0804421 108.7571541
  32.5386221 142.5936293 102.4390559  33.3761443 143.0033302 102.2224266
  32.7164489 141.6535736 102.4090752  44.4350653 140.2611374  98.1274391
  43.9197276 141.0315979  98.3662779  44.1627961 139.5876510  98.7507453
  42.0197764 135.1061075 103.1859630  41.1639360 134.7167925 103.0065269
  42.4324716 135.1853036 102.3259415  43.5496911 132.6407418 107.5851190
  43.0461706 132.6037553 106.7718995  43.8427517 133.5500161 107.6447846
  39.7939797 132.7246148 106.5917371  40.6592793 132.5288957 106.2323261
  39.8617305 132.4956500 107.5186728  49.4084927 143.0143729 100.0627565
  48.6314370 142.6754888  99.6182727  50.0876408 143.0196352  99.3882530
  44.2236956 138.1338466  99.9534173  43.9187092 138.4484615 100.8044316
  45.1767398 138.2119886  99.9961506  42.6683388 144.2928690 101.6027127
  42.1404750 143.5581449 101.2900364  42.1670891 145.0703366 101.3567095
  47.6476234 142.4877710 106.7194173  46.9899908 143.1776971 106.8074302
  48.4516633 142.8774142 107.0628159  37.4002116 134.9548356 103.9633738
  37.9745867 134.7323537 103.2306931  37.9873098 135.0237050 104.7162339
  46.4581693 140.8422083 104.7698115  46.9713575 141.4752075 105.2719824
  47.1082917 140.2423278 104.4041475  37.7271703 136.9852817  97.9829623
  36.8909015 137.3227503  98.3038898  37.5876472 136.8501797  97.0456760
  39.7024783 131.8289605 102.6908808  39.0489196 131.5138622 102.0665422
  39.6605257 131.2065345 103.4168631  40.8135988 142.1108900  94.6062100
  39.9063050 141.8798153  94.8053249  41.3107020 141.3146519  94.7936081
  42.9362524 138.3171538 107.0156455  42.0185085 138.5386485 106.8578143
  43.3522667 138.3917849 106.1568163  43.7197571 139.7162954 102.1459135
  44.4669390 140.2284351 101.8366258  43.9889161 139.3947007 103.0063529
  41.9924222 142.2121495  99.1286090  41.0835441 141.9280527  99.2258560
  42.0219305 142.6320573  98.2689397  47.2243489 145.8228084 102.8977257
  46.7705816 144.9818994 102.9542448  46.5937456 146.4589483 103.2352037
  46.1676409 136.7520070 104.1277925  45.4299165 136.2397456 104.4588167
  46.4203182 136.3120452 103.3161202  45.6676428 147.6604581 103.8327075
  45.9599403 148.2209638 103.1139441  46.1775049 147.9533142 104.5880235
  46.2688036 129.5296322 104.7219694  46.5746913 128.6693686 104.4345609
  46.9940641 130.1213942 104.5218688  32.5612392 139.9327009 103.1101292
  32.3636792 139.3396369 102.3852359  32.0059056 139.6279219 103.8277231
  40.5409116 139.8250115 105.2295885  40.5957725 138.8723952 105.1538362
  39.7300318 139.9809554 105.7137184  41.6900309 143.7530238  96.4674168
  41.2519739 143.0366097  96.0079806  42.4310750 143.9806353  95.9059260
  38.4801476 138.4427175 102.9886264  37.6669341 138.7421346 103.3951456
  38.9760470 138.0482864 103.7060746  40.6310053 148.4384932 104.9220529
  40.5886232 148.6645778 103.9929061  41.5472752 148.2048307 105.0706330
  44.0775687 138.9068999 111.8201158  44.4325075 139.1340473 112.6795624
  44.7247818 139.2387376 111.1978413  49.8073424 142.0287435 102.5250487
  49.6691323 142.2189031 101.5971676  49.4509643 142.7906818 102.9818538
  37.9715550 136.0145531 108.6047499  38.6114930 135.8734290 107.9070462
  37.1393081 135.7280044 108.2286101  49.8342804 144.0963962 107.5361758
  50.2679310 144.0039251 108.3844812  50.5474384 144.0721463 106.8981774
  38.7475854 145.3147961 104.7182491  39.5416453 144.8198281 104.5165066
  38.0367547 144.7865824 104.3550197  43.5670699 147.6966056 109.0694859
  43.6207721 148.2656993 109.8372575  42.6985480 147.8667942 108.7048896
  35.0558618 139.4591043 100.7942244  34.1256206 139.3975498 101.0112206
  35.1516090 138.9366995  99.9978885  34.9744167 135.9845856 103.3820486
  35.2350984 136.8991189 103.2729646  35.7961339 135.5170298 103.5317099
  36.4469092 137.3983613 110.5519310  37.1192145 137.1900975 109.9031959
  35.6198879 137.2005699 110.1124543  50.6958353 144.1387663 110.0694644
  50.8894243 145.0433474 110.3153919  50.5958972 143.6795082 110.9033229
  42.3494664 134.0245554 112.5684971  41.7022579 134.7235503 112.4749448
  43.1195679 134.4581698 112.9361219  45.7573462 144.2894406 115.6435524
  45.6058968 144.0604957 114.7265608  45.7478141 145.2465007 115.6566869
  42.5258798 141.8626319 110.6281791  43.4550858 142.0137478 110.4550758
  42.1049828 141.9510339 109.7730437  41.3247130 145.8876983 108.3980328
  41.1858216 145.5195767 109.2706267  40.5361726 146.4024622 108.2264286
  42.8752345 145.2658586 105.7869166  42.5402178 145.2259356 106.6826816
  42.3756291 144.6003302 105.3139577  36.8496589 140.6726216 111.3121747
  36.7116387 139.9406454 111.9133286  37.7601513 140.5835116 111.0305935
  45.8111537 142.6114620  96.0606226  45.1940708 141.8861448  95.9639279
  45.3428025 143.3723980  95.7173300  39.4778890 140.3846175 110.8005427
  40.1878509 139.7439367 110.7592046  39.4348198 140.6359070 111.7231608
  47.4665669 147.3213528 113.7212006  47.4078215 146.6372748 113.0542589
  47.8685187 148.0632518 113.2692632  38.1907824 137.3711393 112.6201067
  37.6545181 136.9202131 113.2722663  37.6024532 137.5057302 111.8771531
  37.6010083 136.8300044  95.1827530  36.7239549 136.7088845  94.8189777
  38.0767836 136.0386123  94.9306419  47.4683076 145.2853112 111.9525986
  46.5809855 144.9479034 112.0752385  48.0381627 144.5536143 112.1894751
  29.1212223 141.6177204 105.2769037  29.8083263 141.3038934 104.6890053
  28.9660352 142.5218569 105.0036289  33.9246945 136.5067401 109.7054061
  33.8405134 135.8993070 108.9704471  33.1029652 136.9976419 109.7063557
  40.7874009 149.1826335 102.4290051  40.0041531 149.7248015 102.5228275
  41.4866754 149.7000314 102.8284292  44.0970659 134.9920964 105.0724256
  44.5939359 134.2390926 104.7525326  43.3257641 135.0285281 104.5067465
  51.9500416 140.6961330 106.7142548  51.9390293 141.5786045 106.3436481
  51.0817796 140.3432880 106.5197085  43.4582913 149.8441399 111.0745388
  44.1710885 150.4788863 111.0021289  42.9672941 149.9405265 110.2585390
  45.1800440 143.7492651 102.6462680  44.2456718 143.8694114 102.4767384
  45.3577108 142.8465118 102.3822689  40.6805628 137.1338347 104.7995941
  40.3103415 136.5809387 105.4876846  41.1764720 136.5296481 104.2470941
  48.5672991 139.5909971 103.1812714  49.0333443 140.4237962 103.1073016
  49.0180492 139.1254952 103.8857972  38.5094826 147.5935842 111.8950959
  39.2104286 148.2272325 112.0480353  38.0389941 147.9350574 111.1346598
  46.6349222 145.9353792 100.1798866  46.9109066 145.8210386 101.0892740
  45.7653721 145.5371277 100.1411039  46.5389654 131.9590558 107.2203615
  45.6252734 132.1894784 107.3885822  46.9682755 132.0429002 108.0717647
  46.3096112 140.1480450 109.7203509  45.6567563 140.3956357 109.0655962
  46.6876492 139.3344588 109.3865986  43.2703286 150.1840143 103.8231679
  43.4525681 149.3661799 104.2859432  44.0936272 150.4007835 103.3856569
  43.6045452 149.1108328 101.0846728  44.1333218 148.6000782 100.4716890
  43.8673671 148.7950858 101.9492261  42.3583685 140.8900261 116.2069546
  41.6824322 140.7894390 116.8771921  43.1811319 140.7339474 116.6705543
  34.1062544 147.1272197 108.8282061  34.6915981 146.3815885 108.9609966
  33.9087383 147.4376154 109.7118725  28.6980199 139.6977797 107.5486504
  28.7364299 139.1641388 108.3423623  28.1920492 139.1713003 106.9297482
  36.0770961 134.5442338 111.0449047  36.1412288 135.4057169 110.6326444
  36.0138082 133.9316340 110.3121405  35.5523234 136.6165470 114.6922081
  36.1795273 136.2342548 115.3059605  34.6951153 136.3979672 115.0577774
  45.9517343 147.0228446 116.2975817  46.4957247 147.6358404 115.8030771
  45.3704187 147.5808024 116.8142830  32.3288777 138.4241900 100.6240436
  32.6242218 137.5152578 100.5707490  31.4276813 138.4029639 100.3021438
  44.2374856 150.1449164 107.4290844  44.1125995 149.3438903 106.9201790
  44.8953947 150.6395357 106.9404814  35.8583024 136.4997896 106.6067984
  35.1369610 137.1133864 106.4675458  36.6476280 137.0355661 106.5284630
  46.3009764 147.9458184 109.0570394  45.3540099 147.8263535 108.9848721
  46.6492537 147.0580682 109.1396656  38.6609337 133.8352323 112.8808636
  39.1843739 134.0814619 113.6434946  38.4421671 134.6672357 112.4611774
  34.0576618 136.1055997 100.7479761  33.7289324 135.2253376 100.5654867
  34.4115989 136.0503666 101.6356150  43.3056197 147.7410900 105.2574747
  43.1581160 146.8127607 105.4382317  44.1309691 147.7630991 104.7731822
  37.1718442 136.3928967 101.1155239  37.5114514 136.9214888 100.3933847
  37.6190562 136.7309373 101.8913805  46.9090319 148.5639459 106.3439619
  47.8336867 148.3582320 106.2064070  46.7405622 148.3155860 107.2528961
  39.8661882 134.7766018 110.5658307  39.5258703 133.9773831 110.9678987
  39.1600889 135.0767729 109.9935140  40.5178354 131.8615330 109.0185630
  41.3404423 131.3875808 108.8964520  40.7616418 132.6405814 109.5184316
  39.1586589 134.8903589  99.3148531  39.8794951 135.2684841  98.8112248
  38.5351893 135.6092465  99.4183509  43.3017712 135.5948738 100.2506864
  43.5181326 136.4773375  99.9495692  42.8211779 135.2034951  99.5212506
  38.0416933 138.5534451 106.8277608  37.8961514 138.8674754 107.7201890
  37.5642137 139.1719351 106.2748507  39.9013316 135.5436999 106.8758498
  39.8874885 134.6478092 106.5390796  40.6185744 135.5507662 107.5096784
  41.7539447 135.9774339 108.9211625  41.4957224 136.8991410 108.9195956
  41.2224487 135.5804773 109.6112090  46.6985635 149.0825126 101.7001711
  46.8722513 148.5171549 100.9475563  47.1914526 149.8826021 101.5181201
  32.5162595 141.0939795 109.7665270  31.9716063 141.8699603 109.8985544
  33.3941945 141.4410600 109.6084391  39.3050212 134.4251379 102.1446068
  39.4266123 133.4968025 102.3436956  39.0152254 134.4390065 101.2324384
  42.1741402 132.1106289 105.2812788  42.1963099 132.1745623 104.3264767
  42.5909461 131.2710798 105.4753294  52.5525026 141.8461549 103.3192011
  52.9956172 141.0968874 102.9211134  51.6751537 141.8371685 102.9365742
  47.6860808 148.3991890  98.7998609  48.3811712 149.0198583  99.0185924
  48.0283958 147.5487242  99.0750987  33.3028617 140.2209691 112.6595426
  32.5610353 140.3692327 113.2460057  32.9821361 140.4817957 111.7962176
  49.5852231 145.8491596 100.3285940  50.1103555 146.1878869  99.6035260
  49.4974583 144.9138611 100.1449074  41.2472280 149.7625670 112.4575816
  41.5559406 149.5174816 113.3298516  42.0447762 149.9672308 111.9694687
  38.7166764 147.4601588 106.7603495  38.0946773 146.7972293 106.4605723
  39.3871631 147.4862720 106.0777142  31.9493836 146.0261447 105.6494755
  31.1125744 145.5983621 105.4678756  31.9217481 146.2193890 106.5865546
  38.7891291 135.9383376 116.3536001  38.8379447 136.8145499 115.9713770
  39.3313805 135.3960769 115.7807644  49.2746137 146.4824500 115.6337138
  48.4841681 146.4648638 115.0941637  49.0379492 147.0212793 116.3886174
  49.3944012 143.3316966 112.9469866  49.4442017 143.1666973 113.8885389
  49.2857935 142.4644225 112.5567747  38.2780271 146.0105512 100.2361955
  38.4268391 146.6940976  99.5828628  39.0846714 145.9910602 100.7511411
  46.6847774 139.3147894 114.2629173  47.5857637 139.1754359 113.9713171
  46.7595749 139.4802349 115.2027350  41.0190580 136.6914749 113.1082359
  40.1493889 136.9848315 112.8364948  41.2550060 137.2755194 113.8289623
  50.8962209 145.7513908 113.1911888  50.6047017 146.1143888 114.0275349
  50.2834340 145.0380916 113.0125220  52.0957891 143.3166787 105.7114458
  52.9304783 143.7556591 105.8752018  52.2317020 142.8405441 104.8922704
  49.1449397 140.8746522 111.6591946  49.6203519 141.0674168 110.8510797
  48.2214962 140.9305708 111.4135330  36.0332904 142.0370689 101.2423024
  35.7878946 141.1333019 101.4403234  36.2028818 142.0387840 100.3002502
  43.7229614 132.9094366 110.6247780  44.2411557 133.6455393 110.2994268
  43.3684746 133.2158359 111.4594539  35.3028551 137.7699047  98.7409186
  34.6097796 137.8443402  98.0849222  35.0580303 137.0059391  99.2630703
  43.9742208 129.3294648 106.1448676  44.2543961 128.6617837 106.7709103
  44.7592815 129.5223744 105.6323340  41.7775676 148.5053642  97.7073703
  41.2049643 149.1243829  97.2544174  42.3508470 149.0553004  98.2413625
  47.8451066 137.7512282 109.8920251  48.7968489 137.8510380 109.9132475
  47.6754516 136.9590551 110.4018336  45.8665446 134.8367865 110.0779652
  45.2715378 135.1172878 109.3826141  45.5815142 135.3261766 110.8496393
  44.9972936 148.7890792  98.8382285  45.9303609 148.7236354  99.0415160
  44.9096149 149.6247059  98.3796818  47.6260953 148.1056663  95.7986232
  47.5474584 147.7716526  96.6921990  48.4470619 148.5978431  95.7977705
  50.3239144 140.9718402 109.0062551  50.2915464 140.0334403 109.1922235
  50.9339767 141.0502439 108.2728376  42.1622475 139.8414455  95.0489755
  43.1081579 139.7120663  95.1178173  41.7836720 139.1029117  95.5259183
  50.4733632 137.7629445 109.0520834  49.9572681 136.9787902 108.8650763
  51.3573581 137.4348162 109.2167354  48.1344359 131.5070461 105.0116647
  47.9369180 131.1985549 105.8959979  48.7444065 132.2332100 105.1414577
  56.1415694 142.0334409 108.1468588  56.8719082 141.7719697 108.7076291
  55.5322639 141.2963131 108.1870656  54.2230991 140.1742271 108.7443039
  53.4964154 140.0398236 108.1359531  53.8078278 140.4819100 109.5499757
  42.0461167 143.8932201 116.5090412  42.9664177 144.0710800 116.7030459
  42.0110750 142.9488246 116.3570111  40.3465392 137.7664431  94.9844640
  39.4396847 137.4697544  95.0607354  40.6241373 137.4694249  94.1178927
  31.2643332 139.0870795 105.4343687  30.9446117 138.2336103 105.1418061
  30.7176760 139.3019373 106.1901654  35.0423240 141.8033236 109.1513193
  35.2609250 142.7350344 109.1701227  35.4549014 141.4441210 109.9367997
  41.9627458 132.3101321 101.1388882  41.1528186 131.9648406 101.5144128
  42.6511875 132.0008865 101.7276493  43.8918006 131.3879368 102.7613178
  44.4449044 131.8074821 103.4203201  44.1288092 130.4615116 102.8036134
  39.9151105 137.3766441 118.5415942  39.8147832 138.3260798 118.4728033
  39.6972647 137.0484680 117.6692012  39.1164176 134.6251367  95.1256620
  39.9783340 134.9506265  95.3852437  39.3014521 133.8382862  94.6129685
  31.1331592 142.7073706 107.4036808  30.4395064 142.2927659 106.8906763
  31.8804583 142.7494243 106.8070227  47.2696813 133.4979893 102.2691843
  46.6895482 134.1564697 101.8869895  47.0032746 132.6757238 101.8579260
  45.7200379 132.8984951 104.4713163  46.2200158 133.0101485 103.6627482
  46.3635987 132.5946004 105.1113971  39.7782375 140.8063580 117.3581004
  39.2949457 141.6063940 117.5644893  39.8643314 140.8171525 116.4048448
  33.0468335 142.6391960 105.2802823  33.0239023 142.7379647 104.3284706
  33.3568971 143.4857111 105.6019989  35.7055713 144.6968115 109.3949438
  36.6598966 144.6652057 109.3279369  35.5068236 144.2358739 110.2099664
  36.2955095 143.2669231 111.9620235  37.1147984 143.7613310 111.9855073
  36.5691902 142.3501199 111.9337803  46.0521691 135.6579983 101.3248191
  45.1647546 135.9429634 101.1068386  46.4675680 135.4973747 100.4775468
  49.4036227 135.6826504 105.0402530  50.1796617 136.1722957 105.3127147
  48.6784361 136.1084559 105.4974400  51.8408786 136.3954124 106.0976471
  52.4353277 136.1549860 105.3869779  51.9135369 135.6761254 106.7250007
  45.1964904 145.4224658  95.4196211  45.9000755 145.6274661  96.0353866
  44.4727553 145.9901420  95.6845294  46.0262715 141.1734519 101.5398481
  45.9697916 141.6303071 100.7006113  46.5791057 140.4125204 101.3621324
  49.8367521 136.9624251 102.3648600  49.5804455 136.5620887 103.1956808
  49.2120389 137.6768045 102.2398740  54.1479858 139.7020324 104.8719892
  53.5879416 139.7713514 105.6451454  53.5423362 139.5261309 104.1519388
  47.1051602 145.8607187  97.4694671  47.9397206 145.4288386  97.2872146
  46.9435945 145.6889201  98.3971565  46.7597494 142.3639301  98.8351010
  46.7046298 142.1983572  97.8939454  46.1343549 143.0715333  98.9913200
  31.5490009 137.6007365 112.6612432  32.1948873 137.0906319 113.1499658
  31.3407160 138.3376047 113.2355858  44.0743401 144.6688212 118.1604573
  44.9434561 144.8428865 117.7991208  43.5950153 145.4882629 118.0380302
  40.0693619 131.8647410  98.4136329  40.0572289 132.8089249  98.5704599
  40.9617041 131.6817555  98.1195790  43.8845739 128.4590186 102.6682265
  43.1178135 127.9048673 102.8138948  44.2956444 128.5312055 103.5296417
  35.8887500 134.7474982 116.7587447  36.7518962 134.3911787 116.9690771
  35.3152911 134.4088877 117.4462851  55.2877145 154.1028292 104.6403056
  56.0740235 153.6847715 104.2893473  55.5515850 155.0074384 104.8084704
  60.6885573 154.0403525 105.5436034  61.4210744 153.4702742 105.7773864
  59.9324928 153.6525126 105.9842540  58.2110993 147.7525099 110.0030643
  57.8794318 148.6220510 109.7791858  57.6156606 147.4361383 110.6824673
  51.9467179 151.4920667  97.7360725  52.1141582 152.3600903  98.1031196
  51.7564348 151.6547948  96.8122014  58.1039656 152.4720186 107.0823993
  57.1956534 152.4035594 106.7882754  58.0527252 152.9492131 107.9105818
  59.9701303 150.6736624 108.8601867  59.3275683 150.9669157 108.2141661
  59.4656231 150.5589544 109.6655063  57.6241466 154.4199797  99.5487726
  58.5359322 154.6527184  99.3735424  57.1151113 155.0036841  98.9862805
  52.2613304 153.7797032 110.5582576  53.1074499 154.2036445 110.7017225
  52.2011942 153.1230656 111.2521139  55.4112749 151.4401400 112.2163749
  55.1673681 152.1943461 111.6798025  55.6872680 151.8186748 113.0510996
  54.9677441 150.5957833 107.7977587  54.1061920 150.8939087 108.0894324
  54.9939876 150.8128232 106.8658620  66.5703033 157.2050716 105.4148344
  65.8166741 156.6358115 105.2592348  66.7050574 157.1713381 106.3618978
  48.4469001 148.1555699 117.7517418  48.0535946 147.6021897 118.4265062
  49.2635141 148.4666277 118.1423936  51.3636962 149.5713578 115.3437675
  52.1046675 150.1720731 115.2642137  51.5954885 148.8291216 114.7855717
  55.3094125 145.5994681 109.6201956  54.9658394 146.4896322 109.5441067
  55.6773087 145.4096338 108.7571541  52.8591518 150.4352993 103.1859630
  52.0033115 150.0459843 103.0065269  53.2718470 150.5144953 102.3259415
  54.3890665 147.9699336 107.5851190  53.8855461 147.9329471 106.7718995
  54.6821272 148.8792079 107.6447846  50.6333551 148.0538066 106.5917371
  51.4986548 147.8580874 106.2323261  50.7011060 147.8248417 107.5186728
  55.0630711 153.4630384  99.9534173  54.7580846 153.7776533 100.8044316
  56.0161153 153.5411804  99.9961506  48.2395870 150.2840273 103.9633738
  48.8139622 150.0615455 103.2306931  48.8266853 150.3528968 104.7162339
  48.5665457 152.3144735  97.9829623  47.7302769 152.6519421  98.3038898
  48.4270227 152.1793714  97.0456760  50.5418538 147.1581522 102.6908808
  49.8882950 146.8430540 102.0665422  50.4999012 146.5357263 103.4168631
  53.7756278 153.6463456 107.0156455  52.8578840 153.8678403 106.8578143
  54.1916422 153.7209766 106.1568163  57.0070163 152.0811988 104.1277925
  56.2692920 151.5689374 104.4588167  57.2596937 151.6412369 103.3161202
  57.1081790 144.8588240 104.7219694  57.4140667 143.9985603 104.4345609
  57.8334395 145.4505860 104.5218688  54.9169442 154.2360917 111.8201158
  55.2718829 154.4632390 112.6795624  55.5641573 154.5679294 111.1978413
  48.8109305 151.3437448 108.6047499  49.4508684 151.2026207 107.9070462
  47.9786835 151.0571962 108.2286101  53.1888419 149.3537471 112.5684971
  52.5416334 150.0527421 112.4749448  53.9589434 149.7873615 112.9361219
  49.0301578 152.7003311 112.6201067  48.4938935 152.2494049 113.2722663
  48.4418287 152.8349219 111.8771531  48.4403837 152.1591962  95.1827530
  47.5633304 152.0380763  94.8189777  48.9161590 151.3678040  94.9306419
  54.9364414 150.3212882 105.0724256  55.4333113 149.5682844 104.7525326
  54.1651395 150.3577198 104.5067465  62.7894171 156.0253247 106.7142548
  62.7784047 156.9077963 106.3436481  61.9211550 155.6724798 106.5197085
  51.5199382 152.4630265 104.7995941  51.1497170 151.9101305 105.4876846
  52.0158475 151.8588398 104.2470941  59.4066746 154.9201888 103.1812714
  59.8727198 155.7529880 103.1073016  59.8574246 154.4546870 103.8857972
  57.3783408 147.2882475 107.2203615  56.4646488 147.5186702 107.3885822
  57.8076510 147.3720919 108.0717647  57.1489867 155.4772367 109.7203509
  56.4961317 155.7248275 109.0655962  57.5270247 154.6636505 109.3865986
  46.9164716 149.8734256 111.0449047  46.9806042 150.7349086 110.6326444
  46.8531836 149.2608257 110.3121405  46.3916988 151.9457388 114.6922081
  47.0189027 151.5634465 115.3059605  45.5344907 151.7271590 115.0577774
  49.5003092 149.1644240 112.8808636  50.0237494 149.4106537 113.6434946
  49.2815425 149.9964275 112.4611774  44.8970373 151.4347915 100.7479761
  44.5683079 150.5545294 100.5654867  45.2509744 151.3795584 101.6356150
  48.0112196 151.7220885 101.1155239  48.3508268 152.2506806 100.3933847
  48.4584316 152.0601291 101.8913805  50.7055637 150.1057935 110.5658307
  50.3652457 149.3065748 110.9678987  49.9994643 150.4059646 109.9935140
  51.3572109 147.1907248 109.0185630  52.1798178 146.7167726 108.8964520
  51.6010172 147.9697732 109.5184316  49.9980343 150.2195506  99.3148531
  50.7188706 150.5976759  98.8112248  49.3745647 150.9384383  99.4183509
  54.1411466 150.9240655 100.2506864  54.3575080 151.8065293  99.9495692
  53.6605533 150.5326869  99.5212506  50.7407070 150.8728916 106.8758498
  50.7268639 149.9770010 106.5390796  51.4579498 150.8799580 107.5096784
  52.5933201 151.3066257 108.9211625  52.3350979 152.2283327 108.9195956
  52.0618241 150.9096691 109.6112090  50.1443966 149.7543297 102.1446068
  50.2659877 148.8259943 102.3436956  49.8546009 149.7681983 101.2324384
  53.0135157 147.4398207 105.2812788  53.0356853 147.5037540 104.3264767
  53.4303216 146.6002716 105.4753294  63.3918781 157.1753467 103.3192011
  63.8349927 156.4260792 102.9211134  62.5145291 157.1663603 102.9365742
  49.6285046 151.2675294 116.3536001  49.6773201 152.1437417 115.9713770
  50.1707560 150.7252687 115.7807644  57.5241529 154.6439812 114.2629173
  58.4251392 154.5046277 113.9713171  57.5989503 154.8094267 115.2027350
  51.8584334 152.0206666 113.1082359  50.9887644 152.3140233 112.8364948
  52.0943815 152.6047111 113.8289623  59.9843152 156.2038440 111.6591946
  60.4597273 156.3966086 110.8510797  59.0608717 156.2597626 111.4135330
  54.5623368 148.2386283 110.6247780  55.0805312 148.9747310 110.2994268
  54.2078501 148.5450277 111.4594539  54.8135962 144.6586566 106.1448676
  55.0937716 143.9909755 106.7709103  55.5986569 144.8515662 105.6323340
  58.6844821 153.0804200 109.8920251  59.6362243 153.1802298 109.9132475
  58.5148271 152.2882468 110.4018336  56.7059200 150.1659783 110.0779652
  56.1109132 150.4464796 109.3826141  56.4208897 150.6553684 110.8496393
  61.1632898 156.3010320 109.0062551  61.1309218 155.3626320 109.1922235
  61.7733522 156.3794356 108.2728376  61.3127387 153.0921363 109.0520834
  60.7966435 152.3079820 108.8650763  62.1967335 152.7640080 109.2167354
  58.9738114 146.8362379 105.0116647  58.7762935 146.5277467 105.8959979
  59.5837819 147.5624018 105.1414577  66.9809448 157.3626326 108.1468588
  67.7112837 157.1011615 108.7076291  66.3716394 156.6255048 108.1870656
  65.0624745 155.5034189 108.7443039  64.3357909 155.3690154 108.1359531
  64.6472032 155.8111018 109.5499757  51.1859146 153.0956349  94.9844640
  50.2790602 152.7989462  95.0607354  51.4635127 152.7986167  94.1178927
  52.8021212 147.6393239 101.1388882  51.9921940 147.2940324 101.5144128
  53.4905629 147.3300782 101.7276493  54.7311760 146.7171285 102.7613178
  55.2842799 147.1366739 103.4203201  54.9681847 145.7907034 102.8036134
  50.7544860 152.7058359 118.5415942  50.6541586 153.6552716 118.4728033
  50.5366402 152.3776598 117.6692012  49.9557931 149.9543284  95.1256620
  50.8177095 150.2798183  95.3852437  50.1408275 149.1674780  94.6129685
  58.1090567 148.8271811 102.2691843  57.5289236 149.4856615 101.8869895
  57.8426500 148.0049155 101.8579260  56.5594134 148.2276868 104.4713163
  57.0593912 148.3393403 103.6627482  57.2029742 147.9237921 105.1113971
  56.8915445 150.9871901 101.3248191  56.0041300 151.2721552 101.1068386
  57.3069435 150.8265664 100.4775468  60.2429982 151.0118422 105.0402530
  61.0190372 151.5014874 105.3127147  59.5178116 151.4376476 105.4974400
  62.6802540 151.7246041 106.0976471  63.2747031 151.4841777 105.3869779
  62.7529124 151.0053172 106.7250007  60.6761275 152.2916169 102.3648600
  60.4198209 151.8912804 103.1956808  60.0514143 153.0059963 102.2398740
  64.9873613 155.0312242 104.8719892  64.4273171 155.1005431 105.6451454
  64.3817116 154.8553227 104.1519388  50.9087374 147.1939327  98.4136329
  50.8966044 148.1381167  98.5704599  51.8010796 147.0109473  98.1195790
  54.7239493 143.7882104 102.6682265  53.9571889 143.2340591 102.8138948
  55.1350198 143.8603973 103.5296417  46.7281255 150.0766900 116.7587447
  47.5912716 149.7203705 116.9690771  46.1546665 149.7380794 117.4462851
   1.5340507  42.2361333  92.1393650   0.7804216  41.6668731  91.9837655
   1.6688049  42.2023998  93.0864285   1.9446922  42.3936943  94.8713895
   2.6750311  42.1322231  95.4321598   1.3353868  41.6565665  94.9115962
   1.5367106  56.7379373  94.2895154   2.1745516  56.6186120  93.5858494
   1.4187949  57.6860217  94.3483106   1.0908374  54.4630826  91.3648362
   1.8771463  54.0450250  91.0138779   1.3547079  55.3676919  91.5330011
   1.2618452  59.9003677  86.0637019   0.6264285  59.9738303  86.7757924
   0.9315858  60.4897276  85.3856098   6.4916801  54.4006060  92.2681341
   7.2241973  53.8305276  92.5019170   5.7356157  54.0127660  92.7087846
   4.0142222  48.1127634  96.7275949   3.6825546  48.9823045  96.5037164
   3.4187835  47.7963918  97.4069980   3.9070885  52.8322720  93.8069299
   2.9987762  52.7638128  93.5128060   3.8558481  53.3094665  94.6351125
   5.7732531  51.0339158  95.5847173   5.1306912  51.3271691  94.9386968
   5.2687460  50.9192079  96.3900370   3.4272695  54.7802331  86.2733033
   4.3390551  55.0129718  86.0980730   2.9182342  55.3639376  85.7108111
   1.7113463  59.2026959  99.9094325   2.1196819  58.7609370  99.1648958
   0.9890724  58.6279587 100.1628518   2.0342277  59.7628150  93.6646614
   1.4051140  59.9273864  92.9622682   1.6467939  60.1769759  94.4357578
   5.9131509  60.6982588  91.0190978   5.2282547  61.0781489  90.4688011
   5.9975359  61.3077914  91.7522926   1.2143978  51.8003934  98.9409056
   0.9704910  52.5545995  98.4043331   1.4903909  52.1789282  99.7756303
   3.1682441  58.3442547  97.6186321   3.3799336  58.9874307  96.9420702
   3.1212189  57.5104863  97.1508251   4.2828269  61.2214502  95.7908679
   5.1045713  60.8194689  95.5091360   4.2790672  61.1182736  96.7424795
  12.3734262  57.5653251  92.1393650  11.6197970  56.9960649  91.9837655
  12.5081803  57.5315915  93.0864285   1.4882604  63.3393019  99.9730113
   1.4701080  64.1601900  99.4810382   2.4102524  63.2147095 100.1980254
   1.1125354  45.9597215  96.3447263   0.7689623  46.8498857  96.2686374
   1.4804316  45.7698873  95.4816848   1.0775636  55.9505826  84.8519698
   0.5622260  56.7210431  85.0908086   0.8052945  55.2770962  85.4752760
   6.0509910  58.7038181  86.7872872   5.2739353  58.3649340  86.3428034
   6.7301391  58.7090804  86.1127837   0.8661939  53.8232918  86.6779479
   0.5612075  54.1379067  87.5289622   1.8192382  53.9014338  86.7206812
   4.2901217  58.1772162  93.4439480   3.6324892  58.8671423  93.5319608
   5.0941616  58.5668594  93.7873466   3.1006676  56.5316535  91.4943421
   3.6138558  57.1646526  91.9965131   3.7507900  55.9317730  91.1286781
   3.8668472  61.5122536  89.6222564   3.4130799  60.6713446  89.6787754
   3.2362439  62.1483934  89.9597344   2.8101392  52.4414522  90.8523231
   2.0724149  51.9291908  91.1833474   3.0628165  52.0014904  90.0406508
   2.3101412  63.3499033  90.5572382   2.6024386  63.9104090  89.8384748
   2.8200032  63.6427594  91.3125541   2.9113019  45.2190774  91.4465001
   3.2171896  44.3588137  91.1590916   3.6365624  45.8108394  91.2463995
   0.7200671  54.5963451  98.5446465   1.0750058  54.8234924  99.4040930
   1.3672802  54.9281828  97.9223720   6.4498407  57.7181887  89.2495794
   6.3116306  57.9083483  88.3216983   6.0934626  58.4801270  89.7063845
   6.4767787  59.7858414  94.2607065   6.9104294  59.6933703  95.1090119
   7.1899368  59.7615915  93.6227081   7.3383337  59.8282115  96.7939950
   7.5319227  60.7327925  97.0399225   7.2383955  59.3689534  97.6278535
   2.3998445  59.9788858 102.3680831   2.2483952  59.7499409 101.4510915
   2.3903125  60.9359459 102.3812176   2.4536520  58.3009072  82.7851533
   1.8365691  57.5755900  82.6884585   1.9853009  59.0618432  82.4418607
   4.1090652  63.0107980 100.4457313   4.0503198  62.3267200  99.7787896
   4.5110170  63.7526970  99.9937939   4.1108059  60.9747564  98.6771293
   3.2234838  60.6373486  98.7997691   4.6806610  60.2430595  98.9140058
   8.5925400  56.3855782  93.4387854   8.5815276  57.2680497  93.0681787
   7.7242779  56.0327332  93.2442391   1.8225423  59.4387103  89.3707986
   0.8881702  59.5588566  89.2012690   2.0002092  58.5359570  89.1067996
   5.2097974  55.2804422  89.9058020   5.6758427  56.1132414  89.8318323
   5.6605475  54.8149404  90.6103279   3.2774206  61.6248244  86.9044172
   3.5534049  61.5104838  87.8138046   2.4078704  61.2265729  86.8656345
   3.1814637  47.6485009  93.9448922   2.2677717  47.8789236  94.1131129
   3.6107739  47.7323454  94.7962954   2.9521096  55.8374901  96.4448816
   2.2992546  56.0850809  95.7901268   3.3301476  55.0239040  96.1111293
   2.5942326  62.7122897 103.0221123   3.1382230  63.3252856 102.5276078
   2.0129171  63.2702476 103.5388136   0.8799839  65.8343615  94.1536151
   0.7550978  65.0333355  93.6447096   1.5378930  66.3289809  93.6650121
   2.9434747  63.6352636  95.7815701   1.9965083  63.5157987  95.7094028
   3.2917520  62.7475134  95.8641962   3.5515302  64.2533910  93.0684926
   4.4761850  64.0476772  92.9309377   3.3830606  64.0050312  93.9774267
   3.3410619  64.7719578  88.4247017   3.5147496  64.2066000  87.6720870
   3.8339510  65.5720473  88.2426507   9.1950010  57.5356001  90.0437317
   9.6381156  56.7863326  89.6456440   8.3176520  57.5266137  89.6611049
   4.3285791  64.0886342  85.5243916   5.0236696  64.7093035  85.7431230
   4.6708941  63.2381694  85.7996294   6.2277214  61.5386048  87.0531246
   6.7528538  61.8773321  86.3280566   6.1399567  60.6033063  86.8694381
   5.9171120  62.1718952 102.3582444   5.1266664  62.1543090 101.8186944
   5.6804475  62.7107245 103.1131481   6.0368995  59.0211418  99.6715173
   6.0867000  58.8561425 100.6130696   5.9282919  58.1538677  99.2813054
   3.3272758  55.0042346 100.9874480   4.2282620  54.8648811 100.6958477
   3.4020732  55.1696801 101.9272657   7.5387192  61.4408359  99.9157194
   7.2472000  61.8038340 100.7520655   6.9259323  60.7275368  99.7370527
   8.7382874  59.0061239  92.4359765   9.5729766  59.4451043  92.5997325
   8.8742003  58.5299892  91.6168010   5.7874380  56.5640974  98.3837252
   6.2628502  56.7568620  97.5756104   4.8639946  56.6200160  98.1380636
   0.6167191  45.0189100  92.8693983   0.8968945  44.3512289  93.4954409
   1.4017798  45.2118196  92.3568647   4.4876049  53.4406734  96.6165558
   5.4393472  53.5404832  96.6377782   4.3179500  52.6485003  97.1263642
   2.5090429  50.5262317  96.8024959   1.9140361  50.8067330  96.1071448
   2.2240126  51.0156218  97.5741700   1.6397919  64.4785244  85.5627592
   2.5728592  64.4130806  85.7660467   1.5521132  65.3141511  85.1042124
   4.2685936  63.7951115  82.5231539   4.1899567  63.4610978  83.4167297
   5.0895603  64.2872882  82.5223011   6.9664127  56.6612854  95.7307858
   6.9340447  55.7228855  95.9167542   7.5764751  56.7396891  94.9973683
   7.1158616  53.4523897  95.7766141   6.5997664  52.6682354  95.5896070
   7.9998564  53.1242614  95.9412660   4.7769343  47.1964913  91.7361954
   4.5794164  46.8880001  92.6205286   5.3869048  47.9226552  91.8659883
  12.7840677  57.7228861  94.8713895  13.5144065  57.4614149  95.4321598
  12.1747622  56.9857583  94.9115962  10.8655974  55.8636723  95.4688346
  10.1389138  55.7292688  94.8604837  10.4503261  56.1713552  96.2745064
   0.5342989  47.0773820  89.4858485   1.0874028  47.4969273  90.1448508
   0.7713076  46.1509568  89.5281441   3.9121796  49.1874345  88.9937149
   3.3320465  49.8459149  88.6115202   3.6457729  48.3651689  88.5824567
   2.3625363  48.5879403  91.1958470   2.8625141  48.6995937  90.3872788
   3.0060971  48.2840455  91.8359278   2.6946674  51.3474435  88.0493497
   1.8072529  51.6324086  87.8313692   3.1100663  51.1868199  87.2020774
   6.0461210  51.3720956  91.7647837   6.8221601  51.8617409  92.0372454
   5.3209345  51.7979010  92.2219706   8.4833769  52.0848575  92.8221777
   9.0778260  51.8444311  92.1115086   8.5560353  51.3655706  93.4495314
   1.8389888  61.1119110  82.1441517   2.5425738  61.3169112  82.7599173
   1.1152537  61.6795872  82.4090601   2.6687698  56.8628971  88.2643788
   2.6122899  57.3197523  87.4251420   3.2216040  56.1019656  88.0866630
   6.4792504  52.6518703  89.0893907   6.2229438  52.2515339  89.9202115
   5.8545372  53.3662497  88.9644046  10.7904842  55.3914776  91.5965199
  10.2304400  55.4607966  92.3696761  10.1848345  55.2155761  90.8764695
   3.7476585  61.5501639  84.1939977   4.5822189  61.1182838  84.0117452
   3.5860928  61.3783653  85.1216872   3.4022477  58.0533752  85.5596317
   3.3471281  57.8878024  84.6184761   2.7768533  58.7609785  85.7158506
  12.3760860  72.0671290  94.2895154  13.0139270  71.9478038  93.5858494
  12.2581703  73.0152134  94.3483106   9.1850567  72.0198718  94.2256679
   8.8469078  71.9039783  93.3377214  10.0540335  71.6189883  94.2057685
   5.0437382  73.8734195  90.2153570   4.4802247  73.7824132  89.4469858
   4.9289777  73.0534099  90.6956062   9.6670350  73.1733570 100.1842884
   9.6558990  72.7786368  99.3123388   9.8290989  72.4399643 100.7776656
   2.5901814  75.3685386  93.0537790   3.3823106  75.0276211  92.6384090
   2.8298464  75.4780361  93.9739944  10.6236941  77.5405162  85.5268035
   9.9724921  78.1259243  85.1402049  11.4181304  78.0711357  85.5863072
   4.5492568  74.6294300  85.9255169   5.3223444  74.0823287  85.7868045
   4.9017967  75.4938549  86.1369631   6.3877611  75.9570682  99.1322068
   6.0967477  76.8616313  99.0168735   7.0234595  75.9987209  99.8466138
   7.3133818  73.3347530  95.7223428   7.9097390  73.1103553  95.0080391
   7.3708789  72.5932276  96.3248876   6.8858846  70.7886966  83.5573619
   7.1384367  70.2668487  82.7957082   5.9483405  70.6253111  83.6600303
  11.9302129  69.7922744  91.3648362  12.7165218  69.3742167  91.0138779
  12.1940833  70.6968836  91.5330011  12.1012206  75.2295594  86.0637019
  11.4658039  75.3030221  86.7757924  11.7709612  75.8189193  85.3856098
  17.3310556  69.7297977  92.2681341  18.0635728  69.1597194  92.5019170
  16.5749912  69.3419578  92.7087846   6.6055135  72.6915072  85.7597994
   6.4891393  72.0159975  86.4279078   6.7157395  72.2047446  84.9430147
   8.9486676  72.1525219  89.4644683   8.5844883  71.6255840  90.1757605
   9.8053791  71.7623688  89.2911169  14.8535976  63.4419551  96.7275949
  14.5219301  64.3114962  96.5037164  14.2581590  63.1255835  97.4069980
   8.5892163  67.1815118  84.4606032   8.7566565  68.0495355  84.8276503
   8.3989332  67.3442400  83.5367321  11.3467496  75.6432097  96.1271862
  11.0468219  76.5457136  96.0187669  11.0018555  75.3764281  96.9793015
   4.7979977  72.0945894  92.1608567   3.8730474  71.9622108  92.3686258
   5.0464390  72.8740113  92.6578509  14.7464640  68.1614638  93.8069299
  13.8381517  68.0930046  93.5128060  14.6952235  68.6386582  94.6351125
   8.5681383  69.6372776  85.4452699   8.4481009  70.0829827  86.2838179
   7.8733972  69.9858094  84.8866237   2.1588788  71.7379168  92.9952356
   2.2881169  71.9913647  93.9091767   1.4786240  72.3306876  92.6757011
   6.3288276  82.4076418  89.0942830   6.2512305  83.3584243  89.1731310
   5.7249919  82.0622290  89.7517756   8.8205505  69.5804283 101.7504197
   8.0438839  70.1398203 101.7407061   9.4596068  70.0661066 102.2719067
  16.6126286  66.3631076  95.5847173  15.9700666  66.6563609  94.9386968
  16.1081214  66.2483996  96.3900370  14.2666450  70.1094249  86.2733033
  15.1784306  70.3421636  86.0980730  13.7576097  70.6931293  85.7108111
   7.0751878  72.3889737 101.3122164   7.8166562  72.9274780 101.0356987
   6.3688863  73.0156025 101.4693716  12.5507217  74.5318877  99.9094325
  12.9590573  74.0901287  99.1648958  11.8284479  73.9571504 100.1628518
   8.9038287  69.4691484  97.2827882   9.7499482  69.8930897  97.4262531
   8.8436925  68.8125108  97.9766445  12.8736032  75.0920068  93.6646614
  12.2444894  75.2565782  92.9622682  12.4861694  75.5061677  94.4357578
  16.7525264  76.0274505  91.0190978  16.0676302  76.4073407  90.4688011
  16.8369113  76.6369832  91.7522926  12.0537733  67.1295852  98.9409056
  11.8098665  67.8837913  98.4043331  12.3297663  67.5081200  99.7756303
  14.0076195  73.6734464  97.6186321  14.2193091  74.3166224  96.9420702
  13.9605944  72.8396781  97.1508251  11.6102424  66.2852285  94.5222894
  10.7486903  66.5833539  94.8139631  11.6364859  66.5022684  93.5903926
   8.4263994  74.8294476  90.9296699   8.8902339  75.1082179  90.1401322
   8.1620792  73.9277920  90.7469790   5.3188075  74.3765957  93.8676462
   5.8889432  74.8053226  93.2293947   5.9096187  74.0948542  94.5660648
   7.3632880  70.9517628  87.7386264   8.0656923  71.4038672  88.2060191
   7.0313508  70.3101447  88.3666157   5.8113241  69.5429385 102.1137474
   5.1811902  70.2245666 102.3472871   5.7049329  69.4312466 101.1690612
  15.1222023  76.5506420  95.7908679  15.9439467  76.1486607  95.5091360
  15.1184426  76.4474654  96.7424795   3.0572959  69.5745760  89.9986875
   2.2604122  69.6864454  90.5170370   2.8298551  69.9132412  89.1327765
   8.8878627  76.0990463  97.9469389   8.9523059  76.5610870  98.7827561
   8.1789551  75.4687828  98.0751699  23.2128016  72.8945168  92.1393650
  22.4591725  72.3252566  91.9837655  23.3475558  72.8607833  93.0864285
   8.6026644  77.7658571  87.8148370   8.4672319  78.6110106  88.2433217
   9.1436457  77.9677848  87.0514303   5.0893984  63.8450151 104.4762725
   4.6960930  63.2916349 105.1510369   5.9060124  64.1560729 104.8669242
   2.0556042  75.2834009  88.3876295   2.5680562  76.0777259  88.5381859
   2.7078755  74.5860299  88.3209896   3.8650927  78.3999765  90.4699048
   4.0417555  79.3217730  90.2820032   4.6607760  78.0858184  90.8993428
   8.0061945  65.2608030 102.0682981   8.7471658  65.8615183 101.9887444
   8.2379868  64.5185667 101.5101024   3.1503283  70.4464397 100.3461211
   3.0356798  69.5449654 100.6468310   2.2947801  70.6928094  99.9946028
  10.2295121  78.3882137 101.9448712   9.7858975  77.6018516 101.6269616
  10.8912334  78.5761288 101.2792602   4.9882242  79.9177939  96.4709390
   5.5389667  79.7895002  95.6986384   4.1493718  80.2172828  96.1204283
  12.3276359  78.6684937  99.9730113  12.3094834  79.4893818  99.4810382
  13.2496279  78.5439012 100.1980254   8.7849413  76.1829067 100.8153621
   9.3177750  75.4217355 100.5852929   8.2563494  75.8902718 101.5577776
  11.9519108  61.2889133  96.3447263  11.6083377  62.1790774  96.2686374
  12.3198071  61.0990790  95.4816848  11.9169391  71.2797744  84.8519698
  11.4016014  72.0502348  85.0908086  11.6446699  70.6062880  85.4752760
   9.5016502  66.1247444  89.9104937   8.6458098  65.7354295  89.7310575
   9.9143454  66.2039405  89.0504722  11.0315648  63.6593788  94.3096496
  10.5280444  63.6223923  93.4964302  11.3246255  64.5686530  94.3693153
   7.2758534  63.7432517  93.3162678   8.1411531  63.5475326  92.9568567
   7.3436043  63.5142869  94.2432035  16.8903665  74.0330098  86.7872872
  16.1133108  73.6941258  86.3428034  17.5695146  74.0382721  86.1127837
  11.7055694  69.1524836  86.6779479  11.4005829  69.4670985  87.5289622
  12.6586136  69.2306256  86.7206812  10.1502126  75.3115059  88.3272433
   9.6223487  74.5767819  88.0145671   9.6489628  76.0889735  88.0812402
  15.1294972  73.5064080  93.4439480  14.4718646  74.1963341  93.5319608
  15.9335371  73.8960512  93.7873466   4.8820853  65.9734725  90.6879045
   5.4564605  65.7509907  89.9552238   5.4691836  66.0423420  91.4407646
  13.9400431  71.8608452  91.4943421  14.4532312  72.4938444  91.9965131
  14.5901654  71.2609648  91.1286781   5.2090440  68.0039186  84.7074930
   4.3727753  68.3413873  85.0284205   5.0695210  67.8688166  83.7702067
   7.1843521  62.8475974  89.4154114   6.5307933  62.5324991  88.7910729
   7.1423995  62.2251715  90.1413937   8.2954726  73.1295269  81.3307406
   7.3881788  72.8984523  81.5298555   8.7925758  72.3332889  81.5181388
  11.2022805  81.8392777  84.2504092  10.5284504  82.1424473  84.8589050
  11.5888627  82.6421857  83.9009550  10.4181261  69.3357908  93.7401762
   9.5003823  69.5572855  93.5823450  10.8341405  69.4104218  92.8813469
  11.2016309  70.7349323  88.8704442  11.9488128  71.2470721  88.5611564
  11.4707899  70.4133376  89.7308836   9.4742959  73.2307864  85.8531396
   8.5654179  72.9466897  85.9503866   9.5038043  73.6506943  84.9934703
  14.7062227  76.8414454  89.6222564  14.2524554  76.0005364  89.6787754
  14.0756193  77.4775852  89.9597344  13.6495146  67.7706440  90.8523231
  12.9117903  67.2583826  91.1833474  13.9021920  67.3306821  90.0406508
  13.1495166  78.6790950  90.5572382  13.4418140  79.2396008  89.8384748
  13.6593787  78.9719511  91.3125541  13.7506774  60.5482692  91.4465001
  14.0565650  59.6880055  91.1590916  14.4759378  61.1400312  91.2463995
   8.0227853  70.8436485  91.9541192   8.0776463  69.8910321  91.8783668
   7.2119055  70.9995924  92.4382490   9.1719047  74.7716608  83.1919475
   8.7338477  74.0552467  82.7325112   9.9129488  74.9992723  82.6304566
   5.9620213  69.4613545  89.7131571   5.1488079  69.7607715  90.1196763
   6.4579208  69.0669233  90.4306053   8.1128791  79.4571301  91.6465835
   8.0704970  79.6832148  90.7174367   9.0291490  79.2234676  91.7951636
  11.5594425  69.9255369  98.5446465  11.9143813  70.1526842  99.4040930
  12.2066556  70.2573746  97.9223720  17.2892162  73.0473805  89.2495794
  17.1510061  73.2375401  88.3216983  16.9328381  73.8093188  89.7063845
   5.4534288  67.0331900  95.3292806   6.0933667  66.8920659  94.6315769
   4.6211819  66.7466413  94.9531408  17.3161542  75.1150332  94.2607065
  17.7498048  75.0225621  95.1090119  18.0293122  75.0907832  93.6227081
   6.2294592  76.3334330  91.4427798   7.0235190  75.8384651  91.2410373
   5.5186284  75.8052194  91.0795504  11.0489436  78.7152426  95.7940166
  11.1026459  79.2843362  96.5617882  10.1804218  78.8854311  95.4294203
   2.5377355  70.4777412  87.5187551   1.6074944  70.4161868  87.7357513
   2.6334827  69.9553365  86.7224192   2.4562905  67.0032225  90.1065792
   2.7169722  67.9177558  89.9974953   3.2780077  66.5356668  90.2562405
   3.9287830  68.4169982  97.2764617   4.6010883  68.2087344  96.6277266
   3.1017616  68.2192068  96.8369849  18.1777091  75.1574033  96.7939950
  18.3712981  76.0619843  97.0399225  18.0777709  74.6981452  97.6278535
   9.8313402  65.0431923  99.2930278   9.1841317  65.7421873  99.1994754
  10.6014417  65.4768067  99.6606526  13.2392200  75.3080775 102.3680831
  13.0877706  75.0791327 101.4510915  13.2296879  76.2651377 102.3812176
  10.0077536  72.8812688  97.3527098  10.9369596  73.0323848  97.1796065
   9.5868566  72.9696709  96.4975744   8.8065868  76.9063352  95.1225635
   8.6676954  76.5382137  95.9951573   8.0180464  77.4210992  94.9509593
   9.4014020  82.0072449  86.4651172   9.5765776  81.5360492  87.2796794
   8.7146808  82.6338215  86.6932432  10.3571083  76.2844955  92.5114473
  10.0220916  76.2445725  93.4072123   9.8575029  75.6189671  92.0384883
   4.3315327  71.6912585  98.0367054   4.1935125  70.9592824  98.6378593
   5.2420251  71.6021485  97.7551242  13.2930275  73.6300990  82.7851533
  12.6759445  72.9047818  82.6884585  12.8246763  74.3910350  82.4418607
   6.9597628  71.4032545  97.5250734   7.6697246  70.7625737  97.4837352
   6.9166936  71.6545439  98.4476914  14.9484406  78.3399898 100.4457313
  14.8896953  77.6559118  99.7787896  15.3503925  79.0818888  99.9937939
   5.6726562  68.3897762  99.3446373   5.1363919  67.9388501  99.9967970
   5.0843270  68.5243671  98.6016838   3.9675105  85.1561812  93.2391032
   4.2071703  85.7880336  93.9170050   3.1244302  84.8049852  93.5256391
   5.0828821  67.8486414  81.9072837   4.2058287  67.7275215  81.5435084
   5.5586574  67.0572492  81.6551725  14.9501814  76.3039482  98.6771293
  14.0628592  75.9665404  98.7997691  15.5200365  75.5722513  98.9140058
   1.4065683  67.5253770  96.4299368   1.3223872  66.9179440  95.6949778
   0.5848389  68.0162788  96.4308864   8.4802967  80.9640934  95.6432536
   8.4073139  81.7695906  96.1551840   8.0380360  81.1632900  94.8180557
   8.2692747  80.2012704  89.1535357   7.4860269  80.7434384  89.2473582
   8.9685492  80.7186684  89.5529599  11.5789397  66.0107334  91.7969563
  12.0758096  65.2577296  91.4770633  10.8076378  66.0471650  91.2312772
  19.4319154  71.7147699  93.4387854  19.4209030  72.5972415  93.0681787
  18.5636534  71.3619250  93.2442391  10.9401651  80.8627768  97.7990694
  11.6529623  81.4975233  97.7266596  10.4491679  80.9591634  96.9830696
  12.6619178  74.7679021  89.3707986  11.7275456  74.8880483  89.2012690
  12.8395846  73.8651488  89.1067996   8.1624366  68.1524717  91.5241247
   7.7922153  67.5995757  92.2122153   8.6583458  67.5482850  90.9716247
  16.0491729  70.6096340  89.9058020  16.5152181  71.4424332  89.8318323
  16.4999229  70.1441322  90.6103279   5.9913564  78.6122212  98.6196265
   6.6923024  79.2458695  98.7725660   5.5208679  78.9536943  97.8591905
  14.1167960  76.9540161  86.9044172  14.3927804  76.8396756  87.8138046
  13.2472459  76.5557646  86.8656345  14.0208392  62.9776927  93.9448922
  13.1071471  63.2081154  94.1131129  14.4501493  63.0615371  94.7962954
  13.7914850  71.1666819  96.4448816  13.1386300  71.4142727  95.7901268
  14.1695230  70.3530957  96.1111293  10.7522024  81.2026512  90.5476986
  10.9344419  80.3848168  91.0104738  11.5755010  81.4194205  90.1101876
  11.0864190  80.1294697  87.8092034  11.6151956  79.6187152  87.1962197
  11.3492409  79.8137228  88.6737567   9.8402423  71.9086630 102.9314853
   9.1643060  71.8080759 103.6017228  10.6630057  71.7525844 103.3950850
   1.5881282  78.1458567  95.5527368   2.1734719  77.4002255  95.6855272
   1.3906121  78.4562523  96.4364032   4.4419937  81.1809814  90.5689810
   3.7730313  81.6655942  90.0853850   4.3032807  81.4279035  91.4833189
   8.5825206  83.2153558  97.1672469   9.1343514  83.3785179  97.9321554
   8.9231399  83.8057995  96.4952494   3.5589699  65.5628707  97.7694353
   3.6231026  66.4243538  97.3571751   3.4956820  64.9502709  97.0366712
   3.0341972  67.6351840 101.4167388   3.6614011  67.2528917 102.0304912
   2.1769891  67.4166042 101.7823080  13.4336080  78.0414815 103.0221123
  13.9775984  78.6544773 102.5276078  12.8522925  78.5994394 103.5388136
  11.7193593  81.1635533  94.1536151  11.5944733  80.3625273  93.6447096
  12.3772684  81.6581727  93.6650121   3.3401762  67.5184266  93.3313291
   2.6188347  68.1320233  93.1920764   4.1295017  68.0542030  93.2529937
  13.7828502  78.9644553  95.7815701  12.8358837  78.8449904  95.7094028
  14.1311275  78.0767051  95.8641962   6.1428075  64.8538692  99.6053943
   6.6662477  65.1000989 100.3680252   5.9240408  65.6858727  99.1857080
   1.5395356  67.1242367  87.4725068   1.2108062  66.2439746  87.2900174
   1.8934727  67.0690035  88.3601457  10.7874935  78.7597269  91.9820053
  10.6399897  77.8313977  92.1627623  11.6128429  78.7817360  91.4977128
   4.6537179  67.4115337  87.8400545   4.9933252  67.9401258  87.1179154
   5.1009300  67.7495743  88.6159112  14.3909057  79.5825828  93.0684926
  15.3155604  79.3768690  92.9309377  14.2224360  79.3342229  93.9774267
   7.3480620  65.7952387  97.2903613   7.0077440  64.9960200  97.6924293
   6.6419626  66.0954098  96.7180447   7.9997092  62.8801700  95.7430936
   8.8223161  62.4062178  95.6209827   8.2435155  63.6592183  96.2429623
   6.6405326  65.9089958  86.0393838   7.3613689  66.2871211  85.5357555
   6.0170631  66.6278835  86.1428816  10.7836449  66.6135107  86.9752170
  11.0000064  67.4959745  86.6740999  10.3030516  66.2221320  86.2457812
   5.5235671  69.5720820  93.5522915   5.3780251  69.8861123  94.4447197
   5.0460874  70.1905721  92.9993814   7.3832054  66.5623368  93.6003805
   7.3693622  65.6664462  93.2636103   8.1004482  66.5694032  94.2342091
   9.2358184  66.9960709  95.6456932   8.9775962  67.9177779  95.6441262
   8.7043225  66.5991143  96.3357396  14.1804373  80.1011496  88.4247017
  14.3541251  79.5357918  87.6720870  14.6733264  80.9012391  88.2426507
   6.7868950  65.4437749  88.8691375   6.9084861  64.5154395  89.0682262
   6.4970992  65.4576435  87.9569690   9.6560140  63.1292659  92.0058095
   9.6781837  63.1931992  91.0510074  10.0728199  62.2897168  92.1998601
  20.0343764  72.8647919  90.0437317  20.4774910  72.1155244  89.6456440
  19.1570275  72.8558055  89.6611049  15.1679546  79.4178260  85.5243916
  15.8630450  80.0384953  85.7431230  15.5102696  78.5673611  85.7996294
  17.0670969  76.8677966  87.0531246  17.5922293  77.2065238  86.3280566
  16.9793321  75.9324981  86.8694381   8.7291017  80.7812039  99.1821123
   9.0378144  80.5361186 100.0543823   9.5266499  80.9858678  98.6939993
   8.7511629  82.9349949  91.4126500   8.3116620  82.4426328  92.1059356
   9.5019746  82.3922917  91.1718575   1.2303968  79.1261490  91.4151128
   2.0561988  78.8265262  91.0349771   0.8798020  78.3569112  91.8640916
   6.1985502  78.4787958  93.4848801   5.5765511  77.8158663  93.1851029
   6.8690368  78.5049090  92.8022449   6.2710029  66.9569746 103.0781307
   6.3198185  67.8331869 102.6959077   6.8132543  66.4147139 102.5052951
  16.7564875  77.5010869 102.3582444  15.9660418  77.4835008 101.8186944
  16.5198229  78.0399163 103.1131481  16.8762750  74.3503336  99.6715173
  16.9260755  74.1853343 100.6130696  16.7676673  73.4830595  99.2813054
   5.7599008  77.0291881  86.9607262   5.9087129  77.7127346  86.3073935
   6.5665452  77.0096971  87.4756718  14.1666512  70.3334264 100.9874480
  15.0676375  70.1940728 100.6958477  14.2414487  70.4988718 101.9272657
   8.5009317  67.7101118  99.8327666   7.6312627  68.0034684  99.5610255
   8.7368798  68.2941563 100.5534930  18.3780947  76.7700277  99.9157194
  18.0865755  77.1330258 100.7520655  17.7653078  76.0567285  99.7370527
  19.5776629  74.3353157  92.4359765  20.4123520  74.7742961  92.5997325
  19.7135758  73.8591810  91.6168010  16.6268135  71.8932892  98.3837252
  17.1022256  72.0860538  97.5756104  15.7033700  71.9492078  98.1380636
   3.5151641  73.0557059  87.9668331   3.2697683  72.1519389  88.1648541
   3.6847556  73.0574209  87.0247809  11.2048351  63.9280735  97.3493086
  11.7230295  64.6641762  97.0239575  10.8503484  64.2344729  98.1839845
   2.7847289  68.7885416  85.4654492   2.0916534  68.8629771  84.8094528
   2.5399041  68.0245760  85.9876009  11.4560945  60.3481018  92.8693983
  11.7362699  59.6804207  93.4954409  12.2411552  60.5410113  92.3568647
   9.2594414  79.5240012  84.4319009   8.6868381  80.1430199  83.9789481
   9.8327208  80.0739373  84.9658931  15.3269804  68.7698652  96.6165558
  16.2787227  68.8696749  96.6377782  15.1573254  67.9776920  97.1263642
  13.3484183  65.8554235  96.8024959  12.7534115  66.1359248  96.1071448
  13.0633880  66.3448136  97.5741700  12.4791674  79.8077162  85.5627592
  13.4122347  79.7422724  85.7660467  12.3914887  80.6433429  85.1042124
  15.1079690  79.1243032  82.5231539  15.0293322  78.7902896  83.4167297
  15.9289357  79.6164800  82.5223011  17.8057882  71.9904772  95.7307858
  17.7734202  71.0520772  95.9167542  18.4158505  72.0688808  94.9973683
   9.6441212  70.8600824  81.7735062  10.5900317  70.7307033  81.8423480
   9.2655457  70.1215486  82.2504490  17.9552370  68.7815815  95.7766141
  17.4391419  67.9974272  95.5896070  18.8392319  68.4534532  95.9412660
  15.6163097  62.5256831  91.7361954  15.4187918  62.2171919  92.6205286
  16.2262803  63.2518469  91.8659883  23.6234431  73.0520778  94.8713895
  24.3537820  72.7906066  95.4321598  23.0141377  72.3149500  94.9115962
  21.7049729  71.1928641  95.4688346  20.9782892  71.0584606  94.8604837
  21.2897015  71.5005470  96.2745064   9.5279905  74.9118571 103.2335719
  10.4482914  75.0897170 103.4275765   9.4929488  73.9674616 103.0815418
   7.8284130  68.7850801  81.7089947   6.9215585  68.4883914  81.7852661
   8.1060111  68.4880619  80.8424233   2.5241978  72.8219605  95.8758500
   2.7427987  73.7536713  95.8946534   2.9367751  72.4627580  96.6613304
   9.4446195  63.3287691  87.8634188   8.6346924  62.9834776  88.2389434
  10.1330612  63.0195234  88.4521800  11.3736744  62.4065737  89.4858485
  11.9267782  62.8261191  90.1448508  11.6106830  61.4801485  89.5281441
   7.3969843  68.3952811 105.2661249   7.2966570  69.3447168 105.1973340
   7.1791385  68.0671050 104.3937319   6.5982914  65.6437736  81.8501926
   7.4602078  65.9692634  82.1097744   6.7833258  64.8569232  81.3374992
  14.7515551  64.5166263  88.9937149  14.1714220  65.1751067  88.6115202
  14.4851483  63.6943607  88.5824567  13.2019117  63.9171320  91.1958470
  13.7018895  64.0287855  90.3872788  13.8454725  63.6132373  91.8359278
   7.2601113  71.8249950 104.0826310   6.7768195  72.6250310 104.2890200
   7.3462052  71.8357895 103.1293754   0.5287073  73.6578330  92.0048130
   0.5057761  73.7566017  91.0530013   0.8387709  74.5043480  92.3265296
   3.1874450  75.7154485  96.1194744   4.1417704  75.6838427  96.0524676
   2.9886974  75.2545108  96.9344970   3.7773833  74.2855601  98.6865542
   4.5966722  74.7799679  98.7100379   4.0510640  73.3687569  98.6583109
  13.5340429  66.6766353  88.0493497  12.6466284  66.9616004  87.8313692
  13.9494418  66.5160116  87.2020774  16.8854965  66.7012874  91.7647837
  17.6615355  67.1909326  92.0372454  16.1603099  67.1270928  92.2219706
  19.3227524  67.4140493  92.8221777  19.9172014  67.1736229  92.1115086
  19.3954107  66.6947624  93.4495314   1.5424679  81.2574104  93.1364942
   1.4079147  80.4974505  92.5702940   1.1256741  81.9815004  92.6693731
  12.6783642  76.4411028  82.1441517  13.3819492  76.6461030  82.7599173
  11.9546291  77.0087789  82.4090601  13.5081453  72.1920889  88.2643788
  13.4516654  72.6489440  87.4251420  14.0609795  71.4311573  88.0866630
  17.3186258  67.9810621  89.0893907  17.0623193  67.5807256  89.9202115
  16.6939126  68.6954415  88.9644046  21.6298596  70.7206694  91.5965199
  21.0698154  70.7899883  92.3696761  21.0242100  70.5447679  90.8764695
   4.6993805  82.1543421  93.3483385   4.5826189  83.0988854  93.2462075
   3.8786251  81.8516983  93.7369184  14.5870340  76.8793557  84.1939977
  15.4215944  76.4474755  84.0117452  14.4254683  76.7075570  85.1216872
  14.2416232  73.3825670  85.5596317  14.1865036  73.2169942  84.6184761
  13.6162287  74.0901703  85.7158506  11.5562139  75.6874582 104.8849880
  12.4253299  75.8615234 104.5236514  11.0768890  76.5068999 104.7625609
   7.5512357  62.8833779  85.1381635   7.5391027  63.8275619  85.2949906
   8.4435779  62.7003925  84.8441096   5.7248319  82.8071683  96.5639313
   6.6275566  82.8395293  96.8805808   5.4985689  81.8772134  96.5785649
   7.4801921  81.5602670  93.2249392   6.5297552  81.5604531  93.1113764
   7.7834407  80.8135404  92.7085426  11.3664477  59.4776556  89.3927572
  10.5996873  58.9235042  89.5384254  11.7775182  59.5498425  90.2541724
   3.3706238  65.7661352 103.4832753   4.2337699  65.4098156 103.6936078
   2.7971648  65.4275246 104.1708157  23.2154615  87.3963208  94.2895154
  23.8533025  87.2769955  93.5858494  23.0975458  88.3444052  94.3483106
  20.0244321  87.3490636  94.2256679  19.6862833  87.2331701  93.3377214
  20.8934089  86.9481801  94.2057685  15.8831137  89.2026112  90.2153570
  15.3196002  89.1116049  89.4469858  15.7683532  88.3826017  90.6956062
  20.5064104  88.5025488 100.1842884  20.4952745  88.1078286  99.3123388
  20.6684743  87.7691560 100.7776656  13.4295569  90.6977304  93.0537790
  14.2216861  90.3568129  92.6384090  13.6692219  90.8072279  93.9739944
  21.4630695  92.8697080  85.5268035  20.8118675  93.4551161  85.1402049
  22.2575058  93.4003275  85.5863072  15.3886323  89.9586217  85.9255169
  16.1617199  89.4115204  85.7868045  15.7411721  90.8230467  86.1369631
  17.2271365  91.2862600  99.1322068  16.9361231  92.1908230  99.0168735
  17.8628349  91.3279127  99.8466138  18.1527572  88.6639448  95.7223428
  18.7491144  88.4395470  95.0080391  18.2102544  87.9224194  96.3248876
  17.7252600  86.1178883  83.5573619  17.9778121  85.5960405  82.7957082
  16.7877159  85.9545029  83.6600303  22.7695883  85.1214662  91.3648362
  23.5558972  84.7034085  91.0138779  23.0334588  86.0260754  91.5330011
  22.9405961  90.5587512  86.0637019  22.3051794  90.6322139  86.7757924
  22.6103367  91.1481111  85.3856098  28.1704310  85.0589895  92.2681341
  28.9029482  84.4889112  92.5019170  27.4143666  84.6711495  92.7087846
  17.4448889  88.0206989  85.7597994  17.3285147  87.3451893  86.4279078
  17.5551149  87.5339363  84.9430147  19.7880430  87.4817136  89.4644683
  19.4238637  86.9547757  90.1757605  20.6447546  87.0915606  89.2911169
  25.6929731  78.7711469  96.7275949  25.3613055  79.6406880  96.5037164
  25.0975344  78.4547753  97.4069980  19.4285917  82.5107036  84.4606032
  19.5960319  83.3787273  84.8276503  19.2383086  82.6734318  83.5367321
  22.1861250  90.9724015  96.1271862  21.8861973  91.8749054  96.0187669
  21.8412310  90.7056198  96.9793015  15.6373732  87.4237812  92.1608567
  14.7124228  87.2914026  92.3686258  15.8858145  88.2032031  92.6578509
  25.5858394  83.4906555  93.8069299  24.6775271  83.4221964  93.5128060
  25.5345990  83.9678500  94.6351125  19.4075138  84.9664694  85.4452699
  19.2874763  85.4121744  86.2838179  18.7127726  85.3150011  84.8866237
  12.9982543  87.0671085  92.9952356  13.1274924  87.3205564  93.9091767
  12.3179994  87.6598793  92.6757011  17.1682030  97.7368335  89.0942830
  17.0906060  98.6876160  89.1731310  16.5643674  97.3914208  89.7517756
  19.6599260  84.9096201 101.7504197  18.8832594  85.4690121 101.7407061
  20.2989823  85.3952984 102.2719067  27.4520040  81.6922994  95.5847173
  26.8094421  81.9855527  94.9386968  26.9474969  81.5775914  96.3900370
  25.1060204  85.4386167  86.2733033  26.0178060  85.6713554  86.0980730
  24.5969851  86.0223211  85.7108111  17.9145632  87.7181654 101.3122164
  18.6560316  88.2566698 101.0356987  17.2082618  88.3447943 101.4693716
  23.3900972  89.8610795  99.9094325  23.7984328  89.4193205  99.1648958
  22.6678233  89.2863422 100.1628518  19.7432042  84.7983401  97.2827882
  20.5893237  85.2222815  97.4262531  19.6830679  84.1417026  97.9766445
  23.7129786  90.4211985  93.6646614  23.0838649  90.5857699  92.9622682
  23.3255448  90.8353595  94.4357578  27.5919018  91.3566423  91.0190978
  26.9070056  91.7365324  90.4688011  27.6762868  91.9661750  91.7522926
  22.8931487  82.4587770  98.9409056  22.6492419  83.2129830  98.4043331
  23.1691418  82.8373117  99.7756303  24.8469950  89.0026382  97.6186321
  25.0586845  89.6458142  96.9420702  24.7999698  88.1688699  97.1508251
  22.4496179  81.6144203  94.5222894  21.5880658  81.9125456  94.8139631
  22.4758614  81.8314602  93.5903926  19.2657748  90.1586393  90.9296699
  19.7296094  90.4374096  90.1401322  19.0014546  89.2569838  90.7469790
  16.1581829  89.7057875  93.8676462  16.7283186  90.1345143  93.2293947
  16.7489941  89.4240460  94.5660648  18.2026634  86.2809546  87.7386264
  18.9050678  86.7330589  88.2060191  17.8707263  85.6393365  88.3666157
  16.6506996  84.8721302 102.1137474  16.0205656  85.5537583 102.3472871
  16.5443084  84.7604384 101.1690612  11.9451968  84.5393098  93.0403398
  11.1551022  84.7950627  92.5643509  12.4363216  85.3541436  93.1455438
  25.9615778  91.8798338  95.7908679  26.7833222  91.4778525  95.5091360
  25.9578181  91.7766572  96.7424795  13.8966714  84.9037678  89.9986875
  13.0997877  85.0156372  90.5170370  13.6692306  85.2424330  89.1327765
  19.7272381  91.4282381  97.9469389  19.7916814  91.8902788  98.7827561
  19.0183305  90.7979746  98.0751699  10.2289671  84.7923589  95.4718389
  10.4797710  85.6770599  95.7375965  10.7649220  84.6128190  94.6993481
  34.0521771  88.2237086  92.1393650  33.2985479  87.6544484  91.9837655
  34.1869312  88.1899751  93.0864285  19.4420399  93.0950488  87.8148370
  19.3066074  93.9402024  88.2433217  19.9830211  93.2969766  87.0514303
  15.9287739  79.1742068 104.4762725  15.5354684  78.6208267 105.1510369
  16.7453879  79.4852647 104.8669242  12.8949796  90.6125926  88.3876295
  13.4074317  91.4069177  88.5381859  13.5472509  89.9152217  88.3209896
  14.7044681  93.7291683  90.4699048  14.8811309  94.6509647  90.2820032
  15.5001515  93.4150102  90.8993428  18.8455700  80.5899947 102.0682981
  19.5865413  81.1907100 101.9887444  19.0773622  79.8477585 101.5101024
  13.9897038  85.7756315 100.3461211  13.8750553  84.8741572 100.6468310
  13.1341555  86.0220011  99.9946028  21.0688875  93.7174055 101.9448712
  20.6252730  92.9310433 101.6269616  21.7306089  93.9053205 101.2792602
  15.8275996  95.2469856  96.4709390  16.3783422  95.1186920  95.6986384
  14.9887472  95.5464745  96.1204283  23.1670113  93.9976855  99.9730113
  23.1488589  94.8185736  99.4810382  24.0890033  93.8730930 100.1980254
  19.6243168  91.5120984 100.8153621  20.1571504  90.7509272 100.5852929
  19.0957249  91.2194636 101.5577776  22.7912863  76.6181050  96.3447263
  22.4477132  77.5082692  96.2686374  23.1591825  76.4282708  95.4816848
  10.8598713  88.9414581  89.1635865  11.6973935  89.3511589  88.9469573
  11.0376981  88.0014023  89.1336059  22.7563145  86.6089661  84.8519698
  22.2409769  87.3794266  85.0908086  22.4840454  85.9354798  85.4752760
  20.3410256  81.4539362  89.9104937  19.4851853  81.0646213  89.7310575
  20.7537208  81.5331323  89.0504722  21.8709403  78.9885705  94.3096496
  21.3674198  78.9515841  93.4964302  22.1640010  79.8978448  94.3693153
  18.1152289  79.0724435  93.3162678  18.9805286  78.8767244  92.9568567
  18.1829798  78.8434787  94.2432035  27.7297419  89.3622016  86.7872872
  26.9526862  89.0233175  86.3428034  28.4088900  89.3674639  86.1127837
  22.5449448  84.4816753  86.6779479  22.2399584  84.7962903  87.5289622
  23.4979891  84.5598173  86.7206812  20.9895880  90.6406977  88.3272433
  20.4617242  89.9059736  88.0145671  20.4883383  91.4181653  88.0812402
  25.9688726  88.8355997  93.4439480  25.3112401  89.5255259  93.5319608
  26.7729125  89.2252429  93.7873466  15.7214608  81.3026643  90.6879045
  16.2958360  81.0801825  89.9552238  16.3085590  81.3715338  91.4407646
  24.7794185  87.1900370  91.4943421  25.2926067  87.8230362  91.9965131
  25.4295409  86.5901565  91.1286781  16.0484195  83.3331104  84.7074930
  15.2121507  83.6705791  85.0284205  15.9088965  83.1980084  83.7702067
  18.0237276  78.1767892  89.4154114  17.3701688  77.8616909  88.7910729
  17.9817750  77.5543632  90.1413937  19.1348480  88.4587187  81.3307406
  18.2275542  88.2276440  81.5298555  19.6319512  87.6624806  81.5181388
  22.0416559  97.1684694  84.2504092  21.3678258  97.4716391  84.8589050
  22.4282381  97.9713775  83.9009550  21.2575016  84.6649825  93.7401762
  20.3397577  84.8864772  93.5823450  21.6735160  84.7396136  92.8813469
  22.0410064  86.0641241  88.8704442  22.7881883  86.5762638  88.5611564
  22.3101653  85.7425294  89.7308836  20.3136714  88.5599782  85.8531396
  19.4047933  88.2758815  85.9503866  20.3431798  88.9798860  84.9934703
  25.5455981  92.1706371  89.6222564  25.0918308  91.3297281  89.6787754
  24.9149948  92.8067770  89.9597344  24.4888901  83.0998357  90.8523231
  23.7511658  82.5875744  91.1833474  24.7415674  82.6598739  90.0406508
  23.9888921  94.0082868  90.5572382  24.2811895  94.5687925  89.8384748
  24.4987541  94.3011429  91.3125541  24.5900528  75.8774609  91.4465001
  24.8959405  75.0171973  91.1590916  25.3153133  76.4692230  91.2463995
  10.8824884  86.2805296  89.8346599  10.6849284  85.6874657  89.1097665
  10.3271548  85.9757506  90.5522537  18.8621608  86.1728402  91.9541192
  18.9170218  85.2202239  91.8783668  18.0512810  86.3287842  92.4382490
  20.0112802  90.1008526  83.1919475  19.5732232  89.3844384  82.7325112
  20.7523243  90.3284640  82.6304566  16.8013968  84.7905462  89.7131571
  15.9881833  85.0899633  90.1196763  17.2972962  84.3961151  90.4306053
  18.9522546  94.7863219  91.6465835  18.9098725  95.0124065  90.7174367
  19.8685245  94.5526594  91.7951636  22.3988180  85.2547287  98.5446465
  22.7537567  85.4818760  99.4040930  23.0460311  85.5865663  97.9223720
  28.1285916  88.3765723  89.2495794  27.9903815  88.5667319  88.3216983
  27.7722135  89.1385105  89.7063845  16.2928043  82.3623818  95.3292806
  16.9327422  82.2212577  94.6315769  15.4605573  82.0758331  94.9531408
  28.1555296  90.4442250  94.2607065  28.5891803  90.3517539  95.1090119
  28.8686877  90.4199750  93.6227081  17.0688346  91.6626248  91.4427798
  17.8628945  91.1676568  91.2410373  16.3580039  91.1344111  91.0795504
  21.8883191  94.0444344  95.7940166  21.9420213  94.6135280  96.5617882
  21.0197972  94.2146229  95.4294203  13.3771110  85.8069330  87.5187551
  12.4468698  85.7453785  87.7357513  13.4728582  85.2845283  86.7224192
  13.2956659  82.3324143  90.1065792  13.5563476  83.2469476  89.9974953
  14.1173831  81.8648585  90.2562405  14.7681584  83.7461900  97.2764617
  15.4404638  83.5379262  96.6277266  13.9411371  83.5483986  96.8369849
  29.0170846  90.4865950  96.7939950  29.2106736  91.3911761  97.0399225
  28.9171464  90.0273369  97.6278535  20.6707156  80.3723841  99.2930278
  20.0235071  81.0713790  99.1994754  21.4408172  80.8059985  99.6606526
  24.0785954  90.6372693 102.3680831  23.9271461  90.4083245 101.4510915
  24.0690634  91.5943294 102.3812176  20.8471291  88.2104606  97.3527098
  21.7763351  88.3615765  97.1796065  20.4262321  88.2988627  96.4975744
  19.6459622  92.2355270  95.1225635  19.5070708  91.8674055  95.9951573
  18.8574219  92.7502910  94.9509593  20.2407774  97.3364367  86.4651172
  20.4159530  96.8652410  87.2796794  19.5540562  97.9630133  86.6932432
  21.1964838  91.6136873  92.5114473  20.8614670  91.5737643  93.4072123
  20.6968783  90.9481589  92.0384883  15.1709082  87.0204503  98.0367054
  15.0328880  86.2884742  98.6378593  16.0814005  86.9313403  97.7551242
  24.1324029  88.9592907  82.7851533  23.5153200  88.2339735  82.6884585
  23.6640518  89.7202267  82.4418607  17.7991382  86.7324462  97.5250734
  18.5091001  86.0917654  97.4837352  17.7560690  86.9837357  98.4476914
  25.7878161  93.6691816 100.4457313  25.7290707  92.9851036  99.7787896
  26.1897679  94.4110806  99.9937939  16.5120316  83.7189680  99.3446373
  15.9757673  83.2680419  99.9967970  15.9237025  83.8535589  98.6016838
  14.8068860 100.4853729  93.2391032  15.0465458 101.1172254  93.9170050
  13.9638056 100.1341769  93.5256391  15.9222575  83.1778332  81.9072837
  15.0452042  83.0567132  81.5435084  16.3980328  82.3864410  81.6551725
  25.7895568  91.6331399  98.6771293  24.9022347  91.2957321  98.7997691
  26.3594119  90.9014431  98.9140058   7.4424715  87.9655491  92.0014344
   8.1295755  87.6517221  91.4135359   7.2872844  88.8696856  91.7281595
  12.2459437  82.8545688  96.4299368  12.1617626  82.2471357  95.6949778
  11.4242144  83.3454706  96.4308864  19.3196722  96.2932852  95.6432536
  19.2466893  97.0987823  96.1551840  18.8774115  96.4924818  94.8180557
  19.1086501  95.5304622  89.1535357  18.3254023  96.0726302  89.2473582
  19.8079246  96.0478602  89.5529599  22.4183151  81.3399251  91.7969563
  22.9151851  80.5869214  91.4770633  21.6470133  81.3763568  91.2312772
  30.2712909  87.0439617  93.4387854  30.2602785  87.9264332  93.0681787
  29.4030288  86.6911168  93.2442391  21.7795405  96.1919686  97.7990694
  22.4923377  96.8267151  97.7266596  21.2885434  96.2883552  96.9830696
  23.5012932  90.0970939  89.3707986  22.5669211  90.2172401  89.2012690
  23.6789600  89.1943405  89.1067996  19.0018120  83.4816634  91.5241247
  18.6315908  82.9287675  92.2122153  19.4977213  82.8774768  90.9716247
  26.8885483  85.9388258  89.9058020  27.3545936  86.7716249  89.8318323
  27.3392984  85.4733239  90.6103279  16.8307319  93.9414129  98.6196265
  17.5316778  94.5750612  98.7725660  16.3602434  94.2828861  97.8591905
  24.9561714  92.2832079  86.9044172  25.2321558  92.1688674  87.8138046
  24.0866213  91.8849564  86.8656345  24.8602146  78.3068845  93.9448922
  23.9465226  78.5373072  94.1131129  25.2895248  78.3907289  94.7962954
  24.6308605  86.4958737  96.4448816  23.9780055  86.7434644  95.7901268
  25.0088985  85.6822875  96.1111293  21.5915779  96.5318430  90.5476986
  21.7738173  95.7140086  91.0104738  22.4148765  96.7486122  90.1101876
  21.9257944  95.4586615  87.8092034  22.4545710  94.9479070  87.1962197
  22.1886164  95.1429145  88.6737567  20.6796178  87.2378548 102.9314853
  20.0036815  87.1372677 103.6017228  21.5023812  87.0817762 103.3950850
  12.4275037  93.4750484  95.5527368  13.0128474  92.7294172  95.6855272
  12.2299875  93.7854441  96.4364032  15.2813692  96.5101732  90.5689810
  14.6124067  96.9947859  90.0853850  15.1426562  96.7570952  91.4833189
   7.0192691  86.0456085  94.2731811   7.0576791  85.5119675  95.0668929
   6.5132984  85.5191290  93.6542788  19.4218961  98.5445475  97.1672469
  19.9737269  98.7077097  97.9321554  19.7625154  99.1349913  96.4952494
  14.3983454  80.8920625  97.7694353  14.4624780  81.7535456  97.3571751
  14.3350574  80.2794627  97.0366712  13.8735726  82.9643758 101.4167388
  14.5007765  82.5820835 102.0304912  13.0163645  82.7457960 101.7823080
  24.2729835  93.3706733 103.0221123  24.8169739  93.9836691 102.5276078
  23.6916680  93.9286311 103.5388136  10.6501269  84.7720187  87.3485743
  10.9454710  83.8630865  87.2952796   9.7489305  84.7507926  87.0266745
  22.5587348  96.4927451  94.1536151  22.4338487  95.6917191  93.6447096
  23.2166439  96.9873644  93.6650121  14.1795516  82.8476183  93.3313291
  13.4582102  83.4612151  93.1920764  14.9688772  83.3833948  93.2529937
  24.6222256  94.2936471  95.7815701  23.6752592  94.1741822  95.7094028
  24.9705029  93.4058969  95.8641962  16.9821830  80.1830610  99.6053943
  17.5056231  80.4292906 100.3680252  16.7634163  81.0150645  99.1857080
  12.3789111  82.4534284  87.4725068  12.0501817  81.5731663  87.2900174
  12.7328481  82.3981953  88.3601457  21.6268689  94.0889187  91.9820053
  21.4793652  93.1605895  92.1627623  22.4522183  94.1109278  91.4977128
  15.4930934  82.7407254  87.8400545  15.8327006  83.2693175  87.1179154
  15.9403054  83.0787660  88.6159112  25.2302811  94.9117746  93.0684926
  26.1549359  94.7060607  92.9309377  25.0618115  94.6634147  93.9774267
  18.1874375  81.1244305  97.2903613  17.8471195  80.3252118  97.6924293
  17.4813381  81.4246016  96.7180447  18.8390846  78.2093617  95.7430936
  19.6616916  77.7354096  95.6209827  19.0828910  78.9884101  96.2429623
  17.4799081  81.2381876  86.0393838  18.2007443  81.6163129  85.5357555
  16.8564385  81.9570753  86.1428816  21.6230204  81.9427025  86.9752170
  21.8393818  82.8251663  86.6740999  21.1424271  81.5513238  86.2457812
  16.3629425  84.9012738  93.5522915  16.2174006  85.2153041  94.4447197
  15.8854629  85.5197638  92.9993814  18.2225808  81.8915286  93.6003805
  18.2087377  80.9956379  93.2636103  18.9398236  81.8985950  94.2342091
  20.0751939  82.3252626  95.6456932  19.8169717  83.2469697  95.6441262
  19.5436979  81.9283061  96.3357396  25.0198128  95.4303413  88.4247017
  25.1935005  94.8649836  87.6720870  25.5127019  96.2304308  88.2426507
  10.8375087  87.4418082  96.4910576  10.2928555  88.2177890  96.6230851
  11.7154437  87.7888887  96.3329698  17.6262704  80.7729666  88.8691375
  17.7478615  79.8446312  89.0682262  17.3364746  80.7868352  87.9569690
  20.4953894  78.4584577  92.0058095  20.5175591  78.5223910  91.0510074
  20.9121953  77.6189085  92.1998601  30.8737519  88.1939836  90.0437317
  31.3168665  87.4447161  89.6456440  29.9964029  88.1849973  89.6611049
  26.0073300  94.7470178  85.5243916  26.7024205  95.3676870  85.7431230
  26.3496450  93.8965529  85.7996294  11.6241109  86.5687979  99.3840733
  10.8822845  86.7170614  99.9705363  11.3033853  86.8296244  98.5207482
  27.9064723  92.1969883  87.0531246  28.4316047  92.5357156  86.3280566
  27.8187076  91.2616899  86.8694381  19.5684772  96.1103957  99.1821123
  19.8771898  95.8653104 100.0543823  20.3660254  96.3150595  98.6939993
  19.5905384  98.2641867  91.4126500  19.1510374  97.7718245  92.1059356
  20.3413501  97.7214834  91.1718575  12.0697723  94.4553407  91.4151128
  12.8955743  94.1557179  91.0349771  11.7191775  93.6861030  91.8640916
  17.0379256  93.8079876  93.4848801  16.4159265  93.1450581  93.1851029
  17.7084123  93.8341007  92.8022449  10.2706328  92.3739734  92.3740061
   9.4338236  91.9461908  92.1924063  10.2429973  92.5672177  93.3110852
  17.1103784  82.2861664 103.0781307  17.1591939  83.1623786 102.6959077
  17.6526298  81.7439057 102.5052951  27.5958629  92.8302787 102.3582444
  26.8054173  92.8126926 101.8186944  27.3591984  93.3691081 103.1131481
  27.7156504  89.6795253  99.6715173  27.7654509  89.5145261 100.6130696
  27.6070428  88.8122512  99.2813054  16.5992763  92.3583799  86.9607262
  16.7480883  93.0419263  86.3073935  17.4059206  92.3388889  87.4756718
  25.0060267  85.6626181 100.9874480  25.9070129  85.5232646 100.6958477
  25.0808241  85.8280636 101.9272657  19.3403072  83.0393036  99.8327666
  18.4706381  83.3326602  99.5610255  19.5762552  83.6233481 100.5534930
  29.2174701  92.0992195  99.9157194  28.9259509  92.4622175 100.7520655
  28.6046832  91.3859203  99.7370527  30.4170383  89.6645075  92.4359765
  31.2517275  90.1034879  92.5997325  30.5529512  89.1883728  91.6168010
  27.4661889  87.2224809  98.3837252  27.9416011  87.4152456  97.5756104
  26.5427455  87.2783995  98.1380636  14.3545396  88.3848977  87.9668331
  14.1091438  87.4811307  88.1648541  14.5241310  88.3866127  87.0247809
  22.0442106  79.2572653  97.3493086  22.5624050  79.9933680  97.0239575
  21.6897239  79.5636646  98.1839845  13.6241043  84.1177334  85.4654492
  12.9310288  84.1921689  84.8094528  13.3792795  83.3537678  85.9876009
  22.2954700  75.6772935  92.8693983  22.5756454  75.0096125  93.4954409
  23.0805307  75.8702031  92.3568647  20.0988168  94.8531929  84.4319009
  19.5262136  95.4722117  83.9789481  20.6720962  95.4031291  84.9658931
  26.1663558  84.0990569  96.6165558  27.1180981  84.1988667  96.6377782
  25.9967009  83.3068838  97.1263642  24.1877938  81.1846153  96.8024959
  23.5927870  81.4651165  96.1071448  23.9027635  81.6740054  97.5741700
  23.3185428  95.1369080  85.5627592  24.2516101  95.0714641  85.7660467
  23.2308641  95.9725346  85.1042124  25.9473445  94.4534950  82.5231539
  25.8687076  94.1194813  83.4167297  26.7683112  94.9456718  82.5223011
  28.6451636  87.3196689  95.7307858  28.6127956  86.3812690  95.9167542
  29.2552260  87.3980726  94.9973683  20.4834967  86.1892742  81.7735062
  21.4294072  86.0598950  81.8423480  20.1049212  85.4507404  82.2504490
  28.7946125  84.1107733  95.7766141  28.2785173  83.3266189  95.5896070
  29.6786073  83.7826449  95.9412660  26.4556852  77.8548748  91.7361954
  26.2581673  77.5463836  92.6205286  27.0656557  78.5810387  91.8659883
  34.4628186  88.3812696  94.8713895  35.1931574  88.1197984  95.4321598
  33.8535131  87.6441418  94.9115962  32.5443483  86.5220559  95.4688346
  31.8176647  86.3876524  94.8604837  32.1290770  86.8297387  96.2745064
  20.3673660  90.2410488 103.2335719  21.2876669  90.4189087 103.4275765
  20.3323243  89.2966534 103.0815418  18.6677884  84.1142719  81.7089947
  17.7609340  83.8175831  81.7852661  18.9453865  83.8172537  80.8424233
   9.5855825  85.4349082  92.1588993   9.2658609  84.5814390  91.8663367
   9.0389253  85.6497660  92.9146961  13.3635732  88.1511523  95.8758500
  13.5821742  89.0828631  95.8946534  13.7761506  87.7919497  96.6613304
  20.2839950  78.6579608  87.8634188  19.4740678  78.3126693  88.2389434
  20.9724367  78.3487152  88.4521800  22.2130498  77.7357655  89.4858485
  22.7661537  78.1553108  90.1448508  22.4500585  76.8093403  89.5281441
  18.2363597  83.7244729 105.2661249  18.1360324  84.6739086 105.1973340
  18.0185139  83.3962968 104.3937319  17.4376669  80.9729654  81.8501926
  18.2995833  81.2984552  82.1097744  17.6227013  80.1861150  81.3374992
   9.4544085  89.0551993  94.1282115   8.7607556  88.6405946  93.6152069
  10.2017076  89.0972530  93.5315534  25.5909305  79.8458180  88.9937149
  25.0107974  80.5042984  88.6115202  25.3245238  79.0235525  88.5824567
  24.0412872  79.2463238  91.1958470  24.5412650  79.3579772  90.3872788
  24.6848480  78.9424291  91.8359278  18.0994867  87.1541868 104.0826310
  17.6161949  87.9542228 104.2890200  18.1855806  87.1649812 103.1293754
  11.3680827  88.9870247  92.0048130  11.3451515  89.0857934  91.0530013
  11.6781464  89.8335398  92.3265296  14.0268205  91.0446402  96.1194744
  14.9811458  91.0130345  96.0524676  13.8280729  90.5837026  96.9344970
  14.6167587  89.6147518  98.6865542  15.4360476  90.1091597  98.7100379
  14.8904395  88.6979486  98.6583109  24.3734183  82.0058271  88.0493497
  23.4860038  82.2907921  87.8313692  24.7888172  81.8452034  87.2020774
  27.7248719  82.0304792  91.7647837  28.5009110  82.5201244  92.0372454
  26.9996854  82.4562846  92.2219706  30.1621278  82.7432411  92.8221777
  30.7565769  82.5028147  92.1115086  30.2347862  82.0239541  93.4495314
  12.3818434  96.5866022  93.1364942  12.2472902  95.8266423  92.5702940
  11.9650496  97.3106922  92.6693731  23.5177397  91.7702945  82.1441517
  24.2213247  91.9752948  82.7599173  22.7940045  92.3379707  82.4090601
  24.3475207  87.5212807  88.2643788  24.2910408  87.9781358  87.4251420
  24.9003549  86.7603491  88.0866630  28.1580013  83.3102538  89.0893907
  27.9016947  82.9099174  89.9202115  27.5332881  84.0246332  88.9644046
  32.4692351  86.0498612  91.5965199  31.9091909  86.1191801  92.3696761
  31.8635854  85.8739596  90.8764695  15.5387560  97.4835339  93.3483385
  15.4219944  98.4280771  93.2462075  14.7180006  97.1808900  93.7369184
  25.4264094  92.2085474  84.1939977  26.2609698  91.7766673  84.0117452
  25.2648437  92.0367488  85.1216872  25.0809986  88.7117588  85.5596317
  25.0258790  88.5461859  84.6184761  24.4556042  89.4193621  85.7158506
   9.8702501  83.9485652  99.3857739  10.5161365  83.4384606  99.8744964
   9.6619652  84.6854334  99.9601164  22.3955893  91.0166500 104.8849880
  23.2647053  91.1907152 104.5236514  21.9162645  91.8360916 104.7625609
  18.3906112  78.2125697  85.1381635  18.3784782  79.1567537  85.2949906
  19.2829534  78.0295842  84.8441096  16.5642074  98.1363601  96.5639313
  17.4669320  98.1687211  96.8805808  16.3379444  97.2064052  96.5785649
  18.3195676  96.8894587  93.2249392  17.3691307  96.8896449  93.1113764
  18.6228162  96.1427322  92.7085426  22.2058231  74.8068473  89.3927572
  21.4390627  74.2526960  89.5384254  22.6168936  74.8790342  90.2541724
  14.2099992  81.0953269 103.4832753  15.0731454  80.7390074 103.6936078
  13.6365403  80.7567164 104.1708157  34.0548369 102.7255126  94.2895154
  34.6926779 102.6061873  93.5858494  33.9369212 103.6735970  94.3483106
  30.8638076 102.6782554  94.2256679  30.5256587 102.5623618  93.3377214
  31.7327844 102.2773719  94.2057685  26.7224891 104.5318030  90.2153570
  26.1589756 104.4407967  89.4469858  26.6077286 103.7117935  90.6956062
  31.3457858 103.8317405 100.1842884  31.3346499 103.4370204  99.3123388
  31.5078498 103.0983478 100.7776656  24.2689323 106.0269222  93.0537790
  25.0610615 105.6860046  92.6384090  24.5085973 106.1364197  93.9739944
  32.3024450 108.1988998  85.5268035  31.6512430 108.7843078  85.1402049
  33.0968813 108.7295193  85.5863072  26.2280077 105.2878135  85.9255169
  27.0010953 104.7407122  85.7868045  26.5805476 106.1522384  86.1369631
  28.0665120 106.6154517  99.1322068  27.7754986 107.5200148  99.0168735
  28.7022104 106.6571045  99.8466138  28.9921326 103.9931366  95.7223428
  29.5884899 103.7687388  95.0080391  29.0496298 103.2516111  96.3248876
  28.5646355 101.4470801  83.5573619  28.8171876 100.9252322  82.7957082
  27.6270914 101.2836947  83.6600303  33.6089638 100.4506579  91.3648362
  34.3952727 100.0326003  91.0138779  33.8728342 101.3552672  91.5330011
  33.7799715 105.8879430  86.0637019  33.1445548 105.9614056  86.7757924
  33.4497121 106.4773029  85.3856098  39.0098065 100.3881813  92.2681341
  39.7423237  99.8181029  92.5019170  38.2537421 100.0003413  92.7087846
  28.2842644 103.3498907  85.7597994  28.1678902 102.6743810  86.4279078
  28.3944904 102.8631281  84.9430147  30.6274185 102.8109054  89.4644683
  30.2632392 102.2839675  90.1757605  31.4841300 102.4207523  89.2911169
  36.5323485  94.1003387  96.7275949  36.2006810  94.9698798  96.5037164
  35.9369099  93.7839671  97.4069980  30.2679672  97.8398954  84.4606032
  30.4354074  98.7079190  84.8276503  30.0776841  98.0026236  83.5367321
  33.0255005 106.3015933  96.1271862  32.7255728 107.2040972  96.0187669
  32.6806064 106.0348116  96.9793015  26.4767486 102.7529730  92.1608567
  25.5517983 102.6205944  92.3686258  26.7251899 103.5323949  92.6578509
  36.4252149  98.8198473  93.8069299  35.5169026  98.7513881  93.5128060
  36.3739744  99.2970418  94.6351125  30.2468892 100.2956611  85.4452699
  30.1268518 100.7413662  86.2838179  29.5521481 100.6441929  84.8866237
  23.8376297 102.3963003  92.9952356  23.9668678 102.6497482  93.9091767
  23.1573749 102.9890711  92.6757011  28.0075785 113.0660253  89.0942830
  27.9299814 114.0168078  89.1731310  27.4037428 112.7206126  89.7517756
  30.4993014 100.2388119 101.7504197  29.7226348 100.7982039 101.7407061
  31.1383577 100.7244901 102.2719067  38.2913795  97.0214911  95.5847173
  37.6488175  97.3147444  94.9386968  37.7868723  96.9067832  96.3900370
  35.9453959 100.7678085  86.2733033  36.8571815 101.0005471  86.0980730
  35.4363606 101.3515129  85.7108111  28.7539387 103.0473572 101.3122164
  29.4954071 103.5858616 101.0356987  28.0476372 103.6739861 101.4693716
  34.2294726 105.1902712  99.9094325  34.6378082 104.7485123  99.1648958
  33.5071988 104.6155340 100.1628518  30.5825796 100.1275319  97.2827882
  31.4286991 100.5514733  97.4262531  30.5224434  99.4708943  97.9766445
  34.5523541 105.7503903  93.6646614  33.9232403 105.9149617  92.9622682
  34.1649203 106.1645513  94.4357578  38.4312773 106.6858341  91.0190978
  37.7463811 107.0657242  90.4688011  38.5156622 107.2953667  91.7522926
  33.7325242  97.7879687  98.9409056  33.4886173  98.5421748  98.4043331
  34.0085172  98.1665035  99.7756303  35.6863704 104.3318300  97.6186321
  35.8980600 104.9750060  96.9420702  35.6393453 103.4980616  97.1508251
  33.2889933  96.9436120  94.5222894  32.4274412  97.2417374  94.8139631
  33.3152368  97.1606519  93.5903926  30.1051503 105.4878311  90.9296699
  30.5689848 105.7666014  90.1401322  29.8408301 104.5861756  90.7469790
  26.9975584 105.0349793  93.8676462  27.5676941 105.4637061  93.2293947
  27.5883696 104.7532377  94.5660648  29.0420389 101.6101463  87.7386264
  29.7444432 102.0622507  88.2060191  28.7101017 100.9685282  88.3666157
  27.4900750 100.2013220 102.1137474  26.8599411 100.8829501 102.3472871
  27.3836838 100.0896302 101.1690612  22.7845723  99.8685016  93.0403398
  21.9944777 100.1242545  92.5643509  23.2756970 100.6833354  93.1455438
  36.8009532 107.2090255  95.7908679  37.6226976 106.8070443  95.5091360
  36.7971935 107.1058489  96.7424795  24.7360468 100.2329595  89.9986875
  23.9391631 100.3448290  90.5170370  24.5086060 100.5716248  89.1327765
  30.5666136 106.7574299  97.9469389  30.6310568 107.2194706  98.7827561
  29.8577060 106.1271663  98.0751699  21.0683426 100.1215507  95.4718389
  21.3191464 101.0062516  95.7375965  21.6042974  99.9420108  94.6993481
  44.8915525 103.5529004  92.1393650  44.1379234 102.9836402  91.9837655
  45.0263067 103.5191668  93.0864285  30.2814153 108.4242406  87.8148370
  30.1459828 109.2693942  88.2433217  30.8223966 108.6261684  87.0514303
  26.7681493  94.5033986 104.4762725  26.3748439  93.9500184 105.1510369
  27.5847633  94.8144564 104.8669242  23.7343551 105.9417844  88.3876295
  24.2468071 106.7361094  88.5381859  24.3866264 105.2444135  88.3209896
  25.5438436 109.0583600  90.4699048  25.7205064 109.9801565  90.2820032
  26.3395269 108.7442020  90.8993428  29.6849454  95.9191865 102.0682981
  30.4259167  96.5199018 101.9887444  29.9167377  95.1769503 101.5101024
  24.8290792 101.1048232 100.3461211  24.7144307 100.2033489 100.6468310
  23.9735310 101.3511929  99.9946028  31.9082630 109.0465973 101.9448712
  31.4646484 108.2602351 101.6269616  32.5699843 109.2345123 101.2792602
  26.6669751 110.5761774  96.4709390  27.2177176 110.4478837  95.6986384
  25.8281227 110.8756663  96.1204283  34.0063868 109.3268772  99.9730113
  33.9882343 110.1477654  99.4810382  34.9283788 109.2022848 100.1980254
  30.4636922 106.8412902 100.8153621  30.9965259 106.0801190 100.5852929
  29.9351003 106.5486554 101.5577776  33.6306617  91.9472968  96.3447263
  33.2870886  92.8374610  96.2686374  33.9985580  91.7574626  95.4816848
  21.6992468 104.2706498  89.1635865  22.5367690 104.6803507  88.9469573
  21.8770735 103.3305941  89.1336059  33.5956900 101.9381579  84.8519698
  33.0803523 102.7086184  85.0908086  33.3234208 101.2646715  85.4752760
  31.1804011  96.7831280  89.9104937  30.3245607  96.3938130  89.7310575
  31.5930963  96.8623241  89.0504722  32.7103157  94.3177623  94.3096496
  32.2067953  94.2807758  93.4964302  33.0033764  95.2270366  94.3693153
  28.9546043  94.4016353  93.3162678  29.8199040  94.2059161  92.9568567
  29.0223552  94.1726705  94.2432035  38.5691174 104.6913934  86.7872872
  37.7920617 104.3525093  86.3428034  39.2482655 104.6966557  86.1127837
  33.3843203  99.8108671  86.6779479  33.0793338 100.1254820  87.5289622
  34.3373645  99.8890091  86.7206812  31.8289635 105.9698894  88.3272433
  31.3010996 105.2351654  88.0145671  31.3277137 106.7473571  88.0812402
  36.8082481 104.1647915  93.4439480  36.1506155 104.8547176  93.5319608
  37.6122880 104.5544347  93.7873466  26.5608362  96.6318561  90.6879045
  27.1352114  96.4093742  89.9552238  27.1479345  96.7007255  91.4407646
  35.6187940 102.5192288  91.4943421  36.1319821 103.1522279  91.9965131
  36.2689163 101.9193483  91.1286781  26.8877949  98.6623022  84.7074930
  26.0515262  98.9997708  85.0284205  26.7482719  98.5272002  83.7702067
  28.8631030  93.5059810  89.4154114  28.2095442  93.1908827  88.7910729
  28.8211504  92.8835550  90.1413937  29.9742235 103.7879105  81.3307406
  29.0669297 103.5568358  81.5298555  30.4713267 102.9916724  81.5181388
  32.8810314 112.4976612  84.2504092  32.2072013 112.8008309  84.8589050
  33.2676136 113.3005692  83.9009550  32.0968770  99.9941743  93.7401762
  31.1791332 100.2156690  93.5823450  32.5128914 100.0688054  92.8813469
  32.8803818 101.3933159  88.8704442  33.6275637 101.9054556  88.5611564
  33.1495408 101.0717212  89.7308836  31.1530468 103.8891700  85.8531396
  30.2441688 103.6050732  85.9503866  31.1825552 104.3090778  84.9934703
  36.3849736 107.4998289  89.6222564  35.9312063 106.6589199  89.6787754
  35.7543702 108.1359687  89.9597344  35.3282655  98.4290275  90.8523231
  34.5905412  97.9167661  91.1833474  35.5809429  97.9890657  90.0406508
  34.8282675 109.3374786  90.5572382  35.1205649 109.8979843  89.8384748
  35.3381296 109.6303347  91.3125541  35.4294283  91.2066527  91.4465001
  35.7353159  90.3463891  91.1590916  36.1546887  91.7984147  91.2463995
  21.7218639 101.6097214  89.8346599  21.5243039 101.0166574  89.1097665
  21.1665303 101.3049424  90.5522537  29.7015362 101.5020320  91.9541192
  29.7563972 100.5494157  91.8783668  28.8906564 101.6579759  92.4382490
  30.8506556 105.4300443  83.1919475  30.4125986 104.7136302  82.7325112
  31.5916997 105.6576558  82.6304566  27.6407722 100.1197380  89.7131571
  26.8275588 100.4191550  90.1196763  28.1366717  99.7253069  90.4306053
  29.7916300 110.1155137  91.6465835  29.7492479 110.3415983  90.7174367
  30.7078999 109.8818511  91.7951636  33.2381934 100.5839204  98.5446465
  33.5931322 100.8110678  99.4040930  33.8854065 100.9157581  97.9223720
  38.9679671 103.7057640  89.2495794  38.8297570 103.8959236  88.3216983
  38.6115890 104.4677023  89.7063845  27.1321797  97.6915735  95.3292806
  27.7721176  97.5504495  94.6315769  26.2999328  97.4050249  94.9531408
  38.9949051 105.7734167  94.2607065  39.4285557 105.6809456  95.1090119
  39.7080631 105.7491668  93.6227081  27.9082101 106.9918166  91.4427798
  28.7022699 106.4968486  91.2410373  27.1973793 106.4636029  91.0795504
  32.7276945 109.3736261  95.7940166  32.7813968 109.9427198  96.5617882
  31.8591727 109.5438146  95.4294203  24.2164864 101.1361248  87.5187551
  23.2862453 101.0745703  87.7357513  24.3122336 100.6137200  86.7224192
  24.1350413  97.6616060  90.1065792  24.3957231  98.5761394  89.9974953
  24.9567586  97.1940503  90.2562405  25.6075339  99.0753818  97.2764617
  26.2798392  98.8671180  96.6277266  24.7805125  98.8775904  96.8369849
  39.8564600 105.8157868  96.7939950  40.0500490 106.7203678  97.0399225
  39.7565218 105.3565287  97.6278535  31.5100911  95.7015759  99.2930278
  30.8628826  96.4005708  99.1994754  32.2801926  96.1351902  99.6606526
  34.9179709 105.9664611 102.3680831  34.7665215 105.7375162 101.4510915
  34.9084388 106.9235212 102.3812176  31.6865045 103.5396523  97.3527098
  32.6157105 103.6907683  97.1796065  31.2656075 103.6280544  96.4975744
  30.4853377 107.5647188  95.1225635  30.3464463 107.1965972  95.9951573
  29.6967973 108.0794827  94.9509593  31.0801529 112.6656284  86.4651172
  31.2553285 112.1944328  87.2796794  30.3934317 113.2922051  86.6932432
  32.0358592 106.9428791  92.5114473  31.7008425 106.9029561  93.4072123
  31.5362538 106.2773506  92.0384883  26.0102836 102.3496421  98.0367054
  25.8722634 101.6176659  98.6378593  26.9207760 102.2605321  97.7551242
  34.9717784 104.2884825  82.7851533  34.3546954 103.5631653  82.6884585
  34.5034272 105.0494185  82.4418607  28.6385137 102.0616380  97.5250734
  29.3484755 101.4209572  97.4837352  28.5954445 102.3129275  98.4476914
  36.6271915 108.9983733 100.4457313  36.5684462 108.3142953  99.7787896
  37.0291434 109.7402723  99.9937939  27.3514071  99.0481598  99.3446373
  26.8151428  98.5972336  99.9967970  26.7630779  99.1827507  98.6016838
  25.6462614 115.8145647  93.2391032  25.8859212 116.4464171  93.9170050
  24.8031811 115.4633687  93.5256391  26.7616330  98.5070249  81.9072837
  25.8845796  98.3859050  81.5435084  27.2374083  97.7156327  81.6551725
  36.6289323 106.9623317  98.6771293  35.7416101 106.6249239  98.7997691
  37.1987874 106.2306348  98.9140058  18.2818470 103.2947409  92.0014344
  18.9689510 102.9809139  91.4135359  18.1266599 104.1988774  91.7281595
  23.0853192  98.1837605  96.4299368  23.0011381  97.5763275  95.6949778
  22.2635898  98.6746624  96.4308864  30.1590476 111.6224770  95.6432536
  30.0860648 112.4279741  96.1551840  29.7167869 111.8216735  94.8180557
  29.9480256 110.8596540  89.1535357  29.1647778 111.4018220  89.2473582
  30.6473001 111.3770519  89.5529599  33.2576906  96.6691169  91.7969563
  33.7545605  95.9161131  91.4770633  32.4863887  96.7055486  91.2312772
  41.1106663 102.3731535  93.4387854  41.0996539 103.2556250  93.0681787
  40.2424043 102.0203085  93.2442391  32.6189160 111.5211604  97.7990694
  33.3317132 112.1559068  97.7266596  32.1279188 111.6175470  96.9830696
  34.3406687 105.4262856  89.3707986  33.4062965 105.5464319  89.2012690
  34.5183355 104.5235323  89.1067996  29.8411875  98.8108552  91.5241247
  29.4709662  98.2579592  92.2122153  30.3370967  98.2066685  90.9716247
  37.7279238 101.2680176  89.9058020  38.1939690 102.1008167  89.8318323
  38.1786738 100.8025157  90.6103279  27.6701073 109.2706047  98.6196265
  28.3710533 109.9042530  98.7725660  27.1996188 109.6120779  97.8591905
  35.7955469 107.6123997  86.9044172  36.0715313 107.4980591  87.8138046
  34.9259968 107.2141482  86.8656345  35.6995901  93.6360762  93.9448922
  34.7858980  93.8664989  94.1131129  36.1289002  93.7199207  94.7962954
  35.4702359 101.8250654  96.4448816  34.8173809 102.0726562  95.7901268
  35.8482739 101.0114793  96.1111293  32.4309533 111.8610348  90.5476986
  32.6131928 111.0432004  91.0104738  33.2542519 112.0778040  90.1101876
  32.7651698 110.7878533  87.8092034  33.2939465 110.2770987  87.1962197
  33.0279918 110.4721063  88.6737567  31.5189932 102.5670466 102.9314853
  30.8430569 102.4664595 103.6017228  32.3417566 102.4109679 103.3950850
  23.2668791 108.8042402  95.5527368  23.8522228 108.0586090  95.6855272
  23.0693630 109.1146359  96.4364032  26.1207446 111.8393649  90.5689810
  25.4517822 112.3239777  90.0853850  25.9820316 112.0862870  91.4833189
  17.8586446 101.3748002  94.2731811  17.8970545 100.8411593  95.0668929
  17.3526739 100.8483208  93.6542788  30.2612715 113.8737393  97.1672469
  30.8131023 114.0369014  97.9321554  30.6018908 114.4641831  96.4952494
  25.2377208  96.2212543  97.7694353  25.3018535  97.0827374  97.3571751
  25.1744328  95.6086544  97.0366712  24.7129481  98.2935675 101.4167388
  25.3401520  97.9112753 102.0304912  23.8557400  98.0749877 101.7823080
  35.1123589 108.6998650 103.0221123  35.6563493 109.3128609 102.5276078
  34.5310434 109.2578229 103.5388136  21.4895024 100.1012104  87.3485743
  21.7848465  99.1922783  87.2952796  20.5883059 100.0799844  87.0266745
  33.3981102 111.8219368  94.1536151  33.2732242 111.0209108  93.6447096
  34.0560193 112.3165562  93.6650121  25.0189271  98.1768101  93.3313291
  24.2975856  98.7904069  93.1920764  25.8082526  98.7125866  93.2529937
  35.4616011 109.6228389  95.7815701  34.5146346 109.5033740  95.7094028
  35.8098784 108.7350887  95.8641962  27.8215584  95.5122527  99.6053943
  28.3449986  95.7584824 100.3680252  27.6027917  96.3442562  99.1857080
  23.2182865  97.7826202  87.4725068  22.8895571  96.9023581  87.2900174
  23.5722236  97.7273871  88.3601457  32.4662444 109.4181105  91.9820053
  32.3187406 108.4897812  92.1627623  33.2915937 109.4401196  91.4977128
  26.3324688  98.0699172  87.8400545  26.6720761  98.5985093  87.1179154
  26.7796809  98.4079578  88.6159112  36.0696566 110.2409664  93.0684926
  36.9943113 110.0352525  92.9309377  35.9011869 109.9926065  93.9774267
  29.0268129  96.4536223  97.2903613  28.6864949  95.6544036  97.6924293
  28.3207135  96.7537933  96.7180447  29.6784601  93.5385535  95.7430936
  30.5010670  93.0646013  95.6209827  29.9222664  94.3176019  96.2429623
  28.3192835  96.5673793  86.0393838  29.0401198  96.9455046  85.5357555
  27.6958140  97.2862670  86.1428816  32.4623958  97.2718942  86.9752170
  32.6787573  98.1543580  86.6740999  31.9818025  96.8805156  86.2457812
  27.2023180 100.2304656  93.5522915  27.0567760 100.5444959  94.4447197
  26.7248383 100.8489556  92.9993814  29.0619563  97.2207204  93.6003805
  29.0481131  96.3248297  93.2636103  29.7791991  97.2277867  94.2342091
  30.9145693  97.6544544  95.6456932  30.6563471  98.5761615  95.6441262
  30.3830734  97.2574978  96.3357396  35.8591882 110.7595331  88.4247017
  36.0328760 110.1941753  87.6720870  36.3520773 111.5596226  88.2426507
  21.6768842 102.7710000  96.4910576  21.1322310 103.5469808  96.6230851
  22.5548192 103.1180805  96.3329698  28.4656458  96.1021584  88.8691375
  28.5872370  95.1738230  89.0682262  28.1758501  96.1160270  87.9569690
  31.3347649  93.7876494  92.0058095  31.3569346  93.8515827  91.0510074
  31.7515708  92.9481003  92.1998601  41.7131273 103.5231754  90.0437317
  42.1562419 102.7739079  89.6456440  40.8357783 103.5141890  89.6611049
  36.8467055 110.0762095  85.5243916  37.5417959 110.6968788  85.7431230
  37.1890205 109.2257447  85.7996294  22.4634864 101.8979896  99.3840733
  21.7216600 102.0462532  99.9705363  22.1427608 102.1588162  98.5207482
  38.7458478 107.5261801  87.0531246  39.2709802 107.8649074  86.3280566
  38.6580830 106.5908816  86.8694381  30.4078526 111.4395875  99.1821123
  30.7165653 111.1945021 100.0543823  31.2054008 111.6442513  98.6939993
  30.4299138 113.5933784  91.4126500  29.9904129 113.1010163  92.1059356
  31.1807255 113.0506752  91.1718575  22.9091477 109.7845325  91.4151128
  23.7349497 109.4849097  91.0349771  22.5585529 109.0152947  91.8640916
  27.8773011 109.1371793  93.4848801  27.2553020 108.4742498  93.1851029
  28.5477877 109.1632925  92.8022449  21.1100082 107.7031652  92.3740061
  20.2731991 107.2753826  92.1924063  21.0823728 107.8964095  93.3110852
  27.9497538  97.6153581 103.0781307  27.9985693  98.4915704 102.6959077
  28.4920052  97.0730974 102.5052951  38.4352384 108.1594705 102.3582444
  37.6447927 108.1418843 101.8186944  38.1985738 108.6982998 103.1131481
  38.5550259 105.0087171  99.6715173  38.6048264 104.8437178 100.6130696
  38.4464182 104.1414430  99.2813054  27.4386517 107.6875717  86.9607262
  27.5874638 108.3711181  86.3073935  28.2452961 107.6680807  87.4756718
  35.8454021 100.9918099 100.9874480  36.7463884 100.8524564 100.6958477
  35.9201996 101.1572554 101.9272657  30.1796826  98.3684954  99.8327666
  29.3100136  98.6618520  99.5610255  30.4156307  98.9525399 100.5534930
  40.0568456 107.4284112  99.9157194  39.7653264 107.7914093 100.7520655
  39.4440587 106.7151121  99.7370527  41.2564138 104.9936992  92.4359765
  42.0911029 105.4326796  92.5997325  41.3923267 104.5175645  91.6168010
  38.3055644 102.5516727  98.3837252  38.7809765 102.7444373  97.5756104
  37.3821209 102.6075913  98.1380636  25.1939150 103.7140894  87.9668331
  24.9485192 102.8103224  88.1648541  25.3635065 103.7158045  87.0247809
  32.8835860  94.5864571  97.3493086  33.4017804  95.3225598  97.0239575
  32.5290993  94.8928564  98.1839845  24.4634798  99.4469252  85.4654492
  23.7704043  99.5213607  84.8094528  24.2186550  98.6829595  85.9876009
  33.1348454  91.0064853  92.8693983  33.4150208  90.3388042  93.4954409
  33.9199061  91.1993949  92.3568647  30.9381923 110.1823847  84.4319009
  30.3655890 110.8014034  83.9789481  31.5114717 110.7323209  84.9658931
  37.0057313  99.4282487  96.6165558  37.9574736  99.5280585  96.6377782
  36.8360763  98.6360756  97.1263642  35.0271692  96.5138070  96.8024959
  34.4321624  96.7943083  96.1071448  34.7421389  97.0031971  97.5741700
  34.1579183 110.4660997  85.5627592  35.0909856 110.4006559  85.7660467
  34.0702396 111.3017264  85.1042124  36.7867199 109.7826868  82.5231539
  36.7080831 109.4486731  83.4167297  37.6076866 110.2748635  82.5223011
  39.4845391 102.6488607  95.7307858  39.4521711 101.7104608  95.9167542
  40.0946014 102.7272644  94.9973683  31.3228721 101.5184660  81.7735062
  32.2687826 101.3890868  81.8423480  30.9442966 100.7799322  82.2504490
  39.6339879  99.4399650  95.7766141  39.1178928  98.6558107  95.5896070
  40.5179828  99.1118367  95.9412660  37.2950606  93.1840666  91.7361954
  37.0975427  92.8755754  92.6205286  37.9050312  93.9102305  91.8659883
  45.3021940 103.7104614  94.8713895  46.0325329 103.4489902  95.4321598
  44.6928886 102.9733336  94.9115962  43.3837238 101.8512476  95.4688346
  42.6570401 101.7168441  94.8604837  42.9684524 102.1589305  96.2745064
  31.2067414 105.5702406 103.2335719  32.1270423 105.7481005 103.4275765
  31.1716997 104.6258451 103.0815418  29.5071639  99.4434636  81.7089947
  28.6003094  99.1467749  81.7852661  29.7847620  99.1464454  80.8424233
  20.4249579 100.7641000  92.1588993  20.1052363  99.9106308  91.8663367
  19.8783007 100.9789578  92.9146961  24.2029487 103.4803441  95.8758500
  24.4215496 104.4120548  95.8946534  24.6155260 103.1211415  96.6613304
  31.1233704  93.9871526  87.8634188  30.3134433  93.6418611  88.2389434
  31.8118121  93.6779070  88.4521800  33.0524253  93.0649573  89.4858485
  33.6055291  93.4845026  90.1448508  33.2894339  92.1385321  89.5281441
  29.0757352  99.0536646 105.2661249  28.9754079 100.0031003 105.1973340
  28.8578894  98.7254885 104.3937319  28.2770423  96.3021571  81.8501926
  29.1389587  96.6276470  82.1097744  28.4620767  95.5153067  81.3374992
  20.2937839 104.3843911  94.1282115  19.6001310 103.9697864  93.6152069
  21.0410830 104.4264448  93.5315534  36.4303060  95.1750098  88.9937149
  35.8501729  95.8334902  88.6115202  36.1638992  94.3527442  88.5824567
  34.8806626  94.5755156  91.1958470  35.3806404  94.6871690  90.3872788
  35.5242234  94.2716208  91.8359278  28.9388622 102.4833785 104.0826310
  28.4555704 103.2834145 104.2890200  29.0249561 102.4941730 103.1293754
  22.2074582 104.3162165  92.0048130  22.1845270 104.4149852  91.0530013
  22.5175218 105.1627316  92.3265296  24.8661959 106.3738320  96.1194744
  25.8205213 106.3422262  96.0524676  24.6674483 105.9128944  96.9344970
  25.4561342 104.9439436  98.6865542  26.2754231 105.4383515  98.7100379
  25.7298149 104.0271404  98.6583109  35.2127938  97.3350188  88.0493497
  34.3253793  97.6199839  87.8313692  35.6281927  97.1743952  87.2020774
  38.5642474  97.3596709  91.7647837  39.3402864  97.8493162  92.0372454
  37.8390608  97.7854763  92.2219706  41.0015032  98.0724328  92.8221777
  41.5959523  97.8320064  92.1115086  41.0741616  97.3531459  93.4495314
  23.2212188 111.9157939  93.1364942  23.0866656 111.1558340  92.5702940
  22.8044250 112.6398839  92.6693731  34.3571151 107.0994863  82.1441517
  35.0607001 107.3044865  82.7599173  33.6333800 107.6671625  82.4090601
  35.1868961 102.8504724  88.2643788  35.1304163 103.3073276  87.4251420
  35.7397304 102.0895409  88.0866630  38.9973767  98.6394456  89.0893907
  38.7410702  98.2391092  89.9202115  38.3726635  99.3538250  88.9644046
  43.3086105 101.3790529  91.5965199  42.7485663 101.4483719  92.3696761
  42.7029609 101.2031514  90.8764695  26.3781314 112.8127256  93.3483385
  26.2613698 113.7572689  93.2462075  25.5573760 112.5100818  93.7369184
  36.2657849 107.5377392  84.1939977  37.1003453 107.1058591  84.0117452
  36.1042192 107.3659406  85.1216872  35.9203741 104.0409505  85.5596317
  35.8652545 103.8753777  84.6184761  35.2949796 104.7485538  85.7158506
  20.7096256  99.2777570  99.3857739  21.3555119  98.7676524  99.8744964
  20.5013407 100.0146251  99.9601164  33.2349648 106.3458417 104.8849880
  34.1040808 106.5199070 104.5236514  32.7556399 107.1652834 104.7625609
  29.2299866  93.5417614  85.1381635  29.2178536  94.4859454  85.2949906
  30.1223288  93.3587760  84.8441096  27.4035828 113.4655518  96.5639313
  28.3063075 113.4979129  96.8805808  27.1773198 112.5355969  96.5785649
  29.1589430 112.2186505  93.2249392  28.2085061 112.2188366  93.1113764
  29.4621916 111.4719239  92.7085426  33.0451986  90.1360391  89.3927572
  32.2784382  89.5818878  89.5384254  33.4562691  90.2082260  90.2541724
  25.0493747  96.4245187 103.4832753  25.9125208  96.0681992 103.6936078
  24.4759157  96.0859082 104.1708157  44.8942124 118.0547043  94.2895154
  45.5320534 117.9353791  93.5858494  44.7762967 119.0027887  94.3483106
  41.7031830 118.0074471  94.2256679  41.3650342 117.8915536  93.3377214
  42.5721598 117.6065636  94.2057685  37.5618646 119.8609948  90.2153570
  36.9983511 119.7699885  89.4469858  37.4471041 119.0409852  90.6956062
  42.1851613 119.1609323 100.1842884  42.1740254 118.7662121  99.3123388
  42.3472252 118.4275396 100.7776656  35.1083078 121.3561139  93.0537790
  35.9004370 121.0151964  92.6384090  35.3479728 121.4656114  93.9739944
  43.1418204 123.5280915  85.5268035  42.4906184 124.1134996  85.1402049
  43.9362567 124.0587110  85.5863072  37.0673832 120.6170053  85.9255169
  37.8404708 120.0699040  85.7868045  37.4199230 121.4814302  86.1369631
  38.9058874 121.9446435  99.1322068  38.6148740 122.8492066  99.0168735
  39.5415858 121.9862963  99.8466138  39.8315081 119.3223283  95.7223428
  40.4278653 119.0979306  95.0080391  39.8890053 118.5808029  96.3248876
  39.4040109 116.7762719  83.5573619  39.6565630 116.2544240  82.7957082
  38.4664668 116.6128864  83.6600303  44.4483392 115.7798497  91.3648362
  45.2346481 115.3617920  91.0138779  44.7122097 116.6844589  91.5330011
  44.6193470 121.2171347  86.0637019  43.9839303 121.2905974  86.7757924
  44.2890876 121.8064946  85.3856098  49.8491819 115.7173730  92.2681341
  50.5816991 115.1472947  92.5019170  49.0931175 115.3295331  92.7087846
  39.1236398 118.6790825  85.7597994  39.0072656 118.0035728  86.4279078
  39.2338658 118.1923199  84.9430147  41.4667939 118.1400972  89.4644683
  41.1026146 117.6131593  90.1757605  42.3235055 117.7499441  89.2911169
  47.3717240 109.4295304  96.7275949  47.0400564 110.2990715  96.5037164
  46.7762853 109.1131588  97.4069980  41.1073426 113.1690871  84.4606032
  41.2747828 114.0371108  84.8276503  40.9170595 113.3318153  83.5367321
  43.8648759 121.6307850  96.1271862  43.5649482 122.5332889  96.0187669
  43.5199819 121.3640034  96.9793015  37.3161241 118.0821647  92.1608567
  36.3911737 117.9497861  92.3686258  37.5645654 118.8615866  92.6578509
  47.2645903 114.1490391  93.8069299  46.3562780 114.0805799  93.5128060
  47.2133499 114.6262336  94.6351125  41.0862647 115.6248529  85.4452699
  40.9662272 116.0705580  86.2838179  40.3915235 115.9733847  84.8866237
  34.6770052 117.7254921  92.9952356  34.8062433 117.9789400  93.9091767
  33.9967503 118.3182629  92.6757011  38.8469539 128.3952171  89.0942830
  38.7693569 129.3459996  89.1731310  38.2431183 128.0498043  89.7517756
  41.3386769 115.5680036 101.7504197  40.5620103 116.1273956 101.7407061
  41.9777332 116.0536819 102.2719067  49.1307549 112.3506829  95.5847173
  48.4881930 112.6439362  94.9386968  48.6262478 112.2359749  96.3900370
  46.7847713 116.0970002  86.2733033  47.6965569 116.3297389  86.0980730
  46.2757360 116.6807046  85.7108111  39.5933141 118.3765490 101.3122164
  40.3347825 118.9150534 101.0356987  38.8870127 119.0031778 101.4693716
  45.0688481 120.5194630  99.9094325  45.4771837 120.0777041  99.1648958
  44.3465742 119.9447258 100.1628518  41.4219551 115.4567237  97.2827882
  42.2680746 115.8806650  97.4262531  41.3618188 114.8000861  97.9766445
  45.3917295 121.0795821  93.6646614  44.7626158 121.2441535  92.9622682
  45.0042957 121.4937430  94.4357578  49.2706527 122.0150258  91.0190978
  48.5857565 122.3949160  90.4688011  49.3550377 122.6245585  91.7522926
  44.5718996 113.1171605  98.9409056  44.3279928 113.8713666  98.4043331
  44.8478927 113.4956953  99.7756303  46.5257459 119.6610218  97.6186321
  46.7374354 120.3041977  96.9420702  46.4787207 118.8272534  97.1508251
  44.1283688 112.2728038  94.5222894  43.2668167 112.5709292  94.8139631
  44.1546122 112.4898437  93.5903926  40.9445257 120.8170229  90.9296699
  41.4083603 121.0957932  90.1401322  40.6802055 119.9153673  90.7469790
  37.8369338 120.3641710  93.8676462  38.4070695 120.7928979  93.2293947
  38.4277450 120.0824295  94.5660648  39.8814143 116.9393381  87.7386264
  40.5838187 117.3914425  88.2060191  39.5494772 116.2977200  88.3666157
  38.3294505 115.5305138 102.1137474  37.6993165 116.2121419 102.3472871
  38.2230593 115.4188219 101.1690612  33.6239477 115.1976934  93.0403398
  32.8338531 115.4534462  92.5643509  34.1150725 116.0125272  93.1455438
  47.6403287 122.5382173  95.7908679  48.4620731 122.1362360  95.5091360
  47.6365690 122.4350407  96.7424795  35.5754223 115.5621513  89.9986875
  34.7785386 115.6740207  90.5170370  35.3479815 115.9008165  89.1327765
  41.4059890 122.0866216  97.9469389  41.4704323 122.5486623  98.7827561
  40.6970814 121.4563581  98.0751699  31.9077180 115.4507424  95.4718389
  32.1585219 116.3354434  95.7375965  32.4436729 115.2712026  94.6993481
  55.7309280 118.8820921  92.1393650  54.9772988 118.3128319  91.9837655
  55.8656821 118.8483586  93.0864285  41.1207908 123.7534324  87.8148370
  40.9853583 124.5985859  88.2433217  41.6617720 123.9553601  87.0514303
  37.6075248 109.8325904 104.4762725  37.2142193 109.2792102 105.1510369
  38.4241388 110.1436482 104.8669242  34.5737305 121.2709762  88.3876295
  35.0861826 122.0653012  88.5381859  35.2260018 120.5736052  88.3209896
  36.3832190 124.3875518  90.4699048  36.5598818 125.3093483  90.2820032
  37.1789024 124.0733937  90.8993428  40.5243209 111.2483783 102.0682981
  41.2652922 111.8490936 101.9887444  40.7561131 110.5061420 101.5101024
  35.6684547 116.4340150 100.3461211  35.5538062 115.5325407 100.6468310
  34.8129064 116.6803847  99.9946028  42.7476384 124.3757890 101.9448712
  42.3040238 123.5894269 101.6269616  43.4093598 124.5637041 101.2792602
  37.5063505 125.9053692  96.4709390  38.0570931 125.7770755  95.6986384
  36.6674981 126.2048581  96.1204283  44.8457622 124.6560690  99.9730113
  44.8276098 125.4769571  99.4810382  45.7677542 124.5314765 100.1980254
  41.3030677 122.1704820 100.8153621  41.8359013 121.4093108 100.5852929
  40.7744758 121.8778471 101.5577776  44.4700371 107.2764886  96.3447263
  44.1264641 108.1666527  96.2686374  44.8379334 107.0866543  95.4816848
  32.5386222 119.5998416  89.1635865  33.3761444 120.0095424  88.9469573
  32.7164490 118.6597858  89.1336059  44.4350654 117.2673497  84.8519698
  43.9197278 118.0378101  85.0908086  44.1627963 116.5938633  85.4752760
  42.0197765 112.1123197  89.9104937  41.1639362 111.7230048  89.7310575
  42.4324717 112.1915158  89.0504722  43.5496912 109.6469541  94.3096496
  43.0461707 109.6099676  93.4964302  43.8427519 110.5562283  94.3693153
  39.7939798 109.7308270  93.3162678  40.6592795 109.5351079  92.9568567
  39.8617307 109.5018622  94.2432035  49.4084928 120.0205851  86.7872872
  48.6314371 119.6817011  86.3428034  50.0876409 120.0258475  86.1127837
  44.2236957 115.1400589  86.6779479  43.9187093 115.4546738  87.5289622
  45.1767400 115.2182009  86.7206812  42.6683389 121.2990812  88.3272433
  42.1404751 120.5643572  88.0145671  42.1670892 122.0765488  88.0812402
  47.6476235 119.4939833  93.4439480  46.9899910 120.1839094  93.5319608
  48.4516634 119.8836265  93.7873466  37.4002117 111.9610478  90.6879045
  37.9745869 111.7385660  89.9552238  37.9873099 112.0299173  91.4407646
  46.4581694 117.8484205  91.4943421  46.9713576 118.4814197  91.9965131
  47.1082918 117.2485401  91.1286781  37.7271704 113.9914939  84.7074930
  36.8909016 114.3289626  85.0284205  37.5876474 113.8563919  83.7702067
  39.7024785 108.8351727  89.4154114  39.0489197 108.5200744  88.7910729
  39.6605259 108.2127468  90.1413937  40.8135989 119.1171022  81.3307406
  39.9063051 118.8860276  81.5298555  41.3107021 118.3208642  81.5181388
  43.7204068 127.8268530  84.2504092  43.0465767 128.1300226  84.8589050
  44.1069890 128.6297610  83.9009550  42.9362525 115.3233661  93.7401762
  42.0185086 115.5448608  93.5823450  43.3522669 115.3979971  92.8813469
  43.7197573 116.7225077  88.8704442  44.4669392 117.2346474  88.5611564
  43.9889162 116.4009129  89.7308836  41.9924223 119.2183617  85.8531396
  41.0835442 118.9342650  85.9503866  42.0219307 119.6382696  84.9934703
  47.2243490 122.8290207  89.6222564  46.7705817 121.9881117  89.6787754
  46.5937457 123.4651605  89.9597344  46.1676410 113.7582193  90.8523231
  45.4299167 113.2459579  91.1833474  46.4203183 113.3182574  90.0406508
  45.6676430 124.6666703  90.5572382  45.9599404 125.2271761  89.8384748
  46.1775050 124.9595264  91.3125541  46.2688037 106.5358445  91.4465001
  46.5746914 105.6755808  91.1590916  46.9940642 107.1276065  91.2463995
  32.5612393 116.9389131  89.8346599  32.3636793 116.3458492  89.1097665
  32.0059057 116.6341342  90.5522537  40.5409117 116.8312238  91.9541192
  40.5957727 115.8786074  91.8783668  39.7300319 116.9871677  92.4382490
  41.6900311 120.7592361  83.1919475  41.2519741 120.0428220  82.7325112
  42.4310752 120.9868476  82.6304566  38.4801477 115.4489298  89.7131571
  37.6669342 115.7483468  90.1196763  38.9760471 115.0544986  90.4306053
  40.6310055 125.4447055  91.6465835  40.5886233 125.6707901  90.7174367
  41.5472754 125.2110429  91.7951636  44.0775688 115.9131122  98.5446465
  44.4325076 116.1402595  99.4040930  44.7247820 116.2449499  97.9223720
  49.8073425 119.0349558  89.2495794  49.6691324 119.2251154  88.3216983
  49.4509644 119.7968941  89.7063845  37.9715552 113.0207653  95.3292806
  38.6114931 112.8796412  94.6315769  37.1393082 112.7342166  94.9531408
  49.8342805 121.1026085  94.2607065  50.2679312 121.0101374  95.1090119
  50.5474386 121.0783585  93.6227081  38.7475855 122.3210084  91.4427798
  39.5416454 121.8260404  91.2410373  38.0367548 121.7927947  91.0795504
  43.5670700 124.7028179  95.7940166  43.6207722 125.2719115  96.5617882
  42.6985481 124.8730064  95.4294203  35.0558619 116.4653165  87.5187551
  34.1256207 116.4037621  87.7357513  35.1516091 115.9429118  86.7224192
  34.9744168 112.9907978  90.1065792  35.2350985 113.9053311  89.9974953
  35.7961340 112.5232421  90.2562405  36.4469093 114.4045735  97.2764617
  37.1192147 114.1963097  96.6277266  35.6198880 114.2067821  96.8369849
  50.6958355 121.1449786  96.7939950  50.8894245 122.0495596  97.0399225
  50.5958973 120.6857205  97.6278535  42.3494665 111.0307676  99.2930278
  41.7022580 111.7297626  99.1994754  43.1195681 111.4643820  99.6606526
  45.7573463 121.2956528 102.3680831  45.6058970 121.0667080 101.4510915
  45.7478143 122.2527130 102.3812176  42.5258800 118.8688441  97.3527098
  43.4550860 119.0199601  97.1796065  42.1049830 118.9572462  96.4975744
  41.3247131 122.8939106  95.1225635  41.1858217 122.5257890  95.9951573
  40.5361728 123.4086745  94.9509593  41.9195283 127.9948202  86.4651172
  42.0947039 127.5236245  87.2796794  41.2328071 128.6213968  86.6932432
  42.8752347 122.2720708  92.5114473  42.5402179 122.2321478  93.4072123
  42.3756292 121.6065424  92.0384883  36.8496591 117.6788338  98.0367054
  36.7116389 116.9468577  98.6378593  37.7601514 117.5897238  97.7551242
  45.8111538 119.6176743  82.7851533  45.1940709 118.8923571  82.6884585
  45.3428027 120.3786103  82.4418607  39.4778891 117.3908298  97.5250734
  40.1878510 116.7501490  97.4837352  39.4348199 117.6421192  98.4476914
  47.4665670 124.3275651 100.4457313  47.4078216 123.6434871  99.7787896
  47.8685188 125.0694641  99.9937939  38.1907825 114.3773515  99.3446373
  37.6545182 113.9264254  99.9967970  37.6024534 114.5119424  98.6016838
  36.4856369 131.1437565  93.2391032  36.7252967 131.7756089  93.9170050
  35.6425565 130.7925605  93.5256391  37.6010084 113.8362167  81.9072837
  36.7239550 113.7150968  81.5435084  38.0767837 113.0448245  81.6551725
  47.4683077 122.2915235  98.6771293  46.5809856 121.9541157  98.7997691
  48.0381628 121.5598266  98.9140058  29.1212224 118.6239327  92.0014344
  29.8083264 118.3101057  91.4135359  28.9660353 119.5280691  91.7281595
  33.9246946 113.5129523  96.4299368  33.8405135 112.9055193  95.6949778
  33.1029653 114.0038541  96.4308864  40.9984231 126.9516687  95.6432536
  40.9254402 127.7571659  96.1551840  40.5561624 127.1508653  94.8180557
  40.7874010 126.1888457  89.1535357  40.0041532 126.7310137  89.2473582
  41.4866755 126.7062437  89.5529599  44.0970660 111.9983087  91.7969563
  44.5939360 111.2453049  91.4770633  43.3257642 112.0347403  91.2312772
  51.9500418 117.7023452  93.4387854  51.9390294 118.5848168  93.0681787
  51.0817797 117.3495003  93.2442391  43.4582914 126.8503521  97.7990694
  44.1710886 127.4850986  97.7266596  42.9672943 126.9467387  96.9830696
  45.1800441 120.7554774  89.3707986  44.2456720 120.8756236  89.2012690
  45.3577109 119.8527241  89.1067996  40.6805629 114.1400470  91.5241247
  40.3103417 113.5871510  92.2122153  41.1764722 113.5358603  90.9716247
  48.5672992 116.5972093  89.9058020  49.0333445 117.4300085  89.8318323
  49.0180493 116.1317075  90.6103279  38.5094828 124.5997965  98.6196265
  39.2104287 125.2334448  98.7725660  38.0389943 124.9412696  97.8591905
  46.6349223 122.9415914  86.9044172  46.9109067 122.8272509  87.8138046
  45.7653722 122.5433399  86.8656345  46.5389655 108.9652680  93.9448922
  45.6252735 109.1956907  94.1131129  46.9682757 109.0491124  94.7962954
  46.3096114 117.1542572  96.4448816  45.6567564 117.4018480  95.7901268
  46.6876494 116.3406710  96.1111293  43.2703287 127.1902265  90.5476986
  43.4525682 126.3723921  91.0104738  44.0936273 127.4069958  90.1101876
  43.6045453 126.1170450  87.8092034  44.1333219 125.6062905  87.1962197
  43.8673673 125.8012981  88.6737567  42.3583687 117.8962383 102.9314853
  41.6824324 117.7956513 103.6017228  43.1811321 117.7401597 103.3950850
  34.1062546 124.1334320  95.5527368  34.6915983 123.3878008  95.6855272
  33.9087384 124.4438276  96.4364032  36.9601201 127.1685567  90.5689810
  36.2911576 127.6531695  90.0853850  36.8214071 127.4154788  91.4833189
  28.6980200 116.7039920  94.2731811  28.7364300 116.1703511  95.0668929
  28.1920493 116.1775125  93.6542788  41.1006470 129.2029311  97.1672469
  41.6524778 129.3660932  97.9321554  41.4412663 129.7933748  96.4952494
  36.0770963 111.5504460  97.7694353  36.1412289 112.4119291  97.3571751
  36.0138083 110.9378462  97.0366712  35.5523235 113.6227593 101.4167388
  36.1795274 113.2404670 102.0304912  34.6951154 113.4041795 101.7823080
  45.9517344 124.0290568 103.0221123  46.4957248 124.6420526 102.5276078
  45.3704189 124.5870147 103.5388136  32.3288778 115.4304022  87.3485743
  32.6242219 114.5214701  87.2952796  31.4276814 115.4091762  87.0266745
  44.2374857 127.1511286  94.1536151  44.1125996 126.3501026  93.6447096
  44.8953948 127.6457480  93.6650121  35.8583025 113.5060019  93.3313291
  35.1369611 114.1195986  93.1920764  36.6476281 114.0417783  93.2529937
  46.3009765 124.9520306  95.7815701  45.3540101 124.8325657  95.7094028
  46.6492538 124.0642804  95.8641962  38.6609339 110.8414445  99.6053943
  39.1843740 111.0876742 100.3680252  38.4421672 111.6734480  99.1857080
  34.0576620 113.1118120  87.4725068  33.7289326 112.2315499  87.2900174
  34.4115990 113.0565788  88.3601457  43.3056198 124.7473022  91.9820053
  43.1581161 123.8189730  92.1627623  44.1309692 124.7693113  91.4977128
  37.1718443 113.3991090  87.8400545  37.5114515 113.9277011  87.1179154
  37.6190563 113.7371496  88.6159112  46.9090320 125.5701581  93.0684926
  47.8336868 125.3644443  92.9309377  46.7405624 125.3217982  93.9774267
  39.8661884 111.7828140  97.2903613  39.5258704 110.9835953  97.6924293
  39.1600890 112.0829851  96.7180447  40.5178355 108.8677453  95.7430936
  41.3404425 108.3937931  95.6209827  40.7616419 109.6467936  96.2429623
  39.1586590 111.8965711  86.0393838  39.8794952 112.2746964  85.5357555
  38.5351894 112.6154588  86.1428816  43.3017713 112.6010860  86.9752170
  43.5181327 113.4835498  86.6740999  42.8211780 112.2097074  86.2457812
  38.0416934 115.5596573  93.5522915  37.8961515 115.8736876  94.4447197
  37.5642138 116.1781474  92.9993814  39.9013317 112.5499121  93.6003805
  39.8874886 111.6540215  93.2636103  40.6185745 112.5569785  94.2342091
  41.7539448 112.9836462  95.6456932  41.4957226 113.9053532  95.6441262
  41.2224488 112.5866896  96.3357396  46.6985637 126.0887249  88.4247017
  46.8722514 125.5233671  87.6720870  47.1914528 126.8888144  88.2426507
  32.5162596 118.1001918  96.4910576  31.9716064 118.8761726  96.6230851
  33.3941946 118.4472722  96.3329698  39.3050213 111.4313502  88.8691375
  39.4266124 110.5030148  89.0682262  39.0152255 111.4452188  87.9569690
  42.1741403 109.1168412  92.0058095  42.1963100 109.1807745  91.0510074
  42.5909462 108.2772921  92.1998601  52.5525028 118.8523672  90.0437317
  52.9956174 118.1030997  89.6456440  51.6751538 118.8433808  89.6611049
  47.6860809 125.4054013  85.5243916  48.3811714 126.0260706  85.7431230
  48.0283959 124.5549364  85.7996294  33.3028618 117.2271814  99.3840733
  32.5610354 117.3754449  99.9705363  32.9821362 117.4880080  98.5207482
  49.5852232 122.8553719  87.0531246  50.1103556 123.1940991  86.3280566
  49.4974585 121.9200734  86.8694381  41.2472281 126.7687792  99.1821123
  41.5559407 126.5236939 100.0543823  42.0447763 126.9734431  98.6939993
  41.2692893 128.9225702  91.4126500  40.8297883 128.4302081  92.1059356
  42.0201010 128.3798670  91.1718575  33.7485232 125.1137243  91.4151128
  34.5743252 124.8141015  91.0349771  33.3979284 124.3444865  91.8640916
  38.7166765 124.4663711  93.4848801  38.0946774 123.8034416  93.1851029
  39.3871632 124.4924843  92.8022449  31.9493837 123.0323569  92.3740061
  31.1125745 122.6045744  92.1924063  31.9217482 123.2256013  93.3110852
  38.7891293 112.9445499 103.0781307  38.8379448 113.8207622 102.6959077
  39.3313807 112.4022892 102.5052951  49.2746138 123.4886622 102.3582444
  48.4841682 123.4710761 101.8186944  49.0379493 124.0274916 103.1131481
  49.3944013 120.3379089  99.6715173  49.4442018 120.1729096 100.6130696
  49.2857937 119.4706348  99.2813054  38.2780272 123.0167634  86.9607262
  38.4268392 123.7003099  86.3073935  39.0846715 122.9972724  87.4756718
  46.6847776 116.3210017 100.9874480  47.5857638 116.1816481 100.6958477
  46.7595750 116.4864471 101.9272657  41.0190581 113.6976871  99.8327666
  40.1493890 113.9910437  99.5610255  41.2550061 114.2817316 100.5534930
  50.8962210 122.7576030  99.9157194  50.6047018 123.1206011 100.7520655
  50.2834341 122.0443038  99.7370527  52.0957892 120.3228910  92.4359765
  52.9304784 120.7618714  92.5997325  52.2317021 119.8467563  91.6168010
  49.1449398 117.8808645  98.3837252  49.6203520 118.0736291  97.5756104
  48.2214964 117.9367831  98.1380636  36.0332905 119.0432812  87.9668331
  35.7878947 118.1395142  88.1648541  36.2028819 119.0449962  87.0247809
  43.7229615 109.9156488  97.3493086  44.2411559 110.6517515  97.0239575
  43.3684748 110.2220482  98.1839845  35.3028552 114.7761170  85.4654492
  34.6097797 114.8505524  84.8094528  35.0580304 114.0121513  85.9876009
  43.9742209 106.3356771  92.8693983  44.2543963 105.6679960  93.4954409
  44.7592816 106.5285866  92.3568647  41.7775677 125.5115765  84.4319009
  41.2049645 126.1305952  83.9789481  42.3508471 126.0615126  84.9658931
  47.8451067 114.7574405  96.6165558  48.7968490 114.8572503  96.6377782
  47.6754518 113.9652673  97.1263642  45.8665447 111.8429988  96.8024959
  45.2715379 112.1235001  96.1071448  45.5815143 112.3323889  97.5741700
  44.9972937 125.7952915  85.5627592  45.9303610 125.7298477  85.7660467
  44.9096150 126.6309182  85.1042124  47.6260954 125.1118785  82.5231539
  47.5474585 124.7778649  83.4167297  48.4470621 125.6040553  82.5223011
  50.3239145 117.9780525  95.7307858  50.2915465 117.0396525  95.9167542
  50.9339769 118.0564561  94.9973683  42.1622476 116.8476578  81.7735062
  43.1081581 116.7182786  81.8423480  41.7836721 116.1091239  82.2504490
  50.4733634 114.7691568  95.7766141  49.9572682 113.9850025  95.5896070
  51.3573582 114.4410285  95.9412660  48.1344361 108.5132584  91.7361954
  47.9369182 108.2047672  92.6205286  48.7444066 109.2394222  91.8659883
  56.1415695 119.0396531  94.8713895  56.8719083 118.7781819  95.4321598
  55.5322640 118.3025253  94.9115962  54.2230992 117.1804394  95.4688346
  53.4964156 117.0460359  94.8604837  53.8078279 117.4881223  96.2745064
  42.0461168 120.8994324 103.2335719  42.9664178 121.0772923 103.4275765
  42.0110752 119.9550369 103.0815418  40.3465393 114.7726554  81.7089947
  39.4396849 114.4759667  81.7852661  40.6241374 114.4756372  80.8424233
  31.2643333 116.0932917  92.1588993  30.9446118 115.2398225  91.8663367
  30.7176762 116.3081495  92.9146961  35.0423241 118.8095358  95.8758500
  35.2609251 119.7412466  95.8946534  35.4549015 118.4503333  96.6613304
  41.9627459 109.3163444  87.8634188  41.1528187 108.9710529  88.2389434
  42.6511876 109.0070987  88.4521800  43.8918007 108.3941490  89.4858485
  44.4449046 108.8136944  90.1448508  44.1288093 107.4677239  89.5281441
  39.9151106 114.3828564 105.2661249  39.8147833 115.3322921 105.1973340
  39.6972648 114.0546803 104.3937319  39.1164178 111.6313489  81.8501926
  39.9783342 111.9568387  82.1097744  39.3014522 110.8444985  81.3374992
  31.1331593 119.7135829  94.1282115  30.4395065 119.2989782  93.6152069
  31.8804584 119.7556365  93.5315534  47.2696814 110.5042016  88.9937149
  46.6895483 111.1626820  88.6115202  47.0032747 109.6819360  88.5824567
  45.7200381 109.9047073  91.1958470  46.2200159 110.0163608  90.3872788
  46.3635989 109.6008126  91.8359278  39.7782376 117.8125703 104.0826310
  39.2949458 118.6126063 104.2890200  39.8643315 117.8233648 103.1293754
  33.0468336 119.6454083  92.0048130  33.0239024 119.7441770  91.0530013
  33.3568973 120.4919233  92.3265296  35.7055714 121.7030238  96.1194744
  36.6598967 121.6714180  96.0524676  35.5068237 121.2420861  96.9344970
  36.2955096 120.2731354  98.6865542  37.1147985 120.7675432  98.7100379
  36.5691904 119.3563322  98.6583109  46.0521692 112.6642106  88.0493497
  45.1647547 112.9491757  87.8313692  46.4675681 112.5035869  87.2020774
  49.4036228 112.6888627  91.7647837  50.1796618 113.1785079  92.0372454
  48.6784363 113.1146681  92.2219706  51.8408787 113.4016246  92.8221777
  52.4353278 113.1611982  92.1115086  51.9135371 112.6823377  93.4495314
  34.0605943 127.2449857  93.1364942  33.9260411 126.4850258  92.5702940
  33.6438005 127.9690757  92.6693731  45.1964906 122.4286781  82.1441517
  45.9000756 122.6336783  82.7599173  44.4727554 122.9963543  82.4090601
  46.0262716 118.1796642  88.2643788  45.9697917 118.6365193  87.4251420
  46.5791058 117.4187326  88.0866630  49.8367522 113.9686374  89.0893907
  49.5804456 113.5683009  89.9202115  49.2120390 114.6830168  88.9644046
  54.1479860 116.7082447  91.5965199  53.5879418 116.7775636  92.3696761
  53.5423363 116.5323432  90.8764695  37.2175069 128.1419174  93.3483385
  37.1007453 129.0864607  93.2462075  36.3967515 127.8392736  93.7369184
  47.1051603 122.8669310  84.1939977  47.9397207 122.4350508  84.0117452
  46.9435946 122.6951324  85.1216872  46.7597495 119.3701423  85.5596317
  46.7046299 119.2045695  84.6184761  46.1343551 120.0777456  85.7158506
  31.5490010 114.6069488  99.3857739  32.1948874 114.0968441  99.8744964
  31.3407161 115.3438169  99.9601164  44.0743402 121.6750335 104.8849880
  44.9434562 121.8490987 104.5236514  43.5950154 122.4944752 104.7625609
  40.0693621 108.8709532  85.1381635  40.0572291 109.8151372  85.2949906
  40.9617043 108.6879678  84.8441096  38.2429583 128.7947436  96.5639313
  39.1456829 128.8271046  96.8805808  38.0166953 127.8647887  96.5785649
  39.9983185 127.5478423  93.2249392  39.0478816 127.5480284  93.1113764
  40.3015671 126.8011157  92.7085426  43.8845740 105.4652309  89.3927572
  43.1178136 104.9110795  89.5384254  44.2956445 105.5374178  90.2541724
  35.8887501 111.7537105 103.4832753  36.7518963 111.3973909 103.6936078
  35.3152912 111.4150999 104.1708157  55.7335878 133.3838961  94.2895154
  56.3714288 133.2645708  93.5858494  55.6156721 134.3319805  94.3483106
  52.5425584 133.3366389  94.2256679  52.2044096 133.2207454  93.3377214
  53.4115353 132.9357554  94.2057685  48.4012400 135.1901865  90.2153570
  47.8377265 135.0991802  89.4469858  48.2864795 134.3701770  90.6956062
  53.0245367 134.4901241 100.1842884  53.0134008 134.0954039  99.3123388
  53.1866007 133.7567313 100.7776656  45.9476832 136.6853057  93.0537790
  46.7398124 136.3443882  92.6384090  46.1873482 136.7948032  93.9739944
  53.9811959 138.8572833  85.5268035  53.3299939 139.4426914  85.1402049
  54.7756322 139.3879028  85.5863072  47.9067586 135.9461970  85.9255169
  48.6798462 135.3990957  85.7868045  48.2592985 136.8106220  86.1369631
  49.7452629 137.2738353  99.1322068  49.4542495 138.1783983  99.0168735
  50.3809613 137.3154880  99.8466138  50.6708835 134.6515201  95.7223428
  51.2672408 134.4271223  95.0080391  50.7283807 133.9099947  96.3248876
  50.2433864 132.1054636  83.5573619  50.4959385 131.5836158  82.7957082
  49.3058423 131.9420782  83.6600303  55.2877147 131.1090415  91.3648362
  56.0740236 130.6909838  91.0138779  55.5515851 132.0136507  91.5330011
  55.4587224 136.5463265  86.0637019  54.8233057 136.6197892  86.7757924
  55.1284630 137.1356864  85.3856098  60.6885574 131.0465648  92.2681341
  61.4210746 130.4764865  92.5019170  59.9324930 130.6587248  92.7087846
  49.9630153 134.0082742  85.7597994  49.8466411 133.3327646  86.4279078
  50.0732412 133.5215116  84.9430147  52.3061694 133.4692889  89.4644683
  51.9419901 132.9423510  90.1757605  53.1628809 133.0791359  89.2911169
  58.2110994 124.7587222  96.7275949  57.8794319 125.6282633  96.5037164
  57.6156608 124.4423506  97.4069980  51.9467181 128.4982789  84.4606032
  52.1141583 129.3663026  84.8276503  51.7564350 128.6610071  83.5367321
  54.7042514 136.9599768  96.1271862  54.4043237 137.8624807  96.0187669
  54.3593573 136.6931951  96.9793015  48.1554995 133.4113565  92.1608567
  47.2305492 133.2789779  92.3686258  48.4039408 134.1907784  92.6578509
  58.1039657 129.4782308  93.8069299  57.1956535 129.4097717  93.5128060
  58.0527253 129.9554253  94.6351125  51.9256401 130.9540447  85.4452699
  51.8056027 131.3997497  86.2838179  51.2308990 131.3025764  84.8866237
  45.5163806 133.0546838  92.9952356  45.6456187 133.3081317  93.9091767
  44.8361258 133.6474546  92.6757011  49.6863294 143.7244088  89.0942830
  49.6087323 144.6751914  89.1731310  49.0824937 143.3789961  89.7517756
  52.1780523 130.8971954 101.7504197  51.4013857 131.4565874 101.7407061
  52.8171086 131.3828737 102.2719067  59.9701304 127.6798747  95.5847173
  59.3275684 127.9731280  94.9386968  59.4656232 127.5651667  96.3900370
  57.6241468 131.4261920  86.2733033  58.5359324 131.6589307  86.0980730
  57.1151115 132.0098964  85.7108111  50.4326896 133.7057407 101.3122164
  51.1741580 134.2442451 101.0356987  49.7263881 134.3323696 101.4693716
  55.9082235 135.8486548  99.9094325  56.3165591 135.4068958  99.1648958
  55.1859497 135.2739175 100.1628518  52.2613305 130.7859154  97.2827882
  53.1074500 131.2098568  97.4262531  52.2011943 130.1292779  97.9766445
  56.2311050 136.4087738  93.6646614  55.6019912 136.5733452  92.9622682
  55.8436712 136.8229348  94.4357578  60.1100282 137.3442176  91.0190978
  59.4251320 137.7241078  90.4688011  60.1944131 137.9537503  91.7522926
  55.4112751 128.4463523  98.9409056  55.1673682 129.2005583  98.4043331
  55.6872681 128.8248870  99.7756303  57.3651213 134.9902135  97.6186321
  57.5768109 135.6333895  96.9420702  57.3180962 134.1564452  97.1508251
  54.9677442 127.6019956  94.5222894  54.1061921 127.9001209  94.8139631
  54.9939877 127.8190355  93.5903926  51.7839012 136.1462146  90.9296699
  52.2477357 136.4249849  90.1401322  51.5195810 135.2445591  90.7469790
  48.6763093 135.6933628  93.8676462  49.2464450 136.1220896  93.2293947
  49.2671205 135.4116213  94.5660648  50.7207898 132.2685299  87.7386264
  51.4231941 132.7206342  88.2060191  50.3888526 131.6269118  88.3666157
  49.1688259 130.8597055 102.1137474  48.5386920 131.5413336 102.3472871
  49.0624347 130.7480137 101.1690612  44.4633232 130.5268851  93.0403398
  43.6732286 130.7826380  92.5643509  44.9544479 131.3417189  93.1455438
  58.4797041 137.8674091  95.7908679  59.3014485 137.4654278  95.5091360
  58.4759444 137.7642325  96.7424795  46.4147977 130.8913431  89.9986875
  45.6179140 131.0032125  90.5170370  46.1873569 131.2300083  89.1327765
  52.2453645 137.4158134  97.9469389  52.3098077 137.8778541  98.7827561
  51.5364569 136.7855499  98.0751699  42.7470935 130.7799342  95.4718389
  42.9978973 131.6646352  95.7375965  43.2830483 130.6003943  94.6993481
  66.5703034 134.2112839  92.1393650  65.8166743 133.6420237  91.9837655
  66.7050576 134.1775504  93.0864285  51.9601662 139.0826241  87.8148370
  51.8247337 139.9277777  88.2433217  52.5011475 139.2845519  87.0514303
  48.4469002 125.1617821 104.4762725  48.0535948 124.6084020 105.1510369
  49.2635142 125.4728400 104.8669242  45.4131060 136.6001679  88.3876295
  45.9255580 137.3944930  88.5381859  46.0653773 135.9027970  88.3209896
  47.2225945 139.7167436  90.4699048  47.3992573 140.6385400  90.2820032
  48.0182778 139.4025855  90.8993428  51.3636963 126.5775700 102.0682981
  52.1046676 127.1782853 101.9887444  51.5954886 125.8353338 101.5101024
  46.5078301 131.7632068 100.3461211  46.3931816 130.8617325 100.6468310
  45.6522819 132.0095764  99.9946028  53.5870139 139.7049808 101.9448712
  53.1433993 138.9186186 101.6269616  54.2487352 139.8928958 101.2792602
  48.3457260 141.2345609  96.4709390  48.8964685 141.1062673  95.6986384
  47.5068736 141.5340499  96.1204283  55.6851377 139.9852608  99.9730113
  55.6669852 140.8061489  99.4810382  56.6071297 139.8606683 100.1980254
  52.1424431 137.4996737 100.8153621  52.6752768 136.7385025 100.5852929
  51.6138512 137.2070389 101.5577776  55.3094126 122.6056803  96.3447263
  54.9658395 123.4958445  96.2686374  55.6773089 122.4158461  95.4816848
  43.3779977 134.9290334  89.1635865  44.2155199 135.3387342  88.9469573
  43.5558244 133.9889776  89.1336059  55.2744409 132.5965414  84.8519698
  54.7591032 133.3670019  85.0908086  55.0021717 131.9230551  85.4752760
  52.8591520 127.4415115  89.9104937  52.0033116 127.0521966  89.7310575
  53.2718472 127.5207076  89.0504722  54.3890666 124.9761458  94.3096496
  53.8855462 124.9391594  93.4964302  54.6821273 125.8854201  94.3693153
  50.6333552 125.0600188  93.3162678  51.4986549 124.8642997  92.9568567
  50.7011061 124.8310540  94.2432035  60.2478683 135.3497769  86.7872872
  59.4708126 135.0108929  86.3428034  60.9270164 135.3550392  86.1127837
  55.0630712 130.4692506  86.6779479  54.7580847 130.7838656  87.5289622
  56.0161154 130.5473926  86.7206812  53.5077144 136.6282730  88.3272433
  52.9798505 135.8935489  88.0145671  53.0064646 137.4057406  88.0812402
  58.4869990 134.8231750  93.4439480  57.8293664 135.5131012  93.5319608
  59.2910389 135.2128182  93.7873466  48.2395871 127.2902396  90.6879045
  48.8139623 127.0677578  89.9552238  48.8266854 127.3591091  91.4407646
  57.2975449 133.1776123  91.4943421  57.8107330 133.8106115  91.9965131
  57.9476672 132.5777318  91.1286781  48.5665458 129.3206857  84.7074930
  47.7302771 129.6581544  85.0284205  48.4270228 129.1855837  83.7702067
  50.5418539 124.1643645  89.4154114  49.8882951 123.8492662  88.7910729
  50.4999013 123.5419385  90.1413937  51.6529744 134.4462940  81.3307406
  50.7456806 134.2152194  81.5298555  52.1500776 133.6500559  81.5181388
  54.5597823 143.1560447  84.2504092  53.8859522 143.4592144  84.8589050
  54.9463645 143.9589528  83.9009550  53.7756279 130.6525579  93.7401762
  52.8578841 130.8740526  93.5823450  54.1916423 130.7271889  92.8813469
  54.5591327 132.0516994  88.8704442  55.3063146 132.5638391  88.5611564
  54.8282917 131.7301047  89.7308836  52.8317977 134.5475535  85.8531396
  51.9229197 134.2634568  85.9503866  52.8613061 134.9674613  84.9934703
  58.0637245 138.1582124  89.6222564  57.6099572 137.3173034  89.6787754
  57.4331211 138.7943523  89.9597344  57.0070164 129.0874110  90.8523231
  56.2692921 128.5751497  91.1833474  57.2596938 128.6474492  90.0406508
  56.5070184 139.9958621  90.5572382  56.7993158 140.5563678  89.8384748
  57.0168805 140.2887182  91.3125541  57.1081792 121.8650362  91.4465001
  57.4140668 121.0047726  91.1590916  57.8334396 122.4567983  91.2463995
  43.4006148 132.2681049  89.8346599  43.2030548 131.6750410  89.1097665
  42.8452812 131.9633259  90.5522537  51.3802871 132.1604156  91.9541192
  51.4351481 131.2077992  91.8783668  50.5694073 132.3163595  92.4382490
  52.5294065 136.0884279  83.1919475  52.0913495 135.3720138  82.7325112
  53.2704506 136.3160393  82.6304566  49.3195231 130.7781215  89.7131571
  48.5063097 131.0775386  90.1196763  49.8154225 130.3836904  90.4306053
  51.4703809 140.7738972  91.6465835  51.4279988 140.9999819  90.7174367
  52.3866508 140.5402347  91.7951636  54.9169443 131.2423040  98.5446465
  55.2718831 131.4694513  99.4040930  55.5641574 131.5741417  97.9223720
  60.6467180 134.3641476  89.2495794  60.5085079 134.5543072  88.3216983
  60.2903399 135.1260858  89.7063845  48.8109306 128.3499571  95.3292806
  49.4508685 128.2088330  94.6315769  47.9786837 128.0634084  94.9531408
  60.6736560 136.4318003  94.2607065  61.1073066 136.3393292  95.1090119
  61.3868140 136.4075503  93.6227081  49.5869610 137.6502001  91.4427798
  50.3810208 137.1552321  91.2410373  48.8761302 137.1219864  91.0795504
  54.4064454 140.0320097  95.7940166  54.4601477 140.6011033  96.5617882
  53.5379236 140.2021982  95.4294203  45.8952373 131.7945083  87.5187551
  44.9649962 131.7329538  87.7357513  45.9909845 131.2721036  86.7224192
  45.8137922 128.3199896  90.1065792  46.0744740 129.2345229  89.9974953
  46.6355095 127.8524338  90.2562405  47.2862848 129.7337653  97.2764617
  47.9585901 129.5255015  96.6277266  46.4592634 129.5359739  96.8369849
  61.5352109 136.4741703  96.7939950  61.7287999 137.3787514  97.0399225
  61.4352727 136.0149122  97.6278535  53.1888420 126.3599594  99.2930278
  52.5416335 127.0589544  99.1994754  53.9589435 126.7935738  99.6606526
  56.5967218 136.6248446 102.3680831  56.4452724 136.3958998 101.4510915
  56.5871897 137.5819047 102.3812176  53.3652554 134.1980359  97.3527098
  54.2944614 134.3491518  97.1796065  52.9443584 134.2864380  96.4975744
  52.1640886 138.2231023  95.1225635  52.0251972 137.8549808  95.9951573
  51.3755482 138.7378663  94.9509593  52.7589038 143.3240120  86.4651172
  52.9340794 142.8528163  87.2796794  52.0721826 143.9505886  86.6932432
  53.7146101 137.6012626  92.5114473  53.3795934 137.5613396  93.4072123
  53.2150047 136.9357342  92.0384883  47.6890345 133.0080256  98.0367054
  47.5510143 132.2760495  98.6378593  48.5995269 132.9189156  97.7551242
  56.6505293 134.9468660  82.7851533  56.0334463 134.2215488  82.6884585
  56.1821781 135.7078021  82.4418607  50.3172646 132.7200215  97.5250734
  51.0272264 132.0793407  97.4837352  50.2741954 132.9713110  98.4476914
  58.3059424 139.6567569 100.4457313  58.2471971 138.9726789  99.7787896
  58.7078943 140.3986559  99.9937939  49.0301580 129.7065433  99.3446373
  48.4938937 129.2556172  99.9967970  48.4418288 129.8411342  98.6016838
  47.3250123 146.4729482  93.2391032  47.5646721 147.1048007  93.9170050
  46.4819320 146.1217522  93.5256391  48.4403839 129.1654085  81.9072837
  47.5633305 129.0442885  81.5435084  48.9161592 128.3740163  81.6551725
  58.3076832 137.6207153  98.6771293  57.4203610 137.2833074  98.7997691
  58.8775383 136.8890184  98.9140058  39.9605979 133.9531244  92.0014344
  40.6477019 133.6392974  91.4135359  39.8054107 134.8572609  91.7281595
  44.7640701 128.8421441  96.4299368  44.6798890 128.2347110  95.6949778
  43.9423407 129.3330459  96.4308864  51.8377985 142.2808605  95.6432536
  51.7648157 143.0863576  96.1551840  51.3955378 142.4800571  94.8180557
  51.6267765 141.5180375  89.1535357  50.8435287 142.0602055  89.2473582
  52.3260510 142.0354355  89.5529599  54.9364415 127.3275004  91.7969563
  55.4333114 126.5744967  91.4770633  54.1651396 127.3639321  91.2312772
  62.7894172 133.0315370  93.4387854  62.7784048 133.9140085  93.0681787
  61.9211552 132.6786921  93.2442391  54.2976669 142.1795439  97.7990694
  55.0104641 142.8142904  97.7266596  53.8066697 142.2759305  96.9830696
  56.0194196 136.0846692  89.3707986  55.0850474 136.2048154  89.2012690
  56.1970864 135.1819158  89.1067996  51.5199384 129.4692387  91.5241247
  51.1497171 128.9163428  92.2122153  52.0158476 128.8650521  90.9716247
  59.4066747 131.9264011  89.9058020  59.8727199 132.7592002  89.8318323
  59.8574247 131.4608992  90.6103279  49.3488582 139.9289882  98.6196265
  50.0498042 140.5626365  98.7725660  48.8783697 140.2704614  97.8591905
  57.4742978 138.2707832  86.9044172  57.7502822 138.1564427  87.8138046
  56.6047477 137.8725317  86.8656345  57.3783410 124.2944598  93.9448922
  56.4646489 124.5248825  94.1131129  57.8076511 124.3783042  94.7962954
  57.1489868 132.4834490  96.4448816  56.4961318 132.7310397  95.7901268
  57.5270248 131.6698628  96.1111293  54.1097042 142.5194183  90.5476986
  54.2919437 141.7015839  91.0104738  54.9330028 142.7361875  90.1101876
  54.4439207 141.4462368  87.8092034  54.9726974 140.9354823  87.1962197
  54.7067427 141.1304898  88.6737567  53.1977441 133.2254301 102.9314853
  52.5218078 133.1248430 103.6017228  54.0205075 133.0693515 103.3950850
  44.9456300 139.4626237  95.5527368  45.5309737 138.7169925  95.6855272
  44.7481139 139.7730194  96.4364032  47.7994955 142.4977485  90.5689810
  47.1305331 142.9823612  90.0853850  47.6607825 142.7446705  91.4833189
  39.5373955 132.0331838  94.2731811  39.5758054 131.4995428  95.0668929
  39.0314248 131.5067043  93.6542788  51.9400224 144.5321228  97.1672469
  52.4918532 144.6952850  97.9321554  52.2806417 145.1225666  96.4952494
  46.9164717 126.8796378  97.7694353  46.9806044 127.7411209  97.3571751
  46.8531837 126.2670380  97.0366712  46.3916990 128.9519511 101.4167388
  47.0189029 128.5696588 102.0304912  45.5344909 128.7333713 101.7823080
  56.7911098 139.3582486 103.0221123  57.3351002 139.9712444 102.5276078
  56.2097943 139.9162064 103.5388136  43.1682533 130.7595940  87.3485743
  43.4635974 129.8506618  87.2952796  42.2670568 130.7383679  87.0266745
  55.0768611 142.4803204  94.1536151  54.9519751 141.6792944  93.6447096
  55.7347702 142.9749397  93.6650121  46.6976780 128.8351936  93.3313291
  45.9763365 129.4487904  93.1920764  47.4870035 129.3709701  93.2529937
  57.1403520 140.2812224  95.7815701  56.1933855 140.1617575  95.7094028
  57.4886293 139.3934722  95.8641962  49.5003093 126.1706363  99.6053943
  50.0237495 126.4168659 100.3680252  49.2815426 127.0026398  99.1857080
  44.8970374 128.4410037  87.4725068  44.5683080 127.5607416  87.2900174
  45.2509745 128.3857706  88.3601457  54.1449953 140.0764940  91.9820053
  53.9974915 139.1481648  92.1627623  54.9703446 140.0985031  91.4977128
  48.0112197 128.7283007  87.8400545  48.3508270 129.2568928  87.1179154
  48.4584318 129.0663413  88.6159112  57.7484075 140.8993499  93.0684926
  58.6730622 140.6936360  92.9309377  57.5799378 140.6509900  93.9774267
  50.7055638 127.1120058  97.2903613  50.3652458 126.3127871  97.6924293
  49.9994644 127.4121769  96.7180447  51.3572110 124.1969370  95.7430936
  52.1798179 123.7229849  95.6209827  51.6010173 124.9759854  96.2429623
  49.9980344 127.2257629  86.0393838  50.7188707 127.6038882  85.5357555
  49.3745649 127.9446506  86.1428816  54.1411467 127.9302778  86.9752170
  54.3575082 128.8127416  86.6740999  53.6605534 127.5388991  86.2457812
  48.8810689 130.8888491  93.5522915  48.7355269 131.2028794  94.4447197
  48.4035892 131.5073391  92.9993814  50.7407072 127.8791039  93.6003805
  50.7268640 126.9832132  93.2636103  51.4579500 127.8861703  94.2342091
  52.5933202 128.3128379  95.6456932  52.3350980 129.2345450  95.6441262
  52.0618243 127.9158814  96.3357396  57.5379391 141.4179166  88.4247017
  57.7116269 140.8525589  87.6720870  58.0308282 142.2180061  88.2426507
  43.3556351 133.4293835  96.4910576  42.8109819 134.2053643  96.6230851
  44.2335701 133.7764640  96.3329698  50.1443967 126.7605419  88.8691375
  50.2659879 125.8322065  89.0682262  49.8546010 126.7744105  87.9569690
  53.0135158 124.4460330  92.0058095  53.0356855 124.5099663  91.0510074
  53.4303217 123.6064838  92.1998601  63.3918782 134.1815589  90.0437317
  63.8349928 133.4322914  89.6456440  62.5145292 134.1725726  89.6611049
  58.5254564 140.7345931  85.5243916  59.2205468 141.3552623  85.7431230
  58.8677714 139.8841282  85.7996294  44.1422373 132.5563732  99.3840733
  43.4004109 132.7046367  99.9705363  43.8215117 132.8171997  98.5207482
  60.4245987 138.1845636  87.0531246  60.9497311 138.5232909  86.3280566
  60.3368339 137.2492652  86.8694381  52.0866035 142.0979710  99.1821123
  52.3953162 141.8528857 100.0543823  52.8841517 142.3026348  98.6939993
  52.1086647 144.2517620  91.4126500  51.6691638 143.7593998  92.1059356
  52.8594764 143.7090587  91.1718575  44.5878986 140.4429160  91.4151128
  45.4137006 140.1432932  91.0349771  44.2373038 139.6736783  91.8640916
  49.5560520 139.7955629  93.4848801  48.9340529 139.1326334  93.1851029
  50.2265386 139.8216761  92.8022449  42.7887591 138.3615487  92.3740061
  41.9519500 137.9337661  92.1924063  42.7611237 138.5547930  93.3110852
  49.6285047 128.2737417 103.0781307  49.6773202 129.1499539 102.6959077
  50.1707561 127.7314810 102.5052951  60.1139893 138.8178540 102.3582444
  59.3235436 138.8002679 101.8186944  59.8773247 139.3566834 103.1131481
  60.2337768 135.6671006  99.6715173  60.2835773 135.5021014 100.6130696
  60.1251691 134.7998265  99.2813054  49.1174026 138.3459552  86.9607262
  49.2662147 139.0295016  86.3073935  49.9240470 138.3264642  87.4756718
  57.5241530 131.6501934 100.9874480  58.4251393 131.5108399 100.6958477
  57.5989505 131.8156389 101.9272657  51.8584335 129.0268789  99.8327666
  50.9887645 129.3202355  99.5610255  52.0943816 129.6109234 100.5534930
  61.7355965 138.0867948  99.9157194  61.4440773 138.4497928 100.7520655
  61.1228096 137.3734956  99.7370527  62.9351647 135.6520828  92.4359765
  63.7698538 136.0910632  92.5997325  63.0710776 135.1759481  91.6168010
  59.9843153 133.2100562  98.3837252  60.4597274 133.4028209  97.5756104
  59.0608718 133.2659748  98.1380636  46.8726659 134.3724730  87.9668331
  46.6272701 133.4687060  88.1648541  47.0422574 134.3741880  87.0247809
  54.5623369 125.2448406  97.3493086  55.0805313 125.9809433  97.0239575
  54.2078502 125.5512399  98.1839845  46.1422307 130.1053087  85.4654492
  45.4491552 130.1797442  84.8094528  45.8974059 129.3413431  85.9876009
  54.8135963 121.6648689  92.8693983  55.0937717 120.9971878  93.4954409
  55.5986570 121.8577784  92.3568647  52.6169432 140.8407682  84.4319009
  52.0443399 141.4597870  83.9789481  53.1902226 141.3907044  84.9658931
  58.6844822 130.0866323  96.6165558  59.6362245 130.1864420  96.6377782
  58.5148272 129.2944591  97.1263642  56.7059201 127.1721906  96.8024959
  56.1109133 127.4526918  96.1071448  56.4208898 127.6615807  97.5741700
  55.8366692 141.1244833  85.5627592  56.7697365 141.0590394  85.7660467
  55.7489905 141.9601099  85.1042124  58.4654708 140.4410703  82.5231539
  58.3868340 140.1070566  83.4167297  59.2864375 140.9332471  82.5223011
  61.1632900 133.3072442  95.7307858  61.1309220 132.3688443  95.9167542
  61.7733523 133.3856479  94.9973683  53.0016230 132.1768495  81.7735062
  53.9475335 132.0474703  81.8423480  52.6230475 131.4383157  82.2504490
  61.3127388 130.0983486  95.7766141  60.7966437 129.3141942  95.5896070
  62.1967337 129.7702202  95.9412660  58.9738115 123.8424501  91.7361954
  58.7762936 123.5339589  92.6205286  59.5837821 124.5686140  91.8659883
  66.9809449 134.3688449  94.8713895  67.7112838 134.1073737  95.4321598
  66.3716395 133.6317171  94.9115962  65.0624747 132.5096312  95.4688346
  64.3357910 132.3752277  94.8604837  64.6472033 132.8173140  96.2745064
  52.8854923 136.2286241 103.2335719  53.8057932 136.4064840 103.4275765
  52.8504506 135.2842287 103.0815418  51.1859148 130.1018472  81.7089947
  50.2790603 129.8051584  81.7852661  51.4635129 129.8048290  80.8424233
  42.1037088 131.4224835  92.1588993  41.7839872 130.5690143  91.8663367
  41.5570516 131.6373413  92.9146961  45.8816996 134.1387276  95.8758500
  46.1003005 135.0704384  95.8946534  46.2942769 133.7795250  96.6613304
  52.8021213 124.6455361  87.8634188  51.9921942 124.3002446  88.2389434
  53.4905630 124.3362905  88.4521800  54.7311762 123.7233408  89.4858485
  55.2842800 124.1428862  90.1448508  54.9681848 122.7969156  89.5281441
  50.7544861 129.7120482 105.2661249  50.6541588 130.6614839 105.1973340
  50.5366403 129.3838721 104.3937319  49.9557932 126.9605407  81.8501926
  50.8177096 127.2860305  82.1097744  50.1408276 126.1736903  81.3374992
  41.9725348 135.0427746  94.1282115  41.2788819 134.6281699  93.6152069
  42.7198339 135.0848283  93.5315534  58.1090569 125.8333933  88.9937149
  57.5289238 126.4918737  88.6115202  57.8426501 125.0111278  88.5824567
  56.5594135 125.2338991  91.1958470  57.0593913 125.3455525  90.3872788
  57.2029743 124.9300044  91.8359278  50.6176131 133.1417621 104.0826310
  50.1343213 133.9417981 104.2890200  50.7037070 133.1525565 103.1293754
  43.8862091 134.9746000  92.0048130  43.8632779 135.0733688  91.0530013
  44.1962727 135.8211151  92.3265296  46.5449468 137.0322155  96.1194744
  47.4992722 137.0006098  96.0524676  46.3461992 136.5712779  96.9344970
  47.1348851 135.6023271  98.6865542  47.9541740 136.0967350  98.7100379
  47.4085658 134.6855239  98.6583109  56.8915447 127.9934024  88.0493497
  56.0041302 128.2783674  87.8313692  57.3069436 127.8327787  87.2020774
  60.2429983 128.0180545  91.7647837  61.0190373 128.5076997  92.0372454
  59.5178117 128.4438599  92.2219706  62.6802541 128.7308164  92.8221777
  63.2747032 128.4903900  92.1115086  62.7529125 128.0115294  93.4495314
  44.8999697 142.5741775  93.1364942  44.7654165 141.8142176  92.5702940
  44.4831759 143.2982675  92.6693731  56.0358660 137.7578698  82.1441517
  56.7394510 137.9628701  82.7599173  55.3121309 138.3255460  82.4090601
  56.8656470 133.5088560  88.2643788  56.8091672 133.9657111  87.4251420
  57.4184813 132.7479244  88.0866630  60.6761276 129.2978291  89.0893907
  60.4198211 128.8974927  89.9202115  60.0514144 130.0122085  88.9644046
  64.9873614 132.0374365  91.5965199  64.4273172 132.1067554  92.3696761
  64.3817118 131.8615349  90.8764695  48.0568823 143.4711092  93.3483385
  47.9401207 144.4156524  93.2462075  47.2361269 143.1684653  93.7369184
  57.9445358 138.1961227  84.1939977  58.7790962 137.7642426  84.0117452
  57.7829701 138.0243241  85.1216872  57.5991250 134.6993341  85.5596317
  57.5440054 134.5337612  84.6184761  56.9737305 135.4069374  85.7158506
  42.3883765 129.9361405  99.3857739  43.0342628 129.4260359  99.8744964
  42.1800916 130.6730087  99.9601164  54.9137157 137.0042253 104.8849880
  55.7828317 137.1782905 104.5236514  54.4343908 137.8236669 104.7625609
  50.9087375 124.2001450  85.1381635  50.8966045 125.1443290  85.2949906
  51.8010797 124.0171595  84.8441096  49.0823337 144.1239354  96.5639313
  49.9850584 144.1562964  96.8805808  48.8560707 143.1939805  96.5785649
  50.8376939 142.8770340  93.2249392  49.8872570 142.8772202  93.1113764
  51.1409425 142.1303075  92.7085426  54.7239495 120.7944226  89.3927572
  53.9571891 120.2402713  89.5384254  55.1350200 120.8666095  90.2541724
  46.7281256 127.0829022 103.4832753  47.5912717 126.7265827 103.6936078
  46.1546666 126.7442917 104.1708157  66.5729633 148.7130879  94.2895154
  67.2108043 148.5937626  93.5858494  66.4550476 149.6611723  94.3483106
  63.3819339 148.6658307  94.2256679  63.0437850 148.5499371  93.3377214
  64.2509107 148.2649472  94.2057685  59.2406155 150.5193783  90.2153570
  58.6771020 150.4283720  89.4469858  59.1258550 149.6993688  90.6956062
  63.8639122 149.8193158 100.1842884  63.8527763 149.4245957  99.3123388
  64.0259761 149.0859231 100.7776656  56.7870587 152.0144975  93.0537790
  57.5791879 151.6735799  92.6384090  57.0267237 152.1239950  93.9739944
  64.8205713 154.1864751  85.5268035  64.1693693 154.7718831  85.1402049
  65.6150076 154.7170946  85.5863072  58.7461341 151.2753888  85.9255169
  59.5192217 150.7282875  85.7868045  59.0986739 152.1398137  86.1369631
  60.5846383 152.6030270  99.1322068  60.2936249 153.5075901  99.0168735
  61.2203367 152.6446798  99.8466138  61.5102590 149.9807119  95.7223428
  62.1066162 149.7563141  95.0080391  61.5677561 149.2391864  96.3248876
  61.0827618 147.4346554  83.5573619  61.3353139 146.9128075  82.7957082
  60.1452177 147.2712700  83.6600303  66.1270901 146.4382332  91.3648362
  66.9133990 146.0201756  91.0138779  66.3909606 147.3428425  91.5330011
  66.2980979 151.8755183  86.0637019  65.6626812 151.9489809  86.7757924
  65.9678385 152.4648782  85.3856098  71.5279328 146.3757566  92.2681341
  72.2604500 145.8056782  92.5019170  70.7718684 145.9879166  92.7087846
  60.8023907 149.3374660  85.7597994  60.6860165 148.6619563  86.4279078
  60.9126167 148.8507034  84.9430147  63.1455448 148.7984807  89.4644683
  62.7813655 148.2715428  90.1757605  64.0022564 148.4083276  89.2911169
  69.0504749 140.0879140  96.7275949  68.7188073 140.9574551  96.5037164
  68.4550362 139.7715424  97.4069980  62.7860935 143.8274707  84.4606032
  62.9535337 144.6954943  84.8276503  62.5958104 143.9901989  83.5367321
  65.5436268 152.2891686  96.1271862  65.2436991 153.1916725  96.0187669
  65.1987328 152.0223869  96.9793015  58.9948750 148.7405483  92.1608567
  58.0699246 148.6081697  92.3686258  59.2433163 149.5199702  92.6578509
  68.9433412 144.8074226  93.8069299  68.0350289 144.7389634  93.5128060
  68.8921008 145.2846171  94.6351125  62.7650156 146.2832364  85.4452699
  62.6449781 146.7289415  86.2838179  62.0702744 146.6317682  84.8866237
  56.3557561 148.3838756  92.9952356  56.4849942 148.6373235  93.9091767
  55.6755012 148.9766464  92.6757011  63.0174278 146.2263872 101.7504197
  62.2407612 146.7857792 101.7407061  63.6564841 146.7120655 102.2719067
  70.8095058 143.0090664  95.5847173  70.1669439 143.3023197  94.9386968
  70.3049987 142.8943585  96.3900370  68.4635222 146.7553838  86.2733033
  69.3753078 146.9881224  86.0980730  67.9544869 147.3390882  85.7108111
  61.2720650 149.0349325 101.3122164  62.0135334 149.5734369 101.0356987
  60.5657636 149.6615614 101.4693716  66.7475990 151.1778465  99.9094325
  67.1559346 150.7360876  99.1648958  66.0253251 150.6031093 100.1628518
  63.1007060 146.1151072  97.2827882  63.9468255 146.5390486  97.4262531
  63.0405697 145.4584696  97.9766445  67.0704804 151.7379656  93.6646614
  66.4413667 151.9025370  92.9622682  66.6830466 152.1521266  94.4357578
  70.9494036 152.6734094  91.0190978  70.2645074 153.0532995  90.4688011
  71.0337886 153.2829420  91.7522926  66.2506505 143.7755440  98.9409056
  66.0067437 144.5297501  98.4043331  66.5266436 144.1540788  99.7756303
  68.2044968 150.3194053  97.6186321  68.4161863 150.9625813  96.9420702
  68.1574716 149.4856369  97.1508251  65.8071197 142.9311873  94.5222894
  64.9455676 143.2293127  94.8139631  65.8333631 143.1482272  93.5903926
  62.6232766 151.4754064  90.9296699  63.0871112 151.7541767  90.1401322
  62.3589564 150.5737509  90.7469790  59.5156847 151.0225546  93.8676462
  60.0858204 151.4512814  93.2293947  60.1064959 150.7408130  94.5660648
  61.5601652 147.5977216  87.7386264  62.2625696 148.0498260  88.2060191
  61.2282281 146.9561035  88.3666157  60.0082014 146.1888973 102.1137474
  59.3780674 146.8705254 102.3472871  59.9018102 146.0772055 101.1690612
  55.3026986 145.8560769  93.0403398  54.5126040 146.1118298  92.5643509
  55.7938234 146.6709107  93.1455438  69.3190796 153.1966008  95.7908679
  70.1408240 152.7946196  95.5091360  69.3153199 153.0934242  96.7424795
  57.2541732 146.2205348  89.9986875  56.4572895 146.3324043  90.5170370
  57.0267324 146.5592001  89.1327765  63.0847399 152.7450052  97.9469389
  63.1491832 153.2070459  98.7827561  62.3758323 152.1147416  98.0751699
  53.5864689 146.1091260  95.4718389  53.8372728 146.9938269  95.7375965
  54.1224238 145.9295861  94.6993481  77.4096789 149.5404757  92.1393650
  76.6560497 148.9712155  91.9837655  77.5444330 149.5067421  93.0864285
  62.7995417 154.4118159  87.8148370  62.6641092 155.2569695  88.2433217
  63.3405229 154.6137437  87.0514303  59.2862757 140.4909739 104.4762725
  58.8929702 139.9375937 105.1510369  60.1028897 140.8020317 104.8669242
  56.2524814 151.9293597  88.3876295  56.7649335 152.7236847  88.5381859
  56.9047527 151.2319888  88.3209896  58.0619699 155.0459353  90.4699048
  58.2386327 155.9677318  90.2820032  58.8576533 154.7317773  90.8993428
  62.2030718 141.9067618 102.0682981  62.9440431 142.5074771 101.9887444
  62.4348640 141.1645256 101.5101024  57.3472056 147.0923985 100.3461211
  57.2325571 146.1909242 100.6468310  56.4916573 147.3387682  99.9946028
  64.4263893 155.0341726 101.9448712  63.9827747 154.2478104 101.6269616
  65.0881107 155.2220876 101.2792602  66.5245131 155.3144525  99.9730113
  66.5063607 156.1353407  99.4810382  67.4465051 155.1898601 100.1980254
  62.9818186 152.8288655 100.8153621  63.5146522 152.0676943 100.5852929
  62.4532267 152.5362307 101.5577776  66.1487880 137.9348721  96.3447263
  65.8052150 138.8250363  96.2686374  66.5166843 137.7450379  95.4816848
  54.2173731 150.2582251  89.1635865  55.0548953 150.6679260  88.9469573
  54.3951999 149.3181694  89.1336059  66.1138163 147.9257332  84.8519698
  65.5984787 148.6961937  85.0908086  65.8415472 147.2522468  85.4752760
  63.6985274 142.7707033  89.9104937  62.8426871 142.3813883  89.7310575
  64.1112226 142.8498994  89.0504722  65.2284421 140.3053376  94.3096496
  64.7249216 140.2683511  93.4964302  65.5215028 141.2146119  94.3693153
  61.4727307 140.3892106  93.3162678  62.3380304 140.1934914  92.9568567
  61.5404816 140.1602458  94.2432035  71.0872437 150.6789687  86.7872872
  70.3101880 150.3400846  86.3428034  71.7663918 150.6842310  86.1127837
  65.9024466 145.7984424  86.6779479  65.5974602 146.1130573  87.5289622
  66.8554908 145.8765844  86.7206812  64.3470898 151.9574647  88.3272433
  63.8192260 151.2227407  88.0145671  63.8458401 152.7349324  88.0812402
  69.3263744 150.1523668  93.4439480  68.6687419 150.8422929  93.5319608
  70.1304143 150.5420100  93.7873466  59.0789626 142.6194314  90.6879045
  59.6533378 142.3969495  89.9552238  59.6660608 142.6883008  91.4407646
  68.1369203 148.5068041  91.4943421  68.6501085 149.1398032  91.9965131
  68.7870427 147.9069236  91.1286781  59.4059213 144.6498775  84.7074930
  58.5696525 144.9873461  85.0284205  59.2663983 144.5147755  83.7702067
  61.3812294 139.4935563  89.4154114  60.7276706 139.1784580  88.7910729
  61.3392768 138.8711303  90.1413937  62.4923498 149.7754858  81.3307406
  61.5850560 149.5444111  81.5298555  62.9894530 148.9792477  81.5181388
  64.6150034 145.9817496  93.7401762  63.6972595 146.2032443  93.5823450
  65.0310178 146.0563807  92.8813469  65.3985082 147.3808912  88.8704442
  66.1456901 147.8930309  88.5611564  65.6676671 147.0592965  89.7308836
  63.6711732 149.8767453  85.8531396  62.7622951 149.5926485  85.9503866
  63.7006816 150.2966531  84.9934703  68.9030999 153.4874042  89.6222564
  68.4493326 152.6464952  89.6787754  68.2724966 154.1235440  89.9597344
  67.8463919 144.4166028  90.8523231  67.1086676 143.9043414  91.1833474
  68.0990692 143.9766410  90.0406508  67.3463938 155.3250539  90.5572382
  67.6386913 155.8855596  89.8384748  67.8562559 155.6179100  91.3125541
  67.9475546 137.1942280  91.4465001  68.2534423 136.3339644  91.1590916
  68.6728151 137.7859900  91.2463995  54.2399902 147.5972967  89.8346599
  54.0424302 147.0042327  89.1097665  53.6846566 147.2925177  90.5522537
  62.2196626 147.4896073  91.9541192  62.2745236 146.5369910  91.8783668
  61.4087828 147.6455512  92.4382490  63.3687820 151.4176196  83.1919475
  62.9307250 150.7012055  82.7325112  64.1098260 151.6452311  82.6304566
  60.1588986 146.1073133  89.7131571  59.3456851 146.4067303  90.1196763
  60.6547980 145.7128822  90.4306053  62.3097564 156.1030890  91.6465835
  62.2673742 156.3291736  90.7174367  63.2260263 155.8694264  91.7951636
  65.7563197 146.5714957  98.5446465  66.1112585 146.7986431  99.4040930
  66.4035329 146.9033334  97.9223720  71.4860934 149.6933393  89.2495794
  71.3478833 149.8834989  88.3216983  71.1297153 150.4552776  89.7063845
  59.6503061 143.6791488  95.3292806  60.2902440 143.5380248  94.6315769
  58.8180591 143.3926002  94.9531408  71.5130314 151.7609920  94.2607065
  71.9466821 151.6685209  95.1090119  72.2261895 151.7367421  93.6227081
  60.4263364 152.9793919  91.4427798  61.2203963 152.4844239  91.2410373
  59.7155057 152.4511782  91.0795504  65.2458209 155.3612014  95.7940166
  65.2995231 155.9302951  96.5617882  64.3772990 155.5313899  95.4294203
  56.7346128 147.1237001  87.5187551  55.8043716 147.0621456  87.7357513
  56.8303600 146.6012953  86.7224192  56.6531677 143.6491813  90.1065792
  56.9138494 144.5637147  89.9974953  57.4748849 143.1816256  90.2562405
  58.1256602 145.0629571  97.2764617  58.7979656 144.8546933  96.6277266
  57.2986389 144.8651657  96.8369849  72.3745864 151.8033621  96.7939950
  72.5681754 152.7079431  97.0399225  72.2746482 151.3441040  97.6278535
  64.0282174 141.6891512  99.2930278  63.3810089 142.3881461  99.1994754
  64.7983190 142.1227655  99.6606526  67.4360972 151.9540364 102.3680831
  67.2846479 151.7250915 101.4510915  67.4265652 152.9110965 102.3812176
  64.2046309 149.5272276  97.3527098  65.1338369 149.6783436  97.1796065
  63.7837339 149.6156297  96.4975744  63.0034640 153.5522941  95.1225635
  62.8645726 153.1841725  95.9951573  62.2149237 154.0670580  94.9509593
  64.5539856 152.9304544  92.5114473  64.2189688 152.8905314  93.4072123
  64.0543801 152.2649259  92.0384883  58.5284100 148.3372174  98.0367054
  58.3903897 147.6052412  98.6378593  59.4389023 148.2481074  97.7551242
  67.4899047 150.2760578  82.7851533  66.8728218 149.5507406  82.6884585
  67.0215536 151.0369938  82.4418607  61.1566400 148.0492133  97.5250734
  61.8666019 147.4085325  97.4837352  61.1135708 148.3005028  98.4476914
  69.1453179 154.9859486 100.4457313  69.0865725 154.3018706  99.7787896
  69.5472697 155.7278476  99.9937939  59.8695334 145.0357351  99.3446373
  59.3332691 144.5848089  99.9967970  59.2812043 145.1703260  98.6016838
  59.2797593 144.4946002  81.9072837  58.4027059 144.3734803  81.5435084
  59.7555346 143.7032081  81.6551725  69.1470586 152.9499070  98.6771293
  68.2597365 152.6124992  98.7997691  69.7169137 152.2182101  98.9140058
  50.7999733 149.2823162  92.0014344  51.4870773 148.9684892  91.4135359
  50.6447862 150.1864527  91.7281595  55.6034455 144.1713359  96.4299368
  55.5192644 143.5639028  95.6949778  54.7817162 144.6622377  96.4308864
  62.4661519 156.8472293  89.1535357  61.6829041 157.3893973  89.2473582
  63.1654264 157.3646272  89.5529599  65.7758169 142.6566922  91.7969563
  66.2726869 141.9036884  91.4770633  65.0045151 142.6931239  91.2312772
  73.6287927 148.3607288  93.4387854  73.6177803 149.2432003  93.0681787
  72.7605306 148.0078838  93.2442391  65.1370423 157.5087357  97.7990694
  65.8498395 158.1434821  97.7266596  64.6460452 157.6051223  96.9830696
  66.8587950 151.4138609  89.3707986  65.9244229 151.5340072  89.2012690
  67.0364618 150.5111076  89.1067996  62.3593138 144.7984305  91.5241247
  61.9890926 144.2455345  92.2122153  62.8552231 144.1942439  90.9716247
  70.2460501 147.2555929  89.9058020  70.7120954 148.0883920  89.8318323
  70.6968002 146.7900910  90.6103279  60.1882337 155.2581800  98.6196265
  60.8891796 155.8918283  98.7725660  59.7177452 155.5996532  97.8591905
  68.3136732 153.5999750  86.9044172  68.5896576 153.4856344  87.8138046
  67.4441231 153.2017235  86.8656345  68.2177164 139.6236516  93.9448922
  67.3040244 139.8540742  94.1131129  68.6470266 139.7074960  94.7962954
  67.9883623 147.8126407  96.4448816  67.3355073 148.0602315  95.7901268
  68.3664002 146.9990546  96.1111293  64.9490796 157.8486101  90.5476986
  65.1313191 157.0307757  91.0104738  65.7723782 158.0653793  90.1101876
  65.2832962 156.7754286  87.8092034  65.8120728 156.2646740  87.1962197
  65.5461182 156.4596816  88.6737567  64.0371196 148.5546219 102.9314853
  63.3611833 148.4540348 103.6017228  64.8598829 148.3985432 103.3950850
  55.7850055 154.7918155  95.5527368  56.3703491 154.0461843  95.6855272
  55.5874893 155.1022112  96.4364032  50.3767709 147.3623755  94.2731811
  50.4151809 146.8287346  95.0668929  49.8708002 146.8358961  93.6542788
  57.7558472 142.2088296  97.7694353  57.8199798 143.0703127  97.3571751
  57.6925592 141.5962297  97.0366712  57.2310744 144.2811428 101.4167388
  57.8582783 143.8988506 102.0304912  56.3738663 144.0625630 101.7823080
  67.6304853 154.6874404 103.0221123  68.1744757 155.3004362 102.5276078
  67.0491698 155.2453982 103.5388136  54.0076287 146.0887857  87.3485743
  54.3029728 145.1798536  87.2952796  53.1064323 146.0675597  87.0266745
  65.9162366 157.8095122  94.1536151  65.7913505 157.0084861  93.6447096
  66.5741457 158.3041315  93.6650121  57.5370534 144.1643854  93.3313291
  56.8157120 144.7779822  93.1920764  58.3263790 144.7001619  93.2529937
  67.9797274 155.6104142  95.7815701  67.0327610 155.4909493  95.7094028
  68.3280047 154.7226640  95.8641962  60.3396848 141.4998281  99.6053943
  60.8631249 141.7460577 100.3680252  60.1209181 142.3318315  99.1857080
  55.7364129 143.7701955  87.4725068  55.4076835 142.8899334  87.2900174
  56.0903499 143.7149624  88.3601457  64.9843707 155.4056858  91.9820053
  64.8368670 154.4773565  92.1627623  65.8097201 155.4276949  91.4977128
  58.8505952 144.0574925  87.8400545  59.1902024 144.5860846  87.1179154
  59.2978072 144.3955331  88.6159112  68.5877829 156.2285417  93.0684926
  69.5124377 156.0228278  92.9309377  68.4193133 155.9801818  93.9774267
  61.5449393 142.4411976  97.2903613  61.2046213 141.6419789  97.6924293
  60.8388399 142.7413686  96.7180447  62.1965864 139.5261288  95.7430936
  63.0191934 139.0521766  95.6209827  62.4403928 140.3051772  96.2429623
  60.8374099 142.5549547  86.0393838  61.5582461 142.9330799  85.5357555
  60.2139403 143.2738423  86.1428816  64.9805222 143.2594695  86.9752170
  65.1968836 144.1419333  86.6740999  64.4999289 142.8680909  86.2457812
  59.7204443 146.2180409  93.5522915  59.5749024 146.5320712  94.4447197
  59.2429647 146.8365309  92.9993814  61.5800826 143.2082957  93.6003805
  61.5662395 142.3124050  93.2636103  62.2973254 143.2153620  94.2342091
  63.4326957 143.6420297  95.6456932  63.1744735 144.5637368  95.6441262
  62.9011997 143.2450731  96.3357396  68.3773146 156.7471084  88.4247017
  68.5510023 156.1817506  87.6720870  68.8702037 157.5471979  88.2426507
  54.1950105 148.7585753  96.4910576  53.6503573 149.5345561  96.6230851
  55.0729455 149.1056558  96.3329698  60.9837722 142.0897337  88.8691375
  61.1053633 141.1613983  89.0682262  60.6939764 142.1036023  87.9569690
  63.8528912 139.7752247  92.0058095  63.8750609 139.8391580  91.0510074
  64.2696971 138.9356756  92.1998601  74.2312537 149.5107507  90.0437317
  74.6743683 148.7614832  89.6456440  73.3539047 149.5017643  89.6611049
  69.3648318 156.0637848  85.5243916  70.0599223 156.6844541  85.7431230
  69.7071468 155.2133200  85.7996294  54.9816127 147.8855649  99.3840733
  54.2397863 148.0338285  99.9705363  54.6608871 148.1463915  98.5207482
  71.2639741 153.5137554  87.0531246  71.7891065 153.8524827  86.3280566
  71.1762094 152.5784569  86.8694381  62.9259790 157.4271628  99.1821123
  63.2346916 157.1820774 100.0543823  63.7235272 157.6318266  98.6939993
  60.3954274 155.1247546  93.4848801  59.7734283 154.4618251  93.1851029
  61.0659141 155.1508678  92.8022449  53.6281346 153.6907405  92.3740061
  52.7913254 153.2629579  92.1924063  53.6004991 153.8839848  93.3110852
  60.4678802 143.6029334 103.0781307  60.5166957 144.4791457 102.6959077
  61.0101316 143.0606727 102.5052951  70.9533647 154.1470458 102.3582444
  70.1629191 154.1294596 101.8186944  70.7167002 154.6858751 103.1131481
  71.0731522 150.9962924  99.6715173  71.1229527 150.8312931 100.6130696
  70.9645446 150.1290183  99.2813054  59.9567781 153.6751470  86.9607262
  60.1055901 154.3586934  86.3073935  60.7634224 153.6556560  87.4756718
  68.3635285 146.9793852 100.9874480  69.2645147 146.8400317 100.6958477
  68.4383259 147.1448307 101.9272657  62.6978090 144.3560707  99.8327666
  61.8281399 144.6494273  99.5610255  62.9337570 144.9401152 100.5534930
  72.5749719 153.4159865  99.9157194  72.2834527 153.7789846 100.7520655
  71.9621850 152.7026874  99.7370527  73.7745401 150.9812745  92.4359765
  74.6092293 151.4202549  92.5997325  73.9104530 150.5051398  91.6168010
  70.8236907 148.5392480  98.3837252  71.2991029 148.7320126  97.5756104
  69.9002473 148.5951666  98.1380636  57.7120414 149.7016647  87.9668331
  57.4666456 148.7978977  88.1648541  57.8816328 149.7033798  87.0247809
  65.4017124 140.5740324  97.3493086  65.9199068 141.3101351  97.0239575
  65.0472257 140.8804317  98.1839845  56.9816061 145.4345005  85.4654492
  56.2885306 145.5089360  84.8094528  56.7367813 144.6705348  85.9876009
  65.6529718 136.9940606  92.8693983  65.9331472 136.3263795  93.4954409
  66.4380325 137.1869702  92.3568647  63.4563186 156.1699600  84.4319009
  62.8837154 156.7889787  83.9789481  64.0295980 156.7198962  84.9658931
  69.5238576 145.4158240  96.6165558  70.4755999 145.5156338  96.6377782
  69.3542027 144.6236509  97.1263642  67.5452956 142.5013823  96.8024959
  66.9502888 142.7818836  96.1071448  67.2602652 142.9907724  97.5741700
  66.6760446 156.4536750  85.5627592  67.6091119 156.3882312  85.7660467
  66.5883659 157.2893017  85.1042124  69.3048463 155.7702621  82.5231539
  69.2262094 155.4362484  83.4167297  70.1258130 156.2624388  82.5223011
  72.0026654 148.6364360  95.7307858  71.9702974 147.6980361  95.9167542
  72.6127278 148.7148397  94.9973683  63.8409985 147.5060413  81.7735062
  64.7869090 147.3766621  81.8423480  63.4624230 146.7675075  82.2504490
  72.1521143 145.4275403  95.7766141  71.6360191 144.6433860  95.5896070
  73.0361091 145.0994120  95.9412660  69.8131869 139.1716419  91.7361954
  69.6156691 138.8631507  92.6205286  70.4231575 139.8978058  91.8659883
  77.8203204 149.6980367  94.8713895  78.5506592 149.4365655  95.4321598
  77.2110149 148.9609089  94.9115962  75.9018501 147.8388229  95.4688346
  75.1751665 147.7044194  94.8604837  75.4865788 148.1465058  96.2745064
  63.7248677 151.5578159 103.2335719  64.6451687 151.7356758 103.4275765
  63.6898261 150.6134204 103.0815418  62.0252902 145.4310389  81.7089947
  61.1184357 145.1343502  81.7852661  62.3028883 145.1340207  80.8424233
  52.9430842 146.7516753  92.1588993  52.6233627 145.8982061  91.8663367
  52.3964271 146.9665331  92.9146961  56.7210750 149.4679194  95.8758500
  56.9396760 150.3996301  95.8946534  57.1336524 149.1087168  96.6613304
  63.6414968 139.9747279  87.8634188  62.8315696 139.6294364  88.2389434
  64.3299385 139.6654823  88.4521800  65.5705516 139.0525326  89.4858485
  66.1236555 139.4720779  90.1448508  65.8075602 138.1261074  89.5281441
  61.5938615 145.0412399 105.2661249  61.4935342 145.9906756 105.1973340
  61.3760157 144.7130638 104.3937319  60.7951687 142.2897324  81.8501926
  61.6570851 142.6152223  82.1097744  60.9802031 141.5028820  81.3374992
  52.8119102 150.3719664  94.1282115  52.1182574 149.9573617  93.6152069
  53.5592093 150.4140201  93.5315534  68.9484323 141.1625851  88.9937149
  68.3682992 141.8210655  88.6115202  68.6820256 140.3403196  88.5824567
  67.3987890 140.5630909  91.1958470  67.8987668 140.6747443  90.3872788
  68.0423497 140.2591961  91.8359278  61.4569885 148.4709538 104.0826310
  60.9736967 149.2709898 104.2890200  61.5430824 148.4817483 103.1293754
  54.7255845 150.3037918  92.0048130  54.7026533 150.4025605  91.0530013
  55.0356481 151.1503069  92.3265296  57.3843223 152.3614073  96.1194744
  58.3386476 152.3298015  96.0524676  57.1855746 151.9004697  96.9344970
  57.9742605 150.9315189  98.6865542  58.7935494 151.4259268  98.7100379
  58.2479413 150.0147157  98.6583109  67.7309201 143.3225941  88.0493497
  66.8435056 143.6075592  87.8313692  68.1463190 143.1619705  87.2020774
  71.0823737 143.3472462  91.7647837  71.8584127 143.8368915  92.0372454
  70.3571872 143.7730516  92.2219706  73.5196296 144.0600082  92.8221777
  74.1140787 143.8195817  92.1115086  73.5922880 143.3407212  93.4495314
  66.8752415 153.0870616  82.1441517  67.5788265 153.2920618  82.7599173
  66.1515063 153.6547378  82.4090601  67.7050225 148.8380477  88.2643788
  67.6485426 149.2949029  87.4251420  68.2578567 148.0771162  88.0866630
  71.5155031 144.6270209  89.0893907  71.2591965 144.2266845  89.9202115
  70.8907899 145.3414003  88.9644046  75.8267369 147.3666282  91.5965199
  75.2666927 147.4359472  92.3696761  75.2210872 147.1907267  90.8764695
  68.7839112 153.5253145  84.1939977  69.6184716 153.0934344  84.0117452
  68.6223455 153.3535159  85.1216872  68.4385004 150.0285258  85.5596317
  68.3833808 149.8629530  84.6184761  67.8131060 150.7361291  85.7158506
  53.2277519 145.2653323  99.3857739  53.8736383 144.7552277  99.8744964
  53.0194670 146.0022005  99.9601164  65.7530911 152.3334170 104.8849880
  66.6222071 152.5074823 104.5236514  65.2737663 153.1528587 104.7625609
  61.7481130 139.5293367  85.1381635  61.7359800 140.4735207  85.2949906
  62.6404552 139.3463513  84.8441096  65.5633249 136.1236144  89.3927572
  64.7965645 135.5694631  89.5384254  65.9743954 136.1958013  90.2541724
  57.5675010 142.4120940 103.4832753  58.4306472 142.0557745 103.6936078
  56.9940421 142.0734835 104.1708157  76.9664656 161.7674250  91.3648362
  77.7527745 161.3493673  91.0138779  77.2303360 162.6720342  91.5330011
  82.3673083 161.7049483  92.2681341  83.0998255 161.1348700  92.5019170
  81.6112438 161.3171084  92.7087846  79.8898503 155.4171057  96.7275949
  79.5581828 156.2866468  96.5037164  79.2944117 155.1007341  97.4069980
  73.6254689 159.1566625  84.4606032  73.7929092 160.0246861  84.8276503
  73.4351859 159.3193906  83.5367321  79.7827166 160.1366144  93.8069299
  78.8744044 160.0681552  93.5128060  79.7314762 160.6138089  94.6351125
  81.6488813 158.3382582  95.5847173  81.0063193 158.6315115  94.9386968
  81.1443741 158.2235502  96.3900370  79.3028977 162.0845755  86.2733033
  80.2146833 162.3173142  86.0980730  78.7938624 162.6682799  85.7108111
  73.9400814 161.4442990  97.2827882  74.7862009 161.8682403  97.4262531
  73.8799452 160.7876614  97.9766445  77.0900260 159.1047358  98.9409056
  76.8461191 159.8589419  98.4043331  77.3660190 159.4832706  99.7756303
  76.6464951 158.2603791  94.5222894  75.7849430 158.5585045  94.8139631
  76.6727386 158.4774190  93.5903926  88.2490543 164.8696674  92.1393650
  87.4954252 164.3004073  91.9837655  88.3838085 164.8359339  93.0864285
  70.1256511 155.8201657 104.4762725  69.7323457 155.2667855 105.1510369
  70.9422651 156.1312235 104.8669242  73.0424472 157.2359536 102.0682981
  73.7834185 157.8366689 101.9887444  73.2742395 156.4937173 101.5101024
  76.9881635 153.2640639  96.3447263  76.6445904 154.1542280  96.2686374
  77.3560598 153.0742296  95.4816848  74.5379029 158.0998951  89.9104937
  73.6820625 157.7105801  89.7310575  74.9505980 158.1790911  89.0504722
  76.0678175 155.6345294  94.3096496  75.5642971 155.5975429  93.4964302
  76.3608782 156.5438036  94.3693153  72.3121061 155.7184023  93.3162678
  73.1774058 155.5226832  92.9568567  72.3798570 155.4894375  94.2432035
  76.7418221 161.1276342  86.6779479  76.4368356 161.4422491  87.5289622
  77.6948663 161.2057762  86.7206812  69.9183380 157.9486231  90.6879045
  70.4927132 157.7261413  89.9552238  70.5054363 158.0174926  91.4407646
  70.2452967 159.9790692  84.7074930  69.4090280 160.3165379  85.0284205
  70.1057737 159.8439672  83.7702067  72.2206048 154.8227480  89.4154114
  71.5670460 154.5076497  88.7910729  72.1786522 154.2003221  90.1413937
  75.4543788 161.3109414  93.7401762  74.5366350 161.5324361  93.5823450
  75.8703932 161.3855724  92.8813469  78.6857673 159.7457946  90.8523231
  77.9480430 159.2335332  91.1833474  78.9384447 159.3058327  90.0406508
  78.7869301 152.5234198  91.4465001  79.0928177 151.6631561  91.1590916
  79.5121905 153.1151818  91.2463995  76.5956952 161.9006875  98.5446465
  76.9506340 162.1278348  99.4040930  77.2429083 162.2325252  97.9223720
  70.4896815 159.0083406  95.3292806  71.1296194 158.8672165  94.6315769
  69.6574346 158.7217920  94.9531408  74.8675929 157.0183429  99.2930278
  74.2203844 157.7173379  99.1994754  75.6376944 157.4519573  99.6606526
  70.7089089 160.3649268  99.3446373  70.1726446 159.9140007  99.9967970
  70.1205797 160.4995177  98.6016838  70.1191348 159.8237920  81.9072837
  69.2420814 159.7026721  81.5435084  70.5949101 159.0323998  81.6551725
  76.6151924 157.9858840  91.7969563  77.1120623 157.2328802  91.4770633
  75.8438905 158.0223156  91.2312772  84.4681681 163.6899205  93.4387854
  84.4571557 164.5723921  93.0681787  83.5999061 163.3370756  93.2442391
  73.1986893 160.1276223  91.5241247  72.8284680 159.5747263  92.2122153
  73.6945985 159.5234356  90.9716247  81.0854256 162.5847846  89.9058020
  81.5514708 163.4175838  89.8318323  81.5361756 162.1192828  90.6103279
  79.0570919 154.9528433  93.9448922  78.1433998 155.1832660  94.1131129
  79.4864020 155.0366877  94.7962954  78.8277377 163.1418325  96.4448816
  78.1748827 163.3894233  95.7901268  79.2057757 162.3282463  96.1111293
  68.5952226 157.5380213  97.7694353  68.6593553 158.3995044  97.3571751
  68.5319346 156.9254215  97.0366712  68.0704499 159.6103346 101.4167388
  68.6976538 159.2280423 102.0304912  67.2132418 159.3917548 101.7823080
  71.1790602 156.8290198  99.6053943  71.7025004 157.0752495 100.3680252
  70.9602935 157.6610233  99.1857080  66.5757883 159.0993873  87.4725068
  66.2470589 158.2191252  87.2900174  66.9297254 159.0441541  88.3601457
  69.6899706 159.3866843  87.8400545  70.0295779 159.9152764  87.1179154
  70.1371827 159.7247249  88.6159112  72.3843147 157.7703893  97.2903613
  72.0439967 156.9711706  97.6924293  71.6782153 158.0705604  96.7180447
  73.0359619 154.8553206  95.7430936  73.8585688 154.3813684  95.6209827
  73.2797682 155.6343689  96.2429623  71.6767853 157.8841464  86.0393838
  72.3976216 158.2622717  85.5357555  71.0533157 158.6030341  86.1428816
  75.8198976 158.5886613  86.9752170  76.0362591 159.4711251  86.6740999
  75.3393043 158.1972827  86.2457812  72.4194581 158.5374874  93.6003805
  72.4056149 157.6415968  93.2636103  73.1367009 158.5445538  94.2342091
  74.2720711 158.9712215  95.6456932  74.0138489 159.8929285  95.6441262
  73.7405752 158.5742649  96.3357396  71.8231476 157.4189255  88.8691375
  71.9447388 156.4905901  89.0682262  71.5333519 157.4327941  87.9569690
  74.6922667 155.1044165  92.0058095  74.7144364 155.1683498  91.0510074
  75.1090726 154.2648674  92.1998601  85.0706291 164.8399425  90.0437317
  85.5137437 164.0906750  89.6456440  84.1932801 164.8309561  89.6611049
  71.3072556 158.9321252 103.0781307  71.3560711 159.8083375 102.6959077
  71.8495070 158.3898645 102.5052951  79.2029039 162.3085770 100.9874480
  80.1038902 162.1692235 100.6958477  79.2777014 162.4740224 101.9272657
  73.5371844 159.6852624  99.8327666  72.6675154 159.9786190  99.5610255
  73.7731325 160.2693069 100.5534930  81.6630662 163.8684398  98.3837252
  82.1384783 164.0612044  97.5756104  80.7396227 163.9243584  98.1380636
  76.2410878 155.9032241  97.3493086  76.7592822 156.6393268  97.0239575
  75.8866011 156.2096235  98.1839845  76.4923472 152.3232524  92.8693983
  76.7725226 151.6555713  93.4954409  77.2774079 152.5161619  92.3568647
  80.3632331 160.7450158  96.6165558  81.3149754 160.8448256  96.6377782
  80.1935781 159.9528426  97.1263642  78.3846710 157.8305741  96.8024959
  77.7896642 158.1110754  96.1071448  78.0996407 158.3199642  97.5741700
  82.8420409 163.9656278  95.7307858  82.8096729 163.0272278  95.9167542
  83.4521032 164.0440314  94.9973683  82.9914897 160.7567321  95.7766141
  82.4753946 159.9725778  95.5896070  83.8754846 160.4286038  95.9412660
  80.6525624 154.5008337  91.7361954  80.4550445 154.1923425  92.6205286
  81.2625330 155.2269975  91.8659883  88.6596958 165.0272284  94.8713895
  89.3900347 164.7657573  95.4321598  88.0503904 164.2901006  94.9115962
  86.7412256 163.1680147  95.4688346  86.0145419 163.0336112  94.8604837
  86.3259542 163.4756976  96.2745064  72.8646657 160.7602307  81.7089947
  71.9578112 160.4635420  81.7852661  73.1422638 160.4632125  80.8424233
  74.4808722 155.3039197  87.8634188  73.6709451 154.9586282  88.2389434
  75.1693139 154.9946740  88.4521800  76.4099271 154.3817243  89.4858485
  76.9630309 154.8012697  90.1448508  76.6469357 153.4552992  89.5281441
  72.4332370 160.3704317 105.2661249  72.3329097 161.3198674 105.1973340
  72.2153912 160.0422556 104.3937319  71.6345441 157.6189242  81.8501926
  72.4964605 157.9444140  82.1097744  71.8195785 156.8320738  81.3374992
  79.7878078 156.4917769  88.9937149  79.2076747 157.1502573  88.6115202
  79.5214010 155.6695113  88.5824567  78.2381644 155.8922826  91.1958470
  78.7381422 156.0039361  90.3872788  78.8817252 155.5883879  91.8359278
  78.5702956 158.6517859  88.0493497  77.6828811 158.9367510  87.8313692
  78.9856945 158.4911622  87.2020774  81.9217492 158.6764380  91.7647837
  82.6977882 159.1660832  92.0372454  81.1965626 159.1022434  92.2219706
  84.3590050 159.3891999  92.8221777  84.9534541 159.1487735  92.1115086
  84.4316634 158.6699130  93.4495314  82.3548785 159.9562127  89.0893907
  82.0985720 159.5558762  89.9202115  81.7301653 160.6705921  88.9644046
  86.6661123 162.6958200  91.5965199  86.1060681 162.7651389  92.3696761
  86.0604627 162.5199185  90.8764695  72.5874884 154.8585285  85.1381635
  72.5753554 155.8027125  85.2949906  73.4798306 154.6755431  84.8441096
  76.4027004 151.4528062  89.3927572  75.6359399 150.8986549  89.5384254
  76.8137709 151.5249931  90.2541724  68.4068765 157.7412858 103.4832753
  69.2700226 157.3849662 103.6936078  67.8334175 157.4026752 104.1708157
   1.5367107  33.7441495  81.0140461   2.1745517  33.6248243  80.3103801
   1.4187950  34.6922339  81.0728413   1.0908375  31.4692949  78.0893669
   1.8771465  31.0512372  77.7384086   1.3547080  32.3739041  78.2575317
   1.2618453  36.9065799  72.7882326   0.6264286  36.9800426  73.5003230
   0.9315859  37.4959398  72.1101405   6.4916803  31.4068182  78.9926647
   7.2241975  30.8367399  79.2264477   5.7356158  31.0189783  79.4333153
   4.0142223  25.1189756  83.4521256   3.6825548  25.9885167  83.2282471
   3.4187836  24.8026040  84.1315286   3.9070886  29.8384842  80.5314606
   2.9987764  29.7700251  80.2373367   3.8558482  30.3156787  81.3596432
   5.7732533  28.0401281  82.3092480   5.1306913  28.3333814  81.6632275
   5.2687461  27.9254201  83.1145677   3.4272696  31.7864454  72.9978339
   4.3390552  32.0191841  72.8226037   2.9182343  32.3701498  72.4353418
   1.7113464  36.2089082  86.6339632   2.1196820  35.7671492  85.8894264
   0.9890726  35.6341709  86.8873825   2.0342279  36.7690273  80.3891921
   1.4051141  36.9335987  79.6867989   1.6467941  37.1831882  81.1602885
   5.9131511  37.7044710  77.7436284   5.2282549  38.0843612  77.1933318
   5.9975360  38.3140037  78.4768232   1.2143979  28.8066057  85.6654362
   0.9704911  29.5608118  85.1288638   1.4903910  29.1851405  86.5001609
   3.1682442  35.3504669  84.3431628   3.3799337  35.9936429  83.6666009
   3.1212190  34.5166986  83.8753558   4.2828270  38.2276625  82.5153985
   5.1045714  37.8256812  82.2336667   4.2790673  38.1244859  83.4670101
  12.3734263  34.5715373  78.8638957  11.6197972  34.0022771  78.7082961
  12.5081804  34.5378038  79.8109592   1.4882606  40.3455142  86.6975420
   1.4701081  41.1664023  86.2055689   2.4102526  40.2209217  86.9225561
   1.0775638  32.9567949  71.5765005   0.5622261  33.7272553  71.8153392
   0.8052946  32.2833085  72.1998066   6.0509912  35.7100303  73.5118178
   5.2739354  35.3711463  73.0673340   6.7301393  35.7152926  72.8373143
   0.8661941  30.8295041  73.4024786   0.5612076  31.1441190  74.2534929
   1.8192383  30.9076461  73.4452119   4.2901219  35.1834284  80.1684786
   3.6324893  35.8733546  80.2564915   5.0941618  35.5730716  80.5118773
   3.1006677  33.5378657  78.2188728   3.6138559  34.1708649  78.7210438
   3.7507901  32.9379853  77.8532088   3.8668474  38.5184659  76.3467871
   3.4130801  37.6775569  76.4033061   3.2362440  39.1546057  76.6842651
   2.8101393  29.4476645  77.5768538   2.0724150  28.9354031  77.9078781
   3.0628167  29.0077026  76.7651815   2.3101413  40.3561155  77.2817689
   2.6024387  40.9166212  76.5630054   2.8200033  40.6489716  78.0370848
   0.7200672  31.6025574  85.2691771   1.0750060  31.8297047  86.1286237
   1.3672803  31.9343951  84.6469026   6.4498409  34.7244010  75.9741100
   6.3116307  34.9145606  75.0462289   6.0934628  35.4863393  76.4309151
   6.4767788  36.7920537  80.9852372   6.9104295  36.6995826  81.8335426
   7.1899369  36.7678037  80.3472388   7.3383338  36.8344237  83.5185257
   7.5319228  37.7390048  83.7644532   7.2383956  36.3751657  84.3523842
   2.3998447  36.9850980  89.0926138   2.2483953  36.7561532  88.1756221
   2.3903126  37.9421582  89.1057483   2.4536522  35.3071194  69.5096839
   1.8365692  34.5818023  69.4129892   1.9853010  36.0680555  69.1663913
   4.1090653  40.0170103  87.1702620   4.0503199  39.3329323  86.5033203
   4.5110172  40.7589093  86.7183246   4.1108060  37.9809687  85.4016599
   3.2234839  37.6435609  85.5242998   4.6806612  37.2492718  85.6385365
   8.5925401  33.3917904  80.1633161   8.5815277  34.2742620  79.7927094
   7.7242780  33.0389455  79.9687698   1.8225424  36.4449226  76.0953293
   0.8881703  36.5650688  75.9257997   2.0002093  35.5421693  75.8313303
   5.2097976  32.2866545  76.6303327   5.6758428  33.1194537  76.5563630
   5.6605476  31.8211527  77.3348585   3.2774207  38.6310366  73.6289479
   3.5534051  38.5166961  74.5383353   2.4078706  38.2327851  73.5901652
   3.1814638  24.6547132  80.6694228   2.2677718  24.8851359  80.8376435
   3.6107740  24.7385576  81.5208261   2.9521097  32.8437024  83.1694122
   2.2992547  33.0912931  82.5146575   3.3301477  32.0301162  82.8356600
   2.5942327  39.7185020  89.7466430   3.1382231  40.3314978  89.2521385
   2.0129172  40.2764598  90.2633443   0.8799840  42.8405738  80.8781458
   0.7550980  42.0395478  80.3692403   1.5378931  43.3351931  80.3895427
   2.9434748  40.6414758  82.5061008   1.9965084  40.5220109  82.4339334
   3.2917522  39.7537256  82.5887269   3.5515304  41.2596033  79.7930233
   4.4761851  41.0538894  79.6554684   3.3830607  41.0112434  80.7019574
   3.3410620  41.7781701  75.1492324   3.5147497  41.2128123  74.3966177
   3.8339511  42.5782595  74.9671814   9.1950011  34.5418123  76.7682624
   9.6381157  33.7925449  76.3701747   8.3176521  34.5328260  76.3856356
   4.3285792  41.0948465  72.2489222   5.0236697  41.7155158  72.4676537
   4.6708942  40.2443816  72.5241600   6.2277215  38.5448170  73.7776553
   6.7528540  38.8835443  73.0525873   6.1399568  37.6095186  73.5939688
   5.9171121  39.1781074  89.0827751   5.1266665  39.1605213  88.5432250
   5.6804476  39.7169368  89.8376788   6.0368997  36.0273540  86.3960480
   6.0867001  35.8623548  87.3376002   5.9282920  35.1600800  86.0058360
   3.3272759  32.0104469  87.7119786   4.2282622  31.8710933  87.4203784
   3.4020733  32.1758923  88.6517964   7.5387193  38.4470482  86.6402501
   7.2472002  38.8100463  87.4765962   6.9259325  37.7337490  86.4615833
   8.7382876  36.0123362  79.1605071   9.5729767  36.4513166  79.3242632
   8.8742004  35.5362015  78.3413317   5.7874382  33.5703097  85.1082559
   6.2628503  33.7630743  84.3001411   4.8639947  33.6262282  84.8625943
   4.4876051  30.4468857  83.3410865   5.4393474  30.5466954  83.3623089
   4.3179501  29.6547125  83.8508949   2.5090430  27.5324440  83.5270266
   1.9140362  27.8129453  82.8316754   2.2240127  28.0218341  84.2987007
   1.6397921  41.4847367  72.2872898   2.5728594  41.4192928  72.4905774
   1.5521133  42.3203634  71.8287431   4.2685937  40.8013237  69.2476846
   4.1899569  40.4673101  70.1412604   5.0895604  41.2935005  69.2468318
   6.9664128  33.6674976  82.4553164   6.9340449  32.7290977  82.6412848
   7.5764752  33.7459013  81.7218989   7.1158617  30.4586020  82.5011448
   6.5997666  29.6744476  82.3141376   7.9998565  30.1304736  82.6657967
   4.7769344  24.2027035  78.4607260   4.5794165  23.8942124  79.3450592
   5.3869049  24.9288674  78.5905190  12.7840678  34.7290983  81.5959201
  13.5144067  34.4676271  82.1566904  12.1747624  33.9919705  81.6361269
  10.8655975  32.8698846  82.1933652  10.1389139  32.7354811  81.5850144
  10.4503262  33.1775674  82.9990370   3.9121798  26.1936467  75.7182456
   3.3320467  26.8521271  75.3360508   3.6457730  25.3713812  75.3069873
   2.3625364  25.5941525  77.9203776   2.8625142  25.7058060  77.1118095
   3.0060972  25.2902578  78.5604585   2.6946676  28.3536558  74.7738804
   1.8072531  28.6386208  74.5558999   3.1100665  28.1930321  73.9266081
   6.0461212  28.3783079  78.4893143   6.8221602  28.8679531  78.7617760
   5.3209346  28.8041133  78.9465013   8.4833770  29.0910698  79.5467084
   9.0778261  28.8506434  78.8360392   8.5560354  28.3717829  80.1740620
   1.8389889  38.1181233  68.8686824   2.5425739  38.3231235  69.4844480
   1.1152538  38.6857994  69.1335908   2.6687699  33.8691094  74.9889094
   2.6122901  34.3259645  74.1496727   3.2216042  33.1081778  74.8111937
   6.4792505  29.6580826  75.8139214   6.2229439  29.2577461  76.6447421
   5.8545373  30.3724620  75.6889353  10.7904843  32.3976899  78.3210505
  10.2304401  32.4670088  79.0942067  10.1848346  32.2217884  77.6010001
   3.7476586  38.5563762  70.9185284   4.5822190  38.1244960  70.7362759
   3.5860929  38.3845775  71.8462179   3.4022479  35.0595875  72.2841623
   3.3471282  34.8940146  71.3430068   2.7768534  35.7671908  72.4403813
  12.3760861  49.0733413  81.0140461  13.0139271  48.9540160  80.3103801
  12.2581704  50.0214257  81.0728413   9.1850568  49.0260841  80.9501986
   8.8469079  48.9101906  80.0622520  10.0540336  48.6252006  80.9302992
   5.0437383  50.8796317  76.9398877   4.4802249  50.7886254  76.1715164
   4.9289779  50.0596222  77.4201369   9.6670351  50.1795693  86.9088191
   9.6558992  49.7848491  86.0368695   9.8290990  49.4461765  87.5021963
   2.5901815  52.3747509  79.7783097   3.3823107  52.0338334  79.3629396
   2.8298466  52.4842484  80.6985250  10.6236942  54.5467285  72.2513341
   9.9724922  55.1321365  71.8647355  11.4181305  55.0773480  72.3108379
   4.5492569  51.6356422  72.6500476   5.3223445  51.0885409  72.5113352
   4.9017968  52.5000672  72.8614937   6.3877612  52.9632804  85.8567375
   6.0967478  53.8678435  85.7414041   7.0234596  53.0049332  86.5711445
   7.3133819  50.3409653  82.4468735   7.9097391  50.1165675  81.7325698
   7.3708790  49.5994398  83.0494183   6.8858847  47.7949088  70.2818926
   7.1384368  47.2730610  69.5202389   5.9483406  47.6315234  70.3845609
  11.9302130  46.7984867  78.0893669  12.7165219  46.3804290  77.7384086
  12.1940834  47.7030959  78.2575317  12.1012207  52.2357717  72.7882326
  11.4658040  52.3092343  73.5003230  11.7709614  52.8251316  72.1101405
  17.3310557  46.7360100  78.9926647  18.0635729  46.1659317  79.2264477
  16.5749913  46.3481700  79.4333153   6.6055136  49.6977194  72.4843301
   6.4891394  49.0222098  73.1524385   6.7157396  49.2109568  71.6675454
   8.9486677  49.1587341  76.1889990   8.5844884  48.6317962  76.9002911
   9.8053793  48.7685810  76.0156475  14.8535977  40.4481674  83.4521256
  14.5219302  41.3177085  83.2282471  14.2581591  40.1317958  84.1315286
   8.5892164  44.1877241  71.1851338   8.7566566  45.0557477  71.5521809
   8.3989333  44.3504523  70.2612628  11.3467497  52.6494220  82.8517169
  11.0468220  53.5519259  82.7432976  11.0018557  52.3826403  83.7038322
   4.7979978  49.1008017  78.8853873   3.8730475  48.9684231  79.0931565
   5.0464392  49.8802236  79.3823816  14.7464641  45.1676760  80.5314606
  13.8381518  45.0992169  80.2373367  14.6952237  45.6448705  81.3596432
   8.5681385  46.6434899  72.1698005   8.4481010  47.0891949  73.0083486
   7.8733973  46.9920216  71.6111543   2.1588790  48.7441290  79.7197662
   2.2881171  48.9975769  80.6337074   1.4786241  49.3368998  79.4002317
   6.3288277  59.4138540  75.8188136   6.2512306  60.3646365  75.8976617
   5.7249920  59.0684413  76.4763063   8.8205507  46.5866406  88.4749503
   8.0438841  47.1460326  88.4652368   9.4596070  47.0723189  88.9964373
  16.6126287  43.3693199  82.3092480  15.9700667  43.6625732  81.6632275
  16.1081216  43.2546119  83.1145677  14.2666451  47.1156372  72.9978339
  15.1784307  47.3483758  72.8226037  13.7576098  47.6993416  72.4353418
   7.0751879  49.3951859  88.0367470   7.8166563  49.9336903  87.7602294
   6.3688864  50.0218148  88.1939022  12.5507219  51.5381000  86.6339632
  12.9590575  51.0963410  85.8894264  11.8284480  50.9633627  86.8873825
   8.9038289  46.4753606  84.0073189   9.7499484  46.8993020  84.1507838
   8.8436926  45.8187231  84.7011752  12.8736033  52.0982190  80.3891921
  12.2444896  52.2627904  79.6867989  12.4861695  52.5123800  81.1602885
  16.7525265  53.0336628  77.7436284  16.0676303  53.4135529  77.1933318
  16.8369114  53.6431955  78.4768232  12.0537734  44.1357975  85.6654362
  11.8098666  44.8900035  85.1288638  12.3297664  44.5143322  86.5001609
  14.0076197  50.6796587  84.3431628  14.2193092  51.3228347  83.6666009
  13.9605945  49.8458904  83.8753558  11.6102426  43.2914408  81.2468200
  10.7486905  43.5895661  81.5384938  11.6364860  43.5084807  80.3149233
   8.4263995  51.8356598  77.6542006   8.8902341  52.1144301  76.8646628
   8.1620793  50.9340043  77.4715097   5.3188076  51.3828080  80.5921769
   5.8889433  51.8115348  79.9539254   5.9096188  51.1010665  81.2905955
   7.3632881  47.9579751  74.4631571   8.0656924  48.4100794  74.9305497
   7.0313510  47.3163570  75.0911464   5.8113243  46.5491507  88.8382780
   5.1811903  47.2307788  89.0718177   5.7049330  46.4374589  87.8935919
  15.1222025  53.5568542  82.5153985  15.9439468  53.1548730  82.2336667
  15.1184427  53.4536777  83.4670101   3.0572960  46.5807883  76.7232181
   2.2604124  46.6926577  77.2415677   2.8298553  46.9194535  75.8573072
   8.8878628  53.1052586  84.6714696   8.9523061  53.5672993  85.5072868
   8.1789552  52.4749951  84.7997006  23.2128018  49.9007291  78.8638957
  22.4591726  49.3314689  78.7082961  23.3475559  49.8669955  79.8109592
   8.6026646  54.7720693  74.5393676   8.4672320  55.6172229  74.9678524
   9.1436458  54.9739971  73.7759610   5.0893985  40.8512273  91.2008031
   4.6960931  40.2978472  91.8755676   5.9060126  41.1622852  91.5914549
   2.0556043  52.2896131  75.1121601   2.5680564  53.0839382  75.2627166
   2.7078756  51.5922422  75.0455203   3.8650928  55.4061888  77.1944354
   4.0417556  56.3279852  77.0065338   4.6607761  55.0920307  77.6238734
   8.0061946  42.2670152  88.7928288   8.7471660  42.8677305  88.7132750
   8.2379869  41.5247790  88.2346331   3.1503284  47.4526519  87.0706518
   3.0356799  46.5511777  87.3713617   2.2947802  47.6990216  86.7191334
  10.2295122  55.3944260  88.6694018   9.7858976  54.6080638  88.3514923
  10.8912336  55.5823410  88.0037909   4.9882243  56.9240061  83.1954697
   5.5389668  56.7957125  82.4231691   4.1493719  57.2234950  82.8449590
  12.3276360  55.6747060  86.6975420  12.3094836  56.4955941  86.2055689
  13.2496280  55.5501135  86.9225561   8.7849414  53.1891189  87.5398928
   9.3177751  52.4279477  87.3098236   8.2563495  52.8964841  88.2823082
  11.9519109  38.2951255  83.0692570  11.6083379  39.1852897  82.9931680
  12.3198072  38.1052913  82.2062155  11.9169392  48.2859866  71.5765005
  11.4016015  49.0564471  71.8153392  11.6446700  47.6125002  72.1998066
   9.5016503  43.1309567  76.6350243   8.6458099  42.7416417  76.4555882
   9.9143455  43.2101528  75.7750029  11.0315650  40.6655910  81.0341803
  10.5280445  40.6286045  80.2209608  11.3246257  41.5748653  81.0938460
   7.2758536  40.7494640  80.0407985   8.1411532  40.5537449  79.6813874
   7.3436044  40.5204992  80.9677341  16.8903666  51.0392221  73.5118178
  16.1133109  50.7003380  73.0673340  17.5695147  51.0444844  72.8373143
  11.7055695  46.1586958  73.4024786  11.4005831  46.4733108  74.2534929
  12.6586137  46.2368378  73.4452119  10.1502127  52.3177182  75.0517740
   9.6223489  51.5829941  74.7390977   9.6489630  53.0951858  74.8057708
  15.1294973  50.5126202  80.1684786  14.4718647  51.2025464  80.2564915
  15.9335372  50.9022634  80.5118773   4.8820855  42.9796848  77.4124351
   5.4564607  42.7572029  76.6797544   5.4691837  43.0485542  78.1652953
  13.9400432  48.8670575  78.2188728  14.4532314  49.5000567  78.7210438
  14.5901656  48.2671770  77.8532088   5.2090442  45.0101309  71.4320237
   4.3727754  45.3475996  71.7529511   5.0695211  44.8750289  70.4947374
   7.1843522  39.8538097  76.1399421   6.5307935  39.5387114  75.5156036
   7.1423996  39.2313837  76.8659244   8.2954727  50.1357392  68.0552713
   7.3881789  49.9046645  68.2543862   8.7925759  49.3395011  68.2426695
  11.2022806  58.8454899  70.9749399  10.5284505  59.1486596  71.5834357
  11.5888628  59.6483979  70.6254856  10.4181263  46.3420030  80.4647068
   9.5003824  46.5634977  80.3068757  10.8341406  46.4166341  79.6058776
  11.2016310  47.7411446  75.5949749  11.9488129  48.2532843  75.2856871
  11.4707900  47.4195499  76.4554142   9.4742961  50.2369987  72.5776703
   8.5654180  49.9529020  72.6749173   9.5038044  50.6569065  71.7180010
  14.7062228  53.8476576  76.3467871  14.2524555  53.0067486  76.4033061
  14.0756195  54.4837975  76.6842651  13.6495148  44.7768562  77.5768538
  12.9117904  44.2645949  77.9078781  13.9021921  44.3368944  76.7651815
  13.1495167  55.6853073  77.2817689  13.4418142  56.2458130  76.5630054
  13.6593788  55.9781634  78.0370848  13.7506775  37.5544814  78.1710307
  14.0565652  36.6942178  77.8836222  14.4759380  38.1462435  77.9709301
   8.0227855  47.8498607  78.6786498   8.0776464  46.8972444  78.6028975
   7.2119057  48.0058047  79.1627797   9.1719048  51.7778730  69.9164782
   8.7338478  51.0614589  69.4570419   9.9129489  52.0054845  69.3549873
   5.9620215  46.4675667  76.4376877   5.1488080  46.7669838  76.8442069
   6.4579209  46.0731356  77.1551360   8.1128792  56.4633424  78.3711142
   8.0704971  56.6894270  77.4419674   9.0291491  56.2296799  78.5196943
  11.5594426  46.9317492  85.2691771  11.9143814  47.1588965  86.1286237
  12.2066557  47.2635868  84.6469026  17.2892163  50.0535928  75.9741100
  17.1510062  50.2437523  75.0462289  16.9328382  50.8155310  76.4309151
   5.4534289  44.0394023  82.0538112   6.0933669  43.8982782  81.3561076
   4.6211820  43.7528536  81.6776714  17.3161543  52.1212455  80.9852372
  17.7498049  52.0287744  81.8335426  18.0293124  52.0969955  80.3472388
   6.2294593  53.3396453  78.1673105   7.0235192  52.8446773  77.9655680
   5.5186286  52.8114316  77.8040810  11.0489438  55.7214549  82.5185472
  11.1026460  56.2905485  83.2863188  10.1804219  55.8916434  82.1539509
   2.5377357  47.4839535  74.2432857   1.6074945  47.4223990  74.4602819
   2.6334829  46.9615488  73.4469499   2.4562906  44.0094348  76.8311099
   2.7169723  44.9239681  76.7220259   3.2780078  43.5418790  76.9807712
   3.9287831  45.4232105  84.0009924   4.6010885  45.2149467  83.3522572
   3.1017618  45.2254191  83.5615156  18.1777092  52.1636155  83.5185257
  18.3712982  53.0681966  83.7644532  18.0777711  51.7043574  84.3523842
   9.8313403  42.0494046  86.0175584   9.1841318  42.7483995  85.9240061
  10.6014419  42.4830190  86.3851833  13.2392201  52.3142898  89.0926138
  13.0877707  52.0853450  88.1756221  13.2296881  53.2713499  89.1057483
  10.0077537  49.8874811  84.0772404  10.9369597  50.0385970  83.9041371
   9.5868567  49.9758831  83.2221051   8.8065869  53.9125475  81.8470942
   8.6676955  53.5444259  82.7196880   8.0180465  54.4273115  81.6754900
   9.4014021  59.0134572  73.1896478   9.5765777  58.5422615  74.0042101
   8.7146809  59.6400338  73.4177739  10.3571084  53.2907078  79.2359780
  10.0220917  53.2507848  80.1317429   9.8575030  52.6251794  78.7630190
   4.3315328  48.6974708  84.7612361   4.1935126  47.9654947  85.3623900
   5.2420252  48.6083608  84.4796548  13.2930276  50.6363112  69.5096839
  12.6759447  49.9109940  69.4129892  12.8246765  51.3972472  69.1663913
   6.9597629  48.4094667  84.2496040   7.6697248  47.7687859  84.2082659
   6.9166937  48.6607562  85.1722221  14.9484408  55.3462020  87.1702620
  14.8896954  54.6621241  86.5033203  15.3503926  56.0881010  86.7183246
   5.6726563  45.3959885  86.0691680   5.1363920  44.9450623  86.7213276
   5.0843271  45.5305794  85.3262144   3.9675107  62.1623934  79.9636338
   4.2071705  62.7942458  80.6415357   3.1244303  61.8111974  80.2501698
   5.0828822  44.8548536  68.6318143   4.2058288  44.7337337  68.2680390
   5.5586575  44.0634615  68.3797032  14.9501815  53.3101604  85.4016599
  14.0628594  52.9727526  85.5242998  15.5200366  52.5784636  85.6385365
   1.4065684  44.5315893  83.1544674   1.3223873  43.9241562  82.4195084
   0.5848391  45.0224911  83.1554171   8.4802968  57.9703057  82.3677842
   8.4073140  58.7758028  82.8797147   8.0380361  58.1695023  81.5425864
   8.2692748  57.2074827  75.8780664   7.4860270  57.7496507  75.9718889
   8.9685493  57.7248806  76.2774905  11.5789398  43.0169456  78.5214869
  12.0758098  42.2639419  78.2015940  10.8076380  43.0533773  77.9558079
  19.4319156  48.7209822  80.1633161  19.4209032  49.6034537  79.7927094
  18.5636535  48.3681373  79.9687698  10.9401652  57.8689891  84.5236001
  11.6529624  58.5037356  84.4511903  10.4491681  57.9653757  83.7076003
  12.6619179  51.7741143  76.0953293  11.7275458  51.8942606  75.9257997
  12.8395847  50.8713610  75.8313303   8.1624367  45.1586839  78.2486554
   7.7922154  44.6057880  78.9367460   8.6583459  44.5544973  77.6961554
  16.0491730  47.6158463  76.6303327  16.5152182  48.4486454  76.5563630
  16.4999231  47.1503444  77.3348585   5.9913565  55.6184334  85.3441572
   6.6923025  56.2520817  85.4970966   5.5208680  55.9599066  84.5837211
  14.1167961  53.9602284  73.6289479  14.3927805  53.8458879  74.5383353
  13.2472460  53.5619769  73.5901652  14.0208393  39.9839050  80.6694228
  13.1071473  40.2143277  80.8376435  14.4501494  40.0677494  81.5208261
  13.7914851  48.1728942  83.1694122  13.1386302  48.4204849  82.5146575
  14.1695231  47.3593080  82.8356600  10.7522025  58.2088635  77.2722293
  10.9344420  57.3910291  77.7350045  11.5755011  58.4256327  76.8347183
  11.0864191  57.1356820  74.5337341  11.6151957  56.6249275  73.9207503
  11.3492410  56.8199350  75.3982874   9.8402424  48.9148753  89.6560159
   9.1643061  48.8142882  90.3262535  10.6630058  48.7587967  90.1196157
   1.5881283  55.1520689  82.2772675   2.1734720  54.4064377  82.4100579
   1.3906122  55.4624646  83.1609339   4.4419939  58.1871937  77.2935117
   3.7730314  58.6718064  76.8099157   4.3032808  58.4341157  78.2078496
   8.5825207  60.2215680  83.8917775   9.1343515  60.3847302  84.6566861
   8.9231401  60.8120118  83.2197800   3.5589701  42.5690830  84.4939660
   3.6231027  43.4305661  84.0817058   3.4956821  41.9564832  83.7612019
   3.0341973  44.6413963  88.1412694   3.6614012  44.2591040  88.7550219
   2.1769892  44.4228164  88.5068387  13.4336082  55.0476938  89.7466430
  13.9775986  55.6606896  89.2521385  12.8522926  55.6056516  90.2633443
  11.7193595  58.1697656  80.8781458  11.5944734  57.3687396  80.3692403
  12.3772686  58.6643849  80.3895427   3.3401763  44.5246388  80.0558598
   2.6188349  45.1382356  79.9166071   4.1295019  45.0604153  79.9775244
  13.7828503  55.9706676  82.5061008  12.8358838  55.8512027  82.4339334
  14.1311276  55.0829174  82.5887269   6.1428076  41.8600815  86.3299250
   6.6662478  42.1063111  87.0925559   5.9240410  42.6920850  85.9102387
   1.5395357  44.1304489  74.1970374   1.2108064  43.2501868  74.0145480
   1.8934728  44.0752158  75.0846764  10.7874936  55.7659392  78.7065360
  10.6399899  54.8376099  78.8872930  11.6128430  55.7879483  78.2222435
   4.6537181  44.4177459  74.5645852   4.9933253  44.9463380  73.8424460
   5.1009301  44.7557865  75.3404419  14.3909058  56.5887951  79.7930233
  15.3155606  56.3830812  79.6554684  14.2224361  56.3404352  80.7019574
   7.3480621  42.8014510  84.0148920   7.0077442  42.0022323  84.4169600
   6.6419628  43.1016221  83.4425753   7.9997093  39.8863822  82.4676243
   8.8223163  39.4124300  82.3455133   8.2435157  40.6654306  82.9674929
   6.6405328  42.9152081  72.7639145   7.3613690  43.2933334  72.2602862
   6.0170632  43.6340958  72.8674123  10.7836451  43.6197230  73.6997477
  11.0000065  44.5021868  73.3986305  10.3030518  43.2283443  72.9703119
   5.5235672  46.5782943  80.2768222   5.3780253  46.8923246  81.1692503
   5.0460876  47.1967843  79.7239120   7.3832055  43.5685491  80.3249111
   7.3693624  42.6726584  79.9881409   8.1004483  43.5756155  80.9587397
   9.2358186  44.0022831  82.3702239   8.9775963  44.9239902  82.3686569
   8.7043226  43.6053266  83.0602703  14.1804374  57.1073618  75.1492324
  14.3541252  56.5420041  74.3966177  14.6733266  57.9074513  74.9671814
   6.7868951  42.4499871  75.5936681   6.9084862  41.5216517  75.7927569
   6.4970993  42.4638557  74.6814997   9.6560141  40.1354782  78.7303401
   9.6781838  40.1994115  77.7755381  10.0728200  39.2959290  78.9243907
  20.0343765  49.8710041  76.7682624  20.4774912  49.1217366  76.3701747
  19.1570276  49.8620178  76.3856356  15.1679547  56.4240383  72.2489222
  15.8630451  57.0447075  72.4676537  15.5102697  55.5735734  72.5241600
  17.0670970  53.8740088  73.7776553  17.5922294  54.2127361  73.0525873
  16.9793322  52.9387103  73.5939688   8.7291019  57.7874162  85.9066430
   9.0378145  57.5423309  86.7789129   9.5266501  57.9920800  85.4185300
   8.7511631  59.9412071  78.1371806   8.3116621  59.4488450  78.8304663
   9.5019748  59.3985039  77.8963882   1.2303970  56.1323612  78.1396434
   2.0561990  55.8327384  77.7595078   0.8798022  55.3631235  78.5886223
   6.1985503  55.4850081  80.2094108   5.5765512  54.8220786  79.9096336
   6.8690370  55.5111212  79.5267756   6.2710030  43.9631869  89.8026614
   6.3198186  44.8393991  89.4204384   6.8132545  43.4209262  89.2298257
  16.7564876  54.5072992  89.0827751  15.9660420  54.4897131  88.5432250
  16.5198231  55.0461285  89.8376788  16.8762751  51.3565458  86.3960480
  16.9260756  51.1915466  87.3376002  16.7676674  50.4892717  86.0058360
   5.7599010  54.0354004  73.6852568   5.9087130  54.7189468  73.0319241
   6.5665453  54.0159094  74.2002024  14.1666513  47.3396386  87.7119786
  15.0676376  47.2002851  87.4203784  14.2414488  47.5050841  88.6517964
   8.5009319  44.7163241  86.5572973   7.6312628  45.0096807  86.2855561
   8.7368799  45.3003686  87.2780236  18.3780948  53.7762400  86.6402501
  18.0865756  54.1392380  87.4765962  17.7653079  53.0629408  86.4615833
  19.5776630  51.3415279  79.1605071  20.4123522  51.7805084  79.3242632
  19.7135759  50.8653933  78.3413317  16.6268136  48.8995014  85.1082559
  17.1022258  49.0922661  84.3001411  15.7033701  48.9554200  84.8625943
   3.5151643  50.0619181  74.6913637   3.2697685  49.1581511  74.8893848
   3.6847557  50.0636332  73.7493115  11.2048353  40.9342858  84.0738393
  11.7230296  41.6703885  83.7484882  10.8503485  41.2406851  84.9085152
   2.7847290  45.7947539  72.1899799   2.0916535  45.8691894  71.5339835
   2.5399042  45.0307883  72.7121316  11.4560947  37.3543140  79.5939290
  11.7362701  36.6866329  80.2199716  12.2411554  37.5472236  79.0813953
   9.2594415  56.5302134  71.1564316   8.6868382  57.1492321  70.7034788
   9.8327209  57.0801496  71.6904238  15.3269805  45.7760774  83.3410865
  16.2787228  45.8758872  83.3623089  15.1573256  44.9839043  83.8508949
  13.3484185  42.8616358  83.5270266  12.7534117  43.1421370  82.8316754
  13.0633881  43.3510259  84.2987007  12.4791675  56.8139284  72.2872898
  13.4122348  56.7484846  72.4905774  12.3914888  57.6495551  71.8287431
  15.1079692  56.1305155  69.2476846  15.0293323  55.7965018  70.1412604
  15.9289358  56.6226923  69.2468318  17.8057883  48.9966894  82.4553164
  17.7734203  48.0582895  82.6412848  18.4158507  49.0750931  81.7218989
   9.6441214  47.8662947  68.4980368  10.5900318  47.7369155  68.5668786
   9.2655459  47.1277609  68.9749797  17.9552371  45.7877938  82.5011448
  17.4391420  45.0036394  82.3141376  18.8392320  45.4596654  82.6657967
  15.6163098  39.5318953  78.4607260  15.4187919  39.2234041  79.3450592
  16.2262804  40.2580592  78.5905190  23.6234433  50.0582901  81.5959201
  24.3537821  49.7968189  82.1566904  23.0141378  49.3211623  81.6361269
  21.7049730  48.1990764  82.1933652  20.9782893  48.0646728  81.5850144
  21.2897017  48.5067592  82.9990370   9.5279906  51.9180693  89.9581025
  10.4482916  52.0959292  90.1521072   9.4929489  50.9736739  89.8060725
   7.8284131  45.7912923  68.4335254   6.9215586  45.4946036  68.5097967
   8.1060112  45.4942742  67.5669540   2.5241979  49.8281728  82.6003807
   2.7427989  50.7598836  82.6191840   2.9367753  49.4689702  83.3858610
   9.4446197  40.3349813  74.5879495   8.6346925  39.9896898  74.9634741
  10.1330614  40.0257357  75.1767106  11.3736745  39.4127860  76.2103792
  11.9267784  39.8323313  76.8693815  11.6106831  38.4863608  76.2526748
   7.3969844  45.4014934  91.9906555   7.2966571  46.3509291  91.9218647
   7.1791386  45.0733173  91.1182626   6.5982916  42.6499859  68.5747233
   7.4602080  42.9754757  68.8343050   6.7833260  41.8631355  68.0620299
  14.7515552  41.5228385  75.7182456  14.1714221  42.1813189  75.3360508
  14.4851485  40.7005730  75.3069873  13.2019118  40.9233443  77.9203776
  13.7018897  41.0349977  77.1118095  13.8454726  40.6194496  78.5604585
   7.2601114  48.8312072  90.8071617   6.7768196  49.6312433  91.0135506
   7.3462053  48.8420017  89.8539061   0.5287074  50.6640452  78.7293436
   0.5057762  50.7628139  77.7775320   0.8387710  51.5105603  79.0510603
   3.1874452  52.7216607  82.8440051   4.1417705  52.6900549  82.7769982
   2.9886975  52.2607231  83.6590277   3.7773834  51.2917723  85.4110849
   4.5966723  51.7861802  85.4345686   4.0510642  50.3749691  85.3828416
  13.5340430  43.6828476  74.7738804  12.6466285  43.9678126  74.5558999
  13.9494419  43.5222239  73.9266081  16.8854966  43.7074996  78.4893143
  17.6615356  44.1971449  78.7617760  16.1603100  44.1333051  78.9465013
  19.3227525  44.4202616  79.5467084  19.9172016  44.1798352  78.8360392
  19.3954108  43.7009746  80.1740620   1.5424680  58.2636227  79.8610249
   1.4079148  57.5036628  79.2948247   1.1256743  58.9877127  79.3939038
  12.6783643  53.4473150  68.8686824  13.3819494  53.6523153  69.4844480
  11.9546292  54.0149912  69.1335908  13.5081454  49.1983011  74.9889094
  13.4516655  49.6551563  74.1496727  14.0609796  48.4373696  74.8111937
  17.3186260  44.9872743  75.8139214  17.0623194  44.5869379  76.6447421
  16.6939128  45.7016537  75.6889353  21.6298598  47.7268817  78.3210505
  21.0698156  47.7962006  79.0942067  21.0242101  47.5509801  77.6010001
   4.6993806  59.1605544  80.0728691   4.5826190  60.1050976  79.9707382
   3.8786253  58.8579105  80.4614491  14.5870341  53.8855679  70.9185284
  15.4215945  53.4536878  70.7362759  14.4254684  53.7137693  71.8462179
  14.2416233  50.3887793  72.2841623  14.1865037  50.2232064  71.3430068
  13.6162288  51.0963826  72.4403813  11.5562140  52.6936705  91.6095186
  12.4253300  52.8677357  91.2481821  11.0768892  53.5131121  91.4870916
   7.5512359  39.8895902  71.8626942   7.5391028  40.8337742  72.0195213
   8.4435780  39.7066047  71.5686403   5.7248320  59.8133806  83.2884620
   6.6275567  59.8457416  83.6051115   5.4985691  58.8834257  83.3030956
   7.4801922  58.5664792  79.9494698   6.5297554  58.5666654  79.8359071
   7.7834409  57.8197527  79.4330733  11.3664478  36.4838678  76.1172879
  10.5996874  35.9297165  76.2629561  11.7775183  36.5560547  76.9787030
   3.3706239  42.7723474  90.2078060   4.2337701  42.4160279  90.4181384
   2.7971650  42.4337369  90.8953464  23.2154616  64.4025331  81.0140461
  23.8533026  64.2832078  80.3103801  23.0975459  65.3506174  81.0728413
  20.0244322  64.3552759  80.9501986  19.6862834  64.2393823  80.0622520
  20.8934090  63.9543924  80.9302992  15.8831138  66.2088235  76.9398877
  15.3196003  66.1178172  76.1715164  15.7683533  65.3888139  77.4201369
  20.5064105  65.5087610  86.9088191  20.4952746  65.1140409  86.0368695
  20.6684745  64.7753683  87.5021963  13.4295570  67.7039427  79.7783097
  14.2216862  67.3630251  79.3629396  13.6692220  67.8134402  80.6985250
  21.4630697  69.8759203  72.2513341  20.8118676  70.4613283  71.8647355
  22.2575059  70.4065398  72.3108379  15.3886324  66.9648340  72.6500476
  16.1617200  66.4177327  72.5113352  15.7411723  67.8292589  72.8614937
  17.2271366  68.2924722  85.8567375  16.9361232  69.1970353  85.7414041
  17.8628351  68.3341250  86.5711445  18.1527573  65.6701571  82.4468735
  18.7491145  65.4457593  81.7325698  18.2102545  64.9286316  83.0494183
  17.7252602  63.1241006  70.2818926  17.9778122  62.6022527  69.5202389
  16.7877161  62.9607151  70.3845609  22.7695884  62.1276784  78.0893669
  23.5558974  61.7096208  77.7384086  23.0334589  63.0322877  78.2575317
  22.9405962  67.5649635  72.7882326  22.3051795  67.6384261  73.5003230
  22.6103368  68.1543233  72.1101405  28.1704312  62.0652018  78.9926647
  28.9029484  61.4951234  79.2264477  27.4143667  61.6773618  79.4333153
  17.4448890  65.0269112  72.4843301  17.3285148  64.3514015  73.1524385
  17.5551150  64.5401486  71.6675454  19.7880431  64.4879259  76.1889990
  19.4238639  63.9609880  76.9002911  20.6447547  64.0977728  76.0156475
  25.6929732  55.7773592  83.4521256  25.3613057  56.6469003  83.2282471
  25.0975345  55.4609876  84.1315286  19.4285918  59.5169159  71.1851338
  19.5960321  60.3849395  71.5521809  19.2383087  59.6796440  70.2612628
  22.1861251  67.9786138  82.8517169  21.8861975  68.8811176  82.7432976
  21.8412311  67.7118321  83.7038322  15.6373733  64.4299934  78.8853873
  14.7124229  64.2976149  79.0931565  15.8858146  65.2094154  79.3823816
  25.5858395  60.4968678  80.5314606  24.6775273  60.4284086  80.2373367
  25.5345991  60.9740623  81.3596432  19.4075139  61.9726816  72.1698005
  19.2874764  62.4183867  73.0083486  18.7127728  62.3212134  71.6111543
  12.9982544  64.0733208  79.7197662  13.1274925  64.3267687  80.6337074
  12.3179995  64.6660916  79.4002317  17.1682031  74.7430458  75.8188136
  17.0906061  75.6938283  75.8976617  16.5643675  74.3976330  76.4763063
  19.6599261  61.9158323  88.4749503  18.8832595  62.4752244  88.4652368
  20.2989824  62.4015106  88.9964373  27.4520042  58.6985116  82.3092480
  26.8094422  58.9917649  81.6632275  26.9474970  58.5838037  83.1145677
  25.1060205  62.4448289  72.9978339  26.0178061  62.6775676  72.8226037
  24.5969852  63.0285334  72.4353418  17.9145633  64.7243777  88.0367470
  18.6560318  65.2628821  87.7602294  17.2082619  65.3510066  88.1939022
  23.3900973  66.8672917  86.6339632  23.7984329  66.4255328  85.8894264
  22.6678235  66.2925545  86.8873825  19.7432043  61.8045524  84.0073189
  20.5893238  62.2284938  84.1507838  19.6830681  61.1479148  84.7011752
  23.7129788  67.4274108  80.3891921  23.0838650  67.5919822  79.6867989
  23.3255450  67.8415717  81.1602885  27.5919020  68.3628546  77.7436284
  26.9070058  68.7427447  77.1933318  27.6762869  68.9723872  78.4768232
  22.8931488  59.4649892  85.6654362  22.6492420  60.2191953  85.1288638
  23.1691419  59.8435240  86.5001609  24.8469951  66.0088505  84.3431628
  25.0586846  66.6520265  83.6666009  24.7999699  65.1750821  83.8753558
  22.4496180  58.6206325  81.2468200  21.5880659  58.9187579  81.5384938
  22.4758615  58.8376724  80.3149233  19.2657750  67.1648516  77.6542006
  19.7296095  67.4436219  76.8646628  19.0014548  66.2631961  77.4715097
  16.1581831  66.7119998  80.5921769  16.7283188  67.1407266  79.9539254
  16.7489942  66.4302582  81.2905955  18.2026636  63.2871668  74.4631571
  18.9050679  63.7392712  74.9305497  17.8707264  62.6455487  75.0911464
  16.6506997  61.8783425  88.8382780  16.0205658  62.5599706  89.0718177
  16.5443085  61.7666507  87.8935919  11.9451970  61.5455221  79.7648705
  11.1551024  61.8012750  79.2888815  12.4363217  62.3603559  79.8700745
  25.9615779  68.8860460  82.5153985  26.7833223  68.4840647  82.2336667
  25.9578182  68.7828694  83.4670101  13.8966715  61.9099800  76.7232181
  13.0997878  62.0218494  77.2415677  13.6692307  62.2486452  75.8573072
  19.7272383  68.4344503  84.6714696  19.7916815  68.8964911  85.5072868
  19.0183306  67.8041868  84.7997006  10.2289673  61.7985711  82.1963695
  10.4797711  62.6832721  82.4621271  10.7649221  61.6190313  81.4238787
  19.4420400  70.1012611  74.5393676  19.3066075  70.9464147  74.9678524
  19.9830213  70.3031889  73.7759610  15.9287740  56.1804191  91.2008031
  15.5354685  55.6270389  91.8755676  16.7453880  56.4914769  91.5914549
  12.8949798  67.6188049  75.1121601  13.4074318  68.4131299  75.2627166
  13.5472510  66.9214339  75.0455203  14.7044682  70.7353805  77.1944354
  14.8811311  71.6571770  77.0065338  15.5001516  70.4212224  77.6238734
  18.8455701  57.5962070  88.7928288  19.5865414  58.1969223  88.7132750
  19.0773624  56.8539708  88.2346331  13.9897039  62.7818437  87.0706518
  13.8750554  61.8803694  87.3713617  13.1341557  63.0282134  86.7191334
  21.0688877  70.7236177  88.6694018  20.6252731  69.9372556  88.3514923
  21.7306090  70.9115328  88.0037909  15.8275998  72.2531979  83.1954697
  16.3783423  72.1249042  82.4231691  14.9887474  72.5526868  82.8449590
  23.1670115  71.0038977  86.6975420  23.1488590  71.8247858  86.2055689
  24.0890035  70.8793053  86.9225561  19.6243169  68.5183107  87.5398928
  20.1571506  67.7571395  87.3098236  19.0957250  68.2256759  88.2823082
  22.7912864  53.6243173  83.0692570  22.4477133  54.5144815  82.9931680
  23.1591826  53.4344830  82.2062155  10.8598714  65.9476703  75.8881172
  11.6973936  66.3573712  75.6714880  11.0376982  65.0076145  75.8581366
  22.7563146  63.6151784  71.5765005  22.2409770  64.3856389  71.8153392
  22.4840455  62.9416920  72.1998066  20.3410258  58.4601485  76.6350243
  19.4851854  58.0708335  76.4555882  20.7537209  58.5393446  75.7750029
  21.8709404  55.9947828  81.0341803  21.3674200  55.9577963  80.2209608
  22.1640011  56.9040571  81.0938460  18.1152290  56.0786558  80.0407985
  18.9805287  55.8829366  79.6813874  18.1829799  55.8496909  80.9677341
  27.7297421  66.3684139  73.5118178  26.9526863  66.0295298  73.0673340
  28.4088902  66.3736762  72.8373143  22.5449450  61.4878876  73.4024786
  22.2399585  61.8025025  74.2534929  23.4979892  61.5660296  73.4452119
  20.9895882  67.6469099  75.0517740  20.4617243  66.9121859  74.7390977
  20.4883384  68.4243776  74.8057708  25.9688728  65.8418120  80.1684786
  25.3112402  66.5317381  80.2564915  26.7729127  66.2314552  80.5118773
  15.7214609  58.3088766  77.4124351  16.2958361  58.0863947  76.6797544
  16.3085592  58.3777460  78.1652953  24.7794186  64.1962493  78.2188728
  25.2926068  64.8292484  78.7210438  25.4295410  63.5963688  77.8532088
  16.0484196  60.3393227  71.4320237  15.2121508  60.6767913  71.7529511
  15.9088966  60.2042206  70.4947374  18.0237277  55.1830015  76.1399421
  17.3701689  54.8679032  75.5156036  17.9817751  54.5605755  76.8659244
  19.1348482  65.4649310  68.0552713  18.2275543  65.2338563  68.2543862
  19.6319514  64.6686929  68.2426695  22.0416561  74.1746817  70.9749399
  21.3678259  74.4778514  71.5834357  22.4282383  74.9775897  70.6254856
  21.2575017  61.6711948  80.4647068  20.3397579  61.8926895  80.3068757
  21.6735161  61.7458259  79.6058776  22.0410065  63.0703364  75.5949749
  22.7881884  63.5824761  75.2856871  22.3101654  62.7487416  76.4554142
  20.3136715  65.5661904  72.5776703  19.4047934  65.2820937  72.6749173
  20.3431799  65.9860983  71.7180010  25.5455983  69.1768494  76.3467871
  25.0918310  68.3359404  76.4033061  24.9149949  69.8129892  76.6842651
  24.4888902  60.1060480  77.5768538  23.7511659  59.5937866  77.9078781
  24.7415676  59.6660862  76.7651815  23.9888922  71.0144991  77.2817689
  24.2811896  71.5750048  76.5630054  24.4987542  71.3073552  78.0370848
  24.5900529  52.8836732  78.1710307  24.8959406  52.0234095  77.8836222
  25.3153134  53.4754352  77.9709301  10.8824886  63.2867419  76.5591905
  10.6849285  62.6936779  75.8342972  10.3271549  62.9819629  77.2767844
  18.8621609  63.1790525  78.6786498  18.9170219  62.2264361  78.6028975
  18.0512811  63.3349964  79.1627797  20.0112803  67.1070648  69.9164782
  19.5732233  66.3906507  69.4570419  20.7523244  67.3346763  69.3549873
  16.8013969  61.7967585  76.4376877  15.9881835  62.0961755  76.8442069
  17.2972963  61.4023274  77.1551360  18.9522547  71.7925342  78.3711142
  18.9098726  72.0186188  77.4419674  19.8685246  71.5588716  78.5196943
  22.3988181  62.2609409  85.2691771  22.7537568  62.4880882  86.1286237
  23.0460312  62.5927786  84.6469026  28.1285918  65.3827845  75.9741100
  27.9903816  65.5729441  75.0462289  27.7722137  66.1447228  76.4309151
  16.2928044  59.3685940  82.0538112  16.9327423  59.2274699  81.3561076
  15.4605574  59.0820454  81.6776714  28.1555297  67.4504372  80.9852372
  28.5891804  67.3579661  81.8335426  28.8686878  67.4261873  80.3472388
  17.0688348  68.6688371  78.1673105  17.8628946  68.1738691  77.9655680
  16.3580040  68.1406234  77.8040810  21.8883192  71.0506466  82.5185472
  21.9420214  71.6197403  83.2863188  21.0197974  71.2208351  82.1539509
  13.3771111  62.8131453  74.2432857  12.4468699  62.7515908  74.4602819
  13.4728583  62.2907405  73.4469499  13.2956660  59.3386265  76.8311099
  13.5563478  60.2531599  76.7220259  14.1173833  58.8710708  76.9807712
  14.7681586  60.7524023  84.0009924  15.4404639  60.5441385  83.3522572
  13.9411372  60.5546109  83.5615156  20.6707158  57.3785963  86.0175584
  20.0235073  58.0775913  85.9240061  21.4408173  57.8122107  86.3851833
  24.0785956  67.6434816  89.0926138  23.9271462  67.4145367  88.1756221
  24.0690635  68.6005417  89.1057483  20.8471292  65.2166728  84.0772404
  21.7763352  65.3677888  83.9041371  20.4262322  65.3050749  83.2221051
  19.6459624  69.2417393  81.8470942  19.5070709  68.8736177  82.7196880
  18.8574220  69.7565032  81.6754900  20.2407776  74.3426489  73.1896478
  20.4159531  73.8714532  74.0042101  19.5540564  74.9692255  73.4177739
  21.1964839  68.6198995  79.2359780  20.8614671  68.5799765  80.1317429
  20.6968785  67.9543711  78.7630190  15.1709083  64.0266625  84.7612361
  15.0328881  63.2946864  85.3623900  16.0814006  63.9375526  84.4796548
  24.1324031  65.9655030  69.5096839  23.5153201  65.2401858  69.4129892
  23.6640519  66.7264390  69.1663913  17.7991384  63.7386585  84.2496040
  18.5091002  63.0979777  84.2082659  17.7560692  63.9899480  85.1722221
  25.7878162  70.6753938  87.1702620  25.7290708  69.9913158  86.5033203
  26.1897681  71.4172928  86.7183246  16.5120317  60.7251803  86.0691680
  15.9757675  60.2742541  86.7213276  15.9237026  60.8597712  85.3262144
  14.8068861  77.4915852  79.9636338  15.0465459  78.1234376  80.6415357
  13.9638057  77.1403892  80.2501698  15.9222576  60.1840454  68.6318143
  15.0452043  60.0629255  68.2680390  16.3980330  59.3926532  68.3797032
  25.7895569  68.6393522  85.4016599  24.9022348  68.3019444  85.5242998
  26.3594121  67.9076553  85.6385365   7.4424717  64.9717614  78.7259651
   8.1295756  64.6579344  78.1380666   7.2872845  65.8758978  78.4526902
  12.2459439  59.8607810  83.1544674  12.1617627  59.2533480  82.4195084
  11.4242145  60.3516829  83.1554171  19.3196723  73.2994974  82.3677842
  19.2466894  74.1049946  82.8797147  18.8774116  73.4986940  81.5425864
  19.1086502  72.5366744  75.8780664  18.3254024  73.0788425  75.9718889
  19.8079248  73.0540724  76.2774905  22.4183153  58.3461374  78.5214869
  22.9151852  57.5931336  78.2015940  21.6470134  58.3825691  77.9558079
  30.2712910  64.0501739  80.1633161  30.2602786  64.9326455  79.7927094
  29.4030289  63.6973290  79.9687698  21.7795406  73.1981808  84.5236001
  22.4923379  73.8329273  84.4511903  21.2885435  73.2945674  83.7076003
  23.5012933  67.1033061  76.0953293  22.5669212  67.2234524  75.9257997
  23.6789602  66.2005528  75.8313303  19.0018121  60.4878757  78.2486554
  18.6315909  59.9349797  78.9367460  19.4977214  59.8836890  77.6961554
  26.8885485  62.9450380  76.6303327  27.3545937  63.7778372  76.5563630
  27.3392985  62.4795362  77.3348585  16.8307320  70.9476252  85.3441572
  17.5316779  71.5812735  85.4970966  16.3602435  71.2890983  84.5837211
  24.9561716  69.2894202  73.6289479  25.2321560  69.1750796  74.5383353
  24.0866214  68.8911687  73.5901652  24.8602147  55.3130967  80.6694228
  23.9465227  55.5435194  80.8376435  25.2895249  55.3969411  81.5208261
  24.6308606  63.5020859  83.1694122  23.9780056  63.7496767  82.5146575
  25.0088986  62.6884998  82.8356600  21.5915780  73.5380553  77.2722293
  21.7738174  72.7202208  77.7350045  22.4148766  73.7548245  76.8347183
  21.9257945  72.4648738  74.5337341  22.4545712  71.9541192  73.9207503
  22.1886165  72.1491268  75.3982874  20.6796179  64.2440670  89.6560159
  20.0036816  64.1434800  90.3262535  21.5023813  64.0879884  90.1196157
  12.4275038  70.4812607  82.2772675  13.0128475  69.7356295  82.4100579
  12.2299876  70.7916564  83.1609339  15.2813693  73.5163854  77.2935117
  14.6124068  74.0009982  76.8099157  15.1426563  73.7633075  78.2078496
   7.0192693  63.0518207  80.9977118   7.0576792  62.5181798  81.7914236
   6.5132986  62.5253413  80.3788095  19.4218962  75.5507598  83.8917775
  19.9737270  75.7139219  84.6566861  19.7625155  76.1412036  83.2197800
  14.3983455  57.8982748  84.4939660  14.4624781  58.7597579  84.0817058
  14.3350575  57.2856749  83.7612019  13.8735728  59.9705880  88.1412694
  14.5007766  59.5882958  88.7550219  13.0163646  59.7520082  88.5068387
  24.2729836  70.3768855  89.7466430  24.8169740  70.9898814  89.2521385
  23.6916681  70.9348434  90.2633443  10.6501270  61.7782309  74.0731049
  10.9454711  60.8692988  74.0198103   9.7489306  61.7570049  73.7512051
  22.5587349  73.4989573  80.8781458  22.4338489  72.6979313  80.3692403
  23.2166440  73.9935767  80.3895427  14.1795517  59.8538306  80.0558598
  13.4582103  60.4674274  79.9166071  14.9688773  60.3896071  79.9775244
  24.6222257  71.2998594  82.5061008  23.6752593  71.1803945  82.4339334
  24.9705031  70.4121092  82.5887269  16.9821831  57.1892732  86.3299250
  17.5056233  57.4355029  87.0925559  16.7634164  58.0212767  85.9102387
  12.3789112  59.4596407  74.1970374  12.0501818  58.5793786  74.0145480
  12.7328483  59.4044076  75.0846764  21.6268691  71.0951310  78.7065360
  21.4793653  70.1668017  78.8872930  22.4522184  71.1171400  78.2222435
  15.4930935  59.7469377  74.5645852  15.8327008  60.2755298  73.8424460
  15.9403056  60.0849783  75.3404419  25.2302813  71.9179868  79.7930233
  26.1549360  71.7122730  79.6554684  25.0618116  71.6696270  80.7019574
  18.1874376  58.1306428  84.0148920  17.8471196  57.3314241  84.4169600
  17.4813382  58.4308138  83.4425753  18.8390848  55.2155740  82.4676243
  19.6616917  54.7416218  82.3455133  19.0828911  55.9946224  82.9674929
  17.4799082  58.2443998  72.7639145  18.2007445  58.6225251  72.2602862
  16.8564386  58.9632875  72.8674123  21.6230205  58.9489147  73.6997477
  21.8393819  59.8313785  73.3986305  21.1424272  58.5575361  72.9703119
  16.3629426  61.9074861  80.2768222  16.2174007  62.2215164  81.1692503
  15.8854630  62.5259761  79.7239120  18.2225809  58.8977409  80.3249111
  18.2087378  58.0018502  79.9881409  18.9398237  58.9048072  80.9587397
  20.0751940  59.3314749  82.3702239  19.8169718  60.2531819  82.3686569
  19.5436980  58.9345183  83.0602703  25.0198129  72.4365536  75.1492324
  25.1935006  71.8711958  74.3966177  25.5127020  73.2366431  74.9671814
  10.8375089  64.4480205  83.2155883  10.2928557  65.2240013  83.3476157
  11.7154438  64.7951009  83.0575004  17.6262705  57.7791789  75.5936681
  17.7478616  56.8508435  75.7927569  17.3364748  57.7930475  74.6814997
  20.4953896  55.4646699  78.7303401  20.5175592  55.5286032  77.7755381
  20.9121955  54.6251208  78.9243907  30.8737520  65.2001959  76.7682624
  31.3168666  64.4509284  76.3701747  29.9964030  65.1912095  76.3856356
  26.0073301  71.7532300  72.2489222  26.7024206  72.3738993  72.4676537
  26.3496451  70.9027652  72.5241600  11.6241110  63.5750101  86.1086040
  10.8822846  63.7232737  86.6950670  11.3033855  63.8358367  85.2452789
  27.9064724  69.2032006  73.7776553  28.4316048  69.5419279  73.0525873
  27.8187077  68.2679021  73.5939688  19.5684773  73.1166079  85.9066430
  19.8771900  72.8715226  86.7789129  20.3660255  73.3212718  85.4185300
  19.5905385  75.2703989  78.1371806  19.1510375  74.7780368  78.8304663
  20.3413502  74.7276957  77.8963882  12.0697724  71.4615530  78.1396434
  12.8955744  71.1619302  77.7595078  11.7191776  70.6923152  78.5886223
  17.0379257  70.8141998  80.2094108  16.4159267  70.1512703  79.9096336
  17.7084124  70.8403130  79.5267756  10.2706329  69.3801856  79.0985368
   9.4338237  68.9524031  78.9169369  10.2429975  69.5734300  80.0356159
  17.1103785  59.2923786  89.8026614  17.1591940  60.1685909  89.4204384
  17.6526299  58.7501179  89.2298257  27.7156506  66.6857376  86.3960480
  27.7654510  66.5207383  87.3376002  27.6070429  65.8184635  86.0058360
  16.5992764  69.3645922  73.6852568  16.7480885  70.0481386  73.0319241
  17.4059208  69.3451012  74.2002024  25.0060268  62.6688304  87.7119786
  25.9070131  62.5294769  87.4203784  25.0808242  62.8342759  88.6517964
  19.3403073  60.0455159  86.5572973  18.4706383  60.3388725  86.2855561
  19.5762554  60.6295604  87.2780236  29.2174702  69.1054317  86.6402501
  28.9259511  69.4684298  87.4765962  28.6046834  68.3921326  86.4615833
  30.4170385  66.6707197  79.1605071  31.2517276  67.1097001  79.3242632
  30.5529513  66.1945850  78.3413317  27.4661891  64.2286932  85.1082559
  27.9416012  64.4214578  84.3001411  26.5427456  64.2846118  84.8625943
  14.3545397  65.3911099  74.6913637  14.1091439  64.4873429  74.8893848
  14.5241312  65.3928250  73.7493115  22.0442107  56.2634776  84.0738393
  22.5624051  56.9995802  83.7484882  21.6897240  56.5698769  84.9085152
  13.6241045  61.1239457  72.1899799  12.9310290  61.1983812  71.5339835
  13.3792797  60.3599800  72.7121316  22.2954701  52.6835058  79.5939290
  22.5756455  52.0158247  80.2199716  23.0805308  52.8764154  79.0813953
  20.0988170  71.8594052  71.1564316  19.5262137  72.4784239  70.7034788
  20.6720963  72.4093414  71.6904238  26.1663560  61.1052692  83.3410865
  27.1180982  61.2050790  83.3623089  25.9967010  60.3130961  83.8508949
  24.1877939  58.1908275  83.5270266  23.5927871  58.4713288  82.8316754
  23.9027636  58.6802176  84.2987007  23.3185430  72.1431202  72.2872898
  24.2516103  72.0776764  72.4905774  23.2308642  72.9787469  71.8287431
  25.9473446  71.4597072  69.2476846  25.8687078  71.1256936  70.1412604
  26.7683113  71.9518840  69.2468318  28.6451637  64.3258812  82.4553164
  28.6127957  63.3874812  82.6412848  29.2552261  64.4042848  81.7218989
  20.4834968  63.1954865  68.4980368  21.4294073  63.0661073  68.5668786
  20.1049213  62.4569527  68.9749797  28.7946126  61.1169855  82.5011448
  28.2785175  60.3328312  82.3141376  29.6786074  60.7888572  82.6657967
  26.4556853  54.8610871  78.4607260  26.2581674  54.5525959  79.3450592
  27.0656558  55.5872510  78.5905190  20.3673661  67.2472611  89.9581025
  21.2876670  67.4251210  90.1521072  20.3323244  66.3028656  89.8060725
  18.6677885  61.1204841  68.4335254  17.7609341  60.8237954  68.5097967
  18.9453866  60.8234659  67.5669540   9.5855826  62.4411205  78.8834300
   9.2658610  61.5876513  78.5908674   9.0389254  62.6559783  79.6392267
  13.3635733  65.1573646  82.6003807  13.5821743  66.0890753  82.6191840
  13.7761507  64.7981620  83.3858610  20.2839951  55.6641731  74.5879495
  19.4740679  55.3188816  74.9634741  20.9724368  55.3549275  75.1767106
  22.2130499  54.7419778  76.2103792  22.7661538  55.1615231  76.8693815
  22.4500586  53.8155526  76.2526748  18.2363599  60.7306851  91.9906555
  18.1360326  61.6801208  91.9218647  18.0185141  60.4025090  91.1182626
  17.4376670  57.9791776  68.5747233  18.2995834  58.3046675  68.8343050
  17.6227014  57.1923272  68.0620299   9.4544086  66.0614116  80.8527422
   8.7607557  65.6468069  80.3397376  10.2017077  66.1034653  80.2560841
  25.5909306  56.8520303  75.7182456  25.0107976  57.5105107  75.3360508
  25.3245239  56.0297647  75.3069873  24.0412873  56.2525361  77.9203776
  24.5412651  56.3641895  77.1118095  24.6848481  55.9486413  78.5604585
  18.0994869  64.1603990  90.8071617  17.6161950  64.9604350  91.0135506
  18.1855808  64.1711935  89.8539061  11.3680828  65.9932370  78.7293436
  11.3451516  66.0920057  77.7775320  11.6781465  66.8397521  79.0510603
  14.0268206  68.0508525  82.8440051  14.9811460  68.0192467  82.7769982
  13.8280730  67.5899149  83.6590277  14.6167588  66.6209641  85.4110849
  15.4360477  67.1153720  85.4345686  14.8904396  65.7041609  85.3828416
  24.3734185  59.0120393  74.7738804  23.4860040  59.2970044  74.5558999
  24.7888174  58.8514157  73.9266081  27.7248721  59.0366914  78.4893143
  28.5009111  59.5263367  78.7617760  26.9996855  59.4624968  78.9465013
  30.1621279  59.7494533  79.5467084  30.7565770  59.5090269  78.8360392
  30.2347863  59.0301664  80.1740620  12.3818435  73.5928144  79.8610249
  12.2472903  72.8328545  79.2948247  11.9650497  74.3169044  79.3939038
  23.5177398  68.7765068  68.8686824  24.2213248  68.9815070  69.4844480
  22.7940047  69.3441830  69.1335908  24.3475208  64.5274929  74.9889094
  24.2910410  64.9843481  74.1496727  24.9003551  63.7665614  74.8111937
  28.1580014  60.3164661  75.8139214  27.9016948  59.9161297  76.6447421
  27.5332882  61.0308455  75.6889353  32.4692352  63.0560734  78.3210505
  31.9091910  63.1253924  79.0942067  31.8635855  62.8801719  77.6010001
  15.5387561  74.4897461  80.0728691  15.4219945  75.4342894  79.9707382
  14.7180007  74.1871023  80.4614491  25.4264095  69.2147597  70.9185284
  26.2609699  68.7828796  70.7362759  25.2648438  69.0429611  71.8462179
  25.0809988  65.7179710  72.2841623  25.0258791  65.5523982  71.3430068
  24.4556043  66.4255743  72.4403813   9.8702503  60.9547775  86.1103046
  10.5161366  60.4446729  86.5990271   9.6619654  61.6916456  86.6846471
  22.3955895  68.0228622  91.6095186  23.2647054  68.1969275  91.2481821
  21.9162646  68.8423039  91.4870916  18.3906113  55.2187819  71.8626942
  18.3784783  56.1629659  72.0195213  19.2829535  55.0357965  71.5686403
  16.5642075  75.1425723  83.2884620  17.4669322  75.1749334  83.6051115
  16.3379445  74.2126174  83.3030956  18.3195677  73.8956710  79.9494698
  17.3691308  73.8958571  79.8359071  18.6228163  73.1489444  79.4330733
  22.2058232  51.8130596  76.1172879  21.4390628  51.2589083  76.2629561
  22.6168937  51.8852465  76.9787030  14.2099994  58.1015392  90.2078060
  15.0731455  57.7452197  90.4181384  13.6365404  57.7629287  90.8953464
  30.8638077  79.6844676  80.9501986  30.5256588  79.5685741  80.0622520
  31.7327845  79.2835841  80.9302992  26.7224892  81.5380153  76.9398877
  26.1589758  81.4470090  76.1715164  26.6077287  80.7180057  77.4201369
  31.3457860  80.8379528  86.9088191  31.3346501  80.4432326  86.0368695
  31.5078499  80.1045601  87.5021963  24.2689324  83.0331344  79.7783097
  25.0610616  82.6922169  79.3629396  24.5085975  83.1426319  80.6985250
  32.3024451  85.2051120  72.2513341  31.6512431  85.7905201  71.8647355
  33.0968814  85.7357315  72.3108379  26.2280078  82.2940258  72.6500476
  27.0010954  81.7469245  72.5113352  26.5805477  83.1584507  72.8614937
  28.0665121  83.6216640  85.8567375  27.7754987  84.5262271  85.7414041
  28.7022105  83.6633167  86.5711445  28.9921328  80.9993488  82.4468735
  29.5884900  80.7749511  81.7325698  29.0496299  80.2578234  83.0494183
  28.5646356  78.4532924  70.2818926  28.8171877  77.9314445  69.5202389
  27.6270915  78.2899069  70.3845609  33.7799716  82.8941552  72.7882326
  33.1445549  82.9676179  73.5003230  33.4497123  83.4835151  72.1101405
  28.2842645  80.3561030  72.4843301  28.1678903  79.6805933  73.1524385
  28.3944905  79.8693404  71.6675454  30.6274186  79.8171177  76.1889990
  30.2632393  79.2901798  76.9002911  31.4841302  79.4269646  76.0156475
  30.2679673  74.8461076  71.1851338  30.4354075  75.7141313  71.5521809
  30.0776842  75.0088358  70.2612628  33.0255006  83.3078055  82.8517169
  32.7255729  84.2103094  82.7432976  32.6806065  83.0410239  83.7038322
  26.4767487  79.7591852  78.8853873  25.5517984  79.6268066  79.0931565
  26.7251901  80.5386071  79.3823816  30.2468894  77.3018734  72.1698005
  30.1268519  77.7475785  73.0083486  29.5521482  77.6504052  71.6111543
  23.8376298  79.4025126  79.7197662  23.9668680  79.6559605  80.6337074
  23.1573750  79.9952834  79.4002317  28.0075786  90.0722376  75.8188136
  27.9299815  91.0230201  75.8976617  27.4037429  89.7268248  76.4763063
  30.4993016  77.2450241  88.4749503  29.7226350  77.8044161  88.4652368
  31.1383579  77.7307024  88.9964373  28.7539388  80.0535694  88.0367470
  29.4954072  80.5920738  87.7602294  28.0476373  80.6801983  88.1939022
  34.2294727  82.1964835  86.6339632  34.6378084  81.7547245  85.8894264
  33.5071989  81.6217462  86.8873825  30.5825798  77.1337442  84.0073189
  31.4286993  77.5576855  84.1507838  30.5224435  76.4771066  84.7011752
  34.5523542  82.7566026  80.3891921  33.9232405  82.9211740  79.6867989
  34.1649204  83.1707635  81.1602885  38.4312774  83.6920463  77.7436284
  37.7463812  84.0719365  77.1933318  38.5156623  84.3015790  78.4768232
  33.7325243  74.7941810  85.6654362  33.4886175  75.5483871  85.1288638
  34.0085173  75.1727158  86.5001609  35.6863706  81.3380422  84.3431628
  35.8980601  81.9812182  83.6666009  35.6393454  80.5042739  83.8753558
  30.1051504  82.4940434  77.6542006  30.5689850  82.7728137  76.8646628
  29.8408302  81.5923878  77.4715097  26.9975585  82.0411915  80.5921769
  27.5676942  82.4699184  79.9539254  27.5883697  81.7594500  81.2905955
  29.0420390  78.6163586  74.4631571  29.7444433  79.0684630  74.9305497
  28.7101019  77.9747405  75.0911464  27.4900752  77.2075343  88.8382780
  26.8599412  77.8891623  89.0718177  27.3836839  77.0958424  87.8935919
  22.7845724  76.8747139  79.7648705  21.9944778  77.1304667  79.2888815
  23.2756971  77.6895477  79.8700745  36.8009534  84.2152378  82.5153985
  37.6226977  83.8132565  82.2336667  36.7971936  84.1120612  83.4670101
  24.7360469  77.2391718  76.7232181  23.9391633  77.3510412  77.2415677
  24.5086062  77.5778370  75.8573072  30.5666137  83.7636421  84.6714696
  30.6310570  84.2256828  85.5072868  29.8577061  83.1333786  84.7997006
  21.0683427  77.1277629  82.1963695  21.3191465  78.0124639  82.4621271
  21.6042975  76.9482231  81.4238787  44.8915527  80.5591126  78.8638957
  44.1379235  79.9898524  78.7082961  45.0263068  80.5253791  79.8109592
  30.2814155  85.4304529  74.5393676  30.1459829  86.2756064  74.9678524
  30.8223967  85.6323806  73.7759610  23.7343552  82.9479967  75.1121601
  24.2468073  83.7423217  75.2627166  24.3866265  82.2506257  75.0455203
  25.5438437  86.0645723  77.1944354  25.7205065  86.9863688  77.0065338
  26.3395270  85.7504142  77.6238734  29.6849455  72.9253988  88.7928288
  30.4259169  73.5261141  88.7132750  29.9167378  72.1831625  88.2346331
  24.8290793  78.1110355  87.0706518  24.7144308  77.2095612  87.3713617
  23.9735311  78.3574052  86.7191334  31.9082631  86.0528095  88.6694018
  31.4646485  85.2664474  88.3514923  32.5699845  86.2407246  88.0037909
  26.6669752  87.5823897  83.1954697  27.2177177  87.4540960  82.4231691
  25.8281228  87.8818786  82.8449590  34.0063869  86.3330895  86.6975420
  33.9882344  87.1539776  86.2055689  34.9283789  86.2084970  86.9225561
  30.4636923  83.8475025  87.5398928  30.9965260  83.0863313  87.3098236
  29.9351004  83.5548676  88.2823082  21.6992469  81.2768621  75.8881172
  22.5367691  81.6865629  75.6714880  21.8770737  80.3368063  75.8581366
  33.5956901  78.9443702  71.5765005  33.0803524  79.7148306  71.8153392
  33.3234209  78.2708838  72.1998066  31.1804012  73.7893402  76.6350243
  30.3245608  73.4000253  76.4555882  31.5930964  73.8685363  75.7750029
  28.9546045  71.4078475  80.0407985  29.8199041  71.2121284  79.6813874
  29.0223553  71.1788827  80.9677341  38.5691175  81.6976056  73.5118178
  37.7920618  81.3587216  73.0673340  39.2482656  81.7028679  72.8373143
  33.3843204  76.8170794  73.4024786  33.0793340  77.1316943  74.2534929
  34.3373646  76.8952214  73.4452119  31.8289636  82.9761017  75.0517740
  31.3010998  82.2413777  74.7390977  31.3277139  83.7535693  74.8057708
  36.8082482  81.1710038  80.1684786  36.1506156  81.8609299  80.2564915
  37.6122881  81.5606469  80.5118773  26.5608364  73.6380683  77.4124351
  27.1352116  73.4155865  76.6797544  27.1479346  73.7069378  78.1652953
  26.8877951  75.6685144  71.4320237  26.0515263  76.0059831  71.7529511
  26.7482720  75.5334124  70.4947374  28.8631031  70.5121932  76.1399421
  28.2095444  70.1970949  75.5156036  28.8211505  69.8897673  76.8659244
  29.9742236  80.7941227  68.0552713  29.0669298  80.5630481  68.2543862
  30.4713268  79.9978847  68.2426695  32.8810315  89.5038734  70.9749399
  32.2072014  89.8070431  71.5834357  33.2676137  90.3067815  70.6254856
  32.0968772  77.0003866  80.4647068  31.1791333  77.2218813  80.3068757
  32.5128915  77.0750176  79.6058776  31.1530470  80.8953822  72.5776703
  30.2441689  80.6112855  72.6749173  31.1825553  81.3152901  71.7180010
  36.3849737  84.5060412  76.3467871  35.9312064  83.6651322  76.4033061
  35.7543704  85.1421810  76.6842651  34.8282676  86.3436908  77.2817689
  35.1205651  86.9041965  76.5630054  35.3381297  86.6365469  78.0370848
  21.7218640  78.6159336  76.5591905  21.5243040  78.0228697  75.8342972
  21.1665304  78.3111546  77.2767844  29.7015364  78.5082443  78.6786498
  29.7563973  77.5556279  78.6028975  28.8906566  78.6641882  79.1627797
  30.8506557  82.4362566  69.9164782  30.4125987  81.7198425  69.4570419
  31.5916998  82.6638681  69.3549873  27.6407724  77.1259503  76.4376877
  26.8275589  77.4253673  76.8442069  28.1366718  76.7315191  77.1551360
  29.7916301  87.1217259  78.3711142  29.7492480  87.3478106  77.4419674
  30.7079000  86.8880634  78.5196943  33.2381935  77.5901327  85.2691771
  33.5931323  77.8172800  86.1286237  33.8854066  77.9219704  84.6469026
  38.9679672  80.7119763  75.9741100  38.8297571  80.9021359  75.0462289
  38.6115891  81.4739146  76.4309151  27.1321798  74.6977858  82.0538112
  27.7721178  74.5566617  81.3561076  26.2999329  74.4112371  81.6776714
  38.9949052  82.7796290  80.9852372  39.4285558  82.6871579  81.8335426
  39.7080633  82.7553790  80.3472388  27.9082102  83.9980288  78.1673105
  28.7022701  83.5030609  77.9655680  27.1973795  83.4698152  77.8040810
  32.7276947  86.3798384  82.5185472  32.7813969  86.9489320  83.2863188
  31.8591728  86.5500269  82.1539509  24.2164866  78.1423370  74.2432857
  23.2862454  78.0807826  74.4602819  24.3122338  77.6199323  73.4469499
  24.1350415  74.6678183  76.8311099  24.3957232  75.5823516  76.7220259
  24.9567587  74.2002626  76.9807712  25.6075340  76.0815940  84.0009924
  26.2798394  75.8733302  83.3522572  24.7805127  75.8838026  83.5615156
  39.8564601  82.8219991  83.5185257  40.0500491  83.7265801  83.7644532
  39.7565220  82.3627410  84.3523842  31.5100912  72.7077881  86.0175584
  30.8628827  73.4067831  85.9240061  32.2801927  73.1414025  86.3851833
  34.9179710  82.9726733  89.0926138  34.7665216  82.7437285  88.1756221
  34.9084390  83.9297335  89.1057483  31.6865046  80.5458646  84.0772404
  32.6157106  80.6969806  83.9041371  31.2656076  80.6342667  83.2221051
  30.4853378  84.5709310  81.8470942  30.3464464  84.2028095  82.7196880
  29.6967974  85.0856950  81.6754900  31.0801530  89.6718407  73.1896478
  31.2553286  89.2006450  74.0042101  30.3934318  90.2984173  73.4177739
  32.0358593  83.9490913  79.2359780  31.7008426  83.9091683  80.1317429
  31.5362539  83.2835629  78.7630190  26.0102837  79.3558543  84.7612361
  25.8722635  78.6238782  85.3623900  26.9207761  79.2667443  84.4796548
  34.9717785  81.2946947  69.5096839  34.3546956  80.5693776  69.4129892
  34.5034273  82.0556308  69.1663913  28.6385138  79.0678502  84.2496040
  29.3484757  78.4271695  84.2082659  28.5954446  79.3191397  85.1722221
  36.6271917  86.0045856  87.1702620  36.5684463  85.3205076  86.5033203
  37.0291435  86.7464846  86.7183246  27.3514072  76.0543720  86.0691680
  26.8151429  75.6034459  86.7213276  26.7630780  76.1889629  85.3262144
  25.6462615  92.8207770  79.9636338  25.8859214  93.4526294  80.6415357
  24.8031812  92.4695810  80.2501698  26.7616331  75.5132372  68.6318143
  25.8845797  75.3921173  68.2680390  27.2374084  74.7218450  68.3797032
  36.6289324  83.9685440  85.4016599  35.7416103  83.6311362  85.5242998
  37.1987875  83.2368471  85.6385365  18.2818471  80.3009532  78.7259651
  18.9689511  79.9871262  78.1380666  18.1266600  81.2050896  78.4526902
  23.0853193  75.1899728  83.1544674  23.0011382  74.5825398  82.4195084
  22.2635900  75.6808746  83.1554171  30.1590477  88.6286892  82.3677842
  30.0860649  89.4341864  82.8797147  29.7167870  88.8278858  81.5425864
  29.9480257  87.8658662  75.8780664  29.1647779  88.4080342  75.9718889
  30.6473002  88.3832642  76.2774905  41.1106664  79.3793657  80.1633161
  41.0996541  80.2618373  79.7927094  40.2424044  79.0265208  79.9687698
  32.6189161  88.5273726  84.5236001  33.3317133  89.1621191  84.4511903
  32.1279190  88.6237592  83.7076003  34.3406688  82.4324979  76.0953293
  33.4062967  82.5526441  75.9257997  34.5183356  81.5297446  75.8313303
  29.8411876  75.8170675  78.2486554  29.4709663  75.2641715  78.9367460
  30.3370968  75.2128808  77.6961554  27.6701074  86.2768170  85.3441572
  28.3710534  86.9104653  85.4970966  27.1996189  86.6182901  84.5837211
  35.7955470  84.6186119  73.6289479  36.0715314  84.5042714  74.5383353
  34.9259969  84.2203604  73.5901652  35.4702360  78.8312777  83.1694122
  34.8173811  79.0788685  82.5146575  35.8482740  78.0176915  82.8356600
  32.4309534  88.8672470  77.2722293  32.6131929  88.0494126  77.7350045
  33.2542520  89.0840162  76.8347183  32.7651700  87.7940655  74.5337341
  33.2939466  87.2833110  73.9207503  33.0279919  87.4783186  75.3982874
  31.5189933  79.5732588  89.6560159  30.8430570  79.4726717  90.3262535
  32.3417567  79.4171802  90.1196157  23.2668792  85.8104525  82.2772675
  23.8522229  85.0648213  82.4100579  23.0693631  86.1208481  83.1609339
  26.1207448  88.8455772  77.2935117  25.4517823  89.3301900  76.8099157
  25.9820317  89.0924992  78.2078496  17.8586447  78.3810125  80.9977118
  17.8970547  77.8473716  81.7914236  17.3526740  77.8545330  80.3788095
  30.2612716  90.8799516  83.8917775  30.8131024  91.0431137  84.6566861
  30.6018910  91.4703953  83.2197800  25.2377209  73.2274665  84.4939660
  25.3018536  74.0889496  84.0817058  25.1744330  72.6148667  83.7612019
  24.7129482  75.2997798  88.1412694  25.3401521  74.9174875  88.7550219
  23.8557401  75.0812000  88.5068387  35.1123591  85.7060773  89.7466430
  35.6563495  86.3190731  89.2521385  34.5310435  86.2640351  90.2633443
  21.4895025  77.1074227  74.0731049  21.7848466  76.1984905  74.0198103
  20.5883061  77.0861966  73.7512051  33.3981104  88.8281491  80.8781458
  33.2732243  88.0271231  80.3692403  34.0560195  89.3227684  80.3895427
  25.0189272  75.1830224  80.0558598  24.2975858  75.7966191  79.9166071
  25.8082528  75.7187988  79.9775244  35.4616012  86.6290511  82.5061008
  34.5146347  86.5095862  82.4339334  35.8098785  85.7413009  82.5887269
  27.8215585  72.5184650  86.3299250  28.3449987  72.7646947  87.0925559
  27.6027919  73.3504685  85.9102387  23.2182866  74.7888325  74.1970374
  22.8895573  73.9085704  74.0145480  23.5722237  74.7335993  75.0846764
  32.4662445  86.4243227  78.7065360  32.3187408  85.4959935  78.8872930
  33.2915939  86.4463318  78.2222435  26.3324690  75.0761294  74.5645852
  26.6720762  75.6047216  73.8424460  26.7796810  75.4141701  75.3404419
  36.0696567  87.2471786  79.7930233  36.9943115  87.0414647  79.6554684
  35.9011870  86.9988187  80.7019574  29.0268130  73.4598345  84.0148920
  28.6864951  72.6606158  84.4169600  28.3207137  73.7600056  83.4425753
  29.6784602  70.5447658  82.4676243  30.5010671  70.0708136  82.3455133
  29.9222666  71.3238141  82.9674929  28.3192837  73.5735916  72.7639145
  29.0401199  73.9517169  72.2602862  27.6958141  74.2924793  72.8674123
  32.4623960  74.2781065  73.6997477  32.6787574  75.1605703  73.3986305
  31.9818027  73.8867278  72.9703119  27.2023181  77.2366778  80.2768222
  27.0567762  77.5507081  81.1692503  26.7248385  77.8551679  79.7239120
  29.0619564  74.2269326  80.3249111  29.0481133  73.3310420  79.9881409
  29.7791992  74.2339990  80.9587397  30.9145695  74.6606666  82.3702239
  30.6563472  75.5823737  82.3686569  30.3830735  74.2637101  83.0602703
  35.8591883  87.7657454  75.1492324  36.0328761  87.2003876  74.3966177
  36.3520775  88.5658348  74.9671814  21.6768843  79.7772123  83.2155883
  21.1322311  80.5531931  83.3476157  22.5548193  80.1242927  83.0575004
  28.4656460  73.1083707  75.5936681  28.5872371  72.1800353  75.7927569
  28.1758502  73.1222392  74.6814997  41.7131274  80.5293877  76.7682624
  42.1562420  79.7801202  76.3701747  40.8357785  80.5204013  76.3856356
  36.8467056  87.0824218  72.2489222  37.5417960  87.7030911  72.4676537
  37.1890206  86.2319569  72.5241600  22.4634865  78.9042019  86.1086040
  21.7216601  79.0524654  86.6950670  22.1427609  79.1650285  85.2452789
  38.7458479  84.5323924  73.7776553  39.2709803  84.8711196  73.0525873
  38.6580831  83.5970939  73.5939688  30.4078528  88.4457997  85.9066430
  30.7165654  88.2007144  86.7789129  31.2054010  88.6504636  85.4185300
  30.4299140  90.5995907  78.1371806  29.9904130  90.1072285  78.8304663
  31.1807257  90.0568874  77.8963882  22.9091479  86.7907448  78.1396434
  23.7349499  86.4911220  77.7595078  22.5585531  86.0215070  78.5886223
  27.8773012  86.1433916  80.2094108  27.2553021  85.4804621  79.9096336
  28.5477879  86.1695048  79.5267756  21.1100084  84.7093774  79.0985368
  20.2731992  84.2815948  78.9169369  21.0823729  84.9026217  80.0356159
  27.9497539  74.6215704  89.8026614  27.9985695  75.4977827  89.4204384
  28.4920053  74.0793097  89.2298257  38.4352385  85.1656827  89.0827751
  37.6447929  85.1480966  88.5432250  38.1985740  85.7045121  89.8376788
  38.5550260  82.0149294  86.3960480  38.6048265  81.8499301  87.3376002
  38.4464183  81.1476553  86.0058360  27.4386519  84.6937839  73.6852568
  27.5874639  85.3773304  73.0319241  28.2452962  84.6742929  74.2002024
  35.8454022  77.9980222  87.7119786  36.7463885  77.8586686  87.4203784
  35.9201997  78.1634676  88.6517964  30.1796828  75.3747076  86.5572973
  29.3100137  75.6680642  86.2855561  30.4156308  75.9587521  87.2780236
  40.0568457  84.4346235  86.6402501  39.7653265  84.7976216  87.4765962
  39.4440588  83.7213243  86.4615833  41.2564139  81.9999115  79.1605071
  42.0911031  82.4388919  79.3242632  41.3923268  81.5237768  78.3413317
  38.3055645  79.5578850  85.1082559  38.7809767  79.7506496  84.3001411
  37.3821210  79.6138035  84.8625943  25.1939152  80.7203017  74.6913637
  24.9485194  79.8165347  74.8893848  25.3635066  80.7220167  73.7493115
  24.4634799  76.4531374  72.1899799  23.7704044  76.5275729  71.5339835
  24.2186551  75.6891718  72.7121316  30.9381924  87.1885970  71.1564316
  30.3655891  87.8076157  70.7034788  31.5114718  87.7385331  71.6904238
  35.0271694  73.5200193  83.5270266  34.4321626  73.8005206  82.8316754
  34.7421390  74.0094094  84.2987007  34.1579184  87.4723120  72.2872898
  35.0909857  87.4068681  72.4905774  34.0702397  88.3079387  71.8287431
  36.7867201  86.7888990  69.2476846  36.7080832  86.4548854  70.1412604
  37.6076867  87.2810758  69.2468318  39.4845392  79.6550729  82.4553164
  39.4521712  78.7166730  82.6412848  40.0946016  79.7334766  81.7218989
  31.3228723  78.5246782  68.4980368  32.2687827  78.3952991  68.5668786
  30.9442968  77.7861444  68.9749797  45.3021942  80.7166736  81.5959201
  46.0325330  80.4552024  82.1566904  44.6928887  79.9795458  81.6361269
  43.3837239  78.8574599  82.1933652  42.6570402  78.7230564  81.5850144
  42.9684526  79.1651427  82.9990370  31.2067415  82.5764529  89.9581025
  32.1270425  82.7543128  90.1521072  31.1716998  81.6320574  89.8060725
  29.5071640  76.4496759  68.4335254  28.6003095  76.1529872  68.5097967
  29.7847621  76.1526577  67.5669540  20.4249580  77.7703122  78.8834300
  20.1052365  76.9168430  78.5908674  19.8783008  77.9851700  79.6392267
  24.2029488  80.4865563  82.6003807  24.4215498  81.4182671  82.6191840
  24.6155262  80.1273538  83.3858610  31.1233706  70.9933649  74.5879495
  30.3134434  70.6480733  74.9634741  31.8118123  70.6841192  75.1767106
  29.0757353  76.0598769  91.9906555  28.9754080  77.0093126  91.9218647
  28.8578895  75.7317008  91.1182626  28.2770425  73.3083694  68.5747233
  29.1389589  73.6338592  68.8343050  28.4620769  72.5215190  68.0620299
  20.2937840  81.3906034  80.8527422  19.6001312  80.9759986  80.3397376
  21.0410831  81.4326570  80.2560841  28.9388623  79.4895908  90.8071617
  28.4555705  80.2896268  91.0135506  29.0249562  79.5003853  89.8539061
  22.2074583  81.3224287  78.7293436  22.1845271  81.4211975  77.7775320
  22.5175219  82.1689438  79.0510603  24.8661961  83.3800443  82.8440051
  25.8205214  83.3484385  82.7769982  24.6674484  82.9191066  83.6590277
  25.4561343  81.9501559  85.4110849  26.2754232  82.4445637  85.4345686
  25.7298151  81.0333527  85.3828416  23.2212189  88.9220062  79.8610249
  23.0866657  88.1620463  79.2948247  22.8044252  89.6460962  79.3939038
  34.3571152  84.1056986  68.8686824  35.0607003  84.3106988  69.4844480
  33.6333801  84.6733747  69.1335908  26.3781315  89.8189379  80.0728691
  26.2613699  90.7634812  79.9707382  25.5573762  89.5162941  80.4614491
  36.2657850  84.5439515  70.9185284  37.1003454  84.1120713  70.7362759
  36.1042193  84.3721528  71.8462179  35.9203742  81.0471628  72.2841623
  35.8652546  80.8815899  71.3430068  35.2949797  81.7547661  72.4403813
  20.7096257  76.2839692  86.1103046  21.3555121  75.7738646  86.5990271
  20.5013408  77.0208374  86.6846471  33.2349649  83.3520540  91.6095186
  34.1040809  83.5261192  91.2481821  32.7556401  84.1714957  91.4870916
  29.2299868  70.5479737  71.8626942  29.2178537  71.4921577  72.0195213
  30.1223289  70.3649882  71.5686403  27.4035829  90.4717641  83.2884620
  28.3063076  90.5041251  83.6051115  27.1773200  89.5418092  83.3030956
  29.1589431  89.2248627  79.9494698  28.2085062  89.2250489  79.8359071
  29.4621918  88.4781362  79.4330733  25.0493748  73.4307309  90.2078060
  25.9125210  73.0744114  90.4181384  24.4759159  73.0921204  90.8953464
  44.8942125  95.0609166  81.0140461  45.5320535  94.9415913  80.3103801
  44.7762968  96.0090010  81.0728413  41.7031831  95.0136594  80.9501986
  41.3650343  94.8977659  80.0622520  42.5721599  94.6127759  80.9302992
  37.5618647  96.8672070  76.9398877  36.9983512  96.7762007  76.1715164
  37.4471042  96.0471975  77.4201369  42.1851614  96.1671446  86.9088191
  42.1740255  95.7724244  86.0368695  42.3472254  95.4337518  87.5021963
  35.1083079  98.3623262  79.7783097  35.9004371  98.0214087  79.3629396
  35.3479729  98.4718237  80.6985250  43.1418206 100.5343038  72.2513341
  42.4906185 101.1197118  71.8647355  43.9362568 101.0649233  72.3108379
  37.0673833  97.6232175  72.6500476  37.8404709  97.0761162  72.5113352
  37.4199232  98.4876425  72.8614937  38.9058875  98.9508557  85.8567375
  38.6148741  99.8554188  85.7414041  39.5415860  98.9925085  86.5711445
  39.8315082  96.3285406  82.4468735  40.4278654  96.1041428  81.7325698
  39.8890054  95.5870151  83.0494183  39.4040111  93.7824841  70.2818926
  39.6565631  93.2606363  69.5202389  38.4664670  93.6190987  70.3845609
  44.4483393  92.7860620  78.0893669  45.2346483  92.3680043  77.7384086
  44.7122098  93.6906712  78.2575317  44.6193471  98.2233470  72.7882326
  43.9839304  98.2968097  73.5003230  44.2890877  98.8127069  72.1101405
  49.8491821  92.7235853  78.9926647  50.5816993  92.1535070  79.2264477
  49.0931176  92.3357453  79.4333153  39.1236399  95.6852947  72.4843301
  39.0072657  95.0097851  73.1524385  39.2338659  95.1985321  71.6675454
  41.4667940  95.1463094  76.1889990  41.1026148  94.6193715  76.9002911
  42.3235056  94.7561563  76.0156475  47.3717241  86.4357427  83.4521256
  47.0400566  87.3052838  83.2282471  46.7762854  86.1193711  84.1315286
  41.1073427  90.1752994  71.1851338  41.2747830  91.0433231  71.5521809
  40.9170596  90.3380276  70.2612628  43.8648760  98.6369973  82.8517169
  43.5649484  99.5395012  82.7432976  43.5199820  98.3702156  83.7038322
  37.3161242  95.0883770  78.8853873  36.3911738  94.9559984  79.0931565
  37.5645655  95.8677989  79.3823816  47.2645904  91.1552513  80.5314606
  46.3562782  91.0867922  80.2373367  47.2133500  91.6324458  81.3596432
  41.0862648  92.6310652  72.1698005  40.9662273  93.0767702  73.0083486
  40.3915237  92.9795969  71.6111543  34.6770053  94.7317043  79.7197662
  34.8062434  94.9851522  80.6337074  33.9967504  95.3244751  79.4002317
  38.8469540 105.4014293  75.8188136  38.7693570 106.3522118  75.8976617
  38.2431184 105.0560166  76.4763063  41.3386770  92.5742159  88.4749503
  40.5620104  93.1336079  88.4652368  41.9777333  93.0598942  88.9964373
  49.1307551  89.3568952  82.3092480  48.4881931  89.6501485  81.6632275
  48.6262479  89.2421872  83.1145677  46.7847714  93.1032125  72.9978339
  47.6965570  93.3359512  72.8226037  46.2757361  93.6869169  72.4353418
  39.5933142  95.3827612  88.0367470  40.3347827  95.9212656  87.7602294
  38.8870128  96.0093901  88.1939022  45.0688482  97.5256753  86.6339632
  45.4771838  97.0839163  85.8894264  44.3465743  96.9509380  86.8873825
  41.4219552  92.4629359  84.0073189  42.2680747  92.8868773  84.1507838
  41.3618190  91.8062984  84.7011752  45.3917297  98.0857943  80.3891921
  44.7626159  98.2503657  79.6867989  45.0042959  98.4999553  81.1602885
  49.2706529  99.0212381  77.7436284  48.5857567  99.4011282  77.1933318
  49.3550378  99.6307708  78.4768232  44.5718997  90.1233728  85.6654362
  44.3279929  90.8775788  85.1288638  44.8478928  90.5019075  86.5001609
  46.5257460  96.6672340  84.3431628  46.7374355  97.3104100  83.6666009
  46.4787208  95.8334657  83.8753558  44.1283689  89.2790161  81.2468200
  43.2668168  89.5771414  81.5384938  44.1546124  89.4960560  80.3149233
  40.9445258  97.8232351  77.6542006  41.4083604  98.1020054  76.8646628
  40.6802057  96.9215796  77.4715097  37.8369340  97.3703833  80.5921769
  38.4070697  97.7991101  79.9539254  38.4277451  97.0886418  81.2905955
  39.8814145  93.9455504  74.4631571  40.5838188  94.3976547  74.9305497
  39.5494773  93.3039323  75.0911464  38.3294506  92.5367260  88.8382780
  37.6993167  93.2183541  89.0718177  38.2230594  92.4250342  87.8935919
  33.6239479  92.2039056  79.7648705  32.8338532  92.4596585  79.2888815
  34.1150726  93.0187394  79.8700745  47.6403288  99.5444296  82.5153985
  48.4620732  99.1424483  82.2336667  47.6365691  99.4412530  83.4670101
  35.5754224  92.5683636  76.7232181  34.7785387  92.6802330  77.2415677
  35.3479816  92.9070288  75.8573072  41.4059892  99.0928339  84.6714696
  41.4704324  99.5548746  85.5072868  40.6970815  98.4625704  84.7997006
  31.9077182  92.4569547  82.1963695  32.1585220  93.3416557  82.4621271
  32.4436730  92.2774148  81.4238787  41.1207909 100.7596446  74.5393676
  40.9853584 101.6047982  74.9678524  41.6617722 100.9615724  73.7759610
  37.6075249  86.8388026  91.2008031  37.2142194  86.2854225  91.8755676
  38.4241389  87.1498605  91.5914549  34.5737307  98.2771884  75.1121601
  35.0861827  99.0715135  75.2627166  35.2260019  97.5798175  75.0455203
  36.3832191 101.3937641  77.1944354  36.5598820 102.3155605  77.0065338
  37.1789025 101.0796060  77.6238734  40.5243210  88.2545905  88.7928288
  41.2652923  88.8553058  88.7132750  40.7561133  87.5123543  88.2346331
  35.6684548  93.4402273  87.0706518  35.5538063  92.5387530  87.3713617
  34.8129066  93.6865969  86.7191334  42.7476386 101.3820013  88.6694018
  42.3040240 100.5956391  88.3514923  43.4093599 101.5699163  88.0037909
  37.5063507 102.9115814  83.1954697  38.0570932 102.7832878  82.4231691
  36.6674983 103.2110703  82.8449590  44.8457624 101.6622813  86.6975420
  44.8276099 102.4831694  86.2055689  45.7677544 101.5376888  86.9225561
  41.3030678  99.1766942  87.5398928  41.8359015  98.4155230  87.3098236
  40.7744759  98.8840594  88.2823082  44.4700373  84.2827008  83.0692570
  44.1264642  85.1728650  82.9931680  44.8379335  84.0928666  82.2062155
  32.5386223  96.6060539  75.8881172  33.3761445  97.0157547  75.6714880
  32.7164491  95.6659981  75.8581366  44.4350655  94.2735619  71.5765005
  43.9197279  95.0440224  71.8153392  44.1627964  93.6000755  72.1998066
  42.0197767  89.1185320  76.6350243  41.1639363  88.7292170  76.4555882
  42.4324718  89.1977281  75.7750029  43.5496913  86.6531663  81.0341803
  43.0461709  86.6161799  80.2209608  43.8427520  87.5624406  81.0938460
  39.7939799  86.7370393  80.0407985  40.6592796  86.5413202  79.6813874
  39.8617308  86.5080745  80.9677341  49.4084930  97.0267974  73.5118178
  48.6314372  96.6879133  73.0673340  50.0876411  97.0320597  72.8373143
  44.2236959  92.1462711  73.4024786  43.9187094  92.4608861  74.2534929
  45.1767401  92.2244131  73.4452119  42.6683390  98.3052935  75.0517740
  42.1404752  97.5705694  74.7390977  42.1670893  99.0827611  74.8057708
  47.6476237  96.5001955  80.1684786  46.9899911  97.1901217  80.2564915
  48.4516636  96.8898387  80.5118773  37.4002118  88.9672601  77.4124351
  37.9745870  88.7447782  76.6797544  37.9873101  89.0361295  78.1652953
  46.4581695  94.8546328  78.2188728  46.9713577  95.4876320  78.7210438
  47.1082919  94.2547523  77.8532088  37.7271705  90.9977062  71.4320237
  36.8909017  91.3351749  71.7529511  37.5876475  90.8626042  70.4947374
  39.7024786  85.8413850  76.1399421  39.0489198  85.5262867  75.5156036
  39.6605260  85.2189590  76.8659244  40.8135991  96.1233145  68.0552713
  39.9063052  95.8922398  68.2543862  41.3107023  95.3270764  68.2426695
  43.7204070 104.8330652  70.9749399  43.0465768 105.1362349  71.5834357
  44.1069892 105.6359733  70.6254856  42.9362526  92.3295783  80.4647068
  42.0185088  92.5510730  80.3068757  43.3522670  92.4042094  79.6058776
  43.7197574  93.7287199  75.5949749  44.4669393  94.2408596  75.2856871
  43.9889163  93.4071252  76.4554142  41.9924224  96.2245740  72.5776703
  41.0835443  95.9404773  72.6749173  42.0219308  96.6444818  71.7180010
  47.2243492  99.8352329  76.3467871  46.7705819  98.9943239  76.4033061
  46.5937458 100.4713728  76.6842651  46.1676411  90.7644315  77.5768538
  45.4299168  90.2521702  77.9078781  46.4203185  90.3244697  76.7651815
  45.6676431 101.6728826  77.2817689  45.9599405 102.2333883  76.5630054
  46.1775051 101.9657387  78.0370848  46.2688038  83.5420567  78.1710307
  46.5746915  82.6817931  77.8836222  46.9940643  84.1338188  77.9709301
  32.5612394  93.9451254  76.5591905  32.3636794  93.3520615  75.8342972
  32.0059058  93.6403464  77.2767844  40.5409118  93.8374360  78.6786498
  40.5957728  92.8848197  78.6028975  39.7300320  93.9933800  79.1627797
  41.6900312  97.7654484  69.9164782  41.2519742  97.0490342  69.4570419
  42.4310753  97.9930598  69.3549873  38.4801478  92.4551420  76.4376877
  37.6669344  92.7545591  76.8442069  38.9760472  92.0607109  77.1551360
  40.6310056 102.4509177  78.3711142  40.5886235 102.6770023  77.4419674
  41.5472755 102.2172552  78.5196943  44.0775690  92.9193245  85.2691771
  44.4325077  93.1464718  86.1286237  44.7247821  93.2511621  84.6469026
  49.8073427  96.0411681  75.9741100  49.6691325  96.2313277  75.0462289
  49.4509646  96.8031063  76.4309151  37.9715553  90.0269776  82.0538112
  38.6114932  89.8858535  81.3561076  37.1393083  89.7404289  81.6776714
  49.8342806  98.1088208  80.9852372  50.2679313  98.0163497  81.8335426
  50.5474387  98.0845708  80.3472388  38.7475857  99.3272206  78.1673105
  39.5416455  98.8322526  77.9655680  38.0367549  98.7990069  77.8040810
  43.5670701 101.7090302  82.5185472  43.6207723 102.2781238  83.2863188
  42.6985483 101.8792187  82.1539509  35.0558620  93.4715288  74.2432857
  34.1256208  93.4099743  74.4602819  35.1516092  92.9491241  73.4469499
  34.9744169  89.9970101  76.8311099  35.2350987  90.9115434  76.7220259
  35.7961342  89.5294543  76.9807712  36.4469095  91.4107858  84.0009924
  37.1192148  91.2025220  83.3522572  35.6198881  91.2129944  83.5615156
  50.6958356  98.1511908  83.5185257  50.8894246  99.0557719  83.7644532
  50.5958974  97.6919327  84.3523842  42.3494667  88.0369799  86.0175584
  41.7022582  88.7359748  85.9240061  43.1195682  88.4705943  86.3851833
  45.7573465  98.3018651  89.0926138  45.6058971  98.0729203  88.1756221
  45.7478144  99.2589252  89.1057483  42.5258801  95.8750564  84.0772404
  43.4550861  96.0261723  83.9041371  42.1049831  95.9634584  83.2221051
  41.3247133  99.9001228  81.8470942  41.1858218  99.5320013  82.7196880
  40.5361729 100.4148868  81.6754900  41.9195285 105.0010325  73.1896478
  42.0947040 104.5298368  74.0042101  41.2328073 105.6276091  73.4177739
  42.8752348  99.2782831  79.2359780  42.5402180  99.2383601  80.1317429
  42.3756294  98.6127547  78.7630190  36.8496592  94.6850461  84.7612361
  36.7116390  93.9530700  85.3623900  37.7601515  94.5959361  84.4796548
  45.8111540  96.6238865  69.5096839  45.1940710  95.8985693  69.4129892
  45.3428028  97.3848225  69.1663913  39.4778892  94.3970420  84.2496040
  40.1878511  93.7563612  84.2082659  39.4348201  94.6483315  85.1722221
  47.4665671 101.3337774  87.1702620  47.4078217 100.6496994  86.5033203
  47.8685190 102.0756764  86.7183246  38.1907826  91.3835638  86.0691680
  37.6545183  90.9326377  86.7213276  37.6024535  91.5181547  85.3262144
  36.4856370 108.1499687  79.9636338  36.7252968 108.7818212  80.6415357
  35.6425566 107.7987727  80.2501698  37.6010085  90.8424289  68.6318143
  36.7239552  90.7213090  68.2680390  38.0767838  90.0510368  68.3797032
  47.4683078  99.2977357  85.4016599  46.5809857  98.9603279  85.5242998
  48.0381630  98.5660389  85.6385365  29.1212226  95.6301449  78.7259651
  29.8083265  95.3163179  78.1380666  28.9660354  96.5342814  78.4526902
  33.9246948  90.5191646  83.1544674  33.8405136  89.9117315  82.4195084
  33.1029654  91.0100664  83.1554171  40.9984232 103.9578810  82.3677842
  40.9254403 104.7633781  82.8797147  40.5561625 104.1570776  81.5425864
  40.7874011 103.1950580  75.8780664  40.0041533 103.7372260  75.9718889
  41.4866757 103.7124559  76.2774905  44.0970662  89.0045209  78.5214869
  44.5939361  88.2515172  78.2015940  43.3257643  89.0409526  77.9558079
  51.9500419  94.7085575  80.1633161  51.9390295  95.5910290  79.7927094
  51.0817798  94.3557126  79.9687698  43.4582915 103.8565644  84.5236001
  44.1710888 104.4913109  84.4511903  42.9672944 103.9529510  83.7076003
  45.1800442  97.7616897  76.0953293  44.2456721  97.8818359  75.9257997
  45.3577111  96.8589363  75.8313303  40.6805630  91.1462592  78.2486554
  40.3103418  90.5933633  78.9367460  41.1764723  90.5420726  77.6961554
  48.5672994  93.6034216  76.6303327  49.0333446  94.4362207  76.5563630
  49.0180494  93.1379197  77.3348585  38.5094829 101.6060087  85.3441572
  39.2104288 102.2396570  85.4970966  38.0389944 101.9474819  84.5837211
  46.6349225  99.9478037  73.6289479  46.9109069  99.8334632  74.5383353
  45.7653723  99.5495522  73.5901652  46.5389656  85.9714803  80.6694228
  45.6252736  86.2019030  80.8376435  46.9682758  86.0553247  81.5208261
  46.3096115  94.1604695  83.1694122  45.6567565  94.4080602  82.5146575
  46.6876495  93.3468833  82.8356600  43.2703289 104.1964388  77.2722293
  43.4525683 103.3786044  77.7350045  44.0936275 104.4132080  76.8347183
  43.6045454 103.1232573  74.5337341  44.1333221 102.6125028  73.9207503
  43.8673674 102.8075103  75.3982874  42.3583688  94.9024506  89.6560159
  41.6824325  94.8018635  90.3262535  43.1811322  94.7463720  90.1196157
  34.1062547 101.1396442  82.2772675  34.6915984 100.3940130  82.4100579
  33.9087385 101.4500399  83.1609339  36.9601202 104.1747690  77.2935117
  36.2911577 104.6593817  76.8099157  36.8214072 104.4216910  78.2078496
  28.6980202  93.7102043  80.9977118  28.7364301  93.1765633  81.7914236
  28.1920495  93.1837248  80.3788095  41.1006471 106.2091433  83.8917775
  41.6524779 106.3723055  84.6566861  41.4412664 106.7995871  83.2197800
  36.0770964  88.5566583  84.4939660  36.1412290  89.4181414  84.0817058
  36.0138084  87.9440585  83.7612019  35.5523237  90.6289716  88.1412694
  36.1795275  90.2466793  88.7550219  34.6951155  90.4103918  88.5068387
  45.9517345 101.0352691  89.7466430  46.4957249 101.6482649  89.2521385
  45.3704190 101.5932269  90.2633443  32.3288779  92.4366145  74.0731049
  32.6242220  91.5276823  74.0198103  31.4276815  92.4153884  73.7512051
  44.2374858 104.1573409  80.8781458  44.1125997 103.3563149  80.3692403
  44.8953949 104.6519602  80.3895427  35.8583026  90.5122141  80.0558598
  35.1369612  91.1258109  79.9166071  36.6476282  91.0479906  79.9775244
  46.3009766 101.9582429  82.5061008  45.3540102 101.8387780  82.4339334
  46.6492540 101.0704927  82.5887269  38.6609340  87.8476568  86.3299250
  39.1843742  88.0938864  87.0925559  38.4421673  88.6796603  85.9102387
  34.0576621  90.1180242  74.1970374  33.7289327  89.2377621  74.0145480
  34.4115992  90.0627911  75.0846764  43.3056200 101.7535145  78.7065360
  43.1581162 100.8251852  78.8872930  44.1309693 101.7755236  78.2222435
  37.1718444  90.4053212  74.5645852  37.5114517  90.9339133  73.8424460
  37.6190564  90.7433618  75.3404419  46.9090322 102.5763704  79.7930233
  47.8336869 102.3706565  79.6554684  46.7405625 102.3280105  80.7019574
  39.8661885  88.7890263  84.0148920  39.5258705  87.9898076  84.4169600
  39.1600891  89.0891974  83.4425753  40.5178357  85.8739575  82.4676243
  41.3404426  85.4000053  82.3455133  40.7616420  86.6530059  82.9674929
  39.1586591  88.9027834  72.7639145  39.8794954  89.2809087  72.2602862
  38.5351895  89.6216711  72.8674123  43.3017714  89.6072983  73.6997477
  43.5181328  90.4897621  73.3986305  42.8211781  89.2159196  72.9703119
  38.0416935  92.5658696  80.2768222  37.8961516  92.8798999  81.1692503
  37.5642139  93.1843596  79.7239120  39.9013318  89.5561244  80.3249111
  39.8874887  88.6602337  79.9881409  40.6185746  89.5631908  80.9587397
  41.7539449  89.9898584  82.3702239  41.4957227  90.9115655  82.3686569
  41.2224489  89.5929019  83.0602703  46.6985638 103.0949371  75.1492324
  46.8722515 102.5295794  74.3966177  47.1914529 103.8950266  74.9671814
  32.5162598  95.1064040  83.2155883  31.9716066  95.8823848  83.3476157
  33.3941947  95.4534845  83.0575004  39.3050214  88.4375624  75.5936681
  39.4266125  87.5092270  75.7927569  39.0152257  88.4514310  74.6814997
  42.1741405  86.1230535  78.7303401  42.1963101  86.1869868  77.7755381
  42.5909464  85.2835043  78.9243907  47.6860810 102.4116136  72.2489222
  48.3811715 103.0322828  72.4676537  48.0283960 101.5611487  72.5241600
  33.3028619  94.2333937  86.1086040  32.5610355  94.3816572  86.6950670
  32.9821364  94.4942202  85.2452789  49.5852233  99.8615841  73.7776553
  50.1103557 100.2003114  73.0525873  49.4974586  98.9262857  73.5939688
  41.2472282 103.7749915  85.9066430  41.5559409 103.5299062  86.7789129
  42.0447764 103.9796553  85.4185300  41.2692894 105.9287824  78.1371806
  40.8297884 105.4364203  78.8304663  42.0201011 105.3860792  77.8963882
  33.7485233 102.1199365  78.1396434  34.5743253 101.8203137  77.7595078
  33.3979285 101.3506988  78.5886223  38.7166766 101.4725834  80.2094108
  38.0946776 100.8096539  79.9096336  39.3871633 101.4986965  79.5267756
  31.9493838 100.0385692  79.0985368  31.1125746  99.6107866  78.9169369
  31.9217484 100.2318135  80.0356159  38.7891294  89.9507622  89.8026614
  38.8379449  90.8269744  89.4204384  39.3313808  89.4085015  89.2298257
  49.2746139 100.4948745  89.0827751  48.4841683 100.4772884  88.5432250
  49.0379494 101.0337039  89.8376788  49.3944014  97.3441211  86.3960480
  49.4442019  97.1791219  87.3376002  49.2857938  96.4768470  86.0058360
  38.2780273 100.0229757  73.6852568  38.4268394 100.7065221  73.0319241
  39.0846717 100.0034847  74.2002024  46.6847777  93.3272139  87.7119786
  47.5857640  93.1878604  87.4203784  46.7595751  93.4926594  88.6517964
  41.0190582  90.7038994  86.5572973  40.1493892  90.9972560  86.2855561
  41.2550063  91.2879439  87.2780236  50.8962211  99.7638153  86.6402501
  50.6047020 100.1268133  87.4765962  50.2834343  99.0505161  86.4615833
  52.0957894  97.3291033  79.1605071  52.9304785  97.7680837  79.3242632
  52.2317022  96.8529686  78.3413317  49.1449400  94.8870767  85.1082559
  49.6203521  95.0798414  84.3001411  48.2214965  94.9429953  84.8625943
  36.0332906  96.0494935  74.6913637  35.7878948  95.1457265  74.8893848
  36.2028821  96.0512085  73.7493115  43.7229616  86.9218611  84.0738393
  44.2411560  87.6579638  83.7484882  43.3684749  87.2282604  84.9085152
  35.3028554  91.7823292  72.1899799  34.6097799  91.8567647  71.5339835
  35.0580306  91.0183636  72.7121316  43.9742210  83.3418893  79.5939290
  44.2543964  82.6742083  80.2199716  44.7592817  83.5347989  79.0813953
  41.7775679 102.5177887  71.1564316  41.2049646 103.1368074  70.7034788
  42.3508472 103.0677249  71.6904238  47.8451069  91.7636527  83.3410865
  48.7968491  91.8634625  83.3623089  47.6754519  90.9714796  83.8508949
  45.8665448  88.8492111  83.5270266  45.2715380  89.1297123  82.8316754
  45.5815145  89.3386012  84.2987007  44.9972939 102.8015037  72.2872898
  45.9303612 102.7360599  72.4905774  44.9096151 103.6371304  71.8287431
  47.6260955 102.1180908  69.2476846  47.5474587 101.7840771  70.1412604
  48.4470622 102.6102676  69.2468318  50.3239146  94.9842647  82.4553164
  50.2915466  94.0458648  82.6412848  50.9339770  95.0626684  81.7218989
  42.1622477  93.8538700  68.4980368  43.1081582  93.7244908  68.5668786
  41.7836722  93.1153362  68.9749797  50.4733635  91.7753691  82.5011448
  49.9572683  90.9912147  82.3141376  51.3573583  91.4472407  82.6657967
  48.1344362  85.5194706  78.4607260  47.9369183  85.2109794  79.3450592
  48.7444067  86.2456345  78.5905190  56.1415696  96.0458654  81.5959201
  56.8719085  95.7843942  82.1566904  55.5322642  95.3087376  81.6361269
  54.2230993  94.1866517  82.1933652  53.4964157  94.0522481  81.5850144
  53.8078280  94.4943345  82.9990370  42.0461170  97.9056446  89.9581025
  42.9664179  98.0835045  90.1521072  42.0110753  96.9612492  89.8060725
  40.3465394  91.7788676  68.4335254  39.4396850  91.4821789  68.5097967
  40.6241375  91.4818495  67.5669540  31.2643335  93.0995040  78.8834300
  30.9446119  92.2460348  78.5908674  30.7176763  93.3143618  79.6392267
  35.0423242  95.8157481  82.6003807  35.2609252  96.7474589  82.6191840
  35.4549016  95.4565455  83.3858610  41.9627460  86.3225566  74.5879495
  41.1528188  85.9772651  74.9634741  42.6511877  86.0133110  75.1767106
  43.8918008  85.4003613  76.2103792  44.4449047  85.8199066  76.8693815
  44.1288095  84.4739361  76.2526748  39.9151108  91.3890687  91.9906555
  39.8147835  92.3385044  91.9218647  39.6972650  91.0608926  91.1182626
  39.1164179  88.6375612  68.5747233  39.9783343  88.9630510  68.8343050
  39.3014523  87.8507108  68.0620299  31.1331595  96.7197951  80.8527422
  30.4395066  96.3051904  80.3397376  31.8804586  96.7618488  80.2560841
  47.2696815  87.5104138  75.7182456  46.6895485  88.1688942  75.3360508
  47.0032748  86.6881483  75.3069873  45.7200382  86.9109196  77.9203776
  46.2200160  87.0225730  77.1118095  46.3635990  86.6070249  78.5604585
  39.7782378  94.8187825  90.8071617  39.2949459  95.6188186  91.0135506
  39.8643317  94.8295770  89.8539061  33.0468337  96.6516205  78.7293436
  33.0239025  96.7503892  77.7775320  33.3568974  97.4981356  79.0510603
  35.7055715  98.7092360  82.8440051  36.6598969  98.6776303  82.7769982
  35.5068239  98.2482984  83.6590277  36.2955097  97.2793476  85.4110849
  37.1147986  97.7737555  85.4345686  36.5691905  96.3625444  85.3828416
  46.0521693  89.6704229  74.7738804  45.1647549  89.9553879  74.5558999
  46.4675683  89.5097992  73.9266081  49.4036230  89.6950750  78.4893143
  50.1796620  90.1847202  78.7617760  48.6784364  90.1208804  78.9465013
  51.8408788  90.4078369  79.5467084  52.4353279  90.1674105  78.8360392
  51.9135372  89.6885499  80.1740620  34.0605944 104.2511980  79.8610249
  33.9260412 103.4912381  79.2948247  33.6438006 104.9752880  79.3939038
  45.1964907  99.4348903  68.8686824  45.9000757  99.6398906  69.4844480
  44.4727556 100.0025665  69.1335908  46.0262717  95.1858764  74.9889094
  45.9697919  95.6427316  74.1496727  46.5791060  94.4249449  74.8111937
  49.8367523  90.9748496  75.8139214  49.5804457  90.5745132  76.6447421
  49.2120391  91.6892290  75.6889353  54.1479861  93.7144570  78.3210505
  53.5879419  93.7837759  79.0942067  53.5423364  93.5385554  77.6010001
  37.2175070 105.1481297  80.0728691  37.1007454 106.0926729  79.9707382
  36.3967516 104.8454858  80.4614491  47.1051604  99.8731432  70.9185284
  47.9397208  99.4412631  70.7362759  46.9435947  99.7013446  71.8462179
  46.7597497  96.3763546  72.2841623  46.7046300  96.2107817  71.3430068
  46.1343552  97.0839579  72.4403813  31.5490012  91.6131610  86.1103046
  32.1948875  91.1030564  86.5990271  31.3407163  92.3500292  86.6846471
  44.0743404  98.6812458  91.6095186  44.9434563  98.8553110  91.2481821
  43.5950155  99.5006874  91.4870916  40.0693622  85.8771655  71.8626942
  40.0572292  86.8213495  72.0195213  40.9617044  85.6941800  71.5686403
  38.2429584 105.8009559  83.2884620  39.1456831 105.8333169  83.6051115
  38.0166954 104.8710010  83.3030956  39.9983186 104.5540545  79.9494698
  39.0478817 104.5542407  79.8359071  40.3015672 103.8073280  79.4330733
  43.8845741  82.4714431  76.1172879  43.1178137  81.9172918  76.2629561
  44.2956446  82.5436300  76.9787030  35.8887503  88.7599227  90.2078060
  36.7518964  88.4036032  90.4181384  35.3152913  88.4213122  90.8953464
  55.7335879 110.3901084  81.0140461  56.3714289 110.2707831  80.3103801
  55.6156722 111.3381927  81.0728413  52.5425586 110.3428512  80.9501986
  52.2044097 110.2269576  80.0622520  53.4115354 109.9419677  80.9302992
  48.4012401 112.1963988  76.9398877  47.8377267 112.1053925  76.1715164
  48.2864796 111.3763893  77.4201369  53.0245369 111.4963363  86.9088191
  53.0134009 111.1016162  86.0368695  53.1866008 110.7629436  87.5021963
  45.9476833 113.6915180  79.7783097  46.7398125 113.3506004  79.3629396
  46.1873484 113.8010155  80.6985250  53.9811960 115.8634956  72.2513341
  53.3299940 116.4489036  71.8647355  54.7756323 116.3941151  72.3108379
  47.9067587 112.9524093  72.6500476  48.6798463 112.4053080  72.5113352
  48.2592986 113.8168342  72.8614937  49.7452630 114.2800475  85.8567375
  49.4542496 115.1846106  85.7414041  50.3809614 114.3217003  86.5711445
  50.6708837 111.6577324  82.4468735  51.2672409 111.4333346  81.7325698
  50.7283808 110.9162069  83.0494183  50.2433865 109.1116759  70.2818926
  50.4959386 108.5898280  69.5202389  49.3058424 108.9482904  70.3845609
  55.2877148 108.1152537  78.0893669  56.0740237 107.6971961  77.7384086
  55.5515852 109.0198630  78.2575317  49.9630154 111.0144865  72.4843301
  49.8466412 110.3389768  73.1524385  50.0732414 110.5277239  71.6675454
  52.3061695 110.4755012  76.1889990  51.9419902 109.9485633  76.9002911
  53.1628811 110.0853481  76.0156475  58.2110995 101.7649345  83.4521256
  57.8794320 102.6344756  83.2282471  57.6156609 101.4485629  84.1315286
  51.9467182 105.5044912  71.1851338  52.1141584 106.3725148  71.5521809
  51.7564351 105.6672193  70.2612628  54.7042515 113.9661891  82.8517169
  54.4043238 114.8686929  82.7432976  54.3593574 113.6994074  83.7038322
  48.1554996 110.4175688  78.8853873  47.2305493 110.2851902  79.0931565
  48.4039410 111.1969907  79.3823816  58.1039659 106.4844431  80.5314606
  57.1956536 106.4159839  80.2373367  58.0527255 106.9616376  81.3596432
  51.9256403 107.9602569  72.1698005  51.8056028 108.4059620  73.0083486
  51.2308991 108.3087887  71.6111543  45.5163807 110.0608961  79.7197662
  45.6456189 110.3143440  80.6337074  44.8361259 110.6536669  79.4002317
  49.6863295 120.7306211  75.8188136  49.6087324 121.6814036  75.8976617
  49.0824938 120.3852084  76.4763063  52.1780525 107.9034076  88.4749503
  51.4013859 108.4627997  88.4652368  52.8171088 108.3890859  88.9964373
  57.6241469 108.4324042  72.9978339  58.5359325 108.6651429  72.8226037
  57.1151116 109.0161087  72.4353418  50.4326897 110.7119530  88.0367470
  51.1741581 111.2504574  87.7602294  49.7263882 111.3385819  88.1939022
  55.9082236 112.8548670  86.6339632  56.3165593 112.4131081  85.8894264
  55.1859498 112.2801298  86.8873825  52.2613307 107.7921277  84.0073189
  53.1074502 108.2160691  84.1507838  52.2011944 107.1354901  84.7011752
  56.2311051 113.4149861  80.3891921  55.6019914 113.5795575  79.6867989
  55.8436713 113.8291470  81.1602885  55.4112752 105.4525645  85.6654362
  55.1673684 106.2067706  85.1288638  55.6872682 105.8310993  86.5001609
  57.3651215 111.9964258  84.3431628  57.5768110 112.6396018  83.6666009
  57.3180963 111.1626574  83.8753558  54.9677444 104.6082078  81.2468200
  54.1061923 104.9063332  81.5384938  54.9939878 104.8252477  80.3149233
  51.7839013 113.1524269  77.6542006  52.2477359 113.4311972  76.8646628
  51.5195811 112.2507714  77.4715097  48.6763094 112.6995751  80.5921769
  49.2464451 113.1283019  79.9539254  49.2671206 112.4178335  81.2905955
  50.7207899 109.2747421  74.4631571  51.4231942 109.7268465  74.9305497
  50.3888528 108.6331240  75.0911464  49.1688261 107.8659178  88.8382780
  48.5386921 108.5475459  89.0718177  49.0624348 107.7542260  87.8935919
  44.4633233 107.5330974  79.7648705  43.6732287 107.7888503  79.2888815
  44.9544480 108.3479312  79.8700745  58.4797043 114.8736213  82.5153985
  59.3014486 114.4716400  82.2336667  58.4759445 114.7704447  83.4670101
  46.4147978 107.8975553  76.7232181  45.6179142 108.0094248  77.2415677
  46.1873571 108.2362205  75.8573072  52.2453646 114.4220256  84.6714696
  52.3098079 114.8840664  85.5072868  51.5364570 113.7917621  84.7997006
  42.7470936 107.7861464  82.1963695  42.9978974 108.6708474  82.4621271
  43.2830484 107.6066066  81.4238787  51.9601664 116.0888364  74.5393676
  51.8247338 116.9339900  74.9678524  52.5011476 116.2907642  73.7759610
  48.4469003 102.1679944  91.2008031  48.0535949 101.6146142  91.8755676
  49.2635144 102.4790522  91.5914549  45.4131061 113.6063802  75.1121601
  45.9255582 114.4007052  75.2627166  46.0653774 112.9090092  75.0455203
  47.2225946 116.7229558  77.1944354  47.3992574 117.6447523  77.0065338
  48.0182779 116.4087978  77.6238734  51.3636964 103.5837823  88.7928288
  52.1046678 104.1844976  88.7132750  51.5954887 102.8415461  88.2346331
  46.5078302 108.7694190  87.0706518  46.3931817 107.8679447  87.3713617
  45.6522820 109.0157887  86.7191334  53.5870140 116.7111930  88.6694018
  53.1433994 115.9248309  88.3514923  54.2487354 116.8991081  88.0037909
  48.3457261 118.2407732  83.1954697  48.8964686 118.1124795  82.4231691
  47.5068737 118.5402621  82.8449590  55.6851378 116.9914730  86.6975420
  55.6669853 117.8123611  86.2055689  56.6071298 116.8668806  86.9225561
  52.1424432 114.5058860  87.5398928  52.6752769 113.7447148  87.3098236
  51.6138513 114.2132512  88.2823082  55.3094127  99.6118926  83.0692570
  54.9658397 100.5020568  82.9931680  55.6773090  99.4220584  82.2062155
  43.3779978 111.9352456  75.8881172  44.2155200 112.3449465  75.6714880
  43.5558246 110.9951898  75.8581366  55.2744410 109.6027537  71.5765005
  54.7591033 110.3732142  71.8153392  55.0021718 108.9292673  72.1998066
  52.8591521 104.4477238  76.6350243  52.0033117 104.0584088  76.4555882
  53.2718473 104.5269199  75.7750029  54.3890668 101.9823581  81.0341803
  53.8855463 101.9453716  80.2209608  54.6821274 102.8916324  81.0938460
  50.6333554 102.0662311  80.0407985  51.4986550 101.8705119  79.6813874
  50.7011062 101.8372663  80.9677341  55.0630713 107.4754629  73.4024786
  54.7580849 107.7900778  74.2534929  56.0161155 107.5536049  73.4452119
  53.5077145 113.6344852  75.0517740  52.9798507 112.8997612  74.7390977
  53.0064648 114.4119529  74.8057708  58.4869991 111.8293873  80.1684786
  57.8293665 112.5193134  80.2564915  59.2910390 112.2190305  80.5118773
  48.2395873 104.2964519  77.4124351  48.8139624 104.0739700  76.6797544
  48.8266855 104.3653213  78.1652953  57.2975450 110.1838246  78.2188728
  57.8107332 110.8168237  78.7210438  57.9476674 109.5839441  77.8532088
  48.5665460 106.3268980  71.4320237  47.7302772 106.6643666  71.7529511
  48.4270229 106.1917959  70.4947374  50.5418540 101.1705768  76.1399421
  49.8882953 100.8554785  75.5156036  50.4999014 100.5481508  76.8659244
  51.6529745 111.4525063  68.0552713  50.7456807 111.2214316  68.2543862
  52.1500777 110.6562682  68.2426695  54.5597824 120.1622570  70.9749399
  53.8859523 120.4654267  71.5834357  54.9463646 120.9651650  70.6254856
  53.7756281 107.6587701  80.4647068  52.8578842 107.8802648  80.3068757
  54.1916424 107.7334012  79.6058776  54.5591328 109.0579117  75.5949749
  55.3063147 109.5700514  75.2856871  54.8282918 108.7363170  76.4554142
  52.8317979 111.5537658  72.5776703  51.9229198 111.2696690  72.6749173
  52.8613062 111.9736736  71.7180010  57.0070166 106.0936233  77.5768538
  56.2692922 105.5813619  77.9078781  57.2596939 105.6536615  76.7651815
  43.4006149 109.2743172  76.5591905  43.2030549 108.6812532  75.8342972
  42.8452813 108.9695382  77.2767844  51.3802873 109.1666278  78.6786498
  51.4351482 108.2140115  78.6028975  50.5694075 109.3225717  79.1627797
  52.5294066 113.0946401  69.9164782  52.0913496 112.3782260  69.4570419
  53.2704507 113.3222516  69.3549873  49.3195233 107.7843338  76.4376877
  48.5063098 108.0837508  76.8442069  49.8154227 107.3899027  77.1551360
  51.4703810 117.7801095  78.3711142  51.4279989 118.0061941  77.4419674
  52.3866509 117.5464469  78.5196943  54.9169444 108.2485162  85.2691771
  55.2718832 108.4756635  86.1286237  55.5641575 108.5803539  84.6469026
  48.8109307 105.3561693  82.0538112  49.4508687 105.2150452  81.3561076
  47.9786838 105.0696207  81.6776714  60.6736561 113.4380125  80.9852372
  61.1073067 113.3455414  81.8335426  61.3868141 113.4137626  80.3472388
  49.5869611 114.6564124  78.1673105  50.3810210 114.1614444  77.9655680
  48.8761304 114.1281987  77.8040810  54.4064456 117.0382219  82.5185472
  54.4601478 117.6073156  83.2863188  53.5379237 117.2084104  82.1539509
  45.8952375 108.8007206  74.2432857  44.9649963 108.7391661  74.4602819
  45.9909847 108.2783158  73.4469499  45.8137924 105.3262018  76.8311099
  46.0744741 106.2407352  76.7220259  46.6355096 104.8586461  76.9807712
  47.2862849 106.7399776  84.0009924  47.9585902 106.5317138  83.3522572
  46.4592636 106.5421862  83.5615156  61.5352110 113.4803826  83.5185257
  61.7288000 114.3849636  83.7644532  61.4352729 113.0211245  84.3523842
  53.1888421 103.3661716  86.0175584  52.5416336 104.0651666  85.9240061
  53.9589436 103.7997860  86.3851833  56.5967219 113.6310569  89.0926138
  56.4452725 113.4021120  88.1756221  56.5871898 114.5881170  89.1057483
  53.3652555 111.2042481  84.0772404  54.2944615 111.3553641  83.9041371
  52.9443585 111.2926502  83.2221051  52.1640887 115.2293146  81.8470942
  52.0251973 114.8611930  82.7196880  51.3755483 115.7440785  81.6754900
  52.7589039 120.3302242  73.1896478  52.9340795 119.8590285  74.0042101
  52.0721827 120.9568008  73.4177739  53.7146102 114.6074748  79.2359780
  53.3795935 114.5675518  80.1317429  53.2150048 113.9419464  78.7630190
  47.6890346 110.0142379  84.7612361  47.5510144 109.2822617  85.3623900
  48.5995270 109.9251279  84.4796548  50.3172647 109.7262338  84.2496040
  51.0272266 109.0855530  84.2082659  50.2741955 109.9775233  85.1722221
  58.3059426 116.6629691  87.1702620  58.2471972 115.9788911  86.5033203
  58.7078944 117.4048681  86.7183246  49.0301581 106.7127556  86.0691680
  48.4938938 106.2618294  86.7213276  48.4418289 106.8473465  85.3262144
  47.3250124 123.4791605  79.9636338  47.5646723 124.1110129  80.6415357
  46.4819321 123.1279645  80.2501698  48.4403840 106.1716207  68.6318143
  47.5633306 106.0505008  68.2680390  48.9161593 105.3802285  68.3797032
  58.3076833 114.6269275  85.4016599  57.4203612 114.2895197  85.5242998
  58.8775384 113.8952306  85.6385365  39.9605980 110.9593367  78.7259651
  40.6477020 110.6455097  78.1380666  39.8054109 111.8634732  78.4526902
  44.7640702 105.8483563  83.1544674  44.6798891 105.2409233  82.4195084
  43.9423409 106.3392582  83.1554171  51.8377986 119.2870727  82.3677842
  51.7648158 120.0925699  82.8797147  51.3955379 119.4862693  81.5425864
  51.6267766 118.5242497  75.8780664  50.8435288 119.0664178  75.9718889
  52.3260511 119.0416477  76.2774905  54.9364416 104.3337127  78.5214869
  55.4333116 103.5807089  78.2015940  54.1651398 104.3701444  77.9558079
  54.2976670 119.1857561  84.5236001  55.0104642 119.8205026  84.4511903
  53.8066698 119.2821427  83.7076003  56.0194197 113.0908814  76.0953293
  55.0850475 113.2110277  75.9257997  56.1970865 112.1881281  75.8313303
  51.5199385 106.4754510  78.2486554  51.1497172 105.9225550  78.9367460
  52.0158477 105.8712643  77.6961554  59.4066748 108.9326133  76.6303327
  59.8727200 109.7654125  76.5563630  59.8574249 108.4671115  77.3348585
  49.3488583 116.9352005  85.3441572  50.0498043 117.5688488  85.4970966
  48.8783698 117.2766737  84.5837211  57.1489869 109.4896612  83.1694122
  56.4961320 109.7372520  82.5146575  57.5270249 108.6760751  82.8356600
  54.1097043 119.5256306  77.2722293  54.2919438 118.7077962  77.7350045
  54.9330029 119.7423998  76.8347183  54.4439209 118.4524491  74.5337341
  54.9726975 117.9416945  73.9207503  54.7067428 118.1367021  75.3982874
  53.1977442 110.2316423  89.6560159  52.5218079 110.1310553  90.3262535
  54.0205076 110.0755637  90.1196157  44.9456301 116.4688360  82.2772675
  45.5309738 115.7232048  82.4100579  44.7481140 116.7792317  83.1609339
  47.7994957 119.5039607  77.2935117  47.1305332 119.9885735  76.8099157
  47.6607826 119.7508828  78.2078496  39.5373956 109.0393960  80.9977118
  39.5758056 108.5057551  81.7914236  39.0314249 108.5129166  80.3788095
  51.9400225 121.5383351  83.8917775  52.4918533 121.7014972  84.6566861
  52.2806419 122.1287789  83.2197800  46.9164718 103.8858501  84.4939660
  46.9806045 104.7473332  84.0817058  46.8531839 103.2732502  83.7612019
  46.3916991 105.9581633  88.1412694  47.0189030 105.5758711  88.7550219
  45.5344910 105.7395835  88.5068387  56.7911100 116.3644608  89.7466430
  57.3351004 116.9774567  89.2521385  56.2097944 116.9224187  90.2633443
  43.1682534 107.7658062  74.0731049  43.4635975 106.8568741  74.0198103
  42.2670570 107.7445802  73.7512051  55.0768613 119.4865326  80.8781458
  54.9519752 118.6855066  80.3692403  55.7347704 119.9811520  80.3895427
  46.6976781 105.8414059  80.0558598  45.9763367 106.4550027  79.9166071
  47.4870037 106.3771824  79.9775244  57.1403521 117.2874347  82.5061008
  56.1933856 117.1679698  82.4339334  57.4886294 116.3996845  82.5887269
  49.5003094 103.1768485  86.3299250  50.0237496 103.4230782  87.0925559
  49.2815428 104.0088520  85.9102387  44.8970375 105.4472160  74.1970374
  44.5683082 104.5669539  74.0145480  45.2509746 105.3919829  75.0846764
  54.1449954 117.0827063  78.7065360  53.9974917 116.1543770  78.8872930
  54.9703448 117.1047153  78.2222435  48.0112199 105.7345130  74.5645852
  48.3508271 106.2631051  73.8424460  48.4584319 106.0725536  75.3404419
  57.7484076 117.9055621  79.7930233  58.6730624 117.6998483  79.6554684
  57.5799379 117.6572023  80.7019574  50.7055639 104.1182181  84.0148920
  50.3652460 103.3189994  84.4169600  49.9994646 104.4183891  83.4425753
  51.3572111 101.2031493  82.4676243  52.1798180 100.7291971  82.3455133
  51.6010175 101.9821977  82.9674929  49.9980346 104.2319751  72.7639145
  50.7188708 104.6101004  72.2602862  49.3745650 104.9508628  72.8674123
  54.1411469 104.9364900  73.6997477  54.3575083 105.8189538  73.3986305
  53.6605536 104.5451114  72.9703119  48.8810690 107.8950614  80.2768222
  48.7355271 108.2090917  81.1692503  48.4035894 108.5135514  79.7239120
  50.7407073 104.8853162  80.3249111  50.7268642 103.9894255  79.9881409
  51.4579501 104.8923825  80.9587397  52.5933204 105.3190502  82.3702239
  52.3350981 106.2407572  82.3686569  52.0618244 104.9220936  83.0602703
  43.3556352 110.4355958  83.2155883  42.8109820 111.2115766  83.3476157
  44.2335702 110.7826762  83.0575004  50.1443969 103.7667542  75.5936681
  50.2659880 102.8384188  75.7927569  49.8546011 103.7806228  74.6814997
  53.0135159 101.4522452  78.7303401  53.0356856 101.5161785  77.7755381
  53.4303218 100.6126961  78.9243907  44.1422374 109.5625854  86.1086040
  43.4004110 109.7108490  86.6950670  43.8215118 109.8234120  85.2452789
  52.0866037 119.1041833  85.9066430  52.3953163 118.8590979  86.7789129
  52.8841519 119.3088471  85.4185300  52.1086649 121.2579742  78.1371806
  51.6691639 120.7656121  78.8304663  52.8594766 120.7152710  77.8963882
  44.5878988 117.4491283  78.1396434  45.4137008 117.1495055  77.7595078
  44.2373040 116.6798905  78.5886223  49.5560521 116.8017751  80.2094108
  48.9340530 116.1388456  79.9096336  50.2265388 116.8278883  79.5267756
  42.7887593 115.3677609  79.0985368  41.9519501 114.9399784  78.9169369
  42.7611238 115.5610053  80.0356159  49.6285048 105.2799539  89.8026614
  49.6773204 106.1561662  89.4204384  50.1707562 104.7376932  89.2298257
  60.1139894 115.8240663  89.0827751  59.3235438 115.8064801  88.5432250
  59.8773249 116.3628956  89.8376788  60.2337769 112.6733129  86.3960480
  60.2835774 112.5083136  87.3376002  60.1251692 111.8060388  86.0058360
  49.1174028 115.3521675  73.6852568  49.2662148 116.0357139  73.0319241
  49.9240471 115.3326765  74.2002024  57.5241531 108.6564057  87.7119786
  58.4251394 108.5170522  87.4203784  57.5989506 108.8218512  88.6517964
  51.8584337 106.0330912  86.5572973  50.9887646 106.3264478  86.2855561
  52.0943817 106.6171357  87.2780236  61.7355966 115.0930070  86.6402501
  61.4440774 115.4560051  87.4765962  61.1228097 114.3797079  86.4615833
  59.9843154 110.2162685  85.1082559  60.4597276 110.4090331  84.3001411
  59.0608719 110.2721871  84.8625943  46.8726661 111.3786852  74.6913637
  46.6272703 110.4749182  74.8893848  47.0422575 111.3804003  73.7493115
  54.5623371 102.2510529  84.0738393  55.0805314 102.9871556  83.7484882
  54.2078503 102.5574522  84.9085152  46.1422308 107.1115210  72.1899799
  45.4491553 107.1859565  71.5339835  45.8974060 106.3475553  72.7121316
  52.6169433 117.8469805  71.1564316  52.0443400 118.4659992  70.7034788
  53.1902227 118.3969167  71.6904238  58.6844823 107.0928445  83.3410865
  59.6362246 107.1926543  83.3623089  58.5148273 106.3006714  83.8508949
  56.7059203 104.1784028  83.5270266  56.1109135 104.4589041  82.8316754
  56.4208899 104.6677929  84.2987007  55.8366693 118.1306955  72.2872898
  56.7697366 118.0652517  72.4905774  55.7489906 118.9663222  71.8287431
  61.1632901 110.3134565  82.4553164  61.1309221 109.3750566  82.6412848
  61.7733524 110.3918602  81.7218989  53.0016232 109.1830618  68.4980368
  53.9475336 109.0536826  68.5668786  52.6230477 108.4445280  68.9749797
  66.9809451 111.3750572  81.5959201  67.7112839 111.1135860  82.1566904
  66.3716396 110.6379294  81.6361269  65.0624748 109.5158434  82.1933652
  64.3357911 109.3814399  81.5850144  64.6472035 109.8235263  82.9990370
  52.8854924 113.2348364  89.9581025  53.8057934 113.4126963  90.1521072
  52.8504507 112.2904409  89.8060725  51.1859149 107.1080594  68.4335254
  50.2790604 106.8113707  68.5097967  51.4635130 106.8110412  67.5669540
  42.1037089 108.4286958  78.8834300  41.7839874 107.5752266  78.5908674
  41.5570517 108.6435536  79.6392267  45.8816997 111.1449399  82.6003807
  46.1003007 112.0766506  82.6191840  46.2942771 110.7857373  83.3858610
  52.8021215 101.6517484  74.5879495  51.9921943 101.3064569  74.9634741
  53.4905632 101.3425028  75.1767106  50.7544862 106.7182604  91.9906555
  50.6541589 107.6676961  91.9218647  50.5366404 106.3900843  91.1182626
  49.9557933 103.9667529  68.5747233  50.8177097 104.2922428  68.8343050
  50.1408278 103.1799025  68.0620299  41.9725349 112.0489869  80.8527422
  41.2788821 111.6343822  80.3397376  42.7198340 112.0910406  80.2560841
  50.6176132 110.1479743  90.8071617  50.1343214 110.9480103  91.0135506
  50.7037071 110.1587688  89.8539061  43.8862092 111.9808123  78.7293436
  43.8632780 112.0795810  77.7775320  44.1962728 112.8273274  79.0510603
  46.5449470 114.0384278  82.8440051  47.4992723 114.0068220  82.7769982
  46.3461993 113.5774902  83.6590277  47.1348852 112.6085394  85.4110849
  47.9541741 113.1029473  85.4345686  47.4085659 111.6917362  85.3828416
  56.8915448 104.9996146  74.7738804  56.0041303 105.2845797  74.5558999
  57.3069437 104.8389910  73.9266081  44.8999698 119.5803897  79.8610249
  44.7654166 118.8204298  79.2948247  44.4831761 120.3044797  79.3939038
  56.0358661 114.7640821  68.8686824  56.7394512 114.9690823  69.4844480
  55.3121310 115.3317583  69.1335908  56.8656472 110.5150682  74.9889094
  56.8091673 110.9719234  74.1496727  57.4184814 109.7541367  74.8111937
  48.0568824 120.4773214  80.0728691  47.9401208 121.4218647  79.9707382
  47.2361271 120.1746776  80.4614491  42.3883766 106.9423528  86.1103046
  43.0342630 106.4322482  86.5990271  42.1800917 107.6792209  86.6846471
  54.9137158 114.0104375  91.6095186  55.7828318 114.1845028  91.2481821
  54.4343910 114.8298792  91.4870916  50.9087377 101.2063572  71.8626942
  50.8966046 102.1505412  72.0195213  51.8010798 101.0233718  71.5686403
  49.0823338 121.1301476  83.2884620  49.9850585 121.1625087  83.6051115
  48.8560709 120.2001927  83.3030956  50.8376940 119.8832463  79.9494698
  49.8872571 119.8834324  79.8359071  51.1409427 119.1365197  79.4330733
  46.7281257 104.0891145  90.2078060  47.5912719 103.7327950  90.4181384
  46.1546668 103.7505040  90.8953464  66.5729634 125.7193001  81.0140461
  67.2108044 125.5999749  80.3103801  66.4550477 126.6673845  81.0728413
  63.3819340 125.6720429  80.9501986  63.0437852 125.5561494  80.0622520
  64.2509108 125.2711594  80.9302992  59.2406156 127.5255906  76.9398877
  58.6771021 127.4345843  76.1715164  59.1258551 126.7055810  77.4201369
  63.8639123 126.8255281  86.9088191  63.8527764 126.4308079  86.0368695
  64.0259763 126.0921354  87.5021963  56.7870588 129.0207097  79.7783097
  57.5791880 128.6797922  79.3629396  57.0267238 129.1302072  80.6985250
  64.8205715 131.1926873  72.2513341  64.1693694 131.7780954  71.8647355
  65.6150077 131.7233068  72.3108379  58.7461342 128.2816011  72.6500476
  59.5192218 127.7344998  72.5113352  59.0986741 129.1460260  72.8614937
  60.5846384 129.6092393  85.8567375  60.2936250 130.5138024  85.7414041
  61.2203369 129.6508920  86.5711445  61.5102591 126.9869241  82.4468735
  62.1066163 126.7625264  81.7325698  61.5677563 126.2453987  83.0494183
  61.0827620 124.4408677  70.2818926  61.3353140 123.9190198  69.5202389
  60.1452179 124.2774822  70.3845609  66.1270902 123.4444455  78.0893669
  66.9133992 123.0263878  77.7384086  66.3909607 124.3490547  78.2575317
  66.2980980 128.8817305  72.7882326  65.6626813 128.9551932  73.5003230
  65.9678386 129.4710904  72.1101405  71.5279330 123.3819688  78.9926647
  72.2604502 122.8118905  79.2264477  70.7718685 122.9941289  79.4333153
  60.8023908 126.3436783  72.4843301  60.6860166 125.6681686  73.1524385
  60.9126168 125.8569157  71.6675454  63.1455449 125.8046930  76.1889990
  62.7813657 125.2777551  76.9002911  64.0022565 125.4145399  76.0156475
  69.0504750 117.0941262  83.4521256  68.7188075 117.9636673  83.2282471
  68.4550363 116.7777546  84.1315286  62.7860936 120.8336829  71.1851338
  62.9535339 121.7017066  71.5521809  62.5958105 120.9964111  70.2612628
  65.5436269 129.2953808  82.8517169  65.2436993 130.1978847  82.7432976
  65.1987329 129.0285992  83.7038322  58.9948751 125.7467605  78.8853873
  58.0699247 125.6143819  79.0931565  59.2433164 126.5261824  79.3823816
  68.9433413 121.8136349  80.5314606  68.0350291 121.7451757  80.2373367
  68.8921009 122.2908293  81.3596432  62.7650157 123.2894487  72.1698005
  62.6449782 123.7351538  73.0083486  62.0702746 123.6379805  71.6111543
  56.3557562 125.3900879  79.7197662  56.4849943 125.6435358  80.6337074
  55.6755013 125.9828587  79.4002317  60.5257049 136.0598129  75.8188136
  60.4481079 137.0105954  75.8976617  59.9218693 135.7144001  76.4763063
  63.0174279 123.2325994  88.4749503  62.2407613 123.7919914  88.4652368
  63.6564842 123.7182777  88.9964373  70.8095060 120.0152787  82.3092480
  70.1669440 120.3085320  81.6632275  70.3049988 119.9005707  83.1145677
  68.4635223 123.7615960  72.9978339  69.3753079 123.9943347  72.8226037
  67.9544870 124.3453004  72.4353418  61.2720651 126.0411447  88.0367470
  62.0135336 126.5796491  87.7602294  60.5657637 126.6677736  88.1939022
  66.7475991 128.1840588  86.6339632  67.1559347 127.7422998  85.8894264
  66.0253252 127.6093215  86.8873825  63.1007061 123.1213195  84.0073189
  63.9468256 123.5452608  84.1507838  63.0405699 122.4646819  84.7011752
  67.0704806 128.7441779  80.3891921  66.4413668 128.9087493  79.6867989
  66.6830468 129.1583388  81.1602885  70.9494038 129.6796216  77.7436284
  70.2645076 130.0595118  77.1933318  71.0337887 130.2891543  78.4768232
  66.2506506 120.7817563  85.6654362  66.0067438 121.5359624  85.1288638
  66.5266437 121.1602911  86.5001609  68.2044969 127.3256175  84.3431628
  68.4161864 127.9687935  83.6666009  68.1574717 126.4918492  83.8753558
  65.8071198 119.9373996  81.2468200  64.9455677 120.2355250  81.5384938
  65.8333633 120.1544395  80.3149233  62.6232767 128.4816187  77.6542006
  63.0871113 128.7603890  76.8646628  62.3589566 127.5799631  77.4715097
  59.5156849 128.0287668  80.5921769  60.0858206 128.4574937  79.9539254
  60.1064960 127.7470253  81.2905955  61.5601654 124.6039339  74.4631571
  62.2625697 125.0560383  74.9305497  61.2282282 123.9623158  75.0911464
  60.0082015 123.1951096  88.8382780  59.3780676 123.8767377  89.0718177
  59.9018103 123.0834177  87.8935919  55.3026987 122.8622892  79.7648705
  54.5126041 123.1180420  79.2888815  55.7938235 123.6771230  79.8700745
  69.3190797 130.2028131  82.5153985  70.1408241 129.8008318  82.2336667
  69.3153200 130.0996365  83.4670101  57.2541733 123.2267471  76.7232181
  56.4572896 123.3386165  77.2415677  57.0267325 123.5654123  75.8573072
  63.0847400 129.7512174  84.6714696  63.1491833 130.2132581  85.5072868
  62.3758324 129.1209539  84.7997006  53.5864690 123.1153382  82.1963695
  53.8372729 124.0000392  82.4621271  54.1224239 122.9357984  81.4238787
  77.4096790 126.5466879  78.8638957  76.6560498 125.9774277  78.7082961
  77.5444331 126.5129544  79.8109592  62.7995418 131.4180282  74.5393676
  62.6641093 132.2631817  74.9678524  63.3405231 131.6199559  73.7759610
  59.2862758 117.4971862  91.2008031  58.8929703 116.9438060  91.8755676
  60.1028898 117.8082440  91.5914549  56.2524816 128.9355720  75.1121601
  56.7649336 129.7298970  75.2627166  56.9047528 128.2382010  75.0455203
  58.0619700 132.0521476  77.1944354  58.2386329 132.9739441  77.0065338
  58.8576534 131.7379895  77.6238734  62.2030719 118.9129741  88.7928288
  62.9440432 119.5136894  88.7132750  62.4348642 118.1707378  88.2346331
  57.3472057 124.0986108  87.0706518  57.2325572 123.1971365  87.3713617
  56.4916575 124.3449805  86.7191334  64.4263895 132.0403848  88.6694018
  63.9827749 131.2540227  88.3514923  65.0881108 132.2282999  88.0037909
  59.1851016 133.5699650  83.1954697  59.7358441 133.4416713  82.4231691
  58.3462492 133.8694539  82.8449590  66.5245133 132.3206648  86.6975420
  66.5063608 133.1415529  86.2055689  67.4465053 132.1960723  86.9225561
  62.9818187 129.8350778  87.5398928  63.5146524 129.0739066  87.3098236
  62.4532268 129.5424429  88.2823082  66.1487882 114.9410844  83.0692570
  65.8052151 115.8312485  82.9931680  66.5166844 114.7512501  82.2062155
  54.2173732 127.2644374  75.8881172  55.0548954 127.6741382  75.6714880
  54.3952000 126.3243816  75.8581366  66.1138164 124.9319455  71.5765005
  65.5984788 125.7024059  71.8153392  65.8415473 124.2584591  72.1998066
  65.2284422 117.3115499  81.0341803  64.7249218 117.2745634  80.2209608
  65.5215029 118.2208241  81.0938460  61.4727308 117.3954228  80.0407985
  62.3380305 117.1997037  79.6813874  61.5404817 117.1664580  80.9677341
  71.0872439 127.6851809  73.5118178  70.3101881 127.3462969  73.0673340
  71.7663920 127.6904432  72.8373143  65.9024468 122.8046547  73.4024786
  65.5974603 123.1192696  74.2534929  66.8554910 122.8827967  73.4452119
  64.3470899 128.9636770  75.0517740  63.8192261 128.2289530  74.7390977
  63.8458402 129.7411446  74.8057708  69.3263745 127.1585791  80.1684786
  68.6687420 127.8485052  80.2564915  70.1304145 127.5482222  80.5118773
  68.1369204 125.5130163  78.2188728  68.6501086 126.1460155  78.7210438
  68.7870428 124.9131359  77.8532088  59.4059214 121.6560897  71.4320237
  58.5696526 121.9935584  71.7529511  59.2663984 121.5209877  70.4947374
  62.4923500 126.7816980  68.0552713  61.5850561 126.5506234  68.2543862
  62.9894532 125.9854600  68.2426695  65.3991579 135.4914488  70.9749399
  64.7253277 135.7946184  71.5834357  65.7857400 136.2943568  70.6254856
  64.6150035 122.9879619  80.4647068  63.6972597 123.2094566  80.3068757
  65.0310179 123.0625929  79.6058776  65.3985083 124.3871034  75.5949749
  66.1456902 124.8992432  75.2856871  65.6676672 124.0655087  76.4554142
  63.6711733 126.8829575  72.5776703  62.7622952 126.5988608  72.6749173
  63.7006817 127.3028654  71.7180010  68.9031000 130.4936165  76.3467871
  68.4493328 129.6527075  76.4033061  68.2724967 131.1297563  76.6842651
  67.8463920 121.4228151  77.5768538  67.1086677 120.9105537  77.9078781
  68.0990694 120.9828532  76.7651815  67.3463940 132.3312661  77.2817689
  67.6386914 132.8917718  76.5630054  67.8562560 132.6241222  78.0370848
  54.2399903 124.6035089  76.5591905  54.0424303 124.0104450  75.8342972
  53.6846567 124.2987300  77.2767844  62.2196627 124.4958196  78.6786498
  62.2745237 123.5432032  78.6028975  61.4087829 124.6517635  79.1627797
  63.3687821 128.4238319  69.9164782  62.9307251 127.7074178  69.4570419
  64.1098262 128.6514434  69.3549873  60.1588987 123.1135256  76.4376877
  59.3456853 123.4129426  76.8442069  60.6547981 122.7190944  77.1551360
  62.3097565 133.1093012  78.3711142  62.2673744 133.3353859  77.4419674
  63.2260264 132.8756387  78.5196943  65.7563199 123.5777080  85.2691771
  66.1112586 123.8048553  86.1286237  66.4035330 123.9095457  84.6469026
  71.4860936 126.6995516  75.9741100  71.3478834 126.8897112  75.0462289
  71.1297154 127.4614899  76.4309151  59.6503062 120.6853611  82.0538112
  60.2902441 120.5442370  81.3561076  58.8180592 120.3988124  81.6776714
  71.5130315 128.7672043  80.9852372  71.9466822 128.6747332  81.8335426
  72.2261896 128.7429543  80.3472388  60.4263366 129.9856041  78.1673105
  61.2203964 129.4906362  77.9655680  59.7155058 129.4573905  77.8040810
  65.2458210 132.3674137  82.5185472  65.2995232 132.9365073  83.2863188
  64.3772992 132.5376022  82.1539509  56.7346129 124.1299123  74.2432857
  55.8043717 124.0683579  74.4602819  56.8303601 123.6075076  73.4469499
  56.6531678 120.6553936  76.8311099  56.9138496 121.5699269  76.7220259
  57.4748851 120.1878379  76.9807712  58.1256604 122.0691693  84.0009924
  58.7979657 121.8609055  83.3522572  57.2986390 121.8713779  83.5615156
  72.3745865 128.8095744  83.5185257  72.5681755 129.7141554  83.7644532
  72.2746483 128.3503163  84.3523842  64.0282176 118.6953634  86.0175584
  63.3810091 119.3943584  85.9240061  64.7983191 119.1289778  86.3851833
  67.4360974 128.9602486  89.0926138  67.2846480 128.7313038  88.1756221
  67.4265653 129.9173088  89.1057483  64.2046310 126.5334399  84.0772404
  65.1338370 126.6845559  83.9041371  63.7837340 126.6218420  83.2221051
  63.0034642 130.5585063  81.8470942  62.8645727 130.1903848  82.7196880
  62.2149238 131.0732703  81.6754900  63.5982794 135.6594160  73.1896478
  63.7734549 135.1882203  74.0042101  62.9115582 136.2859926  73.4177739
  64.5539857 129.9366666  79.2359780  64.2189689 129.8967436  80.1317429
  64.0543803 129.2711382  78.7630190  58.5284101 125.3434296  84.7612361
  58.3903899 124.6114535  85.3623900  59.4389024 125.2543196  84.4796548
  67.4899048 127.2822701  69.5096839  66.8728219 126.5569529  69.4129892
  67.0215537 128.0432061  69.1663913  61.1566401 125.0554256  84.2496040
  61.8666020 124.4147448  84.2082659  61.1135710 125.3067150  85.1722221
  69.1453180 131.9921609  87.1702620  69.0865726 131.3080829  86.5033203
  69.5472699 132.7340599  86.7183246  59.8695335 122.0419473  86.0691680
  59.3332692 121.5910212  86.7213276  59.2812044 122.1765382  85.3262144
  58.1643879 138.8083523  79.9636338  58.4040477 139.4402047  80.6415357
  57.3213075 138.4571563  80.2501698  59.2797594 121.5008125  68.6318143
  58.4027061 121.3796926  68.2680390  59.7555347 120.7094203  68.3797032
  69.1470587 129.9561193  85.4016599  68.2597366 129.6187115  85.5242998
  69.7169138 129.2244224  85.6385365  50.7999735 126.2885285  78.7259651
  51.4870774 125.9747015  78.1380666  50.6447863 127.1926649  78.4526902
  55.6034457 121.1775481  83.1544674  55.5192645 120.5701151  82.4195084
  54.7817163 121.6684499  83.1554171  62.6771741 134.6162645  82.3677842
  62.6041912 135.4217617  82.8797147  62.2349134 134.8154611  81.5425864
  62.4661520 133.8534415  75.8780664  61.6829042 134.3956095  75.9718889
  63.1654266 134.3708395  76.2774905  65.7758171 119.6629045  78.5214869
  66.2726870 118.9099007  78.2015940  65.0045152 119.6993361  77.9558079
  73.6287928 125.3669410  80.1633161  73.6177804 126.2494126  79.7927094
  72.7605307 125.0140961  79.9687698  65.1370424 134.5149479  84.5236001
  65.8498397 135.1496944  84.4511903  64.6460453 134.6113345  83.7076003
  66.8587951 128.4200732  76.0953293  65.9244230 128.5402194  75.9257997
  67.0364620 127.5173199  75.8313303  62.3593139 121.8046428  78.2486554
  61.9890927 121.2517468  78.9367460  62.8552232 121.2004561  77.6961554
  70.2460503 124.2618051  76.6303327  70.7120955 125.0946043  76.5563630
  70.6968003 123.7963033  77.3348585  60.1882338 132.2643923  85.3441572
  60.8891797 132.8980406  85.4970966  59.7177453 132.6058654  84.5837211
  68.3136734 130.6061872  73.6289479  68.5896578 130.4918467  74.5383353
  67.4441232 130.2079357  73.5901652  68.2177165 116.6298638  80.6694228
  67.3040245 116.8602865  80.8376435  68.6470267 116.7137082  81.5208261
  67.9883624 124.8188530  83.1694122  67.3355074 125.0664438  82.5146575
  68.3664004 124.0052668  82.8356600  64.9490798 134.8548223  77.2722293
  65.1313192 134.0369879  77.7350045  65.7723784 135.0715916  76.8347183
  65.2832963 133.7816408  74.5337341  65.8120730 133.2708863  73.9207503
  65.5461183 133.4658939  75.3982874  64.0371197 125.5608341  89.6560159
  63.3611834 125.4602470  90.3262535  64.8598831 125.4047555  90.1196157
  55.7850056 131.7980278  82.2772675  56.3703493 131.0523966  82.4100579
  55.5874894 132.1084234  83.1609339  58.6388711 134.8331525  77.2935117
  57.9699086 135.3177653  76.8099157  58.5001581 135.0800746  78.2078496
  50.3767711 124.3685878  80.9977118  50.4151810 123.8349469  81.7914236
  49.8708003 123.8421083  80.3788095  62.7793980 136.8675269  83.8917775
  63.3312288 137.0306890  84.6566861  63.1200173 137.4579706  83.2197800
  57.7558473 119.2150418  84.4939660  57.8199799 120.0765249  84.0817058
  57.6925593 118.6024420  83.7612019  57.2310745 121.2873551  88.1412694
  57.8582784 120.9050628  88.7550219  56.3738664 121.0687753  88.5068387
  67.6304854 131.6936526  89.7466430  68.1744758 132.3066484  89.2521385
  67.0491699 132.2516105  90.2633443  54.0076288 123.0949980  74.0731049
  54.3029729 122.1860658  74.0198103  53.1064324 123.0737719  73.7512051
  65.9162367 134.8157244  80.8781458  65.7913506 134.0146984  80.3692403
  66.5741458 135.3103437  80.3895427  57.5370535 121.1705977  80.0558598
  56.8157121 121.7841944  79.9166071  58.3263791 121.7063741  79.9775244
  67.9797275 132.6166264  82.5061008  67.0327611 132.4971615  82.4339334
  68.3280049 131.7288762  82.5887269  60.3396849 118.5060403  86.3299250
  60.8631251 118.7522700  87.0925559  60.1209182 119.3380438  85.9102387
  55.7364130 120.7764078  74.1970374  55.4076836 119.8961457  74.0145480
  56.0903501 120.7211746  75.0846764  64.9843709 132.4118980  78.7065360
  64.8368671 131.4835688  78.8872930  65.8097202 132.4339071  78.2222435
  58.8505953 121.0637048  74.5645852  59.1902025 121.5922969  73.8424460
  59.2978073 121.4017454  75.3404419  68.5877831 133.2347539  79.7930233
  69.5124378 133.0290400  79.6554684  68.4193134 132.9863940  80.7019574
  61.5449394 119.4474098  84.0148920  61.2046214 118.6481911  84.4169600
  60.8388400 119.7475809  83.4425753  62.1965866 116.5323411  82.4676243
  63.0191935 116.0583889  82.3455133  62.4403929 117.3113894  82.9674929
  60.8374100 119.5611669  72.7639145  61.5582463 119.9392922  72.2602862
  60.2139404 120.2800546  72.8674123  59.7204444 123.2242531  80.2768222
  59.5749025 123.5382834  81.1692503  59.2429648 123.8427432  79.7239120
  61.5800827 120.2145079  80.3249111  61.5662396 119.3186173  79.9881409
  62.2973255 120.2215743  80.9587397  63.4326958 120.6482419  82.3702239
  63.1744736 121.5699490  82.3686569  62.9011998 120.2512854  83.0602703
  68.3773147 133.7533207  75.1492324  68.5510024 133.1879629  74.3966177
  68.8702038 134.5534101  74.9671814  54.1950107 125.7647876  83.2155883
  53.6503575 126.5407684  83.3476157  55.0729456 126.1118680  83.0575004
  74.2312538 126.5169630  76.7682624  74.6743684 125.7676955  76.3701747
  73.3539048 126.5079766  76.3856356  69.3648319 133.0699971  72.2489222
  70.0599224 133.6906664  72.4676537  69.7071469 132.2195322  72.5241600
  54.9816128 124.8917772  86.1086040  54.2397864 125.0400407  86.6950670
  54.6608873 125.1526038  85.2452789  71.2639742 130.5199677  73.7776553
  71.7891066 130.8586949  73.0525873  71.1762095 129.5846692  73.5939688
  62.9259791 134.4333750  85.9066430  63.2346918 134.1882897  86.7789129
  63.7235273 134.6380389  85.4185300  62.9480403 136.5871660  78.1371806
  62.5085393 136.0948039  78.8304663  63.6988520 136.0444627  77.8963882
  55.4272742 132.7783201  78.1396434  56.2530762 132.4786973  77.7595078
  55.0766794 132.0090823  78.5886223  60.3954275 132.1309669  80.2094108
  59.7734285 131.4680374  79.9096336  61.0659142 132.1570801  79.5267756
  53.6281347 130.6969527  79.0985368  52.7913255 130.2691701  78.9169369
  53.6004993 130.8901970  80.0356159  60.4678803 120.6091457  89.8026614
  60.5166958 121.4853580  89.4204384  61.0101317 120.0668850  89.2298257
  70.9533648 131.1532580  89.0827751  70.1629192 131.1356719  88.5432250
  70.7167003 131.6920874  89.8376788  71.0731523 128.0025047  86.3960480
  71.1229528 127.8375054  87.3376002  70.9645447 127.1352306  86.0058360
  59.9567782 130.6813592  73.6852568  60.1055903 131.3649057  73.0319241
  60.7634226 130.6618682  74.2002024  68.3635286 123.9855975  87.7119786
  69.2645149 123.8462439  87.4203784  68.4383260 124.1510429  88.6517964
  62.6978091 121.3622829  86.5572973  61.8281401 121.6556395  86.2855561
  62.9337572 121.9463274  87.2780236  72.5749720 130.4221988  86.6402501
  72.2834529 130.7851969  87.4765962  71.9621852 129.7088996  86.4615833
  73.7745403 127.9874868  79.1605071  74.6092294 128.4264672  79.3242632
  73.9104531 127.5113521  78.3413317  70.8236909 125.5454603  85.1082559
  71.2991030 125.7382249  84.3001411  69.9002474 125.6013789  84.8625943
  57.7120415 126.7078770  74.6913637  57.4666457 125.8041100  74.8893848
  57.8816330 126.7095920  73.7493115  65.4017125 117.5802446  84.0738393
  65.9199069 118.3163473  83.7484882  65.0472258 117.8866440  84.9085152
  56.9816063 122.4407127  72.1899799  56.2885308 122.5151482  71.5339835
  56.7367815 121.6767471  72.7121316  63.4563188 133.1761723  71.1564316
  62.8837155 133.7951910  70.7034788  64.0295981 133.7261084  71.6904238
  69.5238578 122.4220363  83.3410865  70.4756000 122.5218460  83.3623089
  69.3542028 121.6298631  83.8508949  67.5452957 119.5075946  83.5270266
  66.9502889 119.7880959  82.8316754  67.2602654 119.9969847  84.2987007
  66.6760447 133.4598873  72.2872898  67.6091121 133.3944435  72.4905774
  66.5883660 134.2955140  71.8287431  69.3048464 132.7764743  69.2476846
  69.2262096 132.4424607  70.1412604  70.1258131 133.2686511  69.2468318
  72.0026655 125.6426482  82.4553164  71.9702975 124.7042483  82.6412848
  72.6127279 125.7210519  81.7218989  63.8409986 124.5122535  68.4980368
  64.7869091 124.3828744  68.5668786  63.4624231 123.7737197  68.9749797
  72.1521144 122.4337526  82.5011448  71.6360192 121.6495983  82.3141376
  73.0361092 122.1056243  82.6657967  77.8203205 126.7042489  81.5959201
  78.5506594 126.4427777  82.1566904  77.2110151 125.9671211  81.6361269
  75.9018502 124.8450352  82.1933652  75.1751666 124.7106317  81.5850144
  75.4865789 125.1527181  82.9990370  63.7248679 128.5640282  89.9581025
  64.6451688 128.7418881  90.1521072  63.6898262 127.6196327  89.8060725
  62.0252903 122.4372512  68.4335254  61.1184359 122.1405625  68.5097967
  62.3028884 122.1402330  67.5669540  52.9430844 123.7578875  78.8834300
  52.6233628 122.9044183  78.5908674  52.3964272 123.9727453  79.6392267
  56.7210751 126.4741316  82.6003807  56.9396761 127.4058424  82.6191840
  57.1336525 126.1149291  83.3858610  61.5938617 122.0474522  91.9906555
  61.4935343 122.9968879  91.9218647  61.3760159 121.7192761  91.1182626
  60.7951688 119.2959447  68.5747233  61.6570852 119.6214345  68.8343050
  60.9802032 118.5090943  68.0620299  52.8119104 127.3781787  80.8527422
  52.1182575 126.9635740  80.3397376  53.5592095 127.4202323  80.2560841
  61.4569887 125.4771661  90.8071617  60.9736968 126.2772021  91.0135506
  61.5430826 125.4879606  89.8539061  54.7255846 127.3100041  78.7293436
  54.7026534 127.4087728  77.7775320  55.0356483 128.1565191  79.0510603
  57.3843224 129.3676196  82.8440051  58.3386478 129.3360138  82.7769982
  57.1855748 128.9066819  83.6590277  57.9742606 127.9377312  85.4110849
  58.7935495 128.4321390  85.4345686  58.2479414 127.0209280  85.3828416
  67.7309202 120.3288064  74.7738804  66.8435057 120.6137715  74.5558999
  68.1463192 120.1681827  73.9266081  71.0823739 120.3534585  78.4893143
  71.8584129 120.8431037  78.7617760  70.3571873 120.7792639  78.9465013
  73.5196297 121.0662204  79.5467084  74.1140788 120.8257940  78.8360392
  73.5922881 120.3469335  80.1740620  55.7393453 134.9095815  79.8610249
  55.6047921 134.1496216  79.2948247  55.3225515 135.6336715  79.3939038
  66.8752416 130.0932739  68.8686824  67.5788266 130.2982741  69.4844480
  66.1515065 130.6609500  69.1335908  67.7050226 125.8442600  74.9889094
  67.6485428 126.3011151  74.1496727  68.2578569 125.0833284  74.8111937
  71.5155032 121.6332332  75.8139214  71.2591966 121.2328967  76.6447421
  70.8907900 122.3476126  75.6889353  75.8267370 124.3728405  78.3210505
  75.2666928 124.4421594  79.0942067  75.2210873 124.1969390  77.6010001
  58.8962579 135.8065132  80.0728691  58.7794963 136.7510565  79.9707382
  58.0755025 135.5038694  80.4614491  68.7839113 130.5315268  70.9185284
  69.6184717 130.0996466  70.7362759  68.6223456 130.3597281  71.8462179
  68.4385006 127.0347381  72.2841623  68.3833809 126.8691653  71.3430068
  67.8131061 127.7423414  72.4403813  53.2277521 122.2715445  86.1103046
  53.8736384 121.7614399  86.5990271  53.0194672 123.0084127  86.6846471
  65.7530913 129.3396293  91.6095186  66.6222072 129.5136945  91.2481821
  65.2737664 130.1590710  91.4870916  59.9217093 136.4593394  83.2884620
  60.8244340 136.4917004  83.6051115  59.6954463 135.5293845  83.3030956
  61.6770695 135.2124380  79.9494698  60.7266326 135.2126242  79.8359071
  61.9803181 134.4657115  79.4330733  57.5675012 119.4183063  90.2078060
  58.4306473 119.0619867  90.4181384  56.9940422 119.0796957  90.8953464
  77.4123388 141.0484919  81.0140461  78.0501798 140.9291666  80.3103801
  77.2944231 141.9965763  81.0728413  74.2213095 141.0012347  80.9501986
  73.8831606 140.8853412  80.0622520  75.0902863 140.6003512  80.9302992
  70.0799910 142.8547823  76.9398877  69.5164776 142.7637760  76.1715164
  69.9652305 142.0347728  77.4201369  74.7032878 142.1547199  86.9088191
  74.6921518 141.7599997  86.0368695  74.8653517 141.4213271  87.5021963
  67.6264342 144.3499015  79.7783097  68.4185634 144.0089840  79.3629396
  67.8660993 144.4593990  80.6985250  75.6599469 146.5218791  72.2513341
  75.0087449 147.1072872  71.8647355  76.4543832 147.0524986  72.3108379
  69.5855096 143.6107928  72.6500476  70.3585972 143.0636915  72.5113352
  69.9380495 144.4752178  72.8614937  71.4240139 144.9384311  85.8567375
  71.1330005 145.8429941  85.7414041  72.0597123 144.9800838  86.5711445
  72.3496346 142.3161159  82.4468735  72.9459918 142.0917181  81.7325698
  72.4071317 141.5745905  83.0494183  71.9221374 139.7700594  70.2818926
  72.1746895 139.2482116  69.5202389  70.9845933 139.6066740  70.3845609
  76.9664657 138.7736373  78.0893669  77.7527746 138.3555796  77.7384086
  77.2303361 139.6782465  78.2575317  77.1374734 144.2109223  72.7882326
  76.5020567 144.2843850  73.5003230  76.8072141 144.8002822  72.1101405
  82.3673084 138.7111606  78.9926647  83.0998256 138.1410823  79.2264477
  81.6112440 138.3233206  79.4333153  71.6417663 141.6728700  72.4843301
  71.5253921 140.9973604  73.1524385  71.7519923 141.1861074  71.6675454
  73.9849204 141.1338847  76.1889990  73.6207411 140.6069468  76.9002911
  74.8416320 140.7437316  76.0156475  79.8898504 132.4233180  83.4521256
  79.5581829 133.2928591  83.2282471  79.2944118 132.1069464  84.1315286
  73.6254691 136.1628747  71.1851338  73.7929093 137.0308984  71.5521809
  73.4351860 136.3256029  70.2612628  76.3830024 144.6245726  82.8517169
  76.0830747 145.5270765  82.7432976  76.0381083 144.3577909  83.7038322
  69.8342505 141.0759523  78.8853873  68.9093002 140.9435737  79.0931565
  70.0826919 141.8553742  79.3823816  79.7827168 137.1428266  80.5314606
  78.8744045 137.0743675  80.2373367  79.7314764 137.6200211  81.3596432
  73.6043912 138.6186405  72.1698005  73.4843537 139.0643455  73.0083486
  72.9096500 138.9671722  71.6111543  67.1951316 140.7192796  79.7197662
  67.3243698 140.9727275  80.6337074  66.5148768 141.3120504  79.4002317
  71.3650804 151.3890046  75.8188136  71.2874833 152.3397871  75.8976617
  70.7612447 151.0435919  76.4763063  73.8568033 138.5617912  88.4749503
  73.0801368 139.1211832  88.4652368  74.4958597 139.0474695  88.9964373
  81.6488814 135.3444705  82.3092480  81.0063194 135.6377238  81.6632275
  81.1443743 135.2297625  83.1145677  79.3028978 139.0907878  72.9978339
  80.2146834 139.3235265  72.8226037  78.7938625 139.6744922  72.4353418
  72.1114406 141.3703365  88.0367470  72.8529090 141.9088409  87.7602294
  71.4051391 141.9969654  88.1939022  77.5869745 143.5132506  86.6339632
  77.9953101 143.0714916  85.8894264  76.8647007 142.9385133  86.8873825
  73.9400815 138.4505112  84.0073189  74.7862011 138.8744526  84.1507838
  73.8799453 137.7938737  84.7011752  77.9098560 144.0733696  80.3891921
  77.2807423 144.2379410  79.6867989  77.5224222 144.4875306  81.1602885
  81.7887792 145.0088134  77.7436284  81.1038830 145.3887035  77.1933318
  81.8731641 145.6183461  78.4768232  77.0900261 136.1109481  85.6654362
  76.8461193 136.8651541  85.1288638  77.3660191 136.4894828  86.5001609
  79.0438724 142.6548093  84.3431628  79.2555619 143.2979853  83.6666009
  78.9968472 141.8210410  83.8753558  76.6464953 135.2665914  81.2468200
  75.7849432 135.5647167  81.5384938  76.6727387 135.4836313  80.3149233
  73.4626522 143.8108104  77.6542006  73.9264868 144.0895807  76.8646628
  73.1983320 142.9091549  77.4715097  70.3550603 143.3579586  80.5921769
  70.9251960 143.7866854  79.9539254  70.9458715 143.0762171  81.2905955
  72.3995408 139.9331257  74.4631571  73.1019451 140.3852300  74.9305497
  72.0676037 139.2915076  75.0911464  70.8475770 138.5243013  88.8382780
  70.2174430 139.2059294  89.0718177  70.7411857 138.4126095  87.8935919
  66.1420742 138.1914809  79.7648705  65.3519796 138.4472338  79.2888815
  66.6331989 139.0063147  79.8700745  80.1584552 145.5320049  82.5153985
  80.9801995 145.1300236  82.2336667  80.1546954 145.4288283  83.4670101
  68.0935487 138.5559389  76.7232181  67.2966651 138.6678083  77.2415677
  67.8661080 138.8946041  75.8573072  73.9241155 145.0804092  84.6714696
  73.9885588 145.5424499  85.5072868  73.2152079 144.4501457  84.7997006
  64.4258445 138.4445300  82.1963695  64.6766483 139.3292310  82.4621271
  64.9617993 138.2649901  81.4238787  73.6389173 146.7472199  74.5393676
  73.5034847 147.5923735  74.9678524  74.1798985 146.9491477  73.7759610
  70.1256512 132.8263779  91.2008031  69.7323458 132.2729978  91.8755676
  70.9422653 133.1374358  91.5914549  67.0918570 144.2647637  75.1121601
  67.6043091 145.0590888  75.2627166  67.7441283 143.5673928  75.0455203
  68.9013455 147.3813394  77.1944354  69.0780083 148.3031358  77.0065338
  69.6970288 147.0671813  77.6238734  73.0424473 134.2421658  88.7928288
  73.7834187 134.8428811  88.7132750  73.2742396 133.4999296  88.2346331
  68.1865811 139.4278026  87.0706518  68.0719326 138.5263283  87.3713617
  67.3310329 139.6741722  86.7191334  75.2657649 147.3695766  88.6694018
  74.8221503 146.5832144  88.3514923  75.9274863 147.5574916  88.0037909
  70.0244770 148.8991567  83.1954697  70.5752195 148.7708631  82.4231691
  69.1856246 149.1986456  82.8449590  77.3638887 147.6498566  86.6975420
  77.3457362 148.4707447  86.2055689  78.2858807 147.5252641  86.9225561
  73.8211941 145.1642695  87.5398928  74.3540278 144.4030983  87.3098236
  73.2926022 144.8716347  88.2823082  76.9881636 130.2702761  83.0692570
  76.6445906 131.1604403  82.9931680  77.3560599 130.0804419  82.2062155
  65.0567487 142.5936292  75.8881172  65.8942709 143.0033300  75.6714880
  65.2345755 141.6535734  75.8581366  76.9531919 140.2611372  71.5765005
  76.4378542 141.0315977  71.8153392  76.6809227 139.5876508  72.1998066
  74.5379030 135.1061073  76.6350243  73.6820626 134.7167923  76.4555882
  74.9505982 135.1853034  75.7750029  76.0678177 132.6407416  81.0341803
  75.5642972 132.6037552  80.2209608  76.3608783 133.5500159  81.0938460
  72.3121062 132.7246146  80.0407985  73.1774059 132.5288955  79.6813874
  72.3798571 132.4956498  80.9677341  81.9266193 143.0143727  73.5118178
  81.1495636 142.6754886  73.0673340  82.6057674 143.0196350  72.8373143
  76.7418222 138.1338464  73.4024786  76.4368358 138.4484614  74.2534929
  77.6948664 138.2119884  73.4452119  75.1864654 144.2928688  75.0517740
  74.6586016 143.5581447  74.7390977  74.6852157 145.0703364  74.8057708
  80.1657500 142.4877708  80.1684786  79.5081174 143.1776970  80.2564915
  80.9697899 142.8774140  80.5118773  69.9183382 134.9548354  77.4124351
  70.4927133 134.7323536  76.6797544  70.5054364 135.0237049  78.1652953
  78.9762959 140.8422081  78.2188728  79.4894841 141.4752073  78.7210438
  79.6264183 140.2423276  77.8532088  70.2452969 136.9852815  71.4320237
  69.4090281 137.3227502  71.7529511  70.1057738 136.8501795  70.4947374
  72.2206049 131.8289603  76.1399421  71.5670462 131.5138620  75.5156036
  72.1786523 131.2065343  76.8659244  73.3317254 142.1108898  68.0552713
  72.4244316 141.8798151  68.2543862  73.8288286 141.3146517  68.2426695
  76.2385333 150.8206405  70.9749399  75.5647032 151.1238102  71.5834357
  76.6251155 151.6235486  70.6254856  75.4543790 138.3171536  80.4647068
  74.5366351 138.5386483  80.3068757  75.8703933 138.3917847  79.6058776
  76.2378837 139.7162952  75.5949749  76.9850656 140.2284349  75.2856871
  76.5070427 139.3947005  76.4554142  74.5105488 142.2121493  72.5776703
  73.6016707 141.9280526  72.6749173  74.5400571 142.6320571  71.7180010
  79.7424755 145.8228082  76.3467871  79.2887082 144.9818992  76.4033061
  79.1118722 146.4589481  76.6842651  78.6857675 136.7520068  77.5768538
  77.9480431 136.2397455  77.9078781  78.9384448 136.3120450  76.7651815
  78.1857694 147.6604579  77.2817689  78.4780669 148.2209636  76.5630054
  78.6956315 147.9533140  78.0370848  78.7869302 129.5296320  78.1710307
  79.0928179 128.6693684  77.8836222  79.5121907 130.1213941  77.9709301
  65.0793658 139.9327007  76.5591905  64.8818058 139.3396368  75.8342972
  64.5240322 139.6279217  77.2767844  73.0590382 139.8250113  78.6786498
  73.1138991 138.8723950  78.6028975  72.2481584 139.9809553  79.1627797
  74.2081575 143.7530237  69.9164782  73.7701005 143.0366095  69.4570419
  74.9492016 143.9806351  69.3549873  70.9982742 138.4427173  76.4376877
  70.1850607 138.7421344  76.8442069  71.4941736 138.0482862  77.1551360
  73.1491319 148.4384930  78.3711142  73.1067498 148.6645776  77.4419674
  74.0654018 148.2048305  78.5196943  76.5956953 138.9068998  85.2691771
  76.9506341 139.1340471  86.1286237  77.2429084 139.2387374  84.6469026
  82.3254690 142.0287434  75.9741100  82.1872589 142.2189030  75.0462289
  81.9690909 142.7906816  76.4309151  70.4896816 136.0145529  82.0538112
  71.1296196 135.8734288  81.3561076  69.6574347 135.7280042  81.6776714
  82.3524070 144.0963961  80.9852372  82.7860576 144.0039250  81.8335426
  83.0655650 144.0721461  80.3472388  71.2657120 145.3147959  78.1673105
  72.0597719 144.8198279  77.9655680  70.5548813 144.7865822  77.8040810
  76.0851965 147.6966055  82.5185472  76.1388987 148.2656991  83.2863188
  75.2166746 147.8667940  82.1539509  67.5739884 139.4591041  74.2432857
  66.6437472 139.3975496  74.4602819  67.6697356 138.9366994  73.4469499
  67.4925433 135.9845854  76.8311099  67.7532250 136.8991187  76.7220259
  68.3142605 135.5170296  76.9807712  68.9650358 137.3983611  84.0009924
  69.6373411 137.1900973  83.3522572  68.1380145 137.2005697  83.5615156
  83.2139619 144.1387661  83.5185257  83.4075509 145.0433472  83.7644532
  83.1140237 143.6795080  84.3523842  74.8675930 134.0245552  86.0175584
  74.2203845 134.7235501  85.9240061  75.6376945 134.4581696  86.3851833
  78.2754728 144.2894404  89.0926138  78.1240234 144.0604956  88.1756221
  78.2659407 145.2465005  89.1057483  75.0440064 141.8626317  84.0772404
  75.9732124 142.0137476  83.9041371  74.6231094 141.9510338  83.2221051
  73.8428396 145.8876981  81.8470942  73.7039482 145.5195766  82.7196880
  73.0542992 146.4024621  81.6754900  74.4376548 150.9886078  73.1896478
  74.6128304 150.5174121  74.0042101  73.7509336 151.6151844  73.4177739
  75.3933611 145.2658584  79.2359780  75.0583444 145.2259354  80.1317429
  74.8937557 144.6003300  78.7630190  69.3677855 140.6726214  84.7612361
  69.2297653 139.9406453  85.3623900  70.2782779 140.5835114  84.4796548
  78.3292803 142.6114618  69.5096839  77.7121974 141.8861446  69.4129892
  77.8609291 143.3723978  69.1663913  71.9960156 140.3846173  84.2496040
  72.7059774 139.7439365  84.2082659  71.9529464 140.6359068  85.1722221
  79.9846935 147.3213527  87.1702620  79.9259481 146.6372747  86.5033203
  80.3866453 148.0632517  86.7183246  70.7089090 137.3711391  86.0691680
  70.1726447 136.9202130  86.7213276  70.1205798 137.5057300  85.3262144
  69.0037633 154.1375440  79.9636338  69.2434232 154.7693965  80.6415357
  68.1606830 153.7863480  80.2501698  70.1191349 136.8300042  68.6318143
  69.2420815 136.7088843  68.2680390  70.5949102 136.0386121  68.3797032
  79.9864342 145.2853110  85.4016599  79.0991121 144.9479032  85.5242998
  80.5562893 144.5536142  85.6385365  61.6393489 141.6177202  78.7259651
  62.3264529 141.3038932  78.1380666  61.4841618 142.5218567  78.4526902
  66.4428211 136.5067399  83.1544674  66.3586400 135.8993068  82.4195084
  65.6210918 136.9976417  83.1554171  73.5165495 149.9454563  82.3677842
  73.4435667 150.7509534  82.8797147  73.0742888 150.1446529  81.5425864
  73.3055275 149.1826333  75.8780664  72.5222797 149.7248013  75.9718889
  74.0048020 149.7000312  76.2774905  76.6151925 134.9920962  78.5214869
  77.1120625 134.2390925  78.2015940  75.8438907 135.0285279  77.9558079
  84.4681682 140.6961328  80.1633161  84.4571559 141.5786043  79.7927094
  83.5999062 140.3432879  79.9687698  75.9764179 149.8441397  84.5236001
  76.6892151 150.4788862  84.4511903  75.4854207 149.9405263  83.7076003
  77.6981706 143.7492650  76.0953293  76.7637984 143.8694112  75.9257997
  77.8758374 142.8465116  75.8313303  73.1986894 137.1338345  78.2486554
  72.8284681 136.5809386  78.9367460  73.6945986 136.5296479  77.6961554
  81.0854257 139.5909969  76.6303327  81.5514709 140.4237960  76.5563630
  81.5361758 139.1254950  77.3348585  71.0276092 147.5935840  85.3441572
  71.7285552 148.2272323  85.4970966  70.5571207 147.9350572  84.5837211
  79.1530488 145.9353790  73.6289479  79.4290332 145.8210385  74.5383353
  78.2834987 145.5371275  73.5901652  79.0570920 131.9590556  80.6694228
  78.1434000 132.1894783  80.8376435  79.4864021 132.0429000  81.5208261
  78.8277378 140.1480448  83.1694122  78.1748829 140.3956355  82.5146575
  79.2057758 139.3344586  82.8356600  75.7884552 150.1840141  77.2722293
  75.9706947 149.3661797  77.7350045  76.6117538 150.4007833  76.8347183
  76.1226718 149.1108326  74.5337341  76.6514484 148.6000781  73.9207503
  76.3854937 148.7950856  75.3982874  74.8764951 140.8900259  89.6560159
  74.2005588 140.7894388  90.3262535  75.6992585 140.7339473  90.1196157
  66.6243810 147.1272195  82.2772675  67.2097247 146.3815883  82.4100579
  66.4268649 147.4376152  83.1609339  69.4782466 150.1623443  77.2935117
  68.8092841 150.6469570  76.8099157  69.3395335 150.4092663  78.2078496
  61.2161465 139.6977796  80.9977118  61.2545565 139.1641386  81.7914236
  60.7101758 139.1713001  80.3788095  73.6187734 152.1967186  83.8917775
  74.1706042 152.3598808  84.6566861  73.9593928 152.7871624  83.2197800
  68.5952227 134.5442336  84.4939660  68.6593554 135.4057167  84.0817058
  68.5319348 133.9316338  83.7612019  68.0704500 136.6165469  88.1412694
  68.6976539 136.2342546  88.7550219  67.2132419 136.3979671  88.5068387
  78.4698609 147.0228444  89.7466430  79.0138513 147.6358402  89.2521385
  77.8885453 147.5808022  90.2633443  64.8470043 138.4241898  74.0731049
  65.1423484 137.5152576  74.0198103  63.9458079 138.4029637  73.7512051
  76.7556122 150.1449162  80.8781458  76.6307261 149.3438902  80.3692403
  77.4135213 150.6395355  80.3895427  68.3764290 136.4997894  80.0558598
  67.6550875 137.1133862  79.9166071  69.1657546 137.0355659  79.9775244
  78.8191030 147.9458182  82.5061008  77.8721365 147.8263533  82.4339334
  79.1673803 147.0580680  82.5887269  71.1790603 133.8352321  86.3299250
  71.7025005 134.0814617  87.0925559  70.9602937 134.6672356  85.9102387
  66.5757884 136.1055995  74.1970374  66.2470590 135.2253374  74.0145480
  66.9297255 136.0503664  75.0846764  75.8237463 147.7410898  78.7065360
  75.6762426 146.8127606  78.8872930  76.6490957 147.7630989  78.2222435
  69.6899707 136.3928965  74.5645852  70.0295780 136.9214886  73.8424460
  70.1371828 136.7309371  75.3404419  79.4271585 148.5639457  79.7930233
  80.3518133 148.3582318  79.6554684  79.2586888 148.3155858  80.7019574
  72.3843148 134.7766016  84.0148920  72.0439969 133.9773829  84.4169600
  71.6782155 135.0767727  83.4425753  73.0359620 131.8615328  82.4676243
  73.8585689 131.3875807  82.3455133  73.2797684 132.6405812  82.9674929
  71.6767855 134.8903587  72.7639145  72.3976217 135.2684840  72.2602862
  71.0533159 135.6092464  72.8674123  75.8198978 135.5948736  73.6997477
  76.0362592 136.4773374  73.3986305  75.3393045 135.2034949  72.9703119
  70.5598199 138.5534449  80.2768222  70.4142780 138.8674752  81.1692503
  70.0823403 139.1719349  79.7239120  72.4194582 135.5436997  80.3249111
  72.4056151 134.6478090  79.9881409  73.1367010 135.5507661  80.9587397
  74.2720712 135.9774337  82.3702239  74.0138490 136.8991408  82.3686569
  73.7405753 135.5804772  83.0602703  79.2166901 149.0825124  75.1492324
  79.3903779 148.5171547  74.3966177  79.7095792 149.8826019  74.9671814
  65.0343861 141.0939793  83.2155883  64.4897329 141.8699601  83.3476157
  65.9123211 141.4410598  83.0575004  71.8231478 134.4251377  75.5936681
  71.9447389 133.4968023  75.7927569  71.5333520 134.4390063  74.6814997
  74.6922668 132.1106288  78.7303401  74.7144365 132.1745621  77.7755381
  75.1090727 131.2710796  78.9243907  85.0706292 141.8461547  76.7682624
  85.5137438 141.0968872  76.3701747  84.1932803 141.8371684  76.3856356
  80.2042074 148.3991889  72.2489222  80.8992978 149.0198581  72.4676537
  80.5465224 147.5487240  72.5241600  65.8209883 140.2209690  86.1086040
  65.0791619 140.3692325  86.6950670  65.5002627 140.4817955  85.2452789
  82.1033497 145.8491594  73.7776553  82.6284821 146.1878867  73.0525873
  82.0155849 144.9138610  73.5939688  73.7653546 149.7625668  85.9066430
  74.0740672 149.5174815  86.7789129  74.5629028 149.9672306  85.4185300
  73.7874158 151.9163577  78.1371806  73.3479148 151.4239956  78.8304663
  74.5382275 151.3736545  77.8963882  66.2666497 148.1075118  78.1396434
  67.0924517 147.8078890  77.7595078  65.9160549 147.3382741  78.5886223
  71.2348030 147.4601587  80.2094108  70.6128039 146.7972292  79.9096336
  71.9052897 147.4862718  79.5267756  64.4675102 146.0261445  79.0985368
  63.6307010 145.5983619  78.9169369  64.4398747 146.2193888  80.0356159
  71.3072557 135.9383375  89.8026614  71.3560713 136.8145497  89.4204384
  71.8495071 135.3960768  89.2298257  81.7927403 146.4824498  89.0827751
  81.0022947 146.4648637  88.5432250  81.5560757 147.0212792  89.8376788
  81.9125278 143.3316964  86.3960480  81.9623283 143.1666972  87.3376002
  81.8039201 142.4644223  86.0058360  70.7961537 146.0105510  73.6852568
  70.9449657 146.6940974  73.0319241  71.6027980 145.9910600  74.2002024
  79.2029040 139.3147892  87.7119786  80.1038903 139.1754357  87.4203784
  79.2777015 139.4802347  88.6517964  73.5371846 136.6914747  86.5572973
  72.6675155 136.9848313  86.2855561  73.7731326 137.2755192  87.2780236
  83.4143475 145.7513906  86.6402501  83.1228283 146.1143886  87.4765962
  82.8015606 145.0380914  86.4615833  84.6139157 143.3166786  79.1605071
  85.4486049 143.7556590  79.3242632  84.7498286 142.8405439  78.3413317
  81.6630663 140.8746520  85.1082559  82.1384785 141.0674167  84.3001411
  80.7396228 140.9305706  84.8625943  68.5514170 142.0370688  74.6913637
  68.3060212 141.1333018  74.8893848  68.7210084 142.0387838  73.7493115
  76.2410880 132.9094364  84.0738393  76.7592823 133.6455391  83.7484882
  75.8866012 133.2158357  84.9085152  67.8209817 137.7699045  72.1899799
  67.1279062 137.8443400  71.5339835  67.5761569 137.0059389  72.7121316
  76.4923474 129.3294646  79.5939290  76.7725227 128.6617836  80.2199716
  77.2774081 129.5223742  79.0813953  74.2956942 148.5053640  71.1564316
  73.7230909 149.1243828  70.7034788  74.8689736 149.0553002  71.6904238
  80.3632332 137.7512280  83.3410865  81.3149755 137.8510378  83.3623089
  80.1935782 136.9590549  83.8508949  78.3846712 134.8367864  83.5270266
  77.7896644 135.1172876  82.8316754  78.0996408 135.3261765  84.2987007
  77.5154202 148.7890791  72.2872898  78.4484875 148.7236352  72.4905774
  77.4277415 149.6247057  71.8287431  80.1442219 148.1056661  69.2476846
  80.0655850 147.7716524  70.1412604  80.9651885 148.5978429  69.2468318
  82.8420410 140.9718400  82.4553164  82.8096730 140.0334401  82.6412848
  83.4521033 141.0502437  81.7218989  74.6803741 139.8414453  68.4980368
  75.6262845 139.7120661  68.5668786  74.3017986 139.1029115  68.9749797
  82.9914898 137.7629444  82.5011448  82.4753947 136.9787900  82.3141376
  83.8754847 137.4348160  82.6657967  80.6525625 131.5070459  78.4607260
  80.4550446 131.1985547  79.3450592  81.2625331 132.2332098  78.5905190
  74.5642433 143.8932199  89.9581025  75.4845443 144.0710798  90.1521072
  74.5292016 142.9488245  89.8060725  72.8646658 137.7664430  68.4335254
  71.9578113 137.4697542  68.5097967  73.1422639 137.4694248  67.5669540
  63.7824598 139.0870793  78.8834300  63.4627383 138.2336101  78.5908674
  63.2358026 139.3019371  79.6392267  67.5604506 141.8033234  82.6003807
  67.7790516 142.7350342  82.6191840  67.9730280 141.4441208  83.3858610
  74.4808724 132.3101319  74.5879495  73.6709452 131.9648404  74.9634741
  75.1693140 132.0008863  75.1767106  76.4099272 131.3879366  76.2103792
  76.9630310 131.8074819  76.8693815  76.6469358 130.4615114  76.2526748
  72.4332371 137.3766440  91.9906555  72.3329098 138.3260797  91.9218647
  72.2153913 137.0484679  91.1182626  71.6345442 134.6251365  68.5747233
  72.4964606 134.9506263  68.8343050  71.8195787 133.8382861  68.0620299
  63.6512858 142.7073704  80.8527422  62.9576330 142.2927657  80.3397376
  64.3985849 142.7494241  80.2560841  79.7878079 133.4979891  75.7182456
  79.2076748 134.1564695  75.3360508  79.5214012 132.6757236  75.3069873
  78.2381645 132.8984949  77.9203776  78.7381424 133.0101483  77.1118095
  78.8817253 132.5946002  78.5604585  72.2963641 140.8063579  90.8071617
  71.8130723 141.6063939  91.0135506  72.3824580 140.8171523  89.8539061
  65.5649601 142.6391958  78.7293436  65.5420289 142.7379645  77.7775320
  65.8750237 143.4857109  79.0510603  68.2236979 144.6968113  82.8440051
  69.1780232 144.6652056  82.7769982  68.0249502 144.2358737  83.6590277
  68.8136361 143.2669229  85.4110849  69.6329250 143.7613308  85.4345686
  69.0873168 142.3501197  85.3828416  78.5702957 135.6579982  74.7738804
  77.6828812 135.9429632  74.5558999  78.9856946 135.4973745  73.9266081
  81.9217493 135.6826503  78.4893143  82.6977883 136.1722955  78.7617760
  81.1965627 136.1084557  78.9465013  66.5787207 150.2387733  79.8610249
  66.4441675 149.4788134  79.2948247  66.1619270 150.9628633  79.3939038
  77.7146170 145.4224656  68.8686824  78.4182021 145.6274659  69.4844480
  76.9908819 145.9901418  69.1335908  78.5443981 141.1734518  74.9889094
  78.4879182 141.6303069  74.1496727  79.0972323 140.4125202  74.8111937
  82.3548787 136.9624249  75.8139214  82.0985721 136.5620885  76.6447421
  81.7301655 137.6768043  75.6889353  69.7356333 151.1357050  80.0728691
  69.6188717 152.0802482  79.9707382  68.9148780 150.8330611  80.4614491
  79.6232868 145.8607185  70.9185284  80.4578472 145.4288384  70.7362759
  79.4617211 145.6889199  71.8462179  79.2778760 142.3639299  72.2841623
  79.2227564 142.1983570  71.3430068  78.6524815 143.0715332  72.4403813
  64.0671275 137.6007363  86.1103046  64.7130139 137.0906317  86.5990271
  63.8588426 138.3376045  86.6846471  76.5924667 144.6688211  91.6095186
  77.4615827 144.8428863  91.2481821  76.1131419 145.4882627  91.4870916
  72.5874885 131.8647408  71.8626942  72.5753555 132.8089248  72.0195213
  73.4798307 131.6817553  71.5686403  70.7610847 151.7885312  83.2884620
  71.6638094 151.8208922  83.6051115  70.5348217 150.8585763  83.3030956
  72.5164449 150.5416298  79.9494698  71.5660080 150.5418160  79.8359071
  72.8196936 149.7949033  79.4330733  76.4027005 128.4590184  76.1172879
  75.6359401 127.9048671  76.2629561  76.8137710 128.5312053  76.9787030
  68.4068766 134.7474980  90.2078060  69.2700228 134.3911785  90.4181384
  67.8334177 134.4088875  90.8953464  88.2517143 156.3776837  81.0140461
  88.8895553 156.2583584  80.3103801  88.1337986 157.3257681  81.0728413
  85.0606849 156.3304265  80.9501986  84.7225361 156.2145329  80.0622520
  85.9296617 155.9295430  80.9302992  80.9193665 158.1839741  76.9398877
  80.3558530 158.0929678  76.1715164  80.8046060 157.3639646  77.4201369
  85.5426632 157.4839116  86.9088191  85.5315273 157.0891915  86.0368695
  85.7047272 156.7505189  87.5021963  78.4658097 159.6790933  79.7783097
  79.2579389 159.3381757  79.3629396  78.7054747 159.7885908  80.6985250
  86.4993224 161.8510709  72.2513341  85.8481203 162.4364789  71.8647355
  87.2937586 162.3816904  72.3108379  80.4248851 158.9399846  72.6500476
  81.1979727 158.3928833  72.5113352  80.7774250 159.8044095  72.8614937
  82.2633893 160.2676228  85.8567375  81.9723759 161.1721859  85.7414041
  82.8990878 160.3092756  86.5711445  83.1890100 157.6453077  82.4468735
  83.7853672 157.4209099  81.7325698  83.2465072 156.9037822  83.0494183
  82.7615129 155.0992512  70.2818926  83.0140649 154.5774033  69.5202389
  81.8239688 154.9358657  70.3845609  87.8058411 154.1028290  78.0893669
  88.5921501 153.6847714  77.7384086  88.0697116 155.0074383  78.2575317
  87.9768489 159.5401141  72.7882326  87.3414322 159.6135767  73.5003230
  87.6465895 160.1294740  72.1101405  93.2066839 154.0403524  78.9926647
  93.9392010 153.4702740  79.2264477  92.4506194 153.6525124  79.4333153
  82.4811417 157.0020618  72.4843301  82.3647675 156.3265521  73.1524385
  82.5913677 156.5152992  71.6675454  84.8242958 156.4630765  76.1889990
  84.4601165 155.9361386  76.9002911  85.6810074 156.0729234  76.0156475
  90.7292259 147.7525098  83.4521256  90.3975584 148.6220509  83.2282471
  90.1337872 147.4361382  84.1315286  84.4648445 151.4920665  71.1851338
  84.6322848 152.3600901  71.5521809  84.2745614 151.6547947  70.2612628
  87.2223778 159.9537644  82.8517169  86.9224502 160.8562683  82.7432976
  86.8774838 159.6869827  83.7038322  80.6736260 156.4051441  78.8853873
  79.7486756 156.2727655  79.0931565  80.9220673 157.1845660  79.3823816
  90.6220922 152.4720184  80.5314606  89.7137800 152.4035592  80.2373367
  90.5708518 152.9492129  81.3596432  84.4437666 153.9478322  72.1698005
  84.3237291 154.3935373  73.0083486  83.7490254 154.2963640  71.6111543
  78.0345071 156.0484714  79.7197662  78.1637452 156.3019193  80.6337074
  77.3542522 156.6412422  79.4002317  84.6961788 153.8909829  88.4749503
  83.9195122 154.4503750  88.4652368  85.3352351 154.3766612  88.9964373
  92.4882569 150.6736622  82.3092480  91.8456949 150.9669155  81.6632275
  91.9837497 150.5589543  83.1145677  90.1422732 154.4199795  72.9978339
  91.0540588 154.6527182  72.8226037  89.6332379 155.0036840  72.4353418
  82.9508160 156.6995283  88.0367470  83.6922845 157.2380327  87.7602294
  82.2445146 157.3261572  88.1939022  88.4263500 158.8424423  86.6339632
  88.8346856 158.4006834  85.8894264  87.7040761 158.2677051  86.8873825
  84.7794570 153.7797030  84.0073189  85.6255765 154.2036444  84.1507838
  84.7193208 153.1230654  84.7011752  88.7492315 159.4025614  80.3891921
  88.1201177 159.5671328  79.6867989  88.3617977 159.8167223  81.1602885
  92.6281546 160.3380052  77.7436284  91.9432585 160.7178953  77.1933318
  92.7125396 160.9475378  78.4768232  87.9294015 151.4401398  85.6654362
  87.6854947 152.1943459  85.1288638  88.2053946 151.8186746  86.5001609
  89.8832478 157.9840011  84.3431628  90.0949373 158.6271771  83.6666009
  89.8362226 157.1502327  83.8753558  87.4858707 150.5957831  81.2468200
  86.6243186 150.8939085  81.5384938  87.5121142 150.8128230  80.3149233
  84.3020276 159.1400022  77.6542006  84.7658622 159.4187725  76.8646628
  84.0377075 158.2383467  77.4715097  81.1944358 158.6871504  80.5921769
  81.7645715 159.1158772  79.9539254  81.7852469 158.4054088  81.2905955
  83.2389163 155.2623174  74.4631571  83.9413206 155.7144218  74.9305497
  82.9069791 154.6206993  75.0911464  81.6869524 153.8534931  88.8382780
  81.0568185 154.5351212  89.0718177  81.5805612 153.7418013  87.8935919
  76.9814496 153.5206727  79.7648705  76.1913550 153.7764256  79.2888815
  77.4725744 154.3355065  79.8700745  90.9978306 160.8611966  82.5153985
  91.8195750 160.4592154  82.2336667  90.9940709 160.7580200  83.4670101
  78.9329242 153.8851306  76.7232181  78.1360405 153.9970001  77.2415677
  78.7054834 154.2237959  75.8573072  84.7634909 160.4096010  84.6714696
  84.8279342 160.8716417  85.5072868  84.0545833 159.7793374  84.7997006
  75.2652199 153.7737217  82.1963695  75.5160238 154.6584227  82.4621271
  75.8011748 153.5941819  81.4238787  99.0884299 157.2050715  78.8638957
  98.3348007 156.6358113  78.7082961  99.2231840 157.1713379  79.8109592
  84.4782927 162.0764117  74.5393676  84.3428602 162.9215653  74.9678524
  85.0192740 162.2783395  73.7759610  80.9650267 148.1555697  91.2008031
  80.5717212 147.6021895  91.8755676  81.7816407 148.4666275  91.5914549
  77.9312325 159.5939555  75.1121601  78.4436845 160.3882805  75.2627166
  78.5835037 158.8965845  75.0455203  79.7407209 162.7105311  77.1944354
  79.9173838 163.6323276  77.0065338  80.5364043 162.3963731  77.6238734
  83.8818228 149.5713576  88.7928288  84.6227941 150.1720729  88.7132750
  84.1136151 148.8291214  88.2346331  79.0259566 154.7569943  87.0706518
  78.9113081 153.8555200  87.3713617  78.1704084 155.0033640  86.7191334
  86.1051404 162.6987684  88.6694018  85.6615258 161.9124062  88.3514923
  86.7668617 162.8866834  88.0037909  88.2032642 162.9790483  86.6975420
  88.1851117 163.7999364  86.2055689  89.1252562 162.8544559  86.9225561
  84.6605696 160.4934613  87.5398928  85.1934033 159.7322901  87.3098236
  84.1319777 160.2008265  88.2823082  75.8961241 157.9228209  75.8881172
  76.7336463 158.3325218  75.6714880  76.0739509 156.9827652  75.8581366
  87.7925673 155.5903290  71.5765005  87.2772297 156.3607895  71.8153392
  87.5202982 154.9168426  72.1998066  85.3772784 150.4352991  76.6350243
  84.5214381 150.0459841  76.4555882  85.7899736 150.5144952  75.7750029
  86.9071931 147.9699334  81.0341803  86.4036727 147.9329469  80.2209608
  87.2002538 148.8792077  81.0938460  83.1514817 148.0538064  80.0407985
  84.0167814 147.8580872  79.6813874  83.2192326 147.8248416  80.9677341
  92.7659948 158.3435645  73.5118178  91.9889390 158.0046804  73.0673340
  93.4451429 158.3488268  72.8373143  87.5811977 153.4630382  73.4024786
  87.2762112 153.7776531  74.2534929  88.5342419 153.5411802  73.4452119
  86.0258408 159.6220605  75.0517740  85.4979770 158.8873365  74.7390977
  85.5245911 160.3995282  74.8057708  91.0051254 157.8169626  80.1684786
  90.3474929 158.5068887  80.2564915  91.8091654 158.2066058  80.5118773
  80.7577136 150.2840272  77.4124351  81.3320888 150.0615453  76.6797544
  81.3448118 150.3528966  78.1652953  89.8156713 156.1713999  78.2188728
  90.3288595 156.8043990  78.7210438  90.4657937 155.5715194  77.8532088
  81.0846723 152.3144733  71.4320237  80.2484035 152.6519419  71.7529511
  80.9451493 152.1793713  70.4947374  83.0599804 147.1581521  76.1399421
  82.4064216 146.8430538  75.5156036  83.0180278 146.5357261  76.8659244
  84.1711009 157.4400816  68.0552713  83.2638070 157.2090069  68.2543862
  84.6682041 156.6438435  68.2426695  86.2937544 153.6463454  80.4647068
  85.3760106 153.8678401  80.3068757  86.7097688 153.7209765  79.6058776
  87.0772592 155.0454870  75.5949749  87.8244411 155.5576267  75.2856871
  87.3464181 154.7238923  76.4554142  85.3499242 157.5413411  72.5776703
  84.4410461 157.2572443  72.6749173  85.3794326 157.9612489  71.7180010
  90.5818509 161.1520000  76.3467871  90.1280837 160.3110910  76.4033061
  89.9512476 161.7881398  76.6842651  89.5251429 152.0811986  77.5768538
  88.7874186 151.5689372  77.9078781  89.7778203 151.6412368  76.7651815
  89.0251449 162.9896497  77.2817689  89.3174423 163.5501554  76.5630054
  89.5350069 163.2825058  78.0370848  75.9187412 155.2618925  76.5591905
  75.7211812 154.6688285  75.8342972  75.3634076 154.9571135  77.2767844
  83.8984136 155.1542031  78.6786498  83.9532746 154.2015868  78.6028975
  83.0875338 155.3101470  79.1627797  85.0475330 159.0822154  69.9164782
  84.6094760 158.3658013  69.4570419  85.7885771 159.3098269  69.3549873
  81.8376496 153.7719091  76.4376877  81.0244362 154.0713261  76.8442069
  82.3335490 153.3774780  77.1551360  83.9885074 163.7676848  78.3711142
  83.9461253 163.9937694  77.4419674  84.9047773 163.5340222  78.5196943
  87.4350708 154.2360915  85.2691771  87.7900095 154.4632388  86.1286237
  88.0822839 154.5679292  84.6469026  93.1648445 157.3579351  75.9741100
  93.0266343 157.5480947  75.0462289  92.8084663 158.1198734  76.4309151
  81.3290571 151.3437446  82.0538112  81.9689950 151.2026206  81.3561076
  80.4968101 151.0571960  81.6776714  93.1917824 159.4255878  80.9852372
  93.6254331 159.3331167  81.8335426  93.9049405 159.4013379  80.3472388
  82.1050875 160.6439877  78.1673105  82.8991473 160.1490197  77.9655680
  81.3942567 160.1157740  77.8040810  86.9245719 163.0257972  82.5185472
  86.9782741 163.5948909  83.2863188  86.0560501 163.1959857  82.1539509
  78.4133638 154.7882959  74.2432857  77.4831226 154.7267414  74.4602819
  78.5091110 154.2658911  73.4469499  78.3319187 151.3137771  76.8311099
  78.5926005 152.2283105  76.7220259  79.1536360 150.8462214  76.9807712
  79.8044113 152.7275529  84.0009924  80.4767166 152.5192891  83.3522572
  78.9773899 152.5297615  83.5615156  94.0533374 159.4679579  83.5185257
  94.2469264 160.3725389  83.7644532  93.9533992 159.0086998  84.3523842
  85.7069685 149.3537469  86.0175584  85.0597600 150.0527419  85.9240061
  86.4770700 149.7873613  86.3851833  89.1148482 159.6186322  89.0926138
  88.9633989 159.3896873  88.1756221  89.1053162 160.5756923  89.1057483
  85.8833819 157.1918234  84.0772404  86.8125879 157.3429394  83.9041371
  85.4624849 157.2802255  83.2221051  84.6822151 161.2168899  81.8470942
  84.5433236 160.8487683  82.7196880  83.8936747 161.7316538  81.6754900
  86.2327366 160.5950502  79.2359780  85.8977198 160.5551271  80.1317429
  85.7331312 159.9295217  78.7630190  80.2071610 156.0018132  84.7612361
  80.0691408 155.2698370  85.3623900  81.1176533 155.9127032  84.4796548
  89.1686557 157.9406536  69.5096839  88.5515728 157.2153364  69.4129892
  88.7003046 158.7015896  69.1663913  82.8353910 155.7138091  84.2496040
  83.5453529 155.0731283  84.2082659  82.7923219 155.9650986  85.1722221
  90.8240689 162.6505444  87.1702620  90.7653235 161.9664664  86.5033203
  91.2260208 163.3924434  86.7183246  81.5482844 152.7003309  86.0691680
  81.0120201 152.2494047  86.7213276  80.9599553 152.8349218  85.3262144
  80.9585103 152.1591960  68.6318143  80.0814570 152.0380761  68.2680390
  81.4342856 151.3678038  68.3797032  90.8258096 160.6145028  85.4016599
  89.9384875 160.2770950  85.5242998  91.3956647 159.8828059  85.6385365
  72.4787244 156.9469120  78.7259651  73.1658283 156.6330850  78.1380666
  72.3235372 157.8510485  78.4526902  77.2821966 151.8359316  83.1544674
  77.1980154 151.2284986  82.4195084  76.4604672 152.3268335  83.1554171
  84.1449029 164.5118251  75.8780664  83.3616551 165.0539931  75.9718889
  84.8441775 165.0292230  76.2774905  87.4545680 150.3212880  78.5214869
  87.9514379 149.5682842  78.2015940  86.6832661 150.3577197  77.9558079
  95.3075437 156.0253246  80.1633161  95.2965313 156.9077961  79.7927094
  94.4392816 155.6724796  79.9687698  86.8157933 165.1733315  84.5236001
  87.5285906 165.8080779  84.4511903  86.3247962 165.2697181  83.7076003
  88.5375460 159.0784567  76.0953293  87.6031739 159.1986030  75.9257997
  88.7152129 158.1757034  75.8313303  84.0380648 152.4630263  78.2486554
  83.6678436 151.9101303  78.9367460  84.5339741 151.8588396  77.6961554
  91.9248012 154.9201886  76.6303327  92.3908464 155.7529878  76.5563630
  92.3755512 154.4546868  77.3348585  81.8669847 162.9227758  85.3441572
  82.5679306 163.5564241  85.4970966  81.3964962 163.2642490  84.5837211
  89.9924243 161.2645708  73.6289479  90.2684087 161.1502302  74.5383353
  89.1228741 160.8663193  73.5901652  89.6671133 155.4772365  83.1694122
  89.0142583 155.7248273  82.5146575  90.0451513 154.6636504  82.8356600
  86.6278307 165.5132059  77.2722293  86.8100701 164.6953715  77.7350045
  87.4511293 165.7299751  76.8347183  86.9620472 164.4400244  74.5337341
  87.4908239 163.9292698  73.9207503  87.2248692 164.1242774  75.3982874
  85.7158706 156.2192176  89.6560159  85.0399343 156.1186306  90.3262535
  86.5386340 156.0631390  90.1196157  77.4637565 162.4564113  82.2772675
  78.0491002 161.7107801  82.4100579  77.2662403 162.7668070  83.1609339
  72.0555220 155.0269713  80.9977118  72.0939319 154.4933304  81.7914236
  71.5495512 154.5004919  80.3788095  79.4345982 149.8734254  84.4939660
  79.4987308 150.7349085  84.0817058  79.3713102 149.2608255  83.7612019
  78.9098254 151.9457386  88.1412694  79.5370293 151.5634464  88.7550219
  78.0526173 151.7271588  88.5068387  89.3092363 162.3520361  89.7466430
  89.8532267 162.9650320  89.2521385  88.7279208 162.9099940  90.2633443
  75.6863797 153.7533815  74.0731049  75.9817238 152.8444494  74.0198103
  74.7851833 153.7321555  73.7512051  87.5949876 165.4741079  80.8781458
  87.4701015 164.6730819  80.3692403  88.2528967 165.9687273  80.3895427
  79.2158044 151.8289812  80.0558598  78.4944630 152.4425780  79.9166071
  80.0051300 152.3647577  79.9775244  89.6584784 163.2750100  82.5061008
  88.7115120 163.1555451  82.4339334  90.0067557 162.3872598  82.5887269
  82.0184358 149.1644238  86.3299250  82.5418760 149.4106535  87.0925559
  81.7996691 149.9964273  85.9102387  77.4151639 151.4347913  74.1970374
  77.0864345 150.5545292  74.0145480  77.7691010 151.3795582  75.0846764
  86.6631218 163.0702816  78.7065360  86.5156180 162.1419523  78.8872930
  87.4884711 163.0922906  78.2222435  80.5293462 151.7220883  74.5645852
  80.8689534 152.2506804  73.8424460  80.9765582 152.0601289  75.3404419
  90.2665340 163.8931374  79.7930233  91.1911887 163.6874236  79.6554684
  90.0980643 163.6447776  80.7019574  83.2236903 150.1057934  84.0148920
  82.8833723 149.3065747  84.4169600  82.5175909 150.4059644  83.4425753
  83.8753375 147.1907246  82.4676243  84.6979444 146.7167724  82.3455133
  84.1191438 147.9697730  82.9674929  82.5161609 150.2195504  72.7639145
  83.2369972 150.5976757  72.2602862  81.8926913 150.9384381  72.8674123
  86.6592732 150.9240653  73.6997477  86.8756346 151.8065291  73.3986305
  86.1786799 150.5326867  72.9703119  81.3991953 153.8826367  80.2768222
  81.2536534 154.1966670  81.1692503  80.9217157 154.5011267  79.7239120
  83.2588336 150.8728915  80.3249111  83.2449905 149.9770008  79.9881409
  83.9760764 150.8799578  80.9587397  85.1114467 151.3066255  82.3702239
  84.8532245 152.2283325  82.3686569  84.5799507 150.9096689  83.0602703
  90.0560656 164.4117042  75.1492324  90.2297533 163.8463464  74.3966177
  90.5489547 165.2117937  74.9671814  75.8737616 156.4231711  83.2155883
  75.3291084 157.1991519  83.3476157  76.7516965 156.7702516  83.0575004
  82.6625232 149.7543295  75.5936681  82.7841143 148.8259941  75.7927569
  82.3727275 149.7681981  74.6814997  85.5316423 147.4398205  78.7303401
  85.5538119 147.5037538  77.7755381  85.9484482 146.6002714  78.9243907
  95.9100047 157.1753465  76.7682624  96.3531193 156.4260790  76.3701747
  95.0326557 157.1663601  76.3856356  91.0435828 163.7283806  72.2489222
  91.7386733 164.3490499  72.4676537  91.3858978 162.8779158  72.5241600
  76.6603637 155.5501607  86.1086040  75.9185373 155.6984243  86.6950670
  76.3396382 155.8109873  85.2452789  92.9427251 161.1783512  73.7776553
  93.4678575 161.5170785  73.0525873  92.8549604 160.2430527  73.5939688
  84.6047300 165.0917586  85.9066430  84.9134426 164.8466732  86.7789129
  85.4022782 165.2964224  85.4185300  82.0741784 162.7893504  80.2094108
  81.4521794 162.1264209  79.9096336  82.7446651 162.8154636  79.5267756
  75.3068856 161.3553362  79.0985368  74.4700764 160.9275537  78.9169369
  75.2792502 161.5485806  80.0356159  82.1466312 151.2675292  89.8026614
  82.1954467 152.1437415  89.4204384  82.6888826 150.7252685  89.2298257
  92.6321157 161.8116416  89.0827751  91.8416701 161.7940554  88.5432250
  92.3954512 162.3504709  89.8376788  92.7519032 158.6608882  86.3960480
  92.8017037 158.4958889  87.3376002  92.6432956 157.7936141  86.0058360
  81.6355291 161.3397428  73.6852568  81.7843412 162.0232892  73.0319241
  82.4421735 161.3202518  74.2002024  90.0422795 154.6439810  87.7119786
  90.9432658 154.5046275  87.4203784  90.1170769 154.8094265  88.6517964
  84.3765600 152.0206665  86.5572973  83.5068910 152.3140231  86.2855561
  84.6125081 152.6047110  87.2780236  94.2537229 161.0805823  86.6402501
  93.9622038 161.4435804  87.4765962  93.6409361 160.3672832  86.4615833
  95.4532912 158.6458703  79.1605071  96.2879803 159.0848507  79.3242632
  95.5892040 158.1697356  78.3413317  92.5024418 156.2038438  85.1082559
  92.9778539 156.3966084  84.3001411  91.5789983 156.2597624  84.8625943
  79.3907924 157.3662605  74.6913637  79.1453966 156.4624935  74.8893848
  79.5603839 157.3679756  73.7493115  87.0804634 148.2386282  84.0738393
  87.5986578 148.9747309  83.7484882  86.7259767 148.5450275  84.9085152
  78.6603572 153.0990963  72.1899799  77.9672817 153.1735318  71.5339835
  78.4155324 152.3351306  72.7121316  85.1350697 163.8345558  71.1564316
  84.5624664 164.4535745  70.7034788  85.7083490 164.3844920  71.6904238
  91.2026087 153.0804198  83.3410865  92.1543509 153.1802296  83.3623089
  91.0329537 152.2882467  83.8508949  89.2240466 150.1659781  83.5270266
  88.6290398 150.4464794  82.8316754  88.9390163 150.6553682  84.2987007
  88.3547956 164.1182708  72.2872898  89.2878630 164.0528270  72.4905774
  88.2671169 164.9538975  71.8287431  90.9835973 163.4348579  69.2476846
  90.9049605 163.1008442  70.1412604  91.8045640 163.9270346  69.2468318
  93.6814164 156.3010318  82.4553164  93.6490484 155.3626319  82.6412848
  94.2914788 156.3794355  81.7218989  85.5197495 155.1706371  68.4980368
  86.4656600 155.0412579  68.5668786  85.1411740 154.4321033  68.9749797
  93.8308653 153.0921361  82.5011448  93.3147701 152.3079818  82.3141376
  94.7148601 152.7640078  82.6657967  91.4919380 146.8362377  78.4607260
  91.2944201 146.5277465  79.3450592  92.1019085 147.5624016  78.5905190
  99.4990714 157.3626325  81.5959201 100.2294103 157.1011613  82.1566904
  98.8897660 156.6255047  81.6361269  97.5806011 155.5034187  82.1933652
  96.8539175 155.3690152  81.5850144  97.1653298 155.8111016  82.9990370
  85.4036188 159.2224117  89.9581025  86.3239197 159.4002716  90.1521072
  85.3685771 158.2780162  89.8060725  83.7040412 153.0956347  68.4335254
  82.7971868 152.7989460  68.5097967  83.9816393 152.7986165  67.5669540
  74.6218353 154.4162711  78.8834300  74.3021137 153.5628019  78.5908674
  74.0751781 154.6311289  79.6392267  78.3998260 157.1325152  82.6003807
  78.6184270 158.0642259  82.6191840  78.8124034 156.7733126  83.3858610
  85.3202478 147.6393237  74.5879495  84.5103206 147.2940322  74.9634741
  86.0086895 147.3300781  75.1767106  87.2493026 146.7171284  76.2103792
  87.8024065 147.1366737  76.8693815  87.4863113 145.7907032  76.2526748
  83.2726126 152.7058357  91.9906555  83.1722852 153.6552714  91.9218647
  83.0547668 152.3776596  91.1182626  82.4739197 149.9543282  68.5747233
  83.3358361 150.2798181  68.8343050  82.6589541 149.1674778  68.0620299
  74.4906613 158.0365622  80.8527422  73.7970084 157.6219575  80.3397376
  75.2379604 158.0786159  80.2560841  90.6271833 148.8271809  75.7182456
  90.0470502 149.4856613  75.3360508  90.3607766 148.0049153  75.3069873
  89.0775400 148.2276867  77.9203776  89.5775178 148.3393401  77.1118095
  89.7211008 147.9237919  78.5604585  83.1357396 156.1355496  90.8071617
  82.6524477 156.9355856  91.0135506  83.2218335 156.1463441  89.8539061
  76.4043355 157.9683876  78.7293436  76.3814043 158.0671563  77.7775320
  76.7143992 158.8149027  79.0510603  79.0630733 160.0260031  82.8440051
  80.0173987 159.9943973  82.7769982  78.8643257 159.5650655  83.6590277
  79.6530115 158.5961147  85.4110849  80.4723004 159.0905226  85.4345686
  79.9266923 157.6793115  85.3828416  89.4096711 150.9871899  74.7738804
  88.5222566 151.2721550  74.5558999  89.8250701 150.8265663  73.9266081
  92.7611248 151.0118420  78.4893143  93.5371638 151.5014873  78.7617760
  92.0359382 151.4376474  78.9465013  95.1983806 151.7246039  79.5467084
  95.7928297 151.4841775  78.8360392  95.2710390 151.0053170  80.1740620
  88.5539925 160.7516574  68.8686824  89.2575775 160.9566576  69.4844480
  87.8302574 161.3193336  69.1335908  89.3837735 156.5026435  74.9889094
  89.3272937 156.9594987  74.1496727  89.9366078 155.7417120  74.8111937
  93.1942541 152.2916167  75.8139214  92.9379475 151.8912803  76.6447421
  92.5695409 153.0059961  75.6889353  97.5054879 155.0312240  78.3210505
  96.9454437 155.1005430  79.0942067  96.8998382 154.8553225  77.6010001
  90.4626622 161.1899103  70.9185284  91.2972226 160.7580302  70.7362759
  90.3010965 161.0181117  71.8462179  90.1172515 157.6931216  72.2841623
  90.0621318 157.5275488  71.3430068  89.4918570 158.4007249  72.4403813
  74.9065029 152.9299281  86.1103046  75.5523893 152.4198235  86.5990271
  74.6982181 153.6667962  86.6846471  87.4318422 159.9980128  91.6095186
  88.3009581 160.1720781  91.2481821  86.9525173 160.8174545  91.4870916
  83.4268640 147.1939325  71.8626942  83.4147310 148.1381165  72.0195213
  84.3192062 147.0109471  71.5686403  87.2420759 143.7882102  76.1172879
  86.4753155 143.2340589  76.2629561  87.6531464 143.8603971  76.9787030
  79.2462520 150.0766898  90.2078060  80.1093982 149.7203703  90.4181384
  78.6727931 149.7380793  90.8953464  98.6452166 169.4320208  78.0893669
  99.4315255 169.0139631  77.7384086  98.9090870 170.3366300  78.2575317
 104.0460593 169.3695441  78.9926647 104.7785765 168.7994658  79.2264477
 103.2899949 168.9817042  79.4333153 101.5686013 163.0817015  83.4521256
 101.2369338 163.9512426  83.2282471 100.9731627 162.7653299  84.1315286
  95.3042200 166.8212582  71.1851338  95.4716602 167.6892819  71.5521809
  95.1139369 166.9839864  70.2612628 101.4614677 167.8012102  80.5314606
 100.5531554 167.7327510  80.2373367 101.4102272 168.2784046  81.3596432
 103.3276323 166.0028540  82.3092480 102.6850703 166.2961073  81.6632275
 102.8231252 165.8881460  83.1145677 100.9816487 169.7491713  72.9978339
 101.8934343 169.9819100  72.8226037 100.4726134 170.3328757  72.4353418
  95.6188324 169.1088948  84.0073189  96.4649520 169.5328361  84.1507838
  95.5586962 168.4522572  84.7011752  98.7687770 166.7693316  85.6654362
  98.5248702 167.5235377  85.1288638  99.0447700 167.1478664  86.5001609
  98.3252462 165.9249749  81.2468200  97.4636941 166.2231003  81.5384938
  98.3514896 166.1420148  80.3149233  91.8044021 163.4847615  91.2008031
  91.4110967 162.9313813  91.8755676  92.6210162 163.7958193  91.5914549
  94.7211982 164.9005494  88.7928288  95.4621696 165.5012647  88.7132750
  94.9529905 164.1583131  88.2346331  98.6669145 160.9286597  83.0692570
  98.3233415 161.8188238  82.9931680  99.0348108 160.7388254  82.2062155
  96.2166539 165.7644908  76.6350243  95.3608135 165.3751759  76.4555882
  96.6293491 165.8436869  75.7750029  97.7465686 163.2991252  81.0341803
  97.2430481 163.2621387  80.2209608  98.0396292 164.2083994  81.0938460
  93.9908571 163.3829981  80.0407985  94.8561568 163.1872790  79.6813874
  94.0586080 163.1540333  80.9677341  98.4205731 168.7922300  73.4024786
  98.1155867 169.1068449  74.2534929  99.3736173 168.8703720  73.4452119
  91.5970891 165.6132189  77.4124351  92.1714642 165.3907371  76.6797544
  92.1841873 165.6820884  78.1652953  91.9240478 167.6436650  71.4320237
  91.0877790 167.9811337  71.7529511  91.7845247 167.5085630  70.4947374
  93.8993558 162.4873438  76.1399421  93.2457971 162.1722455  75.5156036
  93.8574032 161.8649179  76.8659244  97.1331299 168.9755372  80.4647068
  96.2153860 169.1970319  80.3068757  97.5491442 169.0501682  79.6058776
 100.3645184 167.4103904  77.5768538  99.6267940 166.8981290  77.9078781
 100.6171957 166.9704285  76.7651815 100.4656811 160.1880156  78.1710307
 100.7715688 159.3277519  77.8836222 101.1909416 160.7797776  77.9709301
  98.2744462 169.5652833  85.2691771  98.6293850 169.7924306  86.1286237
  98.9216593 169.8971210  84.6469026  92.1684325 166.6729364  82.0538112
  92.8083705 166.5318123  81.3561076  91.3361856 166.3863877  81.6776714
  96.5463439 164.6829387  86.0175584  95.8991354 165.3819337  85.9240061
  97.3164454 165.1165531  86.3851833  92.3876599 168.0295226  86.0691680
  91.8513956 167.5785965  86.7213276  91.7993307 168.1641135  85.3262144
  91.7978858 167.4883878  68.6318143  90.9208324 167.3672679  68.2680390
  92.2736611 166.6969956  68.3797032  98.2939434 165.6504798  78.5214869
  98.7908134 164.8974760  78.2015940  97.5226416 165.6869114  77.9558079
 106.1469191 171.3545163  80.1633161 106.1359068 172.2369879  79.7927094
 105.2786571 171.0016714  79.9687698  94.8774403 167.7922181  78.2486554
  94.5072190 167.2393221  78.9367460  95.3733495 167.1880314  77.6961554
 102.7641766 170.2493804  76.6303327 103.2302218 171.0821796  76.5563630
 103.2149267 169.7838786  77.3348585 100.7358429 162.6174391  80.6694228
  99.8221509 162.8478618  80.8376435 101.1651530 162.7012835  81.5208261
 100.5064887 170.8064283  83.1694122  99.8536338 171.0540191  82.5146575
 100.8845267 169.9928421  82.8356600  90.2739736 165.2026171  84.4939660
  90.3381063 166.0641002  84.0817058  90.2106857 164.5900173  83.7612019
  89.7492009 167.2749304  88.1412694  90.3764048 166.8926381  88.7550219
  88.8919928 167.0563506  88.5068387  92.8578112 164.4936156  86.3299250
  93.3812514 164.7398453  87.0925559  92.6390446 165.3256191  85.9102387
  88.2545393 166.7639831  74.1970374  87.9258099 165.8837210  74.0145480
  88.6084764 166.7087499  75.0846764  91.3687216 167.0512801  74.5645852
  91.7083289 167.5798722  73.8424460  91.8159337 167.3893207  75.3404419
  94.0630657 165.4349851  84.0148920  93.7227478 164.6357664  84.4169600
  93.3569664 165.7351562  83.4425753  94.7147129 162.5199164  82.4676243
  95.5373198 162.0459642  82.3455133  94.9585193 163.2989647  82.9674929
  93.3555364 165.5487422  72.7639145  94.0763726 165.9268675  72.2602862
  92.7320668 166.2676299  72.8674123  97.4986486 166.2532571  73.6997477
  97.7150101 167.1357209  73.3986305  97.0180554 165.8618785  72.9703119
  94.0982091 166.2020832  80.3249111  94.0843660 165.3061926  79.9881409
  94.8154519 166.2091496  80.9587397  95.9508221 166.6358173  82.3702239
  95.6925999 167.5575243  82.3686569  95.4193262 166.2388607  83.0602703
  93.5018987 165.0835213  75.5936681  93.6234898 164.1551859  75.7927569
  93.2121029 165.0973899  74.6814997  96.3710177 162.7690123  78.7303401
  96.3931874 162.8329456  77.7755381  96.7878236 161.9294632  78.9243907
 106.7493801 172.5045383  76.7682624 107.1924947 171.7552708  76.3701747
 105.8720312 172.4955519  76.3856356  92.9860066 166.5967210  89.8026614
  93.0348222 167.4729333  89.4204384  93.5282580 166.0544603  89.2298257
 100.8816549 169.9731728  87.7119786 101.7826412 169.8338192  87.4203784
 100.9564524 170.1386182  88.6517964  95.2159355 167.3498582  86.5572973
  94.3462664 167.6432148  86.2855561  95.4518835 167.9339027  87.2780236
 103.3418172 171.5330356  85.1082559 103.8172294 171.7258002  84.3001411
 102.4183737 171.5889542  84.8625943  97.9198389 163.5678199  84.0738393
  98.4380332 164.3039226  83.7484882  97.5653521 163.8742193  84.9085152
  98.1710983 159.9878482  79.5939290  98.4512736 159.3201671  80.2199716
  98.9561590 160.1807577  79.0813953 102.0419841 168.4096116  83.3410865
 102.9937264 168.5094213  83.3623089 101.8723291 167.6174384  83.8508949
 100.0634220 165.4951699  83.5270266  99.4684153 165.7756712  82.8316754
  99.7783917 165.9845600  84.2987007 104.5207919 171.6302236  82.4553164
 104.4884239 170.6918236  82.6412848 105.1308542 171.7086272  81.7218989
 104.6702407 168.4213279  82.5011448 104.1541456 167.6371736  82.3141376
 105.5542356 168.0931996  82.6657967 102.3313134 162.1654295  78.4607260
 102.1337955 161.8569383  79.3450592 102.9412840 162.8915933  78.5905190
 108.4199766 170.8326105  82.1933652 107.6932929 170.6982070  81.5850144
 108.0047053 171.1402934  82.9990370  94.5434167 168.4248265  68.4335254
  93.6365622 168.1281378  68.5097967  94.8210148 168.1278083  67.5669540
  96.1596233 162.9685155  74.5879495  95.3496961 162.6232240  74.9634741
  96.8480649 162.6592698  75.1767106  98.0886781 162.0463201  76.2103792
  98.6417819 162.4658655  76.8693815  98.3256867 161.1198949  76.2526748
  94.1119880 168.0350275  91.9906555  94.0116607 168.9844632  91.9218647
  93.8941422 167.7068514  91.1182626  93.3132951 165.2835200  68.5747233
  94.1752115 165.6090098  68.8343050  93.4983296 164.4966696  68.0620299
 101.4665588 164.1563727  75.7182456 100.8864257 164.8148531  75.3360508
 101.2001521 163.3341071  75.3069873  99.9169154 163.5568784  77.9203776
 100.4168933 163.6685319  77.1118095 100.5604762 163.2529837  78.5604585
 100.2490466 166.3163817  74.7738804  99.3616321 166.6013468  74.5558999
 100.6644455 166.1557580  73.9266081 103.6005002 166.3410338  78.4893143
 104.3765392 166.8306790  78.7617760 102.8753136 166.7668392  78.9465013
 106.0377561 167.0537957  79.5467084 106.6322052 166.8133693  78.8360392
 106.1104144 166.3345088  80.1740620 104.0336296 167.6208085  75.8139214
 103.7773230 167.2204720  76.6447421 103.4089164 168.3351879  75.6889353
 108.3448633 170.3604158  78.3210505 107.7848191 170.4297347  79.0942067
 107.7392137 170.1845143  77.6010001  94.2662394 162.5231243  71.8626942
  94.2541064 163.4673083  72.0195213  95.1585816 162.3401389  71.5686403
  98.0814514 159.1174020  76.1172879  97.3146910 158.5632506  76.2629561
  98.4925219 159.1895889  76.9787030  90.0856275 165.4058816  90.2078060
  90.9487737 165.0495620  90.4181384  89.5121686 165.0672710  90.8953464
  12.3760863  26.0795535  67.7385768  13.0139273  25.9602283  67.0349108
  12.2581706  27.0276379  67.7973720   9.1850569  26.0322964  67.6747292
   8.8469081  25.9164028  66.7867827  10.0540337  25.6314129  67.6548298
   5.0437385  27.8858440  63.6644183   4.4802250  27.7948377  62.8960471
   4.9289780  27.0658344  64.1446676   9.6670352  27.1857815  73.6333498
   9.6558993  26.7910614  72.7614001   9.8290991  26.4523888  74.2267269
   2.5901817  29.3809632  66.5028404   3.3823109  29.0400456  66.0874703
   2.8298467  29.4904607  67.4230557  10.6236943  31.5529408  58.9758648
   9.9724923  32.1383488  58.5892662  11.4181306  32.0835603  59.0353686
   4.5492571  28.6418545  59.3745782   5.3223447  28.0947532  59.2358658
   4.9017969  29.5062794  59.5860244   6.3877613  29.9694927  72.5812682
   6.0967479  30.8740558  72.4659348   7.0234598  30.0111455  73.2956751
   7.3133820  27.3471776  69.1714041   7.9097392  27.1227798  68.4571004
   7.3708792  26.6056521  69.7739489   6.8858848  24.8011211  57.0064232
   7.1384369  24.2792732  56.2447695   5.9483408  24.6377356  57.1090916
  11.9302131  23.8046989  64.8138976  12.7165220  23.3866412  64.4629393
  12.1940836  24.7093081  64.9820624  12.1012209  29.2419840  59.5127632
  11.4658042  29.3154466  60.2248537  11.7709615  29.8313438  58.8346712
  17.3310558  23.7422222  65.7171954  18.0635730  23.1721439  65.9509784
  16.5749914  23.3543823  66.1578460   6.6055137  26.7039317  59.2088607
   6.4891395  26.0284220  59.8769692   6.7157397  26.2171691  58.3920760
   8.9486678  26.1649464  62.9135297   8.5844885  25.6380085  63.6248218
   9.8053794  25.7747933  62.7401782  14.8535979  17.4543797  70.1766563
  14.5219304  18.3239208  69.9527778  14.2581592  17.1380081  70.8560593
   8.5892165  21.1939364  57.9096645   8.7566567  22.0619600  58.2767116
   8.3989334  21.3566645  56.9857934  11.3467498  29.6556343  69.5762475
  11.0468221  30.5581381  69.4678283  11.0018558  29.3888526  70.4283628
   4.7979980  26.1070139  65.6099180   3.8730476  25.9746354  65.8176872
   5.0464393  26.8864359  66.1069122  14.7464642  22.1738883  67.2559913
  13.8381519  22.1054291  66.9618674  14.6952238  22.6510828  68.0841738
   8.5681386  23.6497021  58.8943312   8.4481011  24.0954072  59.7328792
   7.8733974  23.9982339  58.3356850   2.1588791  25.7503413  66.4442969
   2.2881172  26.0037892  67.3582381   1.4786242  26.3431121  66.1247624
   6.3288278  36.4200663  62.5433443   6.2512308  37.3708488  62.6221924
   5.7249922  36.0746535  63.2008369   8.8205508  23.5928528  75.1994810
   8.0438842  24.1522448  75.1897675   9.4596071  24.0785311  75.7209680
  16.6126288  20.3755321  69.0337787  15.9700669  20.6687854  68.3877581
  16.1081217  20.2608241  69.8390983  14.2666452  24.1218494  59.7223646
  15.1784308  24.3545881  59.5471343  13.7576099  24.7055539  59.1598725
   7.0751880  26.4013982  74.7612777   7.8166564  26.9399026  74.4847601
   6.3688866  27.0280270  74.9184329  12.5507220  28.5443122  73.3584938
  12.9590576  28.1025533  72.6139571  11.8284481  27.9695750  73.6119131
   8.9038290  23.4815729  70.7318495   9.7499485  23.9055142  70.8753144
   8.8436927  22.8249353  71.4257059  12.8736034  29.1044313  67.1137227
  12.2444897  29.2690027  66.4113295  12.4861696  29.5185922  67.8848191
  16.7525266  30.0398751  64.4681591  16.0676304  30.4197652  63.9178624
  16.8369116  30.6494077  65.2013539  12.0537735  21.1420097  72.3899669
  11.8098667  21.8962158  71.8533945  12.3297666  21.5205445  73.2246916
  14.0076198  27.6858710  71.0676935  14.2193093  28.3290470  70.3911316
  13.9605946  26.8521026  70.5998865  11.6102427  20.2976530  67.9713507
  10.7486906  20.5957784  68.2630244  11.6364862  20.5146929  67.0394539
   8.4263996  28.8418721  64.3787312   8.8902342  29.1206424  63.5891935
   8.1620794  27.9402165  64.1960403   5.3188077  28.3890202  67.3167076
   5.8889434  28.8177471  66.6784560   5.9096189  28.1072787  68.0151261
   7.3632882  24.9641873  61.1876878   8.0656926  25.4162917  61.6550804
   7.0313511  24.3225692  61.8156771   5.8113244  23.5553630  75.5628087
   5.1811904  24.2369911  75.7963484   5.7049332  23.4436711  74.6181225
  15.1222026  30.5630665  69.2399292  15.9439470  30.1610852  68.9581974
  15.1184429  30.4598899  70.1915408   3.0572962  23.5870005  63.4477488
   2.2604125  23.6988699  63.9660984   2.8298554  23.9256657  62.5818378
   8.8878629  30.1114708  71.3960002   8.9523062  30.5735116  72.2318174
   8.1789553  29.4812073  71.5242312  23.2128019  26.9069414  65.5884263
  22.4591727  26.3376812  65.4328268  23.3475560  26.8732078  66.5354898
   8.6026647  31.7782816  61.2638983   8.4672322  32.6234352  61.6923831
   9.1436459  31.9802094  60.5004917   2.0556044  29.2958254  61.8366908
   2.5680565  30.0901504  61.9872473   2.7078757  28.5984544  61.7700509
   3.8650929  32.4124010  63.9189661   4.0417557  33.3341975  63.7310645
   4.6607763  32.0982429  64.3484041   8.0061948  19.2732275  75.5173595
   8.7471661  19.8739428  75.4378057   8.2379870  18.5309913  74.9591637
   3.1503286  24.4588642  73.7951824   3.0356801  23.5573899  74.0958923
   2.2947803  24.7052339  73.4436641  10.2295123  32.4006382  75.3939325
   9.7858978  31.6142761  75.0760229  10.8912337  32.5885533  74.7283216
   4.9882245  33.9302184  69.9200003   5.5389670  33.8019247  69.1476997
   4.1493720  34.2297073  69.5694896  12.3276361  32.6809182  73.4220726
  12.3094837  33.5018063  72.9300995  13.2496281  32.5563258  73.6470867
   8.7849416  30.1953312  74.2644235   9.3177752  29.4341600  74.0343543
   8.2563497  29.9026964  75.0068389  11.9169393  25.2921989  58.3010311
  11.4016017  26.0626593  58.5398699  11.6446702  24.6187125  58.9243373
   9.5016504  20.1371690  63.3595550   8.6458101  19.7478540  63.1801188
   9.9143456  20.2163650  62.4995335  11.0315651  17.6718033  67.7587110
  10.5280447  17.6348168  66.9454915  11.3246258  18.5810776  67.8183766
  16.8903667  28.0454344  60.2363485  16.1133110  27.7065503  59.7918647
  17.5695148  28.0506967  59.5618450  11.7055696  23.1649081  60.1270093
  11.4005832  23.4795230  60.9780236  12.6586139  23.2430501  60.1697426
  10.1502128  29.3239304  61.7763047   9.6223490  28.5892064  61.4636284
   9.6489631  30.1013981  61.5303015  15.1294974  27.5188325  66.8930093
  14.4718649  28.2087586  66.9810221  15.9335374  27.9084757  67.2364079
  13.9400433  25.8732697  64.9434035  14.4532315  26.5062689  65.4455744
  14.5901657  25.2733893  64.5777395   5.2090443  22.0163432  58.1565543
   4.3727755  22.3538118  58.4774818   5.0695213  21.8812411  57.2192680
   8.2954728  27.1419515  54.7798020   7.3881790  26.9108768  54.9789169
   8.7925760  26.3457134  54.9672001  11.2022807  35.8517022  57.6994706
  10.5284506  36.1548718  58.3079664  11.5888629  36.6546102  57.3500163
  10.4181264  23.3482153  67.1892375   9.5003825  23.5697100  67.0314063
  10.8341408  23.4228463  66.3304082  11.2016312  24.7473569  62.3195055
  11.9488131  25.2594966  62.0102177  11.4707901  24.4257621  63.1799449
   9.4742962  27.2432109  59.3022010   8.5654181  26.9591142  59.3994479
   9.5038046  27.6631188  58.4425317  14.7062229  30.8538699  63.0713177
  14.2524556  30.0129609  63.1278368  14.0756196  31.4900097  63.4087957
  13.6495149  21.7830685  64.3013845  12.9117906  21.2708071  64.6324087
  13.9021922  21.3431067  63.4897122  13.1495169  32.6915196  64.0062995
  13.4418143  33.2520253  63.2875361  13.6593789  32.9843757  64.7616154
   8.0227856  24.8560730  65.4031805   8.0776466  23.9034566  65.3274282
   7.2119058  25.0120169  65.8873103   9.1719050  28.7840853  56.6410088
   8.7338480  28.0676712  56.1815726   9.9129491  29.0116968  56.0795180
   5.9620216  23.4737790  63.1622184   5.1488081  23.7731960  63.5687376
   6.4579210  23.0793479  63.8796666   8.1128794  33.4695547  65.0956449
   8.0704973  33.6956393  64.1664981   9.0291493  33.2358921  65.2442250
  11.5594428  23.9379614  71.9937078  11.9143815  24.1651087  72.8531544
  12.2066559  24.2697991  71.3714333  17.2892164  27.0598050  62.6986407
  17.1510063  27.2499646  61.7707596  16.9328383  27.8217433  63.1554458
  17.3161544  29.1274577  67.7097678  17.7498051  29.0349866  68.5580732
  18.0293125  29.1032078  67.0717694   6.2294595  30.3458576  64.8918411
   7.0235193  29.8508896  64.6900986   5.5186287  29.8176439  64.5286117
  11.0489439  32.7276671  69.2430779  11.1026461  33.2967608  70.0108495
  10.1804220  32.8978556  68.8784816   2.5377358  24.4901657  60.9678164
   1.6074946  24.4286113  61.1848126   2.6334830  23.9677610  60.1714805
   3.9287832  22.4294227  70.7255230   4.6010886  22.2211590  70.0767879
   3.1017619  22.2316313  70.2860462  18.1777094  29.1698278  70.2430564
  18.3712984  30.0744088  70.4889839  18.0777712  28.7105697  71.0769149
   9.8313404  19.0556168  72.7420891   9.1841319  19.7546118  72.6485367
  10.6014420  19.4892312  73.1097139  13.2392202  29.3205021  75.8171444
  13.0877709  29.0915572  74.9001528  13.2296882  30.2775622  75.8302789
  10.0077539  26.8936933  70.8017711  10.9369599  27.0448093  70.6286678
   9.5868569  26.9820954  69.9466357   8.8065871  30.9187598  68.5716248
   8.6676956  30.5506382  69.4442187   8.0180467  31.4335237  68.4000206
   9.4014022  36.0196694  59.9141785   9.5765778  35.5484737  60.7287408
   8.7146811  36.6462460  60.1423046  10.3571086  30.2969200  65.9605086
  10.0220918  30.2569970  66.8562736   9.8575031  29.6313916  65.4875496
   4.3315330  25.7036830  71.4857667   4.1935128  24.9717069  72.0869206
   5.2420253  25.6145731  71.2041855  13.2930277  27.6425235  56.2342146
  12.6759448  26.9172063  56.1375199  12.8246766  28.4034595  55.8909220
   6.9597630  25.4156790  70.9741347   7.6697249  24.7749982  70.9327965
   6.9166938  25.6669685  71.8967528  14.9484409  32.3524143  73.8947926
  14.8896955  31.6683363  73.2278509  15.3503927  33.0943133  73.4428552
   5.6726564  22.4022008  72.7936986   5.1363921  21.9512746  73.4458583
   5.0843273  22.5367916  72.0507451   3.9675108  39.1686057  66.6881645
   4.2071706  39.8004581  67.3660664   3.1244304  38.8174097  66.9747004
   5.0828823  21.8610659  55.3563450   4.2058290  21.7399460  54.9925697
   5.5586576  21.0696737  55.1042339  14.9501816  30.3163727  72.1261906
  14.0628595  29.9789649  72.2488305  15.5200367  29.5846758  72.3630671
   8.4802970  34.9765179  69.0923149   8.4073141  35.7820151  69.6042454
   8.0380363  35.1757145  68.2671170   8.2692749  34.2136949  62.6025971
   7.4860271  34.7558630  62.6964195   8.9685494  34.7310929  63.0020212
  11.5789399  20.0231579  65.2460176  12.0758099  19.2701541  64.9261246
  10.8076381  20.0595896  64.6803385  19.4319157  25.7271944  66.8878468
  19.4209033  26.6096660  66.5172401  18.5636536  25.3743495  66.6933005
  10.9401653  34.8752013  71.2481308  11.6529625  35.5099478  71.1757209
  10.4491682  34.9715879  70.4321310  12.6619180  28.7803266  62.8198599
  11.7275459  28.9004729  62.6503304  12.8395849  27.8775733  62.5558609
   8.1624368  22.1648962  64.9731861   7.7922156  21.6120002  65.6612766
   8.6583461  21.5607095  64.4206861  16.0491731  24.6220585  63.3548634
  16.5152184  25.4548577  63.2808936  16.4999232  24.1565567  64.0593892
   5.9913567  32.6246457  72.0686879   6.6923026  33.2582940  72.2216273
   5.5208682  32.9661188  71.3082518  14.1167963  30.9664407  60.3534786
  14.3927806  30.8521001  61.2628660  13.2472461  30.5681891  60.3146959
  14.0208394  16.9901172  67.3939535  13.1071474  17.2205399  67.5621742
  14.4501496  17.0739616  68.2453567  13.7914853  25.1791064  69.8939429
  13.1386303  25.4266972  69.2391882  14.1695233  24.3655202  69.5601906
  10.7522027  35.2150757  63.9967599  10.9344421  34.3972413  64.4595352
  11.5755013  35.4318450  63.5592489  11.0864192  34.1418943  61.2582648
  11.6151958  33.6311397  60.6452810  11.3492412  33.8261473  62.1228181
   9.8402426  25.9210875  76.3805466   9.1643063  25.8205005  77.0507841
  10.6630060  25.7650089  76.8441463   1.5881285  32.1582812  69.0017981
   2.1734722  31.4126500  69.1345885   1.3906123  32.4686769  69.8854645
   4.4419940  35.1934059  64.0180424   3.7730315  35.6780187  63.5344464
   4.3032810  35.4403280  64.9323802   8.5825209  37.2277803  70.6163082
   9.1343517  37.3909424  71.3812167   8.9231402  37.8182241  69.9443107
  13.4336083  32.0539060  76.4711736  13.9775987  32.6669019  75.9766691
  12.8522928  32.6118639  76.9878749  11.7193596  35.1759778  67.6026764
  11.5944735  34.3749518  67.0937710  12.3772687  35.6705972  67.1140734
  13.7828504  32.9768798  69.2306314  12.8358840  32.8574150  69.1584641
  14.1311277  32.0891296  69.3132576  10.7874938  32.7721515  65.4310666
  10.6399900  31.8438222  65.6118237  11.6128431  32.7941605  64.9467742
   4.6537182  21.4239582  61.2891159   4.9933254  21.9525503  60.5669767
   5.1009302  21.7619988  62.0649725  14.3909059  33.5950073  66.5175539
  15.3155607  33.3892935  66.3799990  14.2224363  33.3466475  67.4264881
   6.6405329  19.9214203  59.4884451   7.3613691  20.2995456  58.9848168
   6.0170633  20.6403080  59.5919429  10.7836452  20.6259352  60.4242784
  11.0000066  21.5083990  60.1231612  10.3030519  20.2345566  59.6948426
   5.5235673  23.5845066  67.0013528   5.3780254  23.8985369  67.8937810
   5.0460877  24.2029966  66.4484427   7.3832056  20.5747613  67.0494418
   7.3693625  19.6788707  66.7126716   8.1004484  20.5818277  67.6832704
   9.2358187  21.0084954  69.0947545   8.9775965  21.9302024  69.0931876
   8.7043227  20.6115388  69.7848009  14.1804376  34.1135741  61.8737631
  14.3541253  33.5482163  61.1211483  14.6733267  34.9136636  61.6917121
  20.0343767  26.8772164  63.4927930  20.4774913  26.1279489  63.0947054
  19.1570277  26.8682300  63.1101662  15.1679548  33.4302505  58.9734529
  15.8630453  34.0509198  59.1921844  15.5102698  32.5797856  59.2486907
  17.0670971  30.8802211  60.5021860  17.5922295  31.2189484  59.7771180
  16.9793324  29.9449226  60.3184994   8.7291020  34.7936284  72.6311736
   9.0378146  34.5485431  73.5034436   9.5266502  34.9982923  72.1430607
   8.7511632  36.9474194  64.8617113   8.3116622  36.4550573  65.5549970
   9.5019749  36.4047162  64.6209188   1.2303971  33.1385735  64.8641741
   2.0561991  32.8389507  64.4840385   0.8798023  32.3693357  65.3131530
   6.1985504  32.4912203  66.9339415   5.5765513  31.8282908  66.6341642
   6.8690371  32.5173335  66.2513062   6.2710032  20.9693991  76.5271921
   6.3198187  21.8456114  76.1449690   6.8132546  20.4271384  75.9543564
  16.7564877  31.5135114  75.8073058  15.9660421  31.4959253  75.2677557
  16.5198232  32.0523408  76.5622094  16.8762752  28.3627581  73.1205786
  16.9260757  28.1977588  74.0621309  16.7676676  27.4954840  72.7303667
   5.7599011  31.0416126  60.4097875   5.9087131  31.7251591  59.7564548
   6.5665454  31.0221217  60.9247331  14.1666515  24.3458509  74.4365093
  15.0676377  24.2064974  74.1449091  14.2414489  24.5112964  75.3763270
   8.5009320  21.7225364  73.2818279   7.6312629  22.0158930  73.0100868
   8.7368800  22.3065809  74.0025543  18.3780949  30.7824522  73.3647808
  18.0865757  31.1454503  74.2011269  17.7653080  30.0691531  73.1861140
  19.5776631  28.3477402  65.8850378  20.4123523  28.7867206  66.0487938
  19.7135760  27.8716055  65.0658624  16.6268137  25.9057137  71.8327866
  17.1022259  26.0984783  71.0246717  15.7033703  25.9616323  71.5871249
   3.5151644  27.0681304  61.4158944   3.2697686  26.1643634  61.6139154
   3.6847559  27.0698455  60.4738422  11.2048354  17.9404980  70.7983700
  11.7230298  18.6766007  70.4730188  10.8503487  18.2468974  71.6330459
   9.2594417  33.5364257  57.8809623   8.6868384  34.1554444  57.4280094
   9.8327210  34.0863619  58.4149544  15.3269806  22.7822897  70.0656171
  16.2787229  22.8820995  70.0868395  15.1573257  21.9901166  70.5754256
  13.3484186  19.8678480  70.2515572  12.7534118  20.1483493  69.5562061
  13.0633883  20.3572381  71.0232313  12.4791676  33.8201407  59.0118205
  13.4122349  33.7546969  59.2151080  12.3914889  34.6557674  58.5532737
  15.1079693  33.1367277  55.9722152  15.0293324  32.8027141  56.8657910
  15.9289360  33.6289045  55.9713625  17.8057884  26.0029017  69.1798471
  17.7734204  25.0645017  69.3658155  18.4158508  26.0813053  68.4464296
   9.6441215  24.8725070  55.2225675  10.5900320  24.7431278  55.2914093
   9.2655460  24.1339732  55.6995103  17.9552373  22.7940060  69.2256754
  17.4391421  22.0098517  69.0386683  18.8392321  22.4658777  69.3903274
  15.6163100  16.5381076  65.1852567  15.4187921  16.2296164  66.0695899
  16.2262805  17.2642715  65.3150497  23.6234434  27.0645024  68.3204508
  24.3537822  26.8030312  68.8812211  23.0141379  26.3273745  68.3606576
  21.7049731  25.2052886  68.9178959  20.9782895  25.0708851  68.3095451
  21.2897018  25.5129715  69.7235677   9.5279908  28.9242816  76.6826332
  10.4482917  29.1021415  76.8766379   9.4929491  27.9798861  76.5306031
   7.8284132  22.7975046  55.1580560   6.9215588  22.5008159  55.2343274
   8.1060113  22.5004864  54.2914847   2.5241980  26.8343850  69.3249113
   2.7427990  27.7660958  69.3437147   2.9367754  26.4751825  70.1103917
   7.3969845  22.4077056  78.7151862   7.2966572  23.3571413  78.6463953
   7.1791387  22.0795295  77.8427932  14.7515553  18.5290508  62.4427762
  14.1714222  19.1875312  62.0605815  14.4851486  17.7067852  62.0315180
  13.2019120  17.9295565  64.6449083  13.7018898  18.0412100  63.8363402
  13.8454728  17.6256618  65.2849891   7.2601115  25.8374195  77.5316924
   6.7768197  26.6374555  77.7380813   7.3462054  25.8482140  76.5784368
   0.5287075  27.6702575  65.4538743   0.5057763  27.7690262  64.5020626
   0.8387712  28.5167726  65.7755909   3.1874453  29.7278730  69.5685358
   4.1417706  29.6962672  69.5015289   2.9886977  29.2669353  70.3835583
   3.7773835  28.2979846  72.1356155   4.5966724  28.7923924  72.1590992
   4.0510643  27.3811814  72.1073723  13.5340431  20.6890598  61.4984111
  12.6466286  20.9740249  61.2804305  13.9494420  20.5284361  60.6511388
  16.8854967  20.7137119  65.2138450  17.6615358  21.2033572  65.4863067
  16.1603102  21.1395173  65.6710319  19.3227526  21.4264738  66.2712391
  19.9172017  21.1860474  65.5605699  19.3954110  20.7071869  66.8985927
   1.5424682  35.2698349  66.5855555   1.4079150  34.5098750  66.0193553
   1.1256744  35.9939249  66.1184344  12.6783645  30.4535273  55.5932131
  13.3819495  30.6585275  56.2089786  11.9546294  31.0212035  55.8581214
  13.5081455  26.2045134  61.7134401  13.4516656  26.6613685  60.8742033
  14.0609797  25.4435819  61.5357244  17.3186261  21.9934866  62.5384520
  17.0623195  21.5931502  63.3692728  16.6939129  22.7078660  62.4134660
  21.6298599  24.7330939  65.0455812  21.0698157  24.8024128  65.8187374
  21.0242102  24.5571924  64.3255308   4.6993808  36.1667666  66.7973998
   4.5826192  37.1113099  66.6952688   3.8786254  35.8641228  67.1859797
  14.5870342  30.8917802  57.6430591  15.4215946  30.4599000  57.4608066
  14.4254685  30.7199816  58.5707485  14.2416234  27.3949915  59.0086930
  14.1865038  27.2294187  58.0675374  13.6162290  28.1025948  59.1649120
  11.5562142  29.6998827  78.3340493  12.4253301  29.8739479  77.9727128
  11.0768893  30.5193244  78.2116222   5.7248322  36.8195928  70.0129926
   6.6275568  36.8519538  70.3296421   5.4985692  35.8896379  70.0276262
   7.4801924  35.5726915  66.6740005   6.5297555  35.5728776  66.5604377
   7.7834410  34.8259649  66.1576040  23.2154617  41.4087453  67.7385768
  23.8533027  41.2894200  67.0349108  23.0975460  42.3568297  67.7973720
  20.0244324  41.3614881  67.6747292  19.6862835  41.2455946  66.7867827
  20.8934092  40.9606046  67.6548298  15.8831139  43.2150358  63.6644183
  15.3196004  43.1240295  62.8960471  15.7683534  42.3950262  64.1446676
  20.5064107  42.5149733  73.6333498  20.4952747  42.1202531  72.7614001
  20.6684746  41.7815806  74.2267269  13.4295571  44.7101549  66.5028404
  14.2216863  44.3692374  66.0874703  13.6692221  44.8196524  67.4230557
  21.4630698  46.8821325  58.9758648  20.8118678  47.4675406  58.5892662
  22.2575061  47.4127520  59.0353686  15.3886325  43.9710462  59.3745782
  16.1617201  43.4239450  59.2358658  15.7411724  44.8354712  59.5860244
  17.2271368  45.2986845  72.5812682  16.9361234  46.2032476  72.4659348
  17.8628352  45.3403372  73.2956751  18.1527575  42.6763693  69.1714041
  18.7491147  42.4519716  68.4571004  18.2102546  41.9348439  69.7739489
  17.7252603  40.1303129  57.0064232  17.9778124  39.6084650  56.2447695
  16.7877162  39.9669274  57.1090916  22.7695886  39.1338907  64.8138976
  23.5558975  38.7158330  64.4629393  23.0334590  40.0384999  64.9820624
  22.9405963  44.5711757  59.5127632  22.3051796  44.6446384  60.2248537
  22.6103369  45.1605356  58.8346712  28.1704313  39.0714140  65.7171954
  28.9029485  38.5013357  65.9509784  27.4143669  38.6835741  66.1578460
  17.4448892  42.0331235  59.2088607  17.3285150  41.3576138  59.8769692
  17.5551152  41.5463608  58.3920760  19.7880433  41.4941382  62.9135297
  19.4238640  40.9672003  63.6248218  20.6447548  41.1039851  62.7401782
  25.6929733  32.7835714  70.1766563  25.3613058  33.6531125  69.9527778
  25.0975347  32.4671998  70.8560593  19.4285920  36.5231281  57.9096645
  19.5960322  37.3911518  58.2767116  19.2383089  36.6858563  56.9857934
  22.1861253  44.9848260  69.5762475  21.8861976  45.8873299  69.4678283
  21.8412312  44.7180443  70.4283628  15.6373734  41.4362057  65.6099180
  14.7124231  41.3038271  65.8176872  15.8858147  42.2156276  66.1069122
  25.5858397  37.5030800  67.2559913  24.6775274  37.4346209  66.9618674
  25.5345992  37.9802745  68.0841738  19.4075140  38.9788939  58.8943312
  19.2874766  39.4245990  59.7328792  18.7127729  39.3274257  58.3356850
  12.9982545  41.0795331  66.4442969  13.1274926  41.3329810  67.3582381
  12.3179997  41.6723039  66.1247624  17.1682033  51.7492581  62.5433443
  17.0906062  52.7000406  62.6221924  16.5643676  51.4038453  63.2008369
  19.6599262  38.9220446  75.1994810  18.8832596  39.4814366  75.1897675
  20.2989825  39.4077229  75.7209680  27.4520043  35.7047239  69.0337787
  26.8094423  35.9979772  68.3877581  26.9474971  35.5900159  69.8390983
  25.1060207  39.4510412  59.7223646  26.0178063  39.6837799  59.5471343
  24.5969854  40.0347456  59.1598725  17.9145635  41.7305899  74.7612777
  18.6560319  42.2690943  74.4847601  17.2082620  42.3572188  74.9184329
  23.3900974  43.8735040  73.3584938  23.7984330  43.4317450  72.6139571
  22.6678236  43.2987667  73.6119131  19.7432044  38.8107647  70.7318495
  20.5893240  39.2347060  70.8753144  19.6830682  38.1541271  71.4257059
  23.7129789  44.4336230  67.1137227  23.0838651  44.5981945  66.4113295
  23.3255451  44.8477840  67.8848191  27.5919021  45.3690668  64.4681591
  26.9070059  45.7489570  63.9178624  27.6762870  45.9785995  65.2013539
  22.8931490  36.4712015  72.3899669  22.6492422  37.2254076  71.8533945
  23.1691420  36.8497363  73.2246916  24.8469952  43.0150627  71.0676935
  25.0586848  43.6582387  70.3911316  24.7999701  42.1812944  70.5998865
  22.4496181  35.6268448  67.9713507  21.5880660  35.9249702  68.2630244
  22.4758616  35.8438847  67.0394539  19.2657751  44.1710639  64.3787312
  19.7296096  44.4498342  63.5891935  19.0014549  43.2694083  64.1960403
  16.1581832  43.7182120  67.3167076  16.7283189  44.1469388  66.6784560
  16.7489944  43.4364705  68.0151261  18.2026637  40.2933791  61.1876878
  18.9050680  40.7454835  61.6550804  17.8707265  39.6517610  61.8156771
  16.6506998  38.8845548  75.5628087  16.0205659  39.5661828  75.7963484
  16.5443086  38.7728629  74.6181225  11.9451971  38.5517344  66.4894011
  11.1551025  38.8074872  66.0134122  12.4363218  39.3665681  66.5946052
  25.9615780  45.8922583  69.2399292  26.7833224  45.4902770  68.9581974
  25.9578183  45.7890817  70.1915408  13.8966716  38.9161923  63.4477488
  13.0997879  39.0280617  63.9660984  13.6692308  39.2548575  62.5818378
  19.7272384  45.4406626  71.3960002  19.7916816  45.9027033  72.2318174
  19.0183308  44.8103991  71.5242312  10.2289674  38.8047834  68.9209002
  10.4797712  39.6894844  69.1866578  10.7649222  38.6252436  68.1484094
  34.0521773  42.2361331  65.5884263  33.2985482  41.6668729  65.4328268
  34.1869315  42.2023996  66.5354898  19.4420401  47.1074734  61.2638983
  19.3066076  47.9526269  61.6923831  19.9830214  47.3094011  60.5004917
  15.9287741  33.1866313  77.9253338  15.5354687  32.6332512  78.6000982
  16.7453881  33.4976892  78.3159856  12.8949799  44.6250172  61.8366908
  13.4074319  45.4193422  61.9872473  13.5472512  43.9276462  61.7700509
  14.7044684  47.7415928  63.9189661  14.8811312  48.6633893  63.7310645
  15.5001517  47.4274347  64.3484041  18.8455702  34.6024192  75.5173595
  19.5865415  35.2031346  75.4378057  19.0773625  33.8601830  74.9591637
  13.9897040  39.7880560  73.7951824  13.8750555  38.8865817  74.0958923
  13.1341558  40.0344257  73.4436641  21.0688878  47.7298300  75.3939325
  20.6252732  46.9434679  75.0760229  21.7306091  47.9177451  74.7283216
  15.8275999  49.2594102  69.9200003  16.3783424  49.1311165  69.1476997
  14.9887475  49.5588991  69.5694896  23.1670116  48.0101100  73.4220726
  23.1488591  48.8309981  72.9300995  24.0890036  47.8855175  73.6470867
  19.6243170  45.5245229  74.2644235  20.1571507  44.7633518  74.0343543
  19.0957251  45.2318881  75.0068389  22.7912865  30.6305295  69.7937876
  22.4477134  31.5206937  69.7176987  23.1591828  30.4406953  68.9307461
  10.8598716  42.9538826  62.6126478  11.6973938  43.3635834  62.3960186
  11.0376983  42.0138268  62.5826672  22.7563148  40.6213907  58.3010311
  22.2409771  41.3918511  58.5398699  22.4840456  39.9479043  58.9243373
  20.3410259  35.4663607  63.3595550  19.4851855  35.0770458  63.1801188
  20.7537211  35.5455568  62.4995335  21.8709405  33.0009951  67.7587110
  21.3674201  32.9640086  66.9454915  22.1640012  33.9102693  67.8183766
  18.1152291  33.0848680  66.7653291  18.9805288  32.8891489  66.4059181
  18.1829800  32.8559032  67.6922648  27.7297422  43.3746261  60.2363485
  26.9526865  43.0357421  59.7918647  28.4088903  43.3798884  59.5618450
  22.5449451  38.4940999  60.1270093  22.2399586  38.8087148  60.9780236
  23.4979893  38.5722419  60.1697426  20.9895883  44.6531222  61.7763047
  20.4617244  43.9183982  61.4636284  20.4883385  45.4305898  61.5303015
  25.9688729  42.8480242  66.8930093  25.3112403  43.5379504  66.9810221
  26.7729128  43.2376674  67.2364079  15.7214610  35.3150888  64.1369658
  16.2958362  35.0926070  63.4042851  16.3085593  35.3839583  64.8898259
  24.7794188  41.2024615  64.9434035  25.2926069  41.8354607  65.4455744
  25.4295411  40.6025811  64.5777395  16.0484197  37.3455349  58.1565543
  15.2121510  37.6830036  58.4774818  15.9088967  37.2104329  57.2192680
  18.0237278  32.1892137  62.8644728  17.3701690  31.8741154  62.2401342
  17.9817752  31.5667878  63.5904550  19.1348483  42.4711432  54.7798020
  18.2275545  42.2400686  54.9789169  19.6319515  41.6749051  54.9672001
  22.0416562  51.1808939  57.6994706  21.3678261  51.4840636  58.3079664
  22.4282384  51.9838020  57.3500163  21.2575018  38.6774071  67.1892375
  20.3397580  38.8989018  67.0314063  21.6735162  38.7520381  66.3304082
  22.0410066  40.0765486  62.3195055  22.7881885  40.5886884  62.0102177
  22.3101656  39.7549539  63.1799449  20.3136716  42.5724027  59.3022010
  19.4047936  42.2883060  59.3994479  20.3431800  42.9923106  58.4425317
  25.5455984  46.1830617  63.0713177  25.0918311  45.3421526  63.1278368
  24.9149951  46.8192015  63.4087957  24.4888903  37.1122603  64.3013845
  23.7511660  36.5999989  64.6324087  24.7415677  36.6722984  63.4897122
  23.9888923  48.0207113  64.0062995  24.2811897  48.5812170  63.2875361
  24.4987544  48.3135674  64.7616154  24.5900531  29.8898855  64.8955614
  24.8959407  29.0296218  64.6081529  25.3153135  30.4816475  64.6954608
  10.8824887  40.2929541  63.2837212  10.6849287  39.6998902  62.5588278
  10.3271551  39.9881751  64.0013151  18.8621610  40.1852648  65.4031805
  18.9170220  39.2326484  65.3274282  18.0512812  40.3412087  65.8873103
  20.0112804  44.1132771  56.6410088  19.5732234  43.3968630  56.1815726
  20.7523245  44.3408886  56.0795180  16.8013970  38.8029707  63.1622184
  15.9881836  39.1023878  63.5687376  17.2972965  38.4085396  63.8796666
  18.9522548  48.7987464  65.0956449  18.9098727  49.0248311  64.1664981
  19.8685247  48.5650839  65.2442250  22.3988182  39.2671532  71.9937078
  22.7537570  39.4943005  72.8531544  23.0460313  39.5989909  71.3714333
  28.1285919  42.3889968  62.6986407  27.9903818  42.5791564  61.7707596
  27.7722138  43.1509351  63.1554458  16.2928045  36.3748063  68.7783419
  16.9327424  36.2336822  68.0806382  15.4605576  36.0882576  68.4022021
  28.1555299  44.4566495  67.7097678  28.5891805  44.3641784  68.5580732
  28.8686879  44.4323995  67.0717694  17.0688349  45.6750493  64.8918411
  17.8628947  45.1800814  64.6900986  16.3580041  45.1468357  64.5286117
  21.8883193  48.0568589  69.2430779  21.9420216  48.6259525  70.0108495
  21.0197975  48.2270474  68.8784816  13.3771112  39.8193575  60.9678164
  12.4468701  39.7578031  61.1848126  13.4728584  39.2969528  60.1714805
  13.2956662  36.3448388  63.5556406  13.5563479  37.2593721  63.4465566
  14.1173834  35.8772831  63.7053018  14.7681587  37.7586145  70.7255230
  15.4404640  37.5503507  70.0767879  13.9411373  37.5608231  70.2860462
  29.0170848  44.4990195  70.2430564  29.2106738  45.4036006  70.4889839
  28.9171466  44.0397615  71.0769149  20.6707159  34.3848086  72.7420891
  20.0235074  35.0838036  72.6485367  21.4408174  34.8184230  73.1097139
  24.0785957  44.6496938  75.8171444  23.9271463  44.4207490  74.9001528
  24.0690636  45.6067540  75.8302789  20.8471293  42.2228851  70.8017711
  21.7763353  42.3740011  70.6286678  20.4262323  42.3112872  69.9466357
  19.6459625  46.2479515  68.5716248  19.5070711  45.8798300  69.4442187
  18.8574221  46.7627155  68.4000206  20.2407777  51.3488612  59.9141785
  20.4159533  50.8776655  60.7287408  19.5540565  51.9754378  60.1423046
  21.1964840  45.6261118  65.9605086  20.8614673  45.5861888  66.8562736
  20.6968786  44.9605834  65.4875496  15.1709084  41.0328748  71.4857667
  15.0328882  40.3008987  72.0869206  16.0814008  40.9437648  71.2041855
  24.1324032  42.9717152  56.2342146  23.5153202  42.2463981  56.1375199
  23.6640520  43.7326513  55.8909220  17.7991385  40.7448707  70.9741347
  18.5091003  40.1041900  70.9327965  17.7560693  40.9961602  71.8967528
  25.7878163  47.6816061  73.8947926  25.7290710  46.9975281  73.2278509
  26.1897682  48.4235051  73.4428552  16.5120319  37.7313925  72.7936986
  15.9757676  37.2804664  73.4458583  15.9237027  37.8659834  72.0507451
  14.8068862  54.4977975  66.6881645  15.0465460  55.1296499  67.3660664
  13.9638059  54.1466015  66.9747004  15.9222578  37.1902577  55.3563450
  15.0452044  37.0691377  54.9925697  16.3980331  36.3988655  55.1042339
  25.7895571  45.6455645  72.1261906  24.9022349  45.3081566  72.2488305
  26.3594122  44.9138676  72.3630671   7.4424718  41.9779736  65.4504957
   8.1295758  41.6641466  64.8625973   7.2872847  42.8821101  65.1772209
  12.2459440  36.8669933  69.8789981  12.1617629  36.2595603  69.1440391
  11.4242146  37.3578951  69.8799477  19.3196724  50.3057097  69.0923149
  19.2466896  51.1112069  69.6042454  18.8774117  50.5049063  68.2671170
  19.1086504  49.5428867  62.6025971  18.3254026  50.0850547  62.6964195
  19.8079249  50.0602847  63.0020212  22.4183154  35.3523497  65.2460176
  22.9151853  34.5993459  64.9261246  21.6470135  35.3887813  64.6803385
  30.2712911  41.0563862  66.8878468  30.2602788  41.9388577  66.5172401
  29.4030291  40.7035413  66.6933005  21.7795408  50.2043931  71.2481308
  22.4923380  50.8391396  71.1757209  21.2885436  50.3007797  70.4321310
  23.5012935  44.1095184  62.8198599  22.5669213  44.2296646  62.6503304
  23.6789603  43.2067651  62.5558609  19.0018123  37.4940880  64.9731861
  18.6315910  36.9411920  65.6612766  19.4977215  36.8899013  64.4206861
  26.8885486  39.9512503  63.3548634  27.3545938  40.7840495  63.2808936
  27.3392986  39.4857485  64.0593892  16.8307321  47.9538375  72.0686879
  17.5316781  48.5874857  72.2216273  16.3602436  48.2953106  71.3082518
  24.9561717  46.2956324  60.3534786  25.2321561  46.1812919  61.2628660
  24.0866216  45.8973809  60.3146959  24.8602149  32.3193090  67.3939535
  23.9465228  32.5497317  67.5621742  25.2895250  32.4031534  68.2453567
  24.6308607  40.5082982  69.8939429  23.9780057  40.7558889  69.2391882
  25.0088987  39.6947120  69.5601906  21.5915781  50.5442675  63.9967599
  21.7738176  49.7264331  64.4595352  22.4148767  50.7610367  63.5592489
  21.9257947  49.4710860  61.2582648  22.4545713  48.9603315  60.6452810
  22.1886166  49.1553390  62.1228181  20.6796180  41.2502793  76.3805466
  20.0036817  41.1496922  77.0507841  21.5023814  41.0942007  76.8441463
  12.4275039  47.4874730  69.0017981  13.0128476  46.7418417  69.1345885
  12.2299878  47.7978686  69.8854645  15.2813694  50.5225977  64.0180424
  14.6124070  51.0072105  63.5344464  15.1426564  50.7695197  64.9323802
   7.0192694  40.0580330  67.7222424   7.0576793  39.5243920  68.5159542
   6.5132987  39.5315535  67.1033402  19.4218963  52.5569720  70.6163082
  19.9737271  52.7201342  71.3812167  19.7625156  53.1474158  69.9443107
  14.3983456  34.9044870  71.2184967  14.4624783  35.7659701  70.8062364
  14.3350577  34.2918872  70.4857325  13.8735729  36.9768003  74.8658001
  14.5007768  36.5945080  75.4795525  13.0163648  36.7582205  75.2313693
  24.2729837  47.3830978  76.4711736  24.8169741  47.9960936  75.9766691
  23.6916682  47.9410556  76.9878749  10.6501272  38.7844432  60.7976356
  10.9454713  37.8755110  60.7443409   9.7489307  38.7632171  60.4757358
  22.5587350  50.5051696  67.6026764  22.4338490  49.7041436  67.0937710
  23.2166441  50.9997889  67.1140734  14.1795519  36.8600429  66.7803904
  13.4582104  37.4736396  66.6411378  14.9688774  37.3958193  66.7020550
  24.6222259  48.3060716  69.2306314  23.6752594  48.1866067  69.1584641
  24.9705032  47.4183214  69.3132576  16.9821832  34.1954855  73.0544556
  17.5056234  34.4417152  73.8170865  16.7634165  35.0274890  72.6347693
  12.3789113  36.4658530  60.9215681  12.0501819  35.5855909  60.7390787
  12.7328484  36.4106198  61.8092070  21.6268692  48.1013432  65.4310666
  21.4793654  47.1730140  65.6118237  22.4522186  48.1233523  64.9467742
  15.4930936  36.7531499  61.2891159  15.8327009  37.2817421  60.5669767
  15.9403057  37.0911906  62.0649725  25.2302814  48.9241991  66.5175539
  26.1549361  48.7184852  66.3799990  25.0618117  48.6758392  67.4264881
  18.1874377  35.1368550  70.7394227  17.8471197  34.3376363  71.1414907
  17.4813383  35.4370261  70.1671060  18.8390849  32.2217863  69.1921550
  19.6616918  31.7478341  69.0700440  19.0828912  33.0008346  69.6920236
  17.4799083  35.2506121  59.4884451  18.2007446  35.6287374  58.9848168
  16.8564388  35.9694998  59.5919429  21.6230206  35.9551270  60.4242784
  21.8393821  36.8375908  60.1231612  21.1424273  35.5637483  59.6948426
  16.3629428  38.9136983  67.0013528  16.2174008  39.2277286  67.8937810
  15.8854631  39.5321884  66.4484427  18.2225811  35.9039531  67.0494418
  18.2087379  35.0080624  66.7126716  18.9398239  35.9110195  67.6832704
  20.0751941  36.3376871  69.0947545  19.8169719  37.2593942  69.0931876
  19.5436982  35.9407306  69.7848009  25.0198130  49.4427658  61.8737631
  25.1935008  48.8774081  61.1211483  25.5127021  50.2428553  61.6917121
  10.8375090  41.4542328  69.9401189  10.2928558  42.2302136  70.0721464
  11.7154440  41.8013132  69.7820311  17.6262707  34.7853911  62.3181988
  17.7478618  33.8570558  62.5172875  17.3364749  34.7992597  61.4060303
  20.4953897  32.4708822  65.4548708  20.5175594  32.5348155  64.5000687
  20.9121956  31.6313331  65.6489214  30.8737521  42.2064081  63.4927930
  31.3168667  41.4571407  63.0947054  29.9964032  42.1974218  63.1101662
  26.0073303  48.7594423  58.9734529  26.7024207  49.3801116  59.1921844
  26.3496453  47.9089774  59.2486907  11.6241112  40.5812224  72.8331346
  10.8822848  40.7294859  73.4195977  11.3033856  40.8420489  71.9698096
  27.9064726  46.2094128  60.5021860  28.4316050  46.5481401  59.7771180
  27.8187078  45.2741144  60.3184994  19.5684774  50.1228202  72.6311736
  19.8771901  49.8777349  73.5034436  20.3660256  50.3274841  72.1430607
  19.5905386  52.2766112  64.8617113  19.1510377  51.7842490  65.5549970
  20.3413503  51.7339079  64.6209188  12.0697725  48.4677653  64.8641741
  12.8955745  48.1681424  64.4840385  11.7191777  47.6985275  65.3131530
  17.0379259  47.8204121  66.9339415  16.4159268  47.1574826  66.6341642
  17.7084125  47.8465253  66.2513062  10.2706330  46.3863979  65.8230675
   9.4338239  45.9586153  65.6414676  10.2429976  46.5796422  66.7601466
  17.1103786  36.2985909  76.5271921  17.1591942  37.1748032  76.1449690
  17.6526300  35.7563302  75.9543564  27.5958632  46.8427032  75.8073058
  26.8054175  46.8251171  75.2677557  27.3591986  47.3815326  76.5622094
  27.7156507  43.6919498  73.1205786  27.7654512  43.5269506  74.0621309
  27.6070430  42.8246757  72.7303667  16.5992765  46.3708044  60.4097875
  16.7480886  47.0543509  59.7564548  17.4059209  46.3513134  60.9247331
  25.0060269  39.6750426  74.4365093  25.9070132  39.5356891  74.1449091
  25.0808244  39.8404881  75.3763270  19.3403074  37.0517281  73.2818279
  18.4706384  37.3450847  73.0100868  19.5762555  37.6357726  74.0025543
  29.2174704  46.1116440  73.3647808  28.9259512  46.4746421  74.2011269
  28.6046835  45.3983448  73.1861140  30.4170386  43.6769320  65.8850378
  31.2517277  44.1159124  66.0487938  30.5529515  43.2007973  65.0658624
  27.4661892  41.2349055  71.8327866  27.9416013  41.4276701  71.0246717
  26.5427457  41.2908240  71.5871249  14.3545398  42.3973222  61.4158944
  14.1091440  41.4935552  61.6139154  14.5241313  42.3990372  60.4738422
  22.0442108  33.2696898  70.7983700  22.5624052  34.0057925  70.4730188
  21.6897241  33.5760891  71.6330459  13.6241046  38.1301579  58.9145105
  12.9310291  38.2045934  58.2585141  13.3792798  37.3661923  59.4366622
  22.2954702  29.6897181  66.3184596  22.5756456  29.0220370  66.9445023
  23.0805309  29.8826276  65.8059260  20.0988171  48.8656175  57.8809623
  19.5262138  49.4846362  57.4280094  20.6720965  49.4155536  58.4149544
  26.1663561  38.1114815  70.0656171  27.1180984  38.2112912  70.0868395
  25.9967011  37.3193083  70.5754256  24.1877940  35.1970398  70.2515572
  23.5927872  35.4775411  69.5562061  23.9027637  35.6864299  71.0232313
  23.3185431  49.1493325  59.0118205  24.2516104  49.0838886  59.2151080
  23.2308644  49.9849592  58.5532737  25.9473447  48.4659195  55.9722152
  25.8687079  48.1319059  56.8657910  26.7683114  48.9580963  55.9713625
  28.6451639  41.3320934  69.1798471  28.6127959  40.3936935  69.3658155
  29.2552262  41.4104971  68.4464296  20.4834969  40.2016987  55.2225675
  21.4294074  40.0723195  55.2914093  20.1049214  39.4631649  55.6995103
  28.7946127  38.1231978  69.2256754  28.2785176  37.3390434  69.0386683
  29.6786076  37.7950694  69.3903274  26.4556854  31.8672993  65.1852567
  26.2581675  31.5588082  66.0695899  27.0656560  32.5934632  65.3150497
  34.4628188  42.3936941  68.3204508  35.1931577  42.1322229  68.8812211
  33.8535134  41.6565663  68.3606576  32.5443486  40.5344804  68.9178959
  31.8176649  40.4000769  68.3095451  32.1290772  40.8421632  69.7235677
  20.3673662  44.2534733  76.6826332  21.2876671  44.4313332  76.8766379
  20.3323245  43.3090779  76.5306031  18.6677887  38.1266964  55.1580560
  17.7609342  37.8300076  55.2343274  18.9453868  37.8296782  54.2914847
   9.5855827  39.4473327  65.6079607   9.2658611  38.5938635  65.3153981
   9.0389255  39.6621905  66.3637574  13.3635735  42.1635768  69.3249113
  13.5821744  43.0952876  69.3437147  13.7761508  41.8043743  70.1103917
  20.2839952  32.6703853  61.3124802  19.4740681  32.3250938  61.6880048
  20.9724369  32.3611397  61.9012413  22.2130501  31.7481900  62.9349098
  22.7661539  32.1677354  63.5939121  22.4500587  30.8217648  62.9772054
  18.2363600  37.7368974  78.7151862  18.1360327  38.6863331  78.6463953
  18.0185142  37.4087213  77.8427932  17.4376671  34.9853899  55.2992539
  18.2995835  35.3108797  55.5588357  17.6227015  34.1985395  54.7865605
   9.4544087  43.0676239  67.5772728   8.7607558  42.6530191  67.0642683
  10.2017078  43.1096775  66.9806147  25.5909308  33.8582425  62.4427762
  25.0107977  34.5167229  62.0605815  25.3245240  33.0359770  62.0315180
  24.0412874  33.2587483  64.6449083  24.5412652  33.3704018  63.8363402
  24.6848482  32.9548536  65.2849891  18.0994870  41.1666113  77.5316924
  17.6161952  41.9666473  77.7380813  18.1855809  41.1774058  76.5784368
  11.3680830  42.9994492  65.4538743  11.3451518  43.0982180  64.5020626
  11.6781466  43.8459643  65.7755909  14.0268207  45.0570647  69.5685358
  14.9811461  45.0254590  69.5015289  13.8280731  44.5961271  70.3835583
  14.6167590  43.6271763  72.1356155  15.4360479  44.1215842  72.1590992
  14.8904397  42.7103732  72.1073723  24.3734186  36.0182516  61.4984111
  23.4860041  36.3032166  61.2804305  24.7888175  35.8576279  60.6511388
  27.7248722  36.0429037  65.2138450  28.5009112  36.5325489  65.4863067
  26.9996856  36.4687091  65.6710319  30.1621281  36.7556656  66.2712391
  30.7565771  36.5152392  65.5605699  30.2347864  36.0363787  66.8985927
  12.3818436  50.5990267  66.5855555  12.2472904  49.8390668  66.0193553
  11.9650498  51.3231167  66.1184344  23.5177399  45.7827190  55.5932131
  24.2213249  45.9877193  56.2089786  22.7940048  46.3503952  55.8581214
  24.3475210  41.5337052  61.7134401  24.2910411  41.9905603  60.8742033
  24.9003552  40.7727736  61.5357244  28.1580015  37.3226784  62.5384520
  27.9016950  36.9223419  63.3692728  27.5332883  38.0370578  62.4134660
  32.4692353  40.0622857  65.0455812  31.9091911  40.1316046  65.8187374
  31.8635857  39.8863841  64.3255308  15.5387562  51.4959584  66.7973998
  15.4219946  52.4405016  66.6952688  14.7180008  51.1933145  67.1859797
  25.4264097  46.2209720  57.6430591  26.2609701  45.7890918  57.4608066
  25.2648440  46.0491733  58.5707485  25.0809989  42.7241833  59.0086930
  25.0258793  42.5586104  58.0675374  24.4556044  43.4317866  59.1649120
   9.8702504  37.9609897  72.8348352  10.5161367  37.4508851  73.3235577
   9.6619655  38.6978579  73.4091778  22.3955896  45.0290745  78.3340493
  23.2647056  45.2031397  77.9727128  21.9162647  45.8485162  78.2116222
  18.3906114  32.2249942  58.5872248  18.3784784  33.1691782  58.7440519
  19.2829536  32.0420087  58.2931710  16.5642076  52.1487846  70.0129926
  17.4669323  52.1811456  70.3296421  16.3379446  51.2188297  70.0276262
  18.3195678  50.9018832  66.6740005  17.3691309  50.9020694  66.5604377
  18.6228164  50.1551567  66.1576040  22.2058234  28.8192719  62.8418185
  21.4390630  28.2651205  62.9874868  22.6168939  28.8914587  63.7032337
  14.2099995  35.1077514  76.9323367  15.0731456  34.7514319  77.1426691
  13.6365405  34.7691409  77.6198771  34.0548372  56.7379371  67.7385768
  34.6926782  56.6186118  67.0349108  33.9369215  57.6860215  67.7973720
  30.8638078  56.6906799  67.6747292  30.5256590  56.5747864  66.7867827
  31.7327846  56.2897964  67.6548298  26.7224894  58.5442275  63.6644183
  26.1589759  58.4532212  62.8960471  26.6077289  57.7242180  64.1446676
  31.3457861  57.8441651  73.6333498  31.3346502  57.4494449  72.7614001
  31.5078500  57.1107723  74.2267269  24.2689326  60.0393467  66.5028404
  25.0610618  59.6984292  66.0874703  24.5085976  60.1488442  67.4230557
  32.3024452  62.2113243  58.9758648  31.6512432  62.7967323  58.5892662
  33.0968815  62.7419438  59.0353686  26.2280080  59.3002380  59.3745782
  27.0010956  58.7531367  59.2358658  26.5805478  60.1646629  59.5860244
  28.0665122  60.6278762  72.5812682  27.7754988  61.5324393  72.4659348
  28.7022107  60.6695290  73.2956751  28.9921329  58.0055611  69.1714041
  29.5884901  57.7811633  68.4571004  29.0496301  57.2640356  69.7739489
  28.5646357  55.4595046  57.0064232  28.8171878  54.9376568  56.2447695
  27.6270916  55.2961192  57.1090916  33.6089640  54.4630825  64.8138976
  34.3952729  54.0450248  64.4629393  33.8728345  55.3676917  64.9820624
  33.7799718  59.9003675  59.5127632  33.1445551  59.9738301  60.2248537
  33.4497124  60.4897274  58.8346712  39.0098067  54.4006058  65.7171954
  39.7423239  53.8305275  65.9509784  38.2537423  54.0127658  66.1578460
  28.2842646  57.3623152  59.2088607  28.1678904  56.6868056  59.8769692
  28.3944906  56.8755526  58.3920760  30.6274187  56.8233299  62.9135297
  30.2632394  56.2963920  63.6248218  31.4841303  56.4331768  62.7401782
  36.5323488  48.1127632  70.1766563  36.2006812  48.9823043  69.9527778
  35.9369101  47.7963916  70.8560593  30.2679674  51.8523199  57.9096645
  30.4354076  52.7203435  58.2767116  30.0776843  52.0150481  56.9857934
  33.0255007  60.3140178  69.5762475  32.7255730  61.2165217  69.4678283
  32.6806067  60.0472361  70.4283628  26.4767489  56.7653975  65.6099180
  25.5517985  56.6330189  65.8176872  26.7251902  57.5448194  66.1069122
  36.4252151  52.8322718  67.2559913  35.5169028  52.7638127  66.9618674
  36.3739747  53.3094663  68.0841738  30.2468895  54.3080857  58.8943312
  30.1268520  54.7537907  59.7328792  29.5521483  54.6566174  58.3356850
  23.8376300  56.4087248  66.4442969  23.9668681  56.6621727  67.3582381
  23.1573751  57.0014956  66.1247624  28.0075787  67.0784498  62.5433443
  27.9299817  68.0292323  62.6221924  27.4037431  66.7330371  63.2008369
  30.4993017  54.2512364  75.1994810  29.7226351  54.8106284  75.1897675
  31.1383580  54.7369147  75.7209680  38.2913797  51.0339157  69.0337787
  37.6488178  51.3271690  68.3877581  37.7868726  50.9192077  69.8390983
  35.9453961  54.7802330  59.7223646  36.8571817  55.0129716  59.5471343
  35.4363608  55.3639374  59.1598725  28.7539389  57.0597817  74.7612777
  29.4954073  57.5982861  74.4847601  28.0476375  57.6864106  74.9184329
  34.2294729  59.2026958  73.3584938  34.6378085  58.7609368  72.6139571
  33.5071990  58.6279585  73.6119131  30.5825799  54.1399564  70.7318495
  31.4286994  54.5638978  70.8753144  30.5224436  53.4833189  71.4257059
  34.5523543  59.7628148  67.1137227  33.9232406  59.9273862  66.4113295
  34.1649205  60.1769758  67.8848191  38.4312775  60.6982586  64.4681591
  37.7463813  61.0781487  63.9178624  38.5156625  61.3077913  65.2013539
  33.7325244  51.8003933  72.3899669  33.4886176  52.5545993  71.8533945
  34.0085175  52.1789280  73.2246916  35.6863707  58.3442545  71.0676935
  35.8980602  58.9874305  70.3911316  35.6393455  57.5104862  70.5998865
  33.2889936  50.9560366  67.9713507  32.4274415  51.2541619  68.2630244
  33.3152371  51.1730765  67.0394539  30.1051505  59.5002556  64.3787312
  30.5689851  59.7790259  63.5891935  29.8408303  58.5986001  64.1960403
  26.9975586  59.0474038  67.3167076  27.5676943  59.4761306  66.6784560
  27.5883698  58.7656622  68.0151261  29.0420391  55.6225709  61.1876878
  29.7444435  56.0746752  61.6550804  28.7101020  54.9809527  61.8156771
  27.4900753  54.2137465  75.5628087  26.8599413  54.8953746  75.7963484
  27.3836841  54.1020547  74.6181225  22.7845725  53.8809261  66.4894011
  21.9944779  54.1366790  66.0134122  23.2756973  54.6957599  66.5946052
  36.8009535  61.2214500  69.2399292  37.6226979  60.8194688  68.9581974
  36.7971938  61.1182735  70.1915408  24.7360471  54.2453841  63.4477488
  23.9391634  54.3572535  63.9660984  24.5086063  54.5840493  62.5818378
  30.5666138  60.7698544  71.3960002  30.6310571  61.2318951  72.2318174
  29.8577062  60.1395909  71.5242312  21.0683428  54.1339752  68.9209002
  21.3191467  55.0186762  69.1866578  21.6042977  53.9544353  68.1484094
  44.8915528  57.5653249  65.5884263  44.1379236  56.9960647  65.4328268
  45.0263069  57.5315913  66.5354898  30.2814156  62.4366651  61.2638983
  30.1459831  63.2818187  61.6923831  30.8223968  62.6385929  60.5004917
  26.7681496  48.5158231  77.9253338  26.3748441  47.9624430  78.6000982
  27.5847636  48.8268810  78.3159856  23.7343553  59.9542089  61.8366908
  24.2468074  60.7485340  61.9872473  24.3866266  59.2568380  61.7700509
  25.5438438  63.0707846  63.9189661  25.7205066  63.9925810  63.7310645
  26.3395272  62.7566265  64.3484041  29.6849457  49.9316110  75.5173595
  30.4259170  50.5323263  75.4378057  29.9167379  49.1893748  74.9591637
  24.8290795  55.1172477  73.7951824  24.7144310  54.2157735  74.0958923
  23.9735312  55.3636174  73.4436641  31.9082632  63.0590218  75.3939325
  31.4646487  62.2726596  75.0760229  32.5699846  63.2469368  74.7283216
  26.6669754  64.5886019  69.9200003  27.2177179  64.4603083  69.1476997
  25.8281229  64.8880908  69.5694896  34.0063870  63.3393018  73.4220726
  33.9882346  64.1601899  72.9300995  34.9283790  63.2147093  73.6470867
  30.4636925  60.8537147  74.2644235  30.9965261  60.0925435  74.0343543
  29.9351006  60.5610799  75.0068389  33.6306620  45.9597213  69.7937876
  33.2870889  46.8498855  69.7176987  33.9985582  45.7698871  68.9307461
  21.6992470  58.2830744  62.6126478  22.5367692  58.6927752  62.3960186
  21.8770738  57.3430186  62.5826672  33.5956902  55.9505824  58.3010311
  33.0803526  56.7210429  58.5398699  33.3234211  55.2770960  58.9243373
  31.1804013  50.7955525  63.3595550  30.3245610  50.4062375  63.1801188
  31.5930965  50.8747486  62.4995335  32.7103160  48.3301868  67.7587110
  32.2067955  48.2932003  66.9454915  33.0033767  49.2394611  67.8183766
  28.9546046  48.4140598  66.7653291  29.8199043  48.2183407  66.4059181
  29.0223555  48.1850950  67.6922648  38.5691176  58.7038179  60.2363485
  37.7920619  58.3649338  59.7918647  39.2482657  58.7090802  59.5618450
  33.3843205  53.8232916  60.1270093  33.0793341  54.1379065  60.9780236
  34.3373648  53.9014336  60.1697426  31.8289637  59.9823140  61.7763047
  31.3010999  59.2475899  61.4636284  31.3277140  60.7597816  61.5303015
  36.8082483  58.1772160  66.8930093  36.1506158  58.8671422  66.9810221
  37.6122882  58.5668592  67.2364079  26.5608365  50.6442806  64.1369658
  27.1352117  50.4217987  63.4042851  27.1479347  50.7131500  64.8898259
  35.6187942  56.5316533  64.9434035  36.1319824  57.1646525  65.4455744
  36.2689166  55.9317728  64.5777395  26.8877952  52.6747267  58.1565543
  26.0515264  53.0121953  58.4774818  26.7482722  52.5396247  57.2192680
  28.8631033  47.5184055  62.8644728  28.2095445  47.2033072  62.2401342
  28.8211507  46.8959795  63.5904550  29.9742237  57.8003350  54.7798020
  29.0669299  57.5692603  54.9789169  30.4713269  57.0040969  54.9672001
  32.8810316  66.5100857  57.6994706  32.2072015  66.8132554  58.3079664
  33.2676138  67.3129937  57.3500163  32.0968773  54.0065988  67.1892375
  31.1791334  54.2280935  67.0314063  32.5128917  54.0812299  66.3304082
  32.8803821  55.4057404  62.3195055  33.6275640  55.9178801  62.0102177
  33.1495410  55.0841457  63.1799449  31.1530471  57.9015945  59.3022010
  30.2441690  57.6174978  59.3994479  31.1825555  58.3215023  58.4425317
  36.3849738  61.5122534  63.0713177  35.9312065  60.6713444  63.1278368
  35.7543705  62.1483933  63.4087957  35.3282658  52.4414520  64.3013845
  34.5905415  51.9291906  64.6324087  35.5809431  52.0014902  63.4897122
  34.8282678  63.3499031  64.0062995  35.1205652  63.9104088  63.2875361
  35.3381298  63.6427592  64.7616154  35.4294285  45.2190772  64.8955614
  35.7353162  44.3588136  64.6081529  36.1546890  45.8108392  64.6954608
  21.7218641  55.6221459  63.2837212  21.5243041  55.0290820  62.5588278
  21.1665305  55.3173669  64.0013151  29.7015365  55.5144565  65.4031805
  29.7563975  54.5618402  65.3274282  28.8906567  55.6704004  65.8873103
  30.8506559  59.4424688  56.6410088  30.4125989  58.7260547  56.1815726
  31.5917000  59.6700803  56.0795180  27.6407725  54.1321625  63.1622184
  26.8275590  54.4315796  63.5687376  28.1366719  53.7377314  63.8796666
  29.7916303  64.1279382  65.0956449  29.7492482  64.3540228  64.1664981
  30.7079002  63.8942757  65.2442250  33.2381937  54.5963450  71.9937078
  33.5931324  54.8234923  72.8531544  33.8854068  54.9281826  71.3714333
  38.9679673  57.7181885  62.6986407  38.8297572  57.9083481  61.7707596
  38.6115892  58.4801268  63.1554458  27.1321800  51.7039981  68.7783419
  27.7721179  51.5628740  68.0806382  26.2999330  51.4174494  68.4022021
  38.9949053  59.7858412  67.7097678  39.4285560  59.6933702  68.5580732
  39.7080634  59.7615913  67.0717694  27.9082103  61.0042411  64.8918411
  28.7022702  60.5092731  64.6900986  27.1973796  60.4760274  64.5286117
  32.7276948  63.3860507  69.2430779  32.7813970  63.9551443  70.0108495
  31.8591729  63.5562392  68.8784816  24.2164867  55.1485493  60.9678164
  23.2862455  55.0869948  61.1848126  24.3122339  54.6261446  60.1714805
  24.1350416  51.6740306  63.5556406  24.3957233  52.5885639  63.4465566
  24.9567588  51.2064748  63.7053018  25.6075341  53.0878063  70.7255230
  26.2798395  52.8795425  70.0767879  24.7805128  52.8900149  70.2860462
  39.8564603  59.8282113  70.2430564  40.0500493  60.7327924  70.4889839
  39.7565221  59.3689532  71.0769149  31.5100913  49.7140004  72.7420891
  30.8628828  50.4129953  72.6485367  32.2801929  50.1476148  73.1097139
  31.6865048  57.5520769  70.8017711  32.6157108  57.7031928  70.6286678
  31.2656078  57.6404789  69.9466357  30.4853379  61.5771433  68.5716248
  30.3464465  61.2090217  69.4442187  29.6967976  62.0919072  68.4000206
  31.0801531  66.6780529  59.9141785  31.2553287  66.2068573  60.7287408
  30.3934319  67.3046296  60.1423046  32.0358595  60.9553036  65.9605086
  31.7008427  60.9153806  66.8562736  31.5362540  60.2897752  65.4875496
  26.0102839  56.3620666  71.4857667  25.8722637  55.6300905  72.0869206
  26.9207762  56.2729566  71.2041855  34.9717786  58.3009070  56.2342146
  34.3546957  57.5755898  56.1375199  34.5034275  59.0618430  55.8909220
  28.6385139  56.0740625  70.9741347  29.3484758  55.4333817  70.9327965
  28.5954447  56.3253520  71.8967528  27.3514073  53.0605843  72.7936986
  26.8151430  52.6096581  73.4458583  26.7630782  53.1951752  72.0507451
  25.6462617  69.8269892  66.6881645  25.8859215  70.4588416  67.3660664
  24.8031813  69.4757932  66.9747004  26.7616332  52.5194494  55.3563450
  25.8845799  52.3983295  54.9925697  27.2374085  51.7280573  55.1042339
  36.6289325  60.9747562  72.1261906  35.7416104  60.6373484  72.2488305
  37.1987876  60.2430594  72.3630671  18.2818472  57.3071654  65.4504957
  18.9689512  56.9933384  64.8625973  18.1266601  58.2113019  65.1772209
  23.0853194  52.1961851  69.8789981  23.0011383  51.5887520  69.1440391
  22.2635901  52.6870869  69.8799477  30.1590479  65.6349015  69.0923149
  30.0860650  66.4403986  69.6042454  29.7167872  65.8340981  68.2671170
  29.9480258  64.8720785  62.6025971  29.1647780  65.4142465  62.6964195
  30.6473003  65.3894764  63.0020212  33.2576908  50.6815414  65.2460176
  33.7545608  49.9285377  64.9261246  32.4863890  50.7179731  64.6803385
  41.1106666  56.3855780  66.8878468  41.0996542  57.2680495  66.5172401
  40.2424045  56.0327331  66.6933005  32.6189162  65.5335849  71.2481308
  33.3317134  66.1683314  71.1757209  32.1279191  65.6299715  70.4321310
  34.3406689  59.4387101  62.8198599  33.4062968  59.5588564  62.6503304
  34.5183358  58.5359568  62.5558609  29.8411877  52.8232797  64.9731861
  29.4709665  52.2703838  65.6612766  30.3370970  52.2190931  64.4206861
  37.7279240  55.2804421  63.3548634  38.1939693  56.1132412  63.2808936
  38.1786741  54.8149402  64.0593892  27.6701076  63.2830292  72.0686879
  28.3710535  63.9166775  72.2216273  27.1996191  63.6245024  71.3082518
  35.7955471  61.6248242  60.3534786  36.0715315  61.5104837  61.2628660
  34.9259970  61.2265727  60.3146959  35.6995903  47.6485008  67.3939535
  34.7858983  47.8789235  67.5621742  36.1289005  47.7323452  68.2453567
  35.4702362  55.8374900  69.8939429  34.8173812  56.0850807  69.2391882
  35.8482742  55.0239038  69.5601906  32.4309536  65.8734593  63.9967599
  32.6131930  65.0556249  64.4595352  33.2542522  66.0902285  63.5592489
  32.7651701  64.8002778  61.2582648  33.2939467  64.2895233  60.6452810
  33.0279921  64.4845308  62.1228181  31.5189935  56.5794711  76.3805466
  30.8430572  56.4788840  77.0507841  32.3417569  56.4233924  76.8441463
  23.2668794  62.8166647  69.0017981  23.8522231  62.0710335  69.1345885
  23.0693632  63.1270604  69.8854645  26.1207449  65.8517895  64.0180424
  25.4517824  66.3364022  63.5344464  25.9820319  66.0987115  64.9323802
  17.8586448  55.3872247  67.7222424  17.8970548  54.8535838  68.5159542
  17.3526741  54.8607453  67.1033402  30.2612718  67.8861638  70.6163082
  30.8131026  68.0493260  71.3812167  30.6018911  68.4766076  69.9443107
  25.2377211  50.2336788  71.2184967  25.3018537  51.0951619  70.8062364
  25.1744331  49.6210790  70.4857325  24.7129483  52.3059921  74.8658001
  25.3401522  51.9236998  75.4795525  23.8557402  52.0874122  75.2313693
  21.4895026  54.1136350  60.7976356  21.7848467  53.2047028  60.7443409
  20.5883062  54.0924089  60.4757358  33.3981105  65.8343614  67.6026764
  33.2732244  65.0333354  67.0937710  34.0560196  66.3289807  67.1140734
  25.0189273  52.1892346  66.7803904  24.2975859  52.8028314  66.6411378
  25.8082529  52.7250111  66.7020550  35.4616013  63.6352634  69.2306314
  34.5146349  63.5157985  69.1584641  35.8098786  62.7475132  69.3132576
  27.8215587  49.5246773  73.0544556  28.3449988  49.7709069  73.8170865
  27.6027920  50.3566808  72.6347693  23.2182868  51.7950447  60.9215681
  22.8895574  50.9147826  60.7390787  23.5722238  51.7398116  61.8092070
  32.4662446  63.4305350  65.4310666  32.3187409  62.5022057  65.6118237
  33.2915940  63.4525441  64.9467742  26.3324691  52.0823417  61.2891159
  26.6720763  52.6109338  60.5669767  26.7796811  52.4203823  62.0649725
  36.0696568  64.2533909  66.5175539  36.9943116  64.0476770  66.3799990
  35.9011872  64.0050310  67.4264881  29.0268132  50.4660468  70.7394227
  28.6864952  49.6668281  71.1414907  28.3207138  50.7662179  70.1671060
  29.6784603  47.5509780  69.1921550  30.5010673  47.0770258  69.0700440
  29.9222667  48.3300264  69.6920236  28.3192838  50.5798039  59.4884451
  29.0401200  50.9579291  58.9848168  27.6958142  51.2986915  59.5919429
  32.4623961  51.2843188  60.4242784  32.6787575  52.1667826  60.1231612
  31.9818028  50.8929401  59.6948426  27.2023182  54.2428901  67.0013528
  27.0567763  54.5569204  67.8937810  26.7248386  54.8613801  66.4484427
  29.0619565  51.2331449  67.0494418  29.0481134  50.3372542  66.7126716
  29.7791993  51.2402113  67.6832704  30.9145696  51.6668789  69.0947545
  30.6563474  52.5885860  69.0931876  30.3830736  51.2699224  69.7848009
  35.8591885  64.7719576  61.8737631  36.0328762  64.2065999  61.1211483
  36.3520776  65.5720471  61.6917121  21.6768844  56.7834245  69.9401189
  21.1322312  57.5594053  70.0721464  22.5548194  57.1305050  69.7820311
  28.4656461  50.1145829  62.3181988  28.5872372  49.1862475  62.5172875
  28.1758503  50.1284515  61.4060303  31.3347651  47.8000740  65.4548708
  31.3569348  47.8640073  64.5000687  31.7515710  46.9605248  65.6489214
  41.7131276  57.5355999  63.4927930  42.1562422  56.7863324  63.0947054
  40.8357786  57.5266135  63.1101662  36.8467057  64.0886341  58.9734529
  37.5417962  64.7093033  59.1921844  37.1890207  63.2381692  59.2486907
  22.4634866  55.9104142  72.8331346  21.7216602  56.0586777  73.4195977
  22.1427610  56.1712407  71.9698096  38.7458480  61.5386046  60.5021860
  39.2709804  61.8773319  59.7771180  38.6580833  60.6033061  60.3184994
  30.4078529  65.4520120  72.6311736  30.7165655  65.2069267  73.5034436
  31.2054011  65.6566758  72.1430607  30.4299141  67.6058029  64.8617113
  29.9904131  67.1134408  65.5549970  31.1807258  67.0630997  64.6209188
  22.9091480  63.7969570  64.8641741  23.7349500  63.4973342  64.4840385
  22.5585532  63.0277193  65.3131530  27.8773013  63.1496038  66.9339415
  27.2553022  62.4866743  66.6341642  28.5477880  63.1757170  66.2513062
  21.1100085  61.7155897  65.8230675  20.2731993  61.2878071  65.6414676
  21.0823730  61.9088340  66.7601466  27.9497541  51.6277826  76.5271921
  27.9985696  52.5039949  76.1449690  28.4920055  51.0855220  75.9543564
  38.5550261  59.0211416  73.1205786  38.6048266  58.8561424  74.0621309
  38.4464185  58.1538675  72.7303667  27.4386520  61.6999962  60.4097875
  27.5874640  62.3835426  59.7564548  28.2452963  61.6805052  60.9247331
  35.8454024  55.0042344  74.4365093  36.7463886  54.8648809  74.1449091
  35.9201998  55.1696799  75.3763270  30.1796829  52.3809199  73.2818279
  29.3100138  52.6742765  73.0100868  30.4156309  52.9649644  74.0025543
  41.2564140  59.0061237  65.8850378  42.0911032  59.4451041  66.0487938
  41.3923269  58.5299891  65.0658624  38.3055646  56.5640972  71.8327866
  38.7809768  56.7568619  71.0246717  37.3821212  56.6200158  71.5871249
  25.1939153  57.7265139  61.4158944  24.9485195  56.8227469  61.6139154
  25.3635067  57.7282290  60.4738422  32.8835863  48.5988816  70.7983700
  33.4017807  49.3349843  70.4730188  32.5290996  48.9052809  71.6330459
  24.4634800  53.4593497  58.9145105  23.7704045  53.5337852  58.2585141
  24.2186552  52.6953841  59.4366622  33.1348457  45.0189098  66.3184596
  33.4150211  44.3512287  66.9445023  33.9199064  45.2118194  65.8059260
  30.9381925  64.1948092  57.8809623  30.3655893  64.8138279  57.4280094
  31.5114719  64.7447454  58.4149544  37.0057315  53.4406732  70.0656171
  37.9574738  53.5404830  70.0868395  36.8360766  52.6485001  70.5754256
  35.0271695  50.5262316  70.2515572  34.4321627  50.8067328  69.5562061
  34.7421392  51.0156216  71.0232313  34.1579185  64.4785242  59.0118205
  35.0909858  64.4130804  59.2151080  34.0702398  65.3141509  58.5532737
  36.7867202  63.7951113  55.9722152  36.7080833  63.4610976  56.8657910
  37.6076869  64.2872881  55.9713625  39.4845393  56.6612852  69.1798471
  39.4521713  55.7228853  69.3658155  40.0946017  56.7396889  68.4464296
  31.3228724  55.5308905  55.2225675  32.2687829  55.4015113  55.2914093
  30.9442969  54.7923567  55.6995103  39.6339882  53.4523895  69.2256754
  39.1178930  52.6682352  69.0386683  40.5179830  53.1242612  69.3903274
  37.2950609  47.1964911  65.1852567  37.0975430  46.8879999  66.0695899
  37.9050314  47.9226550  65.3150497  45.3021943  57.7228859  68.3204508
  46.0325331  57.4614147  68.8812211  44.6928888  56.9857581  68.3606576
  43.3837240  55.8636721  68.9178959  42.6570404  55.7292686  68.3095451
  42.9684527  56.1713550  69.7235677  31.2067417  59.5826651  76.6826332
  32.1270426  59.7605250  76.8766379  31.1717000  58.6382696  76.5306031
  29.5071641  53.4558881  55.1580560  28.6003097  53.1591994  55.2343274
  29.7847622  53.1588699  54.2914847  20.4249582  54.7765245  65.6079607
  20.1052366  53.9230553  65.3153981  19.8783010  54.9913823  66.3637574
  24.2029489  57.4927686  69.3249113  24.4215499  58.4244794  69.3437147
  24.6155263  57.1335660  70.1103917  31.1233707  47.9995771  61.3124802
  30.3134435  47.6542856  61.6880048  31.8118124  47.6903315  61.9012413
  33.0524255  47.0773818  62.9349098  33.6055294  47.4969271  63.5939121
  33.2894342  46.1509566  62.9772054  29.0757354  53.0660892  78.7151862
  28.9754081  54.0155249  78.6463953  28.8578896  52.7379130  77.8427932
  28.2770426  50.3145817  55.2992539  29.1389590  50.6400715  55.5588357
  28.4620770  49.5277313  54.7865605  20.2937842  58.3968156  67.5772728
  19.6001313  57.9822109  67.0642683  21.0410833  58.4388693  66.9806147
  36.4303062  49.1874343  62.4427762  35.8501731  49.8459147  62.0605815
  36.1638995  48.3651688  62.0315180  34.8806629  48.5879401  64.6449083
  35.3806407  48.6995935  63.8363402  35.5242237  48.2840454  65.2849891
  28.9388624  56.4958030  77.5316924  28.4555706  57.2958391  77.7380813
  29.0249563  56.5065975  76.5784368  22.2074584  58.3286410  65.4538743
  22.1845272  58.4274097  64.5020626  22.5175221  59.1751561  65.7755909
  24.8661962  60.3862565  69.5685358  25.8205215  60.3546507  69.5015289
  24.6674486  59.9253189  70.3835583  25.4561344  58.9563681  72.1356155
  26.2754233  59.4507760  72.1590992  25.7298152  58.0395649  72.1073723
  35.2127940  51.3474433  61.4984111  34.3253795  51.6324084  61.2804305
  35.6281929  51.1868197  60.6511388  38.5642476  51.3720954  65.2138450
  39.3402867  51.8617407  65.4863067  37.8390611  51.7979009  65.6710319
  41.0015035  52.0848574  66.2712391  41.5959526  51.8444310  65.5605699
  41.0741619  51.3655704  66.8985927  23.2212191  65.9282185  66.5855555
  23.0866659  65.1682585  66.0193553  22.8044253  66.6523084  66.1184344
  34.3571154  61.1119108  55.5932131  35.0607004  61.3169111  56.2089786
  33.6333802  61.6795870  55.8581214  35.1868964  56.8628969  61.7134401
  35.1304165  57.3197521  60.8742033  35.7397306  56.1019654  61.5357244
  38.9973770  52.6518701  62.5384520  38.7410704  52.2515337  63.3692728
  38.3726638  53.3662495  62.4134660  43.3086108  55.3914775  65.0455812
  42.7485666  55.4607964  65.8187374  42.7029611  55.2155759  64.3255308
  26.3781317  66.8251502  66.7973998  26.2613701  67.7696934  66.6952688
  25.5573763  66.5225063  67.1859797  36.2657851  61.5501637  57.6430591
  37.1003455  61.1182836  57.4608066  36.1042194  61.3783651  58.5707485
  35.9203743  58.0533751  59.0086930  35.8652547  57.8878022  58.0675374
  35.2949799  58.7609784  59.1649120  20.7096258  53.2901815  72.8348352
  21.3555122  52.7800769  73.3235577  20.5013409  54.0270497  73.4091778
  33.2349650  60.3582663  78.3340493  34.1040810  60.5323315  77.9727128
  32.7556402  61.1777079  78.2116222  29.2299869  47.5541860  58.5872248
  29.2178539  48.4983700  58.7440519  30.1223291  47.3712005  58.2931710
  27.4035831  67.4779764  70.0129926  28.3063077  67.5103374  70.3296421
  27.1773201  66.5480214  70.0276262  29.1589433  66.2310750  66.6740005
  28.2085064  66.2312612  66.5604377  29.4621919  65.4843485  66.1576040
  33.0451988  44.1484636  62.8418185  32.2784384  43.5943123  62.9874868
  33.4562693  44.2206505  63.7032337  25.0493749  50.4369432  76.9323367
  25.9125211  50.0806237  77.1426691  24.4759160  50.0983327  77.6198771
  44.8942126  72.0671288  67.7385768  45.5320536  71.9478036  67.0349108
  44.7762969  73.0152132  67.7973720  41.7031833  72.0198717  67.6747292
  41.3650344  71.9039781  66.7867827  42.5721601  71.6189882  67.6548298
  37.5618648  73.8734193  63.6644183  36.9983513  73.7824130  62.8960471
  37.4471043  73.0534097  64.1446676  35.1083080  75.3685385  66.5028404
  35.9004372  75.0276209  66.0874703  35.3479730  75.4780360  67.4230557
  43.1418207  77.5405161  58.9758648  42.4906187  78.1259241  58.5892662
  43.9362570  78.0711356  59.0353686  37.0673834  74.6294298  59.3745782
  37.8404710  74.0823285  59.2358658  37.4199233  75.4938547  59.5860244
  38.9058877  75.9570680  72.5812682  38.6148743  76.8616311  72.4659348
  39.5415861  75.9987208  73.2956751  39.8315083  73.3347529  69.1714041
  40.4278656  73.1103551  68.4571004  39.8890055  72.5932274  69.7739489
  39.4040112  70.7886964  57.0064232  39.6565633  70.2668485  56.2447695
  38.4664671  70.6253109  57.1090916  44.4483395  69.7922742  64.8138976
  45.2346484  69.3742165  64.4629393  44.7122099  70.6968834  64.9820624
  44.6193472  75.2295593  59.5127632  43.9839305  75.3030219  60.2248537
  44.2890878  75.8189191  58.8346712  49.8491822  69.7297975  65.7171954
  50.5816994  69.1597192  65.9509784  49.0931178  69.3419576  66.1578460
  39.1236401  72.6915070  59.2088607  39.0072659  72.0159973  59.8769692
  39.2338661  72.2047444  58.3920760  41.4667942  72.1525217  62.9135297
  41.1026149  71.6255838  63.6248218  42.3235057  71.7623686  62.7401782
  47.3717242  63.4419550  70.1766563  47.0400567  64.3114961  69.9527778
  46.7762856  63.1255834  70.8560593  41.1073429  67.1815117  57.9096645
  41.2747831  68.0495353  58.2767116  40.9170598  67.3442398  56.9857934
  43.8648762  75.6432096  69.5762475  43.5649485  76.5457134  69.4678283
  43.5199821  75.3764279  70.4283628  37.3161243  72.0945892  65.6099180
  36.3911740  71.9622107  65.8176872  37.5645656  72.8740112  66.1069122
  47.2645906  68.1614636  67.2559913  46.3562783  68.0930044  66.9618674
  47.2133501  68.6386581  68.0841738  41.0862649  69.6372774  58.8943312
  40.9662275  70.0829825  59.7328792  40.3915238  69.9858092  58.3356850
  34.6770054  71.7379166  66.4442969  34.8062435  71.9913645  67.3582381
  33.9967506  72.3306874  66.1247624  38.8469542  82.4076416  62.5433443
  38.7693571  83.3584241  62.6221924  38.2431185  82.0622288  63.2008369
  49.1307552  66.3631074  69.0337787  48.4881932  66.6563607  68.3877581
  48.6262480  66.2483995  69.8390983  46.7847716  70.1094247  59.7223646
  47.6965572  70.3421634  59.5471343  46.2757363  70.6931292  59.1598725
  41.4219553  69.4691482  70.7318495  42.2680748  69.8930896  70.8753144
  41.3618191  68.8125106  71.4257059  45.3917298  75.0920066  67.1137227
  44.7626160  75.2565780  66.4113295  45.0042960  75.5061675  67.8848191
  49.2706530  76.0274504  64.4681591  48.5857568  76.4073405  63.9178624
  49.3550379  76.6369830  65.2013539  44.1283690  66.2852283  67.9713507
  43.2668169  66.5833537  68.2630244  44.1546125  66.5022682  67.0394539
  40.9445260  74.8294474  64.3787312  41.4083605  75.1082177  63.5891935
  40.6802058  73.9277918  64.1960403  37.8369341  74.3765955  67.3167076
  38.4070698  74.8053224  66.6784560  38.4277453  74.0948540  68.0151261
  39.8814146  70.9517626  61.1876878  40.5838189  71.4038670  61.6550804
  39.5494774  70.3101445  61.8156771  33.6239480  69.2101179  66.4894011
  32.8338534  69.4658707  66.0134122  34.1150727  70.0249517  66.5946052
  47.6403289  76.5506418  69.2399292  48.4620733  76.1486605  68.9581974
  47.6365692  76.4474652  70.1915408  35.5754225  69.5745758  63.4477488
  34.7785388  69.6864452  63.9660984  35.3479817  69.9132410  62.5818378
  41.4059893  76.0990461  71.3960002  41.4704325  76.5610869  72.2318174
  40.6970817  75.4687826  71.5242312  31.9077183  69.4631669  68.9209002
  32.1585221  70.3478679  69.1866578  32.4436731  69.2836271  68.1484094
  55.7309282  72.8945167  65.5884263  54.9772991  72.3252565  65.4328268
  55.8656824  72.8607831  66.5354898  41.1207910  77.7658569  61.2638983
  40.9853585  78.6110105  61.6923831  41.6617723  77.9677847  60.5004917
  34.5737308  75.2834007  61.8366908  35.0861828  76.0777257  61.9872473
  35.2260021  74.5860297  61.7700509  36.3832193  78.3999763  63.9189661
  36.5598821  79.3217728  63.7310645  37.1789026  78.0858182  64.3484041
  35.6684549  70.4464395  73.7951824  35.5538064  69.5449652  74.0958923
  34.8129067  70.6928092  73.4436641  42.7476387  78.3882135  75.3939325
  42.3040241  77.6018514  75.0760229  43.4093600  78.5761286  74.7283216
  37.5063508  79.9177937  69.9200003  38.0570933  79.7895000  69.1476997
  36.6674984  80.2172826  69.5694896  44.8457625  78.6684935  73.4220726
  44.8276100  79.4893816  72.9300995  45.7677545  78.5439011  73.6470867
  44.4700374  61.2889131  69.7937876  44.1264643  62.1790772  69.7176987
  44.8379337  61.0990788  68.9307461  32.5386225  73.6122661  62.6126478
  33.3761447  74.0219670  62.3960186  32.7164492  72.6722103  62.5826672
  44.4350657  71.2797742  58.3010311  43.9197280  72.0502347  58.5398699
  44.1627965  70.6062878  58.9243373  42.0197768  66.1247443  63.3595550
  41.1639364  65.7354293  63.1801188  42.4324720  66.2039403  62.4995335
  43.5496914  63.6593786  67.7587110  43.0461710  63.6223921  66.9454915
  43.8427521  64.5686529  67.8183766  39.7939800  63.7432516  66.7653291
  40.6592797  63.5475324  66.4059181  39.8617309  63.5142867  67.6922648
  49.4084931  74.0330097  60.2363485  48.6314374  73.6941256  59.7918647
  50.0876412  74.0382720  59.5618450  44.2236960  69.1524834  60.1270093
  43.9187095  69.4670983  60.9780236  45.1767402  69.2306254  60.1697426
  42.6683392  75.3115057  61.7763047  42.1404753  74.5767817  61.4636284
  42.1670894  76.0889734  61.5303015  47.6476238  73.5064078  66.8930093
  46.9899912  74.1963339  66.9810221  48.4516637  73.8960510  67.2364079
  37.4002119  65.9734724  64.1369658  37.9745871  65.7509905  63.4042851
  37.9873102  66.0423418  64.8898259  46.4581697  71.8608450  64.9434035
  46.9713578  72.4938442  65.4455744  47.1082920  71.2609646  64.5777395
  37.7271706  68.0039185  58.1565543  36.8909019  68.3413871  58.4774818
  37.5876476  67.8688164  57.2192680  39.7024787  62.8475972  62.8644728
  39.0489199  62.5324990  62.2401342  39.6605261  62.2251713  63.5904550
  40.8135992  73.1295268  54.7798020  39.9063054  72.8984521  54.9789169
  41.3107024  72.3332887  54.9672001  43.7204071  81.8392775  57.6994706
  43.0465770  82.1424472  58.3079664  44.1069893  82.6421855  57.3500163
  42.9362527  69.3357906  67.1892375  42.0185089  69.5572853  67.0314063
  43.3522671  69.4104217  66.3304082  43.7197575  70.7349322  62.3195055
  44.4669394  71.2470719  62.0102177  43.9889165  70.4133374  63.1799449
  41.9924225  73.2307862  59.3022010  41.0835445  72.9466895  59.3994479
  42.0219309  73.6506941  58.4425317  47.2243493  76.8414452  63.0713177
  46.7705820  76.0005362  63.1278368  46.5937459  77.4775850  63.4087957
  46.1676412  67.7706438  64.3013845  45.4299169  67.2583824  64.6324087
  46.4203186  67.3306820  63.4897122  45.6676432  78.6790949  64.0062995
  45.9599406  79.2396006  63.2875361  46.1775053  78.9719510  64.7616154
  46.2688040  60.5482690  64.8955614  46.5746916  59.6880053  64.6081529
  46.9940644  61.1400310  64.6954608  32.5612396  70.9513377  63.2837212
  32.3636796  70.3582737  62.5588278  32.0059060  70.6465587  64.0013151
  40.5409119  70.8436483  65.4031805  40.5957729  69.8910319  65.3274282
  39.7300321  70.9995922  65.8873103  41.6900313  74.7716606  56.6410088
  41.2519743  74.0552465  56.1815726  42.4310754  74.9992721  56.0795180
  38.4801479  69.4613543  63.1622184  37.6669345  69.7607713  63.5687376
  38.9760474  69.0669232  63.8796666  40.6310057  79.4571300  65.0956449
  40.5886236  79.6832146  64.1664981  41.5472756  79.2234674  65.2442250
  49.8073428  73.0473803  62.6986407  49.6691327  73.2375399  61.7707596
  49.4509647  73.8093186  63.1554458  37.9715554  67.0331898  68.7783419
  38.6114933  66.8920657  68.0806382  37.1393085  66.7466412  68.4022021
  49.8342808  75.1150330  67.7097678  50.2679314  75.0225619  68.5580732
  50.5474388  75.0907831  67.0717694  38.7475858  76.3334329  64.8918411
  39.5416456  75.8384649  64.6900986  38.0367550  75.8052192  64.5286117
  43.5670702  78.7152424  69.2430779  43.6207725  79.2843361  70.0108495
  42.6985484  78.8854309  68.8784816  35.0558621  70.4777410  60.9678164
  34.1256210  70.4161866  61.1848126  35.1516093  69.9553363  60.1714805
  34.9744170  67.0032223  63.5556406  35.2350988  67.9177557  63.4465566
  35.7961343  66.5356666  63.7053018  36.4469096  68.4169980  70.7255230
  37.1192149  68.2087343  70.0767879  35.6198882  68.2192066  70.2860462
  50.6958357  75.1574031  70.2430564  50.8894247  76.0619841  70.4889839
  50.5958975  74.6981450  71.0769149  42.3494668  65.0431921  72.7420891
  41.7022583  65.7421871  72.6485367  43.1195683  65.4768065  73.1097139
  42.5258802  72.8812686  70.8017711  43.4550862  73.0323846  70.6286678
  42.1049832  72.9696707  69.9466357  41.3247134  76.9063351  68.5716248
  41.1858220  76.5382135  69.4442187  40.5361730  77.4210990  68.4000206
  41.9195286  82.0072447  59.9141785  42.0947042  81.5360490  60.7287408
  41.2328074  82.6338213  60.1423046  42.8752349  76.2844953  65.9605086
  42.5402182  76.2445723  66.8562736  42.3756295  75.6189669  65.4875496
  36.8496593  71.6912583  71.4857667  36.7116391  70.9592822  72.0869206
  37.7601517  71.6021484  71.2041855  45.8111541  73.6300988  56.2342146
  45.1940711  72.9047816  56.1375199  45.3428029  74.3910348  55.8909220
  39.4778894  71.4032543  70.9741347  40.1878512  70.7625735  70.9327965
  39.4348202  71.6545438  71.8967528  47.4665672  78.3399896  73.8947926
  47.4078219  77.6559116  73.2278509  47.8685191  79.0818886  73.4428552
  38.1907828  68.3897761  72.7936986  37.6545185  67.9388499  73.4458583
  37.6024536  68.5243669  72.0507451  36.4856371  85.1561810  66.6881645
  36.7252969  85.7880334  67.3660664  35.6425568  84.8049850  66.9747004
  37.6010087  67.8486412  55.3563450  36.7239553  67.7275213  54.9925697
  38.0767840  67.0572490  55.1042339  47.4683080  76.3039480  72.1261906
  46.5809858  75.9665402  72.2488305  48.0381631  75.5722511  72.3630671
  29.1212227  72.6363572  65.4504957  29.8083267  72.3225302  64.8625973
  28.9660356  73.5404936  65.1772209  33.9246949  67.5253768  69.8789981
  33.8405138  66.9179438  69.1440391  33.1029655  68.0162787  69.8799477
  40.9984233  80.9640932  69.0923149  40.9254405  81.7695904  69.6042454
  40.5561626  81.1632898  68.2671170  40.7874013  80.2012702  62.6025971
  40.0041535  80.7434383  62.6964195  41.4866758  80.7186682  63.0020212
  44.0970663  66.0107332  65.2460176  44.5939362  65.2577294  64.9261246
  43.3257644  66.0471649  64.6803385  51.9500420  71.7147697  66.8878468
  51.9390296  72.5972413  66.5172401  51.0817800  71.3619248  66.6933005
  43.4582917  80.8627766  71.2481308  44.1710889  81.4975231  71.1757209
  42.9672945  80.9591632  70.4321310  45.1800444  74.7679019  62.8198599
  44.2456722  74.8880482  62.6503304  45.3577112  73.8651486  62.5558609
  40.6805632  68.1524715  64.9731861  40.3103419  67.5995755  65.6612766
  41.1764724  67.5482848  64.4206861  48.5672995  70.6096338  63.3548634
  49.0333447  71.4424330  63.2808936  49.0180495  70.1441320  64.0593892
  38.5094830  78.6122210  72.0686879  39.2104290  79.2458693  72.2216273
  38.0389945  78.9536941  71.3082518  46.6349226  76.9540160  60.3534786
  46.9109070  76.8396754  61.2628660  45.7653725  76.5557645  60.3146959
  46.5389658  62.9776925  67.3939535  45.6252737  63.2081152  67.5621742
  46.9682759  63.0615369  68.2453567  43.2703290  81.2026511  63.9967599
  43.4525685  80.3848166  64.4595352  44.0936276  81.4194203  63.5592489
  43.6045455  80.1294696  61.2582648  44.1333222  79.6187150  60.6452810
  43.8673675  79.8137226  62.1228181  34.1062548  78.1458565  69.0017981
  34.6915985  77.4002253  69.1345885  33.9087387  78.4562522  69.8854645
  36.9601203  81.1809812  64.0180424  36.2911579  81.6655940  63.5344464
  36.8214073  81.4279033  64.9323802  28.6980203  70.7164165  67.7222424
  28.7364302  70.1827756  68.5159542  28.1920496  70.1899371  67.1033402
  41.1006472  83.2153556  70.6163082  41.6524780  83.3785177  71.3812167
  41.4412665  83.8057994  69.9443107  36.0770965  65.5628706  71.2184967
  36.1412292  66.4243537  70.8062364  36.0138085  64.9502707  70.4857325
  32.3288781  69.4428267  60.7976356  32.6242222  68.5338946  60.7443409
  31.4276816  69.4216007  60.4757358  44.2374859  81.1635531  67.6026764
  44.1125999  80.3625271  67.0937710  44.8953950  81.6581725  67.1140734
  35.8583028  67.5184264  66.7803904  35.1369613  68.1320232  66.6411378
  36.6476283  68.0542029  66.7020550  46.3009768  78.9644551  69.2306314
  45.3540103  78.8449903  69.1584641  46.6492541  78.0767049  69.3132576
  38.6609341  64.8538690  73.0544556  39.1843743  65.1000987  73.8170865
  38.4421674  65.6858725  72.6347693  34.0576622  67.1242365  60.9215681
  33.7289328  66.2439744  60.7390787  34.4115993  67.0690034  61.8092070
  43.3056201  78.7597268  65.4310666  43.1581163  77.8313975  65.6118237
  44.1309694  78.7817358  64.9467742  37.1718445  67.4115335  61.2891159
  37.5114518  67.9401256  60.5669767  37.6190566  67.7495741  62.0649725
  46.9090323  79.5825826  66.5175539  47.8336870  79.3768688  66.3799990
  46.7405626  79.3342228  67.4264881  39.8661886  65.7952385  70.7394227
  39.5258706  64.9960199  71.1414907  39.1600892  66.0954096  70.1671060
  40.5178358  62.8801698  69.1921550  41.3404427  62.4062176  69.0700440
  40.7616421  63.6592182  69.6920236  39.1586592  65.9089956  59.4884451
  39.8794955  66.2871209  58.9848168  38.5351897  66.6278833  59.5919429
  43.3017715  66.6135105  60.4242784  43.5181330  67.4959743  60.1231612
  42.8211782  66.2221319  59.6948426  38.0416937  69.5720819  67.0013528
  37.8961517  69.8861122  67.8937810  37.5642140  70.1905719  66.4484427
  39.9013320  66.5623367  67.0494418  39.8874888  65.6664460  66.7126716
  40.6185748  66.5694030  67.6832704  41.7539450  66.9960707  69.0947545
  41.4957228  67.9177777  69.0931876  41.2224491  66.5991141  69.7848009
  46.6985639  80.1011494  61.8737631  46.8722517  79.5357916  61.1211483
  47.1914530  80.9012389  61.6917121  32.5162599  72.1126163  69.9401189
  31.9716067  72.8885971  70.0721464  33.3941949  72.4596967  69.7820311
  39.3050215  65.4437747  62.3181988  39.4266127  64.5154393  62.5172875
  39.0152258  65.4576433  61.4060303  42.1741406  63.1292657  65.4548708
  42.1963103  63.1931990  64.5000687  42.5909465  62.2897166  65.6489214
  52.5525030  72.8647917  63.4927930  52.9956176  72.1155242  63.0947054
  51.6751540  72.8558053  63.1101662  47.6860812  79.4178258  58.9734529
  48.3811716  80.0384951  59.1921844  48.0283962  78.5673609  59.2486907
  33.3028621  71.2396059  72.8331346  32.5610357  71.3878695  73.4195977
  32.9821365  71.5004325  71.9698096  49.5852235  76.8677964  60.5021860
  50.1103559  77.2065237  59.7771180  49.4974587  75.9324979  60.3184994
  41.2472283  80.7812037  72.6311736  41.5559410  80.5361184  73.5034436
  42.0447765  80.9858676  72.1430607  41.2692895  82.9349947  64.8617113
  40.8297886  82.4426326  65.5549970  42.0201012  82.3922915  64.6209188
  33.7485234  79.1261488  64.8641741  34.5743254  78.8265260  64.4840385
  33.3979286  78.3569110  65.3131530  38.7166768  78.4787956  66.9339415
  38.0946777  77.8158661  66.6341642  39.3871634  78.5049088  66.2513062
  31.9493839  77.0447814  65.8230675  31.1125748  76.6169989  65.6414676
  31.9217485  77.2380258  66.7601466  38.2780274  77.0291879  60.4097875
  38.4268395  77.7127344  59.7564548  39.0846718  77.0096970  60.9247331
  41.0190583  67.7101117  73.2818279  40.1493893  68.0034683  73.0100868
  41.2550064  68.2941562  74.0025543  50.8962213  76.7700275  73.3647808
  50.6047021  77.1330256  74.2011269  50.2834344  76.0567284  73.1861140
  52.0957895  74.3353155  65.8850378  52.9304786  74.7742959  66.0487938
  52.2317024  73.8591808  65.0658624  36.0332907  73.0557057  61.4158944
  35.7878949  72.1519387  61.6139154  36.2028822  73.0574208  60.4738422
  43.7229617  63.9280734  70.7983700  44.2411561  64.6641760  70.4730188
  43.3684750  64.2344727  71.6330459  35.3028555  68.7885415  58.9145105
  34.6097800  68.8629770  58.2585141  35.0580307  68.0245758  59.4366622
  43.9742211  60.3481016  66.3184596  44.2543965  59.6804205  66.9445023
  44.7592818  60.5410112  65.8059260  41.7775680  79.5240010  57.8809623
  41.2049647  80.1430197  57.4280094  42.3508474  80.0739372  58.4149544
  47.8451070  68.7698650  70.0656171  48.7968493  68.8696748  70.0868395
  47.6754520  67.9776919  70.5754256  45.8665449  65.8554233  70.2515572
  45.2715381  66.1359246  69.5562061  45.5815146  66.3448134  71.0232313
  44.9972940  79.8077160  59.0118205  45.9303613  79.7422722  59.2151080
  44.9096153  80.6433427  58.5532737  47.6260956  79.1243030  55.9722152
  47.5474588  78.7902894  56.8657910  48.4470623  79.6164798  55.9713625
  50.3239148  71.9904770  69.1798471  50.2915468  71.0520770  69.3658155
  50.9339771  72.0688806  68.4464296  42.1622478  70.8600823  55.2225675
  43.1081583  70.7307031  55.2914093  41.7836723  70.1215485  55.6995103
  50.4733636  68.7815813  69.2256754  49.9572685  67.9974270  69.0386683
  51.3573585  68.4534530  69.3903274  48.1344363  62.5256829  65.1852567
  47.9369184  62.2171917  66.0695899  48.7444069  63.2518468  65.3150497
  56.1415697  73.0520777  68.3204508  56.8719086  72.7906065  68.8812211
  55.5322643  72.3149499  68.3606576  54.2230995  71.1928639  68.9178959
  53.4964158  71.0584604  68.3095451  53.8078281  71.5005468  69.7235677
  40.3465396  68.7850799  55.1580560  39.4396851  68.4883912  55.2343274
  40.6241377  68.4880617  54.2914847  31.2643336  70.1057162  65.6079607
  30.9446120  69.2522471  65.3153981  30.7176764  70.3205741  66.3637574
  35.0423244  72.8219603  69.3249113  35.2609253  73.7536711  69.3437147
  35.4549017  72.4627578  70.1103917  41.9627461  63.3287689  61.3124802
  41.1528190  62.9834774  61.6880048  42.6511878  63.0195233  61.9012413
  43.8918010  62.4065736  62.9349098  44.4449048  62.8261189  63.5939121
  44.1288096  61.4801484  62.9772054  39.1164180  65.6437734  55.2992539
  39.9783344  65.9692633  55.5588357  39.3014524  64.8569230  54.7865605
  31.1331596  73.7260074  67.5772728  30.4395067  73.3114027  67.0642683
  31.8804587  73.7680610  66.9806147  47.2696817  64.5166261  62.4427762
  46.6895486  65.1751065  62.0605815  47.0032749  63.6943605  62.0315180
  45.7200383  63.9171318  64.6449083  46.2200161  64.0287853  63.8363402
  46.3635991  63.6132371  65.2849891  33.0468339  73.6578328  65.4538743
  33.0239027  73.7566015  64.5020626  33.3568975  74.5043479  65.7755909
  35.7055716  75.7154483  69.5685358  36.6598970  75.6838425  69.5015289
  35.5068240  75.2545107  70.3835583  36.2955099  74.2855599  72.1356155
  37.1147988  74.7799678  72.1590992  36.5691906  73.3687567  72.1073723
  46.0521695  66.6766351  61.4984111  45.1647550  66.9616002  61.2804305
  46.4675684  66.5160115  60.6511388  49.4036231  66.7012872  65.2138450
  50.1796621  67.1909325  65.4863067  48.6784365  67.1270926  65.6710319
  51.8408790  67.4140491  66.2712391  52.4353280  67.1736227  65.5605699
  51.9135373  66.6947622  66.8985927  34.0605945  81.2574102  66.5855555
  33.9260413  80.4974503  66.0193553  33.6438007  81.9815002  66.1184344
  45.1964908  76.4411026  55.5932131  45.9000758  76.6461028  56.2089786
  44.4727557  77.0087788  55.8581214  46.0262718  72.1920887  61.7134401
  45.9697920  72.6489439  60.8742033  46.5791061  71.4311572  61.5357244
  49.8367524  67.9810619  62.5384520  49.5804459  67.5807255  63.3692728
  49.2120392  68.6954413  62.4134660  54.1479862  70.7206692  65.0455812
  53.5879420  70.7899882  65.8187374  53.5423366  70.5447677  64.3255308
  37.2175071  82.1543419  66.7973998  37.1007455  83.0988852  66.6952688
  36.3967517  81.8516981  67.1859797  47.1051606  76.8793555  57.6430591
  47.9397210  76.4474753  57.4608066  46.9435949  76.7075569  58.5707485
  46.7597498  73.3825668  59.0086930  46.7046302  73.2169940  58.0675374
  46.1343553  74.0901701  59.1649120  31.5490013  68.6193733  72.8348352
  32.1948876  68.1092687  73.3235577  31.3407164  69.3562414  73.4091778
  40.0693623  62.8833777  58.5872248  40.0572293  63.8275617  58.7440519
  40.9617045  62.7003923  58.2931710  38.2429585  82.8071681  70.0129926
  39.1456832  82.8395291  70.3296421  38.0166955  81.8772132  70.0276262
  39.9983187  81.5602668  66.6740005  39.0478818  81.5604529  66.5604377
  40.3015673  80.8135402  66.1576040  43.8845743  59.4776554  62.8418185
  43.1178139  58.9235041  62.9874868  44.2956448  59.5498423  63.7032337
  55.7335881  87.3963206  67.7385768  56.3714291  87.2769953  67.0349108
  55.6156724  88.3444050  67.7973720  52.5425587  87.3490634  67.6747292
  52.2044099  87.2331699  66.7867827  53.4115355  86.9481799  67.6548298
  48.4012403  89.2026111  63.6644183  47.8377268  89.1116048  62.8960471
  48.2864798  88.3826015  64.1446676  53.0245370  88.5025486  73.6333498
  53.0134011  88.1078284  72.7614001  53.1866009  87.7691559  74.2267269
  45.9476835  90.6977302  66.5028404  46.7398127  90.3568127  66.0874703
  46.1873485  90.8072277  67.4230557  53.9811961  92.8697078  58.9758648
  53.3299941  93.4551159  58.5892662  54.7756324  93.4003273  59.0353686
  47.9067589  89.9586215  59.3745782  48.6798465  89.4115203  59.2358658
  48.2592987  90.8230465  59.5860244  49.7452631  91.2862598  72.5812682
  49.4542497  92.1908229  72.4659348  50.3809615  91.3279125  73.2956751
  50.6708838  88.6639446  69.1714041  51.2672410  88.4395469  68.4571004
  50.7283810  87.9224192  69.7739489  50.2433866  86.1178882  57.0064232
  50.4959387  85.5960403  56.2447695  49.3058425  85.9545027  57.1090916
  55.2877149  85.1214660  64.8138976  56.0740238  84.7034083  64.4629393
  55.5515854  86.0260752  64.9820624  55.4587227  90.5587510  59.5127632
  54.8233060  90.6322137  60.2248537  55.1284633  91.1481109  58.8346712
  60.6885576  85.0589893  65.7171954  61.4210748  84.4889110  65.9509784
  59.9324932  84.6711494  66.1578460  49.9630155  88.0206988  59.2088607
  49.8466413  87.3451891  59.8769692  50.0732415  87.5339361  58.3920760
  52.3061696  87.4817135  62.9135297  51.9419903  86.9547756  63.6248218
  53.1628812  87.0915604  62.7401782  58.2110997  78.7711467  70.1766563
  57.8794321  79.6406878  69.9527778  57.6156610  78.4547751  70.8560593
  51.9467183  82.5107034  57.9096645  52.1141585  83.3787271  58.2767116
  51.7564352  82.6734316  56.9857934  54.7042516  90.9724013  69.5762475
  54.4043239  91.8749052  69.4678283  54.3593576  90.7056196  70.4283628
  48.1554998  87.4237810  65.6099180  47.2305494  87.2914024  65.8176872
  48.4039411  88.2032029  66.1069122  58.1039660  83.4906553  67.2559913
  57.1956537  83.4221962  66.9618674  58.0527256  83.9678498  68.0841738
  51.9256404  84.9664692  58.8943312  51.8056029  85.4121743  59.7328792
  51.2308992  85.3150010  58.3356850  45.5163809  87.0671084  66.4442969
  45.6456190  87.3205563  67.3582381  44.8361260  87.6598792  66.1247624
  49.6863296  97.7368334  62.5433443  49.6087326  98.6876159  62.6221924
  49.0824940  97.3914206  63.2008369  52.1780526  84.9096199  75.1994810
  51.4013860  85.4690119  75.1897675  52.8171089  85.3952982  75.7209680
  59.9701306  81.6922992  69.0337787  59.3275687  81.9855525  68.3877581
  59.4656235  81.5775912  69.8390983  57.6241470  85.4386165  59.7223646
  58.5359326  85.6713552  59.5471343  57.1151117  86.0223209  59.1598725
  50.4326898  87.7181652  74.7612777  51.1741582  88.2566696  74.4847601
  49.7263884  88.3447941  74.9184329  55.9082238  89.8610793  73.3584938
  56.3165594  89.4193203  72.6139571  55.1859499  89.2863420  73.6119131
  52.2613308  84.7983400  70.7318495  53.1074503  85.2222813  70.8753144
  52.2011945  84.1417024  71.4257059  56.2311052  90.4211983  67.1137227
  55.6019915  90.5857698  66.4113295  55.8436714  90.8353593  67.8848191
  60.1100284  91.3566421  64.4681591  59.4251322  91.7365323  63.9178624
  60.1944134  91.9661748  65.2013539  55.4112753  82.4587768  72.3899669
  55.1673685  83.2129829  71.8533945  55.6872684  82.8373116  73.2246916
  57.3651216  89.0026380  71.0676935  57.5768111  89.6458140  70.3911316
  57.3180964  88.1688697  70.5998865  54.9677445  81.6144201  67.9713507
  54.1061924  81.9125455  68.2630244  54.9939879  81.8314600  67.0394539
  51.7839014  90.1586392  64.3787312  52.2477360  90.4374095  63.5891935
  51.5195812  89.2569836  64.1960403  48.6763095  89.7057873  67.3167076
  49.2464452  90.1345141  66.6784560  49.2671207  89.4240458  68.0151261
  50.7207900  86.2809544  61.1876878  51.4231944  86.7330588  61.6550804
  50.3888529  85.6393363  61.8156771  49.1688262  84.8721301  75.5628087
  48.5386922  85.5537581  75.7963484  49.0624350  84.7604382  74.6181225
  44.4633234  84.5393097  66.4894011  43.6732288  84.7950625  66.0134122
  44.9544482  85.3541434  66.5946052  46.4147980  84.9037676  63.4477488
  45.6179143  85.0156370  63.9660984  46.1873572  85.2424328  62.5818378
  52.2453647  91.4282379  71.3960002  52.3098080  91.8902786  72.2318174
  51.5364571  90.7979744  71.5242312  42.7470937  84.7923587  68.9209002
  42.9978976  85.6770597  69.1866578  43.2830486  84.6128189  68.1484094
  51.9601665  93.0950487  61.2638983  51.8247340  93.9402022  61.6923831
  52.5011477  93.2969764  60.5004917  45.4131062  90.6125925  61.8366908
  45.9255583  91.4069175  61.9872473  46.0653775  89.9152215  61.7700509
  47.2225947  93.7291681  63.9189661  47.3992575  94.6509646  63.7310645
  48.0182781  93.4150100  64.3484041  51.3636966  80.5899946  75.5173595
  52.1046679  81.1907099  75.4378057  51.5954888  79.8477583  74.9591637
  46.5078304  85.7756313  73.7951824  46.3931819  84.8741570  74.0958923
  45.6522821  86.0220010  73.4436641  53.5870141  93.7174053  75.3939325
  53.1433995  92.9310432  75.0760229  54.2487355  93.9053204  74.7283216
  48.3457262  95.2469855  69.9200003  48.8964688  95.1186918  69.1476997
  47.5068738  95.5464744  69.5694896  52.1424434  91.5120983  74.2644235
  52.6752770  90.7509271  74.0343543  51.6138515  91.2194634  75.0068389
  55.3094128  76.6181048  69.7937876  54.9658398  77.5082690  69.7176987
  55.6773091  76.4282706  68.9307461  43.3779979  88.9414579  62.6126478
  44.2155201  89.3511587  62.3960186  43.5558247  88.0014021  62.5826672
  55.2744411  86.6089660  58.3010311  54.7591035  87.3794264  58.5398699
  55.0021720  85.9354796  58.9243373  52.8591522  81.4539360  63.3595550
  52.0033119  81.0646211  63.1801188  53.2718474  81.5331321  62.4995335
  54.3890669  78.9885704  67.7587110  53.8855464  78.9515839  66.9454915
  54.6821276  79.8978446  67.8183766  50.6333555  79.0724433  66.7653291
  51.4986552  78.8767242  66.4059181  50.7011064  78.8434785  67.6922648
  55.0630714  84.4816752  60.1270093  54.7580850  84.7962901  60.9780236
  56.0161157  84.5598172  60.1697426  53.5077146  90.6406975  61.7763047
  52.9798508  89.9059735  61.4636284  53.0064649  91.4181651  61.5303015
  58.4869992  88.8355995  66.8930093  57.8293667  89.5255257  66.9810221
  59.2910391  89.2252427  67.2364079  48.2395874  81.3026641  64.1369658
  48.8139626  81.0801823  63.4042851  48.8266856  81.3715336  64.8898259
  57.2975451  87.1900368  64.9434035  57.8107333  87.8230360  65.4455744
  57.9476675  86.5901564  64.5777395  48.5665461  83.3331102  58.1565543
  47.7302773  83.6705789  58.4774818  48.4270231  83.1980082  57.2192680
  50.5418542  78.1767890  62.8644728  49.8882954  77.8616907  62.2401342
  50.4999016  77.5543631  63.5904550  51.6529746  88.4587185  54.7798020
  50.7456808  88.2276439  54.9789169  52.1500778  87.6624804  54.9672001
  54.5597825  97.1684692  57.6994706  53.8859524  97.4716389  58.3079664
  54.9463647  97.9713773  57.3500163  53.7756282  84.6649824  67.1892375
  52.8578843  84.8864771  67.0314063  54.1916426  84.7396134  66.3304082
  54.5591330  86.0641239  62.3195055  55.3063149  86.5762637  62.0102177
  54.8282919  85.7425292  63.1799449  52.8317980  88.5599780  59.3022010
  51.9229199  88.2758813  59.3994479  52.8613064  88.9798859  58.4425317
  58.0637247  92.1706370  63.0713177  57.6099574  91.3297279  63.1278368
  57.4331214  92.8067768  63.4087957  57.0070167  83.0998356  64.3013845
  56.2692924  82.5875742  64.6324087  57.2596940  82.6598737  63.4897122
  57.1081794  75.8774608  64.8955614  57.4140671  75.0171971  64.6081529
  57.8334399  76.4692228  64.6954608  43.4006150  86.2805294  63.2837212
  43.2030550  85.6874655  62.5588278  42.8452814  85.9757504  64.0013151
  51.3802874  86.1728401  65.4031805  51.4351484  85.2202237  65.3274282
  50.5694076  86.3287840  65.8873103  52.5294068  90.1008524  56.6410088
  52.0913498  89.3844383  56.1815726  53.2704509  90.3284639  56.0795180
  49.3195234  84.7905460  63.1622184  48.5063099  85.0899631  63.5687376
  49.8154228  84.3961149  63.8796666  51.4703812  94.7863217  65.0956449
  51.4279990  95.0124064  64.1664981  52.3866511  94.5526592  65.2442250
  54.9169445  85.2547285  71.9937078  55.2718833  85.4818758  72.8531544
  55.5641577  85.5865662  71.3714333  60.6467182  88.3765721  62.6986407
  60.5085081  88.5667317  61.7707596  60.2903401  89.1385104  63.1554458
  48.8109309  82.3623816  68.7783419  49.4508688  82.2212575  68.0806382
  47.9786839  82.0758329  68.4022021  60.6736562  90.4442248  67.7097678
  61.1073069  90.3517537  68.5580732  61.3868143  90.4199748  67.0717694
  49.5869612  91.6626246  64.8918411  50.3810211  91.1676567  64.6900986
  48.8761305  91.1344110  64.5286117  54.4064457  94.0444342  69.2430779
  54.4601479  94.6135278  70.0108495  53.5379238  94.2146227  68.8784816
  45.8952376  85.8069328  60.9678164  44.9649964  85.7453784  61.1848126
  45.9909848  85.2845281  60.1714805  45.8137925  82.3324141  63.5556406
  46.0744742  83.2469474  63.4465566  46.6355097  81.8648584  63.7053018
  47.2862850  83.7461898  70.7255230  47.9585904  83.5379260  70.0767879
  46.4592637  83.5483984  70.2860462  53.1888422  80.3723839  72.7420891
  52.5416337  81.0713789  72.6485367  53.9589438  80.8059983  73.1097139
  56.5967220  90.6372691  75.8171444  56.4452727  90.4083243  74.9001528
  56.5871900  91.5943293  75.8302789  53.3652557  88.2104604  70.8017711
  54.2944617  88.3615764  70.6286678  52.9443587  88.2988625  69.9466357
  52.1640888  92.2355268  68.5716248  52.0251974  91.8674053  69.4442187
  51.3755485  92.7502908  68.4000206  52.7589040  97.3364365  59.9141785
  52.9340796  96.8652408  60.7287408  52.0721828  97.9630131  60.1423046
  53.7146104  91.6136871  65.9605086  53.3795936  91.5737641  66.8562736
  53.2150049  90.9481587  65.4875496  47.6890348  87.0204501  71.4857667
  47.5510146  86.2884740  72.0869206  48.5995271  86.9313401  71.2041855
  56.6505295  88.9592905  56.2342146  56.0334466  88.2339734  56.1375199
  56.1821784  89.7202266  55.8909220  50.3172648  86.7324460  70.9741347
  51.0272267  86.0917653  70.9327965  50.2741956  86.9837355  71.8967528
  49.0301582  83.7189678  72.7936986  48.4938939  83.2680417  73.4458583
  48.4418291  83.8535587  72.0507451  47.3250126 100.4853728  66.6881645
  47.5646724 101.1172252  67.3660664  46.4819322 100.1341768  66.9747004
  48.4403841  83.1778330  55.3563450  47.5633307  83.0567131  54.9925697
  48.9161594  82.3864408  55.1042339  39.9605981  87.9655489  65.4504957
  40.6477021  87.6517219  64.8625973  39.8054110  88.8696854  65.1772209
  44.7640703  82.8545686  69.8789981  44.6798892  82.2471356  69.1440391
  43.9423410  83.3454704  69.8799477  51.8377988  96.2932850  69.0923149
  51.7648159  97.0987822  69.6042454  51.3955381  96.4924816  68.2671170
  51.6267767  95.5304620  62.6025971  50.8435289  96.0726300  62.6964195
  52.3260512  96.0478600  63.0020212  54.9364417  81.3399250  65.2460176
  55.4333117  80.5869212  64.9261246  54.1651399  81.3763566  64.6803385
  54.2976671  96.1919684  71.2481308  55.0104643  96.8267149  71.1757209
  53.8066700  96.2883550  70.4321310  56.0194198  90.0970937  62.8198599
  55.0850477  90.2172399  62.6503304  56.1970866  89.1943404  62.5558609
  51.5199386  83.4816633  64.9731861  51.1497174  82.9287673  65.6612766
  52.0158479  82.8774766  64.4206861  59.4066749  85.9388256  63.3548634
  59.8727202  86.7716248  63.2808936  59.8574250  85.4733238  64.0593892
  49.3488585  93.9414128  72.0686879  50.0498044  94.5750611  72.2216273
  48.8783700  94.2828859  71.3082518  57.4742980  92.2832077  60.3534786
  57.7502824  92.1688672  61.2628660  56.6047479  91.8849562  60.3146959
  57.3783412  78.3068843  67.3939535  56.4646492  78.5373070  67.5621742
  57.8076514  78.3907287  68.2453567  57.1489871  86.4958735  69.8939429
  56.4961321  86.7434642  69.2391882  57.5270251  85.6822873  69.5601906
  54.1097044  96.5318428  63.9967599  54.2919439  95.7140084  64.4595352
  54.9330031  96.7486120  63.5592489  54.4439210  95.4586613  61.2582648
  54.9726976  94.9479068  60.6452810  54.7067430  95.1429144  62.1228181
  53.1977444  87.2378546  76.3805466  52.5218081  87.1372675  77.0507841
  54.0205078  87.0817760  76.8441463  44.9456303  93.4750483  69.0017981
  45.5309740  92.7294171  69.1345885  44.7481141  93.7854439  69.8854645
  47.7994958  96.5101730  64.0180424  47.1305333  96.9947858  63.5344464
  47.6607828  96.7570950  64.9323802  39.5373957  86.0456083  67.7222424
  39.5758057  85.5119674  68.5159542  39.0314250  85.5191288  67.1033402
  51.9400227  98.5445474  70.6163082  52.4918535  98.7077095  71.3812167
  52.2806420  99.1349911  69.9443107  46.9164720  80.8920623  71.2184967
  46.9806046  81.7535454  70.8062364  46.8531840  80.2794625  70.4857325
  46.3916992  82.9643756  74.8658001  47.0189031  82.5820833  75.4795525
  45.5344911  82.7457958  75.2313693  56.7911101  93.3706731  76.4711736
  57.3351005  93.9836689  75.9766691  56.2097946  93.9286309  76.9878749
  43.1682535  84.7720185  60.7976356  43.4635976  83.8630863  60.7443409
  42.2670571  84.7507924  60.4757358  46.6976782  82.8476182  66.7803904
  45.9763368  83.4612149  66.6411378  47.4870038  83.3833946  66.7020550
  49.5003096  80.1830608  73.0544556  50.0237497  80.4292905  73.8170865
  49.2815429  81.0150643  72.6347693  44.8970377  82.4534283  60.9215681
  44.5683083  81.5731662  60.7390787  45.2509747  82.3981951  61.8092070
  54.1449955  94.0889185  65.4310666  53.9974918  93.1605893  65.6118237
  54.9703449  94.1109276  64.9467742  48.0112200  82.7407252  61.2891159
  48.3508272  83.2693174  60.5669767  48.4584320  83.0787659  62.0649725
  50.7055641  81.1244303  70.7394227  50.3652461  80.3252116  71.1414907
  49.9994647  81.4246014  70.1671060  51.3572112  78.2093616  69.1921550
  52.1798182  77.7354094  69.0700440  51.6010176  78.9884099  69.6920236
  49.9980347  81.2381874  59.4884451  50.7188709  81.6163127  58.9848168
  49.3745651  81.9570751  59.5919429  54.1411470  81.9427023  60.4242784
  54.3575084  82.8251661  60.1231612  53.6605537  81.5513236  59.6948426
  48.8810691  84.9012736  67.0013528  48.7355272  85.2153039  67.8937810
  48.4035895  85.5197637  66.4484427  50.7407074  81.8915284  67.0494418
  50.7268643  80.9956378  66.7126716  51.4579502  81.8985948  67.6832704
  52.5933205  82.3252624  69.0947545  52.3350983  83.2469695  69.0931876
  52.0618245  81.9283059  69.7848009  43.3556353  87.4418081  69.9401189
  42.8109821  88.2177889  70.0721464  44.2335703  87.7888885  69.7820311
  50.1443970  80.7729664  62.3181988  50.2659881  79.8446311  62.5172875
  49.8546012  80.7868350  61.4060303  53.0135160  78.4584575  65.4548708
  53.0356857  78.5223908  64.5000687  53.4303219  77.6189084  65.6489214
  63.3918785  88.1939834  63.4927930  63.8349931  87.4447160  63.0947054
  62.5145295  88.1849971  63.1101662  58.5254566  94.7470176  58.9734529
  59.2205471  95.3676869  59.1921844  58.8677716  93.8965527  59.2486907
  44.1422375  86.5687977  72.8331346  43.4004111  86.7170612  73.4195977
  43.8215119  86.8296242  71.9698096  60.4245989  92.1969881  60.5021860
  60.9497313  92.5357154  59.7771180  60.3368342  91.2616897  60.3184994
  52.0866038  96.1103955  72.6311736  52.3953164  95.8653102  73.5034436
  52.8841520  96.3150594  72.1430607  52.1086650  98.2641865  64.8617113
  51.6691640  97.7718243  65.5549970  52.8594767  97.7214832  64.6209188
  44.5878989  94.4553406  64.8641741  45.4137009  94.1557177  64.4840385
  44.2373041  93.6861028  65.3131530  49.5560522  93.8079874  66.9339415
  48.9340531  93.1450579  66.6341642  50.2265389  93.8341006  66.2513062
  42.7887594  92.3739732  65.8230675  41.9519502  91.9461906  65.6414676
  42.7611239  92.5672175  66.7601466  49.6285050  82.2861662  76.5271921
  49.6773205  83.1623785  76.1449690  50.1707564  81.7439055  75.9543564
  49.1174029  92.3583797  60.4097875  49.2662149  93.0419262  59.7564548
  49.9240472  92.3388887  60.9247331  57.5241533  85.6626179  74.4365093
  58.4251395  85.5232644  74.1449091  57.5989507  85.8280634  75.3763270
  51.8584338  83.0393034  73.2818279  50.9887647  83.3326600  73.0100868
  52.0943818  83.6233479  74.0025543  59.9843155  87.2224808  71.8327866
  60.4597277  87.4152454  71.0246717  59.0608721  87.2783993  71.5871249
  46.8726662  88.3848975  61.4158944  46.6272704  87.4811305  61.6139154
  47.0422576  88.3866125  60.4738422  54.5623372  79.2572651  70.7983700
  55.0805316  79.9933678  70.4730188  54.2078505  79.5636644  71.6330459
  46.1422309  84.1177332  58.9145105  45.4491554  84.1921687  58.2585141
  45.8974061  83.3537676  59.4366622  54.8135966  75.6772934  66.3184596
  55.0937720  75.0096123  66.9445023  55.5986573  75.8702029  65.8059260
  52.6169434  94.8531928  57.8809623  52.0443402  95.4722115  57.4280094
  53.1902228  95.4031289  58.4149544  58.6844824  84.0990568  70.0656171
  59.6362247  84.1988665  70.0868395  58.5148275  83.3068836  70.5754256
  56.7059204  81.1846151  70.2515572  56.1109136  81.4651164  69.5562061
  56.4208900  81.6740052  71.0232313  55.8366694  95.1369078  59.0118205
  56.7697367  95.0714639  59.2151080  55.7489907  95.9725345  58.5532737
  58.4654711  94.4534948  55.9722152  58.3868342  94.1194812  56.8657910
  59.2864378  94.9456716  55.9713625  53.0016233  86.1892740  55.2225675
  53.9475338  86.0598948  55.2914093  52.6230478  85.4507402  55.6995103
  61.3127391  84.1107731  69.2256754  60.7966439  83.3266187  69.0386683
  62.1967339  83.7826447  69.3903274  58.9738118  77.8548746  65.1852567
  58.7762939  77.5463835  66.0695899  59.5837823  78.5810385  65.3150497
  52.8854926  90.2410486  76.6826332  53.8057935  90.4189086  76.8766379
  52.8504509  89.2966532  76.5306031  51.1859150  84.1142717  55.1580560
  50.2790606  83.8175829  55.2343274  51.4635131  83.8172535  54.2914847
  42.1037090  85.4349080  65.6079607  41.7839875  84.5814388  65.3153981
  41.5570519  85.6497658  66.3637574  45.8816998  88.1511521  69.3249113
  46.1003008  89.0828629  69.3437147  46.2942772  87.7919496  70.1103917
  52.8021216  78.6579606  61.3124802  51.9921944  78.3126691  61.6880048
  53.4905633  78.3487150  61.9012413  54.7311764  77.7357653  62.9349098
  55.2842803  78.1553107  63.5939121  54.9681850  76.8093401  62.9772054
  50.7544863  83.7244727  78.7151862  50.6541590  84.6739084  78.6463953
  50.5366405  83.3962966  77.8427932  49.9557935  80.9729652  55.2992539
  50.8177099  81.2984550  55.5588357  50.1408279  80.1861148  54.7865605
  41.9725351  89.0551992  67.5772728  41.2788822  88.6405944  67.0642683
  42.7198342  89.0972528  66.9806147  58.1090571  79.8458178  62.4427762
  57.5289240  80.5042982  62.0605815  57.8426504  79.0235523  62.0315180
  56.5594138  79.2463236  64.6449083  57.0593916  79.3579771  63.8363402
  57.2029746  78.9424289  65.2849891  50.6176133  87.1541866  77.5316924
  50.1343215  87.9542226  77.7380813  50.7037072  87.1649811  76.5784368
  43.8862093  88.9870245  65.4538743  43.8632781  89.0857933  64.5020626
  44.1962730  89.8335396  65.7755909  46.5449471  91.0446400  69.5685358
  47.4992724  91.0130343  69.5015289  46.3461994  90.5837024  70.3835583
  47.1348853  89.6147517  72.1356155  47.9541742  90.1091595  72.1590992
  47.4085661  88.6979485  72.1073723  56.8915449  82.0058269  61.4984111
  56.0041304  82.2907919  61.2804305  57.3069438  81.8452032  60.6511388
  60.2429985  82.0304790  65.2138450  61.0190375  82.5201242  65.4863067
  59.5178120  82.4562844  65.6710319  62.6802544  82.7432409  66.2712391
  63.2747035  82.5028145  65.5605699  62.7529128  82.0239540  66.8985927
  44.8999700  96.5866020  66.5855555  44.7654168  95.8266421  66.0193553
  44.4831762  97.3106920  66.1184344  56.0358663  91.7702943  55.5932131
  56.7394513  91.9752946  56.2089786  55.3121311  92.3379705  55.8581214
  56.8656473  87.5212805  61.7134401  56.8091674  87.9781356  60.8742033
  57.4184815  86.7603489  61.5357244  60.6761279  83.3102537  62.5384520
  60.4198213  82.9099172  63.3692728  60.0514147  84.0246331  62.4134660
  48.0568826  97.4835337  66.7973998  47.9401210  98.4280769  66.6952688
  47.2361272  97.1808899  67.1859797  57.9445360  92.2085473  57.6430591
  58.7790964  91.7766671  57.4608066  57.7829703  92.0367486  58.5707485
  57.5991252  88.7117586  59.0086930  57.5440056  88.5461857  58.0675374
  56.9737308  89.4193619  59.1649120  42.3883767  83.9485650  72.8348352
  43.0342631  83.4384604  73.3235577  42.1800918  84.6854332  73.4091778
  54.9137159  91.0166498  78.3340493  55.7828319  91.1907150  77.9727128
  54.4343911  91.8360915  78.2116222  50.9087378  78.2125695  58.5872248
  50.8966048  79.1567535  58.7440519  51.8010800  78.0295840  58.2931710
  49.0823340  98.1363599  70.0129926  49.9850586  98.1687209  70.3296421
  48.8560710  97.2064050  70.0276262  50.8376942  96.8894585  66.6740005
  49.8872573  96.8896447  66.5604377  51.1409428  96.1427320  66.1576040
  54.7239497  74.8068472  62.8418185  53.9571893  74.2526958  62.9874868
  55.1350202  74.8790340  63.7032337  46.7281258  81.0953267  76.9323367
  47.5912720  80.7390072  77.1426691  46.1546669  80.7567162  77.6198771
  59.2406157 104.5318028  63.6644183  58.6771022 104.4407965  62.8960471
  59.1258552 103.7117933  64.1446676  56.7870589 106.0269220  66.5028404
  57.5791881 105.6860045  66.0874703  57.0267239 106.1364195  67.4230557
  64.8205716 108.1988996  58.9758648  64.1693696 108.7843076  58.5892662
  65.6150079 108.7295191  59.0353686  58.7461343 105.2878133  59.3745782
  59.5192219 104.7407120  59.2358658  59.0986742 106.1522382  59.5860244
  61.0827621 101.4470799  57.0064232  61.3353142 100.9252321  56.2447695
  60.1452180 101.2836945  57.1090916  60.8023910 103.3498905  59.2088607
  60.6860168 102.6743809  59.8769692  60.9126170 102.8631279  58.3920760
  62.7860938  97.8398952  57.9096645  62.9535340  98.7079188  58.2767116
  62.5958107  98.0026234  56.9857934  62.7650158 100.2956610  58.8943312
  62.6449784 100.7413660  59.7328792  62.0702747 100.6441927  58.3356850
  60.5257051 113.0660251  62.5433443  60.4481080 114.0168076  62.6221924
  59.9218694 112.7206124  63.2008369  62.7995419 108.4242404  61.2638983
  62.6641094 109.2693940  61.6923831  63.3405232 108.6261682  60.5004917
  56.2524817 105.9417842  61.8366908  56.7649337 106.7361093  61.9872473
  56.9047530 105.2444133  61.7700509  58.0619702 109.0583599  63.9189661
  58.2386330 109.9801563  63.7310645  58.8576535 108.7442018  64.3484041
  54.2173734 104.2706497  62.6126478  55.0548956 104.6803505  62.3960186
  54.3952001 103.3305939  62.5826672  66.1138166 101.9381577  58.3010311
  65.5984789 102.7086182  58.5398699  65.8415474 101.2646713  58.9243373
  65.2284423  94.3177621  67.7587110  64.7249219  94.2807756  66.9454915
  65.5215030  95.2270364  67.8183766  65.9024469  99.8108669  60.1270093
  65.5974604 100.1254819  60.9780236  66.8554911  99.8890089  60.1697426
  59.4059215  98.6623020  58.1565543  58.5696528  98.9997707  58.4774818
  59.2663985  98.5272000  57.2192680  61.3812296  93.5059808  62.8644728
  60.7276708  93.1908825  62.2401342  61.3392770  92.8835548  63.5904550
  62.4923501 103.7879103  54.7798020  61.5850563 103.5568356  54.9789169
  62.9894533 102.9916722  54.9672001  65.3991580 112.4976610  57.6994706
  64.7253279 112.8008307  58.3079664  65.7857402 113.3005690  57.3500163
  63.6711734 103.8891698  59.3022010  62.7622954 103.6050731  59.3994479
  63.7006818 104.3090776  58.4425317  54.2399905 101.6097212  63.2837212
  54.0424305 101.0166573  62.5588278  53.6846569 101.3049422  64.0013151
  63.3687822 105.4300441  56.6410088  62.9307252 104.7136300  56.1815726
  64.1098263 105.6576556  56.0795180  62.3097566 110.1155135  65.0956449
  62.2673745 110.3415981  64.1664981  63.2260265 109.8818510  65.2442250
  56.7346130 101.1361246  60.9678164  55.8043719 101.0745701  61.1848126
  56.8303602 100.6137199  60.1714805  63.5982795 112.6656283  59.9141785
  63.7734551 112.1944326  60.7287408  62.9115583 113.2922049  60.1423046
  67.4899050 104.2884823  56.2342146  66.8728220 103.5631651  56.1375199
  67.0215538 105.0494183  55.8909220  58.1643880 115.8145645  66.6881645
  58.4040478 116.4464169  67.3660664  57.3213077 115.4633685  66.9747004
  59.2797596  98.5070247  55.3563450  58.4027062  98.3859048  54.9925697
  59.7555349  97.7156326  55.1042339  50.7999736 103.2947407  65.4504957
  51.4870776 102.9809137  64.8625973  50.6447864 104.1988772  65.1772209
  62.4661522 110.8596538  62.6025971  61.6829044 111.4018218  62.6964195
  63.1654267 111.3770517  63.0020212  60.1882339 109.2706045  72.0686879
  60.8891799 109.9042528  72.2216273  59.7177454 109.6120777  71.3082518
  64.9490799 111.8610346  63.9967599  65.1313194 111.0432002  64.4595352
  65.7723785 112.0778038  63.5592489  65.2832964 110.7878531  61.2582648
  65.8120731 110.2770986  60.6452810  65.5461184 110.4721061  62.1228181
  55.7850057 108.8042400  69.0017981  56.3703494 108.0586088  69.1345885
  55.5874896 109.1146357  69.8854645  58.6388712 111.8393648  64.0180424
  57.9699088 112.3239775  63.5344464  58.5001582 112.0862868  64.9323802
  50.3767712 101.3748000  67.7222424  50.4151811 100.8411591  68.5159542
  49.8708005 100.8483206  67.1033402  54.0076290 100.1012103  60.7976356
  54.3029731  99.1922781  60.7443409  53.1064325 100.0799842  60.4757358
  55.7364131  97.7826200  60.9215681  55.4076837  96.9023579  60.7390787
  56.0903502  97.7273869  61.8092070  68.5877832 110.2409662  66.5175539
  69.5124379 110.0352523  66.3799990  68.4193135 109.9926063  67.4264881
  60.8374101  96.5673792  59.4884451  61.5582464  96.9455044  58.9848168
  60.2139406  97.2862669  59.5919429  63.8528915  93.7876493  65.4548708
  63.8750612  93.8515826  64.5000687  64.2696974  92.9481001  65.6489214
  54.9816130 101.8979895  72.8331346  54.2397866 102.0462530  73.4195977
  54.6608874 102.1588160  71.9698096  62.9480404 113.5933782  64.8617113
  62.5085395 113.1010161  65.5549970  63.6988521 113.0506750  64.6209188
  55.4272743 109.7845323  64.8641741  56.2530763 109.4849095  64.4840385
  55.0766795 109.0152946  65.3131530  60.3954277 109.1371792  66.9339415
  59.7734286 108.4742497  66.6341642  61.0659143 109.1632923  66.2513062
  53.6281348 107.7031650  65.8230675  52.7913257 107.2753824  65.6414676
  53.6004994 107.8964093  66.7601466  59.9567783 107.6875715  60.4097875
  60.1055904 108.3711179  59.7564548  60.7634227 107.6680805  60.9247331
  57.7120416 103.7140892  61.4158944  57.4666458 102.8103222  61.6139154
  57.8816331 103.7158043  60.4738422  56.9816064  99.4469250  58.9145105
  56.2885309  99.5213605  58.2585141  56.7367816  98.6829594  59.4366622
  63.4563189 110.1823845  57.8809623  62.8837156 110.8014032  57.4280094
  64.0295983 110.7323207  58.4149544  66.6760449 110.4660995  59.0118205
  67.6091122 110.4006557  59.2151080  66.5883662 111.3017262  58.5532737
  63.8409987 101.5184658  55.2225675  64.7869092 101.3890866  55.2914093
  63.4624232 100.7799320  55.6995103  62.0252905  99.4434634  55.1580560
  61.1184360  99.1467747  55.2343274  62.3028886  99.1464453  54.2914847
  52.9430845 100.7640998  65.6079607  52.6233629  99.9106306  65.3153981
  52.3964273 100.9789576  66.3637574  60.7951689  96.3021570  55.2992539
  61.6570853  96.6276468  55.5588357  60.9802033  95.5153066  54.7865605
  57.3843225 106.3738318  69.5685358  58.3386479 106.3422260  69.5015289
  57.1855749 105.9128942  70.3835583  57.9742608 104.9439434  72.1356155
  58.7935497 105.4383513  72.1590992  58.2479415 104.0271402  72.1073723
  55.7393454 111.9157938  66.5855555  55.6047922 111.1558339  66.0193553
  55.3225516 112.6398837  66.1184344  66.8752417 107.0994861  55.5932131
  67.5788267 107.3044864  56.2089786  66.1515066 107.6671623  55.8581214
  58.8962580 112.8127255  66.7973998  58.7794964 113.7572687  66.6952688
  58.0755026 112.5100816  67.1859797  53.2277522  99.2777568  72.8348352
  53.8736385  98.7676522  73.3235577  53.0194673 100.0146250  73.4091778
  61.7481132  93.5417613  58.5872248  61.7359802  94.4859453  58.7440519
  62.6404554  93.3587758  58.2931710  61.6770696 112.2186503  66.6740005
  60.7266327 112.2188365  66.5604377  61.9803182 111.4719238  66.1576040
  70.0799912 119.8609946  63.6644183  69.5164777 119.7699883  62.8960471
  69.9652307 119.0409850  64.1446676  67.6264344 121.3561138  66.5028404
  68.4185636 121.0151962  66.0874703  67.8660994 121.4656113  67.4230557
  75.6599470 123.5280914  58.9758648  75.0087450 124.1134994  58.5892662
  76.4543833 124.0587109  59.0353686  69.5855098 120.6170051  59.3745782
  70.3585974 120.0699038  59.2358658  69.9380496 121.4814300  59.5860244
  71.4240140 121.9446433  72.5812682  71.1330006 122.8492064  72.4659348
  72.0597124 121.9862961  73.2956751  71.9221375 116.7762717  57.0064232
  72.1746896 116.2544238  56.2447695  70.9845934 116.6128862  57.1090916
  77.1374736 121.2171346  59.5127632  76.5020569 121.2905972  60.2248537
  76.8072142 121.8064944  58.8346712  71.6417664 118.6790823  59.2088607
  71.5253922 118.0035726  59.8769692  71.7519924 118.1923197  58.3920760
  73.9849205 118.1400970  62.9135297  73.6207412 117.6131591  63.6248218
  74.8416321 117.7499439  62.7401782  69.8342507 118.0821645  65.6099180
  68.9093003 117.9497860  65.8176872  70.0826920 118.8615865  66.1069122
  73.6043913 115.6248527  58.8943312  73.4843538 116.0705578  59.7328792
  72.9096501 115.9733845  58.3356850  67.1951318 117.7254919  66.4442969
  67.3243699 117.9789398  67.3582381  66.5148769 118.3182627  66.1247624
  71.3650805 128.3952169  62.5433443  71.2874835 129.3459994  62.6221924
  70.7612449 128.0498041  63.2008369  73.4626523 120.8170227  64.3787312
  73.9264869 121.0957930  63.5891935  73.1983321 119.9153672  64.1960403
  70.3550604 120.3641708  67.3167076  70.9251961 120.7928977  66.6784560
  70.9458716 120.0824293  68.0151261  72.3995409 116.9393379  61.1876878
  73.1019453 117.3914423  61.6550804  72.0676038 116.2977198  61.8156771
  66.1420743 115.1976932  66.4894011  65.3519797 115.4534461  66.0134122
  66.6331991 116.0125270  66.5946052  73.9241156 122.0866214  71.3960002
  73.9885589 122.5486622  72.2318174  73.2152080 121.4563579  71.5242312
  73.6389174 123.7534322  61.2638983  73.5034849 124.5985858  61.6923831
  74.1798986 123.9553600  60.5004917  67.0918571 121.2709760  61.8366908
  67.6043092 122.0653010  61.9872473  67.7441284 120.5736050  61.7700509
  68.9013456 124.3875516  63.9189661  69.0780084 125.3093481  63.7310645
  69.6970290 124.0733935  64.3484041  75.2657650 124.3757888  75.3939325
  74.8221504 123.5894267  75.0760229  75.9274864 124.5637039  74.7283216
  70.0244771 125.9053690  69.9200003  70.5752197 125.7770753  69.1476997
  69.1856247 126.2048579  69.5694896  77.3638888 124.6560688  73.4220726
  77.3457364 125.4769569  72.9300995  78.2858808 124.5314764  73.6470867
  73.8211943 122.1704818  74.2644235  74.3540279 121.4093106  74.0343543
  73.2926024 121.8778470  75.0068389  65.0567488 119.5998414  62.6126478
  65.8942710 120.0095423  62.3960186  65.2345756 118.6597856  62.5826672
  75.1864655 121.2990810  61.7763047  74.6586017 120.5643570  61.4636284
  74.6852158 122.0765487  61.5303015  70.2452970 113.9914938  58.1565543
  69.4090282 114.3289624  58.4774818  70.1057740 113.8563917  57.2192680
  73.3317255 119.1171021  54.7798020  72.4244317 118.8860274  54.9789169
  73.8288287 118.3208640  54.9672001  76.2385334 127.8268528  57.6994706
  75.5647033 128.1300225  58.3079664  76.6251156 128.6297608  57.3500163
  74.5105489 119.2183615  59.3022010  73.6016708 118.9342648  59.3994479
  74.5400573 119.6382694  58.4425317  79.7424756 122.8290205  63.0713177
  79.2887083 121.9881115  63.1278368  79.1118723 123.4651603  63.4087957
  78.1857695 124.6666702  64.0062995  78.4780670 125.2271759  63.2875361
  78.6956316 124.9595263  64.7616154  65.0793659 116.9389130  63.2837212
  64.8818059 116.3458490  62.5588278  64.5240323 116.6341340  64.0013151
  74.2081577 120.7592359  56.6410088  73.7701007 120.0428218  56.1815726
  74.9492018 120.9868474  56.0795180  70.9982743 115.4489296  63.1622184
  70.1850608 115.7483466  63.5687376  71.4941737 115.0544985  63.8796666
  73.1491321 125.4447053  65.0956449  73.1067499 125.6707899  64.1664981
  74.0654020 125.2110427  65.2442250  71.2657121 122.3210082  64.8918411
  72.0597720 121.8260402  64.6900986  70.5548814 121.7927945  64.5286117
  76.0851966 124.7028177  69.2430779  76.1388988 125.2719114  70.0108495
  75.2166747 124.8730062  68.8784816  67.5739885 116.4653163  60.9678164
  66.6437473 116.4037619  61.1848126  67.6697357 115.9429116  60.1714805
  67.4925434 112.9907976  63.5556406  67.7532251 113.9053310  63.4465566
  68.3142606 112.5232419  63.7053018  73.8428397 122.8939104  68.5716248
  73.7039483 122.5257888  69.4442187  73.0542994 123.4086743  68.4000206
  74.4376549 127.9948200  59.9141785  74.6128305 127.5236243  60.7287408
  73.7509337 128.6213966  60.1423046  75.3933613 122.2720706  65.9605086
  75.0583445 122.2321476  66.8562736  74.8937558 121.6065422  65.4875496
  78.3292804 119.6176741  56.2342146  77.7121975 118.8923569  56.1375199
  77.8609293 120.3786101  55.8909220  79.9846936 124.3275649  73.8947926
  79.9259482 123.6434869  73.2278509  80.3866454 125.0694639  73.4428552
  69.0037635 131.1437563  66.6881645  69.2434233 131.7756087  67.3660664
  68.1606831 130.7925603  66.9747004  70.1191350 113.8362165  55.3563450
  69.2420816 113.7150966  54.9925697  70.5949103 113.0448243  55.1042339
  61.6393490 118.6239325  65.4504957  62.3264530 118.3101055  64.8625973
  61.4841619 119.5280689  65.1772209  73.5165497 126.9516685  69.0923149
  73.4435668 127.7571657  69.6042454  73.0742890 127.1508651  68.2671170
  73.3055276 126.1888455  62.6025971  72.5222798 126.7310136  62.6964195
  74.0048021 126.7062435  63.0020212  75.9764180 126.8503519  71.2481308
  76.6892152 127.4850984  71.1757209  75.4854209 126.9467385  70.4321310
  71.0276094 124.5997963  72.0686879  71.7285553 125.2334446  72.2216273
  70.5571209 124.9412694  71.3082518  79.1530489 122.9415913  60.3534786
  79.4290333 122.8272507  61.2628660  78.2834988 122.5433398  60.3146959
  75.7884553 127.1902264  63.9967599  75.9706948 126.3723919  64.4595352
  76.6117539 127.4069956  63.5592489  76.1226719 126.1170449  61.2582648
  76.6514485 125.6062903  60.6452810  76.3854939 125.8012979  62.1228181
  66.6243812 124.1334318  69.0017981  67.2097249 123.3878006  69.1345885
  66.4268650 124.4438275  69.8854645  69.4782467 127.1685565  64.0180424
  68.8092842 127.6531693  63.5344464  69.3395337 127.4154786  64.9323802
  73.6187735 129.2029309  70.6163082  74.1706044 129.3660930  71.3812167
  73.9593929 129.7933747  69.9443107  78.4698610 124.0290566  76.4711736
  79.0138514 124.6420525  75.9766691  77.8885455 124.5870145  76.9878749
  64.8470044 115.4304020  60.7976356  65.1423485 114.5214699  60.7443409
  63.9458080 115.4091760  60.4757358  76.7556123 127.1511284  67.6026764
  76.6307262 126.3501024  67.0937710  77.4135214 127.6457478  67.1140734
  78.8191031 124.9520304  69.2306314  77.8721367 124.8325656  69.1584641
  79.1673804 124.0642803  69.3132576  66.5757886 113.1118118  60.9215681
  66.2470592 112.2315497  60.7390787  66.9297256 113.0565787  61.8092070
  75.8237464 124.7473021  65.4310666  75.6762427 123.8189728  65.6118237
  76.6490958 124.7693111  64.9467742  69.6899709 113.3991088  61.2891159
  70.0295781 113.9277009  60.5669767  70.1371829 113.7371494  62.0649725
  79.4271586 125.5701579  66.5175539  80.3518134 125.3644441  66.3799990
  79.2586890 125.3217981  67.4264881  70.5598200 115.5596572  67.0013528
  70.4142781 115.8736875  67.8937810  70.0823404 116.1781472  66.4484427
  79.2166903 126.0887247  61.8737631  79.3903780 125.5233669  61.1211483
  79.7095794 126.8888142  61.6917121  80.2042075 125.4054011  58.9734529
  80.8992980 126.0260704  59.1921844  80.5465225 124.5549363  59.2486907
  82.1033498 122.8553717  60.5021860  82.6284822 123.1940990  59.7771180
  82.0155851 121.9200732  60.3184994  73.7653547 126.7687790  72.6311736
  74.0740673 126.5236937  73.5034436  74.5629029 126.9734429  72.1430607
  73.7874159 128.9225700  64.8617113  73.3479149 128.4302079  65.5549970
  74.5382276 128.3798668  64.6209188  66.2666498 125.1137241  64.8641741
  67.0924518 124.8141013  64.4840385  65.9160550 124.3444863  65.3131530
  71.2348031 124.4663709  66.9339415  70.6128040 123.8034414  66.6341642
  71.9052898 124.4924841  66.2513062  64.4675103 123.0323567  65.8230675
  63.6307011 122.6045742  65.6414676  64.4398748 123.2256011  66.7601466
  81.7927404 123.4886620  75.8073058  81.0022948 123.4710759  75.2677557
  81.5560759 124.0274914  76.5622094  70.7961538 123.0167633  60.4097875
  70.9449658 123.7003097  59.7564548  71.6027981 122.9972723  60.9247331
  68.5514171 119.0432810  61.4158944  68.3060213 118.1395140  61.6139154
  68.7210085 119.0449961  60.4738422  67.8209818 114.7761168  58.9145105
  67.1279063 114.8505523  58.2585141  67.5761570 114.0121511  59.4366622
  74.2956943 125.5115763  57.8809623  73.7230911 126.1305950  57.4280094
  74.8689737 126.0615125  58.4149544  77.5154203 125.7952913  59.0118205
  78.4484876 125.7298475  59.2151080  77.4277416 126.6309180  58.5532737
  80.1442220 125.1118783  55.9722152  80.0655851 124.7778647  56.8657910
  80.9651887 125.6040551  55.9713625  74.6803742 116.8476576  55.2225675
  75.6262847 116.7182784  55.2914093  74.3017987 116.1091238  55.6995103
  63.7824599 116.0932916  65.6079607  63.4627384 115.2398224  65.3153981
  63.2358028 116.3081494  66.3637574  63.6512859 119.7135827  67.5772728
  62.9576331 119.2989780  67.0642683  64.3985850 119.7556364  66.9806147
  65.5649602 119.6454081  65.4538743  65.5420290 119.7441768  64.5020626
  65.8750239 120.4919232  65.7755909  68.2236980 121.7030236  69.5685358
  69.1780233 121.6714178  69.5015289  68.0249503 121.2420860  70.3835583
  66.5787209 127.2449855  66.5855555  66.4441677 126.4850256  66.0193553
  66.1619271 127.9690755  66.1184344  77.7146172 122.4286779  55.5932131
  78.4182022 122.6336781  56.2089786  76.9908820 122.9963541  55.8581214
  69.7356335 128.1419172  66.7973998  69.6188719 129.0864605  66.6952688
  68.9148781 127.8392734  67.1859797  79.6232869 122.8669308  57.6430591
  80.4578473 122.4350507  57.4608066  79.4617212 122.6951322  58.5707485
  76.5924668 121.6750333  78.3340493  77.4615828 121.8490986  77.9727128
  76.1131420 122.4944750  78.2116222  70.7610849 128.7947434  70.0129926
  71.6638095 128.8271044  70.3296421  70.5348219 127.8647885  70.0276262
  72.5164451 127.5478421  66.6740005  71.5660082 127.5480282  66.5604377
  72.8196937 126.8011155  66.1576040  88.2517144 133.3838959  67.7385768
  88.8895554 133.2645707  67.0349108  88.1337987 134.3319803  67.7973720
  85.0606850 133.3366387  67.6747292  84.7225362 133.2207452  66.7867827
  85.9296619 132.9357552  67.6548298  80.9193666 135.1901864  63.6644183
  80.3558531 135.0991801  62.8960471  80.8046061 134.3701768  64.1446676
  85.5426633 134.4901239  73.6333498  85.5315274 134.0954037  72.7614001
  85.7047273 133.7567312  74.2267269  78.4658098 136.6853055  66.5028404
  79.2579390 136.3443880  66.0874703  78.7054748 136.7948030  67.4230557
  86.4993225 138.8572831  58.9758648  85.8481205 139.4426912  58.5892662
  87.2937588 139.3879026  59.0353686  80.4248852 135.9461969  59.3745782
  81.1979728 135.3990956  59.2358658  80.7774251 136.8106218  59.5860244
  82.2633895 137.2738351  72.5812682  81.9723761 138.1783982  72.4659348
  82.8990879 137.3154878  73.2956751  83.1890101 134.6515199  69.1714041
  83.7853674 134.4271222  68.4571004  83.2465073 133.9099945  69.7739489
  82.7615130 132.1054635  57.0064232  83.0140651 131.5836156  56.2447695
  81.8239689 131.9420780  57.1090916  87.8058413 131.1090413  64.8138976
  88.5921502 130.6909836  64.4629393  88.0697117 132.0136505  64.9820624
  87.9768490 136.5463263  59.5127632  87.3414323 136.6197890  60.2248537
  87.6465896 137.1356862  58.8346712  93.2066840 131.0465646  65.7171954
  93.9392012 130.4764863  65.9509784  92.4506196 130.6587247  66.1578460
  82.4811419 134.0082741  59.2088607  82.3647677 133.3327644  59.8769692
  82.5913678 133.5215115  58.3920760  84.8242960 133.4692888  62.9135297
  84.4601167 132.9423509  63.6248218  85.6810075 133.0791357  62.7401782
  90.7292260 124.7587220  70.1766563  90.3975585 125.6282631  69.9527778
  90.1337874 124.4423504  70.8560593  84.4648447 128.4982787  57.9096645
  84.6322849 129.3663024  58.2767116  84.2745616 128.6610069  56.9857934
  87.2223780 136.9599766  69.5762475  86.9224503 137.8624805  69.4678283
  86.8774839 136.6931950  70.4283628  80.6736261 133.4113563  65.6099180
  79.7486758 133.2789777  65.8176872  80.9220674 134.1907782  66.1069122
  90.6220923 129.4782306  67.2559913  89.7137801 129.4097715  66.9618674
  90.5708519 129.9554251  68.0841738  84.4437667 130.9540445  58.8943312
  84.3237293 131.3997496  59.7328792  83.7490256 131.3025763  58.3356850
  78.0345072 133.0546837  66.4442969  78.1637453 133.3081316  67.3582381
  77.3542524 133.6474545  66.1247624  82.2044559 143.7244087  62.5433443
  82.1268589 144.6751912  62.6221924  81.6006203 143.3789959  63.2008369
  84.6961789 130.8971952  75.1994810  83.9195123 131.4565872  75.1897675
  85.3352352 131.3828735  75.7209680  92.4882570 127.6798745  69.0337787
  91.8456950 127.9731278  68.3877581  91.9837498 127.5651665  69.8390983
  90.1422734 131.4261918  59.7223646  91.0540590 131.6589305  59.5471343
  89.6332381 132.0098962  59.1598725  82.9508162 133.7057405  74.7612777
  83.6922846 134.2442449  74.4847601  82.2445147 134.3323694  74.9184329
  88.4263501 135.8486546  73.3584938  88.8346857 135.4068956  72.6139571
  87.7040763 135.2739173  73.6119131  84.7794571 130.7859153  70.7318495
  85.6255766 131.2098566  70.8753144  84.7193209 130.1292777  71.4257059
  88.7492316 136.4087737  67.1137227  88.1201178 136.5733451  66.4113295
  88.3617978 136.8229346  67.8848191  92.6281548 137.3442174  64.4681591
  91.9432586 137.7241076  63.9178624  92.7125397 137.9537501  65.2013539
  87.9294017 128.4463521  72.3899669  87.6854948 129.2005582  71.8533945
  88.2053947 128.8248869  73.2246916  89.8832479 134.9902133  71.0676935
  90.0949375 135.6333893  70.3911316  89.8362228 134.1564450  70.5998865
  87.4858708 127.6019954  67.9713507  86.6243187 127.9001208  68.2630244
  87.5121143 127.8190353  67.0394539  84.3020278 136.1462145  64.3787312
  84.7658623 136.4249848  63.5891935  84.0377076 135.2445589  64.1960403
  81.1944359 135.6933626  67.3167076  81.7645716 136.1220895  66.6784560
  81.7852471 135.4116211  68.0151261  83.2389164 132.2685297  61.1876878
  83.9413207 132.7206341  61.6550804  82.9069792 131.6269116  61.8156771
  81.6869525 130.8597054  75.5628087  81.0568186 131.5413334  75.7963484
  81.5805613 130.7480135  74.6181225  76.9814498 130.5268850  66.4894011
  76.1913552 130.7826378  66.0134122  77.4725745 131.3417188  66.5946052
  90.9978307 137.8674089  69.2399292  91.8195751 137.4654276  68.9581974
  90.9940710 137.7642323  70.1915408  78.9329243 130.8913429  63.4477488
  78.1360406 131.0032123  63.9660984  78.7054835 131.2300081  62.5818378
  84.7634911 137.4158132  71.3960002  84.8279343 137.8778539  72.2318174
  84.0545835 136.7855497  71.5242312  75.2652201 130.7799340  68.9209002
  75.5160239 131.6646350  69.1866578  75.8011749 130.6003942  68.1484094
  99.0884300 134.2112837  65.5884263  98.3348009 133.6420235  65.4328268
  99.2231842 134.1775502  66.5354898  84.4782928 139.0826240  61.2638983
  84.3428603 139.9277775  61.6923831  85.0192741 139.2845517  60.5004917
  80.9650268 125.1617819  77.9253338  80.5717214 124.6084018  78.6000982
  81.7816408 125.4728398  78.3159856  77.9312326 136.6001678  61.8366908
  78.4436846 137.3944928  61.9872473  78.5835039 135.9027968  61.7700509
  79.7407210 139.7167434  63.9189661  79.9173839 140.6385399  63.7310645
  80.5364044 139.4025853  64.3484041  83.8818229 126.5775699  75.5173595
  84.6227942 127.1782852  75.4378057  84.1136152 125.8353336  74.9591637
  79.0259567 131.7632066  73.7951824  78.9113082 130.8617323  74.0958923
  78.1704085 132.0095763  73.4436641  86.1051405 139.7049806  75.3939325
  85.6615259 138.9186185  75.0760229  86.7668618 139.8928957  74.7283216
  80.8638526 141.2345608  69.9200003  81.4145951 141.1062671  69.1476997
  80.0250002 141.5340497  69.5694896  88.2032643 139.9852606  73.4220726
  88.1851118 140.8061487  72.9300995  89.1252563 139.8606681  73.6470867
  84.6605697 137.4996736  74.2644235  85.1934034 136.7385024  74.0343543
  84.1319778 137.2070387  75.0068389  87.8275392 122.6056801  69.7937876
  87.4839661 123.4958443  69.7176987  88.1954355 122.4158459  68.9307461
  75.8961243 134.9290332  62.6126478  76.7336465 135.3387340  62.3960186
  76.0739510 133.9889774  62.5826672  87.7925675 132.5965413  58.3010311
  87.2772298 133.3670017  58.5398699  87.5202983 131.9230549  58.9243373
  85.3772786 127.4415113  63.3595550  84.5214382 127.0521964  63.1801188
  85.7899737 127.5207074  62.4995335  86.9071932 124.9761457  67.7587110
  86.4036728 124.9391592  66.9454915  87.2002539 125.8854199  67.8183766
  83.1514818 125.0600186  66.7653291  84.0167815 124.8642995  66.4059181
  83.2192327 124.8310538  67.6922648  92.7659949 135.3497767  60.2363485
  91.9889392 135.0108927  59.7918647  93.4451430 135.3550390  59.5618450
  87.5811978 130.4692505  60.1270093  87.2762113 130.7838654  60.9780236
  88.5342420 130.5473925  60.1697426  86.0258410 136.6282728  61.7763047
  85.4979771 135.8935488  61.4636284  85.5245912 137.4057404  61.5303015
  91.0051256 134.8231748  66.8930093  90.3474930 135.5131010  66.9810221
  91.8091655 135.2128180  67.2364079  80.7577137 127.2902394  64.1369658
  81.3320889 127.0677576  63.4042851  81.3448120 127.3591089  64.8898259
  89.8156715 133.1776121  64.9434035  90.3288596 133.8106113  65.4455744
  90.4657938 132.5777317  64.5777395  81.0846724 129.3206855  58.1565543
  80.2484037 129.6581542  58.4774818  80.9451494 129.1855835  57.2192680
  83.0599805 124.1643643  62.8644728  82.4064217 123.8492660  62.2401342
  83.0180279 123.5419384  63.5904550  84.1711010 134.4462938  54.7798020
  83.2638072 134.2152192  54.9789169  84.6682042 133.6500558  54.9672001
  87.0779089 143.1560445  57.6994706  86.4040788 143.4592142  58.3079664
  87.4644911 143.9589526  57.3500163  86.2937545 130.6525577  67.1892375
  85.3760107 130.8740524  67.0314063  86.7097689 130.7271887  66.3304082
  87.0772593 132.0516992  62.3195055  87.8244412 132.5638390  62.0102177
  87.3464183 131.7301045  63.1799449  85.3499243 134.5475533  59.3022010
  84.4410463 134.2634566  59.3994479  85.3794327 134.9674612  58.4425317
  90.5818511 138.1582123  63.0713177  90.1280838 137.3173033  63.1278368
  89.9512477 138.7943521  63.4087957  89.5251430 129.0874109  64.3013845
  88.7874187 128.5751495  64.6324087  89.7778204 128.6474490  63.4897122
  89.0251450 139.9958619  64.0062995  89.3174424 140.5563676  63.2875361
  89.5350071 140.2887180  64.7616154  75.9187414 132.2681047  63.2837212
  75.7211814 131.6750408  62.5588278  75.3634078 131.9633257  64.0013151
  83.8984137 132.1604154  65.4031805  83.9532747 131.2077990  65.3274282
  83.0875339 132.3163593  65.8873103  85.0475331 136.0884277  56.6410088
  84.6094761 135.3720136  56.1815726  85.7885772 136.3160392  56.0795180
  81.8376497 130.7781213  63.1622184  81.0244363 131.0775384  63.5687376
  82.3335491 130.3836902  63.8796666  83.9885075 140.7738970  65.0956449
  83.9461254 140.9999817  64.1664981  84.9047774 140.5402345  65.2442250
  87.4350709 131.2423038  71.9937078  87.7900097 131.4694511  72.8531544
  88.0822840 131.5741415  71.3714333  93.1648446 134.3641474  62.6986407
  93.0266345 134.5543070  61.7707596  92.8084665 135.1260857  63.1554458
  81.3290572 128.3499569  68.7783419  81.9689951 128.2088328  68.0806382
  80.4968103 128.0634082  68.4022021  93.1917826 136.4318001  67.7097678
  93.6254332 136.3393290  68.5580732  93.9049406 136.4075501  67.0717694
  82.1050876 137.6501999  64.8918411  82.8991474 137.1552320  64.6900986
  81.3942568 137.1219863  64.5286117  86.9245720 140.0320095  69.2430779
  86.9782743 140.6011031  70.0108495  86.0560502 140.2021980  68.8784816
  78.4133639 131.7945081  60.9678164  77.4831228 131.7329537  61.1848126
  78.5091111 131.2721034  60.1714805  78.3319188 128.3199894  63.5556406
  78.5926006 129.2345227  63.4465566  79.1536361 127.8524337  63.7053018
  79.8044114 129.7337651  70.7255230  80.4767167 129.5255013  70.0767879
  78.9773900 129.5359737  70.2860462  94.0533375 136.4741702  70.2430564
  94.2469265 137.3787512  70.4889839  93.9533993 136.0149121  71.0769149
  85.8833820 134.1980357  70.8017711  86.8125880 134.3491517  70.6286678
  85.4624850 134.2864378  69.9466357  84.6822152 138.2231021  68.5716248
  84.5433238 137.8549806  69.4442187  83.8936748 138.7378661  68.4000206
  85.2770304 143.3240118  59.9141785  85.4522060 142.8528161  60.7287408
  84.5903092 143.9505884  60.1423046  86.2327367 137.6012624  65.9605086
  85.8977200 137.5613394  66.8562736  85.7331313 136.9357340  65.4875496
  80.2071611 133.0080254  71.4857667  80.0691409 132.2760493  72.0869206
  81.1176535 132.9189154  71.2041855  89.1686559 134.9468658  56.2342146
  88.5515729 134.2215487  56.1375199  88.7003047 135.7078019  55.8909220
  82.8353912 132.7200213  70.9741347  83.5453530 132.0793406  70.9327965
  82.7923220 132.9713108  71.8967528  90.8240690 139.6567567  73.8947926
  90.7653237 138.9726787  73.2278509  91.2260209 140.3986557  73.4428552
  81.5482846 129.7065431  72.7936986  81.0120203 129.2556170  73.4458583
  80.9599554 129.8411340  72.0507451  79.8431389 146.4729481  66.6881645
  80.0827987 147.1048005  67.3660664  79.0000586 146.1217521  66.9747004
  80.9585105 129.1654083  55.3563450  80.0814571 129.0442884  54.9925697
  81.4342858 128.3740161  55.1042339  90.8258098 137.6207151  72.1261906
  89.9384876 137.2833073  72.2488305  91.3956649 136.8890182  72.3630671
  72.4787245 133.9531242  65.4504957  73.1658285 133.6392973  64.8625973
  72.3235373 134.8572607  65.1772209  77.2821967 128.8421439  69.8789981
  77.1980156 128.2347109  69.1440391  76.4604673 129.3330457  69.8799477
  84.3559251 142.2808603  69.0923149  84.2829423 143.0863575  69.6042454
  83.9136644 142.4800569  68.2671170  84.1449031 141.5180373  62.6025971
  83.3616553 142.0602053  62.6964195  84.8441776 142.0354353  63.0020212
  87.4545681 127.3275003  65.2460176  87.9514380 126.5744965  64.9261246
  86.6832662 127.3639319  64.6803385  95.3075438 133.0315368  66.8878468
  95.2965314 133.9140084  66.5172401  94.4392818 132.6786919  66.6933005
  86.8157935 142.1795437  71.2481308  87.5285907 142.8142902  71.1757209
  86.3247963 142.2759303  70.4321310  88.5375461 136.0846690  62.8198599
  87.6031740 136.2048152  62.6503304  88.7152130 135.1819157  62.5558609
  84.0380650 129.4692386  64.9731861  83.6678437 128.9163426  65.6612766
  84.5339742 128.8650519  64.4206861  91.9248013 131.9264009  63.3548634
  92.3908465 132.7592001  63.2808936  92.3755513 131.4608991  64.0593892
  81.8669848 139.9289881  72.0686879  82.5679308 140.5626364  72.2216273
  81.3964963 140.2704612  71.3082518  89.9924244 138.2707830  60.3534786
  90.2684088 138.1564425  61.2628660  89.1228743 137.8725315  60.3146959
  89.8964676 124.2944596  67.3939535  88.9827755 124.5248823  67.5621742
  90.3257777 124.3783040  68.2453567  89.6671134 132.4834488  69.8939429
  89.0142584 132.7310395  69.2391882  90.0451514 131.6698626  69.5601906
  86.6278308 142.5194181  63.9967599  86.8100702 141.7015837  64.4595352
  87.4511294 142.7361873  63.5592489  86.9620473 141.4462366  61.2582648
  87.4908240 140.9354821  60.6452810  87.2248693 141.1304897  62.1228181
  77.4637566 139.4626236  69.0017981  78.0491003 138.7169924  69.1345885
  77.2662405 139.7730192  69.8854645  80.3176221 142.4977483  64.0180424
  79.6486597 142.9823611  63.5344464  80.1789091 142.7446703  64.9323802
  72.0555221 132.0331836  67.7222424  72.0939320 131.4995427  68.5159542
  71.5495514 131.5067041  67.1033402  84.4581490 144.5321227  70.6163082
  85.0099798 144.6952848  71.3812167  84.7987683 145.1225664  69.9443107
  79.4345983 126.8796376  71.2184967  79.4987310 127.7411207  70.8062364
  79.3713103 126.2670378  70.4857325  78.9098256 128.9519509  74.8658001
  79.5370295 128.5696586  75.4795525  78.0526175 128.7333711  75.2313693
  75.6863798 130.7595938  60.7976356  75.9817240 129.8506616  60.7443409
  74.7851834 130.7383677  60.4757358  87.5949877 142.4803202  67.6026764
  87.4701017 141.6792942  67.0937710  88.2528968 142.9749395  67.1140734
  79.2158045 128.8351935  66.7803904  78.4944631 129.4487902  66.6411378
  80.0051301 129.3709699  66.7020550  89.6584786 140.2812222  69.2306314
  88.7115121 140.1617573  69.1584641  90.0067559 139.3934720  69.3132576
  82.0184359 126.1706361  73.0544556  82.5418761 126.4168658  73.8170865
  81.7996692 127.0026396  72.6347693  77.4151640 128.4410036  60.9215681
  77.0864346 127.5607415  60.7390787  77.7691011 128.3857704  61.8092070
  86.6631219 140.0764938  65.4310666  86.5156181 139.1481646  65.6118237
  87.4884712 140.0985029  64.9467742  80.5293463 128.7283005  61.2891159
  80.8689536 129.2568927  60.5669767  80.9765584 129.0663412  62.0649725
  90.2665341 140.8993497  66.5175539  91.1911888 140.6936358  66.3799990
  90.0980644 140.6509898  67.4264881  83.2236904 127.1120056  70.7394227
  82.8833724 126.3127869  71.1414907  82.5175910 127.4121767  70.1671060
  83.8753376 124.1969369  69.1921550  84.6979445 123.7229847  69.0700440
  84.1191439 124.9759852  69.6920236  82.5161610 127.2257627  59.4884451
  83.2369973 127.6038880  58.9848168  81.8926915 127.9446504  59.5919429
  86.6592733 127.9302776  60.4242784  86.8756348 128.8127414  60.1231612
  86.1786800 127.5388989  59.6948426  81.3991955 130.8888489  67.0013528
  81.2536535 131.2028792  67.8937810  80.9217158 131.5073390  66.4484427
  83.2588338 127.8791037  67.0494418  83.2449906 126.9832131  66.7126716
  83.9760766 127.8861701  67.6832704  85.1114468 128.3128377  69.0947545
  84.8532246 129.2345448  69.0931876  84.5799509 127.9158812  69.7848009
  90.0560657 141.4179165  61.8737631  90.2297535 140.8525587  61.1211483
  90.5489548 142.2180059  61.6917121  75.8737617 133.4293834  69.9401189
  75.3291085 134.2053642  70.0721464  76.7516967 133.7764638  69.7820311
  82.6625233 126.7605418  62.3181988  82.7841145 125.8322064  62.5172875
  82.3727276 126.7744103  61.4060303  85.5316424 124.4460328  65.4548708
  85.5538121 124.5099661  64.5000687  85.9484483 123.6064837  65.6489214
  95.9100048 134.1815587  63.4927930  96.3531194 133.4322913  63.0947054
  95.0326558 134.1725724  63.1101662  91.0435829 140.7345929  58.9734529
  91.7386734 141.3552622  59.1921844  91.3858980 139.8841280  59.2486907
  76.6603639 132.5563730  72.8331346  75.9185375 132.7046365  73.4195977
  76.3396383 132.8171996  71.9698096  92.9427253 138.1845634  60.5021860
  93.4678577 138.5232907  59.7771180  92.8549605 137.2492650  60.3184994
  84.6047301 142.0979708  72.6311736  84.9134428 141.8528855  73.5034436
  85.4022783 142.3026347  72.1430607  84.6267913 144.2517618  64.8617113
  84.1872904 143.7593996  65.5549970  85.3776030 143.7090585  64.6209188
  77.1060252 140.4429159  64.8641741  77.9318272 140.1432930  64.4840385
  76.7554304 139.6736781  65.3131530  82.0741786 139.7955627  66.9339415
  81.4521795 139.1326332  66.6341642  82.7446652 139.8216759  66.2513062
  75.3068857 138.3615485  65.8230675  74.4700766 137.9337659  65.6414676
  75.2792503 138.5547928  66.7601466  82.1466313 128.2737415  76.5271921
  82.1954468 129.1499538  76.1449690  82.6888827 127.7314808  75.9543564
  92.7519034 135.6671005  73.1205786  92.8017039 135.5021012  74.0621309
  92.6432957 134.7998264  72.7303667  81.6355292 138.3459550  60.4097875
  81.7843413 139.0295015  59.7564548  82.4421736 138.3264640  60.9247331
  84.3765601 129.0268787  73.2818279  83.5068911 129.3202353  73.0100868
  84.6125082 129.6109232  74.0025543  94.2537231 138.0867946  73.3647808
  93.9622039 138.4497927  74.2011269  93.6409362 137.3734954  73.1861140
  95.4532913 135.6520826  65.8850378  96.2879804 136.0910630  66.0487938
  95.5892042 135.1759479  65.0658624  92.5024419 133.2100561  71.8327866
  92.9778540 133.4028207  71.0246717  91.5789984 133.2659746  71.5871249
  79.3907925 134.3724728  61.4158944  79.1453967 133.4687058  61.6139154
  79.5603840 134.3741878  60.4738422  87.0804635 125.2448404  70.7983700
  87.5986579 125.9809431  70.4730188  86.7259768 125.5512398  71.6330459
  78.6603573 130.1053085  58.9145105  77.9672818 130.1797440  58.2585141
  78.4155325 129.3413429  59.4366622  85.1350698 140.8407681  57.8809623
  84.5624665 141.4597868  57.4280094  85.7083492 141.3907042  58.4149544
  91.2026088 130.0866321  70.0656171  92.1543511 130.1864418  70.0868395
  91.0329538 129.2944589  70.5754256  89.2240467 127.1721904  70.2515572
  88.6290399 127.4526917  69.5562061  88.9390164 127.6615805  71.0232313
  88.3547958 141.1244831  59.0118205  89.2878631 141.0590392  59.2151080
  88.2671171 141.9601098  58.5532737  90.9835974 140.4410701  55.9722152
  90.9049606 140.1070565  56.8657910  91.8045641 140.9332469  55.9713625
  93.6814166 133.3072440  69.1798471  93.6490486 132.3688441  69.3658155
  94.2914789 133.3856477  68.4464296  85.5197496 132.1768493  55.2225675
  86.4656601 132.0474702  55.2914093  85.1411741 131.4383155  55.6995103
  93.8308654 130.0983484  69.2256754  93.3147703 129.3141940  69.0386683
  94.7148603 129.7702200  69.3903274  91.4919381 123.8424499  65.1852567
  91.2944202 123.5339588  66.0695899  92.1019087 124.5686138  65.3150497
  99.4990715 134.3688447  68.3204508 100.2294104 134.1073735  68.8812211
  98.8897661 133.6317169  68.3606576  97.5806013 132.5096310  68.9178959
  96.8539176 132.3752275  68.3095451  97.1653299 132.8173138  69.7235677
  83.7040414 130.1018470  55.1580560  82.7971869 129.8051582  55.2343274
  83.9816395 129.8048288  54.2914847  74.6218354 131.4224833  65.6079607
  74.3021138 130.5690141  65.3153981  74.0751782 131.6373411  66.3637574
  78.3998262 134.1387274  69.3249113  78.6184271 135.0704382  69.3437147
  78.8124035 133.7795249  70.1103917  85.3202479 124.6455359  61.3124802
  84.5103208 124.3002444  61.6880048  86.0086896 124.3362903  61.9012413
  87.2493028 123.7233406  62.9349098  87.8024066 124.1428860  63.5939121
  87.4863114 122.7969154  62.9772054  83.2726127 129.7120480  78.7151862
  83.1722854 130.6614837  78.6463953  83.0547669 129.3838719  77.8427932
  82.4739198 126.9605405  55.2992539  83.3358362 127.2860303  55.5588357
  82.6589542 126.1736901  54.7865605  74.4906614 135.0427745  67.5772728
  73.7970085 134.6281697  67.0642683  75.2379605 135.0848281  66.9806147
  90.6271835 125.8333931  62.4427762  90.0470504 126.4918735  62.0605815
  90.3607767 125.0111276  62.0315180  89.0775401 125.2338989  64.6449083
  89.5775179 125.3455524  63.8363402  89.7211009 124.9300042  65.2849891
  83.1357397 133.1417619  77.5316924  82.6524479 133.9417979  77.7380813
  83.2218336 133.1525564  76.5784368  76.4043356 134.9745998  65.4538743
  76.3814045 135.0733686  64.5020626  76.7143993 135.8211149  65.7755909
  79.0630734 137.0322153  69.5685358  80.0173988 137.0006096  69.5015289
  78.8643258 136.5712777  70.3835583  79.6530117 135.6023270  72.1356155
  80.4723005 136.0967348  72.1590992  79.9266924 134.6855238  72.1073723
  89.4096713 127.9934022  61.4984111  88.5222568 128.2783672  61.2804305
  89.8250702 127.8327785  60.6511388  92.7611249 128.0180543  65.2138450
  93.5371639 128.5076995  65.4863067  92.0359383 128.4438597  65.6710319
  95.1983807 128.7308162  66.2712391  95.7928298 128.4903898  65.5605699
  95.2710391 128.0115293  66.8985927  77.4180963 142.5741773  66.5855555
  77.2835431 141.8142174  66.0193553  77.0013025 143.2982673  66.1184344
  88.5539926 137.7578697  55.5932131  89.2575776 137.9628699  56.2089786
  87.8302575 138.3255458  55.8581214  89.3837736 133.5088558  61.7134401
  89.3272938 133.9657109  60.8742033  89.9366079 132.7479242  61.5357244
  93.1942542 129.2978290  62.5384520  92.9379477 128.8974925  63.3692728
  92.5695410 130.0122084  62.4134660  97.5054880 132.0374363  65.0455812
  96.9454438 132.1067552  65.8187374  96.8998384 131.8615348  64.3255308
  80.5750089 143.4711090  66.7973998  80.4582473 144.4156522  66.6952688
  79.7542535 143.1684652  67.1859797  90.4626624 138.1961226  57.6430591
  91.2972228 137.7642424  57.4608066  90.3010967 138.0243239  58.5707485
  90.1172516 134.6993339  59.0086930  90.0621320 134.5337610  58.0675374
  89.4918571 135.4069372  59.1649120  74.9065031 129.9361403  72.8348352
  75.5523894 129.4260357  73.3235577  74.6982182 130.6730085  73.4091778
  83.4268641 124.2001448  58.5872248  83.4147311 125.1443288  58.7440519
  84.3192063 124.0171593  58.2931710  81.6004603 144.1239352  70.0129926
  82.5031850 144.1562962  70.3296421  81.3741973 143.1939803  70.0276262
  83.3558205 142.8770338  66.6740005  82.4053836 142.8772200  66.5604377
  83.6590691 142.1303073  66.1576040  87.2420761 120.7944225  62.8418185
  86.4753156 120.2402711  62.9874868  87.6531466 120.8666093  63.7032337
  79.2462522 127.0829020  76.9323367  80.1093983 126.7265825  77.1426691
  78.6727932 126.7442915  77.6198771  99.0910899 148.7130877  67.7385768
  99.7289309 148.5937624  67.0349108  98.9731742 149.6611721  67.7973720
  95.9000605 148.6658305  67.6747292  95.5619116 148.5499370  66.7867827
  96.7690373 148.2649470  67.6548298  91.7587421 150.5193781  63.6644183
  91.1952286 150.4283718  62.8960471  91.6439816 149.6993686  64.1446676
  96.3820388 149.8193157  73.6333498  96.3709029 149.4245955  72.7614001
  96.5441027 149.0859229  74.2267269  89.3051853 152.0144973  66.5028404
  90.0973145 151.6735798  66.0874703  89.5448503 152.1239948  67.4230557
  97.3386979 154.1864749  58.9758648  96.6874959 154.7718829  58.5892662
  98.1331342 154.7170944  59.0353686  91.2642607 151.2753886  59.3745782
  92.0373483 150.7282873  59.2358658  91.6168005 152.1398136  59.5860244
  93.1027649 152.6030268  72.5812682  92.8117515 153.5075899  72.4659348
  93.7384633 152.6446796  73.2956751  94.0283856 149.9807117  69.1714041
  94.6247428 149.7563139  68.4571004  94.0858827 149.2391862  69.7739489
  93.6008884 147.4346552  57.0064232  93.8534405 146.9128074  56.2447695
  92.6633443 147.2712698  57.1090916  98.6452167 146.4382331  64.8138976
  99.4315256 146.0201754  64.4629393  98.9090871 147.3428423  64.9820624
  98.8162245 151.8755181  59.5127632  98.1808077 151.9489808  60.2248537
  98.4859651 152.4648780  58.8346712 104.0460594 146.3757564  65.7171954
 104.7785766 145.8056781  65.9509784 103.2899950 145.9879164  66.1578460
  93.3205173 149.3374658  59.2088607  93.2041431 148.6619562  59.8769692
  93.4307433 148.8507032  58.3920760  95.6636714 148.7984805  62.9135297
  95.2994921 148.2715426  63.6248218  96.5203830 148.4083274  62.7401782
 101.5686015 140.0879138  70.1766563 101.2369339 140.9574549  69.9527778
 100.9731628 139.7715422  70.8560593  95.3042201 143.8274705  57.9096645
  95.4716603 144.6954941  58.2767116  95.1139370 143.9901987  56.9857934
  98.0617534 152.2891684  69.5762475  97.7618257 153.1916723  69.4678283
  97.7168594 152.0223867  70.4283628  91.5130016 148.7405481  65.6099180
  90.5880512 148.6081695  65.8176872  91.7614429 149.5199700  66.1069122
 101.4614678 144.8074224  67.2559913 100.5531555 144.7389633  66.9618674
 101.4102274 145.2846169  68.0841738  95.2831422 146.2832363  58.8943312
  95.1631047 146.7289413  59.7328792  94.5884010 146.6317680  58.3356850
  88.8738827 148.3838754  66.4442969  89.0031208 148.6373233  67.3582381
  88.1936278 148.9766462  66.1247624  93.0438314 159.0536004  62.5433443
  92.9662344 160.0043829  62.6221924  92.4399958 158.7081877  63.2008369
  95.5355544 146.2263870  75.1994810  94.7588878 146.7857790  75.1897675
  96.1746107 146.7120653  75.7209680 103.3276324 143.0090663  69.0337787
 102.6850705 143.3023196  68.3877581 102.8231253 142.8943583  69.8390983
 100.9816488 146.7553836  59.7223646 101.8934344 146.9881223  59.5471343
 100.4726135 147.3390880  59.1598725  93.7901916 149.0349323  74.7612777
  94.5316600 149.5734367  74.4847601  93.0838902 149.6615612  74.9184329
  99.2657256 151.1778464  73.3584938  99.6740612 150.7360874  72.6139571
  98.5434517 150.6031091  73.6119131  95.6188326 146.1151070  70.7318495
  96.4649521 146.5390484  70.8753144  95.5586963 145.4584695  71.4257059
  99.5886070 151.7379654  67.1137227  98.9594933 151.9025368  66.4113295
  99.2011732 152.1521264  67.8848191 103.4675302 152.6734092  64.4681591
 102.7826340 153.0532993  63.9178624 103.5519152 153.2829419  65.2013539
  98.7687771 143.7755439  72.3899669  98.5248703 144.5297499  71.8533945
  99.0447702 144.1540786  73.2246916 100.7226234 150.3194051  71.0676935
 100.9343129 150.9625811  70.3911316 100.6755982 149.4856368  70.5998865
  98.3252463 142.9311872  67.9713507  97.4636942 143.2293125  68.2630244
  98.3514897 143.1482271  67.0394539  95.1414032 151.4754062  64.3787312
  95.6052378 151.7541765  63.5891935  94.8770830 150.5737507  64.1960403
  92.0338113 151.0225544  67.3167076  92.6039470 151.4512812  66.6784560
  92.6246225 150.7408129  68.0151261  94.0782918 147.5977215  61.1876878
  94.7806962 148.0498258  61.6550804  93.7463547 146.9561034  61.8156771
  92.5263280 146.1888971  75.5628087  91.8961940 146.8705252  75.7963484
  92.4199368 146.0772053  74.6181225  87.8208252 145.8560767  66.4894011
  87.0307306 146.1118296  66.0134122  88.3119500 146.6709105  66.5946052
 101.8372062 153.1966007  69.2399292 102.6589506 152.7946194  68.9581974
 101.8334465 153.0934241  70.1915408  89.7722998 146.2205347  63.4477488
  88.9754161 146.3324041  63.9660984  89.5448590 146.5591999  62.5818378
  95.6028665 152.7450050  71.3960002  95.6673098 153.2070457  72.2318174
  94.8939589 152.1147415  71.5242312  86.1045955 146.1091258  68.9209002
  86.3553994 146.9938268  69.1866578  86.6405504 145.9295859  68.1484094
 109.9278055 149.5404755  65.5884263 109.1741763 148.9712153  65.4328268
 110.0625596 149.5067419  66.5354898  95.3176683 154.4118157  61.2638983
  95.1822358 155.2569693  61.6923831  95.8586495 154.6137435  60.5004917
  88.7706080 151.9293595  61.8366908  89.2830601 152.7236846  61.9872473
  89.4228793 151.2319886  61.7700509  90.5800965 155.0459352  63.9189661
  90.7567593 155.9677316  63.7310645  91.3757799 154.7317771  64.3484041
  94.7211984 141.9067616  75.5173595  95.4621697 142.5074769  75.4378057
  94.9529906 141.1645254  74.9591637  89.8653322 147.0923983  73.7951824
  89.7506837 146.1909241  74.0958923  89.0097839 147.3387680  73.4436641
  96.9445159 155.0341724  75.3939325  96.5009013 154.2478102  75.0760229
  97.6062373 155.2220874  74.7283216  91.7032280 156.5637525  69.9200003
  92.2539706 156.4354589  69.1476997  90.8643756 156.8632414  69.5694896
  99.0426397 155.3144524  73.4220726  99.0244873 156.1353405  72.9300995
  99.9646317 155.1898599  73.6470867  95.4999451 152.8288653  74.2644235
  96.0327788 152.0676941  74.0343543  94.9713533 152.5362305  75.0068389
  98.6669146 137.9348719  69.7937876  98.3233416 138.8250361  69.7176987
  99.0348109 137.7450377  68.9307461  86.7354997 150.2582250  62.6126478
  87.5730219 150.6679258  62.3960186  86.9133265 149.3181692  62.5826672
  98.6319429 147.9257330  58.3010311  98.1166053 148.6961935  58.5398699
  98.3596738 147.2522466  58.9243373  96.2166540 142.7707031  63.3595550
  95.3608137 142.3813881  63.1801188  96.6293492 142.8498992  62.4995335
  97.7465687 140.3053374  67.7587110  97.2430482 140.2683509  66.9454915
  98.0396294 141.2146117  67.8183766  93.9908573 140.3892104  66.7653291
  94.8561570 140.1934913  66.4059181  94.0586082 140.1602456  67.6922648
 103.6053703 150.6789685  60.2363485 102.8283146 150.3400844  59.7918647
 104.2845184 150.6842308  59.5618450  98.4205732 145.7984422  60.1270093
  98.1155868 146.1130572  60.9780236  99.3736174 145.8765842  60.1697426
  96.8652164 151.9574646  61.7763047  96.3373526 151.2227405  61.4636284
  96.3639667 152.7349322  61.5303015 101.8445010 150.1523666  66.8930093
 101.1868685 150.8422928  66.9810221 102.6485409 150.5420098  67.2364079
  91.5970892 142.6194312  64.1369658  92.1714644 142.3969493  63.4042851
  92.1841874 142.6883006  64.8898259 100.6550469 148.5068039  64.9434035
 101.1682351 149.1398031  65.4455744 101.3051693 147.9069234  64.5777395
  91.9240479 144.6498773  58.1565543  91.0877791 144.9873460  58.4774818
  91.7845249 144.5147753  57.2192680  93.8993560 139.4935561  62.8644728
  93.2457972 139.1784578  62.2401342  93.8574034 138.8711301  63.5904550
  95.0104764 149.7754856  54.7798020  94.1031826 149.5444109  54.9789169
  95.5075796 148.9792475  54.9672001  97.9172843 158.4852363  57.6994706
  97.2434542 158.7884060  58.3079664  98.3038665 159.2881443  57.3500163
  97.1331300 145.9817494  67.1892375  96.2153861 146.2032441  67.0314063
  97.5491444 146.0563805  66.3304082  97.9166348 147.3808910  62.3195055
  98.6638167 147.8930307  62.0102177  98.1857937 147.0592963  63.1799449
  96.1892998 149.8767451  59.3022010  95.2804217 149.5926484  59.3994479
  96.2188082 150.2966529  58.4425317 101.4212265 153.4874040  63.0713177
 100.9674592 152.6464950  63.1278368 100.7906232 154.1235439  63.4087957
 100.3645185 144.4166026  64.3013845  99.6267942 143.9043413  64.6324087
 100.6171958 143.9766408  63.4897122  99.8645204 155.3250537  64.0062995
 100.1568179 155.8855594  63.2875361 100.3743825 155.6179098  64.7616154
 100.4656812 137.1942278  64.8955614 100.7715689 136.3339642  64.6081529
 101.1909417 137.7859899  64.6954608  86.7581168 147.5972965  63.2837212
  86.5605568 147.0042326  62.5588278  86.2027832 147.2925175  64.0013151
  94.7377892 147.4896071  65.4031805  94.7926502 146.5369908  65.3274282
  93.9269094 147.6455511  65.8873103  95.8869086 151.4176194  56.6410088
  95.4488516 150.7012053  56.1815726  96.6279526 151.6452309  56.0795180
  92.6770252 146.1073131  63.1622184  91.8638117 146.4067302  63.5687376
  93.1729246 145.7128820  63.8796666  94.8278830 156.1030888  65.0956449
  94.7855008 156.3291734  64.1664981  95.7441529 155.8694263  65.2442250
  98.2744463 146.5714956  71.9937078  98.6293851 146.7986429  72.8531544
  98.9216595 146.9033332  71.3714333 104.0042200 149.6933392  62.6986407
 103.8660099 149.8834987  61.7707596 103.6478419 150.4552774  63.1554458
  92.1684327 143.6791487  68.7783419  92.8083706 143.5380246  68.0806382
  91.3361857 143.3926000  68.4022021 104.0311580 151.7609919  67.7097678
 104.4648087 151.6685208  68.5580732 104.7443161 151.7367419  67.0717694
  92.9444630 152.9793917  64.8918411  93.7385229 152.4844237  64.6900986
  92.2336323 152.4511780  64.5286117  97.7639475 155.3612013  69.2430779
  97.8176497 155.9302949  70.0108495  96.8954256 155.5313898  68.8784816
  89.2527394 147.1236999  60.9678164  88.3224982 147.0621454  61.1848126
  89.3484866 146.6012952  60.1714805  89.1712943 143.6491812  63.5556406
  89.4319760 144.5637145  63.4465566  89.9930115 143.1816254  63.7053018
  90.6437868 145.0629569  70.7255230  91.3160922 144.8546931  70.0767879
  89.8167655 144.8651655  70.2860462 104.8927130 151.8033619  70.2430564
 105.0863020 152.7079430  70.4889839 104.7927748 151.3441038  71.0769149
  96.5463440 141.6891510  72.7420891  95.8991355 142.3881459  72.6485367
  97.3164456 142.1227654  73.1097139  99.9542238 151.9540362  75.8171444
  99.8027745 151.7250914  74.9001528  99.9446918 152.9110963  75.8302789
  96.7227575 149.5272275  70.8017711  97.6519635 149.6783434  70.6286678
  96.3018605 149.6156295  69.9466357  95.5215906 153.5522939  68.5716248
  95.3826992 153.1841723  69.4442187  94.7330503 154.0670579  68.4000206
  96.1164058 158.6532036  59.9141785  96.2915814 158.1820079  60.7287408
  95.4296846 159.2797802  60.1423046  97.0721122 152.9304542  65.9605086
  96.7370954 152.8905312  66.8562736  96.5725067 152.2649258  65.4875496
  91.0465366 148.3372172  71.4857667  90.9085163 147.6052411  72.0869206
  91.9570289 148.2481072  71.2041855 100.0080313 150.2760576  56.2342146
  99.3909484 149.5507404  56.1375199  99.5396802 151.0369936  55.8909220
  93.6747666 148.0492131  70.9741347  94.3847285 147.4085323  70.9327965
  93.6316974 148.3005026  71.8967528 101.6634445 154.9859484  73.8947926
 101.6046991 154.3018705  73.2278509 102.0653963 155.7278474  73.4428552
  92.3876600 145.0357349  72.7936986  91.8513957 144.5848087  73.4458583
  91.7993309 145.1703258  72.0507451  90.6825144 161.8021398  66.6881645
  90.9221742 162.4339922  67.3660664  89.8394340 161.4509438  66.9747004
  91.7978859 144.4946000  55.3563450  90.9208325 144.3734801  54.9925697
  92.2736612 143.7032079  55.1042339 101.6651852 152.9499068  72.1261906
 100.7778631 152.6124990  72.2488305 102.2350403 152.2182100  72.3630671
  83.3180999 149.2823160  65.4504957  84.0052039 148.9684890  64.8625973
  83.1629128 150.1864525  65.1772209  88.1215721 144.1713357  69.8789981
  88.0373910 143.5639026  69.1440391  87.2998428 144.6622375  69.8799477
  95.1953006 157.6100521  69.0923149  95.1223177 158.4155492  69.6042454
  94.7530399 157.8092487  68.2671170  94.9842785 156.8472291  62.6025971
  94.2010307 157.3893971  62.6964195  95.6835530 157.3646270  63.0020212
  98.2939435 142.6566920  65.2460176  98.7908135 141.9036883  64.9261246
  97.5226417 142.6931237  64.6803385 106.1469193 148.3607286  66.8878468
 106.1359069 149.2432001  66.5172401 105.2786572 148.0078837  66.6933005
  97.6551689 157.5087355  71.2481308  98.3679661 158.1434820  71.1757209
  97.1641718 157.6051221  70.4321310  99.3769216 151.4138607  62.8198599
  98.4425495 151.5340070  62.6503304  99.5545884 150.5111074  62.5558609
  94.8774404 144.7984303  64.9731861  94.5072192 144.2455344  65.6612766
  95.3733496 144.1942437  64.4206861 102.7641767 147.2555927  63.3548634
 103.2302220 148.0883918  63.2808936 103.2149268 146.7900908  64.0593892
  92.7063603 155.2581798  72.0686879  93.4073062 155.8918281  72.2216273
  92.2358718 155.5996530  71.3082518 100.8317998 153.5999748  60.3534786
 101.1077842 153.4856343  61.2628660  99.9622497 153.2017233  60.3146959
 100.7358430 139.6236514  67.3939535  99.8221510 139.8540741  67.5621742
 101.1651532 139.7074958  68.2453567 100.5064889 147.8126406  69.8939429
  99.8536339 148.0602313  69.2391882 100.8845268 146.9990544  69.5601906
  97.4672062 157.8486099  63.9967599  97.6494457 157.0307755  64.4595352
  98.2905048 158.0653791  63.5592489  97.8014228 156.7754284  61.2582648
  98.3301994 156.2646739  60.6452810  98.0642448 156.4596814  62.1228181
  96.5552462 148.5546217  76.3805466  95.8793099 148.4540346  77.0507841
  97.3780095 148.3985431  76.8441463  88.3031321 154.7918153  69.0017981
  88.8884757 154.0461841  69.1345885  88.1056159 155.1022110  69.8854645
  91.1569976 157.8269401  64.0180424  90.4880351 158.3115528  63.5344464
  91.0182846 158.0738621  64.9323802  82.8948975 147.3623754  67.7222424
  82.9333075 146.8287344  68.5159542  82.3889268 146.8358959  67.1033402
  95.2975244 159.8613144  70.6163082  95.8493553 160.0244766  71.3812167
  95.6381438 160.4517582  69.9443107  90.2739738 142.2088294  71.2184967
  90.3381064 143.0703125  70.8062364  90.2106858 141.5962296  70.4857325
  89.7492010 144.2811427  74.8658001  90.3764049 143.8988504  75.4795525
  88.8919929 144.0625629  75.2313693 100.1486119 154.6874402  76.4711736
 100.6926023 155.3004360  75.9766691  99.5672964 155.2453980  76.9878749
  86.5257553 146.0887856  60.7976356  86.8210994 145.1798534  60.7443409
  85.6245589 146.0675595  60.4757358  98.4343632 157.8095120  67.6026764
  98.3094771 157.0084860  67.0937710  99.0922723 158.3041313  67.1140734
  90.0551800 144.1643852  66.7803904  89.3338386 144.7779820  66.6411378
  90.8445056 144.7001617  66.7020550 100.4978540 155.6104140  69.2306314
  99.5508876 155.4909491  69.1584641 100.8461313 154.7226638  69.3132576
  92.8578114 141.4998279  73.0544556  93.3812515 141.7460575  73.8170865
  92.6390447 142.3318314  72.6347693  88.2545395 143.7701953  60.9215681
  87.9258101 142.8899332  60.7390787  88.6084765 143.7149622  61.8092070
  97.5024973 155.4056856  65.4310666  97.3549936 154.4773563  65.6118237
  98.3278467 155.4276947  64.9467742  91.3687218 144.0574923  61.2891159
  91.7083290 144.5860844  60.5669767  91.8159338 144.3955329  62.0649725
 101.1059095 156.2285415  66.5175539 102.0305643 156.0228276  66.3799990
 100.9374399 155.9801816  67.4264881  94.0630659 142.4411974  70.7394227
  93.7227479 141.6419787  71.1414907  93.3569665 142.7413685  70.1671060
  94.7147130 139.5261286  69.1921550  95.5373200 139.0521764  69.0700440
  94.9585194 140.3051770  69.6920236  93.3555365 142.5549545  59.4884451
  94.0763727 142.9330798  58.9848168  92.7320669 143.2738422  59.5919429
  97.4986488 143.2594694  60.4242784  97.7150102 144.1419332  60.1231612
  97.0180555 142.8680907  59.6948426  92.2385709 146.2180407  67.0013528
  92.0930290 146.5320710  67.8937810  91.7610913 146.8365307  66.4484427
  94.0982092 143.2082955  67.0494418  94.0843661 142.3124048  66.7126716
  94.8154520 143.2153619  67.6832704  95.9508223 143.6420295  69.0947545
  95.6926001 144.5637366  69.0931876  95.4193263 143.2450730  69.7848009
 100.8954411 156.7471082  61.8737631 101.0691289 156.1817505  61.1211483
 101.3883303 157.5471977  61.6917121  86.7131371 148.7585751  69.9401189
  86.1684839 149.5345559  70.0721464  87.5910721 149.1056556  69.7820311
  93.5018988 142.0897335  62.3181988  93.6234899 141.1613981  62.5172875
  93.2121030 142.1036021  61.4060303  96.3710178 139.7752246  65.4548708
  96.3931875 139.8391579  64.5000687  96.7878237 138.9356754  65.6489214
 106.7493803 149.5107505  63.4927930 107.1924949 148.7614830  63.0947054
 105.8720313 149.5017642  63.1101662 101.8829584 156.0637847  58.9734529
 102.5780489 156.6844539  59.1921844 102.2252734 155.2133198  59.2486907
  87.4997393 147.8855648  72.8331346  86.7579129 148.0338283  73.4195977
  87.1790137 148.1463913  71.9698096 103.7821007 153.5137552  60.5021860
 104.3072331 153.8524825  59.7771180 103.6943360 152.5784567  60.3184994
  95.4441056 157.4271626  72.6311736  95.7528182 157.1820773  73.5034436
  96.2416538 157.6318264  72.1430607  95.4661668 159.5809535  64.8617113
  95.0266658 159.0885914  65.5549970  96.2169785 159.0382503  64.6209188
  87.9454007 155.7721076  64.8641741  88.7712027 155.4724848  64.4840385
  87.5948059 155.0028699  65.3131530  92.9135540 155.1247545  66.9339415
  92.2915549 154.4618250  66.6341642  93.5840407 155.1508676  66.2513062
  86.1462612 153.6907403  65.8230675  85.3094520 153.2629577  65.6414676
  86.1186257 153.8839846  66.7601466 103.4714913 154.1470456  75.8073058
 102.6810457 154.1294595  75.2677557 103.2348268 154.6858749  76.5622094
 103.5912788 150.9962922  73.1205786 103.6410793 150.8312930  74.0621309
 103.4826712 150.1290181  72.7303667  92.4749047 153.6751468  60.4097875
  92.6237167 154.3586932  59.7564548  93.2815490 153.6556558  60.9247331
 100.8816551 146.9793850  74.4365093 101.7826413 146.8400315  74.1449091
 100.9564525 147.1448305  75.3763270  95.2159356 144.3560705  73.2818279
  94.3462665 144.6494271  73.0100868  95.4518836 144.9401150  74.0025543
 105.0930985 153.4159864  73.3647808 104.8015793 153.7789844  74.2011269
 104.4803116 152.7026872  73.1861140 106.2926667 150.9812743  65.8850378
 107.1273559 151.4202548  66.0487938 106.4285796 150.5051397  65.0658624
 103.3418173 148.5392478  71.8327866 103.8172295 148.7320125  71.0246717
 102.4183739 148.5951664  71.5871249  90.2301680 149.7016646  61.4158944
  89.9847722 148.7978976  61.6139154  90.3997594 149.7033796  60.4738422
  97.9198390 140.5740322  70.7983700  98.4380334 141.3101349  70.4730188
  97.5653523 140.8804315  71.6330459  89.4997327 145.4345003  58.9145105
  88.8066572 145.5089358  58.2585141  89.2549079 144.6705347  59.4366622
  98.1710984 136.9940604  66.3184596  98.4512738 136.3263793  66.9445023
  98.9561591 137.1869700  65.8059260  95.9744452 156.1699598  57.8809623
  95.4018420 156.7889785  57.4280094  96.5477246 156.7198960  58.4149544
 102.0419842 145.4158238  70.0656171 102.9937265 145.5156336  70.0868395
 101.8723293 144.6236507  70.5754256 100.0634222 142.5013822  70.2515572
  99.4684154 142.7818834  69.5562061  99.7783918 142.9907723  71.0232313
  99.1941712 156.4536748  59.0118205 100.1272385 156.3882310  59.2151080
  99.1064925 157.2893015  58.5532737 101.8229729 155.7702619  55.9722152
 101.7443360 155.4362482  56.8657910 102.6439396 156.2624387  55.9713625
 104.5207920 148.6364358  69.1798471 104.4884240 147.6980359  69.3658155
 105.1308544 148.7148395  68.4464296  96.3591251 147.5060411  55.2225675
  97.3050356 147.3766619  55.2914093  95.9805496 146.7675073  55.6995103
 104.6702409 145.4275402  69.2256754 104.1541457 144.6433858  69.0386683
 105.5542357 145.0994118  69.3903274 102.3313135 139.1716417  65.1852567
 102.1337957 138.8631505  66.0695899 102.9412841 139.8978056  65.3150497
 110.3384470 149.6980365  68.3204508 111.0687858 149.4365653  68.8812211
 109.7291415 148.9609087  68.3606576 108.4199767 147.8388228  68.9178959
 107.6932931 147.7044192  68.3095451 108.0047054 148.1465056  69.7235677
  96.2429943 151.5578157  76.6826332  97.1632953 151.7356756  76.8766379
  96.2079527 150.6134203  76.5306031  94.5434168 145.4310387  55.1580560
  93.6365623 145.1343500  55.2343274  94.8210149 145.1340206  54.2914847
  85.4612108 146.7516751  65.6079607  85.1414893 145.8982059  65.3153981
  84.9145537 146.9665329  66.3637574  89.2392016 149.4679192  69.3249113
  89.4578026 150.3996300  69.3437147  89.6517790 149.1087166  70.1103917
  96.1596234 139.9747277  61.3124802  95.3496962 139.6294362  61.6880048
  96.8480651 139.6654821  61.9012413  98.0886782 139.0525324  62.9349098
  98.6417821 139.4720777  63.5939121  98.3256868 138.1261072  62.9772054
  93.3132953 142.2897323  55.2992539  94.1752117 142.6152221  55.5588357
  93.4983297 141.5028819  54.7865605  85.3300368 150.3719662  67.5772728
  84.6363840 149.9573615  67.0642683  86.0773359 150.4140199  66.9806147
 101.4665589 141.1625849  62.4427762 100.8864258 141.8210653  62.0605815
 101.2001522 140.3403194  62.0315180  99.9169156 140.5630907  64.6449083
 100.4168934 140.6747441  63.8363402 100.5604763 140.2591960  65.2849891
  93.9751151 148.4709536  77.5316924  93.4918233 149.2709897  77.7380813
  94.0612090 148.4817481  76.5784368  87.2437111 150.3037916  65.4538743
  87.2207799 150.4025603  64.5020626  87.5537747 151.1503067  65.7755909
  89.9024489 152.3614071  69.5685358  90.8567742 152.3298013  69.5015289
  89.7037012 151.9004695  70.3835583  90.4923871 150.9315187  72.1356155
  91.3116760 151.4259266  72.1590992  90.7660679 150.0147155  72.1073723
 100.2490467 143.3225940  61.4984111  99.3616322 143.6075590  61.2804305
 100.6644456 143.1619703  60.6511388 103.6005003 143.3472461  65.2138450
 104.3765393 143.8368913  65.4863067 102.8753138 143.7730515  65.6710319
 106.0377562 144.0600080  66.2712391 106.6322053 143.8195816  65.5605699
 106.1104146 143.3407210  66.8985927  88.2574718 157.9033691  66.5855555
  88.1229186 157.1434092  66.0193553  87.8406780 158.6274591  66.1184344
  99.3933681 153.0870614  55.5932131 100.0969531 153.2920617  56.2089786
  98.6696329 153.6547376  55.8581214 100.2231491 148.8380475  61.7134401
 100.1666692 149.2949027  60.8742033 100.7759833 148.0771160  61.5357244
 104.0336297 144.6270207  62.5384520 103.7773231 144.2266843  63.3692728
 103.4089165 145.3414001  62.4134660 108.3448635 147.3666281  65.0455812
 107.7848193 147.4359470  65.8187374 107.7392138 147.1907265  64.3255308
  91.4143844 158.8003008  66.7973998  91.2976228 159.7448440  66.6952688
  90.5936290 158.4976569  67.1859797 101.3020378 153.5253143  57.6430591
 102.1365982 153.0934342  57.4608066 101.1404721 153.3535157  58.5707485
 100.9566270 150.0285257  59.0086930 100.9015074 149.8629528  58.0675374
 100.3312326 150.7361290  59.1649120  85.7458785 145.2653321  72.8348352
  86.3917649 144.7552275  73.3235577  85.5375936 146.0022003  73.4091778
  98.2712177 152.3334169  78.3340493  99.1403337 152.5074821  77.9727128
  97.7918929 153.1528585  78.2116222  94.2662396 139.5293366  58.5872248
  94.2541066 140.4735206  58.7440519  95.1585818 139.3463511  58.2931710
  92.4398358 159.4531270  70.0129926  93.3425604 159.4854880  70.3296421
  92.2135728 158.5231721  70.0276262  94.1951960 158.2062256  66.6740005
  93.2447591 158.2064118  66.5604377  94.4984446 157.4594991  66.1576040
  98.0814515 136.1236142  62.8418185  97.3146911 135.5694629  62.9874868
  98.4925220 136.1958011  63.7032337 109.9304653 164.0422795  67.7385768
 110.5683063 163.9229542  67.0349108 109.8125496 164.9903638  67.7973720
 106.7394359 163.9950223  67.6747292 106.4012871 163.8791287  66.7867827
 107.6084128 163.5941388  67.6548298 102.5981175 165.8485699  63.6644183
 102.0346040 165.7575636  62.8960471 102.4833570 165.0285603  64.1446676
 107.2214142 165.1485074  73.6333498 107.2102783 164.7537873  72.7614001
 107.3834782 164.4151147  74.2267269 100.1445607 167.3436891  66.5028404
 100.9366899 167.0027715  66.0874703 100.3842257 167.4531866  67.4230557
 108.1780734 169.5156667  58.9758648 107.5268714 170.1010747  58.5892662
 108.9725097 170.0462862  59.0353686 102.1036361 166.6045804  59.3745782
 102.8767237 166.0574791  59.2358658 102.4561760 167.4690053  59.5860244
 103.9421404 167.9322186  72.5812682 103.6511270 168.8367817  72.4659348
 104.5778388 167.9738714  73.2956751 104.8677610 165.3099035  69.1714041
 105.4641183 165.0855057  68.4571004 104.9252582 164.5683780  69.7739489
 104.4402639 162.7638470  57.0064232 104.6928160 162.2419991  56.2447695
 103.5027198 162.6004615  57.1090916 109.4845922 161.7674248  64.8138976
 110.2709011 161.3493672  64.4629393 109.7484626 162.6720341  64.9820624
 109.6555999 167.2047099  59.5127632 109.0201832 167.2781725  60.2248537
 109.3253405 167.7940697  58.8346712 114.8854349 161.7049482  65.7171954
 115.6179521 161.1348698  65.9509784 114.1293704 161.3171082  66.1578460
 104.1598928 164.6666576  59.2088607 104.0435186 163.9911479  59.8769692
 104.2701187 164.1798950  58.3920760 106.5030469 164.1276723  62.9135297
 106.1388676 163.6007344  63.6248218 107.3597584 163.7375192  62.7401782
 112.4079769 155.4171056  70.1766563 112.0763094 156.2866467  69.9527778
 111.8125383 155.1007340  70.8560593 106.1435955 159.1566623  57.9096645
 106.3110358 160.0246859  58.2767116 105.9533125 159.3193904  56.9857934
 108.9011289 167.6183602  69.5762475 108.6012012 168.5208640  69.4678283
 108.5562348 167.3515785  70.4283628 102.3523770 164.0697398  65.6099180
 101.4274267 163.9373613  65.8176872 102.6008183 164.8491618  66.1069122
 112.3008432 160.1366142  67.2559913 111.3925310 160.0681550  66.9618674
 112.2496028 160.6138087  68.0841738 106.1225176 161.6124280  58.8943312
 106.0024802 162.0581331  59.7328792 105.4277765 161.9609598  58.3356850
  99.7132581 163.7130672  66.4442969  99.8424962 163.9665151  67.3582381
  99.0330032 164.3058380  66.1247624 106.3749298 161.5555787  75.1994810
 105.5982632 162.1149708  75.1897675 107.0139861 162.0412570  75.7209680
 114.1670079 158.3382580  69.0337787 113.5244459 158.6315113  68.3877581
 113.6625007 158.2235501  69.8390983 111.8210243 162.0845753  59.7223646
 112.7328099 162.3173140  59.5471343 111.3119890 162.6682798  59.1598725
 104.6295671 164.3641241  74.7612777 105.3710355 164.9026285  74.4847601
 103.9232656 164.9907530  74.9184329 110.1051010 166.5070381  73.3584938
 110.5134366 166.0652792  72.6139571 109.3828272 165.9323009  73.6119131
 106.4582080 161.4442988  70.7318495 107.3043275 161.8682402  70.8753144
 106.3980718 160.7876612  71.4257059 110.4279825 167.0671572  67.1137227
 109.7988687 167.2317286  66.4113295 110.0405487 167.4813181  67.8848191
 109.6081526 159.1047356  72.3899669 109.3642457 159.8589417  71.8533945
 109.8841456 159.4832704  73.2246916 111.5619988 165.6485969  71.0676935
 111.7736884 166.2917729  70.3911316 111.5149737 164.8148285  70.5998865
 109.1646217 158.2603789  67.9713507 108.3030696 158.5585043  68.2630244
 109.1908652 158.4774188  67.0394539 105.9807787 166.8045980  64.3787312
 106.4446132 167.0833683  63.5891935 105.7164585 165.9029425  64.1960403
 102.8731868 166.3517462  67.3167076 103.4433225 166.7804730  66.6784560
 103.4639980 166.0700046  68.0151261 104.9176673 162.9269132  61.1876878
 105.6200716 163.3790176  61.6550804 104.5857301 162.2852951  61.8156771
 103.3657034 161.5180889  75.5628087 102.7355695 162.1997170  75.7963484
 103.2593122 161.4063971  74.6181225  98.6602007 161.1852685  66.4894011
  97.8701061 161.4410214  66.0134122  99.1513254 162.0001023  66.5946052
 112.6765816 168.5257924  69.2399292 113.4983260 168.1238111  68.9581974
 112.6728219 168.4226158  70.1915408 100.6116752 161.5497264  63.4477488
  99.8147915 161.6615958  63.9660984 100.3842344 161.8883916  62.5818378
 106.4422420 168.0741967  71.3960002 106.5066852 168.5362375  72.2318174
 105.7333344 167.4439332  71.5242312  96.9439710 161.4383175  68.9209002
  97.1947748 162.3230185  69.1866578  97.4799258 161.2587777  68.1484094
 106.1570437 169.7410075  61.2638983 106.0216112 170.5861611  61.6923831
 106.6980250 169.9429353  60.5004917 102.6437777 155.8201655  77.9253338
 102.2504723 155.2667853  78.6000982 103.4603917 156.1312233  78.3159856
  99.6099835 167.2585513  61.8366908 100.1224355 168.0528763  61.9872473
 100.2622548 166.5611803  61.7700509 101.4194719 170.3751269  63.9189661
 101.5961348 171.2969234  63.7310645 102.2151553 170.0609688  64.3484041
 105.5605738 157.2359534  75.5173595 106.3015451 157.8366687  75.4378057
 105.7923661 156.4937172  74.9591637 100.7047076 162.4215901  73.7951824
 100.5900591 161.5201158  74.0958923  99.8491594 162.6679598  73.4436641
 107.7838914 170.3633641  75.3939325 107.3402768 169.5770020  75.0760229
 108.4456127 170.5512792  74.7283216 106.3393206 168.1580571  74.2644235
 106.8721543 167.3968859  74.0343543 105.8107287 167.8654223  75.0068389
 109.5062901 153.2640637  69.7937876 109.1627170 154.1542279  69.7176987
 109.8741864 153.0742294  68.9307461  97.5748752 165.5874167  62.6126478
  98.4123974 165.9971176  62.3960186  97.7527019 164.6473609  62.5826672
 109.4713184 163.2549248  58.3010311 108.9559807 164.0253853  58.5398699
 109.1990492 162.5814384  58.9243373 107.0560295 158.0998949  63.3595550
 106.2001891 157.7105799  63.1801188 107.4687246 158.1790910  62.4995335
 108.5859441 155.6345292  67.7587110 108.0824237 155.5975427  66.9454915
 108.8790048 156.5438035  67.8183766 104.8302327 155.7184022  66.7653291
 105.6955324 155.5226830  66.4059181 104.8979836 155.4894373  67.6922648
 114.4447458 166.0081603  60.2363485 113.6676901 165.6692762  59.7918647
 115.1238939 166.0134226  59.5618450 109.2599487 161.1276340  60.1270093
 108.9549622 161.4422489  60.9780236 110.2129929 161.2057760  60.1697426
 107.7045919 167.2866563  61.7763047 107.1767280 166.5519323  61.4636284
 107.2033421 168.0641240  61.5303015 112.6838765 165.4815584  66.8930093
 112.0262439 166.1714845  66.9810221 113.4879164 165.8712016  67.2364079
 102.4364646 157.9486230  64.1369658 103.0108398 157.7261411  63.4042851
 103.0235629 158.0174924  64.8898259 111.4944224 163.8359957  64.9434035
 112.0076105 164.4689948  65.4455744 112.1445447 163.2361152  64.5777395
 102.7634233 159.9790691  58.1565543 101.9271546 160.3165377  58.4774818
 102.6239003 159.8439670  57.2192680 104.7387314 154.8227479  62.8644728
 104.0851726 154.5076496  62.2401342 104.6967788 154.2003219  63.5904550
 105.8498519 165.1046774  54.7798020 104.9425581 164.8736027  54.9789169
 106.3469551 164.3084393  54.9672001 107.9725054 161.3109412  67.1892375
 107.0547616 161.5324359  67.0314063 108.3885198 161.3855723  66.3304082
 108.7560102 162.7100828  62.3195055 109.5031921 163.2222225  62.0102177
 109.0251692 162.3884880  63.1799449 107.0286752 165.2059368  59.3022010
 106.1197972 164.9218401  59.3994479 107.0581836 165.6258447  58.4425317
 112.2606020 168.8165958  63.0713177 111.8068347 167.9756868  63.1278368
 111.6299986 169.4527356  63.4087957 111.2038939 159.7457944  64.3013845
 110.4661696 159.2335330  64.6324087 111.4565713 159.3058326  63.4897122
 111.3050567 152.5234196  64.8955614 111.6109443 151.6631559  64.6081529
 112.0303171 153.1151816  64.6954608  97.5974923 162.9264883  63.2837212
  97.3999323 162.3334243  62.5588278  97.0421587 162.6217093  64.0013151
 105.5771646 162.8187989  65.4031805 105.6320256 161.8661825  65.3274282
 104.7662848 162.9747428  65.8873103 106.7262840 166.7468112  56.6410088
 106.2882270 166.0303971  56.1815726 107.4673281 166.9744227  56.0795180
 103.5164006 161.4365049  63.1622184 102.7031872 161.7359219  63.5687376
 104.0123000 161.0420738  63.8796666 105.6672584 171.4322806  65.0956449
 105.6248763 171.6583652  64.1664981 106.5835283 171.1986180  65.2442250
 109.1138218 161.9006873  71.9937078 109.4687606 162.1278346  72.8531544
 109.7610349 162.2325250  71.3714333 114.8435955 165.0225309  62.6986407
 114.7053853 165.2126905  61.7707596 114.4872174 165.7844692  63.1554458
 103.0078081 159.0083404  68.7783419 103.6477460 158.8672163  68.0806382
 102.1755612 158.7217918  68.4022021 103.7838385 168.3085835  64.8918411
 104.5778983 167.8136155  64.6900986 103.0730077 167.7803698  64.5286117
 108.6033229 170.6903930  69.2430779 108.6570252 171.2594867  70.0108495
 107.7348011 170.8605815  68.8784816 100.0921148 162.4528917  60.9678164
  99.1618736 162.3913372  61.1848126 100.1878620 161.9304869  60.1714805
 100.0106697 158.9783729  63.5556406 100.2713515 159.8929063  63.4465566
 100.8323870 158.5108172  63.7053018 101.4831623 160.3921487  70.7255230
 102.1554676 160.1838849  70.0767879 100.6561409 160.1943573  70.2860462
 107.3857195 157.0183427  72.7420891 106.7385110 157.7173377  72.6485367
 108.1558210 157.4519571  73.1097139 110.7935993 167.2832280  75.8171444
 110.6421499 167.0542831  74.9001528 110.7840672 168.2402881  75.8302789
 107.5621329 164.8564192  70.8017711 108.4913389 165.0075352  70.6286678
 107.1412359 164.9448213  69.9466357 106.3609661 168.8814857  68.5716248
 106.2220747 168.5133641  69.4442187 105.5724257 169.3962496  68.4000206
 107.9114876 168.2596459  65.9605086 107.5764709 168.2197229  66.8562736
 107.4118822 167.5941175  65.4875496 101.8859120 163.6664089  71.4857667
 101.7478918 162.9344328  72.0869206 102.7964044 163.5772990  71.2041855
 110.8474068 165.6052494  56.2342146 110.2303238 164.8799322  56.1375199
 110.3790556 166.3661854  55.8909220 104.5141421 163.3784049  70.9741347
 105.2241039 162.7377241  70.9327965 104.4710729 163.6296944  71.8967528
 103.2270355 160.3649267  72.7936986 102.6907712 159.9140005  73.4458583
 102.6387063 160.4995176  72.0507451 102.6372614 159.8237918  55.3563450
 101.7602080 159.7026719  54.9925697 103.1130367 159.0323996  55.1042339
 112.5045607 168.2790986  72.1261906 111.6172385 167.9416908  72.2488305
 113.0744158 167.5474017  72.3630671  94.1574754 164.6115078  65.4504957
  94.8445794 164.2976808  64.8625973  94.0022882 165.5156442  65.1772209
  98.9609476 159.5005274  69.8789981  98.8767665 158.8930944  69.1440391
  98.1392182 159.9914293  69.8799477 105.8236540 172.1764208  62.6025971
 105.0404062 172.7185889  62.6964195 106.5229285 172.6938188  63.0020212
 109.1333190 157.9858838  65.2460176 109.6301889 157.2328800  64.9261246
 108.3620171 158.0223155  64.6803385 116.9862947 163.6899203  66.8878468
 116.9752823 164.5723919  66.5172401 116.1180327 163.3370754  66.6933005
 110.2162970 166.7430525  62.8198599 109.2819249 166.8631988  62.6503304
 110.3939639 165.8402992  62.5558609 105.7168159 160.1276221  64.9731861
 105.3465946 159.5747261  65.6612766 106.2127251 159.5234354  64.4206861
 113.6035522 162.5847844  63.3548634 114.0695974 163.4175836  63.2808936
 114.0543022 162.1192826  64.0593892 103.5457357 170.5873716  72.0686879
 104.2466817 171.2210199  72.2216273 103.0752472 170.9288447  71.3082518
 111.6711753 168.9291666  60.3534786 111.9471597 168.8148260  61.2628660
 110.8016252 168.5309151  60.3146959 111.5752185 154.9528431  67.3939535
 110.6615264 155.1832658  67.5621742 112.0045286 155.0366875  68.2453567
 111.3458643 163.1418323  69.8939429 110.6930093 163.3894231  69.2391882
 111.7239023 162.3282462  69.5601906 107.3946216 163.8838134  76.3805466
 106.7186853 163.7832264  77.0507841 108.2173850 163.7277348  76.8441463
  99.1425075 170.1210071  69.0017981  99.7278512 169.3753759  69.1345885
  98.9449914 170.4314028  69.8854645  93.7342730 162.6915671  67.7222424
  93.7726829 162.1579262  68.5159542  93.2283023 162.1650877  67.1033402
 101.1133492 157.5380212  71.2184967 101.1774819 158.3995043  70.8062364
 101.0500612 156.9254213  70.4857325 100.5885765 159.6103344  74.8658001
 101.2157804 159.2280422  75.4795525  99.7313684 159.3917546  75.2313693
  97.3651307 161.4179773  60.7976356  97.6604749 160.5090452  60.7443409
  96.4639343 161.3967513  60.4757358 100.8945554 159.4935770  66.7803904
 100.1732140 160.1071738  66.6411378 101.6838810 160.0293535  66.7020550
 103.6971868 156.8290196  73.0544556 104.2206270 157.0752493  73.8170865
 103.4784201 157.6610231  72.6347693  99.0939149 159.0993871  60.9215681
  98.7651855 158.2191250  60.7390787  99.4478520 159.0441540  61.8092070
 108.3418728 170.7348774  65.4310666 108.1943690 169.8065481  65.6118237
 109.1672221 170.7568864  64.9467742 102.2080972 159.3866841  61.2891159
 102.5477045 159.9152762  60.5669767 102.6553093 159.7247247  62.0649725
 104.9024413 157.7703892  70.7394227 104.5621233 156.9711705  71.1414907
 104.1963419 158.0705602  70.1671060 105.5540885 154.8553204  69.1921550
 106.3766954 154.3813682  69.0700440 105.7978948 155.6343688  69.6920236
 104.1949119 157.8841462  59.4884451 104.9157482 158.2622715  58.9848168
 103.5714423 158.6030339  59.5919429 108.3380242 158.5886611  60.4242784
 108.5543857 159.4711249  60.1231612 107.8574309 158.1972825  59.6948426
 103.0779464 161.5472325  67.0013528 102.9324044 161.8612628  67.8937810
 102.6004667 162.1657225  66.4484427 104.9375847 158.5374873  67.0494418
 104.9237415 157.6415966  66.7126716 105.6548275 158.5445536  67.6832704
 106.7901977 158.9712213  69.0947545 106.5319755 159.8929283  69.0931876
 106.2587018 158.5742647  69.7848009  97.5525126 164.0877669  69.9401189
  97.0078594 164.8637477  70.0721464  98.4304476 164.4348473  69.7820311
 104.3412742 157.4189253  62.3181988 104.4628654 156.4905899  62.5172875
 104.0514785 157.4327939  61.4060303 107.2103933 155.1044163  65.4548708
 107.2325630 155.1683496  64.5000687 107.6271992 154.2648672  65.6489214
 117.5887557 164.8399423  63.4927930 118.0318703 164.0906748  63.0947054
 116.7114067 164.8309559  63.1101662  98.3391148 163.2147565  72.8331346
  97.5972884 163.3630201  73.4195977  98.0183892 163.4755831  71.9698096
 103.7529294 170.4539462  66.9339415 103.1309304 169.7910167  66.6341642
 104.4234161 170.4800594  66.2513062  96.9856366 169.0199320  65.8230675
  96.1488275 168.5921495  65.6414676  96.9580012 169.2131764  66.7601466
 103.8253822 158.9321250  76.5271921 103.8741977 159.8083373  76.1449690
 104.3676336 158.3898643  75.9543564 114.4306543 166.3254840  73.1205786
 114.4804548 166.1604847  74.0621309 114.3220466 165.4582099  72.7303667
 103.3142801 169.0043386  60.4097875 103.4630922 169.6878850  59.7564548
 104.1209245 168.9848476  60.9247331 111.7210305 162.3085768  74.4365093
 112.6220168 162.1692233  74.1449091 111.7958280 162.4740223  75.3763270
 106.0553110 159.6852623  73.2818279 105.1856420 159.9786189  73.0100868
 106.2912591 160.2693068  74.0025543 114.1811928 163.8684396  71.8327866
 114.6566049 164.0612042  71.0246717 113.2577493 163.9243582  71.5871249
 101.0695434 165.0308563  61.4158944 100.8241476 164.1270893  61.6139154
 101.2391349 165.0325714  60.4738422 108.7592144 155.9032240  70.7983700
 109.2774088 156.6393266  70.4730188 108.4047277 156.2096233  71.6330459
 100.3391082 160.7636921  58.9145105  99.6460327 160.8381276  58.2585141
 100.0942834 159.9997264  59.4366622 109.0104738 152.3232522  66.3184596
 109.2906492 151.6555711  66.9445023 109.7955345 152.5161618  65.8059260
 106.8138207 171.4991516  57.8809623 106.2412174 172.1181703  57.4280094
 107.3871001 172.0490878  58.4149544 112.8813597 160.7450156  70.0656171
 113.8331020 160.8448254  70.0868395 112.7117047 159.9528425  70.5754256
 110.9027976 157.8305739  70.2515572 110.3077908 158.1110752  69.5562061
 110.6177673 158.3199640  71.0232313 115.3601675 163.9656276  69.1798471
 115.3277995 163.0272277  69.3658155 115.9702298 164.0440312  68.4464296
 107.1985005 162.8352329  55.2225675 108.1444110 162.7058537  55.2914093
 106.8199250 162.0966991  55.6995103 115.5096163 160.7567319  69.2256754
 114.9935212 159.9725776  69.0386683 116.3936112 160.4286036  69.3903274
 113.1706890 154.5008335  65.1852567 112.9731711 154.1923423  66.0695899
 113.7806596 155.2269974  65.3150497 119.2593522 163.1680145  68.9178959
 118.5326685 163.0336110  68.3095451 118.8440808 163.4756974  69.7235677
 107.0823698 166.8870075  76.6826332 108.0026707 167.0648674  76.8766379
 107.0473281 165.9426120  76.5306031 105.3827923 160.7602305  55.1580560
 104.4759378 160.4635418  55.2343274 105.6603904 160.4632123  54.2914847
  96.3005863 162.0808669  65.6079607  95.9808647 161.2273977  65.3153981
  95.7539291 162.2957247  66.3637574 100.0785771 164.7971110  69.3249113
 100.2971780 165.7288217  69.3437147 100.4911544 164.4379084  70.1103917
 106.9989988 155.3039195  61.3124802 106.1890717 154.9586280  61.6880048
 107.6874405 154.9946739  61.9012413 108.9280537 154.3817242  62.9349098
 109.4811575 154.8012695  63.5939121 109.1650623 153.4552990  62.9772054
 104.9513636 160.3704315  78.7151862 104.8510363 161.3198672  78.6463953
 104.7335178 160.0422554  77.8427932 104.1526707 157.6189240  55.2992539
 105.0145871 157.9444139  55.5588357 104.3377051 156.8320736  54.7865605
  96.1694123 165.7011580  67.5772728  95.4757594 165.2865533  67.0642683
  96.9167114 165.7432117  66.9806147 112.3059344 156.4917767  62.4427762
 111.7258013 157.1502571  62.0605815 112.0395276 155.6695111  62.0315180
 110.7562910 155.8922825  64.6449083 111.2562688 156.0039359  63.8363402
 111.3998518 155.5883877  65.2849891 104.8144906 163.8001454  77.5316924
 104.3311988 164.6001814  77.7380813 104.9005845 163.8109399  76.5784368
  98.0830865 165.6329834  65.4538743  98.0601554 165.7317521  64.5020626
  98.3931502 166.4794985  65.7755909 100.7418243 167.6905989  69.5685358
 101.6961497 167.6589931  69.5015289 100.5430767 167.2296613  70.3835583
 101.3317625 166.2607105  72.1356155 102.1510514 166.7551184  72.1590992
 101.6054433 165.3439073  72.1073723 111.0884222 158.6517857  61.4984111
 110.2010077 158.9367508  61.2804305 111.5038211 158.4911621  60.6511388
 114.4398758 158.6764378  65.2138450 115.2159148 159.1660831  65.4863067
 113.7146892 159.1022432  65.6710319 116.8771316 159.3891997  66.2712391
 117.4715807 159.1487733  65.5605699 116.9497900 158.6699128  66.8985927
 110.2327435 168.4162532  55.5932131 110.9363285 168.6212534  56.2089786
 109.5090084 168.9839294  55.8581214 111.0625245 164.1672393  61.7134401
 111.0060447 164.6240945  60.8742033 111.6153588 163.4063078  61.5357244
 114.8730051 159.9562125  62.5384520 114.6166986 159.5558761  63.3692728
 114.2482919 160.6705919  62.4134660 119.1842389 162.6958198  65.0455812
 118.6241947 162.7651388  65.8187374 118.5785893 162.5199183  64.3255308
 112.1414133 168.8545061  57.6430591 112.9759736 168.4226260  57.4608066
 111.9798475 168.6827075  58.5707485 111.7960025 165.3577174  59.0086930
 111.7408829 165.1921446  58.0675374 111.1706080 166.0653207  59.1649120
  96.5852540 160.5945239  72.8348352  97.2311403 160.0844193  73.3235577
  96.3769691 161.3313920  73.4091778 109.1105932 167.6626086  78.3340493
 109.9797092 167.8366739  77.9727128 108.6312683 168.4820503  78.2116222
 105.1056150 154.8585283  58.5872248 105.0934820 155.8027123  58.7440519
 105.9979572 154.6755429  58.2931710 108.9208270 151.4528060  62.8418185
 108.1540665 150.8986547  62.9874868 109.3318975 151.5249929  63.7032337
 100.9250031 157.7412856  76.9323367 101.7881492 157.3849661  77.1426691
 100.3515441 157.4026751  77.6198771  23.2154618  18.4149576  54.4631074
  23.8533028  18.2956323  53.7594414  23.0975461  19.3630420  54.5219026
  20.0244325  18.3677004  54.3992599  19.6862836  18.2518068  53.5113134
  20.8934093  17.9668169  54.3793605  15.8831140  20.2212480  50.3889490
  15.3196006  20.1302417  49.6205778  15.7683536  19.4012385  50.8691982
  20.5064108  19.5211856  60.3578804  20.4952749  19.1264654  59.4859308
  20.6684747  18.7877928  60.9512576  13.4295572  21.7163672  53.2273710
  14.2216864  21.3754496  52.8120010  13.6692223  21.8258647  54.1475864
  21.4630699  23.8883448  45.7003955  20.8118679  24.4737528  45.3137968
  22.2575062  24.4189643  45.7598992  15.3886326  20.9772585  46.0991089
  16.1617202  20.4301572  45.9603965  15.7411725  21.8416834  46.3105550
  17.2271369  22.3048967  59.3057988  16.9361235  23.2094598  59.1904655
  17.8628353  22.3465495  60.0202058  18.1527576  19.6825816  55.8959348
  18.7491148  19.4581838  55.1816311  18.2102547  18.9410561  56.4984796
  22.7695887  16.1401030  51.5384282  23.5558976  15.7220453  51.1874699
  23.0334591  17.0447122  51.7065931  22.9405964  21.5773880  46.2372939
  22.3051797  21.6508506  46.9493844  22.6103371  22.1667479  45.5592018
  28.1704314  16.0776263  52.4417261  28.9029486  15.5075480  52.6755090
  27.4143670  15.6897863  52.8823766  17.4448893  19.0393357  45.9333914
  17.3285151  18.3638261  46.6014998  17.5551153  18.5525731  45.1166067
  19.7880434  18.5003504  49.6380603  19.4238641  17.9734125  50.3493525
  20.6447550  18.1101973  49.4647089  25.6929734   9.7897837  56.9011869
  25.3613059  10.6593248  56.6773084  25.0975348   9.4734121  57.5805900
  22.1861254  21.9910383  56.3007782  21.8861977  22.8935422  56.1923589
  21.8412314  21.7242566  57.1528935  15.6373735  18.4424180  52.3344486
  14.7124232  18.3100394  52.5422178  15.8858149  19.2218399  52.8314429
  25.5858398  14.5092923  53.9805219  24.6775275  14.4408331  53.6863980
  25.5345994  14.9864868  54.8087045  19.4075142  15.9851061  45.6188618
  19.2874767  16.4308112  46.4574099  18.7127730  16.3336379  45.0602157
  12.9982547  18.0857453  53.1688276  13.1274928  18.3391932  54.0827687
  12.3179998  18.6785161  52.8492931  17.1682034  28.7554703  49.2678750
  17.0906063  29.7062528  49.3467230  16.5643677  28.4100576  49.9253676
  19.6599264  15.9282569  61.9240117  18.8832598  16.4876489  61.9142981
  20.2989827  16.4139352  62.4454987  27.4520044  12.7109361  55.7583093
  26.8094424  13.0041895  55.1122888  26.9474973  12.5962282  56.5636290
  25.1060208  16.4572535  46.4468953  26.0178064  16.6899921  46.2716650
  24.5969855  17.0409579  45.8844031  17.9145636  18.7368022  61.4858084
  18.6560320  19.2753066  61.2092907  17.2082621  19.3634311  61.6429635
  23.3900976  20.8797162  60.0830245  23.7984332  20.4379573  59.3384877
  22.6678237  20.3049790  60.3364438  19.7432046  15.8169769  57.4563802
  20.5893241  16.2409183  57.5998451  19.6830683  15.1603394  58.1502365
  23.7129790  21.4398353  53.8382534  23.0838653  21.6044067  53.1358602
  23.3255452  21.8539963  54.6093498  27.5919022  22.3752791  51.1926898
  26.9070060  22.7551692  50.6423931  27.6762871  22.9848118  51.9258846
  22.8931491  13.4774138  59.1144976  22.6492423  14.2316198  58.5779251
  23.1691421  13.8559485  59.9492223  24.8469954  20.0212750  57.7922241
  25.0586849  20.6644510  57.1156622  24.7999702  19.1875066  57.3244171
  22.4496183  12.6330571  54.6958813  21.5880662  12.9311824  54.9875551
  22.4758617  12.8500969  53.7639846  19.2657752  21.1772761  51.1032619
  19.7296098  21.4560464  50.3137242  19.0014550  20.2756206  50.9205710
  16.1581833  20.7244243  54.0412382  16.7283190  21.1531511  53.4029867
  16.7489945  20.4426827  54.7396568  18.2026638  17.2995914  47.9122184
  18.9050681  17.7516957  48.3796111  17.8707267  16.6579732  48.5402077
  16.6507000  15.8907670  62.2873394  16.0205660  16.5723951  62.5208790
  16.5443088  15.7790752  61.3426532  25.9615782  22.8984705  55.9644599
  26.7833225  22.4964893  55.6827280  25.9578184  22.7952940  56.9160714
  13.8966717  15.9224045  50.1722795  13.0997881  16.0342740  50.6906290
  13.6692310  16.2610698  49.3063685  19.7272385  22.4468749  58.1205309
  19.7916818  22.9089156  58.9563481  19.0183309  21.8166114  58.2487619
  34.0521775  19.2423454  52.3129570  33.2985483  18.6730852  52.1573575
  34.1869316  19.2086118  53.2600205  19.4420403  24.1136856  47.9884289
  19.3066077  24.9588392  48.4169137  19.9830215  24.3156134  47.2250223
  12.8949800  21.6312294  48.5612215  13.4074321  22.4255544  48.7117779
  13.5472513  20.9338585  48.4945816  14.7044685  24.7478050  50.6434968
  14.8811313  25.6696015  50.4555952  15.5001518  24.4336470  51.0729348
  18.8455703  11.6086315  62.2418901  19.5865417  12.2093468  62.1623364
  19.0773626  10.8663953  61.6836944  13.9897041  16.7942682  60.5197131
  13.8750556  15.8927940  60.8204230  13.1341559  17.0406379  60.1681947
  21.0688879  24.7360423  62.1184632  20.6252733  23.9496801  61.8005536
  21.7306093  24.9239573  61.4528522  15.8276000  26.2656224  56.6445310
  16.3783425  26.1373288  55.8722304  14.9887476  26.5651113  56.2940203
  23.1670117  25.0163223  60.1466033  23.1488593  25.8372104  59.6546302
  24.0890037  24.8917298  60.3716174  19.6243171  22.5307352  60.9889541
  20.1571508  21.7695640  60.7588849  19.0957252  22.2381004  61.7313696
  10.8598717  19.9600948  49.3371785  11.6973939  20.3697957  49.1205493
  11.0376985  19.0200391  49.3071979  22.7563149  17.6276029  45.0255618
  22.2409772  18.3980634  45.2644005  22.4840457  16.9541165  45.6488679
  20.3410260  12.4725730  50.0840856  19.4851856  12.0832580  49.9046495
  20.7537212  12.5517691  49.2240642  21.8709407  10.0072073  54.4832416
  21.3674202   9.9702208  53.6700221  22.1640014  10.9164816  54.5429073
  27.7297423  20.3808384  46.9608792  26.9526866  20.0419543  46.5163954
  28.4088904  20.3861007  46.2863757  22.5449452  15.5003121  46.8515399
  22.2399588  15.8149270  47.7025542  23.4979894  15.5784541  46.8942732
  20.9895884  21.6593345  48.5008353  20.4617246  20.9246104  48.1881591
  20.4883387  22.4368021  48.2548322  25.9688730  19.8542365  53.6175400
  25.3112404  20.5441626  53.7055528  26.7729129  20.2438797  53.9609386
  24.7794189  18.2086738  51.6679341  25.2926071  18.8416730  52.1701051
  25.4295413  17.6087933  51.3022701  22.0416563  28.1871062  44.4240012
  21.3678262  28.4902759  45.0324970  22.4282385  28.9900142  44.0745469
  21.2575020  15.6836193  53.9137682  20.3397581  15.9051140  53.7559370
  21.6735163  15.7582504  53.0549389  22.0410067  17.0827609  49.0440362
  22.7881886  17.5949006  48.7347484  22.3101657  16.7611662  49.9044756
  20.3136718  19.5786150  46.0267316  19.4047937  19.2945182  46.1239786
  20.3431801  19.9985228  45.1670623  25.5455985  23.1892739  49.7958484
  25.0918312  22.3483649  49.8523674  24.9149952  23.8254138  50.1333264
  24.4888905  14.1184725  51.0259151  23.7511661  13.6062111  51.3569394
  24.7415678  13.6785107  50.2142428  23.9888924  25.0269236  50.7308302
  24.2811899  25.5874293  50.0120668  24.4987545  25.3197797  51.4861461
  10.8824888  17.2991664  50.0082519  10.6849288  16.7061025  49.2833585
  10.3271552  16.9943874  50.7258457  18.8621612  17.1914770  52.1277112
  18.9170221  16.2388607  52.0519588  18.0512814  17.3474209  52.6118410
  20.0112805  21.1194893  43.3655395  19.5732235  20.4030752  42.9061032
  20.7523246  21.3471008  42.8040486  16.8013972  15.8091830  49.8867491
  15.9881837  16.1086001  50.2932683  17.2972966  15.4147519  50.6041973
  18.9522549  25.8049587  51.8201755  18.9098728  26.0310433  50.8910287
  19.8685248  25.5712962  51.9687556  22.3988183  16.2733654  58.7182384
  22.7537571  16.5005128  59.5776850  23.0460315  16.6052031  58.0959640
  28.1285920  19.3952090  49.4231713  27.9903819  19.5853686  48.4952903
  27.7722139  20.1571473  49.8799765  28.1555300  21.4628617  54.4342985
  28.5891806  21.3703906  55.2826039  28.8686881  21.4386118  53.7963001
  17.0688350  22.6812616  51.6163718  17.8628949  22.1862936  51.4146293
  16.3580043  22.1530479  51.2531424  21.8883195  25.0630712  55.9676086
  21.9420217  25.6321648  56.7353801  21.0197976  25.2332597  55.6030123
  13.3771114  16.8255698  47.6923471  12.4468702  16.7640153  47.9093433
  13.4728586  16.3031650  46.8960112  14.7681588  14.7648268  57.4500537
  15.4404642  14.5565630  56.8013186  13.9411375  14.5670354  57.0105769
  29.0170849  21.5052318  56.9675870  29.2106739  22.4098129  57.2135145
  28.9171468  21.0459737  57.8014455  20.6707160  11.3910209  59.4666198
  20.0235075  12.0900158  59.3730674  21.4408176  11.8246353  59.8342446
  24.0785958  21.6559061  62.5416751  23.9271464  21.4269612  61.6246835
  24.0690638  22.6129662  62.5548096  20.8471294  19.2290974  57.5263017
  21.7763354  19.3802133  57.3531985  20.4262324  19.3174994  56.6711664
  19.6459626  23.2541638  55.2961555  19.5070712  22.8860422  56.1687493
  18.8574222  23.7689277  55.1245513  20.2407778  28.3550734  46.6387092
  20.4159534  27.8838778  47.4532714  19.5540566  28.9816501  46.8668352
  21.1964841  22.6323241  52.6850393  20.8614674  22.5924011  53.5808043
  20.6968787  21.9667957  52.2120803  15.1709085  18.0390871  58.2102974
  15.0328883  17.3071110  58.8114513  16.0814009  17.9499771  57.9287162
  24.1324033  19.9779275  42.9587452  23.5153204  19.2526103  42.8620505
  23.6640522  20.7388635  42.6154527  17.7991386  17.7510830  57.6986654
  18.5091005  17.1104022  57.6573272  17.7560694  18.0023725  58.6212834
  25.7878165  24.6878183  60.6193233  25.7290711  24.0037403  59.9523816
  26.1897683  25.4297173  60.1673859  16.5120320  14.7376048  59.5182293
  15.9757677  14.2866786  60.1703889  15.9237028  14.8721957  58.7752757
  14.8068864  31.5040097  53.4126952  15.0465462  32.1358621  54.0905970
  13.9638060  31.1528137  53.6992311  25.7895572  22.6517767  58.8507213
  24.9022351  22.3143689  58.9733611  26.3594123  21.9200799  59.0875978
   7.4424719  18.9841859  52.1750264   8.1295759  18.6703589  51.5871279
   7.2872848  19.8883224  51.9017515  19.3196725  27.3119220  55.8168456
  19.2466897  28.1174191  56.3287760  18.8774118  27.5111185  54.9916477
  19.1086505  26.5490990  49.3271277  18.3254027  27.0912670  49.4209502
  19.8079250  27.0664969  49.7265518  22.4183155  12.3585619  51.9705483
  22.9151855  11.6055581  51.6506553  21.6470137  12.3949936  51.4048692
  30.2712913  18.0625985  53.6123774  30.2602789  18.9450700  53.2417707
  29.4030292  17.7097535  53.4178311  21.7795409  27.2106054  57.9726614
  22.4923381  27.8453518  57.9002516  21.2885438  27.3069920  57.1566616
  23.5012936  21.1157306  49.5443906  22.5669215  21.2358769  49.3748610
  23.6789604  20.2129773  49.2803916  19.0018124  14.5003002  51.6977167
  18.6315911  13.9474042  52.3858073  19.4977216  13.8961136  51.1452167
  26.8885487  16.9574626  50.0793940  27.3545939  17.7902617  50.0054243
  27.3392988  16.4919607  50.7839199  16.8307322  24.9600497  58.7932185
  17.5316782  25.5936980  58.9461579  16.3602437  25.3015229  58.0327824
  24.9561718  23.3018447  47.0780092  25.2321562  23.1875041  47.9873966
  24.0866217  22.9035932  47.0392265  24.8602150   9.3255213  54.1184842
  23.9465230   9.5559439  54.2867048  25.2895251   9.4093657  54.9698874
  24.6308608  17.5145105  56.6184736  23.9780059  17.7621012  55.9637188
  25.0088988  16.7009243  56.2847213  21.5915782  27.5504798  50.7212906
  21.7738177  26.7326454  51.1840658  22.4148768  27.7672490  50.2837796
  21.9257948  26.4772983  47.9827954  22.4545714  25.9665437  47.3698116
  22.1886167  26.1615513  48.8473487  20.6796181  18.2564916  63.1050773
  20.0036818  18.1559045  63.7753148  21.5023815  18.1004129  63.5686770
  12.4275040  24.4936852  55.7263288  13.0128477  23.7480540  55.8591192
  12.2299879  24.8040809  56.6099952  15.2813696  27.5288100  50.7425730
  14.6124071  28.0134227  50.2589770  15.1426565  27.7757320  51.6569109
  19.4218964  29.5631843  57.3408389  19.9737272  29.7263465  58.1057474
  19.7625158  30.1536281  56.6688413  24.2729839  24.3893101  63.1957043
  24.8169743  25.0023059  62.7011998  23.6916683  24.9472679  63.7124056
  22.5587352  27.5113819  54.3272071  22.4338491  26.7103558  53.8183016
  23.2166443  28.0060012  53.8386041  24.6222260  25.3122839  55.9551621
  23.6752595  25.1928190  55.8829948  24.9705033  24.4245337  56.0377882
  21.6268693  25.1075555  52.1555973  21.4793656  24.1792262  52.3363543
  22.4522187  25.1295646  51.6713048  15.4930938  13.7593622  48.0136465
  15.8327010  14.2879543  47.2915074  15.9403058  14.0974028  48.7895032
  25.2302815  25.9304114  53.2420846  26.1549363  25.7246975  53.1045297
  25.0618118  25.6820515  54.1510187  21.6230208  12.9613393  47.1488090
  21.8393822  13.8438030  46.8476919  21.1424275  12.5699606  46.4193732
  16.3629429  15.9199106  53.7258835  16.2174010  16.2339409  54.6183116
  15.8854633  16.5384006  53.1729734  18.2225812  12.9101654  53.7739724
  18.2087381  12.0142747  53.4372022  18.9398240  12.9172318  54.4078011
  20.0751943  13.3438994  55.8192852  19.8169720  14.2656065  55.8177182
  19.5436983  12.9469429  56.5093316  25.0198131  26.4489781  48.5982937
  25.1935009  25.8836204  47.8456790  25.5127023  27.2490676  48.4162427
  10.8375091  18.4604450  56.6646496  10.2928559  19.2364258  56.7966770
  11.7154441  18.8075255  56.5065618  30.8737522  19.2126204  50.2173237
  31.3168669  18.4633529  49.8192360  29.9964033  19.2036340  49.8346969
  26.0073304  25.7656545  45.6979836  26.7024208  26.3863238  45.9167150
  26.3496454  24.9151897  45.9732213  11.6241113  17.5874346  59.5576653
  10.8822849  17.7356982  60.1441283  11.3033857  17.8482612  58.6943402
  27.9064727  23.2156251  47.2267166  28.4316051  23.5543524  46.5016486
  27.8187079  22.2803266  47.0430301  19.5684776  27.1290325  59.3557043
  19.8771902  26.8839471  60.2279743  20.3660258  27.3336963  58.8675913
  19.5905388  29.2828234  51.5862420  19.1510378  28.7904613  52.2795276
  20.3413505  28.7401202  51.3454495  12.0697727  25.4739775  51.5887048
  12.8955747  25.1743547  51.2085691  11.7191779  24.7047398  52.0376836
  17.0379260  24.8266243  53.6584721  16.4159269  24.1636948  53.3586949
  17.7084127  24.8527375  52.9758369  10.2706332  23.3926102  52.5475981
   9.4338240  22.9648276  52.3659982  10.2429977  23.5858545  53.4846772
  17.1103787  13.3048031  63.2517227  17.1591943  14.1810154  62.8694997
  17.6526302  12.7625424  62.6788870  27.5958633  23.8489155  62.5318364
  26.8054177  23.8313294  61.9922864  27.3591988  24.3877448  63.2867401
  27.7156508  20.6981621  59.8451093  27.7654513  20.5331628  60.7866616
  27.6070431  19.8308880  59.4548974  16.5992767  23.3770167  47.1343182
  16.7480887  24.0605631  46.4809854  17.4059210  23.3575257  47.6492637
  25.0060270  16.6812549  61.1610400  25.9070133  16.5419014  60.8694397
  25.0808245  16.8467004  62.1008577  19.3403076  14.0579404  60.0063586
  18.4706385  14.3512970  59.7346174  19.5762556  14.6419849  60.7270850
  29.2174705  23.1178563  60.0893114  28.9259513  23.4808543  60.9256575
  28.6046836  22.4045571  59.9106446  30.4170387  20.6831442  52.6095685
  31.2517279  21.1221246  52.7733245  30.5529516  20.2070096  51.7903930
  27.4661893  18.2411177  58.5573172  27.9416015  18.4338823  57.7492024
  26.5427458  18.2970363  58.3116556  14.3545400  19.4035344  48.1404251
  14.1091442  18.4997674  48.3384461  14.5241314  19.4052495  47.1983729
  22.0442110  10.2759021  57.5229006  22.5624053  11.0120048  57.1975495
  21.6897242  10.5823014  58.3575765  20.0988172  25.8718297  44.6054929
  19.5262139  26.4908484  44.1525401  20.6720966  26.4217659  45.1394851
  26.1663562  15.1176937  56.7901478  27.1180985  15.2175035  56.8113702
  25.9967013  14.3255206  57.2999562  24.1877942  12.2032520  56.9760879
  23.5927874  12.4837533  56.2807368  23.9027638  12.6926421  57.7477620
  23.3185432  26.1555447  45.7363511  24.2516105  26.0901009  45.9396387
  23.2308645  26.9911714  45.2778044  25.9473449  25.4721318  42.6967459
  25.8687080  25.1381181  43.5903217  26.7683116  25.9643086  42.6958931
  28.6451640  18.3383057  55.9043778  28.6127960  17.3999058  56.0903461
  29.2552264  18.4167094  55.1709603  28.7946128  15.1294100  55.9502061
  28.2785177  14.3452557  55.7631990  29.6786077  14.8012817  56.1148580
  26.4556855   8.8735116  51.9097873  26.2581676   8.5650204  52.7941205
  27.0656561   9.5996755  52.0395803  34.4628190  19.3999064  55.0449814
  35.1931578  19.1384352  55.6057518  33.8535135  18.6627786  55.0851882
  32.5443487  17.5406926  55.6424266  31.8176650  17.4062891  55.0340757
  32.1290774  17.8483755  56.4480984  20.3673663  21.2596856  63.4071639
  21.2876673  21.4375455  63.6011685  20.3323246  20.3152901  63.2551338
  13.3635736  19.1697891  56.0494420  13.5821746  20.1014999  56.0682454
  13.7761510  18.8105865  56.8349224  18.2363601  14.7431096  65.4397169
  18.1360328  15.6925453  65.3709260  18.0185143  14.4149335  64.5673239
   9.4544088  20.0738361  54.3018035   8.7607560  19.6592314  53.7887989
  10.2017079  20.1158898  53.7051454  25.5909309  10.8644548  49.1673069
  25.0107978  11.5229352  48.7851122  25.3245242  10.0421893  48.7560487
  24.0412875  10.2649606  51.3694389  24.5412654  10.3766140  50.5608708
  24.6848483   9.9610659  52.0095198  18.0994871  18.1728235  64.2562230
  17.6161953  18.9728595  64.4626119  18.1855810  18.1836180  63.3029674
  11.3680831  20.0056615  52.1784050  11.3451519  20.1044302  51.2265933
  11.6781467  20.8521766  52.5001216  14.0268209  22.0632770  56.2930664
  14.9811462  22.0316712  56.2260596  13.8280732  21.6023394  57.1080890
  14.6167591  20.6333886  58.8601462  15.4360480  21.1277965  58.8836299
  14.8904399  19.7165854  58.8319029  24.3734187  13.0244638  48.2229417
  23.4860042  13.3094289  48.0049612  24.7888176  12.8638402  47.3756694
  27.7248723  13.0491159  51.9383757  28.5009113  13.5387612  52.2108373
  26.9996857  13.4749214  52.3955626  30.1621282  13.7618779  52.9957697
  30.7565773  13.5214515  52.2851005  30.2347865  13.0425909  53.6231234
  12.3818437  27.6052390  53.3100862  12.2472905  26.8452790  52.7438860
  11.9650500  28.3293289  52.8429651  23.5177400  22.7889313  42.3177437
  24.2213251  22.9939316  42.9335093  22.7940049  23.3566075  42.5826521
  24.3475211  18.5399174  48.4379708  24.2910412  18.9967726  47.5987340
  24.9003553  17.7789859  48.2602550  28.1580017  14.3288906  49.2629827
  27.9016951  13.9285542  50.0938035  27.5332885  15.0432700  49.1379966
  32.4692355  17.0684979  51.7701118  31.9091913  17.1378169  52.5432680
  31.8635858  16.8925964  51.0500615  15.5387563  28.5021707  53.5219305
  15.4219948  29.4467139  53.4197995  14.7180010  28.1995268  53.9105104
  25.4264098  23.2271842  44.3675897  26.2609702  22.7953041  44.1853372
  25.2648441  23.0553856  45.2952792  25.0809990  19.7303956  45.7332237
  25.0258794  19.5648227  44.7920681  24.4556045  20.4379988  45.8894426
  22.3955897  22.0352867  65.0585799  23.2647057  22.2093520  64.6972434
  21.9162649  22.8547284  64.9361529  16.5642077  29.1549968  56.7375233
  17.4669324  29.1873579  57.0541728  16.3379448  28.2250419  56.7521569
  18.3195679  27.9080955  53.3985312  17.3691311  27.9082817  53.2849684
  18.6228166  27.1613690  52.8821346  34.0548373  33.7441493  54.4631074
  34.6926783  33.6248241  53.7594414  33.9369216  34.6922337  54.5219026
  30.8638079  33.6968921  54.3992599  30.5256591  33.5809986  53.5113134
  31.7327847  33.2960087  54.3793605  26.7224895  35.5504398  50.3889490
  26.1589760  35.4594335  49.6205778  26.6077290  34.7304302  50.8691982
  31.3457862  34.8503773  60.3578804  31.3346503  34.4556571  59.4859308
  31.5078502  34.1169846  60.9512576  24.2689327  37.0455589  53.2273710
  25.0610619  36.7046414  52.8120010  24.5085977  37.1550565  54.1475864
  32.3024454  39.2175366  45.7003955  31.6512433  39.8029446  45.3137968
  33.0968816  39.7481560  45.7598992  26.2280081  36.3064503  46.0991089
  27.0010957  35.7593490  45.9603965  26.5805480  37.1708752  46.3105550
  28.0665123  37.6340885  59.3057988  27.7754989  38.5386516  59.1904655
  28.7022108  37.6757413  60.0202058  28.9921330  35.0117734  55.8959348
  29.5884903  34.7873756  55.1816311  29.0496302  34.2702479  56.4984796
  28.5646359  32.4657169  43.7309539  28.8171879  31.9438690  42.9693002
  27.6270918  32.3023314  43.8336223  33.6089641  31.4692947  51.5384282
  34.3952731  31.0512370  51.1874699  33.8728346  32.3739039  51.7065931
  33.7799719  36.9065798  46.2372939  33.1445552  36.9800424  46.9493844
  33.4497125  37.4959396  45.5592018  39.0098069  31.4068180  52.4417261
  39.7423241  30.8367397  52.6755090  38.2537424  31.0189781  52.8823766
  28.2842647  34.3685275  45.9333914  28.1678905  33.6930178  46.6014998
  28.3944907  33.8817649  45.1166067  30.6274188  33.8295422  49.6380603
  30.2632396  33.3026043  50.3493525  31.4841304  33.4393891  49.4647089
  36.5323489  25.1189755  56.9011869  36.2006814  25.9885165  56.6773084
  35.9369102  24.8026039  57.5805900  30.2679675  28.8585322  44.6341952
  30.4354078  29.7265558  45.0012423  30.0776844  29.0212603  43.7103241
  33.0255008  37.3202301  56.3007782  32.7255732  38.2227339  56.1923589
  32.6806068  37.0534484  57.1528935  26.4767490  33.7716097  52.3344486
  25.5517986  33.6392311  52.5422178  26.7251903  34.5510317  52.8314429
  36.4252152  29.8384841  53.9805219  35.5169030  29.7700249  53.6863980
  36.3739748  30.3156786  54.8087045  30.2468896  31.3142979  45.6188618
  30.1268521  31.7600030  46.4574099  29.5521485  31.6628297  45.0602157
  23.8376301  33.4149371  53.1688276  23.9668682  33.6683850  54.0827687
  23.1573752  34.0077079  52.8492931  28.0075788  44.0846621  49.2678750
  27.9299818  45.0354446  49.3467230  27.4037432  43.7392493  49.9253676
  30.4993018  31.2574486  61.9240117  29.7226352  31.8168406  61.9142981
  31.1383581  31.7431269  62.4454987  38.2913799  28.0401279  55.7583093
  37.6488179  28.3333812  55.1122888  37.7868727  27.9254199  56.5636290
  35.9453962  31.7864452  46.4468953  36.8571818  32.0191839  46.2716650
  35.4363609  32.3701496  45.8844031  28.7539390  34.0659940  61.4858084
  29.4954075  34.6044984  61.2092907  28.0476376  34.6926228  61.6429635
  34.2294730  36.2089080  60.0830245  34.6378086  35.7671491  59.3384877
  33.5071992  35.6341708  60.3364438  30.5825800  31.1461687  57.4563802
  31.4286995  31.5701100  57.5998451  30.5224438  30.4895311  58.1502365
  34.5523545  36.7690271  53.8382534  33.9232407  36.9335985  53.1358602
  34.1649207  37.1831880  54.6093498  38.4312777  37.7044709  51.1926898
  37.7463815  38.0843610  50.6423931  38.5156626  38.3140035  51.9258846
  33.7325245  28.8066055  59.1144976  33.4886177  29.5608116  58.5779251
  34.0085176  29.1851403  59.9492223  35.6863708  35.3504668  57.7922241
  35.8980603  35.9936428  57.1156622  35.6393456  34.5166984  57.3244171
  33.2889937  27.9622488  54.6958813  32.4274416  28.2603742  54.9875551
  33.3152372  28.1792887  53.7639846  30.1051507  36.5064679  51.1032619
  30.5689852  36.7852382  50.3137242  29.8408305  35.6048123  50.9205710
  26.9975588  36.0536160  54.0412382  27.5676945  36.4823429  53.4029867
  27.5883699  35.7718745  54.7396568  29.0420393  32.6287831  47.9122184
  29.7444436  33.0808875  48.3796111  28.7101021  31.9871650  48.5402077
  27.4900754  31.2199588  62.2873394  26.8599415  31.9015869  62.5208790
  27.3836842  31.1082669  61.3426532  22.7845727  30.8871384  53.2139318
  21.9944781  31.1428912  52.7379428  23.2756974  31.7019722  53.3191358
  36.8009536  38.2276623  55.9644599  37.6226980  37.8256810  55.6827280
  36.7971939  38.1244857  56.9160714  24.7360472  31.2515963  50.1722795
  23.9391635  31.3634657  50.6906290  24.5086064  31.5902615  49.3063685
  30.5666140  37.7760666  58.1205309  30.6310572  38.2381074  58.9563481
  29.8577063  37.1458031  58.2487619  21.0683430  31.1401874  55.6454309
  21.3191468  32.0248884  55.9111885  21.6042978  30.9606476  54.8729400
  44.8915529  34.5715372  52.3129570  44.1379238  34.0022770  52.1573575
  45.0263070  34.5378036  53.2600205  30.2814157  39.4428774  47.9884289
  30.1459832  40.2880310  48.4169137  30.8223970  39.6448051  47.2250223
  26.7681497  25.5220354  64.6498645  26.3748442  24.9686552  65.3246289
  27.5847637  25.8330932  65.0405162  23.7343555  36.9604212  48.5612215
  24.2468075  37.7547462  48.7117779  24.3866267  36.2630502  48.4945816
  25.5438439  40.0769968  50.6434968  25.7205068  40.9987933  50.4555952
  26.3395273  39.7628387  51.0729348  29.6849458  26.9378233  62.2418901
  30.4259171  27.5385386  62.1623364  29.9167381  26.1955871  61.6836944
  24.8290796  32.1234600  60.5197131  24.7144311  31.2219857  60.8204230
  23.9735314  32.3698297  60.1681947  31.9082634  40.0652340  62.1184632
  31.4646488  39.2788719  61.8005536  32.5699847  40.2531491  61.4528522
  26.6669755  41.5948142  56.6445310  27.2177180  41.4665205  55.8722304
  25.8281231  41.8943031  56.2940203  34.0063872  40.3455140  60.1466033
  33.9882347  41.1664021  59.6546302  34.9283792  40.2209215  60.3716174
  30.4636926  37.8599270  60.9889541  30.9965263  37.0987558  60.7588849
  29.9351007  37.5672922  61.7313696  33.6306621  22.9659336  56.5183183
  33.2870890  23.8560977  56.4422294  33.9985583  22.7760993  55.6552768
  21.6992471  35.2892866  49.3371785  22.5367693  35.6989875  49.1205493
  21.8770739  34.3492308  49.3071979  33.5956903  32.9567947  45.0255618
  33.0803527  33.7272551  45.2644005  33.3234212  32.2833083  45.6488679
  31.1804015  27.8017648  50.0840856  30.3245611  27.4124498  49.9046495
  31.5930966  27.8809608  49.2240642  32.7103161  25.3363991  54.4832416
  32.2067957  25.2994126  53.6700221  33.0033768  26.2456734  54.5429073
  28.9546047  25.4202721  53.4898598  29.8199044  25.2245529  53.1304487
  29.0223556  25.1913072  54.4167955  38.5691178  35.7100301  46.9608792
  37.7920620  35.3711461  46.5163954  39.2482659  35.7152925  46.2863757
  33.3843207  30.8295039  46.8515399  33.0793342  31.1441188  47.7025542
  34.3373649  30.9076459  46.8942732  31.8289639  36.9885262  48.5008353
  31.3011000  36.2538022  48.1881591  31.3277141  37.7659939  48.2548322
  36.8082485  35.1834283  53.6175400  36.1506159  35.8733544  53.7055528
  37.6122884  35.5730715  53.9609386  26.5608366  27.6504929  50.8614965
  27.1352118  27.4280110  50.1288158  27.1479349  27.7193623  51.6143566
  35.6187943  33.5378655  51.6679341  36.1319825  34.1708647  52.1701051
  36.2689167  32.9379851  51.3022701  26.8877953  29.6809390  44.8810850
  26.0515265  30.0184076  45.2020125  26.7482723  29.5458369  43.9437987
  28.8631034  24.5246177  49.5890034  28.2095446  24.2095195  48.9646649
  28.8211508  23.9021918  50.3149857  29.9742239  34.8065472  41.5043326
  29.0669300  34.5754726  41.7034475  30.4713271  34.0103092  41.6917308
  32.8810318  43.5162980  44.4240012  32.2072016  43.8194676  45.0324970
  33.2676140  44.3192060  44.0745469  32.0968774  31.0128111  53.9137682
  31.1791336  31.2343058  53.7559370  32.5128918  31.0874421  53.0549389
  32.8803822  32.4119527  49.0440362  33.6275641  32.9240924  48.7347484
  33.1495411  32.0903579  49.9044756  31.1530472  34.9078067  46.0267316
  30.2441691  34.6237100  46.1239786  31.1825556  35.3277146  45.1670623
  36.3849740  38.5184657  49.7958484  35.9312067  37.6775567  49.8523674
  35.7543706  39.1546055  50.1333264  35.3282659  29.4476643  51.0259151
  34.5905416  28.9354029  51.3569394  35.5809433  29.0077024  50.2142428
  34.8282679  40.3561154  50.7308302  35.1205653  40.9166211  50.0120668
  35.3381299  40.6489715  51.4861461  35.4294286  22.2252895  51.6200921
  35.7353163  21.3650258  51.3326836  36.1546891  22.8170515  51.4199915
  21.7218643  32.6283581  50.0082519  21.5243042  32.0352942  49.2833585
  21.1665307  32.3235792  50.7258457  29.7015366  32.5206688  52.1277112
  29.7563976  31.5680524  52.0519588  28.8906568  32.6766127  52.6118410
  30.8506560  36.4486811  43.3655395  30.4125990  35.7322670  42.9061032
  31.5917001  36.6762926  42.8040486  27.6407726  31.1383748  49.8867491
  26.8275592  31.4377918  50.2932683  28.1366720  30.7439436  50.6041973
  29.7916304  41.1341505  51.8201755  29.7492483  41.3602351  50.8910287
  30.7079003  40.9004879  51.9687556  33.2381938  31.6025572  58.7182384
  33.5931325  31.8297045  59.5776850  33.8854069  31.9343949  58.0959640
  38.9679675  34.7244008  49.4231713  38.8297573  34.9145604  48.4952903
  38.6115894  35.4863391  49.8799765  27.1321801  28.7102103  55.5028725
  27.7721180  28.5690862  54.8051689  26.2999331  28.4236617  55.1267327
  38.9949054  36.7920535  54.4342985  39.4285561  36.6995824  55.2826039
  39.7080635  36.7678036  53.7963001  27.9082105  38.0104534  51.6163718
  28.7022703  37.5154854  51.4146293  27.1973797  37.4822397  51.2531424
  32.7276949  40.3922629  55.9676086  32.7813972  40.9613565  56.7353801
  31.8591731  40.5624514  55.6030123  24.2164868  32.1547615  47.6923471
  23.2862456  32.0932071  47.9093433  24.3122340  31.6323568  46.8960112
  24.1350417  28.6802428  50.2801712  24.3957235  29.5947761  50.1710873
  24.9567590  28.2126871  50.4298325  25.6075343  30.0940185  57.4500537
  26.2798396  29.8857548  56.8013186  24.7805129  29.8962271  57.0105769
  39.8564604  36.8344236  56.9675870  40.0500494  37.7390046  57.2135145
  39.7565222  36.3751655  57.8014455  31.5100915  26.7202126  59.4666198
  30.8628830  27.4192076  59.3730674  32.2801930  27.1538270  59.8342446
  34.9179713  36.9850978  62.5416751  34.7665219  36.7561530  61.6246835
  34.9084392  37.9421580  62.5548096  31.6865049  34.5582891  57.5263017
  32.6157109  34.7094051  57.3531985  31.2656079  34.6466912  56.6711664
  30.4853381  38.5833556  55.2961555  30.3464466  38.2152340  56.1687493
  29.6967977  39.0981195  55.1245513  31.0801533  43.6842652  46.6387092
  31.2553288  43.2130695  47.4532714  30.3934321  44.3108418  46.8668352
  32.0358596  37.9615158  52.6850393  31.7008429  37.9215928  53.5808043
  31.5362542  37.2959874  52.2120803  26.0102840  33.3682788  58.2102974
  25.8722638  32.6363027  58.8114513  26.9207763  33.2791688  57.9287162
  34.9717788  35.3071193  42.9587452  34.3546958  34.5818021  42.8620505
  34.5034276  36.0680553  42.6154527  28.6385141  33.0802748  57.6986654
  29.3484759  32.4395940  57.6573272  28.5954449  33.3315643  58.6212834
  36.6271919  40.0170101  60.6193233  36.5684465  39.3329321  59.9523816
  37.0291438  40.7589091  60.1673859  27.3514074  30.0667966  59.5182293
  26.8151432  29.6158704  60.1703889  26.7630783  30.2013874  58.7752757
  25.6462618  46.8332015  53.4126952  25.8859216  47.4650539  54.0905970
  24.8031814  46.4820055  53.6992311  26.7616333  29.5256617  42.0808757
  25.8845800  29.4045418  41.7171003  27.2374087  28.7342695  41.8287645
  36.6289326  37.9809685  58.8507213  35.7416105  37.6435607  58.9733611
  37.1987878  37.2492716  59.0875978  18.2818474  34.3133777  52.1750264
  18.9689513  33.9995507  51.5871279  18.1266602  35.2175141  51.9017515
  23.0853196  29.2023973  56.6035288  23.0011384  28.5949643  55.8685698
  22.2635902  29.6932992  56.6044784  30.1590480  42.6411137  55.8168456
  30.0860651  43.4466109  56.3287760  29.7167873  42.8403103  54.9916477
  29.9480259  41.8782907  49.3271277  29.1647781  42.4204588  49.4209502
  30.6473005  42.3956887  49.7265518  33.2576910  27.6877537  51.9705483
  33.7545609  26.9347499  51.6506553  32.4863891  27.7241853  51.4048692
  41.1106667  33.3917902  53.6123774  41.0996543  34.2742618  53.2417707
  40.2424046  33.0389453  53.4178311  32.6189163  42.5397971  57.9726614
  33.3317136  43.1745436  57.9002516  32.1279192  42.6361837  57.1566616
  34.3406690  36.4449224  49.5443906  33.4062969  36.5650686  49.3748610
  34.5183359  35.5421691  49.2803916  29.8411878  29.8294920  51.6977167
  29.4709666  29.2765960  52.3858073  30.3370971  29.2253053  51.1452167
  37.7279242  32.2866543  50.0793940  38.1939694  33.1194535  50.0054243
  38.1786742  31.8211525  50.7839199  27.6701077  40.2892415  58.7932185
  28.3710536  40.9228898  58.9461579  27.1996192  40.6307146  58.0327824
  35.7955473  38.6310365  47.0780092  36.0715317  38.5166959  47.9873966
  34.9259971  38.2327849  47.0392265  35.6995904  24.6547130  54.1184842
  34.7858984  24.8851357  54.2867048  36.1289006  24.7385574  54.9698874
  35.4702363  32.8437022  56.6184736  34.8173813  33.0912930  55.9637188
  35.8482743  32.0301160  56.2847213  32.4309537  42.8796715  50.7212906
  32.6131931  42.0618371  51.1840658  33.2542523  43.0964408  50.2837796
  32.7651702  41.8064901  47.9827954  33.2939469  41.2957355  47.3698116
  33.0279922  41.4907431  48.8473487  31.5189936  33.5856833  63.1050773
  30.8430573  33.4850963  63.7753148  32.3417570  33.4296047  63.5686770
  23.2668795  39.8228770  55.7263288  23.8522232  39.0772458  55.8591192
  23.0693633  40.1332727  56.6099952  26.1207450  42.8580017  50.7425730
  25.4517825  43.3426145  50.2589770  25.9820320  43.1049238  51.6569109
  17.8586450  32.3934370  54.4467731  17.8970549  31.8597961  55.2404849
  17.3526743  31.8669576  53.8278708  30.2612719  44.8923761  57.3408389
  30.8131027  45.0555382  58.1057474  30.6018912  45.4828199  56.6688413
  25.2377212  27.2398911  57.9430273  25.3018539  28.1013741  57.5307671
  25.1744332  26.6272912  57.2102632  24.7129485  29.3122043  61.5903308
  25.3401523  28.9299120  62.2040832  23.8557403  29.0936245  61.9559000
  35.1123593  39.7185018  63.1957043  35.6563497  40.3314977  62.7011998
  34.5310438  40.2764597  63.7124056  21.4895027  31.1198472  47.5221662
  21.7848468  30.2109151  47.4688716  20.5883063  31.0986212  47.2002665
  33.3981106  42.8405736  54.3272071  33.2732246  42.0395476  53.8183016
  34.0560197  43.3351930  53.8386041  25.0189274  29.1954469  53.5049211
  24.2975860  29.8090436  53.3656684  25.8082530  29.7312234  53.4265857
  35.4616014  40.6414756  55.9551621  34.5146350  40.5220108  55.8829948
  35.8098788  39.7537254  56.0377882  27.8215588  26.5308895  59.7789863
  28.3449990  26.7771192  60.5416172  27.6027921  27.3628930  59.3593000
  23.2182869  28.8012570  47.6460988  22.8895575  27.9209949  47.4636093
  23.5722240  28.7460239  48.5337377  32.4662448  40.4367473  52.1555973
  32.3187410  39.5084180  52.3363543  33.2915941  40.4587563  51.6713048
  26.3324692  29.0885540  48.0136465  26.6720765  29.6171461  47.2915074
  26.7796813  29.4265946  48.7895032  36.0696570  41.2596031  53.2420846
  36.9943117  41.0538893  53.1045297  35.9011873  41.0112432  54.1510187
  29.0268133  27.4722590  57.4639533  28.6864953  26.6730403  57.8660213
  28.3207139  27.7724301  56.8916366  29.6784605  24.5571903  55.9166856
  30.5010674  24.0832381  55.7945747  29.9222668  25.3362387  56.4165543
  28.3192839  27.5860161  46.2129758  29.0401202  27.9641414  45.7093475
  27.6958143  28.3049038  46.3164736  32.4623962  28.2905310  47.1488090
  32.6787576  29.1729948  46.8476919  31.9818029  27.8991524  46.4193732
  27.2023183  31.2491023  53.7258835  27.0567764  31.5631327  54.6183116
  26.7248387  31.8675924  53.1729734  29.0619566  28.2393571  53.7739724
  29.0481135  27.3434665  53.4372022  29.7791994  28.2464235  54.4078011
  30.9145697  28.6730912  55.8192852  30.6563475  29.5947982  55.8177182
  30.3830737  28.2761346  56.5093316  35.8591886  41.7781699  48.5982937
  36.0328763  41.2128121  47.8456790  36.3520777  42.5782594  48.4162427
  21.6768846  33.7896368  56.6646496  21.1322314  34.5656176  56.7966770
  22.5548195  34.1367172  56.5065618  28.4656462  27.1207952  49.0427295
  28.5872373  26.1924598  49.2418182  28.1758505  27.1346638  48.1305610
  31.3347653  24.8062862  52.1794014  31.3569349  24.8702195  51.2245994
  31.7515712  23.9667371  52.3734521  41.7131277  34.5418122  50.2173237
  42.1562423  33.7925447  49.8192360  40.8357787  34.5328258  49.8346969
  36.8467058  41.0948463  45.6979836  37.5417963  41.7155156  45.9167150
  37.1890208  40.2443814  45.9732213  22.4634867  32.9166264  59.5576653
  21.7216604  33.0648899  60.1441283  22.1427612  33.1774530  58.6943402
  38.7458481  38.5448169  47.2267166  39.2709805  38.8835441  46.5016486
  38.6580834  37.6095184  47.0430301  30.4078530  42.4582242  59.3557043
  30.7165657  42.2131389  60.2279743  31.2054012  42.6628881  58.8675913
  30.4299142  44.6120152  51.5862420  29.9904132  44.1196531  52.2795276
  31.1807259  44.0693120  51.3454495  22.9091481  40.8031693  51.5887048
  23.7349501  40.5035465  51.2085691  22.5585533  40.0339315  52.0376836
  27.8773014  40.1558161  53.6584721  27.2553024  39.4928866  53.3586949
  28.5477881  40.1819293  52.9758369  21.1100086  38.7218019  52.5475981
  20.2731994  38.2940194  52.3659982  21.0823732  38.9150463  53.4846772
  27.9497542  28.6339949  63.2517227  27.9985697  29.5102072  62.8694997
  28.4920056  28.0917342  62.6788870  38.4352387  39.1781072  62.5318364
  37.6447931  39.1605211  61.9922864  38.1985742  39.7169366  63.2867401
  38.5550263  36.0273539  59.8451093  38.6048267  35.8623546  60.7866616
  38.4464186  35.1600798  59.4548974  27.4386521  38.7062084  47.1343182
  27.5874642  39.3897549  46.4809854  28.2452965  38.6867174  47.6492637
  35.8454025  32.0104467  61.1610400  36.7463888  31.8710932  60.8694397
  35.9201999  32.1758922  62.1008577  30.1796830  29.3871321  60.0063586
  29.3100140  29.6804888  59.7346174  30.4156311  29.9711766  60.7270850
  40.0568459  38.4470480  60.0893114  39.7653268  38.8100461  60.9256575
  39.4440591  37.7337489  59.9106446  41.2564142  36.0123360  52.6095685
  42.0911033  36.4513164  52.7733245  41.3923270  35.5362013  51.7903930
  38.3055648  33.5703095  58.5573172  38.7809769  33.7630741  57.7492024
  37.3821213  33.6262281  58.3116556  25.1939154  34.7327262  48.1404251
  24.9485196  33.8289592  48.3384461  25.3635069  34.7344412  47.1983729
  32.8835864  25.6050938  57.5229006  33.4017808  26.3411965  57.1975495
  32.5290997  25.9114932  58.3575765  24.4634802  30.4655620  45.6390412
  23.7704047  30.5399975  44.9830448  24.2186554  29.7015963  46.1611929
  33.1348458  22.0251221  53.0429903  33.4150212  21.3574410  53.6690329
  33.9199065  22.2180317  52.5304567  30.9381927  41.2010215  44.6054929
  30.3655894  41.8200402  44.1525401  31.5114720  41.7509577  45.1394851
  37.0057317  30.4468855  56.7901478  37.9574739  30.5466953  56.8113702
  36.8360767  29.6547124  57.2999562  35.0271696  27.5324438  56.9760879
  34.4321628  27.8129451  56.2807368  34.7421393  28.0218339  57.7477620
  34.1579187  41.4847365  45.7363511  35.0909860  41.4192927  45.9396387
  34.0702399  42.3203632  45.2778044  36.7867203  40.8013235  42.6967459
  36.7080835  40.4673099  43.5903217  37.6076870  41.2935003  42.6958931
  39.4845394  33.6674975  55.9043778  39.4521714  32.7290975  56.0903461
  40.0946018  33.7459011  55.1709603  31.3228725  32.5371028  41.9470982
  32.2687830  32.4077236  42.0159400  30.9442970  31.7985690  42.4240410
  39.6339883  30.4586018  55.9502061  39.1178932  29.6744475  55.7631990
  40.5179831  30.1304735  56.1148580  37.2950610  24.2027034  51.9097873
  37.0975431  23.8942122  52.7941205  37.9050315  24.9288673  52.0395803
  45.3021944  34.7290981  55.0449814  46.0325333  34.4676270  55.6057518
  44.6928890  33.9919703  55.0851882  43.3837241  32.8698844  55.6424266
  42.6570405  32.7354809  55.0340757  42.9684528  33.1775673  56.4480984
  31.2067418  36.5888774  63.4071639  32.1270427  36.7667373  63.6011685
  31.1717001  35.6444819  63.2551338  29.5071642  30.4621004  41.8825867
  28.6003098  30.1654117  41.9588581  29.7847623  30.1650822  41.0160153
  20.4249583  31.7827367  52.3324913  20.1052367  30.9292676  52.0399287
  19.8783011  31.9975946  53.0882881  24.2029490  34.4989808  56.0494420
  24.4215500  35.4306916  56.0682454  24.6155264  34.1397783  56.8349224
  31.1233708  25.0057894  48.0370108  30.3134436  24.6604979  48.4125354
  31.8118125  24.6965437  48.6257720  33.0524256  24.0835941  49.6594405
  33.6055295  24.5031394  50.3184428  33.2894343  23.1571689  49.7017361
  29.0757356  30.0723014  65.4397169  28.9754083  31.0217371  65.3709260
  28.8578898  29.7441253  64.5673239  28.2770427  27.3207939  42.0237846
  29.1389591  27.6462838  42.2833663  28.4620771  26.5339435  41.5110912
  20.2937843  35.4030279  54.3018035  19.6001314  34.9884232  53.7887989
  21.0410834  35.4450815  53.7051454  36.4303063  26.1936466  49.1673069
  35.8501733  26.8521270  48.7851122  36.1638996  25.3713810  48.7560487
  34.8806630  25.5941523  51.3694389  35.3806408  25.7058058  50.5608708
  35.5242238  25.2902576  52.0095198  28.9388626  33.5020153  64.2562230
  28.4555707  34.3020513  64.4626119  29.0249565  33.5128098  63.3029674
  22.2074585  35.3348533  52.1784050  22.1845273  35.4336220  51.2265933
  22.5175222  36.1813683  52.5001216  24.8661963  37.3924688  56.2930664
  25.8205217  37.3608630  56.2260596  24.6674487  36.9315311  57.1080890
  25.4561345  35.9625804  58.8601462  26.2754234  36.4569882  58.8836299
  25.7298153  35.0457772  58.8319029  35.2127942  28.3536556  48.2229417
  34.3253797  28.6386207  48.0049612  35.6281931  28.1930319  47.3756694
  38.5642478  28.3783077  51.9383757  39.3402868  28.8679529  52.2108373
  37.8390612  28.8041131  52.3955626  41.0015036  29.0910696  52.9957697
  41.5959527  28.8506432  52.2851005  41.0741620  28.3717827  53.6231234
  23.2212192  42.9344307  53.3100862  23.0866660  42.1744708  52.7438860
  22.8044254  43.6585207  52.8429651  34.3571155  38.1181231  42.3177437
  35.0607005  38.3231233  42.9335093  33.6333804  38.6857993  42.5826521
  35.1868965  33.8691092  48.4379708  35.1304167  34.3259643  47.5987340
  35.7397308  33.1081777  48.2602550  38.9973771  29.6580824  49.2629827
  38.7410705  29.2577460  50.0938035  38.3726639  30.3724618  49.1379966
  43.3086109  32.3976897  51.7701118  42.7485667  32.4670086  52.5432680
  42.7029612  32.2217882  51.0500615  26.3781318  43.8313624  53.5219305
  26.2613702  44.7759057  53.4197995  25.5573764  43.5287186  53.9105104
  36.2657852  38.5563760  44.3675897  37.1003456  38.1244958  44.1853372
  36.1042195  38.3845774  45.2952792  35.9203745  35.0595873  45.7332237
  35.8652548  34.8940145  44.7920681  35.2949800  35.7671906  45.8894426
  20.7096260  30.2963938  59.5593659  21.3555123  29.7862892  60.0480884
  20.5013411  31.0332619  60.1337084  33.2349652  37.3644785  65.0585799
  34.1040811  37.5385437  64.6972434  32.7556403  38.1839202  64.9361529
  29.2299870  24.5603982  45.3117555  29.2178540  25.5045822  45.4685826
  30.1223292  24.3774128  45.0177016  27.4035832  44.4841886  56.7375233
  28.3063079  44.5165496  57.0541728  27.1773202  43.5542337  56.7521569
  29.1589434  43.2372873  53.3985312  28.2085065  43.2374734  53.2849684
  29.4621920  42.4905607  52.8821346  33.0451989  21.1546759  49.5663492
  32.2784385  20.6005246  49.7120174  33.4562694  21.2268628  50.4277644
  25.0493751  27.4431555  63.6568673  25.9125212  27.0868360  63.8671998
  24.4759161  27.1045450  64.3444077  44.8942127  49.0733411  54.4631074
  45.5320537  48.9540158  53.7594414  44.7762970  50.0214255  54.5219026
  41.7031834  49.0260839  54.3992599  41.3650345  48.9101904  53.5113134
  42.5721602  48.6252004  54.3793605  37.5618649  50.8796316  50.3889490
  36.9983515  50.7886253  49.6205778  37.4471044  50.0596220  50.8691982
  42.1851617  50.1795691  60.3578804  42.1740258  49.7848489  59.4859308
  42.3472256  49.4461763  60.9512576  35.1083081  52.3747507  53.2273710
  35.9004373  52.0338332  52.8120010  35.3479732  52.4842482  54.1475864
  43.1418208  54.5467283  45.7003955  42.4906188  55.1321364  45.3137968
  43.9362571  55.0773478  45.7598992  37.0673835  51.6356420  46.0991089
  37.8404711  51.0885407  45.9603965  37.4199234  52.5000670  46.3105550
  38.9058878  52.9632803  59.3057988  38.6148744  53.8678434  59.1904655
  39.5415862  53.0049330  60.0202058  39.8315085  50.3409651  55.8959348
  40.4278657  50.1165674  55.1816311  39.8890056  49.5994397  56.4984796
  39.4040113  47.7949087  43.7309539  39.6565634  47.2730608  42.9693002
  38.4664672  47.6315232  43.8336223  44.4483396  46.7984865  51.5384282
  45.2346485  46.3804288  51.1874699  44.7122100  47.7030957  51.7065931
  44.6193473  52.2357715  46.2372939  43.9839306  52.3092342  46.9493844
  44.2890880  52.8251314  45.5592018  49.8491823  46.7360098  52.4417261
  50.5816995  46.1659315  52.6755090  49.0931179  46.3481699  52.8823766
  39.1236402  49.6977192  45.9333914  39.0072660  49.0222096  46.6014998
  39.2338662  49.2109566  45.1166067  41.4667943  49.1587340  49.6380603
  41.1026150  48.6317961  50.3493525  42.3235059  48.7685809  49.4647089
  47.3717243  40.4481672  56.9011869  47.0400568  41.3177083  56.6773084
  46.7762857  40.1317956  57.5805900  41.1073430  44.1877239  44.6341952
  41.2747832  45.0557476  45.0012423  40.9170599  44.3504521  43.7103241
  43.8648763  52.6494218  56.3007782  43.5649486  53.5519257  56.1923589
  43.5199822  52.3826401  57.1528935  37.3161244  49.1008015  52.3344486
  36.3911741  48.9684229  52.5422178  37.5645658  49.8802234  52.8314429
  47.2645907  45.1676758  53.9805219  46.3562784  45.0992167  53.6863980
  47.2133503  45.6448703  54.8087045  41.0862651  46.6434897  45.6188618
  40.9662276  47.0891948  46.4574099  40.3915239  46.9920214  45.0602157
  34.6770055  48.7441289  53.1688276  34.8062437  48.9975768  54.0827687
  33.9967507  49.3368997  52.8492931  38.8469543  59.4138539  49.2678750
  38.7693572  60.3646364  49.3467230  38.2431186  59.0684411  49.9253676
  41.3386773  46.5866404  61.9240117  40.5620107  47.1460324  61.9142981
  41.9777336  47.0723187  62.4454987  49.1307553  43.3693197  55.7583093
  48.4881933  43.6625730  55.1122888  48.6262482  43.2546117  56.5636290
  46.7847717  47.1156370  46.4468953  47.6965573  47.3483757  46.2716650
  46.2757364  47.6993414  45.8844031  39.5933145  49.3951857  61.4858084
  40.3347829  49.9336901  61.2092907  38.8870130  50.0218146  61.6429635
  45.0688484  51.5380998  60.0830245  45.4771841  51.0963408  59.3384877
  44.3465746  50.9633625  60.3364438  41.4219555  46.4753605  57.4563802
  42.2680750  46.8993018  57.5998451  41.3618192  45.8187229  58.1502365
  45.3917299  52.0982188  53.8382534  44.7626162  52.2627903  53.1358602
  45.0042961  52.5123798  54.6093498  49.2706531  53.0336626  51.1926898
  48.5857569  53.4135528  50.6423931  49.3550380  53.6431953  51.9258846
  44.5719000  44.1357973  59.1144976  44.3279932  44.8900033  58.5779251
  44.8478930  44.5143321  59.9492223  46.5257463  50.6796585  57.7922241
  46.7374358  51.3228345  57.1156622  46.4787211  49.8458902  57.3244171
  44.1283692  43.2914406  54.6958813  43.2668171  43.5895660  54.9875551
  44.1546126  43.5084805  53.7639846  40.9445261  51.8356597  51.1032619
  41.4083607  52.1144299  50.3137242  40.6802059  50.9340041  50.9205710
  37.8369342  51.3828078  54.0412382  38.4070699  51.8115346  53.4029867
  38.4277454  51.1010663  54.7396568  39.8814147  47.9579749  47.9122184
  40.5838190  48.4100793  48.3796111  39.5494776  47.3163568  48.5402077
  38.3294509  46.5491506  62.2873394  37.6993169  47.2307786  62.5208790
  38.2230596  46.4374587  61.3426532  33.6239481  46.2163302  53.2139318
  32.8338535  46.4720830  52.7379428  34.1150728  47.0311639  53.3191358
  47.6403291  53.5568541  55.9644599  48.4620734  53.1548728  55.6827280
  47.6365693  53.4536775  56.9160714  35.5754226  46.5807881  50.1722795
  34.7785390  46.6926575  50.6906290  35.3479819  46.9194533  49.3063685
  41.4059894  53.1052584  58.1205309  41.4704327  53.5672991  58.9563481
  40.6970818  52.4749949  58.2487619  31.9077184  46.4693792  55.6454309
  32.1585222  47.3540802  55.9111885  32.4436732  46.2898394  54.8729400
  55.7309284  49.9007289  52.3129570  54.9772992  49.3314687  52.1573575
  55.8656825  49.8669954  53.2600205  41.1207912  54.7720691  47.9884289
  40.9853586  55.6172227  48.4169137  41.6617724  54.9739969  47.2250223
  37.6075251  40.8512271  64.6498645  37.2142197  40.2978470  65.3246289
  38.4241392  41.1622850  65.0405162  34.5737309  52.2896130  48.5612215
  35.0861830  53.0839380  48.7117779  35.2260022  51.5922420  48.4945816
  36.3832194  55.4061886  50.6434968  36.5598822  56.3279851  50.4555952
  37.1789027  55.0920305  51.0729348  40.5243212  42.2670150  62.2418901
  41.2652926  42.8677304  62.1623364  40.7561135  41.5247788  61.6836944
  35.6684550  47.4526518  60.5197131  35.5538065  46.5511775  60.8204230
  34.8129068  47.6990214  60.1681947  42.7476388  55.3944258  62.1184632
  42.3040242  54.6080637  61.8005536  43.4093602  55.5823409  61.4528522
  37.5063509  56.9240060  56.6445310  38.0570934  56.7957123  55.8722304
  36.6674985  57.2234949  56.2940203  44.8457626  55.6747058  60.1466033
  44.8276101  56.4955939  59.6546302  45.7677546  55.5501133  60.3716174
  41.3030680  53.1891187  60.9889541  41.8359017  52.4279476  60.7588849
  40.7744761  52.8964839  61.7313696  44.4700375  38.2951253  56.5183183
  44.1264645  39.1852895  56.4422294  44.8379338  38.1052911  55.6552768
  32.5386226  50.6184784  49.3371785  33.3761448  51.0281792  49.1205493
  32.7164494  49.6784226  49.3071979  44.4350658  48.2859864  45.0255618
  43.9197281  49.0564469  45.2644005  44.1627966  47.6125001  45.6488679
  42.0197769  43.1309565  50.0840856  41.1639365  42.7416416  49.9046495
  42.4324721  43.2101526  49.2240642  43.5496916  40.6655909  54.4832416
  43.0461711  40.6286044  53.6700221  43.8427523  41.5748651  54.5429073
  39.7939802  40.7494638  53.4898598  40.6592798  40.5537447  53.1304487
  39.8617310  40.5204990  54.4167955  49.4084932  51.0392219  46.9608792
  48.6314375  50.7003379  46.5163954  50.0876413  51.0444842  46.2863757
  44.2236961  46.1586957  46.8515399  43.9187097  46.4733106  47.7025542
  45.1767403  46.2368376  46.8942732  42.6683393  52.3177180  48.5008353
  42.1404755  51.5829939  48.1881591  42.1670896  53.0951856  48.2548322
  47.6476239  50.5126200  53.6175400  46.9899913  51.2025462  53.7055528
  48.4516638  50.9022632  53.9609386  37.4002121  42.9796846  50.8614965
  37.9745873  42.7572028  50.1288158  37.9873103  43.0485541  51.6143566
  46.4581698  48.8670573  51.6679341  46.9713580  49.5000565  52.1701051
  47.1082922  48.2671769  51.3022701  37.7271708  45.0101307  44.8810850
  36.8909020  45.3475994  45.2020125  37.5876477  44.8750287  43.9437987
  39.7024788  39.8538095  49.5890034  39.0489201  39.5387112  48.9646649
  39.6605262  39.2313836  50.3149857  40.8135993  50.1357390  41.5043326
  39.9063055  49.9046644  41.7034475  41.3107025  49.3395009  41.6917308
  43.7204072  58.8454897  44.4240012  43.0465771  59.1486594  45.0324970
  44.1069894  59.6483978  44.0745469  42.9362529  46.3420029  53.9137682
  42.0185090  46.5634976  53.7559370  43.3522672  46.4166339  53.0549389
  43.7197576  47.7411444  49.0440362  44.4669395  48.2532842  48.7347484
  43.9889166  47.4195497  49.9044756  41.9924227  50.2369985  46.0267316
  41.0835446  49.9529018  46.1239786  42.0219310  50.6569064  45.1670623
  47.2243494  53.8476575  49.7958484  46.7705821  53.0067484  49.8523674
  46.5937461  54.4837973  50.1333264  46.1676414  44.7768561  51.0259151
  45.4299170  44.2645947  51.3569394  46.4203187  44.3368942  50.2142428
  45.6676433  55.6853071  50.7308302  45.9599408  56.2458128  50.0120668
  46.1775054  55.9781632  51.4861461  46.2688041  37.5544813  51.6200921
  46.5746918  36.6942176  51.3326836  46.9940646  38.1462433  51.4199915
  32.5612397  47.9575499  50.0082519  32.3636797  47.3644860  49.2833585
  32.0059061  47.6527709  50.7258457  40.5409121  47.8498606  52.1277112
  40.5957730  46.8972442  52.0519588  39.7300323  48.0058045  52.6118410
  41.6900314  51.7778729  43.3655395  41.2519744  51.0614588  42.9061032
  42.4310755  52.0054844  42.8040486  38.4801481  46.4675665  49.8867491
  37.6669346  46.7669836  50.2932683  38.9760475  46.0731354  50.6041973
  40.6310058  56.4633422  51.8201755  40.5886237  56.6894269  50.8910287
  41.5472757  56.2296797  51.9687556  44.0775692  46.9317490  58.7182384
  44.4325080  47.1588963  59.5776850  44.7247823  47.2635867  58.0959640
  49.8073429  50.0535926  49.4231713  49.6691328  50.2437522  48.4952903
  49.4509648  50.8155309  49.8799765  37.9715555  44.0394021  55.5028725
  38.6114935  43.8982780  54.8051689  37.1393086  43.7528534  55.1267327
  49.8342809  52.1212453  54.4342985  50.2679315  52.0287742  55.2826039
  50.5474390  52.0969953  53.7963001  38.7475859  53.3396451  51.6163718
  39.5416458  52.8446771  51.4146293  38.0367552  52.8114314  51.2531424
  43.5670704  55.7214547  55.9676086  43.6207726  56.2905483  56.7353801
  42.6985485  55.8916432  55.6030123  35.0558623  47.4839533  47.6923471
  34.1256211  47.4223989  47.9093433  35.1516095  46.9615486  46.8960112
  34.9744172  44.0094346  50.2801712  35.2350989  44.9239679  50.1710873
  35.7961344  43.5418788  50.4298325  36.4469097  45.4232103  57.4500537
  37.1192151  45.2149465  56.8013186  35.6198884  45.2254189  57.0105769
  50.6958358  52.1636153  56.9675870  50.8894248  53.0681964  57.2135145
  50.5958977  51.7043572  57.8014455  42.3494669  42.0494044  59.4666198
  41.7022584  42.7483994  59.3730674  43.1195685  42.4830188  59.8342446
  45.7573467  52.3142896  62.5416751  45.6058973  52.0853448  61.6246835
  45.7478147  53.2713498  62.5548096  42.5258803  49.8874809  57.5263017
  43.4550863  50.0385969  57.3531985  42.1049833  49.9758830  56.6711664
  41.3247135  53.9125473  55.2961555  41.1858221  53.5444258  56.1687493
  40.5361731  54.4273113  55.1245513  41.9195287  59.0134570  46.6387092
  42.0947043  58.5422613  47.4532714  41.2328075  59.6400336  46.8668352
  42.8752350  53.2907076  52.6850393  42.5402183  53.2507846  53.5808043
  42.3756296  52.6251792  52.2120803  36.8496594  48.6974706  58.2102974
  36.7116392  47.9654945  58.8114513  37.7601518  48.6083606  57.9287162
  45.8111542  50.6363110  42.9587452  45.1940713  49.9109939  42.8620505
  45.3428030  51.3972471  42.6154527  39.4778895  48.4094665  57.6986654
  40.1878514  47.7687858  57.6573272  39.4348203  48.6607560  58.6212834
  47.4665674  55.3462019  60.6193233  47.4078220  54.6621239  59.9523816
  47.8685192  56.0881009  60.1673859  38.1907829  45.3959883  59.5182293
  37.6545186  44.9450622  60.1703889  37.6024537  45.5305792  58.7752757
  36.4856372  62.1623933  53.4126952  36.7252971  62.7942457  54.0905970
  35.6425569  61.8111973  53.6992311  37.6010088  44.8548535  42.0808757
  36.7239554  44.7337335  41.7171003  38.0767841  44.0634613  41.8287645
  47.4683081  53.3101603  58.8507213  46.5809860  52.9727524  58.9733611
  48.0381632  52.5784634  59.0875978  29.1212228  49.6425694  52.1750264
  29.8083268  49.3287424  51.5871279  28.9660357  50.5467059  51.9017515
  33.9246950  44.5315891  56.6035288  33.8405139  43.9241560  55.8685698
  33.1029657  45.0224909  56.6044784  40.9984234  57.9703055  55.8168456
  40.9254406  58.7758026  56.3287760  40.5561627  58.1695021  54.9916477
  40.7874014  57.2074825  49.3271277  40.0041536  57.7496505  49.4209502
  41.4866759  57.7248805  49.7265518  44.0970664  43.0169454  51.9705483
  44.5939364  42.2639417  51.6506553  43.3257646  43.0533771  51.4048692
  51.9500421  48.7209820  53.6123774  51.9390298  49.6034535  53.2417707
  51.0817801  48.3681371  53.4178311  43.4582918  57.8689889  57.9726614
  44.1710890  58.5037354  57.9002516  42.9672947  57.9653755  57.1566616
  45.1800445  51.7741142  49.5443906  44.2456724  51.8942604  49.3748610
  45.3577113  50.8713608  49.2803916  40.6805633  45.1586837  51.6977167
  40.3103420  44.6057878  52.3858073  41.1764725  44.5544971  51.1452167
  48.5672996  47.6158461  50.0793940  49.0333448  48.4486453  50.0054243
  49.0180497  47.1503443  50.7839199  38.5094831  55.6184332  58.7932185
  39.2104291  56.2520815  58.9461579  38.0389946  55.9599064  58.0327824
  46.6349227  53.9602282  47.0780092  46.9109071  53.8458877  47.9873966
  45.7653726  53.5619767  47.0392265  46.5389659  39.9839048  54.1184842
  45.6252739  40.2143275  54.2867048  46.9682760  40.0677492  54.9698874
  46.3096117  48.1728940  56.6184736  45.6567568  48.4204847  55.9637188
  46.6876497  47.3593078  56.2847213  43.2703291  58.2088633  50.7212906
  43.4525686  57.3910289  51.1840658  44.0936277  58.4256325  50.2837796
  43.6045457  57.1356818  47.9827954  44.1333223  56.6249273  47.3698116
  43.8673676  56.8199348  48.8473487  42.3583690  48.9148751  63.1050773
  41.6824327  48.8142880  63.7753148  43.1811324  48.7587965  63.5686770
  34.1062549  55.1520688  55.7263288  34.6915986  54.4064375  55.8591192
  33.9087388  55.4624644  56.6099952  36.9601205  58.1871935  50.7425730
  36.2911580  58.6718063  50.2589770  36.8214074  58.4341155  51.6569109
  28.6980204  47.7226288  54.4467731  28.7364304  47.1889878  55.2404849
  28.1920497  47.1961493  53.8278708  41.1006473  60.2215678  57.3408389
  41.6524781  60.3847300  58.1057474  41.4412667  60.8120116  56.6688413
  36.0770967  42.5690828  57.9430273  36.1412293  43.4305659  57.5307671
  36.0138087  41.9564830  57.2102632  35.5523239  44.6413961  61.5903308
  36.1795278  44.2591038  62.2040832  34.6951158  44.4228163  61.9559000
  45.9517348  55.0476936  63.1957043  46.4957252  55.6606894  62.7011998
  45.3704192  55.6056514  63.7124056  32.3288782  46.4490390  47.5221662
  32.6242223  45.5401068  47.4688716  31.4276818  46.4278129  47.2002665
  44.2374861  58.1697654  54.3272071  44.1126000  57.3687394  53.8183016
  44.8953952  58.6643847  53.8386041  35.8583029  44.5246386  53.5049211
  35.1369615  45.1382354  53.3656684  36.6476285  45.0604151  53.4265857
  46.3009769  55.9706674  55.9551621  45.3540104  55.8512025  55.8829948
  46.6492542  55.0829172  56.0377882  38.6609342  41.8600813  59.7789863
  39.1843744  42.1063110  60.5416172  38.4421676  42.6920848  59.3593000
  34.0576623  44.1304488  47.6460988  33.7289330  43.2501866  47.4636093
  34.4115994  44.0752156  48.5337377  43.3056202  55.7659390  52.1555973
  43.1581165  54.8376098  52.3363543  44.1309696  55.7879481  51.6713048
  37.1718447  44.4177457  48.0136465  37.5114519  44.9463379  47.2915074
  37.6190567  44.7557863  48.7895032  46.9090324  56.5887949  53.2420846
  47.8336872  56.3830810  53.1045297  46.7405627  56.3404350  54.1510187
  39.8661887  42.8014508  57.4639533  39.5258708  42.0022321  57.8660213
  39.1600894  43.1016219  56.8916366  40.5178359  39.8863820  55.9166856
  41.3404428  39.4124299  55.7945747  40.7616423  40.6654304  56.4165543
  39.1586594  42.9152079  46.2129758  39.8794956  43.2933332  45.7093475
  38.5351898  43.6340956  46.3164736  43.3017717  43.6197228  47.1488090
  43.5181331  44.5021866  46.8476919  42.8211784  43.2283441  46.4193732
  38.0416938  46.5782941  53.7258835  37.8961519  46.8923244  54.6183116
  37.5642142  47.1967841  53.1729734  39.9013321  43.5685489  53.7739724
  39.8874890  42.6726582  53.4372022  40.6185749  43.5756153  54.4078011
  41.7539452  44.0022829  55.8192852  41.4957229  44.9239900  55.8177182
  41.2224492  43.6053264  56.5093316  46.6985640  57.1073616  48.5982937
  46.8722518  56.5420039  47.8456790  47.1914532  57.9074511  48.4162427
  32.5162600  49.1188286  56.6646496  31.9716068  49.8948093  56.7966770
  33.3941950  49.4659090  56.5065618  39.3050217  42.4499869  49.0427295
  39.4266128  41.5216516  49.2418182  39.0152259  42.4638555  48.1305610
  42.1741407  40.1354780  52.1794014  42.1963104  40.1994113  51.2245994
  42.5909466  39.2959288  52.3734521  52.5525031  49.8710039  50.2173237
  52.9956177  49.1217365  49.8192360  51.6751542  49.8620176  49.8346969
  47.6860813  56.4240381  45.6979836  48.3811717  57.0447074  45.9167150
  48.0283963  55.5735732  45.9732213  33.3028622  48.2458182  59.5576653
  32.5610358  48.3940817  60.1441283  32.9821366  48.5066447  58.6943402
  49.5852236  53.8740086  47.2267166  50.1103560  54.2127359  46.5016486
  49.4974588  52.9387102  47.0430301  41.2472285  57.7874160  59.3557043
  41.5559411  57.5423307  60.2279743  42.0447767  57.9920798  58.8675913
  41.2692897  59.9412070  51.5862420  40.8297887  59.4488448  52.2795276
  42.0201014  59.3985037  51.3454495  33.7485236  56.1323611  51.5887048
  34.5743256  55.8327382  51.2085691  33.3979288  55.3631233  52.0376836
  38.7166769  55.4850079  53.6584721  38.0946778  54.8220784  53.3586949
  39.3871636  55.5111211  52.9758369  31.9493841  54.0509937  52.5475981
  31.1125749  53.6232111  52.3659982  31.9217486  54.2442380  53.4846772
  38.7891296  43.9631867  63.2517227  38.8379452  44.8393990  62.8694997
  39.3313810  43.4209260  62.6788870  49.2746142  54.5072990  62.5318364
  48.4841686  54.4897129  61.9922864  49.0379497  55.0461284  63.2867401
  49.3944017  51.3565456  59.8451093  49.4442022  51.1915464  60.7866616
  49.2857940  50.4892715  59.4548974  38.2780276  54.0354002  47.1343182
  38.4268396  54.7189466  46.4809854  39.0846719  54.0159092  47.6492637
  46.6847779  47.3396384  61.1610400  47.5857642  47.2002849  60.8694397
  46.7595754  47.5050839  62.1008577  41.0190585  44.7163239  60.0063586
  40.1493894  45.0096805  59.7346174  41.2550065  45.3003684  60.7270850
  50.8962214  53.7762398  60.0893114  50.6047022  54.1392378  60.9256575
  50.2834345  53.0629406  59.9106446  52.0957896  51.3415278  52.6095685
  52.9304788  51.7805082  52.7733245  52.2317025  50.8653931  51.7903930
  49.1449402  48.8995013  58.5573172  49.6203524  49.0922659  57.7492024
  48.2214967  48.9554198  58.3116556  36.0332909  50.0619180  48.1404251
  35.7878951  49.1581510  48.3384461  36.2028823  50.0636330  47.1983729
  43.7229619  40.9342856  57.5229006  44.2411562  41.6703883  57.1975495
  43.3684751  41.2406849  58.3575765  35.3028556  45.7947537  45.6390412
  34.6097801  45.8691892  44.9830448  35.0580308  45.0307881  46.1611929
  43.9742213  37.3543139  53.0429903  44.2543967  36.6866328  53.6690329
  44.7592820  37.5472234  52.5304567  41.7775681  56.5302133  44.6054929
  41.2049648  57.1492320  44.1525401  42.3508475  57.0801494  45.1394851
  47.8451071  45.7760773  56.7901478  48.7968494  45.8758870  56.8113702
  47.6754522  44.9839041  57.2999562  45.8665451  42.8616356  56.9760879
  45.2715383  43.1421369  56.2807368  45.5815147  43.3510257  57.7477620
  44.9972941  56.8139283  45.7363511  45.9303614  56.7484844  45.9396387
  44.9096154  57.6495550  45.2778044  47.6260958  56.1305153  42.6967459
  47.5474589  55.7965017  43.5903217  48.4470624  56.6226921  42.6958931
  50.3239149  48.9966892  55.9043778  50.2915469  48.0582893  56.0903461
  50.9339773  49.0750929  55.1709603  42.1622480  47.8662945  41.9470982
  43.1081584  47.7369153  42.0159400  41.7836725  47.1277607  42.4240410
  50.4733637  45.7877936  55.9502061  49.9572686  45.0036392  55.7631990
  51.3573586  45.4596652  56.1148580  48.1344364  39.5318951  51.9097873
  47.9369185  39.2234040  52.7941205  48.7444070  40.2580590  52.0395803
  56.1415699  50.0582899  55.0449814  56.8719087  49.7968187  55.6057518
  55.5322644  49.3211621  55.0851882  54.2230996  48.1990762  55.6424266
  53.4964159  48.0646727  55.0340757  53.8078283  48.5067590  56.4480984
  42.0461172  51.9180691  63.4071639  42.9664182  52.0959290  63.6011685
  42.0110755  50.9736737  63.2551338  40.3465397  45.7912922  41.8825867
  39.4396852  45.4946034  41.9588581  40.6241378  45.4942740  41.0160153
  31.2643337  47.1119285  52.3324913  30.9446122  46.2584593  52.0399287
  30.7176765  47.3267863  53.0882881  35.0423245  49.8281726  56.0494420
  35.2609255  50.7598834  56.0682454  35.4549019  49.4689700  56.8349224
  41.9627463  40.3349811  48.0370108  41.1528191  39.9896896  48.4125354
  42.6511880  40.0257355  48.6257720  43.8918011  39.4127858  49.6594405
  44.4449050  39.8323312  50.3184428  44.1288097  38.4863606  49.7017361
  39.9151110  45.4014932  65.4397169  39.8147837  46.3509289  65.3709260
  39.6972652  45.0733171  64.5673239  39.1164182  42.6499857  42.0237846
  39.9783346  42.9754755  42.2833663  39.3014526  41.8631353  41.5110912
  31.1331597  50.7322197  54.3018035  30.4395069  50.3176149  53.7887989
  31.8804588  50.7742733  53.7051454  47.2696818  41.5228383  49.1673069
  46.6895487  42.1813187  48.7851122  47.0032751  40.7005728  48.7560487
  45.7200384  40.9233441  51.3694389  46.2200163  41.0349976  50.5608708
  46.3635992  40.6194494  52.0095198  39.7782380  48.8312071  64.2562230
  39.2949462  49.6312431  64.4626119  39.8643319  48.8420016  63.3029674
  33.0468340  50.6640450  52.1784050  33.0239028  50.7628138  51.2265933
  33.3568976  51.5105601  52.5001216  35.7055718  52.7216605  56.2930664
  36.6598971  52.6900548  56.2260596  35.5068241  52.2607229  57.1080890
  36.2955100  51.2917721  58.8601462  37.1147989  51.7861800  58.8836299
  36.5691908  50.3749690  58.8319029  46.0521696  43.6828474  48.2229417
  45.1647551  43.9678124  48.0049612  46.4675685  43.5222237  47.3756694
  49.4036232  43.7074995  51.9383757  50.1796622  44.1971447  52.2108373
  48.6784366  44.1333049  52.3955626  51.8408791  44.4202614  52.9957697
  52.4353282  44.1798350  52.2851005  51.9135374  43.7009745  53.6231234
  34.0605946  58.2636225  53.3100862  33.9260414  57.5036626  52.7438860
  33.6438009  58.9877125  52.8429651  45.1964909  53.4473148  42.3177437
  45.9000760  53.6523151  42.9335093  44.4727558  54.0149910  42.5826521
  46.0262720  49.1983010  48.4379708  45.9697921  49.6551561  47.5987340
  46.5791062  48.4373694  48.2602550  49.8367526  44.9872742  49.2629827
  49.5804460  44.5869377  50.0938035  49.2120394  45.7016535  49.1379966
  54.1479864  47.7268815  51.7701118  53.5879421  47.7962004  52.5432680
  53.5423367  47.5509799  51.0500615  37.2175072  59.1605542  53.5219305
  37.1007456  60.1050974  53.4197995  36.3967519  58.8579103  53.9105104
  47.1051607  53.8855678  44.3675897  47.9397211  53.4536876  44.1853372
  46.9435950  53.7137691  45.2952792  46.7597499  50.3887791  45.7332237
  46.7046303  50.2232062  44.7920681  46.1343554  51.0963824  45.8894426
  31.5490014  45.6255855  59.5593659  32.1948878  45.1154809  60.0480884
  31.3407165  46.3624537  60.1337084  44.0743406  52.6936703  65.0585799
  44.9434566  52.8677355  64.6972434  43.5950158  53.5131120  64.9361529
  40.0693625  39.8895900  45.3117555  40.0572294  40.8337740  45.4685826
  40.9617046  39.7066045  45.0177016  38.2429586  59.8133804  56.7375233
  39.1456833  59.8457414  57.0541728  38.0166957  58.8834255  56.7521569
  39.9983188  58.5664790  53.3985312  39.0478819  58.5666652  53.2849684
  40.3015675  57.8197525  52.8821346  43.8845744  36.4838677  49.5663492
  43.1178140  35.9297163  49.7120174  44.2956449  36.5560545  50.4277644
  35.8887505  42.7723472  63.6568673  36.7518967  42.4160277  63.8671998
  35.3152916  42.4337367  64.3444077  55.7335882  64.4025329  54.4631074
  56.3714292  64.2832076  53.7594414  55.6156725  65.3506173  54.5219026
  52.5425588  64.3552757  54.3992599  52.2044100  64.2393822  53.5113134
  53.4115356  63.9543922  54.3793605  48.4012404  66.2088233  50.3889490
  47.8377269  66.1178170  49.6205778  48.2864799  65.3888138  50.8691982
  53.0245371  65.5087609  60.3578804  53.0134012  65.1140407  59.4859308
  53.1866011  64.7753681  60.9512576  45.9476836  67.7039425  53.2273710
  46.7398128  67.3630249  52.8120010  46.1873486  67.8134400  54.1475864
  53.9811963  69.8759201  45.7003955  53.3299942  70.4613281  45.3137968
  54.7756325  70.4065396  45.7598992  47.9067590  66.9648338  46.0991089
  48.6798466  66.4177325  45.9603965  48.2592989  67.8292587  46.3105550
  49.7452632  68.2924720  59.3057988  49.4542498  69.1970351  59.1904655
  50.3809617  68.3341248  60.0202058  50.6708839  65.6701569  55.8959348
  51.2672411  65.4457591  55.1816311  50.7283811  64.9286314  56.4984796
  50.2433868  63.1241004  43.7309539  50.4959388  62.6022525  42.9693002
  49.3058427  62.9607150  43.8336223  55.2877150  62.1276783  51.5384282
  56.0740240  61.7096206  51.1874699  55.5515855  63.0322875  51.7065931
  55.4587228  67.5649633  46.2372939  54.8233061  67.6384259  46.9493844
  55.1284634  68.1543232  45.5592018  60.6885578  62.0652016  52.4417261
  61.4210750  61.4951233  52.6755090  59.9324933  61.6773616  52.8823766
  49.9630156  65.0269110  45.9333914  49.8466414  64.3514014  46.6014998
  50.0732416  64.5401484  45.1166067  52.3061697  64.4879257  49.6380603
  51.9419905  63.9609878  50.3493525  53.1628813  64.0977726  49.4647089
  58.2110998  55.7773590  56.9011869  57.8794323  56.6469001  56.6773084
  57.6156611  55.4609874  57.5805900  51.9467184  59.5169157  44.6341952
  52.1141587  60.3849393  45.0012423  51.7564353  59.6796439  43.7103241
  54.7042517  67.9786136  56.3007782  54.4043241  68.8811175  56.1923589
  54.3593577  67.7118319  57.1528935  48.1554999  64.4299933  52.3344486
  47.2305495  64.2976147  52.5422178  48.4039412  65.2094152  52.8314429
  58.1039661  60.4968676  53.9805219  57.1956539  60.4284084  53.6863980
  58.0527257  60.9740621  54.8087045  51.9256405  61.9726814  45.6188618
  51.8056030  62.4183865  46.4574099  51.2308994  62.3212132  45.0602157
  45.5163810  64.0733206  53.1688276  45.6456191  64.3267685  54.0827687
  44.8361261  64.6660914  52.8492931  49.6863297  74.7430456  49.2678750
  49.6087327  75.6938281  49.3467230  49.0824941  74.3976329  49.9253676
  52.1780527  61.9158322  61.9240117  51.4013861  62.4752242  61.9142981
  52.8171090  62.4015105  62.4454987  59.9701308  58.6985114  55.7583093
  59.3275688  58.9917648  55.1122888  59.4656236  58.5838035  56.5636290
  57.6241471  62.4448288  46.4468953  58.5359327  62.6775674  46.2716650
  57.1151118  63.0285332  45.8844031  50.4326899  64.7243775  61.4858084
  51.1741584  65.2628819  61.2092907  49.7263885  65.3510064  61.6429635
  55.9082239  66.8672915  60.0830245  56.3165595  66.4255326  59.3384877
  55.1859500  66.2925543  60.3364438  52.2613309  61.8045522  57.4563802
  53.1074504  62.2284936  57.5998451  52.2011947  61.1479147  58.1502365
  56.2311054  67.4274106  53.8382534  55.6019916  67.5919820  53.1358602
  55.8436716  67.8415716  54.6093498  60.1100286  68.3628544  51.1926898
  59.4251324  68.7427445  50.6423931  60.1944135  68.9723871  51.9258846
  55.4112754  59.4649891  59.1144976  55.1673686  60.2191951  58.5779251
  55.6872685  59.8435238  59.9492223  57.3651217  66.0088503  57.7922241
  57.5768112  66.6520263  57.1156622  57.3180965  65.1750820  57.3244171
  54.9677446  58.6206324  54.6958813  54.1061925  58.9187577  54.9875551
  54.9939881  58.8376723  53.7639846  51.7839016  67.1648514  51.1032619
  52.2477361  67.4436217  50.3137242  51.5195814  66.2631959  50.9205710
  48.6763097  66.7119996  54.0412382  49.2464454  67.1407264  53.4029867
  49.2671208  66.4302580  54.7396568  50.7207902  63.2871667  47.9122184
  51.4231945  63.7392710  48.3796111  50.3888530  62.6455485  48.5402077
  49.1688263  61.8783423  62.2873394  48.5386924  62.5599704  62.5208790
  49.0624351  61.7666505  61.3426532  44.4633236  61.5455219  53.2139318
  43.6732290  61.8012748  52.7379428  44.9544483  62.3603557  53.3191358
  58.4797045  68.8860458  55.9644599  59.3014489  68.4840646  55.6827280
  58.4759448  68.7828693  56.9160714  46.4147981  61.9099798  50.1722795
  45.6179144  62.0218493  50.6906290  46.1873573  62.2486451  49.3063685
  52.2453649  68.4344502  58.1205309  52.3098081  68.8964909  58.9563481
  51.5364572  67.8041867  58.2487619  42.7470939  61.7985710  55.6454309
  42.9978977  62.6832720  55.9111885  43.2830487  61.6190311  54.8729400
  66.5703038  65.2299207  52.3129570  65.8166747  64.6606605  52.1573575
  66.7050579  65.1961871  53.2600205  51.9601666  70.1012609  47.9884289
  51.8247341  70.9464145  48.4169137  52.5011479  70.3031887  47.2250223
  48.4469006  56.1804189  64.6498645  48.0535951  55.6270388  65.3246289
  49.2635146  56.4914767  65.0405162  45.4131064  67.6188047  48.5612215
  45.9255584  68.4131297  48.7117779  46.0653776  66.9214338  48.4945816
  47.2225948  70.7353803  50.6434968  47.3992577  71.6571768  50.4555952
  48.0182782  70.4212223  51.0729348  51.3636967  57.5962068  62.2418901
  52.1046680  58.1969221  62.1623364  51.5954890  56.8539706  61.6836944
  46.5078305  62.7818435  60.5197131  46.3931820  61.8803693  60.8204230
  45.6522823  63.0282132  60.1681947  53.5870143  70.7236176  62.1184632
  53.1433997  69.9372554  61.8005536  54.2487356  70.9115326  61.4528522
  48.3457264  72.2531977  56.6445310  48.8964689  72.1249041  55.8722304
  47.5068740  72.5526866  56.2940203  55.6851381  71.0038976  60.1466033
  55.6669856  71.8247857  59.6546302  56.6071301  70.8793051  60.3716174
  52.1424435  68.5183105  60.9889541  52.6752772  67.7571393  60.7588849
  51.6138516  68.2256757  61.7313696  55.3094130  53.6243171  56.5183183
  54.9658399  54.5144813  56.4422294  55.6773092  53.4344829  55.6552768
  43.3779980  65.9476702  49.3371785  44.2155202  66.3573710  49.1205493
  43.5558248  65.0076144  49.3071979  55.2744412  63.6151782  45.0255618
  54.7591036  64.3856387  45.2644005  55.0021721  62.9416918  45.6488679
  52.8591524  58.4601483  50.0840856  52.0033120  58.0708333  49.9046495
  53.2718475  58.5393444  49.2240642  54.3890670  55.9947826  54.4832416
  53.8855466  55.9577961  53.6700221  54.6821277  56.9040569  54.5429073
  50.6333556  56.0786556  53.4898598  51.4986553  55.8829365  53.1304487
  50.7011065  55.8496908  54.4167955  60.2478687  66.3684137  46.9608792
  59.4708129  66.0295296  46.5163954  60.9270168  66.3736760  46.2863757
  55.0630716  61.4878874  46.8515399  54.7580851  61.8025023  47.7025542
  56.0161158  61.5660294  46.8942732  53.5077147  67.6469098  48.5008353
  52.9798509  66.9121857  48.1881591  53.0064650  68.4243774  48.2548322
  58.4869994  65.8418118  53.6175400  57.8293668  66.5317379  53.7055528
  59.2910393  66.2314550  53.9609386  48.2395875  58.3088764  50.8614965
  48.8139627  58.0863945  50.1288158  48.8266858  58.3777458  51.6143566
  57.2975452  64.1962491  51.6679341  57.8107334  64.8292483  52.1701051
  57.9476676  63.5963686  51.3022701  48.5665462  60.3393225  44.8810850
  47.7302774  60.6767911  45.2020125  48.4270232  60.2042205  43.9437987
  50.5418543  55.1830013  49.5890034  49.8882955  54.8679030  48.9646649
  50.4999017  54.5605753  50.3149857  51.6529748  65.4649308  41.5043326
  50.7456809  65.2338561  41.7034475  52.1500780  64.6686927  41.6917308
  54.5597827  74.1746815  44.4240012  53.8859525  74.4778512  45.0324970
  54.9463649  74.9775895  44.0745469  53.7756283  61.6711946  53.9137682
  52.8578845  61.8926893  53.7559370  54.1916427  61.7458257  53.0549389
  54.5591331  63.0703362  49.0440362  55.3063150  63.5824759  48.7347484
  54.8282920  62.7487415  49.9044756  52.8317981  65.5661903  46.0267316
  51.9229200  65.2820936  46.1239786  52.8613065  65.9860981  45.1670623
  58.0637249  69.1768492  49.7958484  57.6099576  68.3359402  49.8523674
  57.4331215  69.8129891  50.1333264  57.0070168  60.1060478  51.0259151
  56.2692925  59.5937864  51.3569394  57.2596942  59.6660860  50.2142428
  56.5070188  71.0144989  50.7308302  56.7993162  71.5750046  50.0120668
  57.0168808  71.3073550  51.4861461  57.1081795  52.8836730  51.6200921
  57.4140672  52.0234094  51.3326836  57.8334400  53.4754350  51.4199915
  43.4006151  63.2867417  50.0082519  43.2030551  62.6936778  49.2833585
  42.8452815  62.9819627  50.7258457  51.3802875  63.1790523  52.1277112
  51.4351485  62.2264360  52.0519588  50.5694077  63.3349962  52.6118410
  52.5294069  67.1070646  43.3655395  52.0913499  66.3906505  42.9061032
  53.2704510  67.3346761  42.8040486  49.3195235  61.7967583  49.8867491
  48.5063101  62.0961754  50.2932683  49.8154229  61.4023272  50.6041973
  51.4703813  71.7925340  51.8201755  51.4279992  72.0186186  50.8910287
  52.3866512  71.5588715  51.9687556  54.9169447  62.2609408  58.7182384
  55.2718834  62.4880881  59.5776850  55.5641578  62.5927784  58.0959640
  60.6467184  65.3827843  49.4231713  60.5085082  65.5729439  48.4952903
  60.2903403  66.1447226  49.8799765  48.8109310  59.3685939  55.5028725
  49.4508689  59.2274698  54.8051689  47.9786840  59.0820452  55.1267327
  60.6736563  67.4504370  54.4342985  61.1073070  67.3579660  55.2826039
  61.3868144  67.4261871  53.7963001  49.5869614  68.6688369  51.6163718
  50.3810212  68.1738689  51.4146293  48.8761306  68.1406232  51.2531424
  54.4064458  71.0506465  55.9676086  54.4601480  71.6197401  56.7353801
  53.5379240  71.2208350  55.6030123  45.8952377  62.8131451  47.6923471
  44.9649965  62.7515906  47.9093433  45.9909849  62.2907403  46.8960112
  45.8137926  59.3386264  50.2801712  46.0744744  60.2531597  50.1710873
  46.6355099  58.8710706  50.4298325  47.2862852  60.7524021  57.4500537
  47.9585905  60.5441383  56.8013186  46.4592638  60.5546107  57.0105769
  61.5352113  67.4928071  56.9675870  61.7288003  68.3973882  57.2135145
  61.4352731  67.0335490  57.8014455  53.1888424  57.3785962  59.4666198
  52.5416339  58.0775911  59.3730674  53.9589439  57.8122106  59.8342446
  56.5967222  67.6434814  62.5416751  56.4452728  67.4145366  61.6246835
  56.5871901  68.6005415  62.5548096  53.3652558  65.2166727  57.5263017
  54.2944618  65.3677886  57.3531985  52.9443588  65.3050747  56.6711664
  52.1640890  69.2417391  55.2961555  52.0251975  68.8736175  56.1687493
  51.3755486  69.7565030  55.1245513  52.7589042  74.3426487  46.6387092
  52.9340797  73.8714531  47.4532714  52.0721830  74.9692254  46.8668352
  53.7146105  68.6198994  52.6850393  53.3795937  68.5799764  53.5808043
  53.2150051  67.9543710  52.2120803  47.6890349  64.0266624  58.2102974
  47.5510147  63.2946863  58.8114513  48.5995272  63.9375524  57.9287162
  56.6505297  65.9655028  42.9587452  56.0334467  65.2401856  42.8620505
  56.1821785  66.7264388  42.6154527  50.3172650  63.7386583  57.6986654
  51.0272268  63.0979775  57.6573272  50.2741958  63.9899478  58.6212834
  58.3059428  70.6753936  60.6193233  58.2471974  69.9913157  59.9523816
  58.7078947  71.4172926  60.1673859  49.0301583  60.7251801  59.5182293
  48.4938940  60.2742539  60.1703889  48.4418292  60.8597710  58.7752757
  47.3250127  77.4915850  53.4126952  47.5646725  78.1234374  54.0905970
  46.4819323  77.1403890  53.6992311  48.4403842  60.1840452  42.0808757
  47.5633309  60.0629253  41.7171003  48.9161596  59.3926531  41.8287645
  58.3076835  68.6393520  58.8507213  57.4203614  68.3019442  58.9733611
  58.8775387  67.9076552  59.0875978  39.9605983  64.9717612  52.1750264
  40.6477022  64.6579342  51.5871279  39.8054111  65.8758977  51.9017515
  44.7640705  59.8607809  56.6035288  44.6798893  59.2533478  55.8685698
  43.9423411  60.3516827  56.6044784  51.8377989  73.2994973  55.8168456
  51.7648160  74.1049944  56.3287760  51.3955382  73.4986938  54.9916477
  51.6267768  72.5366743  49.3271277  50.8435290  73.0788423  49.4209502
  52.3260514  73.0540722  49.7265518  54.9364419  58.3461372  51.9705483
  55.4333118  57.5931334  51.6506553  54.1651400  58.3825689  51.4048692
  62.7894176  64.0501738  53.6123774  62.7784052  64.9326453  53.2417707
  61.9211555  63.6973289  53.4178311  54.2976672  73.1981807  57.9726614
  55.0104645  73.8329272  57.9002516  53.8066701  73.2945673  57.1566616
  56.0194199  67.1033059  49.5443906  55.0850478  67.2234522  49.3748610
  56.1970868  66.2005526  49.2803916  51.5199387  60.4878755  51.6977167
  51.1497175  59.9349796  52.3858073  52.0158480  59.8836889  51.1452167
  59.4066751  62.9450379  50.0793940  59.8727203  63.7778370  50.0054243
  59.8574251  62.4795360  50.7839199  49.3488586  70.9476250  58.7932185
  50.0498045  71.5812733  58.9461579  48.8783701  71.2890982  58.0327824
  57.4742982  69.2894200  47.0780092  57.7502826  69.1750795  47.9873966
  56.6047480  68.8911685  47.0392265  57.3783413  55.3130966  54.1184842
  56.4646493  55.5435192  54.2867048  57.8076515  55.3969410  54.9698874
  57.1489872  63.5020858  56.6184736  56.4961322  63.7496765  55.9637188
  57.5270252  62.6884996  56.2847213  54.1097046  73.5380551  50.7212906
  54.2919440  72.7202207  51.1840658  54.9330032  73.7548243  50.2837796
  54.4439211  72.4648736  47.9827954  54.9726978  71.9541190  47.3698116
  54.7067431  72.1491266  48.8473487  53.1977445  64.2440669  63.1050773
  52.5218082  64.1434798  63.7753148  54.0205079  64.0879882  63.5686770
  44.9456304  70.4812605  55.7263288  45.5309741  69.7356293  55.8591192
  44.7481142  70.7916562  56.6099952  47.7994959  73.5163853  50.7425730
  47.1305334  74.0009980  50.2589770  47.6607829  73.7633073  51.6569109
  39.5373959  63.0518205  54.4467731  39.5758058  62.5181796  55.2404849
  39.0314252  62.5253411  53.8278708  51.9400228  75.5507596  57.3408389
  52.4918536  75.7139218  58.1057474  52.2806421  76.1412034  56.6688413
  46.9164721  57.8982746  57.9430273  46.9806047  58.7597577  57.5307671
  46.8531841  57.2856748  57.2102632  46.3916994  59.9705878  61.5903308
  47.0189032  59.5882956  62.2040832  45.5344912  59.7520080  61.9559000
  56.7911102  70.3768854  63.1957043  57.3351006  70.9898812  62.7011998
  56.2097947  70.9348432  63.7124056  43.1682536  61.7782308  47.5221662
  43.4635977  60.8692986  47.4688716  42.2670572  61.7570047  47.2002665
  55.0768615  73.4989572  54.3272071  54.9519754  72.6979311  53.8183016
  55.7347706  73.9935765  53.8386041  46.6976783  59.8538304  53.5049211
  45.9763369  60.4674272  53.3656684  47.4870039  60.3896069  53.4265857
  57.1403523  71.2998592  55.9551621  56.1933859  71.1803943  55.8829948
  57.4886297  70.4121090  56.0377882  49.5003097  57.1892731  59.7789863
  50.0237499  57.4355027  60.5416172  49.2815430  58.0212765  59.3593000
  44.8970378  59.4596405  47.6460988  44.5683084  58.5793784  47.4636093
  45.2509749  59.4044074  48.5337377  54.1449957  71.0951308  52.1555973
  53.9974919  70.1668015  52.3363543  54.9703450  71.1171399  51.6713048
  48.0112201  59.7469375  48.0136465  48.3508274  60.2755296  47.2915074
  48.4584321  60.0849781  48.7895032  57.7484079  71.9179867  53.2420846
  58.6730626  71.7122728  53.1045297  57.5799382  71.6696268  54.1510187
  50.7055642  58.1306426  57.4639533  50.3652462  57.3314239  57.8660213
  49.9994648  58.4308137  56.8916366  51.3572114  55.2155738  55.9166856
  52.1798183  54.7416216  55.7945747  51.6010177  55.9946222  56.4165543
  49.9980348  58.2443997  46.2129758  50.7188711  58.6225249  45.7093475
  49.3745652  58.9632873  46.3164736  54.1411471  58.9489146  47.1488090
  54.3575085  59.8313783  46.8476919  53.6605538  58.5575359  46.4193732
  48.8810692  61.9074859  53.7258835  48.7355273  62.2215162  54.6183116
  48.4035896  62.5259759  53.1729734  50.7407075  58.8977407  53.7739724
  50.7268644  58.0018500  53.4372022  51.4579503  58.9048071  54.4078011
  52.5933206  59.3314747  55.8192852  52.3350984  60.2531818  55.8177182
  52.0618246  58.9345182  56.5093316  57.5379395  72.4365534  48.5982937
  57.7116272  71.8711957  47.8456790  58.0308286  73.2366429  48.4162427
  43.3556355  64.4480203  56.6646496  42.8109823  65.2240011  56.7966770
  44.2335704  64.7951008  56.5065618  50.1443971  57.7791787  49.0427295
  50.2659882  56.8508433  49.2418182  49.8546014  57.7930473  48.1305610
  53.0135162  55.4646698  52.1794014  53.0356858  55.5286031  51.2245994
  53.4303221  54.6251206  52.3734521  63.3918786  65.2001957  50.2173237
  63.8349932  64.4509282  49.8192360  62.5145296  65.1912093  49.8346969
  58.5254567  71.7532299  45.6979836  59.2205472  72.3738991  45.9167150
  58.8677717  70.9027650  45.9732213  44.1422376  63.5750099  59.5576653
  43.4004112  63.7232735  60.1441283  43.8215121  63.8358365  58.6943402
  60.4245990  69.2032004  47.2267166  60.9497314  69.5419277  46.5016486
  60.3368343  68.2679019  47.0430301  52.0866039  73.1166078  59.3557043
  52.3953166  72.8715224  60.2279743  52.8841521  73.3212716  58.8675913
  52.1086651  75.2703987  51.5862420  51.6691641  74.7780366  52.2795276
  52.8594768  74.7276955  51.3454495  44.5878990  71.4615528  51.5887048
  45.4137010  71.1619300  51.2085691  44.2373042  70.6923151  52.0376836
  49.5560523  70.8141996  53.6584721  48.9340533  70.1512701  53.3586949
  50.2265390  70.8403128  52.9758369  42.7887595  69.3801855  52.5475981
  41.9519503  68.9524029  52.3659982  42.7611241  69.5734298  53.4846772
  49.6285051  59.2923784  63.2517227  49.6773206  60.1685907  62.8694997
  50.1707565  58.7501177  62.6788870  60.1139896  69.8364908  62.5318364
  59.3235440  69.8189047  61.9922864  59.8773251  70.3753201  63.2867401
  60.2337772  66.6857374  59.8451093  60.2835776  66.5207382  60.7866616
  60.1251695  65.8184633  59.4548974  49.1174030  69.3645920  47.1343182
  49.2662151  70.0481384  46.4809854  49.9240474  69.3451010  47.6492637
  57.5241534  62.6688302  61.1610400  58.4251397  62.5294767  60.8694397
  57.5989508  62.8342757  62.1008577  51.8584339  60.0455157  60.0063586
  50.9887649  60.3388723  59.7346174  52.0943820  60.6295602  60.7270850
  61.7355968  69.1054316  60.0893114  61.4440777  69.4684296  60.9256575
  61.1228100  68.3921324  59.9106446  62.9351651  66.6707195  52.6095685
  63.7698542  67.1096999  52.7733245  63.0710779  66.1945849  51.7903930
  59.9843157  64.2286930  58.5573172  60.4597278  64.4214577  57.7492024
  59.0608722  64.2846116  58.3116556  46.8726663  65.3911097  48.1404251
  46.6272705  64.4873427  48.3384461  47.0422578  65.3928248  47.1983729
  54.5623373  56.2634774  57.5229006  55.0805317  56.9995801  57.1975495
  54.2078506  56.5698767  58.3575765  46.1422311  61.1239455  45.6390412
  45.4491556  61.1983810  44.9830448  45.8974063  60.3599799  46.1611929
  54.8135967  52.6835056  53.0429903  55.0937721  52.0158245  53.6690329
  55.5986574  52.8764152  52.5304567  52.6169436  71.8594050  44.6054929
  52.0443403  72.4784237  44.1525401  53.1902229  72.4093412  45.1394851
  58.6844826  61.1052690  56.7901478  59.6362248  61.2050788  56.8113702
  58.5148276  60.3130959  57.2999562  56.7059205  58.1908274  56.9760879
  56.1109137  58.4713286  56.2807368  56.4208902  58.6802174  57.7477620
  55.8366696  72.1431200  45.7363511  56.7697369  72.0776762  45.9396387
  55.7489908  72.9787467  45.2778044  58.4654712  71.4597071  42.6967459
  58.3868344  71.1256934  43.5903217  59.2864379  71.9518839  42.6958931
  61.1632903  64.3258810  55.9043778  61.1309223  63.3874811  56.0903461
  61.7733527  64.4042847  55.1709603  53.0016234  63.1954863  41.9470982
  53.9475339  63.0661071  42.0159400  52.6230479  62.4569525  42.4240410
  61.3127392  61.1169853  55.9502061  60.7966440  60.3328310  55.7631990
  62.1967340  60.7888570  56.1148580  58.9738119  54.8610869  51.9097873
  58.7762940  54.5525957  52.7941205  59.5837824  55.5872508  52.0395803
  66.9809453  65.3874817  55.0449814  67.7112842  65.1260105  55.6057518
  66.3716399  64.6503539  55.0851882  65.0624750  63.5282679  55.6424266
  64.3357914  63.3938644  55.0340757  64.6472037  63.8359508  56.4480984
  52.8854927  67.2472609  63.4071639  53.8057936  67.4251208  63.6011685
  52.8504510  66.3028654  63.2551338  51.1859151  61.1204839  41.8825867
  50.2790607  60.8237952  41.9588581  51.4635132  60.8234657  41.0160153
  42.1037092  62.4411203  52.3324913  41.7839876  61.5876511  52.0399287
  41.5570520  62.6559781  53.0882881  45.8816999  65.1573644  56.0494420
  46.1003009  66.0890752  56.0682454  46.2942773  64.7981618  56.8349224
  52.8021217  55.6641729  48.0370108  51.9921945  55.3188814  48.4125354
  53.4905634  55.3549273  48.6257720  54.7311765  54.7419776  49.6594405
  55.2842804  55.1615229  50.3184428  54.9681852  53.8155524  49.7017361
  50.7544865  60.7306850  65.4397169  50.6541592  61.6801206  65.3709260
  50.5366407  60.4025088  64.5673239  49.9557936  57.9791775  42.0237846
  50.8177100  58.3046673  42.2833663  50.1408280  57.1923270  41.5110912
  41.9725352  66.0614114  54.3018035  41.2788823  65.6468067  53.7887989
  42.7198343  66.1034651  53.7051454  58.1090572  56.8520301  49.1673069
  57.5289242  57.5105105  48.7851122  57.8426505  56.0297646  48.7560487
  56.5594139  56.2525359  51.3694389  57.0593917  56.3641893  50.5608708
  57.2029747  55.9486412  52.0095198  50.6176135  64.1603988  64.2562230
  50.1343216  64.9604348  64.4626119  50.7037074  64.1711933  63.3029674
  43.8862094  65.9932368  52.1784050  43.8632782  66.0920055  51.2265933
  44.1962731  66.8397519  52.5001216  46.5449472  68.0508523  56.2930664
  47.4992726  68.0192465  56.2260596  46.3461996  67.5899147  57.1080890
  47.1348854  66.6209639  58.8601462  47.9541743  67.1153718  58.8836299
  47.4085662  65.7041607  58.8319029  56.8915450  59.0120391  48.2229417
  56.0041306  59.2970042  48.0049612  57.3069440  58.8514155  47.3756694
  60.2429987  59.0366912  51.9383757  61.0190377  59.5263365  52.2108373
  59.5178121  59.4624967  52.3955626  62.6802545  59.7494532  52.9957697
  63.2747036  59.5090268  52.2851005  62.7529129  59.0301662  53.6231234
  44.8999701  73.5928143  53.3100862  44.7654169  72.8328543  52.7438860
  44.4831763  74.3169042  52.8429651  56.0358664  68.7765066  42.3177437
  56.7394514  68.9815069  42.9335093  55.3121313  69.3441828  42.5826521
  56.8656474  64.5274927  48.4379708  56.8091676  64.9843479  47.5987340
  57.4184817  63.7665612  48.2602550  60.6761280  60.3164659  49.2629827
  60.4198214  59.9161295  50.0938035  60.0514148  61.0308453  49.1379966
  64.9873618  63.0560732  51.7701118  64.4273176  63.1253922  52.5432680
  64.3817121  62.8801717  51.0500615  48.0568827  74.4897460  53.5219305
  47.9401211  75.4342892  53.4197995  47.2361273  74.1871021  53.9105104
  57.9445361  69.2147595  44.3675897  58.7790965  68.7828794  44.1853372
  57.7829704  69.0429609  45.2952792  57.5991254  65.7179709  45.7332237
  57.5440057  65.5523980  44.7920681  56.9737309  66.4255742  45.8894426
  42.3883769  60.9547773  59.5593659  43.0342632  60.4446727  60.0480884
  42.1800920  61.6916455  60.1337084  54.9137161  68.0228620  65.0585799
  55.7828320  68.1969273  64.6972434  54.4343912  68.8423037  64.9361529
  50.9087379  55.2187818  45.3117555  50.8966049  56.1629658  45.4685826
  51.8010801  55.0357963  45.0177016  49.0823341  75.1425721  56.7375233
  49.9850588  75.1749332  57.0541728  48.8560711  74.2126172  56.7521569
  50.8376943  73.8956708  53.3985312  49.8872574  73.8958570  53.2849684
  51.1409429  73.1489443  52.8821346  54.7239498  51.8130594  49.5663492
  53.9571894  51.2589081  49.7120174  55.1350203  51.8852463  50.4277644
  46.7281260  58.1015390  63.6568673  47.5912721  57.7452195  63.8671998
  46.1546670  57.7629285  64.3444077  63.3819343  79.6844675  54.3992599
  63.0437854  79.5685739  53.5113134  64.2509111  79.2835840  54.3793605
  59.2406158  81.5380151  50.3889490  58.6771024  81.4470088  49.6205778
  59.1258553  80.7180055  50.8691982  63.8639126  80.8379526  60.3578804
  63.8527766  80.4432324  59.4859308  64.0259765  80.1045599  60.9512576
  56.7870590  83.0331343  53.2273710  57.5791882  82.6922167  52.8120010
  57.0267241  83.1426318  54.1475864  64.8205717  85.2051119  45.7003955
  64.1693697  85.7905199  45.3137968  65.6150080  85.7357314  45.7598992
  58.7461344  82.2940256  46.0991089  59.5192220  81.7469243  45.9603965
  59.0986743  83.1584505  46.3105550  60.5846387  83.6216638  59.3057988
  60.2936253  84.5262269  59.1904655  61.2203371  83.6633166  60.0202058
  61.5102594  80.9993487  55.8959348  62.1066166  80.7749509  55.1816311
  61.5677565  80.2578232  56.4984796  61.0827622  78.4532922  43.7309539
  61.3353143  77.9314443  42.9693002  60.1452181  78.2899067  43.8336223
  66.1270905  77.4568700  51.5384282  66.9133994  77.0388123  51.1874699
  66.3909609  78.3614792  51.7065931  66.2980982  82.8941551  46.2372939
  65.6626815  82.9676177  46.9493844  65.9678389  83.4835149  45.5592018
  60.8023911  80.3561028  45.9333914  60.6860169  79.6805931  46.6014998
  60.9126171  79.8693402  45.1166067  69.0504752  71.1065508  56.9011869
  68.7188077  71.9760919  56.6773084  68.4550366  70.7901792  57.5805900
  62.7860939  74.8461075  44.6341952  62.9535341  75.7141311  45.0012423
  62.5958108  75.0088356  43.7103241  58.9948753  79.7591850  52.3344486
  58.0699250  79.6268064  52.5422178  59.2433167  80.5386070  52.8314429
  62.7650160  77.3018732  45.6188618  62.6449785  77.7475783  46.4574099
  62.0702748  77.6504050  45.0602157  56.3557564  79.4025124  53.1688276
  56.4849946  79.6559603  54.0827687  55.6755016  79.9952832  52.8492931
  60.5257052  90.0722374  49.2678750  60.4481081  91.0230199  49.3467230
  59.9218695  89.7268246  49.9253676  63.0174282  77.2450239  61.9240117
  62.2407616  77.8044159  61.9142981  63.6564845  77.7307022  62.4454987
  68.4635226  77.7740205  46.4468953  69.3753082  78.0067592  46.2716650
  67.9544873  78.3577250  45.8844031  61.2720654  80.0535693  61.4858084
  62.0135338  80.5920737  61.2092907  60.5657639  80.6801981  61.6429635
  63.1007064  77.1337440  57.4563802  63.9468259  77.5576853  57.5998451
  63.0405701  76.4771064  58.1502365  66.2506509  74.7941808  59.1144976
  66.0067441  75.5483869  58.5779251  66.5266439  75.1727156  59.9492223
  65.8071201  73.9498241  54.6958813  64.9455680  74.2479495  54.9875551
  65.8333635  74.1668640  53.7639846  59.5156851  82.0411913  54.0412382
  60.0858208  82.4699182  53.4029867  60.1064963  81.7594498  54.7396568
  61.5601656  78.6163584  47.9122184  62.2625699  79.0684628  48.3796111
  61.2282285  77.9747403  48.5402077  60.0082018  77.2075341  62.2873394
  59.3780678  77.8891622  62.5208790  59.9018105  77.0958422  61.3426532
  55.3026990  76.8747137  53.2139318  54.5126044  77.1304665  52.7379428
  55.7938237  77.6895475  53.3191358  57.2541735  77.2391716  50.1722795
  56.4572899  77.3510410  50.6906290  57.0267328  77.5778368  49.3063685
  53.5864693  77.1277627  55.6454309  53.8372731  78.0124637  55.9111885
  54.1224241  76.9482229  54.8729400  59.2862760  71.5096107  64.6498645
  58.8929706  70.9562305  65.3246289  60.1028901  71.8206685  65.0405162
  56.2524818  82.9479965  48.5612215  56.7649339  83.7423215  48.7117779
  56.9047531  82.2506255  48.4945816  58.0619703  86.0645721  50.6434968
  58.2386331  86.9863686  50.4555952  58.8576536  85.7504140  51.0729348
  62.2030721  72.9253986  62.2418901  62.9440435  73.5261139  62.1623364
  62.4348644  72.1831624  61.6836944  57.3472059  78.1110353  60.5197131
  57.2325574  77.2095610  60.8204230  56.4916577  78.3574050  60.1681947
  64.4263897  86.0528093  62.1184632  63.9827751  85.2664472  61.8005536
  65.0881111  86.2407244  61.4528522  59.1851018  87.5823895  56.6445310
  59.7358443  87.4540958  55.8722304  58.3462494  87.8818784  56.2940203
  62.9818189  83.8475023  60.9889541  63.5146526  83.0863311  60.7588849
  62.4532270  83.5548675  61.7313696  66.1487884  68.9535089  56.5183183
  65.8052154  69.8436730  56.4422294  66.5166847  68.7636746  55.6552768
  54.2173735  81.2768619  49.3371785  55.0548957  81.6865628  49.1205493
  54.3952003  80.3368061  49.3071979  66.1138167  78.9443700  45.0255618
  65.5984790  79.7148304  45.2644005  65.8415475  78.2708836  45.6488679
  63.6985278  73.7893401  50.0840856  62.8426874  73.4000251  49.9046495
  64.1112230  73.8685361  49.2240642  65.2284425  71.3239744  54.4832416
  64.7249220  71.2869879  53.6700221  65.5215031  72.2332487  54.5429073
  61.4727311  71.4078474  53.4898598  62.3380307  71.2121282  53.1304487
  61.5404819  71.1788825  54.4167955  65.9024470  76.8170792  46.8515399
  65.5974606  77.1316941  47.7025542  66.8554912  76.8952212  46.8942732
  59.0789630  73.6380682  50.8614965  59.6533381  73.4155863  50.1288158
  59.6660612  73.7069376  51.6143566  59.4059217  75.6685143  44.8810850
  58.5696529  76.0059829  45.2020125  59.2663986  75.5334122  43.9437987
  61.3812297  70.5121930  49.5890034  60.7276710  70.1970948  48.9646649
  61.3392771  69.8897671  50.3149857  62.4923502  80.7941226  41.5043326
  61.5850564  80.5630479  41.7034475  62.9894534  79.9978845  41.6917308
  65.3991581  89.5038733  44.4240012  64.7253280  89.8070429  45.0324970
  65.7857403  90.3067813  44.0745469  64.6150038  77.0003864  53.9137682
  63.6972599  77.2218811  53.7559370  65.0310181  77.0750174  53.0549389
  63.6711736  80.8953820  46.0267316  62.7622955  80.6112853  46.1239786
  63.7006819  81.3152899  45.1670623  67.8463923  75.4352396  51.0259151
  67.1086679  74.9229782  51.3569394  68.0990696  74.9952778  50.2142428
  67.9475550  68.2128648  51.6200921  68.2534427  67.3526011  51.3326836
  68.6728155  68.8046268  51.4199915  54.2399906  78.6159335  50.0082519
  54.0424306  78.0228695  49.2833585  53.6846570  78.3111545  50.7258457
  62.2196630  78.5082441  52.1277112  62.2745239  77.5556277  52.0519588
  61.4087832  78.6641880  52.6118410  63.3687823  82.4362564  43.3655395
  62.9307253  81.7198423  42.9061032  64.1098264  82.6638679  42.8040486
  60.1588990  77.1259501  49.8867491  59.3456855  77.4253671  50.2932683
  60.6547984  76.7315190  50.6041973  62.3097567  87.1217258  51.8201755
  62.2673746  87.3478104  50.8910287  63.2260266  86.8880632  51.9687556
  65.7563201  77.5901325  58.7182384  66.1112589  77.8172798  59.5776850
  66.4035332  77.9219702  58.0959640  59.6503064  74.6977856  55.5028725
  60.2902444  74.5566615  54.8051689  58.8180595  74.4112370  55.1267327
  60.4263368  83.9980287  51.6163718  61.2203967  83.5030607  51.4146293
  59.7155061  83.4698150  51.2531424  56.7346132  78.1423368  47.6923471
  55.8043720  78.0807824  47.9093433  56.8303604  77.6199321  46.8960112
  56.6531681  74.6678181  50.2801712  56.9138498  75.5823514  50.1710873
  57.4748853  74.2002624  50.4298325  58.1256606  76.0815938  57.4500537
  58.7979659  75.8733301  56.8013186  57.2986393  75.8838024  57.0105769
  64.0282178  72.7077879  59.4666198  63.3810093  73.4067829  59.3730674
  64.7983193  73.1414023  59.8342446  64.2046312  80.5458644  57.5263017
  65.1338372  80.6969804  57.3531985  63.7837342  80.6342665  56.6711664
  63.0034644  84.5709309  55.2961555  62.8645730  84.2028093  56.1687493
  62.2149240  85.0856948  55.1245513  63.5982796  89.6718405  46.6387092
  63.7734552  89.2006448  47.4532714  62.9115584  90.2984171  46.8668352
  58.5284103  79.3558541  58.2102974  58.3903901  78.6238780  58.8114513
  59.4389027  79.2667441  57.9287162  67.4899051  81.2946946  42.9587452
  66.8728222  80.5693774  42.8620505  67.0215539  82.0556306  42.6154527
  61.1566404  79.0678501  57.6986654  61.8666023  78.4271693  57.6573272
  61.1135712  79.3191396  58.6212834  59.8695338  76.0543719  59.5182293
  59.3332695  75.6034457  60.1703889  59.2812046  76.1889627  58.7752757
  58.1643881  92.8207768  53.4126952  58.4040480  93.4526292  54.0905970
  57.3213078  92.4695808  53.6992311  59.2797597  75.5132370  42.0808757
  58.4027063  75.3921171  41.7171003  59.7555350  74.7218448  41.8287645
  50.7999737  80.3009530  52.1750264  51.4870777  79.9871260  51.5871279
  50.6447866  81.2050894  51.9017515  55.6034459  75.1899726  56.6035288
  55.5192648  74.5825396  55.8685698  54.7817166  75.6808745  56.6044784
  62.6771743  88.6286890  55.8168456  62.6041915  89.4341862  56.3287760
  62.2349136  88.8278856  54.9916477  62.4661523  87.8658660  49.3271277
  61.6829045  88.4080341  49.4209502  63.1654268  88.3832640  49.7265518
  65.7758173  73.6753290  51.9705483  66.2726873  72.9223252  51.6506553
  65.0045155  73.7117606  51.4048692  62.3593142  75.8170673  51.6977167
  61.9890929  75.2641713  52.3858073  62.8552234  75.2128806  51.1452167
  70.2460505  78.2742296  50.0793940  70.7120957  79.1070288  50.0054243
  70.6968006  77.8087278  50.7839199  60.1882340  86.2768168  58.7932185
  60.8891800  86.9104651  58.9461579  59.7177455  86.6182899  58.0327824
  68.2177168  70.6422883  54.1184842  67.3040248  70.8727110  54.2867048
  68.6470269  70.7261327  54.9698874  64.0371199  79.5732586  63.1050773
  63.3611836  79.4726716  63.7753148  64.8598833  79.4171800  63.5686770
  55.7850058  85.8104523  55.7263288  56.3703495  85.0648211  55.8591192
  55.5874897  86.1208480  56.6099952  58.6388714  88.8455770  50.7425730
  57.9699089  89.3301898  50.2589770  58.5001583  89.0924991  51.6569109
  50.3767713  78.3810123  54.4467731  50.4151813  77.8473714  55.2404849
  49.8708006  77.8545329  53.8278708  62.7793982  90.8799514  57.3408389
  63.3312290  91.0431135  58.1057474  63.1200176  91.4703952  56.6688413
  57.7558475  73.2274664  57.9430273  57.8199802  74.0889494  57.5307671
  57.6925596  72.6148665  57.2102632  57.2310748  75.2997796  61.5903308
  57.8582787  74.9174873  62.2040832  56.3738667  75.0811998  61.9559000
  54.0076291  77.1074225  47.5221662  54.3029732  76.1984904  47.4688716
  53.1064327  77.0861965  47.2002665  57.5370538  75.1830222  53.5049211
  56.8157124  75.7966190  53.3656684  58.3263794  75.7187987  53.4265857
  60.3396851  72.5184648  59.7789863  60.8631253  72.7646945  60.5416172
  60.1209185  73.3504683  59.3593000  55.7364132  74.7888323  47.6460988
  55.4076839  73.9085702  47.4636093  56.0903503  74.7335992  48.5337377
  58.8505956  75.0761293  48.0136465  59.1902028  75.6047214  47.2915074
  59.2978076  75.4141699  48.7895032  61.5449396  73.4598343  57.4639533
  61.2046217  72.6606156  57.8660213  60.8388403  73.7600054  56.8916366
  62.1965868  70.5447656  55.9166856  63.0191937  70.0708134  55.7945747
  62.4403932  71.3238140  56.4165543  60.8374103  73.5735914  46.2129758
  61.5582465  73.9517167  45.7093475  60.2139407  74.2924791  46.3164736
  64.9805226  74.2781063  47.1488090  65.1968840  75.1605701  46.8476919
  64.4999293  73.8867277  46.4193732  59.7204447  77.2366776  53.7258835
  59.5749028  77.5507080  54.6183116  59.2429651  77.8551677  53.1729734
  61.5800830  74.2269324  53.7739724  61.5662399  73.3310418  53.4372022
  62.2973258  74.2339988  54.4078011  63.4326961  74.6606665  55.8192852
  63.1744738  75.5823735  55.8177182  62.9012001  74.2637099  56.5093316
  54.1950109  79.7772121  56.6646496  53.6503577  80.5531929  56.7966770
  55.0729459  80.1242925  56.5065618  60.9837726  73.1083705  49.0427295
  61.1053637  72.1800351  49.2418182  60.6939768  73.1222391  48.1305610
  63.8528916  70.7938615  52.1794014  63.8750613  70.8577948  51.2245994
  64.2696975  69.9543124  52.3734521  54.9816131  78.9042017  59.5576653
  54.2397867  79.0524653  60.1441283  54.6608875  79.1650283  58.6943402
  62.9259794  88.4457995  59.3557043  63.2346920  88.2007142  60.2279743
  63.7235276  88.6504634  58.8675913  62.9480406  90.5995905  51.5862420
  62.5085396  90.1072284  52.2795276  63.6988523  90.0568873  51.3454495
  55.4272745  86.7907446  51.5887048  56.2530765  86.4911218  51.2085691
  55.0766797  86.0215068  52.0376836  60.3954278  86.1433914  53.6584721
  59.7734287  85.4804619  53.3586949  61.0659145  86.1695046  52.9758369
  53.6281350  84.7093772  52.5475981  52.7913258  84.2815947  52.3659982
  53.6004995  84.9026216  53.4846772  60.4678805  74.6215702  63.2517227
  60.5166961  75.4977825  62.8694997  61.0101319  74.0793095  62.6788870
  59.9567785  84.6937837  47.1343182  60.1055905  85.3773302  46.4809854
  60.7634228  84.6742927  47.6492637  62.6978094  75.3747075  60.0063586
  61.8281403  75.6680641  59.7346174  62.9337574  75.9587520  60.7270850
  57.7120418  80.7203015  48.1404251  57.4666460  79.8165345  48.3384461
  57.8816332  80.7220166  47.1983729  65.4017128  71.5926691  57.5229006
  65.9199071  72.3287718  57.1975495  65.0472260  71.8990685  58.3575765
  56.9816065  76.4531373  45.6390412  56.2885310  76.5275728  44.9830448
  56.7367817  75.6891716  46.1611929  65.6529722  68.0126974  53.0429903
  65.9331475  67.3450163  53.6690329  66.4380329  68.2056070  52.5304567
  63.4563190  87.1885968  44.6054929  62.8837157  87.8076155  44.1525401
  64.0295984  87.7385330  45.1394851  67.5452960  73.5200191  56.9760879
  66.9502892  73.8005204  56.2807368  67.2602656  74.0094092  57.7477620
  69.3048467  86.7888988  42.6967459  69.2262098  86.4548852  43.5903217
  70.1258133  87.2810756  42.6958931  63.8409989  78.5246781  41.9470982
  64.7869093  78.3952989  42.0159400  63.4624234  77.7861443  42.4240410
  69.8131873  70.1902787  51.9097873  69.6156694  69.8817875  52.7941205
  70.4231579  70.9164426  52.0395803  63.7248681  82.5764527  63.4071639
  64.6451691  82.7543126  63.6011685  63.6898264  81.6320572  63.2551338
  62.0252906  76.4496757  41.8825867  61.1184361  76.1529870  41.9588581
  62.3028887  76.1526575  41.0160153  52.9430846  77.7703120  52.3324913
  52.6233631  76.9168429  52.0399287  52.3964274  77.9851699  53.0882881
  56.7210754  80.4865561  56.0494420  56.9396764  81.4182669  56.0682454
  57.1336528  80.1273536  56.8349224  63.6414972  70.9933647  48.0370108
  62.8315700  70.6480732  48.4125354  64.3299389  70.6841190  48.6257720
  65.5705520  70.0711694  49.6594405  66.1236558  70.4907147  50.3184428
  65.8075606  69.1447442  49.7017361  61.5938619  76.0598767  65.4397169
  61.4935346  77.0093124  65.3709260  61.3760161  75.7317006  64.5673239
  60.7951690  73.3083692  42.0237846  61.6570854  73.6338591  42.2833663
  60.9802035  72.5215188  41.5110912  52.8119106  81.3906032  54.3018035
  52.1182578  80.9759985  53.7887989  53.5592097  81.4326568  53.7051454
  68.9484327  72.1812219  49.1673069  68.3682996  72.8397023  48.7851122
  68.6820260  71.3589563  48.7560487  67.3987893  71.5817276  51.3694389
  67.8987672  71.6933811  50.5608708  68.0423501  71.2778329  52.0095198
  61.4569889  79.4895906  64.2562230  60.9736971  80.2896266  64.4626119
  61.5430828  79.5003851  63.3029674  54.7255849  81.3224286  52.1784050
  54.7026537  81.4211973  51.2265933  55.0356485  82.1689437  52.5001216
  57.3843227  83.3800441  56.2930664  58.3386480  83.3484383  56.2260596
  57.1855750  82.9191064  57.1080890  57.9742609  81.9501557  58.8601462
  58.7935498  82.4445635  58.8836299  58.2479416  81.0333525  58.8319029
  67.7309205  74.3412309  48.2229417  66.8435060  74.6261960  48.0049612
  68.1463194  74.1806072  47.3756694  71.0823741  74.3658830  51.9383757
  71.8584131  74.8555283  52.2108373  70.3571875  74.7916884  52.3955626
  55.7393455  88.9220060  53.3100862  55.6047923  88.1620461  52.7438860
  55.3225518  89.6460960  52.8429651  66.8752418  84.1056984  42.3177437
  67.5788269  84.3106986  42.9335093  66.1515067  84.6733746  42.5826521
  67.7050229  79.8566845  48.4379708  67.6485430  80.3135396  47.5987340
  68.2578571  79.0957530  48.2602550  71.5155035  75.6456577  49.2629827
  71.2591969  75.2453213  50.0938035  70.8907903  76.3600371  49.1379966
  58.8962581  89.8189377  53.5219305  58.7794965  90.7634810  53.4197995
  58.0755028  89.5162939  53.9105104  53.2277523  76.2839691  59.5593659
  53.8736387  75.7738645  60.0480884  53.0194674  77.0208372  60.1337084
  61.7481134  70.5479735  45.3117555  61.7359803  71.4921575  45.4685826
  62.6404555  70.3649881  45.0177016  59.9217095  90.4717639  56.7375233
  60.8244342  90.5041249  57.0541728  59.6954466  89.5418090  56.7521569
  61.6770697  89.2248626  53.3985312  60.7266328  89.2250487  53.2849684
  61.9803184  88.4781360  52.8821346  65.5633253  67.1422512  49.5663492
  64.7965649  66.5880999  49.7120174  65.9743958  67.2144381  50.4277644
  57.5675014  73.4307308  63.6568673  58.4306476  73.0744113  63.8671998
  56.9940425  73.0921203  64.3444077  69.5855099  97.6232173  46.0991089
  70.3585975  97.0761161  45.9603965  69.9380498  98.4876423  46.3105550
  71.9221377  93.7824840  43.7309539  72.1746897  93.2606361  42.9693002
  70.9845936  93.6190985  43.8336223  71.6417665  95.6852946  45.9333914
  71.5253923  95.0097849  46.6014998  71.7519925  95.1985319  45.1166067
  64.4258447  92.4569545  55.6454309  64.6766486  93.3416555  55.9111885
  64.9617996  92.2774147  54.8729400  67.0918573  98.2771883  48.5612215
  67.6043093  99.0715133  48.7117779  67.7441285  97.5798173  48.4945816
  65.0567489  96.6060537  49.3371785  65.8942711  97.0157545  49.1205493
  65.2345757  95.6659979  49.3071979  70.2452971  90.9977060  44.8810850
  69.4090283  91.3351747  45.2020125  70.1057741  90.8626040  43.9437987
  73.3317257  96.1233143  41.5043326  72.4244318  95.8922397  41.7034475
  73.8288289  95.3270762  41.6917308  74.2081578  97.7654482  43.3655395
  73.7701008  97.0490341  42.9061032  74.9492019  97.9930597  42.8040486
  78.3292806  96.6238863  42.9587452  77.7121976  95.8985692  42.8620505
  77.8609294  97.3848224  42.6154527  70.1191351  90.8424288  42.0808757
  69.2420818  90.7213088  41.7171003  70.5949104  90.0510366  41.8287645
  61.6393492  95.6301447  52.1750264  62.3264531  95.3163177  51.5871279
  61.4841620  96.5342812  51.9017515  66.6243813 101.1396441  55.7263288
  67.2097250 100.3940128  55.8591192  66.4268651 101.4500397  56.6099952
  61.2161468  93.7102041  54.4467731  61.2545567  93.1765631  55.2404849
  60.7101760  93.1837246  53.8278708  65.0343864  95.1064039  56.6646496
  64.4897332  95.8823847  56.7966770  65.9123213  95.4534843  56.5065618
  66.2666499 102.1199364  51.5887048  67.0924519 101.8203135  51.2085691
  65.9160551 101.3506986  52.0376836  64.4675104 100.0385690  52.5475981
  63.6307012  99.6107864  52.3659982  64.4398750 100.2318133  53.4846772
  68.5514172  96.0494933  48.1404251  68.3060214  95.1457263  48.3384461
  68.7210087  96.0512083  47.1983729  80.1442221 102.1180906  42.6967459
  80.0655853 101.7840770  43.5903217  80.9651888 102.6102674  42.6958931
  74.6803743  93.8538698  41.9470982  75.6262848  93.7244906  42.0159400
  74.3017988  93.1153360  42.4240410  72.8646660  91.7788675  41.8825867
  71.9578116  91.4821787  41.9588581  73.1422641  91.4818493  41.0160153
  63.7824601  93.0995038  52.3324913  63.4627385  92.2460346  52.0399287
  63.2358029  93.3143616  53.0882881  71.6345445  88.6375610  42.0237846
  72.4964609  88.9630508  42.2833663  71.8195789  87.8507106  41.5110912
  63.6512861  96.7197950  54.3018035  62.9576332  96.3051902  53.7887989
  64.3985852  96.7618486  53.7051454  65.5649603  96.6516203  52.1784050
  65.5420291  96.7503891  51.2265933  65.8750240  97.4981354  52.5001216
  66.5787210 104.2511978  53.3100862  66.4441678 103.4912379  52.7438860
  66.1619272 104.9752878  52.8429651  77.7146173  99.4348901  42.3177437
  78.4182023  99.6398904  42.9335093  76.9908822 100.0025663  42.5826521
  79.6232870  99.8731431  44.3675897  80.4578474  99.4412629  44.1853372
  79.4617213  99.7013444  45.2952792  79.2778763  96.3763544  45.7332237
  79.2227566  96.2107815  44.7920681  78.6524818  97.0839577  45.8894426
  64.0671278  91.6131608  59.5593659  64.7130141  91.1030562  60.0480884
  63.8588429  92.3500290  60.1337084  86.4993226 115.8634954  45.7003955
  85.8481206 116.4489034  45.3137968  87.2937589 116.3941149  45.7598992
  80.4248853 112.9524091  46.0991089  81.1979729 112.4053078  45.9603965
  80.7774252 113.8168340  46.3105550  82.7615131 109.1116757  43.7309539
  83.0140652 108.5898279  42.9693002  81.8239690 108.9482903  43.8336223
  87.9768491 113.5525386  46.2372939  87.3414324 113.6260012  46.9493844
  87.6465898 114.1418985  45.5592018  82.4811420 111.0144863  45.9333914
  82.3647678 110.3389767  46.6014998  82.5913680 110.5277237  45.1166067
  84.4648448 105.5044910  44.6341952  84.6322850 106.3725146  45.0012423
  84.2745617 105.6672192  43.7103241  84.4437669 107.9602567  45.6188618
  84.3237294 108.4059618  46.4574099  83.7490257 108.3087885  45.0602157
  82.2044561 120.7306209  49.2678750  82.1268590 121.6814034  49.3467230
  81.6006204 120.3852082  49.9253676  99.0884302 111.2174960  52.3129570
  98.3348010 110.6482358  52.1573575  99.2231843 111.1837624  53.2600205
  84.4782930 116.0888362  47.9884289  84.3428604 116.9339898  48.4169137
  85.0192742 116.2907640  47.2250223  77.9312327 113.6063800  48.5612215
  78.4436848 114.4007050  48.7117779  78.5835040 112.9090091  48.4945816
  86.1051406 116.7111929  62.1184632  85.6615260 115.9248307  61.8005536
  86.7668620 116.8991079  61.4528522  88.2032644 116.9914729  60.1466033
  88.1851119 117.8123610  59.6546302  89.1252564 116.8668804  60.3716174
  87.7925676 109.6027535  45.0255618  87.2772299 110.3732140  45.2644005
  87.5202984 108.9292671  45.6488679  86.0258411 113.6344851  48.5008353
  85.4979773 112.8997610  48.1881591  85.5245914 114.4119527  48.2548322
  81.0846726 106.3268978  44.8810850  80.2484038 106.6643664  45.2020125
  80.9451495 106.1917958  43.9437987  84.1711011 111.4525061  41.5043326
  83.2638073 111.2214314  41.7034475  84.6682043 110.6562680  41.6917308
  87.0779090 120.1622568  44.4240012  86.4040789 120.4654265  45.0324970
  87.4644912 120.9651648  44.0745469  85.3499245 111.5537656  46.0267316
  84.4410464 111.2696689  46.1239786  85.3794328 111.9736734  45.1670623
  85.0475332 113.0946399  43.3655395  84.6094762 112.3782258  42.9061032
  85.7885773 113.3222514  42.8040486  85.2770305 120.3302240  46.6387092
  85.4522061 119.8590284  47.4532714  84.5903093 120.9568007  46.8668352
  89.1686560 111.9530781  42.9587452  88.5515731 111.2277609  42.8620505
  88.7003048 112.7140141  42.6154527  79.8431390 123.4791603  53.4126952
  80.0827989 124.1110127  54.0905970  79.0000587 123.1279643  53.6992311
  80.9585106 106.1716205  42.0808757  80.0814572 106.0505006  41.7171003
  81.4342859 105.3802284  41.8287645  84.3559252 119.2870726  55.8168456
  84.2829424 120.0925697  56.3287760  83.9136645 119.4862692  54.9916477
  84.1449032 118.5242496  49.3271277  83.3616554 119.0664176  49.4209502
  84.8441777 119.0416475  49.7265518  86.6278309 119.5256304  50.7212906
  86.8100704 118.7077960  51.1840658  87.4511295 119.7423996  50.2837796
  86.9620475 118.4524489  47.9827954  87.4908241 117.9416944  47.3698116
  87.2248694 118.1367019  48.8473487  80.3176223 119.5039606  50.7425730
  79.6486598 119.9885733  50.2589770  80.1789092 119.7508826  51.6569109
  84.4581491 121.5383349  57.3408389  85.0099799 121.7014971  58.1057474
  84.7987685 122.1287787  56.6688413  87.5949879 119.4865325  54.3272071
  87.4701018 118.6855065  53.8183016  88.2528970 119.9811518  53.8386041
  89.6584787 117.2874345  55.9551621  88.7115122 117.1679696  55.8829948
  90.0067560 116.3996843  56.0377882  90.2665342 117.9055620  53.2420846
  91.1911890 117.6998481  53.1045297  90.0980645 117.6572021  54.1510187
  90.0560658 118.4241287  48.5982937  90.2297536 117.8587710  47.8456790
  90.5489549 119.2242182  48.4162427  91.0435831 117.7408052  45.6979836
  91.7386735 118.3614744  45.9167150  91.3858981 116.8903403  45.9732213
  84.6047303 119.1041831  59.3557043  84.9134429 118.8590977  60.2279743
  85.4022785 119.3088469  58.8675913  84.6267915 121.2579740  51.5862420
  84.1872905 120.7656119  52.2795276  85.3776032 120.7152708  51.3454495
  81.6355294 115.3521673  47.1343182  81.7843414 116.0357137  46.4809854
  82.4421737 115.3326763  47.6492637  79.3907927 111.3786850  48.1404251
  79.1453969 110.4749180  48.3384461  79.5603841 111.3804001  47.1983729
  85.1350699 117.8469803  44.6054929  84.5624666 118.4659990  44.1525401
  85.7083493 118.3969165  45.1394851  88.3547959 118.1306953  45.7363511
  89.2878632 118.0652515  45.9396387  88.2671172 118.9663220  45.2778044
  90.9835976 117.4472824  42.6967459  90.9049607 117.1132687  43.5903217
  91.8045642 117.9394592  42.6958931  85.5197498 109.1830616  41.9470982
  86.4656602 109.0536824  42.0159400  85.1411743 108.4445278  42.4240410
  83.7040415 107.1080592  41.8825867  82.7971870 106.8113705  41.9588581
  83.9816396 106.8110410  41.0160153  82.4739199 103.9667528  42.0237846
  83.3358363 104.2922426  42.2833663  82.6589544 103.1799023  41.5110912
  77.4180964 119.5803896  53.3100862  77.2835432 118.8204296  52.7438860
  77.0013027 120.3044795  52.8429651  88.5539927 114.7640819  42.3177437
  89.2575778 114.9690822  42.9335093  87.8302576 115.3317581  42.5826521
  97.5054881 109.0436485  51.7701118  96.9454439 109.1129675  52.5432680
  96.8998385 108.8677470  51.0500615  80.5750090 120.4773213  53.5219305
  80.4582474 121.4218645  53.4197995  79.7542537 120.1746774  53.9105104
  90.4626625 115.2023348  44.3675897  91.2972229 114.7704547  44.1853372
  90.3010968 115.0305362  45.2952792  81.6004604 121.1301474  56.7375233
  82.5031851 121.1625085  57.0541728  81.3741974 120.2001925  56.7521569
  83.3558206 119.8832461  53.3985312  82.4053837 119.8834323  53.2849684
  83.6590693 119.1365196  52.8821346  99.0910900 125.7192999  54.4631074
  99.7289310 125.5999747  53.7594414  98.9731743 126.6673843  54.5219026
  95.9000606 125.6720428  54.3992599  95.5619118 125.5561492  53.5113134
  96.7690374 125.2711593  54.3793605  91.7587422 127.5255904  50.3889490
  91.1952287 127.4345841  49.6205778  91.6439817 126.7055808  50.8691982
  96.3820389 126.8255279  60.3578804  96.3709030 126.4308078  59.4859308
  96.5441029 126.0921352  60.9512576  89.3051854 129.0207096  53.2273710
  90.0973146 128.6797920  52.8120010  89.5448504 129.1302071  54.1475864
  97.3386981 131.1926872  45.7003955  96.6874960 131.7780952  45.3137968
  98.1331343 131.7233067  45.7598992  91.2642608 128.2816009  46.0991089
  92.0373484 127.7344996  45.9603965  91.6168007 129.1460258  46.3105550
  93.1027650 129.6092391  59.3057988  92.8117516 130.5138022  59.1904655
  93.7384635 129.6508919  60.0202058  94.0283857 126.9869240  55.8959348
  94.6247429 126.7625262  55.1816311  94.0858829 126.2453985  56.4984796
  93.6008886 124.4408675  43.7309539  93.8534406 123.9190196  42.9693002
  92.6633445 124.2774820  43.8336223  98.6452168 123.4444453  51.5384282
  99.4315258 123.0263876  51.1874699  98.9090873 124.3490545  51.7065931
  98.8162246 128.8817304  46.2372939  98.1808079 128.9551930  46.9493844
  98.4859652 129.4710902  45.5592018 104.0460596 123.3819686  52.4417261
 104.7785767 122.8118903  52.6755090 103.2899951 122.9941287  52.8823766
  93.3205174 126.3436781  45.9333914  93.2041432 125.6681684  46.6014998
  93.4307434 125.8569155  45.1166067  95.6636715 125.8046928  49.6380603
  95.2994922 125.2777549  50.3493525  96.5203831 125.4145397  49.4647089
 101.5686016 117.0941261  56.9011869 101.2369341 117.9636672  56.6773084
 100.9731629 116.7777545  57.5805900  95.3042202 120.8336828  44.6341952
  95.4716605 121.7017064  45.0012423  95.1139371 120.9964109  43.7103241
  98.0617535 129.2953807  56.3007782  97.7618259 130.1978845  56.1923589
  97.7168595 129.0285990  57.1528935  91.5130017 125.7467603  52.3344486
  90.5880513 125.6143818  52.5422178  91.7614430 126.5261823  52.8314429
 101.4614679 121.8136347  53.9805219 100.5531557 121.7451755  53.6863980
 101.4102275 122.2908292  54.8087045  95.2831423 123.2894485  45.6188618
  95.1631048 123.7351536  46.4574099  94.5884012 123.6379803  45.0602157
  88.8738828 125.3900877  53.1688276  89.0031209 125.6435356  54.0827687
  88.1936279 125.9828585  52.8492931  93.0438315 136.0598127  49.2678750
  92.9662345 137.0105952  49.3467230  92.4399959 135.7143999  49.9253676
  95.5355545 123.2325992  61.9240117  94.7588879 123.7919912  61.9142981
  96.1746108 123.7182775  62.4454987 103.3276326 120.0152785  55.7583093
 102.6850706 120.3085318  55.1122888 102.8231254 119.9005705  56.5636290
 100.9816489 123.7615958  46.4468953 101.8934345 123.9943345  46.2716650
 100.4726136 124.3453003  45.8844031  93.7901917 126.0411446  61.4858084
  94.5316602 126.5796490  61.2092907  93.0838903 126.6677734  61.6429635
  99.2657257 128.1840586  60.0830245  99.6740613 127.7422997  59.3384877
  98.5434518 127.6093214  60.3364438  95.6188327 123.1213193  57.4563802
  96.4649522 123.5452606  57.5998451  95.5586965 122.4646817  58.1502365
  99.5886072 128.7441777  53.8382534  98.9594934 128.9087491  53.1358602
  99.2011734 129.1583386  54.6093498 103.4675303 129.6796215  51.1926898
 102.7826342 130.0595116  50.6423931 103.5519153 130.2891541  51.9258846
  98.7687772 120.7817561  59.1144976  98.5248704 121.5359622  58.5779251
  99.0447703 121.1602909  59.9492223 100.7226235 127.3256174  57.7922241
 100.9343130 127.9687934  57.1156622 100.6755983 126.4918490  57.3244171
  98.3252464 119.9373994  54.6958813  97.4636943 120.2355248  54.9875551
  98.3514899 120.1544393  53.7639846  95.1414033 128.4816185  51.1032619
  95.6052379 128.7603888  50.3137242  94.8770832 127.5799629  50.9205710
  92.0338115 128.0287666  54.0412382  92.6039472 128.4574935  53.4029867
  92.6246226 127.7470251  54.7396568  94.0782920 124.6039337  47.9122184
  94.7806963 125.0560381  48.3796111  93.7463548 123.9623156  48.5402077
  92.5263281 123.1951094  62.2873394  91.8961942 123.8767375  62.5208790
  92.4199369 123.0834175  61.3426532  87.8208253 122.8622890  53.2139318
  87.0307307 123.1180418  52.7379428  88.3119501 123.6771228  53.3191358
 101.8372063 130.2028129  55.9644599 102.6589507 129.8008316  55.6827280
 101.8334466 130.0996363  56.9160714  89.7722999 123.2267469  50.1722795
  88.9754162 123.3386163  50.6906290  89.5448591 123.5654121  49.3063685
  95.6028666 129.7512172  58.1205309  95.6673099 130.2132580  58.9563481
  94.8939590 129.1209537  58.2487619  86.1045956 123.1153380  55.6454309
  86.3553995 124.0000390  55.9111885  86.6405505 122.9357982  54.8729400
 109.9278056 126.5466878  52.3129570 109.1741764 125.9774276  52.1573575
 110.0625597 126.5129542  53.2600205  95.3176684 131.4180280  47.9884289
  95.1822359 132.2631816  48.4169137  95.8586497 131.6199558  47.2250223
  88.7706082 128.9355718  48.5612215  89.2830602 129.7298968  48.7117779
  89.4228794 128.2382008  48.4945816  90.5800966 132.0521474  50.6434968
  90.7567595 132.9739439  50.4555952  91.3757800 131.7379893  51.0729348
  94.7211985 118.9129739  62.2418901  95.4621698 119.5136892  62.1623364
  94.9529908 118.1707377  61.6836944  89.8653323 124.0986106  60.5197131
  89.7506838 123.1971363  60.8204230  89.0097841 124.3449803  60.1681947
  96.9445161 132.0403846  62.1184632  96.5009015 131.2540225  61.8005536
  97.6062374 132.2282997  61.4528522  91.7032282 133.5699648  56.6445310
  92.2539707 133.4416711  55.8722304  90.8643758 133.8694537  56.2940203
  99.0426399 132.3206646  60.1466033  99.0244874 133.1415527  59.6546302
  99.9646319 132.1960722  60.3716174  95.4999453 129.8350776  60.9889541
  96.0327790 129.0739064  60.7588849  94.9713534 129.5424428  61.7313696
  86.7354998 127.2644372  49.3371785  87.5730220 127.6741381  49.1205493
  86.9133266 126.3243814  49.3071979  98.6319430 124.9319453  45.0255618
  98.1166054 125.7024058  45.2644005  98.3596739 124.2584589  45.6488679
  96.2166541 119.7769154  50.0840856  95.3608138 119.3876004  49.9046495
  96.6293493 119.8561114  49.2240642  97.7465688 117.3115497  54.4832416
  97.2430484 117.2745632  53.6700221  98.0396295 118.2208240  54.5429073
  93.9908574 117.3954227  53.4898598  94.8561571 117.1997035  53.1304487
  94.0586083 117.1664578  54.4167955 103.6053705 127.6851808  46.9608792
 102.8283147 127.3462967  46.5163954 104.2845186 127.6904431  46.2863757
  98.4205734 122.8046545  46.8515399  98.1155869 123.1192694  47.7025542
  99.3736176 122.8827965  46.8942732  96.8652165 128.9636768  48.5008353
  96.3373527 128.2289528  48.1881591  96.3639668 129.7411445  48.2548322
 101.8445011 127.1585789  53.6175400 101.1868686 127.8485050  53.7055528
 102.6485411 127.5482221  53.9609386  91.5970893 119.6256435  50.8614965
  92.1714645 119.4031616  50.1288158  92.1841876 119.6945129  51.6143566
 100.6550470 125.5130161  51.6679341 101.1682352 126.1460153  52.1701051
 101.3051694 124.9131357  51.3022701  91.9240480 121.6560896  44.8810850
  91.0877792 121.9935582  45.2020125  91.7845250 121.5209875  43.9437987
  93.8993561 116.4997683  49.5890034  93.2457973 116.1846701  48.9646649
  93.8574035 115.8773424  50.3149857  95.0104766 126.7816979  41.5043326
  94.1031827 126.5506232  41.7034475  95.5075798 125.9854598  41.6917308
  97.9172845 135.4914486  44.4240012  97.2434543 135.7946182  45.0324970
  98.3038666 136.2943566  44.0745469  97.1331301 122.9879617  53.9137682
  96.2153863 123.2094564  53.7559370  97.5491445 123.0625927  53.0549389
  97.9166349 124.3871033  49.0440362  98.6638168 124.8992430  48.7347484
  98.1857938 124.0655085  49.9044756  96.1892999 126.8829573  46.0267316
  95.2804218 126.5988606  46.1239786  96.2188083 127.3028652  45.1670623
 101.4212266 130.4936163  49.7958484 100.9674594 129.6527073  49.8523674
 100.7906233 131.1297561  50.1333264 100.3645186 121.4228149  51.0259151
  99.6267943 120.9105535  51.3569394 100.6171960 120.9828531  50.2142428
  99.8645206 132.3312660  50.7308302 100.1568180 132.8917717  50.0120668
 100.3743826 132.6241221  51.4861461 100.4656813 114.2004401  51.6200921
 100.7715690 113.3401764  51.3326836 101.1909418 114.7922021  51.4199915
  86.7581169 124.6035088  50.0082519  86.5605569 124.0104448  49.2833585
  86.2027833 124.2987298  50.7258457  94.7377893 124.4958194  52.1277112
  94.7926503 123.5432030  52.0519588  93.9269095 124.6517633  52.6118410
  95.8869087 128.4238317  43.3655395  95.4488517 127.7074176  42.9061032
  96.6279528 128.6514432  42.8040486  92.6770253 123.1135254  49.8867491
  91.8638119 123.4129424  50.2932683  93.1729247 122.7190943  50.6041973
  94.8278831 133.1093011  51.8201755  94.7855010 133.3353857  50.8910287
  95.7441530 132.8756385  51.9687556  98.2744465 123.5777078  58.7182384
  98.6293852 123.8048551  59.5776850  98.9216596 123.9095455  58.0959640
 104.0042202 126.6995514  49.4231713 103.8660100 126.8897110  48.4952903
 103.6478420 127.4614897  49.8799765  92.1684328 120.6853609  55.5028725
  92.8083707 120.5442368  54.8051689  91.3361858 120.3988123  55.1267327
 104.0311581 128.7672041  54.4342985 104.4648088 128.6747330  55.2826039
 104.7443162 128.7429542  53.7963001  92.9444632 129.9856040  51.6163718
  93.7385230 129.4906360  51.4146293  92.2336324 129.4573903  51.2531424
  97.7639476 132.3674135  55.9676086  97.8176498 132.9365072  56.7353801
  96.8954258 132.5376020  55.6030123  89.2527395 124.1299121  47.6923471
  88.3224983 124.0683577  47.9093433  89.3484867 123.6075074  46.8960112
  89.1712944 120.6553934  50.2801712  89.4319762 121.5699268  50.1710873
  89.9930117 120.1878377  50.4298325  90.6437870 122.0691691  57.4500537
  91.3160923 121.8609054  56.8013186  89.8167656 121.8713777  57.0105769
 104.8927131 128.8095742  56.9675870 105.0863021 129.7141552  57.2135145
 104.7927749 128.3503161  57.8014455  96.5463442 118.6953632  59.4666198
  95.8991357 119.3943582  59.3730674  97.3164457 119.1289776  59.8342446
  99.9542239 128.9602485  62.5416751  99.8027746 128.7313036  61.6246835
  99.9446919 129.9173086  62.5548096  96.7227576 126.5334397  57.5263017
  97.6519636 126.6845557  57.3531985  96.3018606 126.6218418  56.6711664
  95.5215908 130.5585062  55.2961555  95.3826993 130.1903846  56.1687493
  94.7330504 131.0732701  55.1245513  96.1164060 135.6594158  46.6387092
  96.2915815 135.1882201  47.4532714  95.4296848 136.2859924  46.8668352
  97.0721123 129.9366664  52.6850393  96.7370955 129.8967434  53.5808043
  96.5725069 129.2711380  52.2120803  91.0465367 125.3434294  58.2102974
  90.9085165 124.6114533  58.8114513  91.9570290 125.2543195  57.9287162
 100.0080314 127.2822699  42.9587452  99.3909485 126.5569527  42.8620505
  99.5396803 128.0432059  42.6154527  93.6747667 125.0554254  57.6986654
  94.3847286 124.4147446  57.6573272  93.6316976 125.3067149  58.6212834
 101.6634446 131.9921607  60.6193233 101.6046992 131.3080827  59.9523816
 102.0653965 132.7340597  60.1673859  92.3876601 122.0419472  59.5182293
  91.8513958 121.5910210  60.1703889  91.7993310 122.1765380  58.7752757
  90.6825145 138.8083521  53.4126952  90.9221743 139.4402045  54.0905970
  89.8394341 138.4571561  53.6992311  91.7978860 121.5008123  42.0808757
  90.9208327 121.3796924  41.7171003  92.2736613 120.7094201  41.8287645
 101.6651853 129.9561191  58.8507213 100.7778632 129.6187113  58.9733611
 102.2350404 129.2244222  59.0875978  83.3181001 126.2885283  52.1750264
  84.0052040 125.9747013  51.5871279  83.1629129 127.1926647  51.9017515
  88.1215723 121.1775479  56.6035288  88.0373911 120.5701149  55.8685698
  87.2998429 121.6684498  56.6044784  95.1953007 134.6162643  55.8168456
  95.1223178 135.4217615  56.3287760  94.7530400 134.8154609  54.9916477
  94.9842786 133.8534413  49.3271277  94.2010308 134.3956094  49.4209502
  95.6835532 134.3708393  49.7265518  98.2939437 119.6629043  51.9705483
  98.7908136 118.9099005  51.6506553  97.5226418 119.6993360  51.4048692
 106.1469194 125.3669408  53.6123774 106.1359070 126.2494124  53.2417707
 105.2786573 125.0140959  53.4178311  97.6551690 134.5149477  57.9726614
  98.3679663 135.1496942  57.9002516  97.1641719 134.6113343  57.1566616
  99.3769217 128.4200730  49.5443906  98.4425496 128.5402193  49.3748610
  99.5545886 127.5173197  49.2803916  94.8774405 121.8046426  51.6977167
  94.5072193 121.2517466  52.3858073  95.3733498 121.2004559  51.1452167
 102.7641769 124.2618049  50.0793940 103.2302221 125.0946041  50.0054243
 103.2149269 123.7963031  50.7839199  92.7063604 132.2643921  58.7932185
  93.4073063 132.8980404  58.9461579  92.2358719 132.6058652  58.0327824
 100.8318000 130.6061871  47.0780092 101.1077844 130.4918465  47.9873966
  99.9622498 130.2079355  47.0392265 100.7358431 116.6298636  54.1184842
  99.8221511 116.8602863  54.2867048 101.1651533 116.7137080  54.9698874
 100.5064890 124.8188528  56.6184736  99.8536340 125.0664436  55.9637188
 100.8845270 124.0052666  56.2847213  97.4672064 134.8548221  50.7212906
  97.6494458 134.0369877  51.1840658  98.2905050 135.0715914  50.2837796
  97.8014229 133.7816407  47.9827954  98.3301996 133.2708861  47.3698116
  98.0642449 133.4658937  48.8473487  96.5552463 125.5608339  63.1050773
  95.8793100 125.4602469  63.7753148  97.3780097 125.4047553  63.5686770
  88.3031322 131.7980276  55.7263288  88.8884759 131.0523964  55.8591192
  88.1056160 132.1084233  56.6099952  91.1569977 134.8331523  50.7425730
  90.4880352 135.3177651  50.2589770  91.0182847 135.0800744  51.6569109
  82.8948977 124.3685876  54.4467731  82.9333076 123.8349467  55.2404849
  82.3889269 123.8421082  53.8278708  95.2975246 136.8675267  57.3408389
  95.8493554 137.0306888  58.1057474  95.6381439 137.4579705  56.6688413
  90.2739739 119.2150417  57.9430273  90.3381065 120.0765248  57.5307671
  90.2106859 118.6024418  57.2102632  89.7492011 121.2873549  61.5903308
  90.3764050 120.9050626  62.2040832  88.8919930 121.0687751  61.9559000
 100.1486120 131.6936524  63.1957043 100.6926024 132.3066483  62.7011998
  99.5672965 132.2516103  63.7124056  86.5257554 123.0949978  47.5221662
  86.8210995 122.1860657  47.4688716  85.6245590 123.0737718  47.2002665
  98.4343633 134.8157242  54.3272071  98.3094772 134.0146982  53.8183016
  99.0922724 135.3103436  53.8386041  90.0551801 121.1705975  53.5049211
  89.3338387 121.7841943  53.3656684  90.8445057 121.7063740  53.4265857
 100.4978541 132.6166262  55.9551621  99.5508877 132.4971614  55.8829948
 100.8461315 131.7288760  56.0377882  92.8578115 118.5060401  59.7789863
  93.3812517 118.7522698  60.5416172  92.6390448 119.3380436  59.3593000
  88.2545396 120.7764076  47.6460988  87.9258102 119.8961455  47.4636093
  88.6084767 120.7211745  48.5337377  97.5024975 132.4118979  52.1555973
  97.3549937 131.4835686  52.3363543  98.3278468 132.4339069  51.6713048
  91.3687219 121.0637046  48.0136465  91.7083291 121.5922967  47.2915074
  91.8159339 121.4017452  48.7895032 101.1059097 133.2347537  53.2420846
 102.0305644 133.0290399  53.1045297 100.9374400 132.9863939  54.1510187
  94.0630660 119.4474096  57.4639533  93.7227480 118.6481910  57.8660213
  93.3569666 119.7475807  56.8916366  93.3555366 119.5611667  46.2129758
  94.0763729 119.9392920  45.7093475  92.7320670 120.2800544  46.3164736
  97.4986489 120.2656816  47.1488090  97.7150103 121.1481454  46.8476919
  97.0180556 119.8743030  46.4193732  92.2385710 123.2242530  53.7258835
  92.0930291 123.5382833  54.6183116  91.7610914 123.8427430  53.1729734
  94.0982093 120.2145078  53.7739724  94.0843662 119.3186171  53.4372022
  94.8154521 120.2215741  54.4078011  95.9508224 120.6482418  55.8192852
  95.6926002 121.5699488  55.8177182  95.4193264 120.2512852  56.5093316
 100.8954413 133.7533205  48.5982937 101.0691290 133.1879627  47.8456790
 101.3883304 134.5534100  48.4162427  86.7131373 125.7647874  56.6646496
  86.1684841 126.5407682  56.7966770  87.5910722 126.1118678  56.5065618
  93.5018989 119.0959458  49.0427295  93.6234900 118.1676104  49.2418182
  93.2121032 119.1098144  48.1305610  96.3710180 116.7814368  52.1794014
  96.3931876 116.8453701  51.2245994  96.7878239 115.9418877  52.3734521
 106.7493804 126.5169628  50.2173237 107.1924950 125.7676953  49.8192360
 105.8720314 126.5079764  49.8346969 101.8829585 133.0699969  45.6979836
 102.5780490 133.6906662  45.9167150 102.2252735 132.2195320  45.9732213
  87.4997394 124.8917770  59.5576653  86.7579130 125.0400406  60.1441283
  87.1790139 125.1526036  58.6943402 103.7821008 130.5199675  47.2267166
 104.3072332 130.8586948  46.5016486 103.6943361 129.5846690  47.0430301
  95.4441057 134.4333748  59.3557043  95.7528183 134.1882895  60.2279743
  96.2416539 134.6380387  58.8675913  95.4661669 136.5871658  51.5862420
  95.0266659 136.0948037  52.2795276  96.2169786 136.0444626  51.3454495
  87.9454008 132.7783199  51.5887048  88.7712028 132.4786971  51.2085691
  87.5948060 132.0090821  52.0376836  92.9135541 132.1309667  53.6584721
  92.2915551 131.4680372  53.3586949  93.5840408 132.1570799  52.9758369
  86.1462613 130.6969525  52.5475981  85.3094521 130.2691700  52.3659982
  86.1186259 130.8901969  53.4846772  92.9860069 120.6091455  63.2517227
  93.0348224 121.4853578  62.8694997  93.5282583 120.0668848  62.6788870
 103.4714914 131.1532578  62.5318364 102.6810458 131.1356717  61.9922864
 103.2348269 131.6920872  63.2867401 103.5912789 128.0025045  59.8451093
 103.6410794 127.8375052  60.7866616 103.4826713 127.1352304  59.4548974
  92.4749048 130.6813590  47.1343182  92.6237169 131.3649055  46.4809854
  93.2815492 130.6618681  47.6492637 100.8816552 123.9855973  61.1610400
 101.7826415 123.8462438  60.8694397 100.9564526 124.1510428  62.1008577
  95.2159357 121.3622828  60.0063586  94.3462667 121.6556394  59.7346174
  95.4518838 121.9463273  60.7270850 105.0930986 130.4221986  60.0893114
 104.8015795 130.7851967  60.9256575 104.4803118 129.7088995  59.9106446
 106.2926669 127.9874866  52.6095685 107.1273560 128.4264670  52.7733245
 106.4285797 127.5113519  51.7903930 103.3418175 125.5454601  58.5573172
 103.8172296 125.7382247  57.7492024 102.4183740 125.6013787  58.3116556
  90.2301681 126.7078768  48.1404251  89.9847723 125.8041098  48.3384461
  90.3997596 126.7095919  47.1983729  97.9198391 117.5802444  57.5229006
  98.4380335 118.3163471  57.1975495  97.5653524 117.8866438  58.3575765
  89.4997329 122.4407126  45.6390412  88.8066574 122.5151481  44.9830448
  89.2549081 121.6767469  46.1611929  95.9744454 133.1761721  44.6054929
  95.4018421 133.7951908  44.1525401  96.5477247 133.7261083  45.1394851
 102.0419844 122.4220361  56.7901478 102.9937266 122.5218459  56.8113702
 101.8723294 121.6298630  57.2999562 100.0634223 119.5075944  56.9760879
  99.4684155 119.7880957  56.2807368  99.7783920 119.9969845  57.7477620
  99.1941713 133.4598871  45.7363511 100.1272387 133.3944433  45.9396387
  99.1064926 134.2955138  45.2778044 101.8229730 132.7764741  42.6967459
 101.7443362 132.4424605  43.5903217 102.6439397 133.2686509  42.6958931
 104.5207921 125.6426481  55.9043778 104.4884241 124.7042481  56.0903461
 105.1308545 125.7210517  55.1709603  96.3591252 124.5122534  41.9470982
  97.3050357 124.3828742  42.0159400  95.9805497 123.7737196  42.4240410
 104.6702410 122.4337524  55.9502061 104.1541458 121.6495981  55.7631990
 105.5542358 122.1056241  56.1148580 102.3313137 116.1778540  51.9097873
 102.1337958 115.8693628  52.7941205 102.9412842 116.9040179  52.0395803
 110.3384471 126.7042488  55.0449814 111.0687860 126.4427776  55.6057518
 109.7291417 125.9671209  55.0851882 108.4199768 124.8450350  55.6424266
 107.6932932 124.7106315  55.0340757 108.0047055 125.1527179  56.4480984
  96.2429945 128.5640280  63.4071639  97.1632954 128.7418879  63.6011685
  96.2079528 127.6196325  63.2551338  94.5434169 122.4372510  41.8825867
  93.6365625 122.1405623  41.9588581  94.8210150 122.1402328  41.0160153
  85.4612110 123.7578873  52.3324913  85.1414894 122.9044182  52.0399287
  84.9145538 123.9727452  53.0882881  89.2392017 126.4741314  56.0494420
  89.4578027 127.4058422  56.0682454  89.6517791 126.1149289  56.8349224
  96.1596235 116.9809400  48.0370108  95.3496963 116.6356485  48.4125354
  96.8480652 116.6716944  48.6257720  98.0886783 116.0587447  49.6594405
  98.6417822 116.4782900  50.3184428  98.3256870 115.1323195  49.7017361
  94.1119883 122.0474520  65.4397169  94.0116609 122.9968877  65.3709260
  93.8941425 121.7192759  64.5673239  93.3132954 119.2959445  42.0237846
  94.1752118 119.6214344  42.2833663  93.4983298 118.5090941  41.5110912
  85.3300370 127.3781785  54.3018035  84.6363841 126.9635738  53.7887989
  86.0773361 127.4202321  53.7051454 101.4665590 118.1687972  49.1673069
 100.8864259 118.8272776  48.7851122 101.2001523 117.3465316  48.7560487
  99.9169157 117.5693029  51.3694389 100.4168935 117.6809564  50.5608708
 100.5604765 117.2654082  52.0095198  93.9751153 125.4771659  64.2562230
  93.4918234 126.2772019  64.4626119  94.0612092 125.4879604  63.3029674
  87.2437112 127.3100039  52.1784050  87.2207800 127.4087726  51.2265933
  87.5537749 128.1565190  52.5001216  89.9024490 129.3676194  56.2930664
  90.8567744 129.3360136  56.2260596  89.7037014 128.9066818  57.1080890
  90.4923872 127.9377310  58.8601462  91.3116761 128.4321388  58.8836299
  90.7660680 127.0209278  58.8319029 100.2490468 120.3288062  48.2229417
  99.3616323 120.6137713  48.0049612 100.6644458 120.1681825  47.3756694
 103.6005005 120.3534583  51.9383757 104.3765395 120.8431036  52.2108373
 102.8753139 120.7792637  52.3955626 106.0377563 121.0662202  52.9957697
 106.6322054 120.8257938  52.2851005 106.1104147 120.3469333  53.6231234
  88.2574719 134.9095813  53.3100862  88.1229187 134.1496214  52.7438860
  87.8406781 135.6336713  52.8429651  99.3933682 130.0932737  42.3177437
 100.0969532 130.2982739  42.9335093  98.6696331 130.6609499  42.5826521
 100.2231492 125.8442598  48.4379708 100.1666694 126.3011149  47.5987340
 100.7759835 125.0833283  48.2602550 104.0336298 121.6332330  49.2629827
 103.7773232 121.2328966  50.0938035 103.4089166 122.3476124  49.1379966
 108.3448636 124.3728403  51.7701118 107.7848194 124.4421592  52.5432680
 107.7392139 124.1969388  51.0500615  91.4143845 135.8065130  53.5219305
  91.2976229 136.7510563  53.4197995  90.5936291 135.5038692  53.9105104
 101.3020379 130.5315266  44.3675897 102.1365983 130.0996464  44.1853372
 101.1404722 130.3597280  45.2952792 100.9566272 127.0347379  45.7332237
 100.9015075 126.8691651  44.7920681 100.3312327 127.7423412  45.8894426
  85.7458786 122.2715444  59.5593659  86.3917650 121.7614398  60.0480884
  85.5375938 123.0084125  60.1337084  98.2712179 129.3396291  65.0585799
  99.1403338 129.5136943  64.6972434  97.7918930 130.1590708  64.9361529
  94.2662397 116.5355488  45.3117555  94.2541067 117.4797328  45.4685826
  95.1585819 116.3525634  45.0177016  92.4398359 136.4593392  56.7375233
  93.3425606 136.4917002  57.0541728  92.2135729 135.5293843  56.7521569
  94.1951961 135.2124379  53.3985312  93.2447592 135.2126240  53.2849684
  94.4984447 134.4657113  52.8821346  98.0814516 113.1298265  49.5663492
  97.3146912 112.5756752  49.7120174  98.4925221 113.2020134  50.4277644
 109.9304654 141.0484917  54.4631074 110.5683064 140.9291664  53.7594414
 109.8125497 141.9965761  54.5219026 106.7394361 141.0012345  54.3992599
 106.4012872 140.8853410  53.5113134 107.6084129 140.6003510  54.3793605
 102.5981176 142.8547822  50.3889490 102.0346042 142.7637759  49.6205778
 102.4833571 142.0347726  50.8691982 107.2214144 142.1547197  60.3578804
 107.2102784 141.7599995  59.4859308 107.3834783 141.4213270  60.9512576
 100.1445608 144.3499013  53.2273710 100.9366900 144.0089838  52.8120010
 100.3842258 144.4593988  54.1475864 108.1780735 146.5218789  45.7003955
 107.5268715 147.1072870  45.3137968 108.9725098 147.0524984  45.7598992
 102.1036362 143.6107926  46.0991089 102.8767238 143.0636914  45.9603965
 102.4561761 144.4752176  46.3105550 103.9421405 144.9384309  59.3057988
 103.6511271 145.8429940  59.1904655 104.5778389 144.9800836  60.0202058
 104.8677612 142.3161157  55.8959348 105.4641184 142.0917180  55.1816311
 104.9252583 141.5745903  56.4984796 104.4402640 139.7700593  43.7309539
 104.6928161 139.2482114  42.9693002 103.5027199 139.6066738  43.8336223
 109.4845923 138.7736371  51.5384282 110.2709012 138.3555794  51.1874699
 109.7484627 139.6782463  51.7065931 109.6556000 144.2109221  46.2372939
 109.0201833 144.2843848  46.9493844 109.3253407 144.8002820  45.5592018
 114.8854350 138.7111604  52.4417261 115.6179522 138.1410821  52.6755090
 114.1293706 138.3233205  52.8823766 104.1598929 141.6728699  45.9333914
 104.0435187 140.9973602  46.6014998 104.2701189 141.1861072  45.1166067
 106.5030470 141.1338846  49.6380603 106.1388677 140.6069467  50.3493525
 107.3597586 140.7437315  49.4647089 112.4079770 132.4233178  56.9011869
 112.0763095 133.2928589  56.6773084 111.8125384 132.1069462  57.5805900
 106.1435957 136.1628745  44.6341952 106.3110359 137.0308982  45.0012423
 105.9533126 136.3256027  43.7103241 108.9011290 144.6245724  56.3007782
 108.6012013 145.5270763  56.1923589 108.5562349 144.3577907  57.1528935
 102.3523771 141.0759521  52.3344486 101.4274268 140.9435735  52.5422178
 102.6008185 141.8553740  52.8314429 112.3008434 137.1428264  53.9805219
 111.3925311 137.0743673  53.6863980 112.2496030 137.6200209  54.8087045
 106.1225178 138.6186403  45.6188618 106.0024803 139.0643454  46.4574099
 105.4277766 138.9671721  45.0602157  99.7132582 140.7192795  53.1688276
  99.8424964 140.9727274  54.0827687  99.0330034 141.3120503  52.8492931
 103.8832070 151.3890045  49.2678750 103.8056099 152.3397870  49.3467230
 103.2793713 151.0435917  49.9253676 106.3749299 138.5617910  61.9240117
 105.5982634 139.1211830  61.9142981 107.0139863 139.0474693  62.4454987
 114.1670080 135.3444703  55.7583093 113.5244460 135.6377236  55.1122888
 113.6625009 135.2297623  56.5636290 111.8210244 139.0907876  46.4468953
 112.7328100 139.3235263  46.2716650 111.3119891 139.6744920  45.8844031
 104.6295672 141.3703363  61.4858084 105.3710356 141.9088407  61.2092907
 103.9232657 141.9969652  61.6429635 110.1051011 143.5132504  60.0830245
 110.5134367 143.0714914  59.3384877 109.3828273 142.9385131  60.3364438
 106.4582081 138.4505111  57.4563802 107.3043277 138.8744524  57.5998451
 106.3980719 137.7938735  58.1502365 110.4279826 144.0733694  53.8382534
 109.7988689 144.2379409  53.1358602 110.0405488 144.4875304  54.6093498
 114.3069058 145.0088132  51.1926898 113.6220096 145.3887034  50.6423931
 114.3912907 145.6183459  51.9258846 109.6081527 136.1109479  59.1144976
 109.3642459 136.8651540  58.5779251 109.8841457 136.4894827  59.9492223
 111.5619990 142.6548091  57.7922241 111.7736885 143.2979851  57.1156622
 111.5149738 141.8210408  57.3244171 109.1646219 135.2665912  54.6958813
 108.3030698 135.5647166  54.9875551 109.1908653 135.4836311  53.7639846
 105.9807788 143.8108103  51.1032619 106.4446133 144.0895806  50.3137242
 105.7164586 142.9091547  50.9205710 102.8731869 143.3579584  54.0412382
 103.4433226 143.7866852  53.4029867 103.4639981 143.0762169  54.7396568
 104.9176674 139.9331255  47.9122184 105.6200717 140.3852299  48.3796111
 104.5857303 139.2915074  48.5402077 103.3657036 138.5243012  62.2873394
 102.7355696 139.2059292  62.5208790 103.2593123 138.4126093  61.3426532
  98.6602008 138.1914808  53.2139318  97.8701062 138.4472336  52.7379428
  99.1513255 139.0063145  53.3191358 112.6765818 145.5320047  55.9644599
 113.4983261 145.1300234  55.6827280 112.6728220 145.4288281  56.9160714
 100.6116753 138.5559387  50.1722795  99.8147917 138.6678081  50.6906290
 100.3842346 138.8946039  49.3063685 106.4422421 145.0804090  58.1205309
 106.5066853 145.5424497  58.9563481 105.7333345 144.4501455  58.2487619
  96.9439711 138.4445298  55.6454309  97.1947749 139.3292308  55.9111885
  97.4799259 138.2649900  54.8729400 120.7671811 141.8758795  52.3129570
 120.0135519 141.3066193  52.1573575 120.9019352 141.8421460  53.2600205
 106.1570439 146.7472198  47.9884289 106.0216113 147.5923733  48.4169137
 106.6980251 146.9491475  47.2250223 102.6437778 132.8263777  64.6498645
 102.2504724 132.2729976  65.3246289 103.4603919 133.1374356  65.0405162
  99.6099836 144.2647636  48.5612215 100.1224357 145.0590886  48.7117779
 100.2622549 143.5673926  48.4945816 101.4194721 147.3813392  50.6434968
 101.5961349 148.3031357  50.4555952 102.2151554 147.0671811  51.0729348
 105.5605739 134.2421656  62.2418901 106.3015453 134.8428810  62.1623364
 105.7923662 133.4999294  61.6836944 100.7047077 139.4278024  60.5197131
 100.5900592 138.5263281  60.8204230  99.8491595 139.6741721  60.1681947
 107.7838915 147.3695764  62.1184632 107.3402769 146.5832143  61.8005536
 108.4456129 147.5574915  61.4528522 102.5426036 148.8991566  56.6445310
 103.0933461 148.7708629  55.8722304 101.7037512 149.1986455  56.2940203
 109.8820153 147.6498564  60.1466033 109.8638628 148.4707445  59.6546302
 110.8040073 147.5252639  60.3716174 106.3393207 145.1642693  60.9889541
 106.8721544 144.4030982  60.7588849 105.8107288 144.8716345  61.7313696
 109.5062902 130.2702759  56.5183183 109.1627172 131.1604401  56.4422294
 109.8741865 130.0804417  55.6552768  97.5748753 142.5936290  49.3371785
  98.4123975 143.0033298  49.1205493  97.7527021 141.6535732  49.3071979
 109.4713185 140.2611371  45.0255618 108.9559808 141.0315975  45.2644005
 109.1990493 139.5876507  45.6488679 107.0560296 135.1061071  50.0840856
 106.2001892 134.7167922  49.9046495 107.4687248 135.1853032  49.2240642
 108.5859443 132.6407415  54.4832416 108.0824238 132.6037550  53.6700221
 108.8790049 133.5500157  54.5429073 104.8302328 132.7246144  53.4898598
 105.6955325 132.5288953  53.1304487 104.8979837 132.4956496  54.4167955
 114.4447459 143.0143725  46.9608792 113.6676902 142.6754885  46.5163954
 115.1238940 143.0196348  46.2863757 109.2599488 138.1338463  46.8515399
 108.9549624 138.4484612  47.7025542 110.2129930 138.2119883  46.8942732
 107.7045920 144.2928686  48.5008353 107.1767282 143.5581446  48.1881591
 107.2033423 145.0703362  48.2548322 112.6838766 142.4877706  53.6175400
 112.0262440 143.1776968  53.7055528 113.4879165 142.8774138  53.9609386
 102.4364648 134.9548352  50.8614965 103.0108399 134.7323534  50.1288158
 103.0235630 135.0237047  51.6143566 111.4944225 140.8422079  51.6679341
 112.0076107 141.4752071  52.1701051 112.1445449 140.2423275  51.3022701
 102.7634235 136.9852813  44.8810850 101.9271547 137.3227500  45.2020125
 102.6239004 136.8501793  43.9437987 104.7387315 131.8289601  49.5890034
 104.0851728 131.5138618  48.9646649 104.6967789 131.2065342  50.3149857
 105.8498520 142.1108896  41.5043326 104.9425582 141.8798150  41.7034475
 106.3469552 141.3146515  41.6917308 108.7566599 150.8206403  44.4240012
 108.0828298 151.1238100  45.0324970 109.1432421 151.6235484  44.0745469
 107.9725056 138.3171535  53.9137682 107.0547617 138.5386482  53.7559370
 108.3885199 138.3917845  53.0549389 108.7560103 139.7162950  49.0440362
 109.5031922 140.2284348  48.7347484 109.0251693 139.3947003  49.9044756
 107.0286754 142.2121491  46.0267316 106.1197973 141.9280524  46.1239786
 107.0581837 142.6320570  45.1670623 112.2606021 145.8228081  49.7958484
 111.8068348 144.9818990  49.8523674 111.6299988 146.4589479  50.1333264
 111.2038941 136.7520067  51.0259151 110.4661697 136.2397453  51.3569394
 111.4565714 136.3120448  50.2142428 110.7038960 147.6604577  50.7308302
 110.9961935 148.2209634  50.0120668 111.2137581 147.9533138  51.4861461
 111.3050568 129.5296319  51.6200921 111.6109445 128.6693682  51.3326836
 112.0303173 130.1213939  51.4199915  97.5974924 139.9327005  50.0082519
  97.3999324 139.3396366  49.2833585  97.0421588 139.6279215  50.7258457
 105.5771648 139.8250112  52.1277112 105.6320257 138.8723948  52.0519588
 104.7662850 139.9809551  52.6118410 106.7262841 143.7530235  43.3655395
 106.2882271 143.0366094  42.9061032 107.4673282 143.9806350  42.8040486
 103.5164008 138.4427171  49.8867491 102.7031873 138.7421342  50.2932683
 104.0123002 138.0482860  50.6041973 105.6672585 148.4384928  51.8201755
 105.6248764 148.6645775  50.8910287 106.5835284 148.2048303  51.9687556
 109.1138219 138.9068996  58.7182384 109.4687607 139.1340469  59.5776850
 109.7610350 139.2387373  58.0959640 114.8435956 142.0287432  49.4231713
 114.7053855 142.2189028  48.4952903 114.4872175 142.7906815  49.8799765
 103.0078082 136.0145527  55.5028725 103.6477462 135.8734286  54.8051689
 102.1755613 135.7280040  55.1267327 114.8705336 144.0963959  54.4342985
 115.3041842 144.0039248  55.2826039 115.5836916 144.0721459  53.7963001
 103.7838386 145.3147957  51.6163718 104.5778985 144.8198278  51.4146293
 103.0730079 144.7865821  51.2531424 108.6033231 147.6966053  55.9676086
 108.6570253 148.2656989  56.7353801 107.7348012 147.8667938  55.6030123
 100.0921150 139.4591039  47.6923471  99.1618738 139.3975495  47.9093433
 100.1878622 138.9366992  46.8960112 100.0106699 135.9845852  50.2801712
 100.2713516 136.8991185  50.1710873 100.8323871 135.5170295  50.4298325
 101.4831624 137.3983609  57.4500537 102.1554677 137.1900971  56.8013186
 100.6561411 137.2005695  57.0105769 115.7320885 144.1387659  56.9675870
 115.9256775 145.0433470  57.2135145 115.6321503 143.6795079  57.8014455
 107.3857196 134.0245550  59.4666198 106.7385111 134.7235500  59.3730674
 108.1558211 134.4581694  59.8342446 110.7935994 144.2894402  62.5416751
 110.6421500 144.0604954  61.6246835 110.7840673 145.2465004  62.5548096
 107.5621330 141.8626315  57.5263017 108.4913390 142.0137475  57.3531985
 107.1412360 141.9510336  56.6711664 106.3609662 145.8876979  55.2961555
 106.2220748 145.5195764  56.1687493 105.5724258 146.4024619  55.1245513
 106.9557814 150.9886076  46.6387092 107.1309570 150.5174119  47.4532714
 106.2690602 151.6151842  46.8668352 107.9114877 145.2658582  52.6850393
 107.5764710 145.2259352  53.5808043 107.4118823 144.6003298  52.2120803
 101.8859121 140.6726212  58.2102974 101.7478919 139.9406451  58.8114513
 102.7964045 140.5835112  57.9287162 110.8474069 142.6114616  42.9587452
 110.2303240 141.8861445  42.8620505 110.3790557 143.3723977  42.6154527
 104.5141422 140.3846171  57.6986654 105.2241040 139.7439364  57.6573272
 104.4710730 140.6359066  58.6212834 112.5028201 147.3213525  60.6193233
 112.4440747 146.6372745  59.9523816 112.9047719 148.0632515  60.1673859
 103.2270356 137.3711389  59.5182293 102.6907713 136.9202128  60.1703889
 102.6387064 137.5057298  58.7752757 101.5218899 154.1375439  53.4126952
 101.7615498 154.7693963  54.0905970 100.6788096 153.7863479  53.6992311
 102.6372615 136.8300041  42.0808757 101.7602081 136.7088841  41.7171003
 103.1130368 136.0386119  41.8287645 112.5045608 145.2853109  58.8507213
 111.6172387 144.9479030  58.9733611 113.0744159 144.5536140  59.0875978
  94.1574755 141.6177200  52.1750264  94.8445795 141.3038930  51.5871279
  94.0022884 142.5218565  51.9017515  98.9609477 136.5067397  56.6035288
  98.8767666 135.8993067  55.8685698  98.1392184 136.9976415  56.6044784
 106.0346761 149.9454561  55.8168456 105.9616933 150.7509533  56.3287760
 105.5924154 150.1446527  54.9916477 105.8236541 149.1826331  49.3271277
 105.0404063 149.7248011  49.4209502 106.5229286 149.7000311  49.7265518
 109.1333191 134.9920961  51.9705483 109.6301891 134.2390923  51.6506553
 108.3620173 135.0285277  51.4048692 116.9862948 140.6961326  53.6123774
 116.9752825 141.5786041  53.2417707 116.1180328 140.3432877  53.4178311
 108.4945445 149.8441395  57.9726614 109.2073417 150.4788860  57.9002516
 108.0035473 149.9405261  57.1566616 110.2162972 143.7492648  49.5443906
 109.2819250 143.8694110  49.3748610 110.3939640 142.8465115  49.2803916
 105.7168160 137.1338344  51.6977167 105.3465947 136.5809384  52.3858073
 106.2127252 136.5296477  51.1452167 113.6035523 139.5909967  50.0793940
 114.0695975 140.4237959  50.0054243 114.0543024 139.1254949  50.7839199
 103.5457358 147.5935839  58.7932185 104.2466818 148.2272322  58.9461579
 103.0752473 147.9350570  58.0327824 111.6711754 145.9353788  47.0780092
 111.9471598 145.8210383  47.9873966 110.8016253 145.5371273  47.0392265
 111.5752186 131.9590554  54.1184842 110.6615266 132.1894781  54.2867048
 112.0045287 132.0428998  54.9698874 111.3458644 140.1480446  56.6184736
 110.6930095 140.3956353  55.9637188 111.7239024 139.3344584  56.2847213
 108.3065818 150.1840139  50.7212906 108.4888213 149.3661795  51.1840658
 109.1298804 150.4007831  50.2837796 108.6407984 149.1108324  47.9827954
 109.1695750 148.6000779  47.3698116 108.9036203 148.7950855  48.8473487
 107.3946217 140.8900257  63.1050773 106.7186854 140.7894386  63.7753148
 108.2173851 140.7339471  63.5686770  99.1425076 147.1272194  55.7263288
  99.7278513 146.3815881  55.8591192  98.9449915 147.4376150  56.6099952
 101.9963732 150.1623441  50.7425730 101.3274107 150.6469569  50.2589770
 101.8576601 150.4092661  51.6569109  93.7342731 139.6977794  54.4467731
  93.7726831 139.1641384  55.2404849  93.2283024 139.1712999  53.8278708
 106.1369000 152.1967184  57.3408389 106.6887308 152.3598806  58.1057474
 106.4775194 152.7871622  56.6688413 101.1133493 134.5442334  57.9430273
 101.1774820 135.4057165  57.5307671 101.0500614 133.9316336  57.2102632
 100.5885766 136.6165467  61.5903308 101.2157805 136.2342544  62.2040832
  99.7313685 136.3979669  61.9559000 110.9879875 147.0228442  63.1957043
 111.5319779 147.6358400  62.7011998 110.4066719 147.5808020  63.7124056
  97.3651309 138.4241896  47.5221662  97.6604750 137.5152574  47.4688716
  96.4639344 138.4029635  47.2002665 109.2737387 150.1449160  54.3272071
 109.1488527 149.3438900  53.8183016 109.9316479 150.6395353  53.8386041
 100.8945556 136.4997893  53.5049211 100.1732141 137.1133860  53.3656684
 101.6838811 137.0355657  53.4265857 111.3372296 147.9458180  55.9551621
 110.3902631 147.8263531  55.8829948 111.6855069 147.0580678  56.0377882
 103.6971869 133.8352319  59.7789863 104.2206271 134.0814616  60.5416172
 103.4784203 134.6672354  59.3593000  99.0939150 136.1055994  47.6460988
  98.7651856 135.2253373  47.4636093  99.4478521 136.0503662  48.5337377
 108.3418729 147.7410896  52.1555973 108.1943692 146.8127604  52.3363543
 109.1672223 147.7630987  51.6713048 102.2080973 136.3928963  48.0136465
 102.5477046 136.9214885  47.2915074 102.6553094 136.7309370  48.7895032
 111.9452851 148.5639455  53.2420846 112.8699398 148.3582316  53.1045297
 111.7768154 148.3155856  54.1510187 104.9024414 134.7766014  57.4639533
 104.5621235 133.9773827  57.8660213 104.1963421 135.0767725  56.8916366
 105.5540886 131.8615327  55.9166856 106.3766955 131.3875805  55.7945747
 105.7978950 132.6405810  56.4165543 104.1949121 134.8903585  46.2129758
 104.9157483 135.2684838  45.7093475 103.5714425 135.6092462  46.3164736
 108.3380243 135.5948734  47.1488090 108.5543858 136.4773372  46.8476919
 107.8574311 135.2034947  46.4193732 103.0779465 138.5534447  53.7258835
 102.9324046 138.8674750  54.6183116 102.6004669 139.1719348  53.1729734
 104.9375848 135.5436995  53.7739724 104.9237417 134.6478088  53.4372022
 105.6548276 135.5507659  54.4078011 106.7901978 135.9774335  55.8192852
 106.5319756 136.8991406  55.8177182 106.2587019 135.5804770  56.5093316
 111.7348167 149.0825122  48.5982937 111.9085045 148.5171545  47.8456790
 112.2277058 149.8826017  48.4162427  97.5525127 141.0939792  56.6646496
  97.0078595 141.8699600  56.7966770  98.4304477 141.4410596  56.5065618
 104.3412744 134.4251375  49.0427295 104.4628655 133.4968022  49.2418182
 104.0514786 134.4390061  48.1305610 107.2103934 132.1106286  52.1794014
 107.2325631 132.1745619  51.2245994 107.6271993 131.2710795  52.3734521
 117.5887558 141.8461545  50.2173237 118.0318704 141.0968871  49.8192360
 116.7114069 141.8371682  49.8346969 112.7223340 148.3991887  45.6979836
 113.4174244 149.0198580  45.9167150 113.0646490 147.5487238  45.9732213
  98.3391149 140.2209688  59.5576653  97.5972885 140.3692323  60.1441283
  98.0183893 140.4817953  58.6943402 114.6214763 145.8491592  47.2267166
 115.1466087 146.1878865  46.5016486 114.5337115 144.9138608  47.0430301
 106.2834812 149.7625666  59.3557043 106.5921938 149.5174813  60.2279743
 107.0810294 149.9672305  58.8675913 106.3055424 151.9163576  51.5862420
 105.8660414 151.4239954  52.2795276 107.0563541 151.3736543  51.3454495
  98.7847763 148.1075117  51.5887048  99.6105782 147.8078888  51.2085691
  98.4341815 147.3382739  52.0376836 103.7529296 147.4601585  53.6584721
 103.1309305 146.7972290  53.3586949 104.4234163 147.4862717  52.9758369
  96.9856368 146.0261443  52.5475981  96.1488276 145.5983617  52.3659982
  96.9580013 146.2193886  53.4846772 103.8253823 135.9383373  63.2517227
 103.8741979 136.8145496  62.8694997 104.3676337 135.3960766  62.6788870
 114.3108669 146.4824496  62.5318364 113.5204213 146.4648635  61.9922864
 114.0742023 147.0212790  63.2867401 114.4306544 143.3316962  59.8451093
 114.4804549 143.1666970  60.7866616 114.3220467 142.4644221  59.4548974
 103.3142803 146.0105508  47.1343182 103.4630923 146.6940973  46.4809854
 104.1209246 145.9910598  47.6492637 111.7210306 139.3147890  61.1610400
 112.6220169 139.1754355  60.8694397 111.7958281 139.4802345  62.1008577
 106.0553112 136.6914745  60.0063586 105.1856421 136.9848311  59.7346174
 106.2912592 137.2755190  60.7270850 115.9324741 145.7513904  60.0893114
 115.6409549 146.1143885  60.9256575 115.3196872 145.0380912  59.9106446
 117.1320423 143.3166784  52.6095685 117.9667314 143.7556588  52.7733245
 117.2679552 142.8405437  51.7903930 114.1811929 140.8746519  58.5573172
 114.6566051 141.0674165  57.7492024 113.2577494 140.9305704  58.3116556
 101.0695436 142.0370686  48.1404251 100.8241478 141.1333016  48.3384461
 101.2391350 142.0387836  47.1983729 108.7592146 132.9094362  57.5229006
 109.2774089 133.6455389  57.1975495 108.4047278 133.2158355  58.3575765
 100.3391083 137.7699043  45.6390412  99.6460328 137.8443398  44.9830448
 100.0942835 137.0059387  46.1611929 109.0104740 129.3294645  53.0429903
 109.2906493 128.6617834  53.6690329 109.7955347 129.5223740  52.5304567
 106.8138208 148.5053639  44.6054929 106.2412175 149.1243826  44.1525401
 107.3871002 149.0553000  45.1394851 112.8813598 137.7512279  56.7901478
 113.8331021 137.8510376  56.8113702 112.7117048 136.9590547  57.2999562
 110.9027977 134.8367862  56.9760879 110.3077910 135.1172875  56.2807368
 110.6177674 135.3261763  57.7477620 110.0335468 148.7890789  45.7363511
 110.9666141 148.7236350  45.9396387 109.9458681 149.6247056  45.2778044
 112.6623485 148.1056659  42.6967459 112.5837116 147.7716523  43.5903217
 113.4833151 148.5978427  42.6958931 115.3601676 140.9718398  55.9043778
 115.3277996 140.0334399  56.0903461 115.9702299 141.0502435  55.1709603
 107.1985007 139.8414451  41.9470982 108.1444111 139.7120659  42.0159400
 106.8199252 139.1029113  42.4240410 115.5096164 137.7629442  55.9502061
 114.9935213 136.9787898  55.7631990 116.3936113 137.4348158  56.1148580
 113.1706891 131.5070457  51.9097873 112.9731712 131.1985546  52.7941205
 113.7806597 132.2332096  52.0395803 121.1778226 142.0334405  55.0449814
 121.9081614 141.7719693  55.6057518 120.5685171 141.2963127  55.0851882
 119.2593523 140.1742268  55.6424266 118.5326686 140.0398233  55.0340757
 118.8440810 140.4819096  56.4480984 107.0823699 143.8932197  63.4071639
 108.0026709 144.0710796  63.6011685 107.0473282 142.9488243  63.2551338
 105.3827924 137.7664428  41.8825867 104.4759379 137.4697540  41.9588581
 105.6603905 137.4694246  41.0160153  96.3005864 139.0870791  52.3324913
  95.9808649 138.2336099  52.0399287  95.7539292 139.3019369  53.0882881
 100.0785772 141.8033232  56.0494420 100.2971782 142.7350340  56.0682454
 100.4911546 141.4441207  56.8349224 106.9989990 132.3101317  48.0370108
 106.1890718 131.9648402  48.4125354 107.6874406 132.0008861  48.6257720
 108.9280538 131.3879364  49.6594405 109.4811576 131.8074818  50.3184428
 109.1650624 130.4615112  49.7017361 104.9513637 137.3766438  65.4397169
 104.8510364 138.3260795  65.3709260 104.7335179 137.0484677  64.5673239
 104.1526708 134.6251363  42.0237846 105.0145872 134.9506261  42.2833663
 104.3377053 133.8382859  41.5110912  96.1694124 142.7073703  54.3018035
  95.4757596 142.2927655  53.7887989  96.9167115 142.7494239  53.7051454
 112.3059345 133.4979889  49.1673069 111.7258014 134.1564693  48.7851122
 112.0395278 132.6757234  48.7560487 110.7562911 132.8984947  51.3694389
 111.2562690 133.0101482  50.5608708 111.3998519 132.5946000  52.0095198
 104.8144907 140.8063577  64.2562230 104.3311989 141.6063937  64.4626119
 104.9005846 140.8171522  63.3029674  98.0830867 142.6391956  52.1784050
  98.0601555 142.7379644  51.2265933  98.3931503 143.4857107  52.5001216
 100.7418245 144.6968111  56.2930664 101.6961498 144.6652054  56.2260596
 100.5430768 144.2358735  57.1080890 101.3317627 143.2669227  58.8601462
 102.1510516 143.7613306  58.8836299 101.6054434 142.3501196  58.8319029
 111.0884223 135.6579980  48.2229417 110.2010078 135.9429630  48.0049612
 111.5038212 135.4973743  47.3756694 114.4398759 135.6826501  51.9383757
 115.2159149 136.1722953  52.2108373 113.7146893 136.1084555  52.3955626
 116.8771318 136.3954120  52.9957697 117.4715809 136.1549856  52.2851005
 116.9497901 135.6761251  53.6231234  99.0968473 150.2387731  53.3100862
  98.9622941 149.4788132  52.7438860  98.6800536 150.9628631  52.8429651
 110.2327436 145.4224654  42.3177437 110.9363287 145.6274657  42.9335093
 109.5090085 145.9901416  42.5826521 111.0625247 141.1734516  48.4379708
 111.0060448 141.6303067  47.5987340 111.6153589 140.4125200  48.2602550
 114.8730053 136.9624248  49.2629827 114.6166987 136.5620883  50.0938035
 114.2482921 137.6768042  49.1379966 119.1842390 139.7020321  51.7701118
 118.6241948 139.7713510  52.5432680 118.5785894 139.5261305  51.0500615
 102.2537599 151.1357048  53.5219305 102.1369983 152.0802480  53.4197995
 101.4330046 150.8330610  53.9105104 112.1414134 145.8607184  44.3675897
 112.9759738 145.4288382  44.1853372 111.9798477 145.6889197  45.2952792
 111.7960026 142.3639297  45.7332237 111.7408830 142.1983568  44.7920681
 111.1706081 143.0715330  45.8894426  96.5852541 137.6007361  59.5593659
  97.2311405 137.0906315  60.0480884  96.3769692 138.3376043  60.1337084
 109.1105933 144.6688209  65.0585799 109.9797093 144.8428861  64.6972434
 108.6312685 145.4882626  64.9361529 105.1056151 131.8647406  45.3117555
 105.0934821 132.8089246  45.4685826 105.9979573 131.6817551  45.0177016
 103.2792113 151.7885310  56.7375233 104.1819360 151.8208920  57.0541728
 103.0529483 150.8585761  56.7521569 105.0345715 150.5416296  53.3985312
 104.0841346 150.5418158  53.2849684 105.3378202 149.7949031  52.8821346
 108.9208271 128.4590183  49.5663492 108.1540667 127.9048669  49.7120174
 109.3318976 128.5312051  50.4277644 100.9250032 134.7474978  63.6568673
 101.7881494 134.3911783  63.8671998 100.3515443 134.4088873  64.3444077
 120.7698409 156.3776835  54.4631074 121.4076819 156.2583582  53.7594414
 120.6519252 157.3257679  54.5219026 117.5788115 156.3304263  54.3992599
 117.2406627 156.2145328  53.5113134 118.4477883 155.9295428  54.3793605
 113.4374931 158.1839739  50.3889490 112.8739796 158.0929676  49.6205778
 113.3227326 157.3639644  50.8691982 118.0607898 157.4839115  60.3578804
 118.0496539 157.0891913  59.4859308 118.2228538 156.7505187  60.9512576
 110.9839363 159.6790931  53.2273710 111.7760655 159.3381756  52.8120010
 111.2236013 159.7885906  54.1475864 112.9430117 158.9399844  46.0991089
 113.7160993 158.3928831  45.9603965 113.2955516 159.8044093  46.3105550
 114.7815159 160.2676226  59.3057988 114.4905025 161.1721857  59.1904655
 115.4172144 160.3092754  60.0202058 115.7071366 157.6453075  55.8959348
 116.3034938 157.4209097  55.1816311 115.7646338 156.9037820  56.4984796
 115.2796395 155.0992510  43.7309539 115.5321915 154.5774032  42.9693002
 114.3420954 154.9358656  43.8336223 120.3239677 154.1028289  51.5384282
 121.1102767 153.6847712  51.1874699 120.5878382 155.0074381  51.7065931
 120.4949755 159.5401139  46.2372939 119.8595588 159.6135765  46.9493844
 120.1647161 160.1294738  45.5592018 125.7248105 154.0403522  52.4417261
 126.4573276 153.4702739  52.6755090 124.9687460 153.6525122  52.8823766
 114.9992683 157.0020616  45.9333914 114.8828941 156.3265520  46.6014998
 115.1094943 156.5152990  45.1166067 117.3424224 156.4630763  49.6380603
 116.9782431 155.9361384  50.3493525 118.1991340 156.0729232  49.4647089
 123.2473525 147.7525096  56.9011869 122.9156850 148.6220507  56.6773084
 122.6519138 147.4361380  57.5805900 116.9829711 151.4920663  44.6341952
 117.1504114 152.3600899  45.0012423 116.7926880 151.6547945  43.7103241
 119.7405044 159.9537642  56.3007782 119.4405767 160.8562681  56.1923589
 119.3956104 159.6869825  57.1528935 113.1917526 156.4051439  52.3344486
 112.2668022 156.2727653  52.5422178 113.4401939 157.1845658  52.8314429
 123.1402188 152.4720182  53.9805219 122.2319066 152.4035591  53.6863980
 123.0889784 152.9492127  54.8087045 116.9618932 153.9478321  45.6188618
 116.8418557 154.3935371  46.4574099 116.2671520 154.2963638  45.0602157
 110.5526337 156.0484712  53.1688276 110.6818718 156.3019191  54.0827687
 109.8723788 156.6412420  52.8492931 117.2143054 153.8909828  61.9240117
 116.4376388 154.4503748  61.9142981 117.8533617 154.3766611  62.4454987
 125.0063835 150.6736621  55.7583093 124.3638215 150.9669154  55.1122888
 124.5018763 150.5589541  56.5636290 122.6603998 154.4199794  46.4468953
 123.5721854 154.6527180  46.2716650 122.1513645 155.0036838  45.8844031
 115.4689426 156.6995281  61.4858084 116.2104111 157.2380325  61.2092907
 114.7626412 157.3261570  61.6429635 120.9444766 158.8424422  60.0830245
 121.3528122 158.4006832  59.3384877 120.2222027 158.2677049  60.3364438
 117.2975836 153.7797028  57.4563802 118.1437031 154.2036442  57.5998451
 117.2374474 153.1230653  58.1502365 121.2673581 159.4025612  53.8382534
 120.6382443 159.5671326  53.1358602 120.8799243 159.8167222  54.6093498
 120.4475281 151.4401397  59.1144976 120.2036213 152.1943457  58.5779251
 120.7235212 151.8186744  59.9492223 122.4013744 157.9840009  57.7922241
 122.6130639 158.6271769  57.1156622 122.3543492 157.1502326  57.3244171
 120.0039973 150.5957830  54.6958813 119.1424452 150.8939083  54.9875551
 120.0302408 150.8128229  53.7639846 116.8201542 159.1400020  51.1032619
 117.2839888 159.4187723  50.3137242 116.5558341 158.2383465  50.9205710
 113.7125624 158.6871502  54.0412382 114.2826981 159.1158770  53.4029867
 114.3033735 158.4054086  54.7396568 115.7570429 155.2623173  47.9122184
 116.4594472 155.7144216  48.3796111 115.4251057 154.6206991  48.5402077
 114.2050790 153.8534929  62.2873394 113.5749451 154.5351210  62.5208790
 114.0986878 153.7418011  61.3426532 109.4995762 153.5206725  53.2139318
 108.7094816 153.7764254  52.7379428 109.9907010 154.3355063  53.3191358
 123.5159572 160.8611964  55.9644599 124.3377016 160.4592152  55.6827280
 123.5121975 160.7580199  56.9160714 111.4510508 153.8851305  50.1722795
 110.6541671 153.9969999  50.6906290 111.2236100 154.2237957  49.3063685
 117.2816175 160.4096008  58.1205309 117.3460608 160.8716415  58.9563481
 116.5727099 159.7793373  58.2487619 107.7833465 153.7737216  55.6454309
 108.0341504 154.6584226  55.9111885 108.3193014 153.5941817  54.8729400
 116.9964193 162.0764115  47.9884289 116.8609868 162.9215651  48.4169137
 117.5374006 162.2783393  47.2250223 113.4831533 148.1555695  64.6498645
 113.0898478 147.6021894  65.3246289 114.2997673 148.4666274  65.0405162
 110.4493591 159.5939553  48.5612215 110.9618111 160.3882804  48.7117779
 111.1016303 158.8965844  48.4945816 112.2588475 162.7105310  50.6434968
 112.4355104 163.6323274  50.4555952 113.0545309 162.3963729  51.0729348
 116.3999494 149.5713574  62.2418901 117.1409207 150.1720727  62.1623364
 116.6317417 148.8291212  61.6836944 111.5440832 154.7569941  60.5197131
 111.4294347 153.8555199  60.8204230 110.6885350 155.0033638  60.1681947
 118.6232670 162.6987682  62.1184632 118.1796524 161.9124060  61.8005536
 119.2849883 162.8866832  61.4528522 113.3819791 164.2283483  56.6445310
 113.9327216 164.1000547  55.8722304 112.5431267 164.5278372  56.2940203
 117.1786962 160.4934611  60.9889541 117.7115299 159.7322899  60.7588849
 116.6501043 160.2008263  61.7313696 120.3456657 145.5994677  56.5183183
 120.0020926 146.4896319  56.4422294 120.7135619 145.4096335  55.6552768
 108.4142507 157.9228208  49.3371785 109.2517729 158.3325216  49.1205493
 108.5920775 156.9827650  49.3071979 120.3106939 155.5903288  45.0255618
 119.7953563 156.3607893  45.2644005 120.0384248 154.9168424  45.6488679
 117.8954050 150.4352989  50.0840856 117.0395647 150.0459839  49.9046495
 118.3081002 150.5144950  49.2240642 119.4253197 147.9699332  54.4832416
 118.9217993 147.9329467  53.6700221 119.7183804 148.8792075  54.5429073
 115.6696083 148.0538062  53.4898598 116.5349080 147.8580871  53.1304487
 115.7373592 147.8248414  54.4167955 120.0993243 153.4630380  46.8515399
 119.7943378 153.7776529  47.7025542 121.0523685 153.5411800  46.8942732
 118.5439674 159.6220604  48.5008353 118.0161036 158.8873363  48.1881591
 118.0427177 160.3995280  48.2548322 123.5232520 157.8169624  53.6175400
 122.8656195 158.5068886  53.7055528 124.3272920 158.2066056  53.9609386
 113.2758402 150.2840270  50.8614965 113.8502154 150.0615451  50.1288158
 113.8629384 150.3528964  51.6143566 122.3337979 156.1713997  51.6679341
 122.8469861 156.8043989  52.1701051 122.9839203 155.5715192  51.3022701
 113.6027989 152.3144731  44.8810850 112.7665301 152.6519417  45.2020125
 113.4632759 152.1793711  43.9437987 115.5781070 147.1581519  49.5890034
 114.9245482 146.8430536  48.9646649 115.5361544 146.5357259  50.3149857
 118.8118810 153.6463452  53.9137682 117.8941371 153.8678399  53.7559370
 119.2278954 153.7209763  53.0549389 119.5953858 155.0454868  49.0440362
 120.3425677 155.5576265  48.7347484 119.8645447 154.7238921  49.9044756
 117.8680508 157.5413409  46.0267316 116.9591727 157.2572442  46.1239786
 117.8975592 157.9612487  45.1670623 123.0999775 161.1519998  49.7958484
 122.6462103 160.3110908  49.8523674 122.4693742 161.7881397  50.1333264
 122.0432695 152.0811984  51.0259151 121.3055452 151.5689371  51.3569394
 122.2959469 151.6412366  50.2142428 122.1444322 144.8588236  51.6200921
 122.4503199 143.9985600  51.3326836 122.8696927 145.4505856  51.4199915
 108.4368678 155.2618923  50.0082519 108.2393078 154.6688284  49.2833585
 107.8815342 154.9571133  50.7258457 116.4165402 155.1542029  52.1277112
 116.4714012 154.2015866  52.0519588 115.6056604 155.3101468  52.6118410
 114.3557762 153.7719089  49.8867491 113.5425628 154.0713260  50.2932683
 114.8516756 153.3774778  50.6041973 116.5066340 163.7676846  51.8201755
 116.4642519 163.9937692  50.8910287 117.4229039 163.5340221  51.9687556
 119.9531974 154.2360914  58.7182384 120.3081361 154.4632387  59.5776850
 120.6004105 154.5679290  58.0959640 125.6829711 157.3579349  49.4231713
 125.5447609 157.5480945  48.4952903 125.3265929 158.1198732  49.8799765
 113.8471837 151.3437445  55.5028725 114.4871216 151.2026204  54.8051689
 113.0149367 151.0571958  55.1267327 114.6232141 160.6439875  51.6163718
 115.4172739 160.1490195  51.4146293 113.9123833 160.1157738  51.2531424
 119.4426985 163.0257971  55.9676086 119.4964007 163.5948907  56.7353801
 118.5741767 163.1959856  55.6030123 110.9314904 154.7882957  47.6923471
 110.0012492 154.7267412  47.9093433 111.0272376 154.2658910  46.8960112
 110.8500453 151.3137770  50.2801712 111.1107270 152.2283103  50.1710873
 111.6717626 150.8462212  50.4298325 112.3225379 152.7275527  57.4500537
 112.9948432 152.5192889  56.8013186 111.4955165 152.5297613  57.0105769
 118.2250951 149.3537468  59.4666198 117.5778866 150.0527417  59.3730674
 118.9951966 149.7873612  59.8342446 121.6329748 159.6186320  62.5416751
 121.4815255 159.3896872  61.6246835 121.6234428 160.5756921  62.5548096
 118.4015085 157.1918233  57.5263017 119.3307145 157.3429392  57.3531985
 117.9806115 157.2802253  56.6711664 117.2003417 161.2168897  55.2961555
 117.0614502 160.8487681  56.1687493 116.4118013 161.7316536  55.1245513
 118.7508632 160.5950500  52.6850393 118.4158464 160.5551270  53.5808043
 118.2512577 159.9295216  52.2120803 112.7252876 156.0018130  58.2102974
 112.5872674 155.2698369  58.8114513 113.6357799 155.9127030  57.9287162
 115.3535176 155.7138089  57.6986654 116.0634795 155.0731281  57.6573272
 115.3104485 155.9650984  58.6212834 114.0664110 152.7003307  59.5182293
 113.5301467 152.2494045  60.1703889 113.4780819 152.8349216  58.7752757
 113.4766369 152.1591958  42.0808757 112.5995836 152.0380759  41.7171003
 113.9524122 151.3678037  41.8287645 123.3439362 160.6145026  58.8507213
 122.4566141 160.2770948  58.9733611 123.9137913 159.8828058  59.0875978
 104.9968510 156.9469118  52.1750264 105.6839549 156.6330848  51.5871279
 104.8416638 157.8510483  51.9017515 109.8003232 151.8359315  56.6035288
 109.7161420 151.2284984  55.8685698 108.9785938 152.3268333  56.6044784
 116.6630295 164.5118249  49.3271277 115.8797817 165.0539929  49.4209502
 117.3623041 165.0292228  49.7265518 119.9726946 150.3212878  51.9705483
 120.4695645 149.5682841  51.6506553 119.2013927 150.3577195  51.4048692
 127.8256703 156.0253244  53.6123774 127.8146579 156.9077959  53.2417707
 126.9574082 155.6724795  53.4178311 121.0556726 159.0784565  49.5443906
 120.1213005 159.1986028  49.3748610 121.2333395 158.1757032  49.2803916
 116.5561914 152.4630261  51.6977167 116.1859702 151.9101302  52.3858073
 117.0521007 151.8588395  51.1452167 124.4429278 154.9201885  50.0793940
 124.9089730 155.7529876  50.0054243 124.8936778 154.4546866  50.7839199
 114.3851113 162.9227756  58.7932185 115.0860572 163.5564239  58.9461579
 113.9146228 163.2642488  58.0327824 122.5105509 161.2645706  47.0780092
 122.7865353 161.1502301  47.9873966 121.6410007 160.8663191  47.0392265
 122.4145940 147.2882472  54.1184842 121.5009020 147.5186699  54.2867048
 122.8439042 147.3720916  54.9698874 122.1852399 155.4772364  56.6184736
 121.5323849 155.7248271  55.9637188 122.5632779 154.6636502  56.2847213
 118.2339972 156.2192175  63.1050773 117.5580609 156.1186304  63.7753148
 119.0567606 156.0631388  63.5686770 109.9818831 162.4564111  55.7263288
 110.5672268 161.7107799  55.8591192 109.7843669 162.7668068  56.6099952
 112.8357486 165.4915359  50.7425730 112.1667861 165.9761486  50.2589770
 112.6970356 165.7384579  51.6569109 104.5736486 155.0269711  54.4467731
 104.6120585 154.4933302  55.2404849 104.0676778 154.5004917  53.8278708
 111.9527248 149.8734252  57.9430273 112.0168574 150.7349083  57.5307671
 111.8894368 149.2608254  57.2102632 111.4279520 151.9457385  61.5903308
 112.0551559 151.5634462  62.2040832 110.5707439 151.7271586  61.9559000
 108.2045063 153.7533814  47.5221662 108.4998504 152.8444492  47.4688716
 107.3033099 153.7321553  47.2002665 111.7339310 151.8289810  53.5049211
 111.0125896 152.4425778  53.3656684 112.5232566 152.3647575  53.4265857
 114.5365624 149.1644237  59.7789863 115.0600026 149.4106533  60.5416172
 114.3177957 149.9964272  59.3593000 109.9332905 151.4347911  47.6460988
 109.6045611 150.5545290  47.4636093 110.2872275 151.3795580  48.5337377
 119.1812484 163.0702814  52.1555973 119.0337446 162.1419521  52.3363543
 120.0065977 163.0922905  51.6713048 113.0474728 151.7220881  48.0136465
 113.3870800 152.2506802  47.2915074 113.4946848 152.0601287  48.7895032
 115.7418169 150.1057932  57.4639533 115.4014989 149.3065745  57.8660213
 115.0357175 150.4059643  56.8916366 116.3934641 147.1907244  55.9166856
 117.2160710 146.7167722  55.7945747 116.6372704 147.9697728  56.4165543
 115.0342875 150.2195503  46.2129758 115.7551238 150.5976755  45.7093475
 114.4108179 150.9384379  46.3164736 119.1773998 150.9240652  47.1488090
 119.3937612 151.8065290  46.8476919 118.6968065 150.5326865  46.4193732
 113.9173219 153.8826365  53.7258835 113.7717800 154.1966668  54.6183116
 113.4398423 154.5011265  53.1729734 115.7769602 150.8728913  53.7739724
 115.7631171 149.9770006  53.4372022 116.4942030 150.8799577  54.4078011
 117.6295733 151.3066253  55.8192852 117.3713511 152.2283324  55.8177182
 117.0980773 150.9096688  56.5093316 108.3918882 156.4231709  56.6646496
 107.8472350 157.1991517  56.7966770 109.2698231 156.7702514  56.5065618
 115.1806498 149.7543293  49.0427295 115.3022409 148.8259939  49.2418182
 114.8908541 149.7681979  48.1305610 118.0497689 147.4398204  52.1794014
 118.0719385 147.5037537  51.2245994 118.4665748 146.6002712  52.3734521
 128.4281313 157.1753463  50.2173237 128.8712459 156.4260788  49.8192360
 127.5507823 157.1663599  49.8346969 109.1784903 155.5501606  59.5576653
 108.4366639 155.6984241  60.1441283 108.8577648 155.8109871  58.6943402
 109.6241517 163.4367034  51.5887048 110.4499537 163.1370806  51.2085691
 109.2735569 162.6674657  52.0376836 114.5923050 162.7893502  53.6584721
 113.9703060 162.1264208  53.3586949 115.2627917 162.8154634  52.9758369
 107.8250122 161.3553361  52.5475981 106.9882030 160.9275535  52.3659982
 107.7973768 161.5485804  53.4846772 114.6647578 151.2675291  63.2517227
 114.7135733 152.1437413  62.8694997 115.2070092 150.7252684  62.6788870
 125.2700298 158.6608880  59.8451093 125.3198303 158.4958888  60.7866616
 125.1614222 157.7936139  59.4548974 114.1536557 161.3397426  47.1343182
 114.3024678 162.0232890  46.4809854 114.9603001 161.3202516  47.6492637
 122.5604061 154.6439808  61.1610400 123.4613924 154.5046273  60.8694397
 122.6352035 154.8094263  62.1008577 116.8946866 152.0206663  60.0063586
 116.0250176 152.3140229  59.7346174 117.1306347 152.6047108  60.7270850
 125.0205684 156.2038436  58.5573172 125.4959805 156.3966083  57.7492024
 124.0971249 156.2597622  58.3116556 111.9089190 157.3662603  48.1404251
 111.6635232 156.4624933  48.3384461 112.0785105 157.3679754  47.1983729
 119.5985900 148.2386280  57.5229006 120.1167844 148.9747307  57.1975495
 119.2441033 148.5450273  58.3575765 111.1784838 153.0990961  45.6390412
 110.4854083 153.1735316  44.9830448 110.9336590 152.3351305  46.1611929
 119.8498494 144.6586562  53.0429903 120.1300248 143.9909751  53.6690329
 120.6349101 144.8515658  52.5304567 123.7207353 153.0804196  56.7901478
 124.6724775 153.1802294  56.8113702 123.5510803 152.2882465  57.2999562
 121.7421732 150.1659780  56.9760879 121.1471664 150.4464792  56.2807368
 121.4571429 150.6553681  57.7477620 126.1995430 156.3010316  55.9043778
 126.1671750 155.3626317  56.0903461 126.8096054 156.3794353  55.1709603
 118.0378761 155.1706369  41.9470982 118.9837866 155.0412577  42.0159400
 117.6593006 154.4321031  42.4240410 126.3489919 153.0921359  55.9502061
 125.8328967 152.3079816  55.7631990 127.2329867 152.7640076  56.1148580
 124.0100646 146.8362375  51.9097873 123.8125467 146.5277463  52.7941205
 124.6200351 147.5624014  52.0395803 130.0987277 155.5034185  55.6424266
 129.3720441 155.3690150  55.0340757 129.6834564 155.8111014  56.4480984
 117.9217454 159.2224115  63.4071639 118.8420463 159.4002714  63.6011685
 117.8867037 158.2780161  63.2551338 116.2221678 153.0956345  41.8825867
 115.3153134 152.7989458  41.9588581 116.4997659 152.7986163  41.0160153
 107.1399619 154.4162709  52.3324913 106.8202403 153.5628017  52.0399287
 106.5933047 154.6311287  53.0882881 110.9179526 157.1325150  56.0494420
 111.1365536 158.0642258  56.0682454 111.3305300 156.7733124  56.8349224
 117.8383744 147.6393235  48.0370108 117.0284472 147.2940320  48.4125354
 118.5268161 147.3300779  48.6257720 119.7674292 146.7171282  49.6594405
 120.3205331 147.1366735  50.3184428 120.0044379 145.7907030  49.7017361
 115.7907392 152.7058356  65.4397169 115.6904118 153.6552713  65.3709260
 115.5728934 152.3776594  64.5673239 114.9920463 149.9543281  42.0237846
 115.8539627 150.2798179  42.2833663 115.1770807 149.1674777  41.5110912
 107.0087879 158.0365620  54.3018035 106.3151350 157.6219573  53.7887989
 107.7560870 158.0786157  53.7051454 123.1453099 148.8271807  49.1673069
 122.5651768 149.4856611  48.7851122 122.8789032 148.0049152  48.7560487
 121.5956666 148.2276865  51.3694389 122.0956444 148.3393399  50.5608708
 122.2392274 147.9237918  52.0095198 115.6538662 156.1355494  64.2562230
 115.1705743 156.9355855  64.4626119 115.7399601 156.1463439  63.3029674
 108.9224621 157.9683874  52.1784050 108.8995309 158.0671561  51.2265933
 109.2325258 158.8149025  52.5001216 111.5811999 160.0260029  56.2930664
 112.5355253 159.9943971  56.2260596 111.3824523 159.5650653  57.1080890
 112.1711381 158.5961145  58.8601462 112.9904270 159.0905224  58.8836299
 112.4448189 157.6793113  58.8319029 121.9277977 150.9871897  48.2229417
 121.0403832 151.2721548  48.0049612 122.3431967 150.8265661  47.3756694
 125.2792514 151.0118418  51.9383757 126.0552904 151.5014871  52.2108373
 124.5540648 151.4376473  52.3955626 127.7165072 151.7246038  52.9957697
 128.3109563 151.4841774  52.2851005 127.7891656 151.0053168  53.6231234
 109.9362228 165.5679649  53.3100862 109.8016696 164.8080049  52.7438860
 109.5194290 166.2920548  52.8429651 121.9019001 156.5026433  48.4379708
 121.8454203 156.9594985  47.5987340 122.4547344 155.7417118  48.2602550
 125.7123807 152.2916165  49.2629827 125.4560741 151.8912801  50.0938035
 125.0876675 153.0059959  49.1379966 130.0236145 155.0312239  51.7701118
 129.4635703 155.1005428  52.5432680 129.4179648 154.8553223  51.0500615
 113.0931354 166.4648966  53.5219305 112.9763738 167.4094398  53.4197995
 112.2723800 166.1622527  53.9105104 122.6353780 157.6931215  45.7332237
 122.5802584 157.5275486  44.7920681 122.0099836 158.4007248  45.8894426
 107.4246295 152.9299279  59.5593659 108.0705159 152.4198233  60.0480884
 107.2163447 153.6667961  60.1337084 119.9499688 159.9980127  65.0585799
 120.8190847 160.1720779  64.6972434 119.4706439 160.8174543  64.9361529
 115.9449906 147.1939324  45.3117555 115.9328576 148.1381164  45.4685826
 116.8373328 147.0109469  45.0177016 114.1185868 167.1177228  56.7375233
 115.0213115 167.1500838  57.0541728 113.8923238 166.1877678  56.7521569
 115.8739470 165.8708214  53.3985312 114.9235101 165.8710076  53.2849684
 116.1771956 165.1240949  52.8821346 119.7602025 143.7882100  49.5663492
 118.9934421 143.2340587  49.7120174 120.1712730 143.8603969  50.4277644
 111.7643786 150.0766896  63.6568673 112.6275248 149.7203701  63.8671998
 111.1909197 149.7380791  64.3444077  31.3457864  11.8565896  47.0824111
  31.3346504  11.4618694  46.2104615  31.5078503  11.1231968  47.6757882
  28.0665125  14.6403008  46.0303295  27.7754991  15.5448638  45.9149961
  28.7022109  14.6819535  46.7447365  33.0255010  14.3264423  43.0253089
  32.7255733  15.2289462  42.9168896  32.6806069  14.0596606  43.8774242
  30.4993019   8.2636609  48.6485423  29.7226353   8.8230529  48.6388288
  31.1383582   8.7493392  49.1700293  28.7539392  11.0722062  48.2103390
  29.4954076  11.6107106  47.9338214  28.0476377  11.6988351  48.3674942
  34.2294731  13.2151203  46.8075552  34.6378087  12.7733613  46.0630184
  33.5071993  12.6403830  47.0609745  30.5825801   8.1523809  44.1809109
  31.4286997   8.5763223  44.3243758  30.5224439   7.4957434  44.8747672
  34.5523546  13.7752393  40.5627841  33.9232408  13.9398107  39.8603908
  34.1649208  14.1894003  41.3338805  38.4312778  14.7106831  37.9172204
  37.7463816  15.0905733  37.3669238  38.5156627  15.3202158  38.6504152
  33.7325247   5.8128178  45.8390282  33.4886179   6.5670238  45.3024558
  34.0085177   6.1913525  46.6737529  35.6863709  12.3566790  44.5167548
  35.8980605  12.9998550  43.8401929  35.6393458  11.5229107  44.0489478
  27.4900755   8.2261710  49.0118700  26.8599416   8.9077991  49.2454097
  27.3836843   8.1144792  48.0671839  36.8009537  15.2338746  42.6889905
  37.6226981  14.8318933  42.4072587  36.7971940  15.1306980  43.6406021
  30.5666141  14.7822789  44.8450616  30.6310573  15.2443196  45.6808788
  29.8577065  14.1520154  44.9732926  44.8915530  11.5777494  39.0374877
  44.1379239  11.0084892  38.8818881  45.0263072  11.5440159  39.9845511
  29.6849459   3.9440355  48.9664208  30.4259172   4.5447508  48.8868670
  29.9167382   3.2017993  48.4082250  24.8290797   9.1296723  47.2442438
  24.7144312   8.2281980  47.5449536  23.9735315   9.3760419  46.8927254
  31.9082635  17.0714463  48.8429938  31.4646489  16.2850841  48.5250843
  32.5699848  17.2593613  48.1773829  26.6669756  18.6010265  43.3690617
  27.2177181  18.4727328  42.5967611  25.8281232  18.9005154  43.0185509
  34.0063873  17.3517263  46.8711339  33.9882348  18.1726144  46.3791609
  34.9283793  17.2271338  47.0961481  30.4636927  14.8661392  47.7134848
  30.9965264  14.1049681  47.4834156  29.9351008  14.5735044  48.4559002
  36.8082486  12.1896405  40.3420706  36.1506160  12.8795667  40.4300835
  37.6122885  12.5792837  40.6854692  34.8282680  17.3623276  37.4553609
  35.1205654  17.9228333  36.7365974  35.3381301  17.6551837  38.2106768
  33.2381939   8.6087695  45.4427691  33.5931327   8.8359168  46.3022157
  33.8854070   8.9406072  44.8204946  38.9949056  13.7982658  41.1588292
  39.4285562  13.7057947  42.0071346  39.7080636  13.7740158  40.5208308
  32.7276950  17.3984752  42.6921392  32.7813973  17.9675688  43.4599108
  31.8591732  17.5686637  42.3275429  39.8564605  13.8406358  43.6921177
  40.0500495  14.7452169  43.9380452  39.7565223  13.3813777  44.5259762
  31.5100916   3.7264249  46.1911504  30.8628831   4.4254199  46.0975981
  32.2801931   4.1600393  46.5587753  34.9179714  13.9913101  49.2662058
  34.7665220  13.7623653  48.3492141  34.9084393  14.9483702  49.2793403
  31.6865050  11.5645014  44.2508324  32.6157110  11.7156173  44.0777291
  31.2656080  11.6529035  43.3956971  30.4853382  15.5895678  42.0206862
  30.3464468  15.2214463  42.8932800  29.6967978  16.1043318  41.8490819
  26.0102841  10.3744911  44.9348281  25.8722639   9.6425150  45.5359820
  26.9207765  10.2853811  44.6532468  28.6385142  10.0864870  44.4231960
  29.3484760   9.4458062  44.3818579  28.5954450  10.3377765  45.3458141
  36.6271920  17.0232224  47.3438539  36.5684467  16.3391444  46.6769123
  37.0291439  17.7651214  46.8919165  25.6462619  23.8394137  40.1372258
  25.8859217  24.4712662  40.8151277  24.8031816  23.4882177  40.4237618
  36.6289328  14.9871808  45.5752519  35.7416106  14.6497729  45.6978918
  37.1987879  14.2554839  45.8121285  30.1590481  19.6473260  42.5413762
  30.0860653  20.4528231  43.0533067  29.7167874  19.8465226  41.7161784
  41.1106668  10.3980025  40.3369081  41.0996545  11.2804740  39.9663014
  40.2424048  10.0451576  40.1423618  32.6189165  19.5460094  44.6971921
  33.3317137  20.1807559  44.6247822  32.1279193  19.6423960  43.8811923
  27.6701078  17.2954537  45.5177492  28.3710538  17.9291020  45.6706886
  27.1996193  17.6369269  44.7573131  35.4702364   9.8499145  43.3430042
  34.8173814  10.0975052  42.6882495  35.8482744   9.0363283  43.0092519
  32.4309538  19.8858838  37.4458212  32.6131933  19.0680494  37.9085965
  33.2542524  20.1026530  37.0083102  31.5189937  10.5918956  49.8296079
  30.8430574  10.4913085  50.4998454  32.3417571  10.4358170  50.2932076
  23.2668796  16.8290892  42.4508595  23.8522233  16.0834580  42.5836499
  23.0693635  17.1394849  43.3345258  30.2612720  21.8985883  44.0653695
  30.8131028  22.0617505  44.8302780  30.6018914  22.4890321  43.3933720
  35.1123594  16.7247141  49.9202350  35.6563498  17.3377099  49.4257304
  34.5310439  17.2826719  50.4369363  33.3981107  19.8467859  41.0517377
  33.2732247  19.0457599  40.5428323  34.0560198  20.3414052  40.5631347
  35.4616016  17.6476879  42.6796928  34.5146351  17.5282230  42.6075254
  35.8098789  16.7599377  42.7623189  32.4662449  17.4429595  38.8801280
  32.3187411  16.5146303  39.0608850  33.2915943  17.4649686  38.3958355
  36.0696571  18.2658154  39.9666153  36.9943118  18.0601015  39.8290604
  35.9011874  18.0174555  40.8755494  30.4078531  19.4644365  46.0802350
  30.7165658  19.2193512  46.9525049  31.2054013  19.6691003  45.5921220
  30.4299143  21.6182275  38.3107726  29.9904134  21.1258653  39.0040583
  31.1807260  21.0755242  38.0699801  27.9497543   5.6402072  49.9762534
  27.9985699   6.5164194  49.5940303  28.4920057   5.0979465  49.4034177
  38.4352389  16.1843195  49.2563671  37.6447932  16.1667334  48.7168170
  38.1985743  16.7231489  50.0112708  38.5550264  13.0335661  46.5696399
  38.6048269  12.8685669  47.5111922  38.4464187  12.1662920  46.1794280
  35.8454026   9.0166589  47.8855706  36.7463889   8.8773054  47.5939704
  35.9202001   9.1821044  48.8253884  30.1796831   6.3933444  46.7308893
  29.3100141   6.6867010  46.4591481  30.4156312   6.9773889  47.4516156
  40.0568461  15.4532603  46.8138421  39.7653269  15.8162583  47.6501882
  39.4440592  14.7399611  46.6351753  41.2564143  13.0185483  39.3340991
  42.0911034  13.4575287  39.4978552  41.3923272  12.5424136  38.5149237
  38.3055649  10.5765217  45.2818479  38.7809770  10.7692864  44.4737330
  37.3821214  10.6324403  45.0361863  37.0057318   7.4530978  43.5146785
  37.9574741   7.5529075  43.5359009  36.8360768   6.6609246  44.0244869
  39.4845396  10.6737097  42.6289084  39.4521716   9.7353098  42.8148768
  40.0946019  10.7521134  41.8954909  39.6339884   7.4648141  42.6747367
  39.1178933   6.6806597  42.4877296  40.5179833   7.1366857  42.8393887
  45.3021945  11.7353104  41.7695121  46.0325334  11.4738392  42.3302824
  44.6928891  10.9981826  41.8097189  43.3837243   9.8760967  42.3669572
  42.6570406   9.7416932  41.7586064  42.9684529  10.1837795  43.1726290
  31.2067419  13.5950896  50.1316945  32.1270428  13.7729495  50.3256992
  31.1717002  12.6506942  49.9796645  29.0757357   7.0785137  52.1642475
  28.9754084   8.0279494  52.0954566  28.8578899   6.7503376  51.2918545
  28.9388627  10.5082276  50.9807537  28.4555709  11.3082636  51.1871426
  29.0249566  10.5190220  50.0274981  24.8661964  14.3986810  43.0175971
  25.8205218  14.3670753  42.9505902  24.6674488  13.9377434  43.8326197
  25.4561347  12.9687926  45.5846768  26.2754236  13.4632005  45.6081606
  25.7298154  12.0519894  45.5564336  26.3781319  20.8375747  40.2464611
  26.2613703  21.7821179  40.1443302  25.5573765  20.5349308  40.6350411
  33.2349653  14.3706908  51.7831106  34.1040813  14.5447560  51.4217741
  32.7556404  15.1901325  51.6606835  27.4035833  21.4904009  43.4620540
  28.3063080  21.5227619  43.7787035  27.1773203  20.5604460  43.4766876
  29.1589435  20.2434995  40.1230618  28.2085066  20.2436857  40.0094991
  29.4621921  19.4967730  39.6066653  44.8942129  26.0795534  41.1876381
  45.5320539  25.9602281  40.4839721  44.7762972  27.0276378  41.2464333
  41.7031835  26.0322962  41.1237905  41.3650347  25.9164026  40.2358440
  42.5721603  25.6314127  41.1038912  37.5618651  27.8858438  37.1134796
  36.9983516  27.7948375  36.3451084  37.4471046  27.0658343  37.5937289
  42.1851618  27.1857813  47.0824111  42.1740259  26.7910612  46.2104615
  42.3472257  26.4523886  47.6757882  35.1083083  29.3809630  39.9519017
  35.9004375  29.0400454  39.5365316  35.3479733  29.4904605  40.8721170
  43.1418209  31.5529406  32.4249261  42.4906189  32.1383486  32.0383275
  43.9362572  32.0835601  32.4844299  37.0673837  28.6418543  32.8236396
  37.8404713  28.0947530  32.6849271  37.4199235  29.5062792  33.0350857
  38.9058879  29.9694925  46.0303295  38.6148745  30.8740556  45.9149961
  39.5415864  30.0111453  46.7447365  39.8315086  27.3471774  42.6204655
  40.4278658  27.1227796  41.9061618  39.8890058  26.6056519  43.2230102
  44.4483397  23.8046987  38.2629589  45.2346486  23.3866411  37.9120006
  44.7122102  24.7093080  38.4311237  44.6193475  29.2419838  32.9618246
  43.9839308  29.3154464  33.6739150  44.2890881  29.8313437  32.2837325
  49.8491824  23.7422221  39.1662567  50.5816996  23.1721437  39.4000397
  49.0931180  23.3543821  39.6069073  39.1236403  26.7039315  32.6579221
  39.0072661  26.0284218  33.3260305  39.2338663  26.2171689  31.8411374
  41.4667944  26.1649462  36.3625910  41.1026151  25.6380083  37.0738831
  42.3235060  25.7747931  36.1892395  47.3717245  17.4543795  43.6257176
  47.0400569  18.3239206  43.4018391  46.7762858  17.1380079  44.3051206
  43.8648764  29.6556341  43.0253089  43.5649487  30.5581380  42.9168896
  43.5199824  29.3888524  43.8774242  37.3161246  26.1070138  39.0589793
  36.3911742  25.9746352  39.2667485  37.5645659  26.8864357  39.5559736
  47.2645908  22.1738881  40.7050526  46.3562785  22.1054289  40.4109287
  47.2133504  22.6510826  41.5332351  41.0862652  23.6497019  32.3433925
  40.9662277  24.0954070  33.1819405  40.3915240  23.9982337  31.7847463
  34.6770057  25.7503411  39.8933582  34.8062438  26.0037890  40.8072994
  33.9967508  26.3431119  39.5738237  38.8469544  36.4200661  35.9924056
  38.7693574  37.3708486  36.0712537  38.2431188  36.0746534  36.6498983
  41.3386774  23.5928527  48.6485423  40.5620108  24.1522447  48.6388288
  41.9777337  24.0785310  49.1700293  49.1307554  20.3755319  42.4828400
  48.4881935  20.6687853  41.8368194  48.6262483  20.2608240  43.2881597
  46.7847718  24.1218493  33.1714259  47.6965574  24.3545879  32.9961957
  46.2757365  24.7055537  32.6089338  39.5933146  26.4013980  48.2103390
  40.3347830  26.9399024  47.9338214  38.8870132  27.0280269  48.3674942
  45.0688486  28.5443120  46.8075552  45.4771842  28.1025531  46.0630184
  44.3465747  27.9695748  47.0609745  41.4219556  23.4815727  44.1809109
  42.2680751  23.9055141  44.3243758  41.3618193  22.8249351  44.8747672
  45.3917300  29.1044311  40.5627841  44.7626163  29.2690025  39.8603908
  45.0042962  29.5185921  41.3338805  49.2706532  30.0398749  37.9172204
  48.5857570  30.4197650  37.3669238  49.3550382  30.6494076  38.6504152
  44.5719001  21.1420096  45.8390282  44.3279933  21.8962156  45.3024558
  44.8478932  21.5205443  46.6737529  46.5257464  27.6858708  44.5167548
  46.7374359  28.3290468  43.8401929  46.4787212  26.8521024  44.0489478
  44.1283693  20.2976529  41.4204120  43.2668172  20.5957782  41.7120858
  44.1546128  20.5146927  40.4885153  40.9445262  28.8418719  37.8277926
  41.4083608  29.1206422  37.0382548  40.6802060  27.9402164  37.6451016
  37.8369343  28.3890201  40.7657689  38.4070700  28.8177469  40.1275173
  38.4277455  28.1072785  41.4641875  39.8814148  24.9641871  34.6367491
  40.5838192  25.4162915  35.1041417  39.5494777  24.3225690  35.2647384
  38.3294510  23.5553628  49.0118700  37.6993170  24.2369909  49.2454097
  38.2230598  23.4436710  48.0671839  33.6239482  23.2225424  39.9384624
  32.8338536  23.4782953  39.4624735  34.1150730  24.0373762  40.0436665
  47.6403292  30.5630663  42.6889905  48.4620736  30.1610851  42.4072587
  47.6365695  30.4598897  43.6406021  35.5754228  23.5870003  36.8968101
  34.7785391  23.6988698  37.4151597  35.3479820  23.9256656  36.0308992
  41.4059895  30.1114707  44.8450616  41.4704328  30.5735114  45.6808788
  40.6970819  29.4812072  44.9732926  31.9077185  23.4755915  42.3699615
  32.1585224  24.3602924  42.6357191  32.4436734  23.2960516  41.5974707
  55.7309285  26.9069412  39.0374877  54.9772993  26.3376810  38.8818881
  55.8656826  26.8732076  39.9845511  41.1207913  31.7782814  34.7129596
  40.9853588  32.6234350  35.1414444  41.6617725  31.9802092  33.9495530
  37.6075253  17.8574394  51.3743951  37.2142198  17.3040592  52.0491596
  38.4241393  18.1684972  51.7650469  34.5737310  29.2958252  35.2857521
  35.0861831  30.0901502  35.4363086  35.2260023  28.5984543  35.2191123
  36.3832195  32.4124008  37.3680274  36.5598823  33.3341973  37.1801258
  37.1789029  32.0982428  37.7974654  40.5243214  19.2732273  48.9664208
  41.2652927  19.8739426  48.8868670  40.7561136  18.5309911  48.4082250
  35.6684552  24.4588640  47.2442438  35.5538067  23.5573898  47.5449536
  34.8129069  24.7052337  46.8927254  42.7476389  32.4006381  48.8429938
  42.3040244  31.6142759  48.5250843  43.4093603  32.5885531  48.1773829
  37.5063511  33.9302182  43.3690617  38.0570936  33.8019246  42.5967611
  36.6674986  34.2297071  43.0185509  44.8457627  32.6809181  46.8711339
  44.8276103  33.5018062  46.3791609  45.7677547  32.5563256  47.0961481
  41.3030682  30.1953310  47.7134848  41.8359018  29.4341598  47.4834156
  40.7744763  29.9026962  48.4559002  44.4700377  15.3013376  43.2428490
  44.1264646  16.1915018  43.1667600  44.8379339  15.1115034  42.3798075
  32.5386227  27.6246906  36.0617092  33.3761449  28.0343915  35.8450799
  32.7164495  26.6846349  36.0317286  44.4350659  25.2921987  31.7500925
  43.9197283  26.0626592  31.9889312  44.1627968  24.6187123  32.3733986
  42.0197770  20.1371688  36.8086163  41.1639367  19.7478538  36.6291802
  42.4324722  20.2163649  35.9485949  43.5496917  17.6718031  41.2077723
  43.0461712  17.6348166  40.3945528  43.8427524  18.5810774  41.2674379
  39.7939803  17.7556761  40.2143905  40.6592800  17.5599570  39.8549794
  39.8617312  17.5267113  41.1413261  49.4084933  28.0454342  33.6854098
  48.6314376  27.7065501  33.2409260  50.0876414  28.0506965  33.0109063
  44.2236962  23.1649079  33.5760706  43.9187098  23.4795228  34.4270849
  45.1767405  23.2430499  33.6188039  42.6683394  29.3239302  35.2253660
  42.1404756  28.5892062  34.9126897  42.1670897  30.1013979  34.9793628
  47.6476240  27.5188323  40.3420706  46.9899915  28.2087584  40.4300835
  48.4516639  27.9084755  40.6854692  37.4002122  19.9858969  37.5860271
  37.9745874  19.7634150  36.8533464  37.9873104  20.0547663  38.3388873
  46.4581699  25.8732696  38.3924648  46.9713581  26.5062688  38.8946358
  47.1082923  25.2733891  38.0268008  39.7024790  16.8600218  36.3135341
  39.0489202  16.5449235  35.6891956  39.6605264  16.2375958  37.0395164
  43.7204073  35.8517020  31.1485319  43.0465772  36.1548717  31.7570277
  44.1069895  36.6546100  30.7990776  42.9362530  23.3482151  40.6382988
  42.0185091  23.5697098  40.4804676  43.3522674  23.4228462  39.7794696
  43.7197578  24.7473567  35.7685669  44.4669397  25.2594964  35.4592791
  43.9889167  24.4257620  36.6290062  41.9924228  27.2432108  32.7512623
  41.0835447  26.9591140  32.8485093  42.0219312  27.6631186  31.8915930
  47.2243495  30.8538697  36.5203791  46.7705822  30.0129607  36.5768981
  46.5937462  31.4900095  36.8578571  46.1676415  21.7830683  37.7504458
  45.4299172  21.2708069  38.0814701  46.4203188  21.3431065  36.9387735
  45.6676435  32.6915194  37.4553609  45.9599409  33.2520251  36.7365974
  46.1775055  32.9843755  38.2106768  46.2688042  14.5606935  38.3446227
  46.5746919  13.7004299  38.0572142  46.9940647  15.1524555  38.1445221
  32.5612398  24.9637622  36.7327825  32.3636798  24.3706982  36.0078892
  32.0059062  24.6589832  37.4503764  40.5409122  24.8560728  38.8522418
  40.5957732  23.9034565  38.7764895  39.7300324  25.0120167  39.3363717
  41.6900316  28.7840851  30.0900702  41.2519746  28.0676710  29.6306339
  42.4310757  29.0116966  29.5285793  38.4801482  23.4737788  36.6112797
  37.6669347  23.7731959  37.0177989  38.9760476  23.0793477  37.3287279
  40.6310060  33.4695545  38.5447062  40.5886239  33.6956391  37.6155594
  41.5472759  33.2358919  38.6932863  44.0775694  23.9379612  45.4427691
  44.4325081  24.1651086  46.3022157  44.7247825  24.2697989  44.8204946
  49.8073430  27.0598048  36.1477020  49.6691329  27.2499644  35.2198209
  49.4509649  27.8217431  36.6045071  37.9715557  21.0456143  42.2274032
  38.6114936  20.9044903  41.5296995  37.1393087  20.7590657  41.8512634
  49.8342810  29.1274575  41.1588292  50.2679317  29.0349864  42.0071346
  50.5474391  29.1032076  40.5208308  38.7475860  30.3458574  38.3409025
  39.5416459  29.8508894  38.1391600  38.0367553  29.8176437  37.9776730
  43.5670705  32.7276669  42.6921392  43.6207727  33.2967606  43.4599108
  42.6985486  32.8978554  42.3275429  35.0558624  24.4901656  34.4168777
  34.1256212  24.4286111  34.6338739  35.1516096  23.9677608  33.6205419
  34.9744173  21.0156468  37.0047019  35.2350990  21.9301802  36.8956179
  35.7961345  20.5480911  37.1543632  36.4469098  22.4294226  44.1745843
  37.1192152  22.2211588  43.5258492  35.6198885  22.2316312  43.7351076
  50.6958360  29.1698276  43.6921177  50.8894250  30.0744086  43.9380452
  50.5958978  28.7105695  44.5259762  42.3494670  19.0556167  46.1911504
  41.7022585  19.7546116  46.0975981  43.1195686  19.4892310  46.5587753
  45.7573468  29.3205019  49.2662058  45.6058975  29.0915570  48.3492141
  45.7478148  30.2775620  49.2793403  42.5258805  26.8936931  44.2508324
  43.4550865  27.0448091  44.0777291  42.1049835  26.9820952  43.3956971
  41.3247136  30.9187596  42.0206862  41.1858222  30.5506380  42.8932800
  40.5361733  31.4335235  41.8490819  41.9195288  36.0196692  33.3632398
  42.0947044  35.5484736  34.1778021  41.2328076  36.6462459  33.5913659
  42.8752352  30.2969199  39.4095699  42.5402184  30.2569969  40.3053349
  42.3756297  29.6313915  38.9366110  36.8496596  25.7036829  44.9348281
  36.7116394  24.9717067  45.5359820  37.7601519  25.6145729  44.6532468
  45.8111543  27.6425233  29.6832759  45.1940714  26.9172061  29.5865812
  45.3428032  28.4034593  29.3399833  39.4778896  25.4156788  44.4231960
  40.1878515  24.7749980  44.3818579  39.4348204  25.6669683  45.3458141
  47.4665675  32.3524141  47.3438539  47.4078221  31.6683361  46.6769123
  47.8685193  33.0943131  46.8919165  38.1907830  22.4022006  46.2427600
  37.6545187  21.9512744  46.8949196  37.6024539  22.5367915  45.4998064
  36.4856374  39.1686055  40.1372258  36.7252972  39.8004579  40.8151277
  35.6425570  38.8174095  40.4237618  47.4683082  30.3163725  45.5752519
  46.5809861  29.9789647  45.6978918  48.0381633  29.5846756  45.8121285
  29.1212229  26.6487817  38.8995571  29.8083269  26.3349547  38.3116586
  28.9660358  27.5529182  38.6262822  33.9246951  21.5378014  43.3280594
  33.8405140  20.9303683  42.5931004  33.1029658  22.0287032  43.3290091
  40.9984236  34.9765178  42.5413762  40.9254407  35.7820149  43.0533067
  40.5561629  35.1757143  41.7161784  40.7874015  34.2136948  36.0516584
  40.0041537  34.7558628  36.1454808  41.4866760  34.7310927  36.4510825
  44.0970665  20.0231577  38.6950789  44.5939365  19.2701539  38.3751860
  43.3257647  20.0595894  38.1293999  51.9500423  25.7271943  40.3369081
  51.9390299  26.6096658  39.9663014  51.0817802  25.3743493  40.1423618
  43.4582919  34.8752012  44.6971921  44.1710891  35.5099476  44.6247822
  42.9672948  34.9715878  43.8811923  45.1800446  28.7803264  36.2689213
  44.2456725  28.9004727  36.0993917  45.3577115  27.8775731  36.0049223
  40.6805634  22.1648960  38.4222474  40.3103422  21.6120000  39.1103379
  41.1764727  21.5607094  37.8697474  48.5672997  24.6220584  36.8039247
  49.0333450  25.4548575  36.7299549  49.0180498  24.1565565  37.5084505
  38.5094833  32.6246455  45.5177492  39.2104292  33.2582938  45.6706886
  38.0389948  32.9661187  44.7573131  46.6349229  30.9664405  33.8025399
  46.9109072  30.8520999  34.7119273  45.7653727  30.5681890  33.7637572
  46.5389660  16.9901171  40.8430148  45.6252740  17.2205397  41.0112355
  46.9682762  17.0739615  41.6944181  46.3096119  25.1791063  43.3430042
  45.6567569  25.4266970  42.6882495  46.6876499  24.3655201  43.0092519
  43.2703293  35.2150756  37.4458212  43.4525687  34.3972412  37.9085965
  44.0936279  35.4318448  37.0083102  43.6045458  34.1418941  34.7073261
  44.1333224  33.6311395  34.0943423  43.8673678  33.8261471  35.5718794
  42.3583692  25.9210874  49.8296079  41.6824329  25.8205003  50.4998454
  43.1811326  25.7650087  50.2932076  34.1062551  32.1582810  42.4508595
  34.6915988  31.4126498  42.5836499  33.9087389  32.4686767  43.3345258
  36.9601206  35.1934058  37.4671037  36.2911581  35.6780185  36.9835077
  36.8214076  35.4403278  38.3814415  28.6980205  24.7288410  41.1713038
  28.7364305  24.1952001  41.9650156  28.1920498  24.2023616  40.5524015
  41.1006475  37.2277801  44.0653695  41.6524783  37.3909423  44.8302780
  41.4412668  37.8182239  43.3933720  36.0770968  19.5752951  44.6675580
  36.1412294  20.4367782  44.2552978  36.0138088  18.9626952  43.9347938
  35.5523240  21.6476083  48.3148614  36.1795279  21.2653161  48.9286139
  34.6951159  21.4290285  48.6804307  45.9517349  32.0539059  49.9202350
  46.4957253  32.6669017  49.4257304  45.3704194  32.6118637  50.4369363
  44.2374862  35.1759777  41.0517377  44.1126001  34.3749516  40.5428323
  44.8953953  35.6705970  40.5631347  35.8583030  21.5308509  40.2294518
  35.1369616  22.1444477  40.0901991  36.6476286  22.0666274  40.1511164
  46.3009770  32.9768797  42.6796928  45.3540106  32.8574148  42.6075254
  46.6492543  32.0891295  42.7623189  38.6609344  18.8662936  46.5035169
  39.1843745  19.1125232  47.2661479  38.4421677  19.6982970  46.0838307
  43.3056204  32.7721513  38.8801280  43.1581166  31.8438220  39.0608850
  44.1309697  32.7941604  38.3958355  37.1718448  21.4239580  34.7381772
  37.5114520  21.9525501  34.0160380  37.6190568  21.7619986  35.5140338
  46.9090325  33.5950072  39.9666153  47.8336873  33.3892933  39.8290604
  46.7405629  33.3466473  40.8755494  39.8661889  19.8076631  44.1884840
  39.5258709  19.0084444  44.5905520  39.1600895  20.1078342  43.6161673
  40.5178360  16.8925943  42.6412163  41.3404430  16.4186421  42.5191053
  40.7616424  17.6716427  43.1410849  43.3017718  20.6259351  33.8733397
  43.5181332  21.5083988  33.5722225  42.8211785  20.2345564  33.1439039
  38.0416939  23.5845064  40.4504142  37.8961520  23.8985367  41.3428423
  37.5642143  24.2029964  39.8975040  39.9013322  20.5747612  40.4985031
  39.8874891  19.6788705  40.1617329  40.6185750  20.5818275  41.1323317
  41.7539453  21.0084952  42.5438159  41.4957231  21.9302023  42.5422489
  41.2224493  20.6115386  43.2338623  46.6985642  34.1135739  35.3228244
  46.8722519  33.5482162  34.5702096  47.1914533  34.9136634  35.1407734
  32.5162601  26.1250408  43.3891803  31.9716069  26.9010216  43.5212077
  33.3941951  26.4721213  43.2310924  39.3050218  19.4561992  35.7672601
  39.4266129  18.5278638  35.9663489  39.0152260  19.4700678  34.8550917
  42.1741408  17.1416902  38.9039321  42.1963105  17.2056236  37.9491301
  42.5909467  16.3021411  39.0979827  52.5525033  26.8772162  36.9418544
  52.9956179  26.1279487  36.5437667  51.6751543  26.8682298  36.5592276
  47.6860814  33.4302503  32.4225142  48.3811719  34.0509196  32.6412457
  48.0283964  32.5797855  32.6977520  33.3028623  25.2520304  46.2821960
  32.5610359  25.4002940  46.8686590  32.9821367  25.5128570  45.4188709
  49.5852237  30.8802209  33.9512473  50.1103561  31.2189482  33.2261793
  49.4974590  29.9449224  33.7675608  41.2472286  34.7936283  46.0802350
  41.5559412  34.5485429  46.9525049  42.0447768  34.9982921  45.5921220
  41.2692898  36.9474192  38.3107726  40.8297888  36.4550571  39.0040583
  42.0201015  36.4047160  38.0699801  33.7485237  33.1385733  38.3132354
  34.5743257  32.8389505  37.9330998  33.3979289  32.3693356  38.7622143
  38.7166770  32.4912201  40.3830028  38.0946779  31.8282906  40.0832256
  39.3871637  32.5173333  39.7003676  31.9493842  31.0572060  39.2721288
  31.1125750  30.6294234  39.0905289  31.9217487  31.2504503  40.2092079
  38.7891298  20.9693989  49.9762534  38.8379453  21.8456112  49.5940303
  39.3313812  20.4271382  49.4034177  49.2746143  31.5135113  49.2563671
  48.4841687  31.4959251  48.7168170  49.0379498  32.0523406  50.0112708
  49.3944018  28.3627579  46.5696399  49.4442023  28.1977586  47.5111922
  49.2857942  27.4954838  46.1794280  38.2780277  31.0416125  33.8588488
  38.4268397  31.7251589  33.2055161  39.0846720  31.0221215  34.3737944
  46.6847781  24.3458507  47.8855706  47.5857643  24.2064972  47.5939704
  46.7595755  24.5112962  48.8253884  41.0190586  21.7225362  46.7308893
  40.1493895  22.0158928  46.4591481  41.2550066  22.3065807  47.4516156
  50.8962215  30.7824521  46.8138421  50.6047023  31.1454501  47.6501882
  50.2834346  30.0691529  46.6351753  52.0957897  28.3477400  39.3340991
  52.9304789  28.7867204  39.4978552  52.2317026  27.8716053  38.5149237
  49.1449403  25.9057135  45.2818479  49.6203525  26.0984781  44.4737330
  48.2214969  25.9616321  45.0361863  36.0332910  27.0681302  34.8649557
  35.7878952  26.1643632  35.0629767  36.2028824  27.0698453  33.9229035
  43.7229620  17.9404979  44.2474313  44.2411564  18.6766006  43.9220801
  43.3684753  18.2468972  45.0821072  43.9742214  14.3605261  39.7675210
  44.2543968  13.6928450  40.3935636  44.7592821  14.5534357  39.2549873
  41.7775682  33.5364255  31.3300236  41.2049650  34.1554442  30.8770708
  42.3508476  34.0863617  31.8640158  47.8451072  22.7822895  43.5146785
  48.7968495  22.8820993  43.5359009  47.6754523  21.9901164  44.0244869
  45.8665452  19.8678478  43.7006186  45.2715384  20.1483491  43.0052674
  45.5815149  20.3572379  44.4722927  44.9972942  33.8201405  32.4608818
  45.9303615  33.7546967  32.6641694  44.9096155  34.6557672  32.0023351
  47.6260959  33.1367276  29.4212766  47.5474590  32.8027139  30.3148524
  48.4470626  33.6289044  29.4204238  50.3239150  26.0029015  42.6289084
  50.2915470  25.0645016  42.8148768  50.9339774  26.0813052  41.8954909
  50.4733639  22.7940058  42.6747367  49.9572687  22.0098515  42.4877296
  51.3573587  22.4658775  42.8393887  48.1344366  16.5381074  38.6343180
  47.9369187  16.2296162  39.5186512  48.7444071  17.2642713  38.7641110
  56.1415700  27.0645022  41.7695121  56.8719088  26.8030310  42.3302824
  55.5322645  26.3273744  41.8097189  54.2230997  25.2052884  42.3669572
  53.4964161  25.0708849  41.7586064  53.8078284  25.5129713  43.1726290
  42.0461174  28.9242814  50.1316945  42.9664183  29.1021413  50.3256992
  42.0110757  27.9798859  49.9796645  31.2643339  24.1181408  39.0570220
  30.9446123  23.2646716  38.7644594  30.7176767  24.3329986  39.8128187
  35.0423246  26.8343849  42.7739726  35.2609256  27.7660956  42.7927760
  35.4549020  26.4751823  43.5594530  41.9627464  17.3411934  34.7615415
  41.1528192  16.9959019  35.1370661  42.6511881  17.0319478  35.3503026
  43.8918012  16.4189981  36.3839711  44.4449051  16.8385434  37.0429735
  44.1288099  15.4925729  36.4262667  39.9151111  22.4077054  52.1642475
  39.8147838  23.3571411  52.0954566  39.6972653  22.0795293  51.2918545
  31.1331599  27.7384319  41.0263342  30.4395070  27.3238272  40.5133296
  31.8804590  27.7804856  40.4296760  47.2696819  18.5290506  35.8918376
  46.6895488  19.1875310  35.5096428  47.0032752  17.7067851  35.4805793
  45.7200386  17.9295564  38.0939696  46.2200164  18.0412098  37.2854015
  46.3635994  17.6256617  38.7340505  39.7782381  25.8374193  50.9807537
  39.2949463  26.6374553  51.1871426  39.8643320  25.8482138  50.0274981
  33.0468341  27.6702573  38.9029356  33.0239029  27.7690260  37.9511240
  33.3568978  28.5167724  39.2246523  35.7055719  29.7278728  43.0175971
  36.6598972  29.6962670  42.9505902  35.5068243  29.2669352  43.8326197
  36.2955101  28.2979844  45.5846768  37.1147990  28.7923923  45.6081606
  36.5691909  27.3811812  45.5564336  46.0521697  20.6890596  34.9474724
  45.1647552  20.9740247  34.7294919  46.4675686  20.5284360  34.1002001
  49.4036233  20.7137117  38.6629063  50.1796624  21.2033570  38.9353680
  48.6784368  21.1395172  39.1200933  51.8408792  21.4264737  39.7203004
  52.4353283  21.1860472  39.0096312  51.9135376  20.7071867  40.3476540
  34.0605948  35.2698347  40.0346169  33.9260416  34.5098748  39.4684167
  33.6438010  35.9939247  39.5674958  45.1964911  30.4535271  29.0422744
  45.9000761  30.6585274  29.6580400  44.4727559  31.0212033  29.3071828
  46.0262721  26.2045132  35.1625014  45.9697922  26.6613684  34.3232647
  46.5791063  25.4435817  34.9847857  49.8367527  21.9934864  35.9875134
  49.5804461  21.5931500  36.8183341  49.2120395  22.7078658  35.8625273
  54.1479865  24.7330937  38.4946425  53.5879423  24.8024127  39.2677987
  53.5423368  24.5571922  37.7745921  37.2175074  36.1667664  40.2464611
  37.1007458  37.1113097  40.1443302  36.3967520  35.8641226  40.6350411
  47.1051608  30.8917800  31.0921204  47.9397212  30.4598999  30.9098679
  46.9435951  30.7199814  32.0198099  46.7597500  27.3949914  32.4577543
  46.7046304  27.2294185  31.5165987  46.1343556  28.1025946  32.6139733
  31.5490015  22.6317978  46.2838966  32.1948879  22.1216932  46.7726191
  31.3407166  23.3686660  46.8582391  44.0743407  29.6998825  51.7831106
  44.9434567  29.8739478  51.4217741  43.5950159  30.5193242  51.6606835
  38.2429588  36.8195926  43.4620540  39.1456834  36.8519537  43.7787035
  38.0166958  35.8896377  43.4766876  39.9983190  35.5726913  40.1230618
  39.0478821  35.5728775  40.0094991  40.3015676  34.8259647  39.6066653
  43.8845745  13.4900799  36.2908799  43.1178141  12.9359286  36.4365481
  44.2956450  13.5622668  37.1522950  35.8887506  19.7785595  50.3813980
  36.7518968  19.4222400  50.5917304  35.3152917  19.4399490  51.0689384
  55.7335883  41.4087451  41.1876381  56.3714293  41.2894199  40.4839721
  55.6156726  42.3568295  41.2464333  52.5425590  41.3614879  41.1237905
  52.2044101  41.2455944  40.2358440  53.4115358  40.9606045  41.1038912
  48.4012405  43.2150356  37.1134796  47.8377270  43.1240293  36.3451084
  48.2864800  42.3950260  37.5937289  53.0245373  42.5149731  47.0824111
  53.0134013  42.1202529  46.2104615  53.1866012  41.7815804  47.6757882
  45.9476837  44.7101547  39.9519017  46.7398129  44.3692372  39.5365316
  46.1873487  44.8196522  40.8721170  53.9811964  46.8821324  32.4249261
  53.3299944  47.4675404  32.0383275  54.7756327  47.4127518  32.4844299
  47.9067591  43.9710461  32.8236396  48.6798467  43.4239448  32.6849271
  48.2592990  44.8354710  33.0350857  49.7452634  45.2986843  46.0303295
  49.4542500  46.2032474  45.9149961  50.3809618  45.3403371  46.7447365
  50.6708840  42.6763691  42.6204655  51.2672413  42.4519714  41.9061618
  50.7283812  41.9348437  43.2230102  50.2433869  40.1303127  30.4554846
  50.4959390  39.6084648  29.6938309  49.3058428  39.9669272  30.5581529
  55.2877152  39.1338905  38.2629589  56.0740241  38.7158328  37.9120006
  55.5515856  40.0384997  38.4311237  55.4587229  44.5711755  32.9618246
  54.8233062  44.6446382  33.6739150  55.1284635  45.1605354  32.2837325
  60.6885579  39.0714138  39.1662567  61.4210751  38.5013355  39.4000397
  59.9324935  38.6835739  39.6069073  49.9630158  42.0331233  32.6579221
  49.8466416  41.3576136  33.3260305  50.0732418  41.5463607  31.8411374
  52.3061699  41.4941380  36.3625910  51.9419906  40.9672001  37.0738831
  53.1628814  41.1039849  36.1892395  58.2110999  32.7835712  43.6257176
  57.8794324  33.6531123  43.4018391  57.6156613  32.4671996  44.3051206
  51.9467186  36.5231280  31.3587258  52.1141588  37.3911516  31.7257729
  51.7564355  36.6858561  30.4348548  54.7042519  44.9848258  43.0253089
  54.4043242  45.8873297  42.9168896  54.3593578  44.7180442  43.8774242
  48.1555000  41.4362055  39.0589793  47.2305497  41.3038269  39.2667485
  48.4039413  42.2156275  39.5559736  58.1039663  37.5030799  40.7050526
  57.1956540  37.4346207  40.4109287  58.0527258  37.9802744  41.5332351
  51.9256406  38.9788937  32.3433925  51.8056032  39.4245988  33.1819405
  51.2308995  39.3274255  31.7847463  45.5163811  41.0795329  39.8933582
  45.6456192  41.3329808  40.8072994  44.8361263  41.6723037  39.5738237
  49.6863299  51.7492579  35.9924056  49.6087328  52.7000404  36.0712537
  49.0824942  51.4038451  36.6498983  52.1780528  38.9220444  48.6485423
  51.4013862  39.4814364  48.6388288  52.8171091  39.4077227  49.1700293
  59.9701309  35.7047237  42.4828400  59.3275689  35.9979770  41.8368194
  59.4656237  35.5900157  43.2881597  57.6241473  39.4510410  33.1714259
  58.5359329  39.6837797  32.9961957  57.1151120  40.0347454  32.6089338
  50.4326901  41.7305898  48.2103390  51.1741585  42.2690942  47.9338214
  49.7263886  42.3572186  48.3674942  55.9082240  43.8735038  46.8075552
  56.3165596  43.4317449  46.0630184  55.1859502  43.2987666  47.0609745
  52.2613310  38.8107645  44.1809109  53.1074505  39.2347058  44.3243758
  52.2011948  38.1541269  44.8747672  56.2311055  44.4336229  40.5627841
  55.6019917  44.5981943  39.8603908  55.8436717  44.8477838  41.3338805
  60.1100287  45.3690667  37.9172204  59.4251325  45.7489568  37.3669238
  60.1944136  45.9785993  38.6504152  55.4112756  36.4712013  45.8390282
  55.1673687  37.2254074  45.3024558  55.6872686  36.8497361  46.6737529
  57.3651218  43.0150626  44.5167548  57.5768114  43.6582385  43.8401929
  57.3180967  42.1812942  44.0489478  54.9677447  35.6268446  41.4204120
  54.1061926  35.9249700  41.7120858  54.9939882  35.8438845  40.4885153
  51.7839017  44.1710637  37.8277926  52.2477362  44.4498340  37.0382548
  51.5195815  43.2694081  37.6451016  48.6763098  43.7182118  40.7657689
  49.2464455  44.1469387  40.1275173  49.2671210  43.4364703  41.4641875
  50.7207903  40.2933789  34.6367491  51.4231946  40.7454833  35.1041417
  50.3888531  39.6517608  35.2647384  49.1688264  38.8845546  49.0118700
  48.5386925  39.5661827  49.2454097  49.0624352  38.7728627  48.0671839
  44.4633237  38.5517342  39.9384624  43.6732291  38.8074870  39.4624735
  44.9544484  39.3665680  40.0436665  58.4797046  45.8922581  42.6889905
  59.3014490  45.4902768  42.4072587  58.4759449  45.7890815  43.6406021
  46.4147982  38.9161921  36.8968101  45.6179145  39.0280615  37.4151597
  46.1873574  39.2548573  36.0308992  52.2453650  45.4406624  44.8450616
  52.3098082  45.9027032  45.6808788  51.5364574  44.8103989  44.9732926
  42.7470940  38.8047832  42.3699615  42.9978978  39.6894842  42.6357191
  43.2830488  38.6252434  41.5974707  66.5703039  42.2361329  39.0374877
  65.8166748  41.6668728  38.8818881  66.7050581  42.2023994  39.9845511
  51.9601667  47.1074732  34.7129596  51.8247342  47.9526267  35.1414444
  52.5011480  47.3094009  33.9495530  48.4469007  33.1866312  51.3743951
  48.0535953  32.6332510  52.0491596  49.2635147  33.4976890  51.7650469
  45.4131065  44.6250170  35.2857521  45.9255585  45.4193420  35.4363086
  46.0653778  43.9276460  35.2191123  47.2225950  47.7415926  37.3680274
  47.3992578  48.6633891  37.1801258  48.0182783  47.4274345  37.7974654
  51.3636968  34.6024191  48.9664208  52.1046681  35.2031344  48.8868670
  51.5954891  33.8601829  48.4082250  46.5078306  39.7880558  47.2442438
  46.3931821  38.8865815  47.5449536  45.6522824  40.0344255  46.8927254
  53.5870144  47.7298298  48.8429938  53.1433998  46.9434677  48.5250843
  54.2487357  47.9177449  48.1773829  48.3457265  49.2594100  43.3690617
  48.8964690  49.1311163  42.5967611  47.5068741  49.5588989  43.0185509
  55.6851382  48.0101098  46.8711339  55.6669857  48.8309979  46.3791609
  56.6071302  47.8855173  47.0961481  52.1424436  45.5245228  47.7134848
  52.6752773  44.7633516  47.4834156  51.6138517  45.2318880  48.4559002
  55.3094131  30.6305294  43.2428490  54.9658400  31.5206935  43.1667600
  55.6773094  30.4406951  42.3798075  43.3779982  42.9538824  36.0617092
  44.2155204  43.3635832  35.8450799  43.5558249  42.0138266  36.0317286
  55.2744414  40.6213905  31.7500925  54.7591037  41.3918509  31.9889312
  55.0021722  39.9479041  32.3733986  52.8591525  35.4663606  36.8086163
  52.0033121  35.0770456  36.6291802  53.2718477  35.5455566  35.9485949
  54.3890671  33.0009949  41.2077723  53.8855467  32.9640084  40.3945528
  54.6821278  33.9102692  41.2674379  50.6333557  33.0848679  40.2143905
  51.4986554  32.8891487  39.8549794  50.7011066  32.8559030  41.1413261
  60.2478688  43.3746259  33.6854098  59.4708131  43.0357419  33.2409260
  60.9270169  43.3798883  33.0109063  55.0630717  38.4940997  33.5760706
  54.7580852  38.8087146  34.4270849  56.0161159  38.5722417  33.6188039
  53.5077149  44.6531220  35.2253660  52.9798510  43.9183980  34.9126897
  53.0064651  45.4305897  34.9793628  58.4869995  42.8480241  40.3420706
  57.8293669  43.5379502  40.4300835  59.2910394  43.2376673  40.6854692
  48.2395876  35.3150886  37.5860271  48.8139628  35.0926068  36.8533464
  48.8266859  35.3839581  38.3388873  57.2975454  41.2024613  38.3924648
  57.8107335  41.8354605  38.8946358  57.9476677  40.6025809  38.0268008
  48.5665463  37.3455347  31.6056157  47.7302776  37.6830034  31.9265431
  48.4270233  37.2104327  30.6683294  50.5418544  32.1892135  36.3135341
  49.8882956  31.8741153  35.6891956  50.4999018  31.5667876  37.0395164
  51.6529749  42.4711430  28.2288633  50.7456811  42.2400684  28.4279782
  52.1500781  41.6749050  28.4162614  54.5597828  51.1808938  31.1485319
  53.8859527  51.4840634  31.7570277  54.9463650  51.9838018  30.7990776
  53.7756284  38.6774069  40.6382988  52.8578846  38.8989016  40.4804676
  54.1916428  38.7520379  39.7794696  54.5591332  40.0765485  35.7685669
  55.3063151  40.5886882  35.4592791  54.8282922  39.7549537  36.6290062
  52.8317982  42.5724025  32.7512623  51.9229202  42.2883058  32.8485093
  52.8613066  42.9923104  31.8915930  58.0637250  46.1830615  36.5203791
  57.6099577  45.3421525  36.5768981  57.4331216  46.8192013  36.8578571
  57.0070169  37.1122601  37.7504458  56.2692926  36.5999987  38.0814701
  57.2596943  36.6722982  36.9387735  56.5070189  48.0207111  37.4553609
  56.7993163  48.5812169  36.7365974  57.0168810  48.3135672  38.2106768
  57.1081797  29.8898853  38.3446227  57.4140673  29.0296216  38.0572142
  57.8334401  30.4816473  38.1445221  43.4006153  40.2929539  36.7327825
  43.2030553  39.6998900  36.0078892  42.8452817  39.9881750  37.4503764
  51.3802876  40.1852646  38.8522418  51.4351486  39.2326482  38.7764895
  50.5694078  40.3412085  39.3363717  52.5294070  44.1132769  30.0900702
  52.0913500  43.3968628  29.6306339  53.2704511  44.3408884  29.5285793
  49.3195236  38.8029706  36.6112797  48.5063102  39.1023876  37.0177989
  49.8154231  38.4085394  37.3287279  51.4703814  48.7987463  38.5447062
  51.4279993  49.0248309  37.6155594  52.3866513  48.5650837  38.6932863
  54.9169448  39.2671530  45.4427691  55.2718836  39.4943003  46.3022157
  55.5641579  39.5989907  44.8204946  60.6467185  42.3889966  36.1477020
  60.5085084  42.5791562  35.2198209  60.2903404  43.1509349  36.6045071
  48.8109311  36.3748061  42.2274032  49.4508690  36.2336820  41.5296995
  47.9786842  36.0882575  41.8512634  60.6736565  44.4566493  41.1588292
  61.1073071  44.3641782  42.0071346  61.3868145  44.4323993  40.5208308
  49.5869615  45.6750492  38.3409025  50.3810213  45.1800812  38.1391600
  48.8761307  45.1468355  37.9776730  54.4064459  48.0568587  42.6921392
  54.4601482  48.6259523  43.4599108  53.5379241  48.2270472  42.3275429
  45.8952378  39.8193573  34.4168777  44.9649967  39.7578029  34.6338739
  45.9909850  39.2969526  33.6205419  45.8137928  36.3448386  37.0047019
  46.0744745  37.2593719  36.8956179  46.6355100  35.8772829  37.1543632
  47.2862853  37.7586143  44.1745843  47.9585906  37.5503505  43.5258492
  46.4592639  37.5608229  43.7351076  61.5352114  44.4990194  43.6921177
  61.7288004  45.4036004  43.9380452  61.4352732  44.0397613  44.5259762
  53.1888425  34.3848084  46.1911504  52.5416340  35.0838034  46.0975981
  53.9589440  34.8184228  46.5587753  56.5967223  44.6496936  49.2662058
  56.4452729  44.4207488  48.3492141  56.5871902  45.6067538  49.2793403
  53.3652559  42.2228849  44.2508324  54.2944619  42.3740009  44.0777291
  52.9443589  42.3112870  43.3956971  52.1640891  46.2479514  42.0206862
  52.0251977  45.8798298  42.8932800  51.3755487  46.7627153  41.8490819
  52.7589043  51.3488610  33.3632398  52.9340799  50.8776653  34.1778021
  52.0721831  51.9754376  33.5913659  53.7146106  45.6261116  39.4095699
  53.3795939  45.5861886  40.3053349  53.2150052  44.9605832  38.9366110
  47.6890350  41.0328746  44.9348281  47.5510148  40.3008985  45.5359820
  48.5995274  40.9437646  44.6532468  56.6505298  42.9717151  29.6832759
  56.0334468  42.2463979  29.5865812  56.1821786  43.7326511  29.3399833
  50.3172651  40.7448706  44.4231960  51.0272269  40.1041898  44.3818579
  50.2741959  40.9961600  45.3458141  58.3059429  47.6816059  47.3438539
  58.2471976  46.9975279  46.6769123  58.7078948  48.4235049  46.8919165
  49.0301585  37.7313924  46.2427600  48.4938942  37.2804662  46.8949196
  48.4418293  37.8659832  45.4998064  47.3250128  54.4977973  40.1372258
  47.5646726  55.1296497  40.8151277  46.4819325  54.1466013  40.4237618
  48.4403844  37.1902575  28.8054063  47.5633310  37.0691376  28.4416310
  48.9161597  36.3988653  28.5532952  58.3076837  45.6455643  45.5752519
  57.4203615  45.3081565  45.6978918  58.8775388  44.9138674  45.8121285
  39.9605984  41.9779735  38.8995571  40.6477024  41.6641465  38.3116586
  39.8054113  42.8821099  38.6262822  44.7640706  36.8669931  43.3280594
  44.6798895  36.2595601  42.5931004  43.9423412  37.3578950  43.3290091
  51.8377990  50.3057095  42.5413762  51.7648162  51.1112067  43.0533067
  51.3955383  50.5049061  41.7161784  51.6267770  49.5428865  36.0516584
  50.8435292  50.0850545  36.1454808  52.3260515  50.0602845  36.4510825
  54.9364420  35.3523495  38.6950789  55.4333119  34.5993457  38.3751860
  54.1651401  35.3887811  38.1293999  62.7894177  41.0563860  40.3369081
  62.7784053  41.9388576  39.9663014  61.9211557  40.7035411  40.1423618
  54.2976674  50.2043929  44.6971921  55.0104646  50.8391394  44.6247822
  53.8066702  50.3007795  43.8811923  56.0194201  44.1095182  36.2689213
  55.0850479  44.2296644  36.0993917  56.1970869  43.2067649  36.0049223
  51.5199389  37.4940878  38.4222474  51.1497176  36.9411918  39.1103379
  52.0158481  36.8899011  37.8697474  59.4066752  39.9512501  36.8039247
  59.8727204  40.7840493  36.7299549  59.8574252  39.4857483  37.5084505
  49.3488587  47.9538373  45.5177492  50.0498047  48.5874856  45.6706886
  48.8783702  48.2953104  44.7573131  57.4742983  46.2956323  33.8025399
  57.7502827  46.1812917  34.7119273  56.6047482  45.8973807  33.7637572
  57.3783415  32.3193088  40.8430148  56.4646494  32.5497315  41.0112355
  57.8076516  32.4031532  41.6944181  57.1489873  40.5082980  43.3430042
  56.4961323  40.7558888  42.6882495  57.5270253  39.6947118  43.0092519
  54.1097047  50.5442673  37.4458212  54.2919442  49.7264329  37.9085965
  54.9330033  50.7610366  37.0083102  54.4439213  49.4710859  34.7073261
  54.9726979  48.9603313  34.0943423  54.7067432  49.1553389  35.5718794
  53.1977446  41.2502791  49.8296079  52.5218083  41.1496921  50.4998454
  54.0205080  41.0942005  50.2932076  44.9456305  47.4874728  42.4508595
  45.5309742  46.7418416  42.5836499  44.7481144  47.7978685  43.3345258
  47.7994960  50.5225975  37.4671037  47.1305336  51.0072103  36.9835077
  47.6607830  50.7695196  38.3814415  39.5373960  40.0580328  41.1713038
  39.5758059  39.5243919  41.9650156  39.0314253  39.5315534  40.5524015
  51.9400229  52.5569719  44.0653695  52.4918537  52.7201340  44.8302780
  52.2806422  53.1474157  43.3933720  46.9164722  34.9044869  44.6675580
  46.9806049  35.7659699  44.2552978  46.8531842  34.2918870  43.9347938
  46.3916995  36.9768001  48.3148614  47.0189034  36.5945078  48.9286139
  45.5344914  36.7582203  48.6804307  56.7911103  47.3830976  49.9202350
  57.3351007  47.9960934  49.4257304  56.2097948  47.9410555  50.4369363
  43.1682538  38.7844430  34.2466969  43.4635979  37.8755109  34.1934023
  42.2670573  38.7632170  33.9247971  55.0768616  50.5051694  41.0517377
  54.9519756  49.7041434  40.5428323  55.7347707  50.9997888  40.5631347
  46.6976785  36.8600427  40.2294518  45.9763370  37.4736394  40.0901991
  47.4870040  37.3958192  40.1511164  57.1403525  48.3060714  42.6796928
  56.1933860  48.1866066  42.6075254  57.4886298  47.4183212  42.7623189
  49.5003098  34.1954853  46.5035169  50.0237500  34.4417150  47.2661479
  49.2815431  35.0274888  46.0838307  44.8970379  36.4658528  34.3706294
  44.5683085  35.5855907  34.1881400  45.2509750  36.4106197  35.2582683
  54.1449958  48.1013431  38.8801280  53.9974920  47.1730138  39.0608850
  54.9703451  48.1233521  38.3958355  48.0112202  36.7531498  34.7381772
  48.3508275  37.2817419  34.0160380  48.4584323  37.0911904  35.5140338
  57.7484080  48.9241989  39.9666153  58.6730627  48.7184851  39.8290604
  57.5799383  48.6758390  40.8755494  50.7055643  35.1368548  44.1884840
  50.3652463  34.3376361  44.5905520  49.9994649  35.4370259  43.6161673
  51.3572115  32.2217861  42.6412163  52.1798184  31.7478339  42.5191053
  51.6010178  33.0008345  43.1410849  49.9980349  35.2506119  32.9375065
  50.7188712  35.6287372  32.4338782  49.3745654  35.9694996  33.0410043
  54.1411472  35.9551268  33.8733397  54.3575087  36.8375906  33.5722225
  53.6605539  35.5637482  33.1439039  48.8810694  38.9136981  40.4504142
  48.7355274  39.2277284  41.3428423  48.4035897  39.5321882  39.8975040
  50.7407077  35.9039529  40.4985031  50.7268645  35.0080623  40.1617329
  51.4579505  35.9110193  41.1323317  52.5933207  36.3376870  42.5438159
  52.3350985  37.2593940  42.5422489  52.0618248  35.9407304  43.2338623
  57.5379396  49.4427657  35.3228244  57.7116274  48.8774079  34.5702096
  58.0308287  50.2428552  35.1407734  43.3556356  41.4542326  43.3891803
  42.8109824  42.2302134  43.5212077  44.2335706  41.8013130  43.2310924
  50.1443972  34.7853910  35.7672601  50.2659884  33.8570556  35.9663489
  49.8546015  34.7992596  34.8550917  53.0135163  32.4708820  38.9039321
  53.0356860  32.5348153  37.9491301  53.4303222  31.6313329  39.0979827
  63.3918787  42.2064080  36.9418544  63.8349933  41.4571405  36.5437667
  62.5145298  42.1974216  36.5592276  58.5254569  48.7594421  32.4225142
  59.2205473  49.3801114  32.6412457  58.8677719  47.9089772  32.6977520
  44.1422378  40.5812222  46.2821960  43.4004114  40.7294857  46.8686590
  43.8215122  40.8420488  45.4188709  60.4245992  46.2094127  33.9512473
  60.9497316  46.5481399  33.2261793  60.3368344  45.2741142  33.7675608
  52.0866040  50.1228200  46.0802350  52.3953167  49.8777347  46.9525049
  52.8841522  50.3274839  45.5921220  52.1086652  52.2766110  38.3107726
  51.6691643  51.7842489  39.0040583  52.8594769  51.7339078  38.0699801
  44.5878991  48.4677651  38.3132354  45.4137011  48.1681423  37.9330998
  44.2373043  47.6985273  38.7622143  49.5560525  47.8204119  40.3830028
  48.9340534  47.1574824  40.0832256  50.2265391  47.8465251  39.7003676
  42.7887596  46.3863977  39.2721288  41.9519505  45.9586152  39.0905289
  42.7611242  46.5796421  40.2092079  49.6285052  36.2985907  49.9762534
  49.6773208  37.1748030  49.5940303  50.1707566  35.7563300  49.4034177
  60.1139898  46.8427030  49.2563671  59.3235441  46.8251169  48.7168170
  59.8773252  47.3815324  50.0112708  60.2337773  43.6919497  46.5696399
  60.2835778  43.5269504  47.5111922  60.1251696  42.8246756  46.1794280
  49.1174031  46.3708042  33.8588488  49.2662152  47.0543507  33.2055161
  49.9240475  46.3513132  34.3737944  57.5241535  39.6750425  47.8855706
  58.4251398  39.5356890  47.5939704  57.5989510  39.8404880  48.8253884
  51.8584340  37.0517279  46.7308893  50.9887650  37.3450846  46.4591481
  52.0943821  37.6357724  47.4516156  61.7355970  46.1116438  46.8138421
  61.4440778  46.4746419  47.6501882  61.1228101  45.3983446  46.6351753
  62.9351652  43.6769318  39.3340991  63.7698543  44.1159122  39.4978552
  63.0710781  43.2007971  38.5149237  59.9843158  41.2349053  45.2818479
  60.4597279  41.4276699  44.4737330  59.0608723  41.2908239  45.0361863
  46.8726664  42.3973220  34.8649557  46.6272706  41.4935550  35.0629767
  47.0422579  42.3990370  33.9229035  54.5623374  33.2696896  44.2474313
  55.0805318  34.0057923  43.9220801  54.2078507  33.5760890  45.0821072
  46.1422312  38.1301578  32.3635719  45.4491557  38.2045933  31.7075755
  45.8974064  37.3661921  32.8857236  54.8135968  29.6897179  39.7675210
  55.0937722  29.0220368  40.3935636  55.5986575  29.8826275  39.2549873
  52.6169437  48.8656173  31.3300236  52.0443404  49.4846360  30.8770708
  53.1902231  49.4155534  31.8640158  58.6844827  38.1114813  43.5146785
  59.6362250  38.2112911  43.5359009  58.5148277  37.3193081  44.0244869
  56.7059206  35.1970396  43.7006186  56.1109138  35.4775409  43.0052674
  56.4208903  35.6864297  44.4722927  55.8366697  49.1493323  32.4608818
  56.7697370  49.0838885  32.6641694  55.7489910  49.9849590  32.0023351
  58.4654713  48.4659193  29.4212766  58.3868345  48.1319057  30.3148524
  59.2864380  48.9580961  29.4204238  61.1632905  41.3320933  42.6289084
  61.1309225  40.3936933  42.8148768  61.7733528  41.4104969  41.8954909
  53.0016235  40.2016986  28.6716288  53.9475340  40.0723194  28.7404706
  52.6230480  39.4631647  29.1485716  61.3127393  38.1231976  42.6747367
  60.7966442  37.3390433  42.4877296  62.1967342  37.7950693  42.8393887
  58.9738120  31.8672992  38.6343180  58.7762941  31.5588080  39.5186512
  59.5837826  32.5934630  38.7641110  66.9809454  42.3936939  41.7695121
  67.7112843  42.1322228  42.3302824  66.3716400  41.6565661  41.8097189
  65.0624752  40.5344802  42.3669572  64.3357915  40.4000767  41.7586064
  64.6472038  40.8421631  43.1726290  52.8854928  44.2534732  50.1316945
  53.8057937  44.4313331  50.3256992  52.8504511  43.3090777  49.9796645
  51.1859153  38.1266962  28.6071174  50.2790608  37.8300075  28.6833887
  51.4635134  37.8296780  27.7405460  42.1037093  39.4473325  39.0570220
  41.7839877  38.5938634  38.7644594  41.5570521  39.6621904  39.8128187
  45.8817001  42.1635766  42.7739726  46.1003010  43.0952874  42.7927760
  46.2942774  41.8043741  43.5594530  52.8021218  32.6703852  34.7615415
  51.9921947  32.3250937  35.1370661  53.4905635  32.3611395  35.3503026
  54.7311767  31.7481898  36.3839711  55.2842805  32.1677352  37.0429735
  54.9681853  30.8217647  36.4262667  50.7544866  37.7368972  52.1642475
  50.6541593  38.6863329  52.0954566  50.5366408  37.4087211  51.2918545
  49.9557937  34.9853897  28.7483153  50.8177101  35.3108795  29.0078970
  50.1408281  34.1985393  28.2356219  41.9725353  43.0676237  41.0263342
  41.2788824  42.6530190  40.5133296  42.7198344  43.1096773  40.4296760
  58.1090574  33.8582424  35.8918376  57.5289243  34.5167228  35.5096428
  57.8426506  33.0359768  35.4805793  56.5594140  33.2587481  38.0939696
  57.0593918  33.3704016  37.2854015  57.2029748  32.9548534  38.7340505
  50.6176136  41.1666111  50.9807537  50.1343218  41.9666471  51.1871426
  50.7037075  41.1774056  50.0274981  43.8862096  42.9994491  38.9029356
  43.8632784  43.0982178  37.9511240  44.1962732  43.8459641  39.2246523
  46.5449473  45.0570646  43.0175971  47.4992727  45.0254588  42.9505902
  46.3461997  44.5961269  43.8326197  47.1348856  43.6271762  45.5846768
  47.9541745  44.1215840  45.6081606  47.4085663  42.7103730  45.5564336
  56.8915452  36.0182514  34.9474724  56.0041307  36.3032165  34.7294919
  57.3069441  35.8576277  34.1002001  60.2429988  36.0429035  38.6629063
  61.0190378  36.5325487  38.9353680  59.5178122  36.4687089  39.1200933
  62.6802547  36.7556654  39.7203004  63.2747037  36.5152390  39.0096312
  62.7529130  36.0363785  40.3476540  44.8999702  50.5990265  40.0346169
  44.7654170  49.8390666  39.4684167  44.4831764  51.3231165  39.5674958
  56.0358665  45.7827189  29.0422744  56.7394515  45.9877191  29.6580400
  55.3121314  46.3503951  29.3071828  56.8656475  41.5337050  35.1625014
  56.8091677  41.9905601  34.3232647  57.4184818  40.7727735  34.9847857
  60.6761281  37.3226782  35.9875134  60.4198216  36.9223417  36.8183341
  60.0514149  38.0370576  35.8625273  64.9873619  40.0622855  38.4946425
  64.4273177  40.1316044  39.2677987  64.3817123  39.8863840  37.7745921
  48.0568828  51.4959582  40.2464611  47.9401212  52.4405015  40.1443302
  47.2361274  51.1933144  40.6350411  57.9445363  46.2209718  31.0921204
  58.7790967  45.7890916  30.9098679  57.7829706  46.0491732  32.0198099
  57.5991255  42.7241831  32.4577543  57.5440059  42.5586103  31.5165987
  56.9737310  43.4317864  32.6139733  42.3883770  37.9609896  46.2838966
  43.0342633  37.4508850  46.7726191  42.1800921  38.6978577  46.8582391
  54.9137162  45.0290743  51.7831106  55.7828322  45.2031395  51.4217741
  54.4343913  45.8485160  51.6606835  50.9087380  32.2249940  32.0362862
  50.8966050  33.1691780  32.1931133  51.8010802  32.0420086  31.7422323
  49.0823342  52.1487844  43.4620540  49.9850589  52.1811454  43.7787035
  48.8560712  51.2188295  43.4766876  50.8376944  50.9018831  40.1230618
  49.8872575  50.9020692  40.0094991  51.1409430  50.1551565  39.6066653
  54.7239500  28.8192717  36.2908799  53.9571896  28.2651204  36.4365481
  55.1350205  28.8914586  37.1522950  46.7281261  35.1077513  50.3813980
  47.5912722  34.7514317  50.5917304  46.1546671  34.7691407  51.0689384
  66.5729638  56.7379369  41.1876381  67.2108048  56.6186116  40.4839721
  66.4550481  57.6860213  41.2464333  63.3819344  56.6906797  41.1237905
  63.0437856  56.5747862  40.2358440  64.2509112  56.2897962  41.1038912
  59.2406160  58.5442274  37.1134796  58.6771025  58.4532210  36.3451084
  59.1258555  57.7242178  37.5937289  63.8639127  57.8441649  47.0824111
  63.8527768  57.4494447  46.2104615  64.0259766  57.1107721  47.6757882
  56.7870592  60.0393465  39.9519017  57.5791884  59.6984290  39.5365316
  57.0267242  60.1488440  40.8721170  64.8205718  62.2113241  32.4249261
  64.1693698  62.7967322  32.0383275  65.6150081  62.7419436  32.4844299
  58.7461346  59.3002378  32.8236396  59.5192222  58.7531365  32.6849271
  59.0986744  60.1646628  33.0350857  60.5846388  60.6278761  46.0303295
  60.2936254  61.5324391  45.9149961  61.2203372  60.6695288  46.7447365
  61.5102595  58.0055609  42.6204655  62.1066167  57.7811632  41.9061618
  61.5677567  57.2640355  43.2230102  61.0827623  55.4595044  30.4554846
  61.3353144  54.9376566  29.6938309  60.1452182  55.2961190  30.5581529
  66.1270906  54.4630823  38.2629589  66.9133995  54.0450246  37.9120006
  66.3909611  55.3676915  38.4311237  66.2980984  59.9003673  32.9618246
  65.6626817  59.9738300  33.6739150  65.9678390  60.4897272  32.2837325
  71.5279333  54.4006056  39.1662567  72.2604505  53.8305273  39.4000397
  70.7718689  54.0127656  39.6069073  60.8023912  57.3623150  32.6579221
  60.6860170  56.6868054  33.3260305  60.9126172  56.8755524  31.8411374
  63.1455453  56.8233298  36.3625910  62.7813660  56.2963919  37.0738831
  64.0022569  56.4331767  36.1892395  69.0504754  48.1127630  43.6257176
  68.7188078  48.9823041  43.4018391  68.4550367  47.7963914  44.3051206
  62.7860940  51.8523197  31.3587258  62.9535342  52.7203434  31.7257729
  62.5958109  52.0150479  30.4348548  65.5436273  60.3140176  43.0253089
  65.2436996  61.2165215  42.9168896  65.1987333  60.0472359  43.8774242
  58.9948755  56.7653973  39.0589793  58.0699251  56.6330187  39.2667485
  59.2433168  57.5448192  39.5559736  68.9433417  52.8322716  40.7050526
  68.0350294  52.7638125  40.4109287  68.8921013  53.3094661  41.5332351
  62.7650161  54.3080855  32.3433925  62.6449786  54.7537906  33.1819405
  62.0702749  54.6566172  31.7847463  56.3557566  56.4087247  39.8933582
  56.4849947  56.6621725  40.8072994  55.6755017  57.0014955  39.5738237
  60.5257053  67.0784496  35.9924056  60.4481083  68.0292322  36.0712537
  59.9218697  66.7330369  36.6498983  63.0174283  54.2512362  48.6485423
  62.2407617  54.8106282  48.6388288  63.6564846  54.7369145  49.1700293
  70.8095063  51.0339155  42.4828400  70.1669444  51.3271688  41.8368194
  70.3049992  50.9192075  43.2881597  68.4635227  54.7802328  33.1714259
  69.3753083  55.0129715  32.9961957  67.9544874  55.3639372  32.6089338
  61.2720655  57.0597815  48.2103390  62.0135339  57.5982859  47.9338214
  60.5657641  57.6864104  48.3674942  66.7475995  59.2026956  46.8075552
  67.1559351  58.7609366  46.0630184  66.0253256  58.6279583  47.0609745
  63.1007065  54.1399563  44.1809109  63.9468260  54.5638976  44.3243758
  63.0405702  53.4833187  44.8747672  67.0704809  59.7628146  40.5627841
  66.4413672  59.9273860  39.8603908  66.6830471  60.1769756  41.3338805
  70.9494041  60.6982584  37.9172204  70.2645079  61.0781486  37.3669238
  71.0337891  61.3077911  38.6504152  66.2506510  51.8003931  45.8390282
  66.0067442  52.5545991  45.3024558  66.5266441  52.1789278  46.6737529
  68.2044973  58.3442543  44.5167548  68.4161868  58.9874303  43.8401929
  68.1574721  57.5104860  44.0489478  65.8071202  50.9560364  41.4204120
  64.9455681  51.2541617  41.7120858  65.8333636  51.1730763  40.4885153
  62.6232771  59.5002554  37.8277926  63.0871117  59.7790257  37.0382548
  62.3589569  58.5985999  37.6451016  59.5156852  59.0474036  40.7657689
  60.0858209  59.4761304  40.1275173  60.1064964  58.7656621  41.4641875
  61.5601657  55.6225707  34.6367491  62.2625701  56.0746750  35.1041417
  61.2282286  54.9809526  35.2647384  60.0082019  54.2137463  49.0118700
  59.3780679  54.8953744  49.2454097  59.9018107  54.1020545  48.0671839
  55.3026991  53.8809259  39.9384624  54.5126045  54.1366788  39.4624735
  55.7938239  54.6957597  40.0436665  69.3190801  61.2214499  42.6889905
  70.1408245  60.8194686  42.4072587  69.3153204  61.1182733  43.6406021
  57.2541737  54.2453839  36.8968101  56.4572900  54.3572533  37.4151597
  57.0267329  54.5840491  36.0308992  63.0847404  60.7698542  44.8450616
  63.1491837  61.2318949  45.6808788  62.3758328  60.1395907  44.9732926
  53.5864694  54.1339750  42.3699615  53.8372733  55.0186760  42.6357191
  54.1224243  53.9544351  41.5974707  77.4096794  57.5653247  39.0374877
  76.6560502  56.9960645  38.8818881  77.5444335  57.5315912  39.9845511
  62.7995422  62.4366649  34.7129596  62.6641097  63.2818185  35.1414444
  63.3405234  62.6385927  33.9495530  59.2862762  48.5158229  51.3743951
  58.8929707  47.9624428  52.0491596  60.1028902  48.8268808  51.7650469
  56.2524819  59.9542087  35.2857521  56.7649340  60.7485338  35.4363086
  56.9047532  59.2568378  35.2191123  58.0619704  63.0707844  37.3680274
  58.2386332  63.9925808  37.1801258  58.8576538  62.7566263  37.7974654
  62.2030723  49.9316108  48.9664208  62.9440436  50.5323262  48.8868670
  62.4348645  49.1893746  48.4082250  57.3472061  55.1172476  47.2442438
  57.2325576  54.2157733  47.5449536  56.4916578  55.3636172  46.8927254
  64.4263898  63.0590216  48.8429938  63.9827752  62.2726595  48.5250843
  65.0881112  63.2469366  48.1773829  59.1851019  64.5886018  43.3690617
  59.7358445  64.4603081  42.5967611  58.3462495  64.8880907  43.0185509
  66.5245136  63.3393016  46.8711339  66.5063612  64.1601897  46.3791609
  67.4465056  63.2147091  47.0961481  62.9818191  60.8537145  47.7134848
  63.5146527  60.0925434  47.4834156  62.4532272  60.5610797  48.4559002
  66.1487886  45.9597211  43.2428490  65.8052155  46.8498853  43.1667600
  66.5166848  45.7698869  42.3798075  54.2173736  58.2830742  36.0617092
  55.0548958  58.6927750  35.8450799  54.3952004  57.3430184  36.0317286
  66.1138168  55.9505822  31.7500925  65.5984792  56.7210427  31.9889312
  65.8415477  55.2770959  32.3733986  63.6985279  50.7955523  36.8086163
  62.8426876  50.4062374  36.6291802  64.1112231  50.8747484  35.9485949
  65.2284426  48.3301866  41.2077723  64.7249221  48.2932002  40.3945528
  65.5215033  49.2394609  41.2674379  61.4727312  48.4140596  40.2143905
  62.3380309  48.2183405  39.8549794  61.5404821  48.1850948  41.1413261
  71.0872442  58.7038177  33.6854098  70.3101885  58.3649337  33.2409260
  71.7663923  58.7090800  33.0109063  65.9024471  53.8232915  33.5760706
  65.5974607  54.1379064  34.4270849  66.8554914  53.9014334  33.6188039
  64.3470903  59.9823138  35.2253660  63.8192265  59.2475897  34.9126897
  63.8458406  60.7597814  34.9793628  69.3263749  58.1772158  40.3420706
  68.6687424  58.8671420  40.4300835  70.1304148  58.5668590  40.6854692
  59.0789631  50.6442804  37.5860271  59.6533383  50.4217986  36.8533464
  59.6660613  50.7131499  38.3388873  68.1369208  56.5316531  38.3924648
  68.6501090  57.1646523  38.8946358  68.7870432  55.9317727  38.0268008
  59.4059218  52.6747265  31.6056157  58.5696530  53.0121952  31.9265431
  59.2663988  52.5396245  30.6683294  61.3812299  47.5184053  36.3135341
  60.7276711  47.2033070  35.6891956  61.3392773  46.8959793  37.0395164
  62.4923503  57.8003348  28.2288633  61.5850565  57.5692602  28.4279782
  62.9894535  57.0040967  28.4162614  65.3991582  66.5100855  31.1485319
  64.7253281  66.8132552  31.7570277  65.7857404  67.3129936  30.7990776
  64.6150039  54.0065987  40.6382988  63.6972600  54.2280934  40.4804676
  65.0310183  54.0812297  39.7794696  65.3985087  55.4057402  35.7685669
  66.1456906  55.9178799  35.4592791  65.6676676  55.0841455  36.6290062
  63.6711737  57.9015943  32.7512623  62.7622956  57.6174976  32.8485093
  63.7006821  58.3215022  31.8915930  68.9031004  61.5122532  36.5203791
  68.4493331  60.6713442  36.5768981  68.2724971  62.1483931  36.8578571
  67.8463924  52.4414519  37.7504458  67.1086681  51.9291905  38.0814701
  68.0990697  52.0014900  36.9387735  67.3463944  63.3499029  37.4553609
  67.6386918  63.9104086  36.7365974  67.8562564  63.6427590  38.2106768
  67.9475551  45.2190771  38.3446227  68.2534428  44.3588134  38.0572142
  68.6728156  45.8108391  38.1445221  54.2399907  55.6221457  36.7327825
  54.0424307  55.0290818  36.0078892  53.6846571  55.3173667  37.4503764
  62.2196631  55.5144564  38.8522418  62.2745241  54.5618400  38.7764895
  61.4087833  55.6704003  39.3363717  63.3687825  59.4424687  30.0900702
  62.9307255  58.7260546  29.6306339  64.1098266  59.6700801  29.5285793
  60.1588991  54.1321623  36.6112797  59.3456856  54.4315794  37.0177989
  60.6547985  53.7377312  37.3287279  62.3097569  64.1279380  38.5447062
  62.2673748  64.3540227  37.6155594  63.2260268  63.8942755  38.6932863
  65.7563203  54.5963448  45.4427691  66.1112590  54.8234921  46.3022157
  66.4035334  54.9281825  44.8204946  71.4860939  57.7181884  36.1477020
  71.3478838  57.9083480  35.2198209  71.1297158  58.4801267  36.6045071
  59.6503066  51.7039979  42.2274032  60.2902445  51.5628738  41.5296995
  58.8180596  51.4174492  41.8512634  71.5130319  59.7858411  41.1588292
  71.9466826  59.6933700  42.0071346  72.2261900  59.7615911  40.5208308
  60.4263369  61.0042409  38.3409025  61.2203968  60.5092729  38.1391600
  59.7155062  60.4760272  37.9776730  65.2458214  63.3860505  42.6921392
  65.2995236  63.9551441  43.4599108  64.3772995  63.5562390  42.3275429
  56.7346133  55.1485491  34.4168777  55.8043721  55.0869946  34.6338739
  56.8303605  54.6261444  33.6205419  56.6531682  51.6740304  37.0047019
  56.9138499  52.5885637  36.8956179  57.4748854  51.2064746  37.1543632
  58.1256607  53.0878061  44.1745843  58.7979661  52.8795423  43.5258492
  57.2986394  52.8900147  43.7351076  72.3745869  59.8282111  43.6921177
  72.5681759  60.7327922  43.9380452  72.2746487  59.3689530  44.5259762
  64.0282179  49.7140002  46.1911504  63.3810094  50.4129952  46.0975981
  64.7983195  50.1476146  46.5587753  67.4360977  59.9788854  49.2662058
  67.2846484  59.7499406  48.3492141  67.4265657  60.9359456  49.2793403
  64.2046314  57.5520767  44.2508324  65.1338374  57.7031926  44.0777291
  63.7837344  57.6404788  43.3956971  63.0034645  61.5771431  42.0206862
  62.8645731  61.2090216  42.8932800  62.2149242  62.0919071  41.8490819
  63.5982797  66.6780528  33.3632398  63.7734553  66.2068571  34.1778021
  62.9115585  67.3046294  33.5913659  64.5539861  60.9553034  39.4095699
  64.2189693  60.9153804  40.3053349  64.0543806  60.2897750  38.9366110
  58.5284105  56.3620664  44.9348281  58.3903903  55.6300903  45.5359820
  59.4389028  56.2729564  44.6532468  67.4899052  58.3009068  29.6832759
  66.8728223  57.5755896  29.5865812  67.0215541  59.0618429  29.3399833
  61.1566405  56.0740623  44.4231960  61.8666024  55.4333816  44.3818579
  61.1135713  56.3253518  45.3458141  69.1453184  63.0107977  47.3438539
  69.0865730  62.3267197  46.6769123  69.5472702  63.7526967  46.8919165
  59.8695339  53.0605841  46.2427600  59.3332696  52.6096580  46.8949196
  59.2812048  53.1951750  45.4998064  58.1643883  69.8269890  40.1372258
  58.4040481  70.4588415  40.8151277  57.3213079  69.4757931  40.4237618
  59.2797598  52.5194493  28.8054063  58.4027065  52.3983293  28.4416310
  59.7555351  51.7280571  28.5532952  69.1470591  60.9747561  45.5752519
  68.2597370  60.6373482  45.6978918  69.7169142  60.2430592  45.8121285
  50.7999738  57.3071652  38.8995571  51.4870778  56.9933382  38.3116586
  50.6447867  58.2113017  38.6262822  55.6034460  52.1961849  43.3280594
  55.5192649  51.5887518  42.5931004  54.7817167  52.6870867  43.3290091
  62.6771745  65.6349013  42.5413762  62.6041916  66.4403984  43.0533067
  62.2349138  65.8340979  41.7161784  62.4661524  64.8720783  36.0516584
  61.6829046  65.4142463  36.1454808  63.1654269  65.3894763  36.4510825
  65.7758174  50.6815412  38.6950789  66.2726874  49.9285375  38.3751860
  65.0045156  50.7179729  38.1293999  73.6287932  56.3855778  40.3369081
  73.6177808  57.2680493  39.9663014  72.7605311  56.0327329  40.1423618
  65.1370428  65.5335847  44.6971921  65.8498400  66.1683312  44.6247822
  64.6460457  65.6299713  43.8811923  66.8587955  59.4387100  36.2689213
  65.9244234  59.5588562  36.0993917  67.0364623  58.5359566  36.0049223
  62.3593143  52.8232795  38.4222474  61.9890931  52.2703836  39.1103379
  62.8552236  52.2190929  37.8697474  70.2460506  55.2804419  36.8039247
  70.7120959  56.1132411  36.7299549  70.6968007  54.8149400  37.5084505
  60.1882342  63.2830290  45.5177492  60.8891801  63.9166773  45.6706886
  59.7177457  63.6245022  44.7573131  68.3136737  61.6248240  33.8025399
  68.5896581  61.5104835  34.7119273  67.4441236  61.2265725  33.7637572
  68.2177169  47.6485006  40.8430148  67.3040249  47.8789233  41.0112355
  68.6470271  47.7323450  41.6944181  67.9883628  55.8374898  43.3430042
  67.3355078  56.0850805  42.6882495  68.3664008  55.0239036  43.0092519
  64.9490801  65.8734591  37.4458212  65.1313196  65.0556247  37.9085965
  65.7723788  66.0902283  37.0083102  65.2832967  64.8002776  34.7073261
  65.8120733  64.2895231  34.0943423  65.5461187  64.4845306  35.5718794
  64.0371201  56.5794709  49.8296079  63.3611838  56.4788838  50.4998454
  64.8598835  56.4233923  50.2932076  55.7850060  62.8166645  42.4508595
  56.3703497  62.0710333  42.5836499  55.5874898  63.1270602  43.3345258
  58.6388715  65.8517893  37.4671037  57.9699090  66.3364020  36.9835077
  58.5001585  66.0987113  38.3814415  50.3767714  55.3872246  41.1713038
  50.4151814  54.8535836  41.9650156  49.8708007  54.8607451  40.5524015
  62.7793984  67.8861636  44.0653695  63.3312292  68.0493258  44.8302780
  63.1200177  68.4766074  43.3933720  57.7558477  50.2336786  44.6675580
  57.8199803  51.0951617  44.2552978  57.6925597  49.6210788  43.9347938
  57.2310749  52.3059919  48.3148614  57.8582788  51.9236996  48.9286139
  56.3738668  52.0874121  48.6804307  67.6304858  62.7122894  49.9202350
  68.1744762  63.3252852  49.4257304  67.0491703  63.2702472  50.4369363
  54.0076292  54.1136348  34.2466969  54.3029733  53.2047026  34.1934023
  53.1064328  54.0924087  33.9247971  65.9162371  65.8343612  41.0517377
  65.7913510  65.0333352  40.5428323  66.5741462  66.3289805  40.5631347
  57.5370539  52.1892344  40.2294518  56.8157125  52.8028312  40.0901991
  58.3263795  52.7250109  40.1511164  67.9797279  63.6352632  42.6796928
  67.0327615  63.5157983  42.6075254  68.3280052  62.7475130  42.7623189
  60.3396853  49.5246771  46.5035169  60.8631254  49.7709067  47.2661479
  60.1209186  50.3566806  46.0838307  55.7364134  51.7950445  34.3706294
  55.4076840  50.9147824  34.1881400  56.0903504  51.7398114  35.2582683
  64.9843712  63.4305348  38.8801280  64.8368675  62.5022056  39.0608850
  65.8097206  63.4525439  38.3958355  58.8505957  52.0823415  34.7381772
  59.1902029  52.6109337  34.0160380  59.2978077  52.4203821  35.5140338
  68.5877834  64.2533907  39.9666153  69.5124382  64.0476768  39.8290604
  68.4193138  64.0050308  40.8755494  61.5449398  50.4660466  44.1884840
  61.2046218  49.6668279  44.5905520  60.8388404  50.7662177  43.6161673
  62.1965869  47.5509778  42.6412163  63.0191939  47.0770257  42.5191053
  62.4403933  48.3300262  43.1410849  60.8374104  50.5798037  32.9375065
  61.5582466  50.9579290  32.4338782  60.2139408  51.2986914  33.0410043
  64.9805227  51.2843186  33.8733397  65.1968841  52.1667824  33.5722225
  64.4999294  50.8929399  33.1439039  59.7204448  54.2428899  40.4504142
  59.5749029  54.5569202  41.3428423  59.2429652  54.8613799  39.8975040
  61.5800831  51.2331447  40.4985031  61.5662400  50.3372540  40.1617329
  62.2973259  51.2402111  41.1323317  63.4326962  51.6668787  42.5438159
  63.1744740  52.5885858  42.5422489  62.9012002  51.2699222  43.2338623
  68.3773151  64.7719574  35.3228244  68.5510028  64.2065997  34.5702096
  68.8702042  65.5720469  35.1407734  54.1950110  56.7834243  43.3891803
  53.6503578  57.5594051  43.5212077  55.0729460  57.1305048  43.2310924
  60.9837727  50.1145827  35.7672601  61.1053638  49.1862474  35.9663489
  60.6939769  50.1284513  34.8550917  63.8528917  47.8000738  38.9039321
  63.8750614  47.8640071  37.9491301  64.2696976  46.9605246  39.0979827
  74.2312542  57.5355997  36.9418544  74.6743688  56.7863323  36.5437667
  73.3539052  57.5266134  36.5592276  69.3648323  64.0886339  32.4225142
  70.0599228  64.7093031  32.6412457  69.7071473  63.2381690  32.6977520
  54.9816132  55.9104140  46.2821960  54.2397868  56.0586775  46.8686590
  54.6608876  56.1712405  45.4188709  71.2639746  61.5386044  33.9512473
  71.7891070  61.8773317  33.2261793  71.1762099  60.6033060  33.7675608
  62.9259795  65.4520118  46.0802350  63.2346921  65.2069265  46.9525049
  63.7235277  65.6566756  45.5921220  62.9480407  67.6058028  38.3107726
  62.5085397  67.1134406  39.0040583  63.6988524  67.0630995  38.0699801
  55.4272746  63.7969568  38.3132354  56.2530766  63.4973340  37.9330998
  55.0766798  63.0277191  38.7622143  60.3954279  63.1496037  40.3830028
  59.7734288  62.4866742  40.0832256  61.0659146  63.1757169  39.7003676
  53.6281351  61.7155895  39.2721288  52.7913259  61.2878069  39.0905289
  53.6004996  61.9088338  40.2092079  60.4678807  51.6277825  49.9762534
  60.5166962  52.5039948  49.5940303  61.0101321  51.0855218  49.4034177
  70.9533652  62.1718948  49.2563671  70.1629196  62.1543087  48.7168170
  70.7167007  62.7107242  50.0112708  71.0731527  59.0211414  46.5696399
  71.1229532  58.8561422  47.5111922  70.9645451  58.1538673  46.1794280
  59.9567786  61.6999960  33.8588488  60.1055906  62.3835424  33.2055161
  60.7634229  61.6805050  34.3737944  68.3635290  55.0042342  47.8855706
  69.2645152  54.8648807  47.5939704  68.4383264  55.1696797  48.8253884
  62.6978095  52.3809197  46.7308893  61.8281404  52.6742763  46.4591481
  62.9337575  52.9649642  47.4516156  72.5749724  61.4408356  46.8138421
  72.2834532  61.8038336  47.6501882  71.9621855  60.7275364  46.6351753
  73.7745406  59.0061236  39.3340991  74.6092298  59.4451040  39.4978552
  73.9104535  58.5299889  38.5149237  70.8236912  56.5640970  45.2818479
  71.2991034  56.7568617  44.4737330  69.9002478  56.6200156  45.0361863
  57.7120419  57.7265138  34.8649557  57.4666461  56.8227468  35.0629767
  57.8816333  57.7282288  33.9229035  65.4017129  48.5988814  44.2474313
  65.9199073  49.3349841  43.9220801  65.0472262  48.9052807  45.0821072
  56.9816066  53.4593495  32.3635719  56.2885311  53.5337850  31.7075755
  56.7367818  52.6953839  32.8857236  65.6529723  45.0189097  39.7675210
  65.9331477  44.3512286  40.3935636  66.4380330  45.2118192  39.2549873
  63.4563191  64.1948090  31.3300236  62.8837159  64.8138278  30.8770708
  64.0295985  64.7447452  31.8640158  69.5238581  53.4406731  43.5146785
  70.4756004  53.5404828  43.5359009  69.3542032  52.6484999  44.0244869
  67.5452961  50.5262314  43.7006186  66.9502893  50.8067327  43.0052674
  67.2602657  51.0156215  44.4722927  66.6760451  64.4785241  32.4608818
  67.6091124  64.4130802  32.6641694  66.5883664  65.3141507  32.0023351
  69.3048468  63.7951111  29.4212766  69.2262099  63.4610975  30.3148524
  70.1258135  64.2872879  29.4204238  72.0026659  56.6612850  42.6289084
  71.9702979  55.7228851  42.8148768  72.6127283  56.7396887  41.8954909
  63.8409990  55.5308903  28.6716288  64.7869095  55.4015111  28.7404706
  63.4624235  54.7923565  29.1485716  72.1521148  53.4523894  42.6747367
  71.6360196  52.6682350  42.4877296  73.0361096  53.1242610  42.8393887
  69.8131875  47.1964909  38.6343180  69.6156696  46.8879997  39.5186512
  70.4231580  47.9226548  38.7641110  77.8203209  57.7228857  41.7695121
  78.5506597  57.4614145  42.3302824  77.2110154  56.9857579  41.8097189
  75.9018506  55.8636720  42.3669572  75.1751670  55.7292685  41.7586064
  75.4865793  56.1713548  43.1726290  63.7248683  59.5826649  50.1316945
  64.6451692  59.7605248  50.3256992  63.6898266  58.6382695  49.9796645
  62.0252907  53.4558880  28.6071174  61.1184363  53.1591992  28.6833887
  62.3028888  53.1588698  27.7405460  52.9430848  54.7765243  39.0570220
  52.6233632  53.9230551  38.7644594  52.3964276  54.9913821  39.8128187
  56.7210755  57.4927684  42.7739726  56.9396765  58.4244792  42.7927760
  57.1336529  57.1335658  43.5594530  63.6414973  47.9995769  34.7615415
  62.8315701  47.6542854  35.1370661  64.3299390  47.6903313  35.3503026
  65.5705521  47.0773816  36.3839711  66.1236560  47.4969270  37.0429735
  65.8075607  46.1509564  36.4262667  61.5938620  53.0660890  52.1642475
  61.4935347  54.0155247  52.0954566  61.3760162  52.7379129  51.2918545
  60.7951692  50.3145815  28.7483153  61.6570856  50.6400713  29.0078970
  60.9802036  49.5277311  28.2356219  52.8119108  58.3968155  41.0263342
  52.1182579  57.9822107  40.5133296  53.5592099  58.4388691  40.4296760
  68.9484328  49.1874341  35.8918376  68.3682997  49.8459145  35.5096428
  68.6820261  48.3651686  35.4805793  67.3987895  48.5879399  38.0939696
  67.8987673  48.6995934  37.2854015  68.0423503  48.2840452  38.7340505
  61.4569890  56.4958029  50.9807537  60.9736972  57.2958389  51.1871426
  61.5430829  56.5065973  50.0274981  54.7255850  58.3286408  38.9029356
  54.7026538  58.4274096  37.9511240  55.0356487  59.1751559  39.2246523
  57.3843228  60.3862563  43.0175971  58.3386481  60.3546506  42.9505902
  57.1855751  59.9253187  43.8326197  57.9742610  58.9563679  45.5846768
  58.7935499  59.4507758  45.6081606  58.2479418  58.0395648  45.5564336
  67.7309206  51.3474432  34.9474724  66.8435061  51.6324082  34.7294919
  68.1463195  51.1868195  34.1002001  71.0823742  51.3720953  38.6629063
  71.8584132  51.8617405  38.9353680  70.3571877  51.7979007  39.1200933
  73.5196301  52.0848572  39.7203004  74.1140792  51.8444308  39.0096312
  73.5922885  51.3655702  40.3476540  55.7393457  65.9282183  40.0346169
  55.6047925  65.1682584  39.4684167  55.3225519  66.6523083  39.5674958
  66.8752420  61.1119106  29.0422744  67.5788270  61.3169109  29.6580400
  66.1515068  61.6795868  29.3071828  67.7050230  56.8628968  35.1625014
  67.6485431  57.3197519  34.3232647  68.2578572  56.1019652  34.9847857
  71.5155036  52.6518699  35.9875134  71.2591970  52.2515335  36.8183341
  70.8907904  53.3662493  35.8625273  75.8267374  55.3914773  38.4946425
  75.2666932  55.4607962  39.2677987  75.2210877  55.2155757  37.7745921
  58.8962583  66.8251500  40.2464611  58.7794967  67.7696932  40.1443302
  58.0755029  66.5225061  40.6350411  68.7839117  61.5501636  31.0921204
  69.6184721  61.1182834  30.9098679  68.6223460  61.3783649  32.0198099
  68.4385009  58.0533749  32.4577543  68.3833813  57.8878020  31.5165987
  67.8131065  58.7609782  32.6139733  53.2277524  53.2901813  46.2838966
  53.8736388  52.7800767  46.7726191  53.0194675  54.0270495  46.8582391
  65.7530916  60.3582661  51.7831106  66.6222076  60.5323313  51.4217741
  65.2737668  61.1777078  51.6606835  61.7481135  47.5541858  32.0362862
  61.7359805  48.4983698  32.1931133  62.6404557  47.3712003  31.7422323
  59.9217097  67.4779762  43.4620540  60.8244343  67.5103372  43.7787035
  59.6954467  66.5480213  43.4766876  61.6770699  66.2310748  40.1230618
  60.7266330  66.2312610  40.0094991  61.9803185  65.4843483  39.6066653
  65.5633254  44.1484635  36.2908799  64.7965650  43.5943121  36.4365481
  65.9743959  44.2206503  37.1522950  57.5675015  50.4369430  50.3813980
  58.4306477  50.0806235  50.5917304  56.9940426  50.0983325  51.0689384
  77.4123392  72.0671287  41.1876381  78.0501802  71.9478034  40.4839721
  77.2944235  73.0152131  41.2464333  74.2213098  72.0198715  41.1237905
  73.8831610  71.9039779  40.2358440  75.0902867  71.6189880  41.1038912
  70.0799914  73.8734191  37.1134796  69.5164779  73.7824128  36.3451084
  69.9652309  73.0534096  37.5937289  74.7032881  73.1733566  47.0824111
  74.6921522  72.7786365  46.2104615  74.8653521  72.4399639  47.6757882
  67.6264346  75.3685383  39.9519017  68.4185638  75.0276207  39.5365316
  67.8660996  75.4780358  40.8721170  75.6599473  77.5405159  32.4249261
  75.0087453  78.1259239  32.0383275  76.4543836  78.0711354  32.4844299
  69.5855100  74.6294296  32.8236396  70.3585976  74.0823283  32.6849271
  69.9380499  75.4938545  33.0350857  71.4240143  75.9570678  46.0303295
  71.1330009  76.8616309  45.9149961  72.0597127  75.9987206  46.7447365
  72.3496349  73.3347527  42.6204655  72.9459922  73.1103549  41.9061618
  72.4071321  72.5932272  43.2230102  71.9221378  70.7886962  30.4554846
  72.1746899  70.2668483  29.6938309  70.9845937  70.6253108  30.5581529
  76.9664661  69.7922741  38.2629589  77.7527750  69.3742164  37.9120006
  77.2303365  70.6968833  38.4311237  77.1374738  75.2295591  32.9618246
  76.5020571  75.3030217  33.6739150  76.8072144  75.8189190  32.2837325
  82.3673088  69.7297974  39.1662567  83.0998260  69.1597191  39.4000397
  81.6112444  69.3419574  39.6069073  71.6417667  72.6915068  32.6579221
  71.5253925  72.0159971  33.3260305  71.7519927  72.2047442  31.8411374
  73.9849208  72.1525215  36.3625910  73.6207415  71.6255836  37.0738831
  74.8416323  71.7623684  36.1892395  79.8898508  63.4419548  43.6257176
  79.5581833  64.3114959  43.4018391  79.2944122  63.1255832  44.3051206
  73.6254695  67.1815115  31.3587258  73.7929097  68.0495351  31.7257729
  73.4351864  67.3442397  30.4348548  76.3830028  75.6432094  43.0253089
  76.0830751  76.5457133  42.9168896  76.0381087  75.3764277  43.8774242
  69.8342509  72.0945891  39.0589793  68.9093006  71.9622105  39.2667485
  70.0826922  72.8740110  39.5559736  79.7827172  68.1614634  40.7050526
  78.8744049  68.0930042  40.4109287  79.7314767  68.6386579  41.5332351
  73.6043915  69.6372772  32.3433925  73.4843541  70.0829823  33.1819405
  72.9096504  69.9858090  31.7847463  67.1951320  71.7379164  39.8933582
  67.3243701  71.9913643  40.8072994  66.5148772  72.3306872  39.5738237
  71.3650808  82.4076414  35.9924056  71.2874837  83.3584239  36.0712537
  70.7612451  82.0622287  36.6498983  73.8568037  69.5804280  48.6485423
  73.0801371  70.1398200  48.6388288  74.4958600  70.0661063  49.1700293
  81.6488818  66.3631072  42.4828400  81.0063198  66.6563606  41.8368194
  81.1443746  66.2483993  43.2881597  79.3028982  70.1094246  33.1714259
  80.2146838  70.3421632  32.9961957  78.7938629  70.6931290  32.6089338
  72.1114410  72.3889733  48.2103390  72.8529094  72.9274777  47.9338214
  71.4051395  73.0156022  48.3674942  77.5869749  74.5318873  46.8075552
  77.9953105  74.0901284  46.0630184  76.8647011  73.9571501  47.0609745
  73.9400819  69.4691480  44.1809109  74.7862014  69.8930894  44.3243758
  73.8799457  68.8125105  44.8747672  77.9098564  75.0920064  40.5627841
  77.2807426  75.2565778  39.8603908  77.5224226  75.5061674  41.3338805
  81.7887796  76.0274502  37.9172204  81.1038834  76.4073403  37.3669238
  81.8731645  76.6369829  38.6504152  77.0900265  67.1295849  45.8390282
  76.8461196  67.8837909  45.3024558  77.3660195  67.5081196  46.6737529
  79.0438727  73.6734461  44.5167548  79.2555623  74.3166221  43.8401929
  78.9968476  72.8396777  44.0489478  76.6464956  66.2852282  41.4204120
  75.7849435  66.5833535  41.7120858  76.6727391  66.5022680  40.4885153
  73.4626526  74.8294472  37.8277926  73.9264871  75.1082175  37.0382548
  73.1983324  73.9277917  37.6451016  70.3550607  74.3765954  40.7657689
  70.9251964  74.8053222  40.1275173  70.9458719  74.0948538  41.4641875
  72.3995412  70.9517625  34.6367491  73.1019455  71.4038668  35.1041417
  72.0676040  70.3101443  35.2647384  70.8475773  69.5429381  49.0118700
  70.2174434  70.2245662  49.2454097  70.7411861  69.4312463  48.0671839
  66.1420746  69.2101177  39.9384624  65.3519800  69.4658706  39.4624735
  66.6331993  70.0249515  40.0436665  80.1584555  76.5506416  42.6889905
  80.9801999  76.1486604  42.4072587  80.1546958  76.4474651  43.6406021
  68.0935491  69.5745756  36.8968101  67.2966654  69.6864451  37.4151597
  67.8661083  69.9132409  36.0308992  73.9241159  76.0990460  44.8450616
  73.9885591  76.5610867  45.6808788  73.2152083  75.4687825  44.9732926
  64.4258449  69.4631668  42.3699615  64.6766487  70.3478678  42.6357191
  64.9617997  69.2836269  41.5974707  88.2490548  72.8945165  39.0374877
  87.4954257  72.3252563  38.8818881  88.3838090  72.8607829  39.9845511
  73.6389176  77.7658567  34.7129596  73.5034851  78.6110103  35.1414444
  74.1798989  77.9677845  33.9495530  70.1256516  63.8450147  51.3743951
  69.7323462  63.2916346  52.0491596  70.9422656  64.1560725  51.7650469
  67.0918574  75.2834005  35.2857521  67.6043094  76.0777255  35.4363086
  67.7441287  74.5860296  35.2191123  68.9013459  78.3999761  37.3680274
  69.0780087  79.3217726  37.1801258  69.6970292  78.0858181  37.7974654
  73.0424477  65.2608026  48.9664208  73.7834190  65.8615179  48.8868670
  73.2742400  64.5185664  48.4082250  68.1865815  70.4464393  47.2442438
  68.0719330  69.5449651  47.5449536  67.3310333  70.6928090  46.8927254
  73.8211945  76.1829063  47.7134848  74.3540282  75.4217351  47.4834156
  73.2926026  75.8902715  48.4559002  76.9881640  61.2889129  43.2428490
  76.6445909  62.1790771  43.1667600  77.3560603  61.0990787  42.3798075
  65.0567491  73.6122659  36.0617092  65.8942713  74.0219668  35.8450799
  65.2345758  72.6722102  36.0317286  76.9531923  71.2797740  31.7500925
  76.4378546  72.0502345  31.9889312  76.6809231  70.6062876  32.3733986
  74.5379034  66.1247441  36.8086163  73.6820630  65.7354291  36.6291802
  74.9505986  66.2039402  35.9485949  76.0678180  63.6593784  41.2077723
  75.5642976  63.6223919  40.3945528  76.3608787  64.5686527  41.2674379
  72.3121066  63.7432514  40.2143905  73.1774063  63.5475323  39.8549794
  72.3798575  63.5142866  41.1413261  81.9266197  74.0330095  33.6854098
  81.1495640  73.6941254  33.2409260  82.6057678  74.0382718  33.0109063
  76.7418226  69.1524832  33.5760706  76.4368361  69.4670981  34.4270849
  77.6948668  69.2306252  33.6188039  75.1864658  75.3115056  35.2253660
  74.6586019  74.5767815  34.9126897  74.6852160  76.0889732  34.9793628
  80.1657504  73.5064076  40.3420706  79.5081178  74.1963337  40.4300835
  80.9697903  73.8960508  40.6854692  69.9183385  65.9734722  37.5860271
  70.4927137  65.7509903  36.8533464  70.5054368  66.0423416  38.3388873
  78.9762963  71.8608449  38.3924648  79.4894844  72.4938441  38.8946358
  79.6264186  71.2609644  38.0268008  70.2452972  68.0039183  31.6056157
  69.4090285  68.3413869  31.9265431  70.1057742  67.8688163  30.6683294
  72.2206053  62.8475971  36.3135341  71.5670465  62.5324988  35.6891956
  72.1786527  62.2251711  37.0395164  73.3317258  73.1295266  28.2288633
  72.4244320  72.8984519  28.4279782  73.8288290  72.3332885  28.4162614
  76.2385337  81.8392773  31.1485319  75.5647036  82.1424470  31.7570277
  76.6251159  82.6421853  30.7990776  75.4543793  69.3357904  40.6382988
  74.5366355  69.5572851  40.4804676  75.8703937  69.4104215  39.7794696
  76.2378841  70.7349320  35.7685669  76.9850660  71.2470717  35.4592791
  76.5070431  70.4133373  36.6290062  74.5105491  73.2307861  32.7512623
  73.6016711  72.9466893  32.8485093  74.5400575  73.6506939  31.8915930
  79.7424759  76.8414450  36.5203791  79.2887086  76.0005360  36.5768981
  79.1118725  77.4775849  36.8578571  78.6857678  67.7706436  37.7504458
  77.9480435  67.2583822  38.0814701  78.9384452  67.3306818  36.9387735
  78.1857698  78.6790947  37.4553609  78.4780672  79.2396004  36.7365974
  78.6956319  78.9719508  38.2106768  78.7869306  60.5482688  38.3446227
  79.0928182  59.6880052  38.0572142  79.5121910  61.1400308  38.1445221
  65.0793662  70.9513375  36.7327825  64.8818062  70.3582735  36.0078892
  64.5240326  70.6465585  37.4503764  73.0590385  70.8436481  38.8522418
  73.1138995  69.8910318  38.7764895  72.2481587  70.9995920  39.3363717
  74.2081579  74.7716604  30.0900702  73.7701009  74.0552463  29.6306339
  74.9492020  74.9992719  29.5285793  70.9982745  69.4613541  36.6112797
  70.1850611  69.7607712  37.0177989  71.4941739  69.0669230  37.3287279
  73.1491323  79.4571298  38.5447062  73.1067502  79.6832144  37.6155594
  74.0654022  79.2234673  38.6932863  76.5956957  69.9255365  45.4427691
  76.9506345  70.1526839  46.3022157  77.2429088  70.2573742  44.8204946
  82.3254694  73.0473801  36.1477020  82.1872593  73.2375397  35.2198209
  81.9690913  73.8093184  36.6045071  70.4896820  67.0331897  42.2274032
  71.1296199  66.8920656  41.5296995  69.6574351  66.7466410  41.8512634
  82.3524074  75.1150328  41.1588292  82.7860580  75.0225617  42.0071346
  83.0655654  75.0907829  40.5208308  71.2657124  76.3334327  38.3409025
  72.0597722  75.8384647  38.1391600  70.5548816  75.8052190  37.9776730
  76.0851968  78.7152422  42.6921392  76.1388991  79.2843359  43.4599108
  75.2166750  78.8854308  42.3275429  67.5739887  70.4777409  34.4168777
  66.6437476  70.4161864  34.6338739  67.6697359  69.9553361  33.6205419
  67.4925436  67.0032222  37.0047019  67.7532254  67.9177555  36.8956179
  68.3142609  66.5356664  37.1543632  68.9650362  68.4169979  44.1745843
  69.6373415  68.2087341  43.5258492  68.1380148  68.2192065  43.7351076
  83.2139623  75.1574029  43.6921177  83.4075513  76.0619840  43.9380452
  83.1140241  74.6981448  44.5259762  74.8675934  65.0431920  46.1911504
  74.2203849  65.7421869  46.0975981  75.6376949  65.4768064  46.5587753
  78.2754732  75.3080772  49.2662058  78.1240238  75.0791323  48.3492141
  78.2659411  76.2651373  49.2793403  75.0440068  72.8812685  44.2508324
  75.9732128  73.0323844  44.0777291  74.6231098  72.9696705  43.3956971
  73.8428400  76.9063349  42.0206862  73.7039486  76.5382133  42.8932800
  73.0542996  77.4210988  41.8490819  74.4376552  82.0072445  33.3632398
  74.6128308  81.5360489  34.1778021  73.7509340  82.6338212  33.5913659
  75.3933615  76.2844952  39.4095699  75.0583448  76.2445722  40.3053349
  74.8937561  75.6189668  38.9366110  69.3677859  71.6912582  44.9348281
  69.2297657  70.9592820  45.5359820  70.2782783  71.6021482  44.6532468
  78.3292807  73.6300986  29.6832759  77.7121977  72.9047814  29.5865812
  77.8609295  74.3910346  29.3399833  71.9960160  71.4032541  44.4231960
  72.7059778  70.7625733  44.3818579  71.9529468  71.6545436  45.3458141
  79.9846938  78.3399894  47.3438539  79.9259485  77.6559114  46.6769123
  80.3866457  79.0818884  46.8919165  70.7089094  68.3897759  46.2427600
  70.1726451  67.9388497  46.8949196  70.1205802  68.5243668  45.4998064
  69.0037637  85.1561808  40.1372258  69.2434235  85.7880332  40.8151277
  68.1606834  84.8049848  40.4237618  70.1191353  67.8486410  28.8054063
  69.2420819  67.7275211  28.4416310  70.5949106  67.0572489  28.5532952
  79.9864346  76.3039478  45.5752519  79.0991124  75.9665400  45.6978918
  80.5562897  75.5722509  45.8121285  61.6393493  72.6363570  38.8995571
  62.3264533  72.3225300  38.3116586  61.4841621  73.5404935  38.6262822
  66.4428215  67.5253767  43.3280594  66.3586404  66.9179436  42.5931004
  65.6210921  68.0162785  43.3290091  73.3055279  80.2012701  36.0516584
  72.5222801  80.7434381  36.1454808  74.0048024  80.7186680  36.4510825
  76.6151929  66.0107330  38.6950789  77.1120628  65.2577292  38.3751860
  75.8438910  66.0471647  38.1293999  84.4681686  71.7147696  40.3369081
  84.4571562  72.5972411  39.9663014  83.5999066  71.3619246  40.1423618
  77.6981710  74.7679017  36.2689213  76.7637988  74.8880480  36.0993917
  77.8758378  73.8651484  36.0049223  73.1986898  68.1524713  38.4222474
  72.8284685  67.5995753  39.1103379  73.6945990  67.5482847  37.8697474
  81.0854261  70.6096337  36.8039247  81.5514713  71.4424328  36.7299549
  81.5361761  70.1441318  37.5084505  79.1530492  76.9540158  33.8025399
  79.4290336  76.8396752  34.7119273  78.2834991  76.5557643  33.7637572
  79.0570924  62.9776924  40.8430148  78.1434003  63.2081150  41.0112355
  79.4864025  63.0615368  41.6944181  78.8277382  71.1666816  43.3430042
  78.1748832  71.4142723  42.6882495  79.2057762  70.3530954  43.0092519
  75.7884556  81.2026509  37.4458212  75.9706951  80.3848165  37.9085965
  76.6117542  81.4194201  37.0083102  76.1226721  80.1294694  34.7073261
  76.6514488  79.6187148  34.0943423  76.3854941  79.8137224  35.5718794
  74.8764955  71.9086627  49.8296079  74.2005592  71.8080756  50.4998454
  75.6992589  71.7525840  50.2932076  66.6243814  78.1458563  42.4508595
  67.2097251  77.4002251  42.5836499  66.4268653  78.4562520  43.3345258
  69.4782469  81.1809811  37.4671037  68.8092845  81.6655938  36.9835077
  69.3395339  81.4279031  38.3814415  61.2161469  70.7164163  41.1713038
  61.2545568  70.1827754  41.9650156  60.7101762  70.1899369  40.5524015
  68.5952231  65.5628704  44.6675580  68.6593558  66.4243535  44.2552978
  68.5319351  64.9502706  43.9347938  68.0704504  67.6351836  48.3148614
  68.6976543  67.2528914  48.9286139  67.2132423  67.4166038  48.6804307
  78.4698612  78.0414812  49.9202350  79.0138516  78.6544770  49.4257304
  77.8885457  78.5994390  50.4369363  64.8470047  69.4428266  34.2466969
  65.1423488  68.5338944  34.1934023  63.9458082  69.4216005  33.9247971
  76.7556125  81.1635530  41.0517377  76.6307265  80.3625269  40.5428323
  77.4135216  81.6581723  40.5631347  68.3764294  67.5184262  40.2294518
  67.6550879  68.1320230  40.0901991  69.1657549  68.0542027  40.1511164
  78.8191034  78.9644550  42.6796928  77.8721369  78.8449901  42.6075254
  79.1673807  78.0767048  42.7623189  71.1790607  64.8538689  46.5035169
  71.7025009  65.1000985  47.2661479  70.9602940  65.6858723  46.0838307
  66.5757888  67.1242363  34.3706294  66.2470594  66.2439742  34.1881400
  66.9297259  67.0690032  35.2582683  75.8237467  78.7597266  38.8801280
  75.6762429  77.8313973  39.0608850  76.6490960  78.7817357  38.3958355
  69.6899711  67.4115333  34.7381772  70.0295784  67.9401254  34.0160380
  70.1371832  67.7495739  35.5140338  79.4271589  79.5825825  39.9666153
  80.3518136  79.3768686  39.8290604  79.2586892  79.3342226  40.8755494
  72.3843152  65.7952384  44.1884840  72.0439972  64.9960197  44.5905520
  71.6782158  66.0954095  43.6161673  73.0359624  62.8801696  42.6412163
  73.8585693  62.4062174  42.5191053  73.2797687  63.6592180  43.1410849
  71.6767858  65.9089955  32.9375065  72.3976221  66.2871207  32.4338782
  71.0533163  66.6278831  33.0410043  75.8198981  66.6135104  33.8733397
  76.0362596  67.4959741  33.5722225  75.3393048  66.2221317  33.1439039
  70.5598203  69.5720817  40.4504142  70.4142783  69.8861120  41.3428423
  70.0823406  70.1905717  39.8975040  72.4194586  66.5623365  40.4985031
  72.4056154  65.6664458  40.1617329  73.1367014  66.5694028  41.1323317
  74.2720716  66.9960705  42.5438159  74.0138494  67.9177776  42.5422489
  73.7405757  66.5991139  43.2338623  79.2166905  80.1011492  35.3228244
  79.3903783  79.5357915  34.5702096  79.7095796  80.9012387  35.1407734
  65.0343865  72.1126161  43.3891803  64.4897333  72.8885969  43.5212077
  65.9123215  72.4596966  43.2310924  71.8231481  65.4437745  35.7672601
  71.9447393  64.5154391  35.9663489  71.5333524  65.4576431  34.8550917
  74.6922672  63.1292655  38.9039321  74.7144369  63.1931989  37.9491301
  75.1090731  62.2897164  39.0979827  85.0706296  72.8647915  36.9418544
  85.5137442  72.1155240  36.5437667  84.1932806  72.8558051  36.5592276
  80.2042078  79.4178256  32.4225142  80.8992982  80.0384949  32.6412457
  80.5465228  78.5673608  32.6977520  65.8209887  71.2396057  46.2821960
  65.0791623  71.3878693  46.8686590  65.5002631  71.5004323  45.4188709
  82.1033501  76.8677962  33.9512473  82.6284825  77.2065235  33.2261793
  82.0155853  75.9324977  33.7675608  73.7874161  82.9349945  38.3107726
  73.3479152  82.4426324  39.0040583  74.5382278  82.3922913  38.0699801
  66.2666500  79.1261486  38.3132354  67.0924520  78.8265258  37.9330998
  65.9160552  78.3569109  38.7622143  71.2348034  78.4787954  40.3830028
  70.6128043  77.8158659  40.0832256  71.9052900  78.5049086  39.7003676
  64.4675105  77.0447813  39.2721288  63.6307014  76.6169987  39.0905289
  64.4398751  77.2380256  40.2092079  71.3072561  66.9569742  49.9762534
  71.3560716  67.8331865  49.5940303  71.8495075  66.4147135  49.4034177
  81.7927407  77.5010866  49.2563671  81.0022950  77.4835004  48.7168170
  81.5560761  78.0399159  50.0112708  81.9125282  74.3503332  46.5696399
  81.9623287  74.1853339  47.5111922  81.8039205  73.4830591  46.1794280
  70.7961540  77.0291878  33.8588488  70.9449661  77.7127342  33.2055161
  71.6027984  77.0096968  34.3737944  79.2029044  70.3334260  47.8855706
  80.1038907  70.1940725  47.5939704  79.2777019  70.4988715  48.8253884
  73.5371849  67.7101115  46.7308893  72.6675159  68.0034681  46.4591481
  73.7731330  68.2941560  47.4516156  83.4143479  76.7700274  46.8138421
  83.1228287  77.1330254  47.6501882  82.8015610  76.0567282  46.6351753
  84.6139161  74.3353153  39.3340991  85.4486052  74.7742957  39.4978552
  84.7498290  73.8591807  38.5149237  81.6630667  71.8932888  45.2818479
  82.1384788  72.0860534  44.4737330  80.7396232  71.9492074  45.0361863
  68.5514173  73.0557055  34.8649557  68.3060215  72.1519385  35.0629767
  68.7210088  73.0574206  33.9229035  76.2410883  63.9280732  44.2474313
  76.7592827  64.6641759  43.9220801  75.8866016  64.2344725  45.0821072
  67.8209821  68.7885413  32.3635719  67.1279066  68.8629768  31.7075755
  67.5761573  68.0245757  32.8857236  76.4923477  60.3481014  39.7675210
  76.7725231  59.6804203  40.3935636  77.2774084  60.5410110  39.2549873
  74.2956946  79.5240008  31.3300236  73.7230913  80.1430195  30.8770708
  74.8689740  80.0739370  31.8640158  80.3632336  68.7698648  43.5146785
  81.3149759  68.8696746  43.5359009  80.1935786  67.9776917  44.0244869
  78.3846715  65.8554231  43.7006186  77.7896647  66.1359244  43.0052674
  78.0996412  66.3448132  44.4722927  77.5154206  79.8077158  32.4608818
  78.4484879  79.7422720  32.6641694  77.4277419  80.6433425  32.0023351
  80.1442222  79.1243029  29.4212766  80.0655854  78.7902892  30.3148524
  80.9651889  79.6164797  29.4204238  82.8420414  71.9904768  42.6289084
  82.8096734  71.0520769  42.8148768  83.4521037  72.0688805  41.8954909
  74.6803744  70.8600821  28.6716288  75.6262849  70.7307029  28.7404706
  74.3017989  70.1215483  29.1485716  82.9914902  68.7815811  42.6747367
  82.4753951  67.9974268  42.4877296  83.8754851  68.4534528  42.8393887
  80.6525629  62.5256827  38.6343180  80.4550450  62.2171915  39.5186512
  81.2625335  63.2518466  38.7641110  88.6596963  73.0520775  41.7695121
  89.3900352  72.7906063  42.3302824  88.0503909  72.3149497  41.8097189
  86.7412261  71.1928637  42.3669572  86.0145424  71.0584602  41.7586064
  86.3259547  71.5005466  43.1726290  74.5642437  74.9118567  50.1316945
  75.4845446  75.0897166  50.3256992  74.5292020  73.9674612  49.9796645
  72.8646662  68.7850797  28.6071174  71.9578117  68.4883910  28.6833887
  73.1422643  68.4880615  27.7405460  63.7824602  70.1057161  39.0570220
  63.4627386  69.2522469  38.7644594  63.2358030  70.3205739  39.8128187
  67.5604510  72.8219602  42.7739726  67.7790519  73.7536710  42.7927760
  67.9730283  72.4627576  43.5594530  74.4808727  63.3287687  34.7615415
  73.6709456  62.9834772  35.1370661  75.1693144  63.0195231  35.3503026
  76.4099276  62.4065734  36.3839711  76.9630314  62.8261187  37.0429735
  76.6469362  61.4801482  36.4262667  72.4332375  68.3952807  52.1642475
  72.3329102  69.3447164  52.0954566  72.2153917  68.0671046  51.2918545
  71.6345446  65.6437733  28.7483153  72.4964610  65.9692631  29.0078970
  71.8195790  64.8569228  28.2356219  63.6512862  73.7260072  41.0263342
  62.9576333  73.3114025  40.5133296  64.3985853  73.7680609  40.4296760
  79.7878083  64.5166259  35.8918376  79.2076752  65.1751063  35.5096428
  79.5214015  63.6943604  35.4805793  78.2381649  63.9171317  38.0939696
  78.7381427  64.0287851  37.2854015  78.8817257  63.6132370  38.7340505
  72.2963645  71.8249946  50.9807537  71.8130727  72.6250306  51.1871426
  72.3824584  71.8357891  50.0274981  65.5649605  73.6578326  38.9029356
  65.5420293  73.7566013  37.9511240  65.8750241  74.5043477  39.2246523
  68.2236982  75.7154481  43.0175971  69.1780236  75.6838423  42.9505902
  68.0249506  75.2545105  43.8326197  68.8136365  74.2855597  45.5846768
  69.6329254  74.7799676  45.6081606  69.0873172  73.3687565  45.5564336
  78.5702961  66.6766349  34.9474724  77.6828816  66.9616000  34.7294919
  78.9856950  66.5160113  34.1002001  81.9217497  66.7012870  38.6629063
  82.6977887  67.1909323  38.9353680  81.1965631  67.1270925  39.1200933
  84.3590055  67.4140490  39.7203004  84.9534546  67.1736226  39.0096312
  84.4316639  66.6947620  40.3476540  66.5787211  81.2574101  40.0346169
  66.4441679  80.4974501  39.4684167  66.1619273  81.9815000  39.5674958
  77.7146174  76.4411024  29.0422744  78.4182024  76.6461027  29.6580400
  76.9908823  77.0087786  29.3071828  78.5443984  72.1920885  35.1625014
  78.4879186  72.6489437  34.3232647  79.0972327  71.4311570  34.9847857
  82.3548790  67.9810617  35.9875134  82.0985725  67.5807253  36.8183341
  81.7301658  68.6954411  35.8625273  86.6661128  70.7206690  38.4946425
  86.1060686  70.7899880  39.2677987  86.0604632  70.5447675  37.7745921
  69.7356337  82.1543418  40.2464611  69.6188721  83.0988850  40.1443302
  68.9148783  81.8516979  40.6350411  79.6232872  76.8793553  31.0921204
  80.4578476  76.4474752  30.9098679  79.4617215  76.7075567  32.0198099
  79.2778764  73.3825667  32.4577543  79.2227568  73.2169938  31.5165987
  78.6524819  74.0901699  32.6139733  64.0671279  68.6193731  46.2838966
  64.7130142  68.1092685  46.7726191  63.8588430  69.3562413  46.8582391
  72.5874889  62.8833776  32.0362862  72.5753559  63.8275615  32.1931133
  73.4798311  62.7003921  31.7422323  72.5164453  81.5602666  40.1230618
  71.5660084  81.5604528  40.0094991  72.8196939  80.8135401  39.6066653
  76.4027009  59.4776552  36.2908799  75.6359405  58.9235039  36.4365481
  76.8137714  59.5498421  37.1522950  68.4068770  65.7661348  50.3813980
  69.2700231  65.4098153  50.5917304  67.8334180  65.4275243  51.0689384
  88.2517147  87.3963204  41.1876381  88.8895557  87.2769952  40.4839721
  88.1337990  88.3444048  41.2464333  85.0606853  87.3490632  41.1237905
  84.7225365  87.2331697  40.2358440  85.9296621  86.9481798  41.1038912
  80.9193669  89.2026109  37.1134796  80.3558534  89.1116046  36.3451084
  80.8046064  88.3826013  37.5937289  78.4658101  90.6977300  39.9519017
  79.2579393  90.3568125  39.5365316  78.7054751  90.8072276  40.8721170
  86.4993227  92.8697077  32.4249261  85.8481207  93.4551157  32.0383275
  87.2937590  93.4003271  32.4844299  80.4248855  89.9586214  32.8236396
  81.1979731  89.4115201  32.6849271  80.7774253  90.8230463  33.0350857
  82.7615132  86.1178880  30.4554846  83.0140653  85.5960401  29.6938309
  81.8239691  85.9545025  30.5581529  87.8058415  85.1214658  38.2629589
  88.5921504  84.7034081  37.9120006  88.0697120  86.0260750  38.4311237
  87.9768493  90.5587509  32.9618246  87.3414326  90.6322135  33.6739150
  87.6465899  91.1481107  32.2837325  93.2066842  85.0589891  39.1662567
  93.9392014  84.4889108  39.4000397  92.4506198  84.6711492  39.6069073
  82.4811421  88.0206986  32.6579221  82.3647679  87.3451889  33.3260305
  82.5913681  87.5339360  31.8411374  84.8242962  87.4817133  36.3625910
  84.4601169  86.9547754  37.0738831  85.6810078  87.0915602  36.1892395
  90.7292263  78.7711466  43.6257176  90.3975587  79.6406876  43.4018391
  90.1337876  78.4547750  44.3051206  84.4648449  82.5107033  31.3587258
  84.6322851  83.3787269  31.7257729  84.2745618  82.6734314  30.4348548
  80.6736264  87.4237808  39.0589793  79.7486760  87.2914022  39.2667485
  80.9220677  88.2032028  39.5559736  90.6220926  83.4906552  40.7050526
  89.7137803  83.4221960  40.4109287  90.5708522  83.9678497  41.5332351
  84.4437670  84.9664690  32.3433925  84.3237295  85.4121741  33.1819405
  83.7490258  85.3150008  31.7847463  82.2044562  97.7368332  35.9924056
  82.1268592  98.6876157  36.0712537  81.6006206  97.3914204  36.6498983
  92.4882572  81.6922990  42.4828400  91.8456953  81.9855523  41.8368194
  91.9837501  81.5775910  43.2881597  90.1422736  85.4386163  33.1714259
  91.0540592  85.6713550  32.9961957  89.6332383  86.0223207  32.6089338
  88.4263504  89.8610791  46.8075552  88.8346860  89.4193202  46.0630184
  87.7040765  89.2863419  47.0609745  84.7794574  84.7983398  44.1809109
  85.6255769  85.2222811  44.3243758  84.7193211  84.1417022  44.8747672
  88.7492318  90.4211982  40.5627841  88.1201181  90.5857696  39.8603908
  88.3617980  90.8353591  41.3338805  92.6281550  91.3566420  37.9172204
  91.9432588  91.7365321  37.3669238  92.7125400  91.9661746  38.6504152
  87.9294019  82.4587766  45.8390282  87.6854951  83.2129827  45.3024558
  88.2053950  82.8373114  46.6737529  89.8832482  89.0026379  44.5167548
  90.0949377  89.6458138  43.8401929  89.8362230  88.1688695  44.0489478
  87.4858711  81.6144199  41.4204120  86.6243190  81.9125453  41.7120858
  87.5121145  81.8314598  40.4885153  84.3020280  90.1586390  37.8277926
  84.7658626  90.4374093  37.0382548  84.0377078  89.2569834  37.6451016
  83.2389166  86.2809542  34.6367491  83.9413210  86.7330586  35.1041417
  82.9069795  85.6393361  35.2647384  76.9814500  84.5393095  39.9384624
  76.1913554  84.7950623  39.4624735  77.4725748  85.3541433  40.0436665
  90.9978310  91.8798334  42.6889905  91.8195754  91.4778521  42.4072587
  90.9940713  91.7766568  43.6406021  78.9329246  84.9037674  36.8968101
  78.1360409  85.0156368  37.4151597  78.7054838  85.2424326  36.0308992
  99.0884303  88.2237082  39.0374877  98.3348011  87.6544481  38.8818881
  99.2231844  88.1899747  39.9845511  84.4782931  93.0950485  34.7129596
  84.3428606  93.9402021  35.1414444  85.0192743  93.2969762  33.9495530
  77.9312328  90.6125923  35.2857521  78.4436849  91.4069173  35.4363086
  78.5835041  89.9152213  35.2191123  79.7407213  93.7291679  37.3680274
  79.9173841  94.6509644  37.1801258  80.5364047  93.4150098  37.7974654
  83.8818232  80.5899944  48.9664208  84.6227945  81.1907097  48.8868670
  84.1136154  79.8477582  48.4082250  80.8638528  95.2469853  43.3690617
  81.4145954  95.1186916  42.5967611  80.0250004  95.5464742  43.0185509
  87.8275394  76.6181047  43.2428490  87.4839664  77.5082688  43.1667600
  88.1954357  76.4282704  42.3798075  75.8961245  88.9414577  36.0617092
  76.7336467  89.3511586  35.8450799  76.0739513  88.0014019  36.0317286
  87.7925677  86.6089658  31.7500925  87.2772301  87.3794262  31.9889312
  87.5202986  85.9354794  32.3733986  85.3772788  81.4539359  36.8086163
  84.5214385  81.0646209  36.6291802  85.7899740  81.5331319  35.9485949
  86.9071935  78.9885702  41.2077723  86.4036730  78.9515837  40.3945528
  87.2002542  79.8978445  41.2674379  83.1514821  79.0724432  40.2143905
  84.0167818  78.8767240  39.8549794  83.2192330  78.8434783  41.1413261
  92.7659951  89.3622012  33.6854098  91.9889394  89.0233172  33.2409260
  93.4451432  89.3674636  33.0109063  87.5811980  84.4816750  33.5760706
  87.2762116  84.7962899  34.4270849  88.5342422  84.5598170  33.6188039
  86.0258412  90.6406973  35.2253660  85.4979774  89.9059733  34.9126897
  85.5245915  91.4181650  34.9793628  91.0051258  88.8355994  40.3420706
  90.3474933  89.5255255  40.4300835  91.8091657  89.2252426  40.6854692
  80.7577140  81.3026639  37.5860271  81.3320892  81.0801821  36.8533464
  81.3448122  81.3715334  38.3388873  89.8156717  87.1900366  38.3924648
  90.3288599  87.8230358  38.8946358  90.4657941  86.5901562  38.0268008
  81.0846727  83.3331101  31.6056157  80.2484039  83.6705787  31.9265431
  80.9451497  83.1980080  30.6683294  83.0599808  78.1767888  36.3135341
  82.4064220  77.8616906  35.6891956  83.0180282  77.5543629  37.0395164
  84.1711012  88.4587183  28.2288633  83.2638074  88.2276437  28.4279782
  84.6682044  87.6624803  28.4162614  87.0779091  97.1684691  31.1485319
  86.4040790  97.4716387  31.7570277  87.4644913  97.9713771  30.7990776
  86.2937548  84.6649822  40.6382988  85.3760109  84.8864769  40.4804676
  86.7097692  84.7396132  39.7794696  87.0772596  86.0641238  35.7685669
  87.8244415  86.5762635  35.4592791  87.3464185  85.7425290  36.6290062
  85.3499246  88.5599778  32.7512623  84.4410465  88.2758811  32.8485093
  85.3794330  88.9798857  31.8915930  90.5818513  92.1706368  36.5203791
  90.1280840  91.3297278  36.5768981  89.9512480  92.8067766  36.8578571
  89.5251433  83.0998354  37.7504458  88.7874190  82.5875740  38.0814701
  89.7778206  82.6598735  36.9387735  89.0251452  94.0082865  37.4553609
  89.3174427  94.5687922  36.7365974  89.5350073  94.3011426  38.2106768
  89.6263060  75.8774606  38.3446227  89.9321937  75.0171969  38.0572142
  90.3515665  76.4692226  38.1445221  75.9187416  86.2805292  36.7327825
  75.7211816  85.6874653  36.0078892  75.3634080  85.9757503  37.4503764
  83.8984140  86.1728399  38.8522418  83.9532750  85.2202235  38.7764895
  83.0875342  86.3287838  39.3363717  85.0475334  90.1008522  30.0900702
  84.6094764  89.3844381  29.6306339  85.7885775  90.3284637  29.5285793
  81.8376500  84.7905459  36.6112797  81.0244365  85.0899629  37.0177989
  82.3335494  84.3961147  37.3287279  83.9885078  94.7863216  38.5447062
  83.9461256  95.0124062  37.6155594  84.9047777  94.5526590  38.6932863
  87.4350711  85.2547283  45.4427691  87.7900099  85.4818756  46.3022157
  88.0822843  85.5865660  44.8204946  93.1648448  88.3765719  36.1477020
  93.0266347  88.5667315  35.2198209  92.8084667  89.1385102  36.6045071
  81.3290575  82.3623814  42.2274032  81.9689954  82.2212573  41.5296995
  80.4968105  82.0758328  41.8512634  93.1917828  90.4442246  41.1588292
  93.6254335  90.3517535  42.0071346  93.9049409  90.4199747  40.5208308
  82.1050878  91.6626245  38.3409025  82.8991477  91.1676565  38.1391600
  81.3942571  91.1344108  37.9776730  78.4133642  85.8069326  34.4168777
  77.4831230  85.7453782  34.6338739  78.5091114  85.2845279  33.6205419
  78.3319191  82.3324139  37.0047019  78.5926008  83.2469472  36.8956179
  79.1536363  81.8648582  37.1543632  94.0533378  90.4865947  43.6921177
  94.2469268  91.3911757  43.9380452  93.9533996  90.0273366  44.5259762
  85.7069688  80.3723837  46.1911504  85.0597603  81.0713787  46.0975981
  86.4770704  80.8059981  46.5587753  89.1148486  90.6372689  49.2662058
  88.9633993  90.4083241  48.3492141  89.1053166  91.5943291  49.2793403
  84.6822154  92.2355267  42.0206862  84.5433240  91.8674051  42.8932800
  83.8936751  92.7502906  41.8490819  85.2770306  97.3364363  33.3632398
  85.4522062  96.8652406  34.1778021  84.5903094  97.9630129  33.5913659
  86.2327370  91.6136869  39.4095699  85.8977202  91.5737639  40.3053349
  85.7331315  90.9481585  38.9366110  89.1686561  88.9592904  29.6832759
  88.5515732  88.2339732  29.5865812  88.7003050  89.7202264  29.3399833
  79.8431392 100.4853726  40.1372258  80.0827990 101.1172250  40.8151277
  79.0000588 100.1341766  40.4237618  80.9585107  83.1778328  28.8054063
  80.0814573  83.0567129  28.4416310  81.4342860  82.3864406  28.5532952
  90.8258100  91.6331396  45.5752519  89.9384879  91.2957318  45.6978918
  91.3956651  90.9014427  45.8121285  72.4787247  87.9655488  38.8995571
  73.1658287  87.6517218  38.3116586  72.3235376  88.8696852  38.6262822
  84.1449033  95.5304618  36.0516584  83.3616555  96.0726298  36.1454808
  84.8441778  96.0478598  36.4510825  87.4545683  81.3399248  38.6950789
  87.9514383  80.5869210  38.3751860  86.6832665  81.3763564  38.1293999
  95.3075441  87.0439613  40.3369081  95.2965317  87.9264329  39.9663014
  94.4392820  86.6911164  40.1423618  88.5375464  90.0970935  36.2689213
  87.6031743  90.2172397  36.0993917  88.7152132  89.1943402  36.0049223
  84.0380652  83.4816631  38.4222474  83.6678440  82.9287671  39.1103379
  84.5339745  82.8774764  37.8697474  91.9248015  85.9388254  36.8039247
  92.3908468  86.7716246  36.7299549  92.3755516  85.4733236  37.5084505
  89.9924246  92.2832076  33.8025399  90.2684090  92.1688670  34.7119273
  89.1228745  91.8849560  33.7637572  89.8964678  78.3068841  40.8430148
  88.9827758  78.5373068  41.0112355  90.3257780  78.3907285  41.6944181
  89.6671137  86.4958733  43.3430042  89.0142587  86.7434641  42.6882495
  90.0451516  85.6822871  43.0092519  86.6278310  96.5318426  37.4458212
  86.8100705  95.7140082  37.9085965  87.4511296  96.7486119  37.0083102
  86.9620476  95.4586612  34.7073261  87.4908242  94.9479066  34.0943423
  87.2248696  95.1429142  35.5718794  77.4637569  93.4750481  42.4508595
  78.0491006  92.7294169  42.5836499  77.2662407  93.7854438  43.3345258
  80.3176224  96.5101728  37.4671037  79.6486599  96.9947856  36.9835077
  80.1789094  96.7570949  38.3814415  72.0555223  86.0456081  41.1713038
  72.0939323  85.5119672  41.9650156  71.5495516  85.5191287  40.5524015
  75.6863801  84.7720183  34.2466969  75.9817242  83.8630862  34.1934023
  74.7851837  84.7507923  33.9247971  87.5949880  96.4927447  41.0517377
  87.4701019  95.6917187  40.5428323  88.2528971  96.9873641  40.5631347
  79.2158048  82.8476180  40.2294518  78.4944634  83.4612147  40.0901991
  80.0051304  83.3833945  40.1511164  89.6584788  94.2936467  42.6796928
  88.7115124  94.1741819  42.6075254  90.0067561  93.4058965  42.7623189
  82.0184362  80.1830606  46.5035169  82.5418763  80.4292903  47.2661479
  81.7996695  81.0150641  46.0838307  77.4151643  82.4534281  34.3706294
  77.0864349  81.5731660  34.1881400  77.7691013  82.3981950  35.2582683
  86.6631221  94.0889184  38.8801280  86.5156184  93.1605891  39.0608850
  87.4884715  94.1109274  38.3958355  80.5293466  82.7407251  34.7381772
  80.8689538  83.2693172  34.0160380  80.9765586  83.0787657  35.5140338
  90.2665343  94.9117742  39.9666153  91.1911891  94.7060604  39.8290604
  90.0980647  94.6634143  40.8755494  83.2236907  81.1244301  44.1884840
  82.8833727  80.3252114  44.5905520  82.5175913  81.4246012  43.6161673
  83.8753378  78.2093614  42.6412163  84.6979448  77.7354092  42.5191053
  84.1191442  78.9884098  43.1410849  82.5161613  81.2381872  32.9375065
  83.2369975  81.6163125  32.4338782  81.8926917  81.9570749  33.0410043
  86.6592736  81.9427021  33.8733397  86.8756350  82.8251659  33.5722225
  86.1786803  81.5513235  33.1439039  81.3991957  84.9012734  40.4504142
  81.2536538  85.2153038  41.3428423  80.9217161  85.5197635  39.8975040
  83.2588340  81.8915282  40.4985031  83.2449909  80.9956376  40.1617329
  83.9760768  81.8985946  41.1323317  85.1114471  82.3252623  42.5438159
  84.8532249  83.2469693  42.5422489  84.5799511  81.9283057  43.2338623
  90.0560660  95.4303410  35.3228244  90.2297537  94.8649832  34.5702096
  90.5489551  96.2304305  35.1407734  82.6625236  80.7729663  35.7672601
  82.7841147  79.8446309  35.9663489  82.3727278  80.7868349  34.8550917
  85.5316426  78.4584573  38.9039321  85.5538123  78.5223906  37.9491301
  85.9484485  77.6189082  39.0979827  95.9100051  88.1939833  36.9418544
  96.3531197  87.4447158  36.5437667  95.0326561  88.1849969  36.5592276
  91.0435832  94.7470174  32.4225142  91.7386737  95.3676867  32.6412457
  91.3858982  93.8965525  32.6977520  92.9427255  92.1969880  33.9512473
  93.4678579  92.5357152  33.2261793  92.8549608  91.2616895  33.7675608
  84.6267916  98.2641863  38.3107726  84.1872906  97.7718242  39.0040583
  85.3776033  97.7214831  38.0699801  77.1060255  94.4553404  38.3132354
  77.9318275  94.1557176  37.9330998  76.7554307  93.6861026  38.7622143
  82.0741788  93.8079872  40.3830028  81.4521797  93.1450577  40.0832256
  82.7446655  93.8341004  39.7003676  75.3068860  92.3739730  39.2721288
  74.4700768  91.9461905  39.0905289  75.2792505  92.5672174  40.2092079
  92.7519036  89.6795250  46.5696399  92.8017041  89.5145257  47.5111922
  92.6432960  88.8122509  46.1794280  81.6355295  92.3583795  33.8588488
  81.7843415  93.0419260  33.2055161  82.4421738  92.3388885  34.3737944
  90.0422799  85.6626178  47.8855706  90.9432661  85.5232643  47.5939704
  90.1170773  85.8280633  48.8253884  84.3765604  83.0393032  46.7308893
  83.5068913  83.3326599  46.4591481  84.6125084  83.6233477  47.4516156
  95.4532915  89.6645071  39.3340991  96.2879807  90.1034875  39.4978552
  95.5892044  89.1883724  38.5149237  92.5024421  87.2224806  45.2818479
  92.9778543  87.4152452  44.4737330  91.5789987  87.2783992  45.0361863
  79.3907928  88.3848973  34.8649557  79.1453970  87.4811303  35.0629767
  79.5603842  88.3866123  33.9229035  87.0804638  79.2572649  44.2474313
  87.5986582  79.9933676  43.9220801  86.7259771  79.5636643  45.0821072
  78.6603575  84.1177331  32.3635719  77.9672820  84.1921686  31.7075755
  78.4155327  83.3537674  32.8857236  87.3317232  75.6772932  39.7675210
  87.6118986  75.0096121  40.3935636  88.1167839  75.8702028  39.2549873
  85.1350700  94.8531926  31.3300236  84.5624668  95.4722113  30.8770708
  85.7083494  95.4031288  31.8640158  91.2026090  84.0990566  43.5146785
  92.1543513  84.1988664  43.5359009  91.0329541  83.3068834  44.0244869
  89.2240470  81.1846149  43.7006186  88.6290402  81.4651162  43.0052674
  88.9390166  81.6740050  44.4722927  88.3547960  95.1369076  32.4608818
  89.2878633  95.0714638  32.6641694  88.2671173  95.9725343  32.0023351
  90.9835977  94.4534946  29.4212766  90.9049608  94.1194810  30.3148524
  91.8045644  94.9456714  29.4204238  93.6814168  87.3196686  42.6289084
  93.6490488  86.3812686  42.8148768  94.2914792  87.3980722  41.8954909
  85.5197499  86.1892739  28.6716288  86.4656604  86.0598947  28.7404706
  85.1411744  85.4507400  29.1485716  93.8308657  84.1107729  42.6747367
  93.3147705  83.3266186  42.4877296  94.7148605  83.7826446  42.8393887
  91.4919383  77.8548745  38.6343180  91.2944205  77.5463833  39.5186512
  92.1019089  78.5810384  38.7641110  99.4990718  88.3812692  41.7695121
 100.2294106  88.1197981  42.3302824  98.8897663  87.6441414  41.8097189
  97.5806015  86.5220555  42.3669572  96.8539179  86.3876520  41.7586064
  97.1653302  86.8297384  43.1726290  83.7040416  84.1142715  28.6071174
  82.7971871  83.8175828  28.6833887  83.9816397  83.8172533  27.7405460
  74.6218356  85.4349078  39.0570220  74.3021141  84.5814387  38.7644594
  74.0751785  85.6497657  39.8128187  85.3202482  78.6579605  34.7615415
  84.5103210  78.3126690  35.1370661  86.0086899  78.3487148  35.3503026
  87.2493030  77.7357652  36.3839711  87.8024069  78.1553105  37.0429735
  87.4863116  76.8093400  36.4262667  82.4739201  80.9729650  28.7483153
  83.3358365  81.2984549  29.0078970  82.6589545  80.1861146  28.2356219
  74.4906616  89.0551990  41.0263342  73.7970088  88.6405943  40.5133296
  75.2379607  89.0972526  40.4296760  90.6271837  79.8458177  35.8918376
  90.0470506  80.5042981  35.5096428  90.3607770  79.0235521  35.4805793
  89.0775404  79.2463234  38.0939696  89.5775182  79.3579769  37.2854015
  89.7211011  78.9424287  38.7340505  76.4043359  88.9870244  38.9029356
  76.3814047  89.0857931  37.9511240  76.7143996  89.8335394  39.2246523
  89.4096715  82.0058267  34.9474724  88.5222570  82.2907918  34.7294919
  89.8250704  81.8452030  34.1002001  92.7611251  82.0304788  38.6629063
  93.5371641  82.5201240  38.9353680  92.0359386  82.4562842  39.1200933
  95.1983810  82.7432407  39.7203004  95.7928301  82.5028143  39.0096312
  95.2710394  82.0239538  40.3476540  77.4180966  96.5866018  40.0346169
  77.2835434  95.8266419  39.4684167  77.0013028  97.3106918  39.5674958
  88.5539929  91.7702942  29.0422744  89.2575779  91.9752944  29.6580400
  87.8302577  92.3379704  29.3071828  89.3837739  87.5212803  35.1625014
  89.3272940  87.9781354  34.3232647  89.9366081  86.7603488  34.9847857
  93.1942545  83.3102535  35.9875134  92.9379479  82.9099171  36.8183341
  92.5695413  84.0246329  35.8625273  97.5054883  86.0498608  38.4946425
  96.9454441  86.1191797  39.2677987  96.8998386  85.8739593  37.7745921
  80.5750092  97.4835335  40.2464611  80.4582476  98.4280768  40.1443302
  79.7542538  97.1808897  40.6350411  90.4626626  92.2085471  31.0921204
  91.2972230  91.7766669  30.9098679  90.3010969  92.0367485  32.0198099
  90.1172518  88.7117584  32.4577543  90.0621322  88.5461856  31.5165987
  89.4918574  89.4193617  32.6139733  83.4268644  78.2125693  32.0362862
  83.4147314  79.1567533  32.1931133  84.3192066  78.0295839  31.7422323
  81.6004606  98.1363597  43.4620540  82.5031852  98.1687207  43.7787035
  81.3741976  97.2064048  43.4766876  83.3558208  96.8894584  40.1230618
  82.4053839  96.8896445  40.0094991  83.6590694  96.1427318  39.6066653
  87.2420763  74.8068470  36.2908799  86.4753159  74.2526957  36.4365481
  87.6531468  74.8790339  37.1522950  99.0910901 102.7255122  41.1876381
  99.7289311 102.6061869  40.4839721  98.9731744 103.6735966  41.2464333
  95.9000607 102.6782550  41.1237905  95.5619119 102.5623615  40.2358440
  96.7690376 102.2773715  41.1038912  91.7587423 104.5318027  37.1134796
  91.1952288 104.4407963  36.3451084  91.6439818 103.7117931  37.5937289
  89.3051855 106.0269218  39.9519017  90.0973147 105.6860043  39.5365316
  89.5448505 106.1364193  40.8721170  97.3386982 108.1988994  32.4249261
  96.6874962 108.7843075  32.0383275  98.1331345 108.7295189  32.4844299
  91.2642609 105.2878131  32.8236396  92.0373485 104.7407118  32.6849271
  91.6168008 106.1522381  33.0350857  93.1027652 106.6154514  46.0303295
  92.8117518 107.5200145  45.9149961  93.7384636 106.6571041  46.7447365
  94.0283858 103.9931362  42.6204655  94.6247431 103.7687385  41.9061618
  94.0858830 103.2516108  43.2230102  93.6008887 101.4470798  30.4554846
  93.8534408 100.9252319  29.6938309  92.6633446 101.2836943  30.5581529
  98.6452170 100.4506576  38.2629589  99.4315259 100.0325999  37.9120006
  98.9090874 101.3552668  38.4311237  98.8162247 105.8879426  32.9618246
  98.1808080 105.9614053  33.6739150  98.4859653 106.4773025  32.2837325
 104.0460597 100.3881809  39.1662567 104.7785769  99.8181026  39.4000397
 103.2899953 100.0003410  39.6069073  93.3205176 103.3498903  32.6579221
  93.2041434 102.6743807  33.3260305  93.4307435 102.8631277  31.8411374
  95.6636717 102.8109051  36.3625910  95.2994924 102.2839672  37.0738831
  96.5203832 102.4207520  36.1892395 101.5686017  94.1003383  43.6257176
 101.2369342  94.9698794  43.4018391 100.9731631  93.7839667  44.3051206
  95.3042204  97.8398950  31.3587258  95.4716606  98.7079187  31.7257729
  95.1139373  98.0026232  30.4348548  91.5130018 102.7529726  39.0589793
  90.5880515 102.6205940  39.2667485  91.7614431 103.5323945  39.5559736
 101.4614680  98.8198469  40.7050526 100.5531558  98.7513878  40.4109287
 101.4102276  99.2970414  41.5332351  95.2831424 100.2956608  32.3433925
  95.1631050 100.7413659  33.1819405  94.5884013 100.6441925  31.7847463
  88.8738829 102.3963000  39.8933582  89.0031210 102.6497478  40.8072994
  88.1936281 102.9890708  39.5738237  93.0438316 113.0660250  35.9924056
  92.9662346 114.0168075  36.0712537  92.4399960 112.7206122  36.6498983
 103.3276327  97.0214908  42.4828400 102.6850707  97.3147441  41.8368194
 102.8231255  96.9067828  43.2881597 100.9816491 100.7678081  33.1714259
 101.8934347 101.0005468  32.9961957 100.4726138 101.3515125  32.6089338
 103.4675305 106.6858337  37.9172204 102.7826343 107.0657239  37.3669238
 103.5519154 107.2953664  38.6504152  98.3252465  96.9436117  41.4204120
  97.4636944  97.2417370  41.7120858  98.3514900  97.1606516  40.4885153
  95.1414035 105.4878307  37.8277926  95.6052380 105.7666010  37.0382548
  94.8770833 104.5861752  37.6451016  92.0338116 105.0349789  40.7657689
  92.6039473 105.4637057  40.1275173  92.6246228 104.7532374  41.4641875
  94.0782921 101.6101460  34.6367491  94.7806964 102.0622504  35.1041417
  93.7463549 100.9685279  35.2647384  87.8208255  99.8685013  39.9384624
  87.0307309 100.1242541  39.4624735  88.3119502 100.6833350  40.0436665
 101.8372064 107.2090252  42.6889905 102.6589508 106.8070439  42.4072587
 101.8334467 107.1058486  43.6406021  89.7723000 100.2329592  36.8968101
  88.9754163 100.3448286  37.4151597  89.5448592 100.5716244  36.0308992
  86.1045958 100.1215503  42.3699615  86.3553996 101.0062513  42.6357191
  86.6405506  99.9420104  41.5974707 109.9278057 103.5529000  39.0374877
 109.1741766 102.9836398  38.8818881 110.0625599 103.5191665  39.9845511
  95.3176685 108.4242402  34.7129596  95.1822360 109.2693938  35.1414444
  95.8586498 108.6261680  33.9495530  88.7706083 105.9417841  35.2857521
  89.2830603 106.7361091  35.4363086  89.4228796 105.2444131  35.2191123
  90.5800967 109.0583597  37.3680274  90.7567596 109.9801561  37.1801258
  91.3757801 108.7442016  37.7974654  96.9445162 109.0465969  48.8429938
  96.5009016 108.2602348  48.5250843  97.6062375 109.2345119  48.1773829
  91.7032283 110.5761771  43.3690617  92.2539708 110.4478834  42.5967611
  90.8643759 110.8756660  43.0185509  98.6669149  91.9472964  43.2428490
  98.3233418  92.8374606  43.1667600  99.0348112  91.7574622  42.3798075
  86.7355000 104.2706495  36.0617092  87.5730222 104.6803503  35.8450799
  86.9133267 103.3305937  36.0317286  98.6319432 101.9381575  31.7500925
  98.1166055 102.7086180  31.9889312  98.3596740 101.2646712  32.3733986
  96.2166543  96.7831276  36.8086163  95.3608139  96.3938127  36.6291802
  96.6293494  96.8623237  35.9485949  97.7465689  94.3177620  41.2077723
  97.2430485  94.2807755  40.3945528  98.0396296  95.2270362  41.2674379
  93.9908575  94.4016349  40.2143905  94.8561572  94.2059158  39.8549794
  94.0586084  94.1726701  41.1413261 103.6053706 104.6913930  33.6854098
 102.8283149 104.3525090  33.2409260 104.2845187 104.6966553  33.0109063
  98.4205735  99.8108668  33.5760706  98.1155870 100.1254817  34.4270849
  99.3736177  99.8890087  33.6188039  96.8652167 105.9698891  35.2253660
  96.3373528 105.2351650  34.9126897  96.3639669 106.7473567  34.9793628
 101.8445013 104.1647911  40.3420706 101.1868687 104.8547173  40.4300835
 102.6485412 104.5544343  40.6854692  91.5970894  96.6318557  37.5860271
  92.1714646  96.4093739  36.8533464  92.1841877  96.7007252  38.3388873
 100.6550472 102.5192284  38.3924648 101.1682353 103.1522276  38.8946358
 101.3051695 101.9193480  38.0268008  91.9240481  98.6623018  31.6056157
  91.0877794  98.9997705  31.9265431  91.7845251  98.5271998  30.6683294
  93.8993562  93.5059806  36.3135341  93.2457974  93.1908823  35.6891956
  93.8574036  92.8835547  37.0395164  95.0104767 103.7879101  28.2288633
  94.1031829 103.5568355  28.4279782  95.5075799 102.9916720  28.4162614
  97.9172846 112.4976608  31.1485319  97.2434545 112.8008305  31.7570277
  98.3038668 113.3005689  30.7990776  97.1331302  99.9941740  40.6382988
  96.2153864 100.2156687  40.4804676  97.5491446 100.0688050  39.7794696
  97.9166350 101.3933155  35.7685669  98.6638169 101.9054552  35.4592791
  98.1857940 101.0717208  36.6290062  96.1893000 103.8891696  32.7512623
  95.2804220 103.6050729  32.8485093  96.2188084 104.3090775  31.8915930
 101.4212268 107.4998286  36.5203791 100.9674595 106.6589195  36.5768981
 100.7906234 108.1359684  36.8578571 100.3645187  98.4290272  37.7504458
  99.6267944  97.9167658  38.0814701 100.6171961  97.9890653  36.9387735
  99.8645207 109.3374782  37.4553609 100.1568181 109.8979839  36.7365974
 100.3743828 109.6303343  38.2106768 100.4656815  91.2066524  38.3446227
 100.7715691  90.3463887  38.0572142 101.1909419  91.7984144  38.1445221
  86.7581171 101.6097210  36.7327825  86.5605571 101.0166571  36.0078892
  86.2027835 101.3049420  37.4503764  94.7377894 101.5020317  38.8522418
  94.7926504 100.5494153  38.7764895  93.9269096 101.6579756  39.3363717
  95.8869088 105.4300440  30.0900702  95.4488518 104.7136299  29.6306339
  96.6279529 105.6576554  29.5285793  92.6770254 100.1197376  36.6112797
  91.8638120 100.4191547  37.0177989  93.1729248  99.7253065  37.3287279
  94.8278832 110.1155133  38.5447062  94.7855011 110.3415980  37.6155594
  95.7441531 109.8818508  38.6932863 104.0042203 103.7057637  36.1477020
 103.8660102 103.8959233  35.2198209 103.6478422 104.4677020  36.6045071
 104.0311583 105.7734164  41.1588292 104.4648089 105.6809453  42.0071346
 104.7443163 105.7491664  40.5208308  92.9444633 106.9918162  38.3409025
  93.7385231 106.4968482  38.1391600  92.2336325 106.4636025  37.9776730
  89.2527396 101.1361244  34.4168777  88.3224985 101.0745700  34.6338739
  89.3484868 100.6137197  33.6205419  89.1712945  97.6616057  37.0047019
  89.4319763  98.5761390  36.8956179  89.9930118  97.1940499  37.1543632
  95.5215909 107.5647184  42.0206862  95.3826995 107.1965969  42.8932800
  94.7330505 108.0794824  41.8490819  96.1164061 112.6656281  33.3632398
  96.2915817 112.1944324  34.1778021  95.4296849 113.2922047  33.5913659
  97.0721124 106.9428787  39.4095699  96.7370957 106.9029557  40.3053349
  96.5725070 106.2773503  38.9366110 100.0080316 104.2884821  29.6832759
  99.3909486 103.5631649  29.5865812  99.5396804 105.0494182  29.3399833
  90.6825146 115.8145644  40.1372258  90.9221744 116.4464168  40.8151277
  89.8394343 115.4633684  40.4237618  91.7978862  98.5070246  28.8054063
  90.9208328  98.3859046  28.4416310  92.2736615  97.7156324  28.5532952
  83.3181002 103.2947405  38.8995571  84.0052042 102.9809135  38.3116586
  83.1629130 104.1988770  38.6262822  95.1953008 111.6224766  42.5413762
  95.1223180 112.4279737  43.0533067  94.7530401 111.8216732  41.7161784
  94.9842788 110.8596536  36.0516584  94.2010310 111.4018216  36.1454808
  95.6835533 111.3770516  36.4510825  98.2939438  96.6691165  38.6950789
  98.7908137  95.9161128  38.3751860  97.5226419  96.7055482  38.1293999
 106.1469195 102.3731531  40.3369081 106.1359071 103.2556246  39.9663014
 105.2786575 102.0203082  40.1423618  97.6551692 111.5211600  44.6971921
  98.3679664 112.1559065  44.6247822  97.1641720 111.6175466  43.8811923
  99.3769218 105.4262853  36.2689213  98.4425497 105.5464315  36.0993917
  99.5545887 104.5235319  36.0049223  94.8774407  98.8108548  38.4222474
  94.5072194  98.2579589  39.1103379  95.3733499  98.2066682  37.8697474
 102.7641770 101.2680172  36.8039247 103.2302222 102.1008164  36.7299549
 103.2149270 100.8025154  37.5084505 100.8318001 107.6123993  33.8025399
 101.1077845 107.4980588  34.7119273  99.9622500 107.2141478  33.7637572
 100.7358433  93.6360759  40.8430148  99.8221512  93.8664986  41.0112355
 101.1651534  93.7199203  41.6944181  97.4672065 111.8610344  37.4458212
  97.6494459 111.0432000  37.9085965  98.2905051 112.0778036  37.0083102
  97.8014230 110.7878529  34.7073261  98.3301997 110.2770984  34.0943423
  98.0642450 110.4721059  35.5718794  88.3031323 108.8042398  42.4508595
  88.8884760 108.0586086  42.5836499  88.1056162 109.1146355  43.3345258
  91.1569978 111.8393646  37.4671037  90.4880354 112.3239774  36.9835077
  91.0182848 112.0862866  38.3814415  82.8948978 101.3747999  41.1713038
  82.9333077 100.8411589  41.9650156  82.3889271 100.8483204  40.5524015
  95.2975247 113.8737389  44.0653695  95.8493555 114.0369011  44.8302780
  95.6381440 114.4641827  43.3933720 100.1486121 108.6998647  49.9202350
 100.6926025 109.3128605  49.4257304  99.5672966 109.2578225  50.4369363
  86.5257556 100.1012101  34.2466969  86.8210997  99.1922779  34.1934023
  85.6245591 100.0799840  33.9247971  98.4343634 111.8219365  41.0517377
  98.3094774 111.0209105  40.5428323  99.0922725 112.3165558  40.5631347
  90.0551803  98.1768097  40.2294518  89.3338388  98.7904065  40.0901991
  90.8445058  98.7125862  40.1511164 100.4978543 109.6228385  42.6796928
  99.5508878 109.5033736  42.6075254 100.8461316 108.7350883  42.7623189
  88.2545397  97.7826199  34.3706294  87.9258103  96.9023577  34.1881400
  88.6084768  97.7273867  35.2582683  97.5024976 109.4181101  38.8801280
  97.3549938 108.4897809  39.0608850  98.3278469 109.4401192  38.3958355
  91.3687220  98.0699168  34.7381772  91.7083293  98.5985090  34.0160380
  91.8159341  98.4079574  35.5140338 101.1059098 110.2409660  39.9666153
 102.0305645 110.0352521  39.8290604 100.9374401 109.9926061  40.8755494
  93.3555367  96.5673790  32.9375065  94.0763730  96.9455043  32.4338782
  92.7320672  97.2862667  33.0410043  97.4986490  97.2718939  33.8733397
  97.7150105  98.1543577  33.5722225  97.0180557  96.8805152  33.1439039
  92.2385712 100.2304652  40.4504142  92.0930292 100.5444955  41.3428423
  91.7610915 100.8489552  39.8975040  94.0982095  97.2207200  40.4985031
  94.0843663  96.3248293  40.1617329  94.8154523  97.2277864  41.1323317
 100.8954414 110.7595327  35.3228244 101.0691292 110.1941750  34.5702096
 101.3883305 111.5596222  35.1407734  93.5018990  96.1021580  35.7672601
  93.6234902  95.1738227  35.9663489  93.2121033  96.1160266  34.8550917
  96.3710181  93.7876491  38.9039321  96.3931878  93.8515824  37.9491301
  96.7878240  92.9480999  39.0979827 106.7493805 103.5231750  36.9418544
 107.1924951 102.7739076  36.5437667 105.8720315 103.5141887  36.5592276
 101.8829586 110.0762092  32.4225142 102.5780491 110.6968785  32.6412457
 102.2252737 109.2257443  32.6977520 103.7821010 107.5261797  33.9512473
 104.3072334 107.8649070  33.2261793 103.6943362 106.5908813  33.7675608
  95.4661670 113.5933781  38.3107726  95.0266661 113.1010159  39.0040583
  96.2169787 113.0506748  38.0699801  87.9454009 109.7845321  38.3132354
  88.7712029 109.4849093  37.9330998  87.5948061 109.0152944  38.7622143
  92.9135543 109.1371790  40.3830028  92.2915552 108.4742495  40.0832256
  93.5840409 109.1632922  39.7003676  86.1462614 107.7031648  39.2721288
  85.3094523 107.2753822  39.0905289  86.1186260 107.8964091  40.2092079
 103.4714916 108.1594701  49.2563671 102.6810459 108.1418840  48.7168170
 103.2348270 108.6982995  50.0112708  92.4749049 107.6875713  33.8588488
  92.6237170 108.3711177  33.2055161  93.2815493 107.6680803  34.3737944
 106.2926670 104.9936989  39.3340991 107.1273561 105.4326793  39.4978552
 106.4285799 104.5175642  38.5149237  90.2301682 103.7140891  34.8649557
  89.9847724 102.8103221  35.0629767  90.3997597 103.7158041  33.9229035
  89.4997330  99.4469248  32.3635719  88.8066575  99.5213603  31.7075755
  89.2549082  98.6829592  32.8857236  98.1710986  91.0064850  39.7675210
  98.4512740  90.3388039  40.3935636  98.9561593  91.1993945  39.2549873
  95.9744455 110.1823843  31.3300236  95.4018422 110.8014031  30.8770708
  96.5477249 110.7323205  31.8640158  99.1941715 110.4660994  32.4608818
 100.1272388 110.4006555  32.6641694  99.1064928 111.3017260  32.0023351
 101.8229731 109.7826864  29.4212766 101.7443363 109.4486728  30.3148524
 102.6439398 110.2748632  29.4204238 104.5207923 102.6488603  42.6289084
 104.4884243 101.7104604  42.8148768 105.1308546 102.7272640  41.8954909
  96.3591253 101.5184656  28.6716288  97.3050358 101.3890864  28.7404706
  95.9805498 100.7799318  29.1485716 104.6702411  99.4399647  42.6747367
 104.1541460  98.6558103  42.4877296 105.5542360  99.1118363  42.8393887
 102.3313138  93.1840662  38.6343180 102.1337959  92.8755750  39.5186512
 102.9412844  93.9102301  38.7641110 110.3384472 103.7104610  41.7695121
 111.0687861 103.4489898  42.3302824 109.7291418 102.9733332  41.8097189
 108.4199770 101.8512473  42.3669572 107.6932933 101.7168438  41.7586064
 108.0047056 102.1589301  43.1726290  94.5434171  99.4434633  28.6071174
  93.6365626  99.1467745  28.6833887  94.8210152  99.1464451  27.7405460
  85.4612111 100.7640996  39.0570220  85.1414895  99.9106304  38.7644594
  84.9145539 100.9789574  39.8128187  96.1596236  93.9871522  34.7615415
  95.3496965  93.6418607  35.1370661  96.8480653  93.6779066  35.3503026
  98.0886785  93.0649569  36.3839711  98.6417823  93.4845023  37.0429735
  98.3256871  92.1385317  36.4262667  93.3132955  96.3021568  28.7483153
  94.1752119  96.6276466  29.0078970  93.4983299  95.5153064  28.2356219
  85.3300371 104.3843908  41.0263342  84.6363842 103.9697860  40.5133296
  86.0773362 104.4264444  40.4296760 101.4665592  95.1750094  35.8918376
 100.8864261  95.8334898  35.5096428 101.2001524  94.3527439  35.4805793
  99.9169158  94.5755152  38.0939696 100.4168936  94.6871687  37.2854015
 100.5604766  94.2716205  38.7340505  87.2437114 104.3162161  38.9029356
  87.2207802 104.4149849  37.9511240  87.5537750 105.1627312  39.2246523
 100.2490470  97.3350185  34.9474724  99.3616325  97.6199835  34.7294919
 100.6644459  97.1743948  34.1002001 103.6005006  97.3596706  38.6629063
 104.3765396  97.8493158  38.9353680 102.8753140  97.7854760  39.1200933
 106.0377564  98.0724325  39.7203004 106.6322055  97.8320061  39.0096312
 106.1104148  97.3531455  40.3476540  88.2574720 111.9157936  40.0346169
  88.1229188 111.1558337  39.4684167  87.8406782 112.6398836  39.5674958
  99.3933683 107.0994859  29.0422744 100.0969533 107.3044862  29.6580400
  98.6696332 107.6671621  29.3071828 100.2231493 102.8504721  35.1625014
 100.1666695 103.3073272  34.3232647 100.7759836 102.0895405  34.9847857
 104.0336299  98.6394453  35.9875134 103.7773234  98.2391088  36.8183341
 103.4089167  99.3538246  35.8625273 108.3448637 101.3790526  38.4946425
 107.7848195 101.4483715  39.2677987 107.7392141 101.2031510  37.7745921
  91.4143846 112.8127253  40.2464611  91.2976230 113.7572685  40.1443302
  90.5936292 112.5100814  40.6350411 101.3020381 107.5377389  31.0921204
 102.1365985 107.1058587  30.9098679 101.1404724 107.3659402  32.0198099
 100.9566273 104.0409502  32.4577543 100.9015077 103.8753773  31.5165987
 100.3312328 104.7485535  32.6139733  94.2662398  93.5417611  32.0362862
  94.2541068  94.4859451  32.1931133  95.1585820  93.3587756  31.7422323
  94.1951962 112.2186501  40.1230618  93.2447593 112.2188363  40.0094991
  94.4984448 111.4719236  39.6066653  98.0814518  90.1360388  36.2908799
  97.3146913  89.5818874  36.4365481  98.4925223  90.2082256  37.1522950
 109.9304656 118.0547040  41.1876381 110.5683066 117.9353787  40.4839721
 109.8125499 119.0027884  41.2464333 106.7394362 118.0074468  41.1237905
 106.4012873 117.8915532  40.2358440 107.6084130 117.6065633  41.1038912
 102.5981178 119.8609944  37.1134796 102.0346043 119.7699881  36.3451084
 102.4833573 119.0409849  37.5937289 107.2214145 119.1609320  47.0824111
 107.2102786 118.7662118  46.2104615 107.3834784 118.4275392  47.6757882
 100.1445610 121.3561136  39.9519017 100.9366902 121.0151960  39.5365316
 100.3842260 121.4656111  40.8721170 108.1780736 123.5280912  32.4249261
 107.5268716 124.1134992  32.0383275 108.9725099 124.0587107  32.4844299
 102.1036364 120.6170049  32.8236396 102.8767240 120.0699036  32.6849271
 102.4561762 121.4814298  33.0350857 103.9421406 121.9446431  46.0303295
 103.6511272 122.8492062  45.9149961 104.5778390 121.9862959  46.7447365
 104.8677613 119.3223280  42.6204655 105.4641185 119.0979302  41.9061618
 104.9252584 118.5808025  43.2230102 104.4402641 116.7762715  30.4554846
 104.6928162 116.2544236  29.6938309 103.5027200 116.6128861  30.5581529
 109.4845924 115.7798494  38.2629589 110.2709013 115.3617917  37.9120006
 109.7484628 116.6844586  38.4311237 109.6556002 121.2171344  32.9618246
 109.0201834 121.2905970  33.6739150 109.3253408 121.8064943  32.2837325
 114.8854351 115.7173727  39.1662567 115.6179523 115.1472944  39.4000397
 114.1293707 115.3295327  39.6069073 104.1598930 118.6790821  32.6579221
 104.0435188 118.0035725  33.3260305 104.2701190 118.1923195  31.8411374
 106.5030471 118.1400968  36.3625910 106.1388678 117.6131589  37.0738831
 107.3597587 117.7499437  36.1892395 112.4079772 109.4295301  43.6257176
 112.0763096 110.2990712  43.4018391 111.8125385 109.1131585  44.3051206
 106.1435958 113.1690868  31.3587258 106.3110360 114.0371104  31.7257729
 105.9533127 113.3318150  30.4348548 108.9011291 121.6307847  43.0253089
 108.6012014 122.5332886  42.9168896 108.5562351 121.3640030  43.8774242
 102.3523773 118.0821644  39.0589793 101.4274269 117.9497858  39.2667485
 102.6008186 118.8615863  39.5559736 112.3008435 114.1490387  40.7050526
 111.3925312 114.0805795  40.4109287 112.2496031 114.6262332  41.5332351
 106.1225179 115.6248525  32.3433925 106.0024804 116.0705576  33.1819405
 105.4277767 115.9733843  31.7847463  99.7132584 117.7254917  39.8933582
  99.8424965 117.9789396  40.8072994  99.0330035 118.3182625  39.5738237
 103.8832071 128.3952167  35.9924056 103.8056101 129.3459992  36.0712537
 103.2793715 128.0498040  36.6498983 106.3749301 115.5680033  48.6485423
 105.5982635 116.1273953  48.6388288 107.0139864 116.0536816  49.1700293
 114.1670081 112.3506825  42.4828400 113.5244462 112.6439359  41.8368194
 113.6625010 112.2359746  43.2881597 111.8210245 116.0969999  33.1714259
 112.7328101 116.3297385  32.9961957 111.3119892 116.6807043  32.6089338
 104.6295673 118.3765486  48.2103390 105.3710357 118.9150530  47.9338214
 103.9232659 119.0031775  48.3674942 110.1051013 120.5194626  46.8075552
 110.5134369 120.0777037  46.0630184 109.3828274 119.9447254  47.0609745
 106.4582083 115.4567233  44.1809109 107.3043278 115.8806647  44.3243758
 106.3980720 114.8000858  44.8747672 110.4279827 121.0795817  40.5627841
 109.7988690 121.2441531  39.8603908 110.0405489 121.4937427  41.3338805
 114.3069059 122.0150255  37.9172204 113.6220097 122.3949156  37.3669238
 114.3912909 122.6245582  38.6504152 109.6081528 113.1171602  45.8390282
 109.3642460 113.8713662  45.3024558 109.8841459 113.4956949  46.6737529
 111.5619991 119.6610214  44.5167548 111.7736886 120.3041974  43.8401929
 111.5149739 118.8272531  44.0489478 109.1646220 112.2728035  41.4204120
 108.3030699 112.5709288  41.7120858 109.1908654 112.4898433  40.4885153
 105.9807789 120.8170225  37.8277926 106.4446135 121.0957928  37.0382548
 105.7164587 119.9153670  37.6451016 102.8731870 120.3641707  40.7657689
 103.4433227 120.7928975  40.1275173 103.4639982 120.0824291  41.4641875
 104.9176675 116.9393378  34.6367491 105.6200719 117.3914421  35.1041417
 104.5857304 116.2977196  35.2647384 103.3657037 115.5305134  49.0118700
 102.7355697 116.2121415  49.2454097 103.2593125 115.4188216  48.0671839
  98.6602009 115.1976930  39.9384624  97.8701063 115.4534459  39.4624735
  99.1513257 116.0125268  40.0436665 112.6765819 122.5382169  42.6889905
 113.4983263 122.1362357  42.4072587 112.6728222 122.4350404  43.6406021
 100.6116755 115.5621509  36.8968101  99.8147918 115.6740204  37.4151597
 100.3842347 115.9008162  36.0308992 106.4422422 122.0866213  44.8450616
 106.5066855 122.5486620  45.6808788 105.7333346 121.4563578  44.9732926
  96.9439712 115.4507421  42.3699615  97.1947751 116.3354431  42.6357191
  97.4799261 115.2712022  41.5974707 120.7671812 118.8820918  39.0374877
 120.0135520 118.3128316  38.8818881 120.9019353 118.8483582  39.9845511
 106.1570440 123.7534320  34.7129596 106.0216115 124.5985856  35.1414444
 106.6980252 123.9553598  33.9495530 102.6437780 109.8325900  51.3743951
 102.2504725 109.2792099  52.0491596 103.4603920 110.1436478  51.7650469
  99.6099837 121.2709758  35.2857521 100.1224358 122.0653008  35.4363086
 100.2622550 120.5736049  35.2191123 101.4194722 124.3875514  37.3680274
 101.5961350 125.3093479  37.1801258 102.2151556 124.0733934  37.7974654
 105.5605741 111.2483779  48.9664208 106.3015454 111.8490932  48.8868670
 105.7923663 110.5061417  48.4082250 100.7047079 116.4340146  47.2442438
 100.5900594 115.5325404  47.5449536  99.8491596 116.6803843  46.8927254
 107.7838916 124.3757887  48.8429938 107.3402770 123.5894265  48.5250843
 108.4456130 124.5637037  48.1773829 102.5426037 125.9053688  43.3690617
 103.0933463 125.7770752  42.5967611 101.7037513 126.2048577  43.0185509
 109.8820154 124.6560687  46.8711339 109.8638630 125.4769568  46.3791609
 110.8040074 124.5314762  47.0961481 106.3393209 122.1704816  47.7134848
 106.8721545 121.4093104  47.4834156 105.8107290 121.8778468  48.4559002
 109.5062903 107.2764882  43.2428490 109.1627173 108.1666524  43.1667600
 109.8741866 107.0866540  42.3798075  97.5748754 119.5998412  36.0617092
  98.4123976 120.0095421  35.8450799  97.7527022 118.6597855  36.0317286
 109.4713186 117.2673493  31.7500925 108.9559810 118.0378098  31.9889312
 109.1990495 116.5938629  32.3733986 107.0560297 112.1123194  36.8086163
 106.2001894 111.7230044  36.6291802 107.4687249 112.1915155  35.9485949
 108.5859444 109.6469537  41.2077723 108.0824239 109.6099672  40.3945528
 108.8790051 110.5562280  41.2674379 104.8302330 109.7308267  40.2143905
 105.6955327 109.5351076  39.8549794 104.8979839 109.5018619  41.1413261
 114.4447460 120.0205848  33.6854098 113.6676903 119.6817007  33.2409260
 115.1238941 120.0258471  33.0109063 109.2599489 115.1400585  33.5760706
 108.9549625 115.4546734  34.4270849 110.2129931 115.2182005  33.6188039
 107.7045921 121.2990809  35.2253660 107.1767283 120.5643568  34.9126897
 107.2033424 122.0765485  34.9793628 112.6838767 119.4939829  40.3420706
 112.0262442 120.1839090  40.4300835 113.4879166 119.8836261  40.6854692
 102.4364649 111.9610475  37.5860271 103.0108401 111.7385656  36.8533464
 103.0235631 112.0299169  38.3388873 111.4944226 117.8484202  38.3924648
 112.0076108 118.4814194  38.8946358 112.1445450 117.2485397  38.0268008
 102.7634236 113.9914936  31.6056157 101.9271548 114.3289622  31.9265431
 102.6239006 113.8563916  30.6683294 104.7387317 108.8351724  36.3135341
 104.0851729 108.5200741  35.6891956 104.6967791 108.2127464  37.0395164
 105.8498521 119.1171019  28.2288633 104.9425583 118.8860272  28.4279782
 106.3469553 118.3208638  28.4162614 108.7566600 127.8268526  31.1485319
 108.0828299 128.1300223  31.7570277 109.1432422 128.6297606  30.7990776
 107.9725057 115.3233657  40.6382988 107.0547618 115.5448604  40.4804676
 108.3885201 115.3979968  39.7794696 108.7560105 116.7225073  35.7685669
 109.5031924 117.2346470  35.4592791 109.0251694 116.4009126  36.6290062
 107.0286755 119.2183614  32.7512623 106.1197974 118.9342646  32.8485093
 107.0581839 119.6382692  31.8915930 112.2606022 122.8290203  36.5203791
 111.8068349 121.9881113  36.5768981 111.6299989 123.4651602  36.8578571
 111.2038942 113.7582189  37.7504458 110.4661699 113.2459575  38.0814701
 111.4565715 113.3182571  36.9387735 110.7038961 124.6666700  37.4553609
 110.9961936 125.2271757  36.7365974 111.2137582 124.9595261  38.2106768
 111.3050569 106.5358441  38.3446227 111.6109446 105.6755805  38.0572142
 112.0303174 107.1276061  38.1445221  97.5974925 116.9389128  36.7327825
  97.3999325 116.3458489  36.0078892  97.0421589 116.6341338  37.4503764
 105.5771649 116.8312234  38.8522418 105.6320259 115.8786071  38.7764895
 104.7662851 116.9871673  39.3363717 106.7262843 120.7592357  30.0900702
 106.2882273 120.0428216  29.6306339 107.4673283 120.9868472  29.5285793
 103.5164009 115.4489294  36.6112797 102.7031874 115.7483465  37.0177989
 104.0123003 115.0544983  37.3287279 105.6672587 125.4447051  38.5447062
 105.6248765 125.6707897  37.6155594 106.5835286 125.2110426  38.6932863
 109.1138220 115.9131119  45.4427691 109.4687608 116.1402592  46.3022157
 109.7610352 116.2449495  44.8204946 114.8435957 119.0349554  36.1477020
 114.7053856 119.2251150  35.2198209 114.4872176 119.7968937  36.6045071
 103.0078084 113.0207650  42.2274032 103.6477463 112.8796409  41.5296995
 102.1755614 112.7342163  41.8512634 114.8705337 121.1026081  41.1588292
 115.3041844 121.0101370  42.0071346 115.5836918 121.0783582  40.5208308
 103.7838387 122.3210080  38.3409025 104.5778986 121.8260400  38.1391600
 103.0730080 121.7927943  37.9776730 108.6033232 124.7028176  42.6921392
 108.6570254 125.2719112  43.4599108 107.7348013 124.8730061  42.3275429
 100.0921151 116.4653162  34.4168777  99.1618739 116.4037617  34.6338739
 100.1878623 115.9429114  33.6205419 100.0106700 112.9907975  37.0047019
 100.2713517 113.9053308  36.8956179 100.8323872 112.5232417  37.1543632
 101.4831625 114.4045732  44.1745843 102.1554679 114.1963094  43.5258492
 100.6561412 114.2067818  43.7351076 115.7320887 121.1449782  43.6921177
 115.9256777 122.0495593  43.9380452 115.6321505 120.6857201  44.5259762
 107.3857197 111.0307673  46.1911504 106.7385112 111.7297622  46.0975981
 108.1558213 111.4643817  46.5587753 110.7935995 121.2956525  49.2662058
 110.6421502 121.0667076  48.3492141 110.7840675 122.2527126  49.2793403
 107.5621332 118.8688438  44.2508324 108.4913392 119.0199597  44.0777291
 107.1412362 118.9572458  43.3956971 106.3609663 122.8939102  42.0206862
 106.2220749 122.5257886  42.8932800 105.5724260 123.4086741  41.8490819
 106.9557815 127.9948198  33.3632398 107.1309571 127.5236242  34.1778021
 106.2690603 128.6213965  33.5913659 107.9114879 122.2720705  39.4095699
 107.5764711 122.2321475  40.3053349 107.4118824 121.6065421  38.9366110
 101.8859123 117.6788335  44.9348281 101.7478920 116.9468574  45.5359820
 102.7964046 117.5897235  44.6532468 110.8474070 119.6176739  29.6832759
 110.2303241 118.8923567  29.5865812 110.3790559 120.3786099  29.3399833
 104.5141423 117.3908294  44.4231960 105.2241042 116.7501486  44.3818579
 104.4710731 117.6421189  45.3458141 112.5028202 124.3275647  47.3438539
 112.4440748 123.6434867  46.6769123 112.9047720 125.0694637  46.8919165
 103.2270357 114.3773512  46.2427600 102.6907714 113.9264250  46.8949196
 102.6387066 114.5119421  45.4998064 101.5218901 131.1437561  40.1372258
 101.7615499 131.7756085  40.8151277 100.6788097 130.7925601  40.4237618
 102.6372616 113.8362163  28.8054063 101.7602082 113.7150964  28.4416310
 103.1130369 113.0448242  28.5532952 112.5045609 122.2915231  45.5752519
 111.6172388 121.9541153  45.6978918 113.0744160 121.5598263  45.8121285
  94.1574756 118.6239323  38.8995571  94.8445796 118.3101053  38.3116586
  94.0022885 119.5280688  38.6262822  98.9609478 113.5129520  43.3280594
  98.8767667 112.9055189  42.5931004  98.1392185 114.0038538  43.3290091
 106.0346763 126.9516684  42.5413762 105.9616934 127.7571655  43.0533067
 105.5924156 127.1508649  41.7161784 105.8236542 126.1888454  36.0516584
 105.0404064 126.7310134  36.1454808 106.5229287 126.7062433  36.4510825
 109.1333192 111.9983083  38.6950789 109.6301892 111.2453045  38.3751860
 108.3620174 112.0347400  38.1293999 116.9862950 117.7023449  40.3369081
 116.9752826 118.5848164  39.9663014 116.1180329 117.3494999  40.1423618
 108.4945446 126.8503518  44.6971921 109.2073418 127.4850982  44.6247822
 108.0035475 126.9467384  43.8811923 110.2162973 120.7554770  36.2689213
 109.2819252 120.8756233  36.0993917 110.3939641 119.8527237  36.0049223
 105.7168161 114.1400466  38.4222474 105.3465949 113.5871506  39.1103379
 106.2127254 113.5358600  37.8697474 113.6035524 116.5972090  36.8039247
 114.0695977 117.4300081  36.7299549 114.0543025 116.1317071  37.5084505
 103.5457360 124.5997961  45.5177492 104.2466819 125.2334444  45.6706886
 103.0752475 124.9412693  44.7573131 111.6711755 122.9415911  33.8025399
 111.9471599 122.8272505  34.7119273 110.8016254 122.5433396  33.7637572
 111.5752187 108.9652677  40.8430148 110.6615267 109.1956903  41.0112355
 112.0045289 109.0491121  41.6944181 111.3458646 117.1542569  43.3430042
 110.6930096 117.4018476  42.6882495 111.7239025 116.3406707  43.0092519
 108.3065819 127.1902262  37.4458212 108.4888214 126.3723918  37.9085965
 109.1298805 127.4069954  37.0083102 108.6407985 126.1170447  34.7073261
 109.1695751 125.6062901  34.0943423 108.9036205 125.8012977  35.5718794
 107.3946219 117.8962380  49.8296079 106.7186856 117.7956509  50.4998454
 108.2173852 117.7401593  50.2932076  99.1425078 124.1334316  42.4508595
  99.7278514 123.3878004  42.5836499  98.9449916 124.4438273  43.3345258
 101.9963733 127.1685564  37.4671037 101.3274108 127.6531691  36.9835077
 101.8576603 127.4154784  38.3814415  93.7342732 116.7039916  41.1713038
  93.7726832 116.1703507  41.9650156  93.2283025 116.1775122  40.5524015
 106.1369001 129.2029307  44.0653695 106.6887310 129.3660929  44.8302780
 106.4775195 129.7933745  43.3933720 101.1133495 111.5504457  44.6675580
 101.1774821 112.4119288  44.2552978 101.0500615 110.9378459  43.9347938
 100.5885767 113.6227589  48.3148614 101.2157806 113.2404667  48.9286139
  99.7313686 113.4041791  48.6804307 110.9879876 124.0290565  49.9202350
 111.5319780 124.6420523  49.4257304 110.4066721 124.5870143  50.4369363
  97.3651310 115.4304019  34.2466969  97.6604751 114.5214697  34.1934023
  96.4639346 115.4091758  33.9247971 109.2737389 127.1511283  41.0517377
 109.1488528 126.3501022  40.5428323 109.9316480 127.6457476  40.5631347
 100.8945557 113.5060015  40.2294518 100.1732143 114.1195983  40.0901991
 101.6838813 114.0417780  40.1511164 111.3372297 124.9520303  42.6796928
 110.3902633 124.8325654  42.6075254 111.6855070 124.0642801  42.7623189
 103.6971871 110.8414442  46.5035169 104.2206272 111.0876738  47.2661479
 103.4784204 111.6734476  46.0838307  99.0939152 113.1118116  34.3706294
  98.7651858 112.2315495  34.1881400  99.4478522 113.0565785  35.2582683
 108.3418730 124.7473019  38.8801280 108.1943693 123.8189726  39.0608850
 109.1672224 124.7693110  38.3958355 102.2080975 113.3991086  34.7381772
 102.5477047 113.9277007  34.0160380 102.6553095 113.7371492  35.5140338
 111.9452852 125.5701578  39.9666153 112.8699400 125.3644439  39.8290604
 111.7768156 125.3217979  40.8755494 104.9024416 111.7828137  44.1884840
 104.5621236 110.9835950  44.5905520 104.1963422 112.0829848  43.6161673
 105.5540887 108.8677449  42.6412163 106.3766957 108.3937927  42.5191053
 105.7978951 109.6467933  43.1410849 104.1949122 111.8965708  32.9375065
 104.9157484 112.2746960  32.4338782 103.5714426 112.6154584  33.0410043
 108.3380245 112.6010857  33.8733397 108.5543859 113.4835494  33.5722225
 107.8574312 112.2097070  33.1439039 103.0779466 115.5596570  40.4504142
 102.9324047 115.8736873  41.3428423 102.6004670 116.1781470  39.8975040
 104.9375849 112.5499118  40.4985031 104.9237418 111.6540211  40.1617329
 105.6548277 112.5569782  41.1323317 106.7901980 112.9836458  42.5438159
 106.5319758 113.9053529  42.5422489 106.2587020 112.5866893  43.2338623
 111.7348168 126.0887245  35.3228244 111.9085046 125.5233668  34.5702096
 112.2277060 126.8888140  35.1407734  97.5525128 118.1001914  43.3891803
  97.0078596 118.8761722  43.5212077  98.4304478 118.4472719  43.2310924
 104.3412745 111.4313498  35.7672601 104.4628656 110.5030144  35.9663489
 104.0514787 111.4452184  34.8550917 107.2103935 109.1168408  38.9039321
 107.2325632 109.1807742  37.9491301 107.6271994 108.2772917  39.0979827
 117.5887560 118.8523668  36.9418544 118.0318706 118.1030993  36.5437667
 116.7114070 118.8433804  36.5592276 112.7223341 125.4054010  32.4225142
 113.4174246 126.0260702  32.6412457 113.0646491 124.5549361  32.6977520
  98.3391150 117.2271810  46.2821960  97.5972886 117.3754446  46.8686590
  98.0183894 117.4880076  45.4188709 114.6214764 122.8553715  33.9512473
 115.1466088 123.1940988  33.2261793 114.5337117 121.9200730  33.7675608
 106.2834813 126.7687789  46.0802350 106.5921939 126.5236935  46.9525049
 107.0810295 126.9734427  45.5921220 106.3055425 128.9225698  38.3107726
 105.8660415 128.4302077  39.0040583 107.0563542 128.3798666  38.0699801
  98.7847764 125.1137239  38.3132354  99.6105784 124.8141011  37.9330998
  98.4341816 124.3444862  38.7622143 103.7529297 124.4663707  40.3830028
 103.1309306 123.8034412  40.0832256 104.4234164 124.4924839  39.7003676
  96.9856369 123.0323566  39.2721288  96.1488277 122.6045740  39.0905289
  96.9580014 123.2256009  40.2092079 103.8253824 112.9445495  49.9762534
 103.8741980 113.8207618  49.5940303 104.3676339 112.4022888  49.4034177
 114.3108670 123.4886619  49.2563671 113.5204214 123.4710758  48.7168170
 114.0742025 124.0274912  50.0112708 114.4306545 120.3379085  46.5696399
 114.4804550 120.1729092  47.5111922 114.3220469 119.4706344  46.1794280
 103.3142804 123.0167631  33.8588488 103.4630924 123.7003095  33.2055161
 104.1209247 122.9972721  34.3737944 111.7210308 116.3210013  47.8855706
 112.6220170 116.1816478  47.5939704 111.7958282 116.4864468  48.8253884
 106.0553113 113.6976868  46.7308893 105.1856422 113.9910434  46.4591481
 106.2912593 114.2817313  47.4516156 115.9324742 122.7576027  46.8138421
 115.6409550 123.1206007  47.6501882 115.3196873 122.0443035  46.6351753
 117.1320424 120.3228906  39.3340991 117.9667316 120.7618710  39.4978552
 117.2679553 119.8467560  38.5149237 114.1811930 117.8808641  45.2818479
 114.6566052 118.0736287  44.4737330 113.2577496 117.9367827  45.0361863
 101.0695437 119.0432808  34.8649557 100.8241479 118.1395138  35.0629767
 101.2391351 119.0449959  33.9229035 108.7592147 109.9156485  44.2474313
 109.2774091 110.6517512  43.9220801 108.4047280 110.2220478  45.0821072
 100.3391084 114.7761166  32.3635719  99.6460329 114.8505521  31.7075755
 100.0942836 114.0121510  32.8857236 109.0104741 106.3356767  39.7675210
 109.2906495 105.6679956  40.3935636 109.7955348 106.5285863  39.2549873
 106.8138209 125.5115761  31.3300236 106.2412177 126.1305948  30.8770708
 107.3871003 126.0615123  31.8640158 112.8813599 114.7574401  43.5146785
 113.8331022 114.8572499  43.5359009 112.7117050 113.9652670  44.0244869
 110.9027979 111.8429984  43.7006186 110.3077911 112.1234997  43.0052674
 110.6177675 112.3323885  44.4722927 110.0335469 125.7952911  32.4608818
 110.9666142 125.7298473  32.6641694 109.9458682 126.6309178  32.0023351
 112.6623486 125.1118782  29.4212766 112.5837117 124.7778645  30.3148524
 113.4833153 125.6040550  29.4204238 115.3601677 117.9780521  42.6289084
 115.3277997 117.0396522  42.8148768 115.9702301 118.0564558  41.8954909
 107.1985008 116.8476574  28.6716288 108.1444113 116.7182782  28.7404706
 106.8199253 116.1091236  29.1485716 115.5096166 114.7691564  42.6747367
 114.9935214 113.9850021  42.4877296 116.3936114 114.4410281  42.8393887
 113.1706892 108.5132580  38.6343180 112.9731714 108.2047668  39.5186512
 113.7806598 109.2394219  38.7641110 121.1778227 119.0396528  41.7695121
 121.9081615 118.7781816  42.3302824 120.5685172 118.3025250  41.8097189
 119.2593524 117.1804390  42.3669572 118.5326688 117.0460355  41.7586064
 118.8440811 117.4881219  43.1726290 107.0823700 120.8994320  50.1316945
 108.0026710 121.0772919  50.3256992 107.0473284 119.9550365  49.9796645
 105.3827925 114.7726550  28.6071174 104.4759380 114.4759663  28.6833887
 105.6603906 114.4756368  27.7405460  96.3005865 116.0932914  39.0570220
  95.9808650 115.2398222  38.7644594  95.7539294 116.3081492  39.8128187
 100.0785773 118.8095355  42.7739726 100.2971783 119.7412463  42.7927760
 100.4911547 118.4503329  43.5594530 106.9989991 109.3163440  34.7615415
 106.1890719 108.9710525  35.1370661 107.6874408 109.0070984  35.3503026
 108.9280539 108.3941487  36.3839711 109.4811578 108.8136940  37.0429735
 109.1650625 107.4677235  36.4262667 104.9513638 114.3828560  52.1642475
 104.8510365 115.3322917  52.0954566 104.7335180 114.0546799  51.2918545
 104.1526710 111.6313486  28.7483153 105.0145874 111.9568384  29.0078970
 104.3377054 110.8444981  28.2356219  96.1694125 119.7135825  41.0263342
  95.4757597 119.2989778  40.5133296  96.9167116 119.7556362  40.4296760
 112.3059346 110.5042012  35.8918376 111.7258015 111.1626816  35.5096428
 112.0395279 109.6819357  35.4805793 110.7562913 109.9047070  38.0939696
 111.2562691 110.0163604  37.2854015 111.3998520 109.6008123  38.7340505
 104.8144908 117.8125699  50.9807537 104.3311990 118.6126059  51.1871426
 104.9005847 117.8233644  50.0274981  98.0830868 119.6454079  38.9029356
  98.0601556 119.7441766  37.9511240  98.3931504 120.4919230  39.2246523
 100.7418246 121.7030234  43.0175971 101.6961499 121.6714176  42.9505902
 100.5430769 121.2420858  43.8326197 101.3317628 120.2731350  45.5846768
 102.1510517 120.7675429  45.6081606 101.6054436 119.3563318  45.5564336
 111.0884224 112.6642102  34.9474724 110.2010079 112.9491753  34.7294919
 111.5038213 112.5035866  34.1002001 114.4398760 112.6888623  38.6629063
 115.2159150 113.1785076  38.9353680 113.7146895 113.1146678  39.1200933
 116.8771319 113.4016243  39.7203004 117.4715810 113.1611979  39.0096312
 116.9497903 112.6823373  40.3476540  99.0968475 127.2449854  40.0346169
  98.9622943 126.4850254  39.4684167  98.6800537 127.9690753  39.5674958
 110.2327438 122.4286777  29.0422744 110.9363288 122.6336780  29.6580400
 109.5090086 122.9963539  29.3071828 111.0625248 118.1796638  35.1625014
 111.0060449 118.6365190  34.3232647 111.6153590 117.4187323  34.9847857
 114.8730054 113.9686370  35.9875134 114.6166988 113.5683006  36.8183341
 114.2482922 114.6830164  35.8625273 119.1842392 116.7082443  38.4946425
 118.6241950 116.7775633  39.2677987 118.5785895 116.5323428  37.7745921
 102.2537601 128.1419171  40.2464611 102.1369985 129.0864603  40.1443302
 101.4330047 127.8392732  40.6350411 112.1414135 122.8669306  31.0921204
 112.9759739 122.4350505  30.9098679 111.9798478 122.6951320  32.0198099
 111.7960027 119.3701420  32.4577543 111.7408831 119.2045691  31.5165987
 111.1706083 120.0777452  32.6139733  96.5852542 114.6069484  46.2838966
  97.2311406 114.0968438  46.7726191  96.3769693 115.3438166  46.8582391
 109.1105934 121.6750331  51.7831106 109.9797094 121.8490984  51.4217741
 108.6312686 122.4944748  51.6606835 105.1056153 108.8709529  32.0362862
 105.0934823 109.8151368  32.1931133 105.9979575 108.6879674  31.7422323
 103.2792115 128.7947432  43.4620540 104.1819361 128.8271043  43.7787035
 103.0529485 127.8647883  43.4766876 105.0345717 127.5478419  40.1230618
 104.0841348 127.5480281  40.0094991 105.3378203 126.8011154  39.6066653
 108.9208272 105.4652305  36.2908799 108.1540668 104.9110792  36.4365481
 109.3318977 105.5374174  37.1522950 100.9250033 111.7537101  50.3813980
 101.7881495 111.3973906  50.5917304 100.3515444 111.4150996  51.0689384
 120.7698410 133.3838957  41.1876381 121.4076820 133.2645705  40.4839721
 120.6519253 134.3319801  41.2464333 117.5788116 133.3366385  41.1237905
 117.2406628 133.2207450  40.2358440 118.4477885 132.9357551  41.1038912
 113.4374932 135.1901862  37.1134796 112.8739797 135.0991799  36.3451084
 113.3227327 134.3701766  37.5937289 118.0607899 134.4901237  47.0824111
 118.0496540 134.0954035  46.2104615 118.2228539 133.7567310  47.6757882
 110.9839364 136.6853053  39.9519017 111.7760656 136.3443878  39.5365316
 111.2236014 136.7948029  40.8721170 112.9430118 135.9461967  32.8236396
 113.7160994 135.3990954  32.6849271 113.2955517 136.8106216  33.0350857
 114.7815161 137.2738349  46.0303295 114.4905027 138.1783980  45.9149961
 115.4172145 137.3154877  46.7447365 115.7071367 134.6515198  42.6204655
 116.3034940 134.4271220  41.9061618 115.7646339 133.9099943  43.2230102
 115.2796396 132.1054633  30.4554846 115.5321917 131.5836154  29.6938309
 114.3420955 131.9420778  30.5581529 120.3239679 131.1090411  38.2629589
 121.1102768 130.6909834  37.9120006 120.5878383 132.0136503  38.4311237
 120.4949756 136.5463262  32.9618246 119.8595589 136.6197888  33.6739150
 120.1647162 137.1356860  32.2837325 125.7248106 131.0465644  39.1662567
 126.4573278 130.4764861  39.4000397 124.9687461 130.6587245  39.6069073
 114.9992685 134.0082739  32.6579221 114.8828943 133.3327642  33.3260305
 115.1094944 133.5215113  31.8411374 117.3424226 133.4692886  36.3625910
 116.9782433 132.9423507  37.0738831 118.1991341 133.0791355  36.1892395
 123.2473526 124.7587219  43.6257176 122.9156851 125.6282629  43.4018391
 122.6519140 124.4423503  44.3051206 116.9829712 128.4982786  31.3587258
 117.1504115 129.3663022  31.7257729 116.7926882 128.6610067  30.4348548
 119.7405046 136.9599765  43.0253089 119.4405769 137.8624803  42.9168896
 119.3956105 136.6931948  43.8774242 113.1917527 133.4113561  39.0589793
 112.2668024 133.2789775  39.2667485 113.4401940 134.1907781  39.5559736
 123.1402189 129.4782305  40.7050526 122.2319067 129.4097713  40.4109287
 123.0889785 129.9554250  41.5332351 116.9618933 130.9540443  32.3433925
 116.8418559 131.3997494  33.1819405 116.2671522 131.3025761  31.7847463
 110.5526338 133.0546835  39.8933582 110.6818719 133.3081314  40.8072994
 109.8723789 133.6474543  39.5738237 114.7225825 143.7244085  35.9924056
 114.6449855 144.6751910  36.0712537 114.1187469 143.3789957  36.6498983
 117.2143055 130.8971950  48.6485423 116.4376389 131.4565870  48.6388288
 117.8533618 131.3828733  49.1700293 125.0063836 127.6798743  42.4828400
 124.3638216 127.9731276  41.8368194 124.5018764 127.5651663  43.2881597
 122.6604000 131.4261916  33.1714259 123.5721856 131.6589303  32.9961957
 122.1513647 132.0098961  32.6089338 115.4689428 133.7057404  48.2103390
 116.2104112 134.2442448  47.9338214 114.7626413 134.3323692  48.3674942
 120.9444767 135.8486544  46.8075552 121.3528123 135.4068955  46.0630184
 120.2222029 135.2739172  47.0609745 117.2975837 130.7859151  44.1809109
 118.1437032 131.2098564  44.3243758 117.2374475 130.1292775  44.8747672
 121.2673582 136.4087735  40.5627841 120.6382444 136.5733449  39.8603908
 120.8799244 136.8229344  41.3338805 125.1462814 137.3442173  37.9172204
 124.4613852 137.7241074  37.3669238 125.2306663 137.9537499  38.6504152
 120.4475283 128.4463519  45.8390282 120.2036214 129.2005580  45.3024558
 120.7235213 128.8248867  46.6737529 122.4013745 134.9902132  44.5167548
 122.6130641 135.6333892  43.8401929 122.3543494 134.1564448  44.0489478
 120.0039974 127.6019952  41.4204120 119.1424453 127.9001206  41.7120858
 120.0302409 127.8190351  40.4885153 116.8201544 136.1462143  37.8277926
 117.2839889 136.4249846  37.0382548 116.5558342 135.2445587  37.6451016
 113.7125625 135.6933624  40.7657689 114.2826982 136.1220893  40.1275173
 114.3033737 135.4116209  41.4641875 115.7570430 132.2685295  34.6367491
 116.4594473 132.7206339  35.1041417 115.4251058 131.6269114  35.2647384
 114.2050791 130.8597052  49.0118700 113.5749452 131.5413333  49.2454097
 114.0986879 130.7480133  48.0671839 109.4995764 130.5268848  39.9384624
 108.7094818 130.7826376  39.4624735 109.9907011 131.3417186  40.0436665
 123.5159573 137.8674087  42.6889905 124.3377017 137.4654274  42.4072587
 123.5121976 137.7642321  43.6406021 111.4510509 130.8913427  36.8968101
 110.6541672 131.0032121  37.4151597 111.2236101 131.2300079  36.0308992
 117.2816177 137.4158130  44.8450616 117.3460609 137.8778538  45.6808788
 116.5727101 136.7855495  44.9732926 107.7833467 130.7799338  42.3699615
 108.0341505 131.6646348  42.6357191 108.3193015 130.6003940  41.5974707
 131.6065566 134.2112836  39.0374877 130.8529275 133.6420234  38.8818881
 131.7413108 134.1775500  39.9845511 116.9964194 139.0826238  34.7129596
 116.8609869 139.9277774  35.1414444 117.5374007 139.2845515  33.9495530
 113.4831534 125.1617818  51.3743951 113.0898480 124.6084016  52.0491596
 114.2997674 125.4728396  51.7650469 110.4493592 136.6001676  35.2857521
 110.9618112 137.3944926  35.4363086 111.1016305 135.9027966  35.2191123
 112.2588476 139.7167432  37.3680274 112.4355105 140.6385397  37.1801258
 113.0545310 139.4025851  37.7974654 116.3999495 126.5775697  48.9664208
 117.1409208 127.1782850  48.8868670 116.6317418 125.8353335  48.4082250
 111.5440833 131.7632064  47.2442438 111.4294348 130.8617321  47.5449536
 110.6885351 132.0095761  46.8927254 118.6232671 139.7049804  48.8429938
 118.1796525 138.9186183  48.5250843 119.2849884 139.8928955  48.1773829
 113.3819792 141.2345606  43.3690617 113.9327217 141.1062669  42.5967611
 112.5431268 141.5340495  43.0185509 120.7213909 139.9852604  46.8711339
 120.7032384 140.8061485  46.3791609 121.6433829 139.8606679  47.0961481
 117.1786963 137.4996734  47.7134848 117.7115300 136.7385022  47.4834156
 116.6501044 137.2070386  48.4559002 120.3456658 122.6056800  43.2428490
 120.0020927 123.4958441  43.1667600 120.7135621 122.4158457  42.3798075
 108.4142509 134.9290330  36.0617092 109.2517731 135.3387339  35.8450799
 108.5920776 133.9889772  36.0317286 120.3106941 132.5965411  31.7500925
 119.7953564 133.3670015  31.9889312 120.0384249 131.9230547  32.3733986
 117.8954052 127.4415112  36.8086163 117.0395648 127.0521962  36.6291802
 118.3081003 127.5207072  35.9485949 119.4253198 124.9761455  41.2077723
 118.9217994 124.9391590  40.3945528 119.7183805 125.8854198  41.2674379
 115.6696084 125.0600185  40.2143905 116.5349081 124.8642993  39.8549794
 115.7373593 124.8310536  41.1413261 120.0993244 130.4692503  33.5760706
 119.7943379 130.7838652  34.4270849 121.0523686 130.5473923  33.6188039
 118.5439676 136.6282726  35.2253660 118.0161037 135.8935486  34.9126897
 118.0427178 137.4057403  34.9793628 123.5232522 134.8231747  40.3420706
 122.8656196 135.5131008  40.4300835 124.3272921 135.2128179  40.6854692
 113.2758403 127.2902393  37.5860271 113.8502155 127.0677574  36.8533464
 113.8629386 127.3591087  38.3388873 122.3337981 133.1776119  38.3924648
 122.8469862 133.8106111  38.8946358 122.9839204 132.5777315  38.0268008
 113.6027990 129.3206854  31.6056157 112.7665303 129.6581540  31.9265431
 113.4632760 129.1855833  30.6683294 115.5781071 124.1643641  36.3135341
 114.9245483 123.8492659  35.6891956 115.5361545 123.5419382  37.0395164
 118.8118811 130.6525575  40.6382988 117.8941373 130.8740522  40.4804676
 119.2278955 130.7271885  39.7794696 119.5953859 132.0516991  35.7685669
 120.3425678 132.5638388  35.4592791 119.8645449 131.7301043  36.6290062
 117.8680509 134.5475531  32.7512623 116.9591729 134.2634564  32.8485093
 117.8975593 134.9674610  31.8915930 123.0999777 138.1582121  36.5203791
 122.6462104 137.3173031  36.5768981 122.4693743 138.7943519  36.8578571
 122.0432696 129.0874107  37.7504458 121.3055453 128.5751493  38.0814701
 122.2959470 128.6474488  36.9387735 121.5432716 139.9958618  37.4553609
 121.8355690 140.5563675  36.7365974 122.0531337 140.2887179  38.2106768
 122.1444324 121.8650359  38.3446227 122.4503200 121.0047722  38.0572142
 122.8696928 122.4567979  38.1445221 108.4368680 132.2681045  36.7327825
 108.2393080 131.6750406  36.0078892 107.8815344 131.9633256  37.4503764
 116.4165403 132.1604152  38.8522418 116.4714013 131.2077988  38.7764895
 115.6056605 132.3163591  39.3363717 114.3557763 130.7781212  36.6112797
 113.5425629 131.0775382  37.0177989 114.8516757 130.3836900  37.3287279
 116.5066341 140.7738969  38.5447062 116.4642520 140.9999815  37.6155594
 117.4229040 140.5402343  38.6932863 119.9531975 131.2423036  45.4427691
 120.3081363 131.4694509  46.3022157 120.6004106 131.5741413  44.8204946
 125.6829712 134.3641472  36.1477020 125.5447610 134.5543068  35.2198209
 125.3265931 135.1260855  36.6045071 113.8471838 128.3499567  42.2274032
 114.4871217 128.2088326  41.5296995 113.0149369 128.0634081  41.8512634
 125.7099092 136.4317999  41.1588292 126.1435598 136.3393288  42.0071346
 126.4230672 136.4075500  40.5208308 114.6232142 137.6501998  38.3409025
 115.4172740 137.1552318  38.1391600 113.9123834 137.1219861  37.9776730
 119.4426986 140.0320093  42.6921392 119.4964009 140.6011029  43.4599108
 118.5741768 140.2021978  42.3275429 110.9314905 131.7945079  34.4168777
 110.0012493 131.7329535  34.6338739 111.0272377 131.2721032  33.6205419
 110.8500454 128.3199892  37.0047019 111.1107272 129.2345225  36.8956179
 111.6717627 127.8524335  37.1543632 112.3225380 129.7337649  44.1745843
 112.9948433 129.5255012  43.5258492 111.4955166 129.5359735  43.7351076
 126.5714641 136.4741700  43.6921177 126.7650531 137.3787510  43.9380452
 126.4715259 136.0149119  44.5259762 118.2250952 126.3599590  46.1911504
 117.5778867 127.0589540  46.0975981 118.9951967 126.7935734  46.5587753
 121.6329750 136.6248442  49.2662058 121.4815256 136.3958994  48.3492141
 121.6234429 137.5819044  49.2793403 118.4015086 134.1980355  44.2508324
 119.3307146 134.3491515  44.0777291 117.9806116 134.2864376  43.3956971
 117.2003418 138.2231020  42.0206862 117.0614504 137.8549804  42.8932800
 116.4118014 138.7378659  41.8490819 118.7508633 137.6012622  39.4095699
 118.4158466 137.5613392  40.3053349 118.2512579 136.9357338  38.9366110
 112.7252877 133.0080252  44.9348281 112.5872675 132.2760491  45.5359820
 113.6357801 132.9189152  44.6532468 115.3535178 132.7200212  44.4231960
 116.0634796 132.0793404  44.3818579 115.3104486 132.9713107  45.3458141
 123.3421956 139.6567565  47.3438539 123.2834503 138.9726785  46.6769123
 123.7441475 140.3986555  46.8919165 114.0664112 129.7065430  46.2427600
 113.5301469 129.2556168  46.8949196 113.4780820 129.8411338  45.4998064
 112.3612655 146.4729479  40.1372258 112.6009253 147.1048003  40.8151277
 111.5181852 146.1217519  40.4237618 113.4766371 129.1654081  28.8054063
 112.5995837 129.0442882  28.4416310 113.9524124 128.3740159  28.5532952
 123.3439364 137.6207149  45.5752519 122.4566142 137.2833071  45.6978918
 123.9137915 136.8890180  45.8121285 104.9968511 133.9531241  38.8995571
 105.6839551 133.6392971  38.3116586 104.8416639 134.8572605  38.6262822
 109.8003233 128.8421437  43.3280594 109.7161422 128.2347107  42.5931004
 108.9785939 129.3330456  43.3290091 116.8740517 142.2808601  42.5413762
 116.8010689 143.0863573  43.0533067 116.4317910 142.4800567  41.7161784
 116.6630297 141.5180371  36.0516584 115.8797819 142.0602052  36.1454808
 117.3623042 142.0354351  36.4510825 119.9726947 127.3275001  38.6950789
 120.4695646 126.5744963  38.3751860 119.2013928 127.3639317  38.1293999
 127.8256704 133.0315366  40.3369081 127.8146580 133.9140082  39.9663014
 126.9574084 132.6786917  40.1423618 119.3339201 142.1795435  44.6971921
 120.0467173 142.8142900  44.6247822 118.8429229 142.2759301  43.8811923
 121.0556727 136.0846688  36.2689213 120.1213006 136.2048150  36.0993917
 121.2333396 135.1819155  36.0049223 116.5561916 129.4692384  38.4222474
 116.1859703 128.9163424  39.1103379 117.0521008 128.8650517  37.8697474
 124.4429279 131.9264007  36.8039247 124.9089731 132.7591999  36.7299549
 124.8936779 131.4608989  37.5084505 114.3851114 139.9289879  45.5177492
 115.0860574 140.5626362  45.6706886 113.9146229 140.2704610  44.7573131
 122.5105510 138.2707829  33.8025399 122.7865354 138.1564423  34.7119273
 121.6410009 137.8725313  33.7637572 122.4145942 124.2944594  40.8430148
 121.5009021 124.5248821  41.0112355 122.8439043 124.3783038  41.6944181
 122.1852400 132.4834486  43.3430042 121.5323850 132.7310394  42.6882495
 122.5632780 131.6698624  43.0092519 119.1459574 142.5194179  37.4458212
 119.3281968 141.7015835  37.9085965 119.9692560 142.7361872  37.0083102
 118.2339973 133.2254297  49.8296079 117.5580610 133.1248427  50.4998454
 119.0567607 133.0693511  50.2932076 109.9818832 139.4626234  42.4508595
 110.5672269 138.7169922  42.5836499 109.7843671 139.7730191  43.3345258
 112.8357487 142.4977481  37.4671037 112.1667863 142.9823609  36.9835077
 112.6970357 142.7446702  38.3814415 104.5736487 132.0331834  41.1713038
 104.6120586 131.4995425  41.9650156 104.0676780 131.5067040  40.5524015
 116.9762756 144.5321225  44.0653695 117.5281064 144.6952846  44.8302780
 117.3168949 145.1225663  43.3933720 111.9527249 126.8796375  44.6675580
 112.0168576 127.7411205  44.2552978 111.8894369 126.2670376  43.9347938
 111.4279522 128.9519507  48.3148614 112.0551561 128.5696584  48.9286139
 110.5707441 128.7333709  48.6804307 121.8273630 139.3582482  49.9202350
 122.3713534 139.9712441  49.4257304 121.2460475 139.9162061  50.4369363
 108.2045064 130.7595936  34.2466969 108.4998506 129.8506615  34.1934023
 107.3033100 130.7383676  33.9247971 120.1131143 142.4803200  41.0517377
 119.9882283 141.6792940  40.5428323 120.7710234 142.9749394  40.5631347
 111.7339311 128.8351933  40.2294518 111.0125897 129.4487901  40.0901991
 112.5232567 129.3709698  40.1511164 122.1766052 140.2812220  42.6796928
 121.2296387 140.1617572  42.6075254 122.5248825 139.3934718  42.7623189
 114.5365625 126.1706359  46.5035169 115.0600027 126.4168656  47.2661479
 114.3177958 127.0026394  46.0838307 109.9332906 128.4410034  34.3706294
 109.6045612 127.5607413  34.1881400 110.2872277 128.3857703  35.2582683
 119.1812485 140.0764937  38.8801280 119.0337447 139.1481644  39.0608850
 120.0065978 140.0985027  38.3958355 113.0474729 128.7283004  34.7381772
 113.3870802 129.2568925  34.0160380 113.4946850 129.0663410  35.5140338
 122.7846607 140.8993495  39.9666153 123.7093154 140.6936357  39.8290604
 122.6161910 140.6509896  40.8755494 115.7418170 127.1120054  44.1884840
 115.4014990 126.3127867  44.5905520 115.0357176 127.4121765  43.6161673
 116.3934642 124.1969367  42.6412163 117.2160711 123.7229845  42.5191053
 116.6372705 124.9759851  43.1410849 115.0342876 127.2257625  32.9375065
 115.7551239 127.6038878  32.4338782 114.4108180 127.9446502  33.0410043
 119.1773999 127.9302774  33.8733397 119.3937614 128.8127412  33.5722225
 118.6968066 127.5388988  33.1439039 113.9173221 130.8888487  40.4504142
 113.7717801 131.2028791  41.3428423 113.4398424 131.5073388  39.8975040
 115.7769604 127.8791035  40.4985031 115.7631172 126.9832129  40.1617329
 116.4942032 127.8861699  41.1323317 117.6295734 128.3128376  42.5438159
 117.3713512 129.2345446  42.5422489 117.0980775 127.9158810  43.2338623
 108.3918883 133.4293832  43.3891803 107.8472351 134.2053640  43.5212077
 109.2698233 133.7764636  43.2310924 115.1806499 126.7605416  35.7672601
 115.3022411 125.8322062  35.9663489 114.8908542 126.7744102  34.8550917
 118.0497690 124.4460326  38.9039321 118.0719387 124.5099659  37.9491301
 118.4665749 123.6064835  39.0979827 128.4281314 134.1815586  36.9418544
 128.8712460 133.4322911  36.5437667 127.5507824 134.1725722  36.5592276
 109.1784905 132.5563728  46.2821960 108.4366641 132.7046363  46.8686590
 108.8577649 132.8171994  45.4188709 117.1228567 142.0979706  46.0802350
 117.4315694 141.8528853  46.9525049 117.9204049 142.3026345  45.5921220
 117.1449179 144.2517616  38.3107726 116.7054170 143.7593995  39.0040583
 117.8957296 143.7090584  38.0699801 109.6241518 140.4429157  38.3132354
 110.4499538 140.1432929  37.9330998 109.2735570 139.6736779  38.7622143
 114.5923051 139.7955625  40.3830028 113.9703061 139.1326330  40.0832256
 115.2627918 139.8216757  39.7003676 107.8250123 138.3615483  39.2721288
 106.9882032 137.9337658  39.0905289 107.7973769 138.5547927  40.2092079
 114.6647579 128.2737413  49.9762534 114.7135734 129.1499536  49.5940303
 115.2070093 127.7314806  49.4034177 125.1502425 138.8178536  49.2563671
 124.3597968 138.8002675  48.7168170 124.9135779 139.3566830  50.0112708
 125.2700300 135.6671003  46.5696399 125.3198305 135.5021010  47.5111922
 125.1614223 134.7998262  46.1794280 114.1536558 138.3459548  33.8588488
 114.3024679 139.0295013  33.2055161 114.9603002 138.3264638  34.3737944
 122.5604062 131.6501931  47.8855706 123.4613925 131.5108396  47.5939704
 122.6352037 131.8156386  48.8253884 116.8946867 129.0268786  46.7308893
 116.0250177 129.3202352  46.4591481 117.1306348 129.6109231  47.4516156
 126.7718497 138.0867944  46.8138421 126.4803305 138.4497925  47.6501882
 126.1590628 137.3734953  46.6351753 127.9714179 135.6520824  39.3340991
 128.8061070 136.0910628  39.4978552 128.1073308 135.1759477  38.5149237
 125.0205685 133.2100559  45.2818479 125.4959806 133.4028205  44.4737330
 124.0971250 133.2659745  45.0361863 111.9089191 134.3724726  34.8649557
 111.6635233 133.4687056  35.0629767 112.0785106 134.3741876  33.9229035
 119.5985901 125.2448402  44.2474313 120.1167845 125.9809429  43.9220801
 119.2441034 125.5512396  45.0821072 111.1784839 130.1053084  32.3635719
 110.4854084 130.1797439  31.7075755 110.9336591 129.3413427  32.8857236
 119.8498495 121.6648685  39.7675210 120.1300249 120.9971874  40.3935636
 120.6349102 121.8577781  39.2549873 123.7207354 130.0866319  43.5146785
 124.6724777 130.1864417  43.5359009 123.5510804 129.2944588  44.0244869
 121.7421733 127.1721902  43.7006186 121.1471665 127.4526915  43.0052674
 121.4571430 127.6615803  44.4722927 126.1995432 133.3072439  42.6289084
 126.1671752 132.3688439  42.8148768 126.8096055 133.3856475  41.8954909
 118.0378762 132.1768492  28.6716288 118.9837867 132.0474700  28.7404706
 117.6593007 131.4383154  29.1485716 126.3489920 130.0983482  42.6747367
 125.8328969 129.3141939  42.4877296 127.2329869 129.7702199  42.8393887
 124.0100647 123.8424498  38.6343180 123.8125468 123.5339586  39.5186512
 124.6200353 124.5686137  38.7641110 132.0171981 134.3688445  41.7695121
 132.7475370 134.1073734  42.3302824 131.4078927 133.6317167  41.8097189
 130.0987279 132.5096308  42.3669572 129.3720442 132.3752273  41.7586064
 129.6834565 132.8173137  43.1726290 117.9217455 136.2286238  50.1316945
 118.8420464 136.4064837  50.3256992 117.8867038 135.2842283  49.9796645
 116.2221680 130.1018468  28.6071174 115.3153135 129.8051581  28.6833887
 116.4997661 129.8048286  27.7405460 107.1399620 131.4224831  39.0570220
 106.8202404 130.5690140  38.7644594 106.5933048 131.6373410  39.8128187
 110.9179528 134.1387272  42.7739726 111.1365537 135.0704380  42.7927760
 111.3305301 133.7795247  43.5594530 117.8383745 124.6455358  34.7615415
 117.0284474 124.3002443  35.1370661 118.5268162 124.3362901  35.3503026
 119.7674294 123.7233405  36.3839711 120.3205332 124.1428858  37.0429735
 120.0044380 122.7969153  36.4262667 115.7907393 129.7120478  52.1642475
 115.6904120 130.6614835  52.0954566 115.5728935 129.3838717  51.2918545
 114.9920464 126.9605403  28.7483153 115.8539628 127.2860302  29.0078970
 115.1770808 126.1736899  28.2356219 107.0087880 135.0427743  41.0263342
 106.3151351 134.6281696  40.5133296 107.7560871 135.0848279  40.4296760
 123.1453101 125.8333930  35.8918376 122.5651770 126.4918734  35.5096428
 122.8789033 125.0111274  35.4805793 121.5956667 125.2338987  38.0939696
 122.0956445 125.3455522  37.2854015 122.2392275 124.9300040  38.7340505
 115.6538663 133.1417617  50.9807537 115.1705745 133.9417977  51.1871426
 115.7399602 133.1525562  50.0274981 108.9224622 134.9745997  38.9029356
 108.8995311 135.0733684  37.9511240 109.2325259 135.8211147  39.2246523
 111.5812000 137.0322152  43.0175971 112.5355254 137.0006094  42.9505902
 111.3824524 136.5712775  43.8326197 112.1711382 135.6023268  45.5846768
 112.9904271 136.0967346  45.6081606 112.4448190 134.6855236  45.5564336
 121.9277979 127.9934020  34.9474724 121.0403834 128.2783671  34.7294919
 122.3431968 127.8327783  34.1002001 125.2792515 128.0180541  38.6629063
 126.0552905 128.5076993  38.9353680 124.5540649 128.4438595  39.1200933
 127.7165073 128.7308160  39.7203004 128.3109564 128.4903896  39.0096312
 127.7891657 128.0115291  40.3476540 109.9362229 142.5741771  40.0346169
 109.8016697 141.8142172  39.4684167 109.5194291 143.2982671  39.5674958
 121.9019002 133.5088556  35.1625014 121.8454204 133.9657107  34.3232647
 122.4547345 132.7479241  34.9847857 125.7123808 129.2978288  35.9875134
 125.4560743 128.8974924  36.8183341 125.0876676 130.0122082  35.8625273
 130.0236146 132.0374361  38.4946425 129.4635704 132.1067550  39.2677987
 129.4179650 131.8615346  37.7745921 113.0931355 143.4711088  40.2464611
 112.9763739 144.4156521  40.1443302 112.2723801 143.1684650  40.6350411
 122.6353782 134.6993337  32.4577543 122.5802586 134.5337609  31.5165987
 122.0099837 135.4069370  32.6139733 107.4246297 129.9361402  46.2838966
 108.0705160 129.4260356  46.7726191 107.2163448 130.6730083  46.8582391
 119.9499689 137.0042249  51.7831106 120.8190849 137.1782901  51.4217741
 119.4706440 137.8236666  51.6606835 115.9449907 124.2001446  32.0362862
 115.9328577 125.1443286  32.1931133 116.8373329 124.0171592  31.7422323
 114.1185869 144.1239350  43.4620540 115.0213116 144.1562960  43.7787035
 113.8923239 143.1939801  43.4766876 115.8739471 142.8770337  40.1230618
 114.9235102 142.8772198  40.0094991 116.1771957 142.1303071  39.6066653
 119.7602027 120.7944223  36.2908799 118.9934422 120.2402710  36.4365481
 120.1712732 120.8666092  37.1522950 111.7643788 127.0829019  50.3813980
 112.6275249 126.7265824  50.5917304 111.1909198 126.7442914  51.0689384
 128.9001654 149.8193155  47.0824111 128.8890295 149.4245953  46.2104615
 129.0622293 149.0859227  47.6757882 125.6208915 152.6030267  46.0303295
 125.3298781 153.5075898  45.9149961 126.2565899 152.6446794  46.7447365
 134.0867281 140.0879136  43.6257176 133.7550605 140.9574547  43.4018391
 133.4912894 139.7715420  44.3051206 121.3920093 148.3838753  39.8933582
 121.5212474 148.6373232  40.8072994 120.7117544 148.9766461  39.5738237
 128.0536810 146.2263868  48.6485423 127.2770144 146.7857788  48.6388288
 128.6927373 146.7120651  49.1700293 135.8457590 143.0090661  42.4828400
 135.2031971 143.3023194  41.8368194 135.3412519 142.8943581  43.2881597
 126.3083182 149.0349321  48.2103390 127.0497866 149.5734365  47.9338214
 125.6020168 149.6615610  48.3674942 131.7838522 151.1778462  46.8075552
 132.1921878 150.7360872  46.0630184 131.0615783 150.6031089  47.0609745
 128.1369592 146.1151069  44.1809109 128.9830787 146.5390482  44.3243758
 128.0768229 145.4584693  44.8747672 131.2869037 143.7755437  45.8390282
 131.0429969 144.5297497  45.3024558 131.5628968 144.1540785  46.6737529
 130.8433729 142.9311870  41.4204120 129.9818208 143.2293124  41.7120858
 130.8696163 143.1482269  40.4885153 125.0444546 146.1888970  49.0118700
 124.4143206 146.8705250  49.2454097 124.9380634 146.0772051  48.0671839
 120.3389518 145.8560766  39.9384624 119.5488572 146.1118294  39.4624735
 120.8300766 146.6709103  40.0436665 128.1209931 152.7450048  44.8450616
 128.1854364 153.2070455  45.6808788 127.4120855 152.1147413  44.9732926
 118.6227221 146.1091256  42.3699615 118.8735260 146.9938266  42.6357191
 119.1586770 145.9295858  41.5974707 124.3225289 140.4909735  51.3743951
 123.9292234 139.9375934  52.0491596 125.1391429 140.8020314  51.7650469
 127.2393250 141.9067614  48.9664208 127.9802963 142.5074768  48.8868670
 127.4711172 141.1645252  48.4082250 122.3834588 147.0923982  47.2442438
 122.2688103 146.1909239  47.5449536 121.5279105 147.3387678  46.8927254
 129.4626425 155.0341722  48.8429938 129.0190279 154.2478101  48.5250843
 130.1243639 155.2220873  48.1773829 128.0180717 152.8288651  47.7134848
 128.5509054 152.0676940  47.4834156 127.4894799 152.5362303  48.4559002
 131.1850412 137.9348717  43.2428490 130.8414682 138.8250359  43.1667600
 131.5529375 137.7450375  42.3798075 130.2646953 140.3053373  41.2077723
 129.7611748 140.2683508  40.3945528 130.5577560 141.2146115  41.2674379
 126.5089839 140.3892102  40.2143905 127.3742835 140.1934911  39.8549794
 126.5767348 140.1602454  41.1413261 124.1152158 142.6194310  37.5860271
 124.6895910 142.3969492  36.8533464 124.7023140 142.6883005  38.3388873
 126.4174826 139.4935559  36.3135341 125.7639238 139.1784576  35.6891956
 126.3755300 138.8711300  37.0395164 132.9838078 137.1942277  38.3446227
 133.2896955 136.3339640  38.0572142 133.7090683 137.7859897  38.1445221
 130.7925729 146.5714954  45.4427691 131.1475117 146.7986427  46.3022157
 131.4397861 146.9033331  44.8204946 124.6865593 143.6791485  42.2274032
 125.3264972 143.5380244  41.5296995 123.8543123 143.3925998  41.8512634
 123.1619134 145.0629567  44.1745843 123.8342188 144.8546929  43.5258492
 122.3348921 144.8651653  43.7351076 129.0644706 141.6891508  46.1911504
 128.4172621 142.3881458  46.0975981 129.8345722 142.1227652  46.5587753
 132.4723504 151.9540360  49.2662058 132.3209011 151.7250912  48.3492141
 132.4628184 152.9110962  49.2793403 129.2408841 149.5272273  44.2508324
 130.1700901 149.6783433  44.0777291 128.8199871 149.6156294  43.3956971
 123.5646632 148.3372170  44.9348281 123.4266429 147.6052409  45.5359820
 124.4751555 148.2481070  44.6532468 126.1928932 148.0492129  44.4231960
 126.9028551 147.4085322  44.3818579 126.1498240 148.3005024  45.3458141
 124.9057866 145.0357347  46.2427600 124.3695223 144.5848086  46.8949196
 124.3174575 145.1703256  45.4998064 115.8362265 149.2823158  38.8995571
 116.5233305 148.9684888  38.3116586 115.6810394 150.1864523  38.6262822
 120.6396987 144.1713355  43.3280594 120.5555176 143.5639025  42.5931004
 119.8179694 144.6622373  43.3290091 125.2244869 155.2581796  45.5177492
 125.9254328 155.8918279  45.6706886 124.7539984 155.5996528  44.7573131
 133.2539696 139.6236512  40.8430148 132.3402776 139.8540739  41.0112355
 133.6832798 139.7074956  41.6944181 129.0733728 148.5546215  49.8296079
 128.3974365 148.4540344  50.4998454 129.8961361 148.3985429  50.2932076
 120.8212587 154.7918152  42.4508595 121.4066023 154.0461839  42.5836499
 120.6237425 155.1022108  43.3345258 115.4130241 147.3623752  41.1713038
 115.4514341 146.8287342  41.9650156 114.9070534 146.8358957  40.5524015
 122.7921004 142.2088292  44.6675580 122.8562330 143.0703123  44.2552978
 122.7288124 141.5962294  43.9347938 122.2673276 144.2811425  48.3148614
 122.8945315 143.8988502  48.9286139 121.4101195 144.0625627  48.6804307
 122.5733066 144.1643850  40.2294518 121.8519652 144.7779818  40.0901991
 123.3626322 144.7001615  40.1511164 125.3759379 141.4998277  46.5035169
 125.8993781 141.7460574  47.2661479 125.1571713 142.3318312  46.0838307
 126.5811925 142.4411972  44.1884840 126.2408745 141.6419785  44.5905520
 125.8750931 142.7413683  43.6161673 127.2328396 139.5261284  42.6412163
 128.0554466 139.0521763  42.5191053 127.4766460 140.3051768  43.1410849
 124.7566975 146.2180405  40.4504142 124.6111556 146.5320708  41.3428423
 124.2792179 146.8365305  39.8975040 126.6163358 143.2082953  40.4985031
 126.6024927 142.3124046  40.1617329 127.3335786 143.2153617  41.1323317
 128.4689489 143.6420293  42.5438159 128.2107267 144.5637364  42.5422489
 127.9374529 143.2450728  43.2338623 119.2312637 148.7585750  43.3891803
 118.6866105 149.5345557  43.5212077 120.1091987 149.1056554  43.2310924
 128.8891444 139.7752244  38.9039321 128.9113141 139.8391577  37.9491301
 129.3059503 138.9356752  39.0979827 120.0178659 147.8855646  46.2821960
 119.2760395 148.0338281  46.8686590 119.6971403 148.1463911  45.4188709
 125.5041333 143.6029331  49.9762534 125.5529489 144.4791454  49.5940303
 126.0463848 143.0606724  49.4034177 136.1094054 150.9962920  46.5696399
 136.1592059 150.8312928  47.5111922 136.0007978 150.1290179  46.1794280
 133.3997817 146.9793848  47.8855706 134.3007679 146.8400313  47.5939704
 133.4745791 147.1448303  48.8253884 127.7340622 144.3560703  46.7308893
 126.8643931 144.6494269  46.4591481 127.9700102 144.9401148  47.4516156
 130.4379656 140.5740320  44.2474313 130.9561600 141.3101347  43.9220801
 130.0834789 140.8804313  45.0821072 130.6892250 136.9940603  39.7675210
 130.9694004 136.3263792  40.3935636 131.4742857 137.1869698  39.2549873
 134.5601108 145.4158237  43.5146785 135.5118531 145.5156334  43.5359009
 134.3904559 144.6236505  44.0244869 132.5815488 142.5013820  43.7006186
 131.9865420 142.7818833  43.0052674 132.2965184 142.9907721  44.4722927
 128.7611209 151.5578155  50.1316945 129.6814219 151.7356754  50.3256992
 128.7260792 150.6134201  49.9796645 117.9793374 146.7516749  39.0570220
 117.6596159 145.8982057  38.7644594 117.4326803 146.9665327  39.8128187
 121.7573282 149.4679190  42.7739726 121.9759292 150.3996298  42.7927760
 122.1699056 149.1087164  43.5594530 126.6301147 145.0412396  52.1642475
 126.5297874 145.9906753  52.0954566 126.4122689 144.7130635  51.2918545
 117.8481634 150.3719661  41.0263342 117.1545106 149.9573613  40.5133296
 118.5954625 150.4140197  40.4296760 126.4932417 148.4709535  50.9807537
 126.0099499 149.2709895  51.1871426 126.5793356 148.4817480  50.0274981
 122.4205755 152.3614069  43.0175971 123.3749008 152.3298012  42.9505902
 122.2218278 151.9004693  43.8326197 123.0105137 150.9315185  45.5846768
 123.8298026 151.4259264  45.6081606 123.2841945 150.0147154  45.5564336
 118.2640051 145.2653319  46.2838966 118.9098915 144.7552273  46.7726191
 118.0557202 146.0022001  46.8582391 130.7893443 152.3334167  51.7831106
 131.6584603 152.5074819  51.4217741 130.3100195 153.1528584  51.6606835
 130.5995781 136.1236141  36.2908799 129.8328177 135.5694627  36.4365481
 131.0106486 136.1958009  37.1522950 122.6037542 142.4120936  50.3813980
 123.4669004 142.0557741  50.5917304 122.0302953 142.0734831  51.0689384
  53.0245374  19.5211854  33.8069418  53.0134015  19.1264652  32.9349921
  53.1866013  18.7877926  34.4003189  49.7452635  22.3048966  32.7548602
  49.4542501  23.2094596  32.6395268  50.3809619  22.3465493  33.4692671
  54.7042520  21.9910381  29.7498395  54.4043243  22.8935420  29.6414203
  54.3593579  21.7242564  30.6019548  52.1780530  15.9282567  35.3730730
  51.4013864  16.4876487  35.3633595  52.8171093  16.4139350  35.8945600
  50.4326902  18.7368020  34.9348697  51.1741586  19.2753064  34.6583521
  49.7263887  19.3634309  35.0920249  55.9082241  20.8797161  33.5320858
  56.3165598  20.4379571  32.7875491  55.1859503  20.3049788  33.7855051
  52.2613312  15.8169767  30.9054415  53.1074507  16.2409181  31.0489064
  52.2011949  15.1603392  31.5992978  56.2311056  21.4398351  27.2873147
  55.6019919  21.6044065  26.5849215  55.8436718  21.8539961  28.0584111
  60.1100288  22.3752789  24.6417511  59.4251326  22.7551690  24.0914544
  60.1944137  22.9848116  25.3749459  55.4112757  13.4774136  32.5635589
  55.1673689  14.2316196  32.0269865  55.6872687  13.8559483  33.3982836
  57.3651220  20.0212748  31.2412855  57.5768115  20.6644508  30.5647236
  57.3180968  19.1875065  30.7734785  49.1688266  15.8907668  35.7364007
  48.5386926  16.5723949  35.9699404  49.0624353  15.7790750  34.7917145
  58.4797048  22.8984704  29.4135212  59.3014491  22.4964891  29.1317894
  58.4759450  22.7952938  30.3651328  52.2453651  22.4468747  31.5695922
  52.3098084  22.9089154  32.4054094  51.5364575  21.8166112  31.6978232
  66.5703041  19.2423452  25.7620183  65.8166749  18.6730850  25.6064188
  66.7050582  19.2086117  26.7090818  48.4469008  10.1928434  38.0989258
  48.0535954   9.6394633  38.7736902  49.2635149  10.5039013  38.4895775
  51.3636969  11.6086313  35.6909515  52.1046683  12.2093466  35.6113977
  51.5954892  10.8663951  35.1327557  46.5078307  16.7942681  33.9687744
  46.3931822  15.8927938  34.2694843  45.6522825  17.0406377  33.6172561
  53.5870145  24.7360421  35.5675245  53.1433999  23.9496799  35.2496149
  54.2487359  24.9239571  34.9019136  48.3457266  26.2656222  30.0935923
  48.8964691  26.1373286  29.3212917  47.5068742  26.5651111  29.7430816
  55.6851383  25.0163221  33.5956646  55.6669858  25.8372102  33.1036915
  56.6071303  24.8917296  33.8206787  52.1424437  22.5307350  34.4380154
  52.6752774  21.7695638  34.2079462  51.6138518  22.2381002  35.1804309
  58.4869996  19.8542363  27.0666013  57.8293670  20.5441625  27.1546141
  59.2910395  20.2438795  27.4099999  56.5070190  25.0269234  24.1798915
  56.7993165  25.5874291  23.4611281  57.0168811  25.3197795  24.9352074
  54.9169449  16.2733653  32.1672998  55.2718837  16.5005126  33.0267463
  55.5641580  16.6052030  31.5450253  60.6736566  21.4628616  27.8833598
  61.1073072  21.3703905  28.7316652  61.3868147  21.4386116  27.2453614
  54.4064461  25.0630710  29.4166699  54.4601483  25.6321646  30.1844415
  53.5379242  25.2332595  29.0520736  61.5352115  21.5052316  30.4166484
  61.7288005  22.4098127  30.6625759  61.4352734  21.0459735  31.2505069
  53.1888426  11.3910207  32.9156811  52.5416341  12.0900157  32.8221287
  53.9589442  11.8246351  33.2833059  56.5967224  21.6559059  35.9907364
  56.4452730  21.4269611  35.0737448  56.5871904  22.6129660  36.0038709
  53.3652560  19.2290972  30.9753631  54.2944620  19.3802131  30.8022598
  52.9443590  19.3174993  30.1202277  52.1640892  23.2541636  28.7452168
  52.0251978  22.8860421  29.6178106  51.3755488  23.7689276  28.5736126
  47.6890351  18.0390869  31.6593587  47.5510149  17.3071108  32.2605126
  48.5995275  17.9499769  31.3777775  50.3172652  17.7510828  31.1477267
  51.0272271  17.1104020  31.1063885  50.2741960  18.0023723  32.0703448
  58.3059431  24.6878182  34.0683846  58.2471977  24.0037402  33.4014429
  58.7078949  25.4297172  33.6164472  47.3250129  31.5040095  26.8617565
  47.5646728  32.1358620  27.5396584  46.4819326  31.1528135  27.1482924
  58.3076838  22.6517766  32.2997826  57.4203617  22.3143687  32.4224225
  58.8775389  21.9200797  32.5366591  51.8377991  27.3119218  29.2659069
  51.7648163  28.1174189  29.7778374  51.3955384  27.5111184  28.4407090
  62.7894179  18.0625983  27.0614387  62.7784055  18.9450698  26.6908321
  61.9211558  17.7097534  26.8668924  54.2976675  27.2106052  31.4217228
  55.0104647  27.8453517  31.3493129  53.8066704  27.3069918  30.6057229
  49.3488588  24.9600495  32.2422798  50.0498048  25.5936978  32.3952193
  48.8783703  25.3015227  31.4818438  57.1489874  17.5145103  30.0675349
  56.4961325  17.7621010  29.4127802  57.5270254  16.7009241  29.7337826
  54.1097048  27.5504796  24.1703519  54.2919443  26.7326452  24.6331271
  54.9330034  27.7672488  23.7328409  53.1977447  18.2564914  36.5541386
  52.5218084  18.1559043  37.2243761  54.0205081  18.1004128  37.0177383
  44.9456306  24.4936850  29.1753901  45.5309743  23.7480538  29.3081805
  44.7481145  24.8040807  30.0590565  51.9400230  29.5631841  30.7899002
  52.4918538  29.7263463  31.5548087  52.2806424  30.1536279  30.1179027
  46.3916996  13.9830124  35.0393921  47.0189035  13.6007201  35.6531445
  45.5344915  13.7644326  35.4049613  56.7911105  24.3893099  36.6447656
  57.3351009  25.0023057  36.1502611  56.2097949  24.9472677  37.1614669
  55.0768618  27.5113817  27.7762684  54.9519757  26.7103557  27.2673630
  55.7347709  28.0060010  27.2876654  57.1403526  25.3122837  29.4042234
  56.1933861  25.1928188  29.3320561  57.4886299  24.4245335  29.4868496
  54.1449959  25.1075553  25.6046586  53.9974922  24.1792261  25.7854156
  54.9703453  25.1295644  25.1203662  57.7484081  25.9304112  26.6911459
  58.6730629  25.7246973  26.5535910  57.5799384  25.6820513  27.6000801
  52.0866042  27.1290323  32.8047656  52.3953168  26.8839470  33.6770356
  52.8841524  27.3336961  32.3166527  52.1086654  29.2828233  25.0353033
  51.6691644  28.7904611  25.7285890  52.8594771  28.7401200  24.7945108
  49.6285053  13.3048030  36.7007841  49.6773209  14.1810152  36.3185610
  50.1707568  12.7625423  36.1279484  60.1139899  23.8489153  35.9808978
  59.3235443  23.8313292  35.4413477  59.8773254  24.3877447  36.7358014
  60.2337774  20.6981619  33.2941706  60.2835779  20.5331627  34.2357229
  60.1251697  19.8308878  32.9039587  57.5241536  16.6812547  34.6101013
  58.4251399  16.5419012  34.3185011  57.5989511  16.8467002  35.5499190
  51.8584342  14.0579402  33.4554199  50.9887651  14.3512968  33.1836788
  52.0943822  14.6419847  34.1761463  61.7355971  23.1178561  33.5383728
  61.4440779  23.4808541  34.3747189  61.1228102  22.4045569  33.3597060
  62.9351653  20.6831441  26.0586298  63.7698545  21.1221245  26.2223858
  63.0710782  20.2070094  25.2394544  59.9843159  18.2411175  32.0063786
  60.4597281  18.4338822  31.1982637  59.0608724  18.2970361  31.7607169
  58.6844828  15.1176935  30.2392091  59.6362251  15.2175033  30.2604315
  58.5148279  14.3255204  30.7490176  61.1632906  18.3383055  29.3534391
  61.1309226  17.3999056  29.5394075  61.7733530  18.4167092  28.6200216
  61.3127394  15.1294099  29.3992674  60.7966443  14.3452555  29.2122603
  62.1967343  14.8012815  29.5639194  66.9809456  19.3999062  28.4940428
  67.7112844  19.1384350  29.0548131  66.3716401  18.6627784  28.5342496
  65.0624753  17.5406925  29.0914879  64.3357916  17.4062890  28.4831371
  64.6472040  17.8483753  29.8971597  52.8854929  21.2596854  36.8562252
  53.8057939  21.4375453  37.0502298  52.8504512  20.3152900  36.7041951
  50.7544867  14.7431095  38.8887782  50.6541594  15.6925452  38.8199873
  50.5366409  14.4149334  38.0163852  50.6176137  18.1728234  37.7052844
  50.1343219  18.9728594  37.9116733  50.7037076  18.1836178  36.7520288
  46.5449475  22.0632768  29.7421277  47.4992728  22.0316711  29.6751209
  46.3461998  21.6023392  30.5571503  47.1348857  20.6333884  32.3092075
  47.9541746  21.1277963  32.3326912  47.4085665  19.7165852  32.2809643
  48.0568829  28.5021705  26.9709918  47.9401213  29.4467137  26.8688608
  47.2361276  28.1995266  27.3595717  54.9137163  22.0352866  38.5076413
  55.7828323  22.2093518  38.1463048  54.4343915  22.8547282  38.3852142
  49.0823343  29.1549967  30.1865846  49.9850590  29.1873577  30.5032341
  48.8560714  28.2250418  30.2012182  50.8376945  27.9080953  26.8475925
  49.8872576  27.9082815  26.7340297  51.1409432  27.1613688  26.3311960
  46.7281262  12.1139635  37.1059286  47.5912724  11.7576440  37.3162611
  46.1546673  11.7753530  37.7934691  66.5729639  33.7441492  27.9121687
  67.2108049  33.6248239  27.2085027  66.4550482  34.6922336  27.9709640
  63.3819345  33.6968920  27.8483212  63.0437857  33.5809984  26.9603747
  64.2509113  33.2960085  27.8284218  59.2406161  35.5504396  23.8380103
  58.6771026  35.4594333  23.0696391  59.1258556  34.7304301  24.3182596
  63.8639128  34.8503771  33.8069418  63.8527769  34.4556570  32.9349921
  64.0259768  34.1169844  34.4003189  56.7870593  37.0455588  26.6764324
  57.5791885  36.7046412  26.2610623  57.0267243  37.1550563  27.5966477
  64.8205720  39.2175364  19.1494568  64.1693699  39.8029444  18.7628582
  65.6150082  39.7481559  19.2089605  58.7461347  36.3064501  19.5481702
  59.5192223  35.7593488  19.4094578  59.0986746  37.1708750  19.7596164
  60.5846389  37.6340883  32.7548602  60.2936255  38.5386514  32.6395268
  61.2203374  37.6757411  33.4692671  61.5102596  35.0117732  29.3449961
  62.1066168  34.7873754  28.6306924  61.5677568  34.2702477  29.9475409
  66.1270907  31.4692945  24.9874895  66.9133997  31.0512369  24.6365312
  66.3909612  32.3739038  25.1556544  66.2980985  36.9065796  19.6863552
  65.6626818  36.9800422  20.3984457  65.9678391  37.4959395  19.0082632
  71.5279335  31.4068179  25.8907874  72.2604507  30.8367395  26.1245703
  70.7718690  31.0189779  26.3314380  60.8023913  34.3685273  19.3824527
  60.6860171  33.6930176  20.0505612  60.9126173  33.8817647  18.5656680
  63.1455454  33.8295420  23.0871216  62.7813662  33.3026041  23.7984138
  64.0022570  33.4393889  22.9137702  69.0504755  25.1189753  30.3502483
  68.7188080  25.9885164  30.1263698  68.4550368  24.8026037  31.0296513
  65.5436274  37.3202299  29.7498395  65.2436998  38.2227338  29.6414203
  65.1987334  37.0534482  30.6019548  58.9948756  33.7716096  25.7835100
  58.0699252  33.6392310  25.9912792  59.2433169  34.5510315  26.2805042
  68.9433418  29.8384839  27.4295833  68.0350296  29.7700247  27.1354594
  68.8921014  30.3156784  28.2577658  62.7650162  31.3142977  19.0679232
  62.6449787  31.7600028  19.9064712  62.0702751  31.6628295  18.5092770
  56.3557567  33.4149369  26.6178889  56.4849948  33.6683848  27.5318301
  55.6755018  34.0077077  26.2983544  60.5257054  44.0846619  22.7169363
  60.4481084  45.0354444  22.7957844  59.9218698  43.7392492  23.3744289
  63.0174284  31.2574485  35.3730730  62.2407618  31.8168405  35.3633595
  63.6564847  31.7431267  35.8945600  70.8095065  28.0401277  29.2073707
  70.1669445  28.3333810  28.5613501  70.3049993  27.9254198  30.0126903
  68.4635228  31.7864451  19.8959566  69.3753084  32.0191837  19.7207263
  67.9544875  32.3701495  19.3334644  61.2720656  34.0659938  34.9348697
  62.0135341  34.6044982  34.6583521  60.5657642  34.6926227  35.0920249
  66.7475996  36.2089078  33.5320858  67.1559352  35.7671489  32.7875491
  66.0253257  35.6341706  33.7855051  63.1007066  31.1461685  30.9054415
  63.9468261  31.5701099  31.0489064  63.0405704  30.4895309  31.5992978
  67.0704811  36.7690269  27.2873147  66.4413673  36.9335983  26.5849215
  66.6830473  37.1831879  28.0584111  70.9494043  37.7044707  24.6417511
  70.2645081  38.0843608  24.0914544  71.0337892  38.3140033  25.3749459
  66.2506511  28.8066053  32.5635589  66.0067443  29.5608114  32.0269865
  66.5266442  29.1851401  33.3982836  68.2044974  35.3504666  31.2412855
  68.4161869  35.9936426  30.5647236  68.1574722  34.5166982  30.7734785
  65.8071203  27.9622486  28.1449427  64.9455682  28.2603740  28.4366164
  65.8333638  28.1792885  27.2130459  62.6232773  36.5064677  24.5523232
  63.0871118  36.7852380  23.7627855  62.3589571  35.6048122  24.3696323
  59.5156854  36.0536159  27.4902996  60.0858211  36.4823427  26.8520480
  60.1064965  35.7718743  28.1887181  61.5601659  32.6287829  21.3612798
  62.2625702  33.0808873  21.8286724  61.2282287  31.9871648  21.9892691
  60.0082020  31.2199586  35.7364007  59.3780681  31.9015867  35.9699404
  59.9018108  31.1082668  34.7917145  55.3026993  30.8871382  26.6629931
  54.5126047  31.1428911  26.1870042  55.7938240  31.7019720  26.7681972
  69.3190802  38.2276621  29.4135212  70.1408246  37.8256809  29.1317894
  69.3153205  38.1244855  30.3651328  57.2541738  31.2515961  23.6213408
  56.4572901  31.3634656  24.1396903  57.0267330  31.5902614  22.7554298
  63.0847406  37.7760665  31.5695922  63.1491838  38.2381072  32.4054094
  62.3758329  37.1458029  31.6978232  53.5864696  31.1401873  29.0944922
  53.8372734  32.0248882  29.3602498  54.1224244  30.9606474  28.3220014
  77.4096795  34.5715370  25.7620183  76.6560504  34.0022768  25.6064188
  77.5444336  34.5378034  26.7090818  62.7995423  39.4428772  21.4374903
  62.6641098  40.2880308  21.8659751  63.3405236  39.6448050  20.6740837
  59.2862763  25.5220352  38.0989258  58.8929708  24.9686550  38.7736902
  60.1028903  25.8330930  38.4895775  56.2524821  36.9604210  22.0102828
  56.7649341  37.7547460  22.1608393  56.9047533  36.2630501  21.9436429
  58.0619705  40.0769966  24.0925581  58.2386334  40.9987931  23.9046565
  58.8576539  39.7628386  24.5219961  62.2030724  26.9378231  35.6909515
  62.9440437  27.5385384  35.6113977  62.4348647  26.1955869  35.1327557
  57.3472062  32.1234598  33.9687744  57.2325577  31.2219855  34.2694843
  56.4916580  32.3698295  33.6172561  64.4263900  40.0652339  35.5675245
  63.9827754  39.2788717  35.2496149  65.0881113  40.2531489  34.9019136
  59.1851021  41.5948140  30.0935923  59.7358446  41.4665204  29.3212917
  58.3462497  41.8943029  29.7430816  66.5245138  40.3455138  33.5956646
  66.5063613  41.1664020  33.1036915  67.4465058  40.2209214  33.8206787
  62.9818192  37.8599268  34.4380154  63.5146529  37.0987556  34.2079462
  62.4532273  37.5672920  35.1804309  66.1487887  22.9659334  29.9673796
  65.8052156  23.8560976  29.8912907  66.5166849  22.7760992  29.1043381
  54.2173737  35.2892864  22.7862398  55.0548959  35.6989873  22.5696106
  54.3952005  34.3492307  22.7562592  66.1138169  32.9567945  18.4746231
  65.5984793  33.7272550  18.7134619  65.8415478  32.2833081  19.0979293
  63.6985281  27.8017646  23.5331470  62.8426877  27.4124496  23.3537108
  64.1112232  27.8809607  22.6731255  65.2284427  25.3363989  27.9323029
  64.7249223  25.2994124  27.1190835  65.5215034  26.2456732  27.9919686
  61.4727313  25.4202719  26.9389211  62.3380310  25.2245527  26.5795101
  61.5404822  25.1913071  27.8658568  71.0872444  35.7100300  20.4099405
  70.3101886  35.3711459  19.9654567  71.7663925  35.7152923  19.7354370
  65.9024473  30.8295037  20.3006012  65.5974608  31.1441186  21.1516156
  66.8554915  30.9076457  20.3433345  64.3470904  36.9885260  21.9498966
  63.8192266  36.2538020  21.6372204  63.8458407  37.7659937  21.7038935
  69.3263751  35.1834281  27.0666013  68.6687425  35.8733542  27.1546141
  70.1304150  35.5730713  27.4099999  59.0789632  27.6504927  24.3105578
  59.6533384  27.4280108  23.5778771  59.6660615  27.7193621  25.0634179
  68.1369209  33.5378654  25.1169955  68.6501091  34.1708645  25.6191664
  68.7870433  32.9379849  24.7513315  61.3812300  24.5246176  23.0380647
  60.7276712  24.2095193  22.4137262  61.3392774  23.9021916  23.7640470
  65.3991584  43.5162978  17.8730626  64.7253282  43.8194675  18.4815583
  65.7857406  44.3192058  17.5236083  64.6150040  31.0128109  27.3628295
  63.6972602  31.2343056  27.2049983  65.0310184  31.0874420  26.5040002
  65.3985088  32.4119525  22.4930975  66.1456907  32.9240922  22.1838097
  65.6676677  32.0903578  23.3535369  63.6711738  34.9078066  19.4757930
  62.7622957  34.6237098  19.5730399  63.7006822  35.3277144  18.6161236
  68.9031006  38.5184655  23.2449097  68.4493333  37.6775565  23.3014288
  68.2724972  39.1546053  23.5823877  67.8463925  29.4476641  24.4749765
  67.1086682  28.9354027  24.8060007  68.0990699  29.0077023  23.6633041
  67.3463945  40.3561152  24.1798915  67.6386919  40.9166209  23.4611281
  67.8562565  40.6489713  24.9352074  67.9475552  22.2252893  25.0691534
  68.2534429  21.3650257  24.7817449  68.6728157  22.8170513  24.8690528
  54.2399908  32.6283580  23.4573132  54.0424308  32.0352940  22.7324198
  53.6846572  32.3235790  24.1749071  62.2196632  32.5206686  25.5767725
  62.2745242  31.5680523  25.5010202  61.4087834  32.6766125  26.0609023
  63.3687826  36.4486809  16.8146008  62.9307256  35.7322668  16.3551646
  64.1098267  36.6762924  16.2531100  60.1588992  31.1383746  23.3358104
  59.3456858  31.4377916  23.7423296  60.6547986  30.7439435  24.0532586
  62.3097570  41.1341503  25.2692368  62.2673749  41.3602349  24.3400901
  63.2260269  40.9004877  25.4178170  65.7563204  31.6025570  32.1672998
  66.1112591  31.8297044  33.0267463  66.4035335  31.9343947  31.5450253
  71.4860941  34.7244006  22.8722327  71.3478839  34.9145602  21.9443516
  71.1297160  35.4863389  23.3290378  59.6503067  28.7102101  28.9519339
  60.2902446  28.5690861  28.2542302  58.8180597  28.4236615  28.5757941
  71.5130320  36.7920533  27.8833598  71.9466827  36.6995822  28.7316652
  72.2261901  36.7678034  27.2453614  60.4263371  38.0104532  25.0654331
  61.2203969  37.5154852  24.8636906  59.7155063  37.4822395  24.7022037
  65.2458215  40.3922627  29.4166699  65.2995237  40.9613564  30.1844415
  64.3772997  40.5624512  29.0520736  56.7346134  32.1547614  21.1414084
  55.8043722  32.0932069  21.3584046  56.8303606  31.6323566  20.3450725
  56.6531683  28.6802426  23.7292326  56.9138501  29.5947760  23.6201486
  57.4748856  28.2126869  23.8788938  58.1256609  30.0940184  30.8991150
  58.7979662  29.8857546  30.2503799  57.2986395  29.8962270  30.4596382
  72.3745870  36.8344234  30.4166484  72.5681760  37.7390044  30.6625759
  72.2746488  36.3751653  31.2505069  64.0282181  26.7202125  32.9156811
  63.3810096  27.4192074  32.8221287  64.7983196  27.1538268  33.2833059
  67.4360979  36.9850977  35.9907364  67.2846485  36.7561528  35.0737448
  67.4265658  37.9421578  36.0038709  64.2046315  34.5582889  30.9753631
  65.1338375  34.7094049  30.8022598  63.7837345  34.6466910  30.1202277
  63.0034647  38.5833554  28.7452168  62.8645732  38.2152338  29.6178106
  62.2149243  39.0981193  28.5736126  63.5982799  43.6842650  20.0877705
  63.7734554  43.2130694  20.9023328  62.9115587  44.3108417  20.3158966
  64.5539862  37.9615157  26.1341006  64.2189694  37.9215927  27.0298656
  64.0543808  37.2959872  25.6611416  58.5284106  33.3682787  31.6593587
  58.3903904  32.6363025  32.2605126  59.4389029  33.2791687  31.3777775
  67.4899054  35.3071191  16.4078066  66.8728224  34.5818019  16.3111118
  67.0215542  36.0680551  16.0645140  61.1566407  33.0802746  31.1477267
  61.8666025  32.4395938  31.1063885  61.1135715  33.3315641  32.0703448
  69.1453185  40.0170099  34.0683846  69.0865731  39.3329319  33.4014429
  69.5472704  40.7589089  33.6164472  59.8695340  30.0667964  32.9672906
  59.3332698  29.6158702  33.6194503  59.2812049  30.2013873  32.2243371
  58.1643884  46.8332013  26.8617565  58.4040482  47.4650537  27.5396584
  57.3213080  46.4820053  27.1482924  69.1470592  37.9809683  32.2997826
  68.2597371  37.6435605  32.4224225  69.7169144  37.2492714  32.5366591
  50.7999740  34.3133775  25.6240877  51.4870779  33.9995505  25.0361892
  50.6447868  35.2175140  25.3508129  55.6034462  29.2023971  30.0525901
  55.5192650  28.5949641  29.3176311  54.7817168  29.6932990  30.0535397
  62.6771746  42.6411136  29.2659069  62.6041917  43.4466107  29.7778374
  62.2349139  42.8403101  28.4407090  62.4661525  41.8782906  22.7761891
  61.6829047  42.4204586  22.8700115  63.1654271  42.3956885  23.1756132
  65.7758176  27.6877535  25.4196096  66.2726875  26.9347497  25.0997166
  65.0045157  27.7241852  24.8539305  73.6287933  33.3917901  27.0614387
  73.6177809  34.2742616  26.6908321  72.7605312  33.0389451  26.8668924
  65.1370429  42.5397970  31.4217228  65.8498402  43.1745434  31.3493129
  64.6460458  42.6361836  30.6057229  66.8587956  36.4449222  22.9934519
  65.9244235  36.5650685  22.8239224  67.0364625  35.5421689  22.7294529
  62.3593144  29.8294918  25.1467781  61.9890932  29.2765958  25.8348686
  62.8552237  29.2253051  24.5942781  70.2460508  32.2866542  23.5284553
  70.7120960  33.1194533  23.4544856  70.6968008  31.8211523  24.2329812
  60.1882343  40.2892413  32.2422798  60.8891802  40.9228896  32.3952193
  59.7177458  40.6307145  31.4818438  68.3136739  38.6310363  20.5270706
  68.5896583  38.5166957  21.4364580  67.4441237  38.2327848  20.4882879
  68.2177170  24.6547129  27.5675455  67.3040250  24.8851355  27.7357662
  68.6470272  24.7385573  28.4189487  67.9883629  32.8437020  30.0675349
  67.3355079  33.0912928  29.4127802  68.3664009  32.0301159  29.7337826
  64.9490803  42.8796714  24.1703519  65.1313197  42.0618370  24.6331271
  65.7723789  43.0964406  23.7328409  65.2832968  41.8064899  21.4318568
  65.8120735  41.2957353  20.8188730  65.5461188  41.4907429  22.2964101
  64.0371202  33.5856832  36.5541386  63.3611839  33.4850961  37.2243761
  64.8598836  33.4296045  37.0177383  55.7850061  39.8228768  29.1753901
  56.3703498  39.0772456  29.3081805  55.5874899  40.1332725  30.0590565
  58.6388716  42.8580015  24.1916344  57.9699091  43.3426143  23.7080384
  58.5001586  43.1049236  25.1059722  50.3767716  32.3934368  27.8958344
  50.4151815  31.8597959  28.6895462  49.8708009  31.8669574  27.2769321
  62.7793985  44.8923759  30.7899002  63.3312293  45.0555380  31.5548087
  63.1200178  45.4828197  30.1179027  57.7558478  27.2398909  31.3920887
  57.8199804  28.1013740  30.9798284  57.6925598  26.6272910  30.6593245
  57.2310751  29.3122041  35.0393921  57.8582789  28.9299119  35.6531445
  56.3738669  29.0936243  35.4049613  67.6304859  39.7185016  36.6447656
  68.1744763  40.3314975  36.1502611  67.0491704  40.2764595  37.1614669
  65.9162372  42.8405735  27.7762684  65.7913512  42.0395474  27.2673630
  66.5741463  43.3351928  27.2876654  57.5370540  29.1954467  26.9539824
  56.8157126  29.8090435  26.8147298  58.3263796  29.7312232  26.8756470
  67.9797280  40.6414755  29.4042234  67.0327616  40.5220106  29.3320561
  68.3280054  39.7537253  29.4868496  60.3396854  26.5308894  33.2280476
  60.8631256  26.7771190  33.9906785  60.1209187  27.3628928  32.8083613
  64.9843714  40.4367471  25.6046586  64.8368676  39.5084178  25.7854156
  65.8097207  40.4587562  25.1203662  58.8505958  29.0885538  21.4627079
  59.1902031  29.6171459  20.7405687  59.2978078  29.4265944  22.2385645
  68.5877836  41.2596030  26.6911459  69.5124383  41.0538891  26.5535910
  68.4193139  41.0112431  27.6000801  61.5449399  27.4722589  30.9130147
  61.2046219  26.6730402  31.3150826  60.8388405  27.7724299  30.3406980
  62.1965871  24.5571901  29.3657470  63.0191940  24.0832379  29.2436360
  62.4403934  25.3362385  29.8656156  64.9805228  28.2905308  20.5978704
  65.1968842  29.1729946  20.2967532  64.4999295  27.8991522  19.8684346
  59.7204449  31.2491022  27.1749448  59.5749030  31.5631325  28.0673730
  59.2429653  31.8675922  26.6220347  61.5800832  28.2393570  27.2230338
  61.5662401  27.3434663  26.8862636  62.2973260  28.2464233  27.8568624
  63.4326963  28.6730910  29.2683465  63.1744741  29.5947981  29.2667796
  62.9012003  28.2761344  29.9583929  68.3773152  41.7781697  22.0473551
  68.5510029  41.2128119  21.2947403  68.8702043  42.5782592  21.8653041
  54.1950112  33.7896366  30.1137109  53.6503580  34.5656174  30.2457384
  55.0729461  34.1367171  29.9556231  60.9837728  27.1207950  22.4917908
  61.1053639  26.1924596  22.6908795  60.6939771  27.1346636  21.5796223
  63.8528919  24.8062860  25.6284628  63.8750615  24.8702193  24.6736607
  64.2696978  23.9667369  25.8225134  74.2312543  34.5418120  23.6663850
  74.6743689  33.7925445  23.2682974  73.3539053  34.5328256  23.2837582
  69.3648324  41.0948461  19.1470449  70.0599229  41.7155154  19.3657764
  69.7071474  40.2443813  19.4222827  54.9816133  32.9166262  33.0067266
  54.2397869  33.0648898  33.5931897  54.6608878  33.1774528  32.1434016
  71.2639747  38.5448167  20.6757780  71.7891071  38.8835440  19.9507100
  71.1762100  37.6095182  20.4920914  62.9259796  42.4582241  32.8047656
  63.2346923  42.2131387  33.6770356  63.7235278  42.6628879  32.3166527
  62.9480408  44.6120150  25.0353033  62.5085398  44.1196529  25.7285890
  63.6988525  44.0693118  24.7945108  55.4272747  40.8031691  25.0377661
  56.2530767  40.5035463  24.6576304  55.0766799  40.0339313  25.4867450
  60.3954280  40.1558159  27.1075335  59.7734290  39.4928864  26.8077562
  61.0659147  40.1819291  26.4248982  53.6281352  38.7218018  25.9966594
  52.7913260  38.2940192  25.8150596  53.6004998  38.9150461  26.9337386
  60.4678808  28.6339947  36.7007841  60.5166963  29.5102070  36.3185610
  61.0101322  28.0917340  36.1279484  70.9533653  39.1781071  35.9808978
  70.1629197  39.1605209  35.4413477  70.7167008  39.7169364  36.7358014
  71.0731529  36.0273537  33.2941706  71.1229533  35.8623544  34.2357229
  70.9645452  35.1600796  32.9039587  59.9567787  38.7062083  20.5833795
  60.1055908  39.3897547  19.9300468  60.7634231  38.6867173  21.0983251
  68.3635291  32.0104465  34.6101013  69.2645154  31.8710930  34.3185011
  68.4383265  32.1758920  35.5499190  62.6978096  29.3871320  33.4554199
  61.8281406  29.6804886  33.1836788  62.9337577  29.9711765  34.1761463
  72.5749725  38.4470478  33.5383728  72.2834534  38.8100459  34.3747189
  71.9621857  37.7337487  33.3597060  73.7745408  36.0123358  26.0586298
  74.6092299  36.4513162  26.2223858  73.9104536  35.5362011  25.2394544
  70.8236914  33.5703093  32.0063786  71.2991035  33.7630739  31.1982637
  69.9002479  33.6262279  31.7607169  57.7120420  34.7327260  21.5894864
  57.4666462  33.8289590  21.7875074  57.8816335  34.7344411  20.6474342
  65.4017130  25.6050937  30.9719620  65.9199074  26.3411964  30.6466108
  65.0472263  25.9114930  31.8066379  65.6529724  22.0251219  26.4920516
  65.9331478  21.3574408  27.1180943  66.4380331  22.2180315  25.9795180
  63.4563193  41.2010213  18.0545542  62.8837160  41.8200400  17.6016014
  64.0295986  41.7509575  18.5885464  69.5238583  30.4468853  30.2392091
  70.4756005  30.5466951  30.2604315  69.3542033  29.6547122  30.7490176
  67.5452962  27.5324436  30.4251492  66.9502894  27.8129449  29.7297981
  67.2602659  28.0218337  31.1968233  66.6760453  41.4847363  19.1854125
  67.6091126  41.4192925  19.3887000  66.5883665  42.3203630  18.7268657
  69.3048469  40.8013234  16.1458072  69.2262101  40.4673097  17.0393830
  70.1258136  41.2935001  16.1449545  72.0026660  33.6674973  29.3534391
  71.9702980  32.7290974  29.5394075  72.6127284  33.7459010  28.6200216
  72.1521149  30.4586016  29.3992674  71.6360197  29.6744473  29.2122603
  73.0361097  30.1304733  29.5639194  69.8131876  24.2027032  25.3588487
  69.6156697  23.8942120  26.2431819  70.4231581  24.9288671  25.4886417
  77.8203210  34.7290980  28.4940428  78.5506599  34.4676268  29.0548131
  77.2110156  33.9919702  28.5342496  75.9018507  32.8698842  29.0914879
  75.1751671  32.7354807  28.4831371  75.4865794  33.1775671  29.8971597
  63.7248684  36.5888772  36.8562252  64.6451693  36.7667371  37.0502298
  63.6898267  35.6444817  36.7041951  52.9430849  31.7827366  25.7815527
  52.6233633  30.9292674  25.4889901  52.3964277  31.9975944  26.5373494
  56.7210756  34.4989807  29.4985033  56.9396766  35.4306914  29.5173067
  57.1336530  34.1397781  30.2839837  63.6414974  25.0057892  21.4860721
  62.8315702  24.6604977  21.8615968  64.3299391  24.6965436  22.0748333
  65.5705522  24.0835939  23.1085018  66.1236561  24.5031392  23.7675041
  65.8075609  23.1571687  23.1507974  61.5938622  30.0723012  38.8887782
  61.4935349  31.0217369  38.8199873  61.3760164  29.7441251  38.0163852
  52.8119109  35.4030277  27.7508648  52.1182580  34.9884230  27.2378603
  53.5592100  35.4450814  27.1542067  68.9484329  26.1936464  22.6163682
  68.3682999  26.8521268  22.2341735  68.6820262  25.3713808  22.2051100
  67.3987896  25.5941522  24.8185003  67.8987674  25.7058056  24.0099322
  68.0423504  25.2902574  25.4585811  61.4569892  33.5020151  37.7052844
  60.9736973  34.3020511  37.9116733  61.5430831  33.5128096  36.7520288
  54.7255851  35.3348531  25.6274663  54.7026539  35.4336218  24.6756546
  55.0356488  36.1813682  25.9491829  57.3843229  37.3924686  29.7421277
  58.3386483  37.3608628  29.6751209  57.1855753  36.9315310  30.5571503
  57.9742611  35.9625802  32.3092075  58.7935500  36.4569881  32.3326912
  58.2479419  35.0457770  32.2809643  67.7309208  28.3536554  21.6720031
  66.8435063  28.6386205  21.4540225  68.1463197  28.1930318  20.8247308
  71.0823744  28.3783075  25.3874370  71.8584134  28.8679528  25.6598987
  70.3571878  28.8041129  25.8446239  73.5196302  29.0910694  26.4448311
  74.1140793  28.8506430  25.7341619  73.5922886  28.3717825  27.0721847
  55.7393458  42.9344305  26.7591475  55.6047926  42.1744706  26.1929473
  55.3225520  43.6585205  26.2920264  66.8752421  38.1181229  15.7668051
  67.5788271  38.3231231  16.3825706  66.1515070  38.6857991  16.0317134
  67.7050231  33.8691090  21.8870321  67.6485433  34.3259642  21.0477953
  68.2578574  33.1081775  21.7093164  71.5155037  29.6580822  22.7120440
  71.2591971  29.2577458  23.5428648  70.8907905  30.3724616  22.5870579
  75.8267375  32.3976895  25.2191732  75.2666933  32.4670085  25.9923294
  75.2210878  32.2217880  24.4991228  58.8962584  43.8313622  26.9709918
  58.7794968  44.7759055  26.8688608  58.0755030  43.5287184  27.3595717
  68.7839118  38.5563758  17.8166511  69.6184722  38.1244957  17.6343985
  68.6223461  38.3845772  18.7443405  68.4385011  35.0595871  19.1822850
  68.3833814  34.8940143  18.2411294  67.8131066  35.7671904  19.3385040
  53.2277526  30.2963936  33.0084272  53.8736389  29.7862890  33.4971497
  53.0194677  31.0332617  33.5827697  65.7530918  37.3644783  38.5076413
  66.6222077  37.5385436  38.1463048  65.2737669  38.1839200  38.3852142
  59.9217098  44.4841884  30.1865846  60.8244345  44.5165495  30.5032341
  59.6954468  43.5542335  30.2012182  61.6770700  43.2372871  26.8475925
  60.7266331  43.2374732  26.7340297  61.9803186  42.4905605  26.3311960
  65.5633255  21.1546757  23.0154105  64.7965651  20.6005244  23.1610788
  65.9743960  21.2268626  23.8768257  57.5675017  27.4431553  37.1059286
  58.4306478  27.0868358  37.3162611  56.9940427  27.1045448  37.7934691
  77.4123393  49.0733409  27.9121687  78.0501803  48.9540157  27.2085027
  77.2944236  50.0214253  27.9709640  74.2213100  49.0260837  27.8483212
  73.8831611  48.9101902  26.9603747  75.0902868  48.6252002  27.8284218
  70.0799915  50.8796314  23.8380103  69.5164781  50.7886251  23.0696391
  69.9652310  50.0596218  24.3182596  74.7032883  50.1795689  33.8069418
  74.6921524  49.7848487  32.9349921  74.8653522  49.4461762  34.4003189
  67.6264347  52.3747505  26.6764324  68.4185639  52.0338330  26.2610623
  67.8660998  52.4842480  27.5966477  75.6599474  54.5467281  19.1494568
  75.0087454  55.1321362  18.7628582  76.4543837  55.0773476  19.2089605
  69.5855101  51.6356419  19.5481702  70.3585977  51.0885406  19.4094578
  69.9380500  52.5000668  19.7596164  71.4240144  52.9632801  32.7548602
  71.1330010  53.8678432  32.6395268  72.0597128  53.0049329  33.4692671
  72.3496351  50.3409649  29.3449961  72.9459923  50.1165672  28.6306924
  72.4071322  49.5994395  29.9475409  71.9221379  47.7949085  17.1800152
  72.1746900  47.2730606  16.4183615  70.9845938  47.6315230  17.2826836
  76.9664662  46.7984863  24.9874895  77.7527751  46.3804286  24.6365312
  77.2303366  47.7030955  25.1556544  77.1374739  52.2357713  19.6863552
  76.5020572  52.3092340  20.3984457  76.8072146  52.8251312  19.0082632
  82.3673089  46.7360096  25.8907874  83.0998261  46.1659313  26.1245703
  81.6112445  46.3481697  26.3314380  71.6417668  49.6977191  19.3824527
  71.5253926  49.0222094  20.0505612  71.7519928  49.2109565  18.5656680
  73.9849209  49.1587338  23.0871216  73.6207416  48.6317959  23.7984138
  74.8416325  48.7685807  22.9137702  79.8898509  40.4481670  30.3502483
  79.5581834  41.3177081  30.1263698  79.2944123  40.1317954  31.0296513
  73.6254696  44.1877238  18.0832565  73.7929098  45.0557474  18.4503036
  73.4351865  44.3504519  17.1593854  76.3830029  52.6494216  29.7498395
  76.0830752  53.5519255  29.6414203  76.0381088  52.3826400  30.6019548
  69.8342510  49.1008013  25.7835100  68.9093007  48.9684227  25.9912792
  70.0826924  49.8802232  26.2805042  79.7827173  45.1676757  27.4295833
  78.8744050  45.0992165  27.1354594  79.7314769  45.6448702  28.2577658
  73.6043917  46.6434895  19.0679232  73.4843542  47.0891946  19.9064712
  72.9096505  46.9920213  18.5092770  67.1951321  48.7441287  26.6178889
  67.3243703  48.9975766  27.5318301  66.5148773  49.3368995  26.2983544
  71.3650809  59.4138537  22.7169363  71.2874838  60.3646362  22.7957844
  70.7612452  59.0684409  23.3744289  73.8568039  46.5866402  35.3730730
  73.0801373  47.1460322  35.3633595  74.4958602  47.0723185  35.8945600
  81.6488819  43.3693195  29.2073707  81.0063199  43.6625728  28.5613501
  81.1443748  43.2546115  30.0126903  79.3028983  47.1156368  19.8959566
  80.2146839  47.3483755  19.7207263  78.7938630  47.6993412  19.3334644
  72.1114411  49.3951856  34.9348697  72.8529095  49.9336900  34.6583521
  71.4051396  50.0218144  35.0920249  77.5869750  51.5380996  33.5320858
  77.9953107  51.0963407  32.7875491  76.8647012  50.9633624  33.7855051
  73.9400821  46.4753603  30.9054415  74.7862016  46.8993016  31.0489064
  73.8799458  45.8187227  31.5992978  77.9098565  52.0982187  27.2873147
  77.2807428  52.2627901  26.5849215  77.5224227  52.5123796  28.0584111
  81.7887797  53.0336624  24.6417511  81.1038835  53.4135526  24.0914544
  81.8731646  53.6431951  25.3749459  77.0900266  44.1357971  32.5635589
  76.8461198  44.8900032  32.0269865  77.3660196  44.5143319  33.3982836
  79.0438729  50.6796584  31.2412855  79.2555624  51.3228343  30.5647236
  78.9968477  49.8458900  30.7734785  76.6464958  43.2914404  28.1449427
  75.7849437  43.5895658  28.4366164  76.6727392  43.5084803  27.2130459
  73.4626527  51.8356595  24.5523232  73.9264873  52.1144298  23.7627855
  73.1983325  50.9340039  24.3696323  70.3550608  51.3828076  27.4902996
  70.9251965  51.8115345  26.8520480  70.9458720  51.1010661  28.1887181
  72.3995413  47.9579747  21.3612798  73.1019456  48.4100791  21.8286724
  72.0676042  47.3163566  21.9892691  70.8475775  46.5491504  35.7364007
  70.2174435  47.2307785  35.9699404  70.7411862  46.4374585  34.7917145
  66.1420747  46.2163300  26.6629931  65.3519801  46.4720828  26.1870042
  66.6331994  47.0311638  26.7681972  80.1584557  53.5568539  29.4135212
  80.9802000  53.1548726  29.1317894  80.1546959  53.4536773  30.3651328
  68.0935492  46.5807879  23.6213408  67.2966656  46.6926573  24.1396903
  67.8661085  46.9194531  22.7554298  73.9241160  53.1052582  31.5695922
  73.9885593  53.5672989  32.4054094  73.2152084  52.4749947  31.6978232
  64.4258450  46.4693790  29.0944922  64.6766488  47.3540800  29.3602498
  64.9617998  46.2898392  28.3220014  88.2490550  49.9007287  25.7620183
  87.4954258  49.3314685  25.6064188  88.3838091  49.8669952  26.7090818
  73.6389178  54.7720690  21.4374903  73.5034852  55.6172225  21.8659751
  74.1798990  54.9739967  20.6740837  70.1256517  40.8512270  38.0989258
  69.7323463  40.2978468  38.7736902  70.9422658  41.1622848  38.4895775
  67.0918575  52.2896128  22.0102828  67.6043096  53.0839378  22.1608393
  67.7441288  51.5922418  21.9436429  68.9013460  55.4061884  24.0925581
  69.0780088  56.3279849  23.9046565  69.6970293  55.0920303  24.5219961
  73.0424478  42.2670149  35.6909515  73.7834192  42.8677302  35.6113977
  73.2742401  41.5247786  35.1327557  68.1865816  47.4526516  33.9687744
  68.0719331  46.5511773  34.2694843  67.3310334  47.6990213  33.6172561
  75.2657654  55.3944256  35.5675245  74.8221508  54.6080635  35.2496149
  75.9274868  55.5823407  34.9019136  70.0244775  56.9240058  30.0935923
  70.5752200  56.7957121  29.3212917  69.1856251  57.2234947  29.7430816
  77.3638892  55.6747056  33.5956646  77.3457367  56.4955937  33.1036915
  78.2858812  55.5501131  33.8206787  73.8211946  53.1891186  34.4380154
  74.3540283  52.4279474  34.2079462  73.2926027  52.8964837  35.1804309
  76.9881641  38.2951252  29.9673796  76.6445911  39.1852893  29.8912907
  77.3560604  38.1052909  29.1043381  65.0567492  50.6184782  22.7862398
  65.8942714  51.0281790  22.5696106  65.2345760  49.6784224  22.7562592
  76.9531924  48.2859863  18.4746231  76.4378547  49.0564467  18.7134619
  76.6809232  47.6124999  19.0979293  74.5379035  43.1309563  23.5331470
  73.6820631  42.7416414  23.3537108  74.9505987  43.2101524  22.6731255
  76.0678182  40.6655907  27.9323029  75.5642977  40.6286042  27.1190835
  76.3608789  41.5748649  27.9919686  72.3121068  40.7494636  26.9389211
  73.1774064  40.5537445  26.5795101  72.3798576  40.5204988  27.8658568
  81.9266198  51.0392217  20.4099405  81.1495641  50.7003377  19.9654567
  82.6057679  51.0444841  19.7354370  76.7418227  46.1586955  20.3006012
  76.4368363  46.4733104  21.1516156  77.6948669  46.2368375  20.3433345
  75.1864659  52.3177178  21.9498966  74.6586021  51.5829938  21.6372204
  74.6852162  53.0951854  21.7038935  80.1657505  50.5126199  27.0666013
  79.5081179  51.2025460  27.1546141  80.9697904  50.9022631  27.4099999
  69.9183387  42.9796844  24.3105578  70.4927138  42.7572026  23.5778771
  70.5054369  43.0485539  25.0634179  78.9762964  48.8670571  25.1169955
  79.4894846  49.5000563  25.6191664  79.6264188  48.2671767  24.7513315
  70.2452974  45.0101305  18.3301463  69.4090286  45.3475992  18.6510738
  70.1057743  44.8750285  17.3928600  72.2206054  39.8538093  23.0380647
  71.5670467  39.5387110  22.4137262  72.1786528  39.2313834  23.7640470
  73.3317259  50.1357388  14.9533939  72.4244321  49.9046642  15.1525088
  73.8288291  49.3395008  15.1407921  76.2385338  58.8454896  17.8730626
  75.5647037  59.1486592  18.4815583  76.6251160  59.6483976  17.5236083
  75.4543795  46.3420027  27.3628295  74.5366356  46.5634974  27.2049983
  75.8703938  46.4166337  26.5040002  76.2378842  47.7411443  22.4930975
  76.9850661  48.2532840  22.1838097  76.5070432  47.4195495  23.3535369
  74.5105493  50.2369983  19.4757930  73.6016712  49.9529016  19.5730399
  74.5400576  50.6569062  18.6161236  79.7424760  53.8476573  23.2449097
  79.2887087  53.0067483  23.3014288  79.1118727  54.4837971  23.5823877
  78.6857680  44.7768559  24.4749765  77.9480436  44.2645945  24.8060007
  78.9384453  44.3368940  23.6633041  78.1857699  55.6853069  24.1798915
  78.4780674  56.2458127  23.4611281  78.6956320  55.9781630  24.9352074
  78.7869307  37.5544811  25.0691534  79.0928184  36.6942174  24.7817449
  79.5121912  38.1462431  24.8690528  65.0793663  47.9575497  23.4573132
  64.8818063  47.3644858  22.7324198  64.5240327  47.6527708  24.1749071
  73.0590387  47.8498604  25.5767725  73.1138996  46.8972440  25.5010202
  72.2481589  48.0058043  26.0609023  74.2081580  51.7778727  16.8146008
  73.7701010  51.0614586  16.3551646  74.9492021  52.0054842  16.2531100
  70.9982747  46.4675664  23.3358104  70.1850612  46.7669834  23.7423296
  71.4941741  46.0731352  24.0532586  73.1491324  56.4633421  25.2692368
  73.1067503  56.6894267  24.3400901  74.0654023  56.2296795  25.4178170
  76.5956958  46.9317488  32.1672998  76.9506346  47.1588961  33.0267463
  77.2429089  47.2635865  31.5450253  82.3254695  50.0535924  22.8722327
  82.1872594  50.2437520  21.9443516  81.9690914  50.8155307  23.3290378
  70.4896821  44.0394019  28.9519339  71.1296201  43.8982778  28.2542302
  69.6574352  43.7528533  28.5757941  82.3524075  52.1212451  27.8833598
  82.7860581  52.0287740  28.7316652  83.0655655  52.0969951  27.2453614
  71.2657125  53.3396450  25.0654331  72.0597724  52.8446770  24.8636906
  70.5548818  52.8114313  24.7022037  76.0851970  55.7214545  29.4166699
  76.1388992  56.2905481  30.1844415  75.2166751  55.8916430  29.0520736
  67.5739889  47.4839531  21.1414084  66.6437477  47.4223987  21.3584046
  67.6697361  46.9615484  20.3450725  67.4925438  44.0094344  23.7292326
  67.7532255  44.9239677  23.6201486  68.3142610  43.5418787  23.8788938
  68.9650363  45.4232101  30.8991150  69.6373416  45.2149463  30.2503799
  68.1380150  45.2254187  30.4596382  83.2139624  52.1636152  30.4166484
  83.4075514  53.0681962  30.6625759  83.1140243  51.7043571  31.2505069
  74.8675935  42.0494042  32.9156811  74.2203850  42.7483992  32.8221287
  75.6376950  42.4830186  33.2833059  78.2754733  52.3142894  35.9907364
  78.1240239  52.0853446  35.0737448  78.2659413  53.2713496  36.0038709
  75.0440069  49.8874807  30.9753631  75.9732129  50.0385967  30.8022598
  74.6231099  49.9758828  30.1202277  73.8428401  53.9125472  28.7452168
  73.7039487  53.5444256  29.6178106  73.0542997  54.4273111  28.5736126
  74.4376553  59.0134568  20.0877705  74.6128309  58.5422611  20.9023328
  73.7509341  59.6400334  20.3158966  75.3933616  53.2907074  26.1341006
  75.0583449  53.2507844  27.0298656  74.8937562  52.6251790  25.6611416
  69.3677860  48.6974704  31.6593587  69.2297658  47.9654943  32.2605126
  70.2782784  48.6083604  31.3777775  78.3292808  50.6363109  16.4078066
  77.7121979  49.9109937  16.3111118  77.8609296  51.3972469  16.0645140
  71.9960161  48.4094664  31.1477267  72.7059780  47.7687856  31.1063885
  71.9529469  48.6607558  32.0703448  79.9846940  55.3462017  34.0683846
  79.9259486  54.6621237  33.4014429  80.3866458  56.0881007  33.6164472
  70.7089095  45.3959881  32.9672906  70.1726452  44.9450620  33.6194503
  70.1205803  45.5305790  32.2243371  69.0037638  62.1623931  26.8617565
  69.2434237  62.7942455  27.5396584  68.1606835  61.8111971  27.1482924
  70.1191354  44.8548533  15.5299370  69.2420820  44.7337334  15.1661617
  70.5949107  44.0634611  15.2778259  79.9864347  53.3101601  32.2997826
  79.0991126  52.9727523  32.4224225  80.5562898  52.5784632  32.5366591
  61.6393494  49.6425693  25.6240877  62.3264534  49.3287423  25.0361892
  61.4841623  50.5467057  25.3508129  66.4428216  44.5315889  30.0525901
  66.3586405  43.9241559  29.3176311  65.6210923  45.0224907  30.0535397
  73.5165500  57.9703053  29.2659069  73.4435672  58.7758025  29.7778374
  73.0742893  58.1695019  28.4407090  73.3055280  57.2074823  22.7761891
  72.5222802  57.7496503  22.8700115  74.0048025  57.7248803  23.1756132
  76.6151930  43.0169453  25.4196096  77.1120630  42.2639415  25.0997166
  75.8438912  43.0533769  24.8539305  84.4681687  48.7209818  27.0614387
  84.4571564  49.6034534  26.6908321  83.5999067  48.3681369  26.8668924
  75.9764184  57.8689887  31.4217228  76.6892156  58.5037352  31.3493129
  75.4854213  57.9653753  30.6057229  77.6981711  51.7741140  22.9934519
  76.7637990  51.8942602  22.8239224  77.8758379  50.8713607  22.7294529
  73.1986899  45.1586836  25.1467781  72.8284686  44.6057876  25.8348686
  73.6945991  44.5544969  24.5942781  81.0854262  47.6158459  23.5284553
  81.5514714  48.4486451  23.4544856  81.5361763  47.1503441  24.2329812
  71.0276097  55.6184331  32.2422798  71.7285557  56.2520814  32.3952193
  70.5571212  55.9599062  31.4818438  79.1530493  53.9602280  20.5270706
  79.4290337  53.8458875  21.4364580  78.2834992  53.5619765  20.4882879
  79.0570925  39.9839046  27.5675455  78.1434005  40.2143273  27.7357662
  79.4864026  40.0677490  28.4189487  78.8277383  48.1728938  30.0675349
  78.1748834  48.4204846  29.4127802  79.2057763  47.3593076  29.7337826
  75.7884557  58.2088631  24.1703519  75.9706952  57.3910287  24.6331271
  76.6117543  58.4256324  23.7328409  76.1226723  57.1356816  21.4318568
  76.6514489  56.6249271  20.8188730  76.3854942  56.8199347  22.2964101
  74.8764956  48.9148749  36.5541386  74.2005593  48.8142879  37.2243761
  75.6992590  48.7587963  37.0177383  66.6243815  55.1520686  29.1753901
  67.2097252  54.4064374  29.3081805  66.4268654  55.4624642  30.0590565
  69.4782471  58.1871933  24.1916344  68.8092846  58.6718061  23.7080384
  69.3395340  58.4341154  25.1059722  61.2161470  47.7226286  27.8958344
  61.2545570  47.1889877  28.6895462  60.7101763  47.1961491  27.2769321
  73.6187739  60.2215677  30.7899002  74.1706047  60.3847298  31.5548087
  73.9593933  60.8120114  30.1179027  68.5952232  42.5690826  31.3920887
  68.6593559  43.4305657  30.9798284  68.5319353  41.9564828  30.6593245
  68.0704505  44.6413959  35.0393921  68.6976544  44.2591036  35.6531445
  67.2132424  44.4228161  35.4049613  78.4698614  55.0476934  36.6447656
  79.0138518  55.6606892  36.1502611  77.8885458  55.6056513  37.1614669
  64.8470048  46.4490388  20.9712276  65.1423489  45.5401067  20.9179329
  63.9458084  46.4278128  20.6493278  76.7556127  58.1697652  27.7762684
  76.6307266  57.3687392  27.2673630  77.4135218  58.6643846  27.2876654
  68.3764295  44.5246385  26.9539824  67.6550881  45.1382352  26.8147298
  69.1657551  45.0604150  26.8756470  78.8191035  55.9706672  29.4042234
  77.8721370  55.8512023  29.3320561  79.1673808  55.0829170  29.4868496
  71.1790608  41.8600811  33.2280476  71.7025010  42.1063108  33.9906785
  70.9602942  42.6920846  32.8083613  66.5757889  44.1304486  21.0951601
  66.2470596  43.2501865  20.9126707  66.9297260  44.0752154  21.9827990
  75.8237468  55.7659388  25.6046586  75.6762431  54.8376096  25.7854156
  76.6490962  55.7879479  25.1203662  69.6899713  44.4177456  21.4627079
  70.0295785  44.9463377  20.7405687  70.1371833  44.7557862  22.2385645
  79.4271590  56.5887947  26.6911459  80.3518138  56.3830809  26.5535910
  79.2586893  56.3404348  27.6000801  72.3843153  42.8014506  30.9130147
  72.0439974  42.0022319  31.3150826  71.6782160  43.1016217  30.3406980
  73.0359625  39.8863819  29.3657470  73.8585694  39.4124297  29.2436360
  73.2797689  40.6654302  29.8656156  71.6767860  42.9152077  19.6620371
  72.3976222  43.2933330  19.1584088  71.0533164  43.6340954  19.7655349
  75.8198983  43.6197226  20.5978704  76.0362597  44.5021864  20.2967532
  75.3393050  43.2283440  19.8684346  70.5598204  46.5782939  27.1749448
  70.4142785  46.8923242  28.0673730  70.0823408  47.1967840  26.6220347
  72.4194587  43.5685487  27.2230338  72.4056156  42.6726581  26.8862636
  73.1367015  43.5756151  27.8568624  74.2720718  44.0022828  29.2683465
  74.0138495  44.9239898  29.2667796  73.7405758  43.6053262  29.9583929
  79.2166906  57.1073615  22.0473551  79.3903784  56.5420037  21.2947403
  79.7095798  57.9074510  21.8653041  65.0343866  49.1188284  30.1137109
  64.4897334  49.8948092  30.2457384  65.9123216  49.4659088  29.9556231
  71.8231483  42.4499868  22.4917908  71.9447394  41.5216514  22.6908795
  71.5333525  42.4638554  21.5796223  74.6922673  40.1354778  25.6284628
  74.7144370  40.1994111  24.6736607  75.1090732  39.2959287  25.8225134
  85.0706297  49.8710038  23.6663850  85.5137443  49.1217363  23.2682974
  84.1932808  49.8620174  23.2837582  80.2042079  56.4240379  19.1470449
  80.8992983  57.0447072  19.3657764  80.5465229  55.5735730  19.4222827
  65.8209888  48.2458180  33.0067266  65.0791624  48.3940815  33.5931897
  65.5002632  48.5066446  32.1434016  82.1033502  53.8740085  20.6757780
  82.6284826  54.2127357  19.9507100  82.0155854  52.9387100  20.4920914
  73.7653551  57.7874158  32.8047656  74.0740677  57.5423305  33.6770356
  74.5629033  57.9920797  32.3166527  73.7874163  59.9412068  25.0353033
  73.3479153  59.4488447  25.7285890  74.5382280  59.3985036  24.7945108
  66.2666502  56.1323609  25.0377661  67.0924522  55.8327381  24.6576304
  65.9160554  55.3631231  25.4867450  71.2348035  55.4850077  27.1075335
  70.6128044  54.8220782  26.8077562  71.9052902  55.5111209  26.4248982
  64.4675107  54.0509935  25.9966594  63.6307015  53.6232110  25.8150596
  64.4398752  54.2442379  26.9337386  71.3072562  43.9631865  36.7007841
  71.3560718  44.8393988  36.3185610  71.8495076  43.4209258  36.1279484
  81.7927408  54.5072988  35.9808978  81.0022952  54.4897127  35.4413477
  81.5560763  55.0461282  36.7358014  81.9125283  51.3565455  33.2941706
  81.9623288  51.1915462  34.2357229  81.8039206  50.4892714  32.9039587
  70.7961542  54.0354000  20.5833795  70.9449662  54.7189465  19.9300468
  71.6027985  54.0159090  21.0983251  79.2029045  47.3396383  34.6101013
  80.1038908  47.2002847  34.3185011  79.2777020  47.5050837  35.5499190
  73.5371851  44.7163237  33.4554199  72.6675160  45.0096803  33.1836788
  73.7731331  45.3003682  34.1761463  83.4143480  53.7762396  33.5383728
  83.1228288  54.1392377  34.3747189  82.8015611  53.0629404  33.3597060
  84.6139162  51.3415276  26.0586298  85.4486054  51.7805080  26.2223858
  84.7498291  50.8653929  25.2394544  81.6630668  48.8995011  32.0063786
  82.1384790  49.0922657  31.1982637  80.7396233  48.9554197  31.7607169
  68.5514175  50.0619178  21.5894864  68.3060217  49.1581508  21.7875074
  68.7210089  50.0636328  20.6474342  76.2410885  40.9342854  30.9719620
  76.7592828  41.6703881  30.6466108  75.8866017  41.2406848  31.8066379
  67.8209822  45.7947536  19.0881025  67.1279067  45.8691891  18.4321061
  67.5761574  45.0307879  19.6102542  76.4923479  37.3543137  26.4920516
  76.7725232  36.6866326  27.1180943  77.2774086  37.5472232  25.9795180
  74.2956947  56.5302131  18.0545542  73.7230914  57.1492318  17.6016014
  74.8689741  57.0801492  18.5885464  80.3632337  45.7760771  30.2392091
  81.3149760  45.8758869  30.2604315  80.1935787  44.9839039  30.7490176
  78.3846717  42.8616354  30.4251492  77.7896649  43.1421367  29.7297981
  78.0996413  43.3510255  31.1968233  77.5154207  56.8139281  19.1854125
  78.4484880  56.7484843  19.3887000  77.4277420  57.6495548  18.7268657
  80.1442224  56.1305151  16.1458072  80.0655855  55.7965015  17.0393830
  80.9651890  56.6226919  16.1449545  82.8420415  48.9966891  29.3534391
  82.8096735  48.0582891  29.5394075  83.4521039  49.0750927  28.6200216
  74.6803746  47.8662944  15.3961595  75.6262850  47.7369152  15.4650013
  74.3017991  47.1277605  15.8731023  82.9914903  45.7877934  29.3992674
  82.4753952  45.0036391  29.2122603  83.8754852  45.4596651  29.5639194
  80.6525630  39.5318950  25.3588487  80.4550451  39.2234038  26.2431819
  81.2625336  40.2580588  25.4886417  88.6596965  50.0582897  28.4940428
  89.3900353  49.7968186  29.0548131  88.0503910  49.3211619  28.5342496
  86.7412262  48.1990760  29.0914879  86.0145425  48.0646725  28.4831371
  86.3259549  48.5067589  29.8971597  74.5642438  51.9180690  36.8562252
  75.4845448  52.0959289  37.0502298  74.5292021  50.9736735  36.7041951
  72.8646663  45.7912920  15.3316480  71.9578118  45.4946033  15.4079194
  73.1422644  45.4942738  14.4650766  63.7824603  47.1119283  25.7815527
  63.4627388  46.2584591  25.4889901  63.2358031  47.3267861  26.5373494
  67.5604511  49.8281724  29.4985033  67.7790521  50.7598832  29.5173067
  67.9730285  49.4689699  30.2839837  74.4808729  40.3349810  21.4860721
  73.6709457  39.9896895  21.8615968  75.1693146  40.0257353  22.0748333
  76.4099277  39.4127856  23.1085018  76.9630315  39.8323310  23.7675041
  76.6469363  38.4863605  23.1507974  72.4332376  45.4014930  38.8887782
  72.3329103  46.3509287  38.8199873  72.2153918  45.0733169  38.0163852
  71.6345448  42.6499855  15.4728459  72.4964611  42.9754753  15.7324277
  71.8195792  41.8631351  14.9601525  63.6512863  50.7322195  27.7508648
  62.9576335  50.3176148  27.2378603  64.3985854  50.7742731  27.1542067
  79.7878084  41.5228382  22.6163682  79.2076753  42.1813186  22.2341735
  79.5214017  40.7005726  22.2051100  78.2381650  40.9233439  24.8185003
  78.7381429  41.0349974  24.0099322  78.8817258  40.6194492  25.4585811
  72.2963646  48.8312069  37.7052844  71.8130728  49.6312429  37.9116733
  72.3824585  48.8420014  36.7520288  65.5649606  50.6640449  25.6274663
  65.5420294  50.7628136  24.6756546  65.8750242  51.5105599  25.9491829
  68.2236984  52.7216604  29.7421277  69.1780237  52.6900546  29.6751209
  68.0249507  52.2607227  30.5571503  68.8136366  51.2917720  32.3092075
  69.6329255  51.7861798  32.3326912  69.0873173  50.3749688  32.2809643
  78.5702962  43.6828472  21.6720031  77.6828817  43.9678123  21.4540225
  78.9856951  43.5222235  20.8247308  81.9217498  43.7074993  25.3874370
  82.6977888  44.1971445  25.6598987  81.1965632  44.1333047  25.8446239
  84.3590057  44.4202612  26.4448311  84.9534548  44.1798348  25.7341619
  84.4316640  43.7009743  27.0721847  66.5787212  58.2636223  26.7591475
  66.4441680  57.5036624  26.1929473  66.1619275  58.9877123  26.2920264
  77.7146175  53.4473147  15.7668051  78.4182026  53.6523149  16.3825706
  76.9908824  54.0149909  16.0317134  78.5443986  49.1983008  21.8870321
  78.4879187  49.6551559  21.0477953  79.0972328  48.4373692  21.7093164
  82.3548792  44.9872740  22.7120440  82.0985726  44.5869375  23.5428648
  81.7301660  45.7016534  22.5870579  86.6661130  47.7268813  25.2191732
  86.1060687  47.7962002  25.9923294  86.0604633  47.5509798  24.4991228
  69.7356338  59.1605540  26.9709918  69.6188722  60.1050973  26.8688608
  68.9148785  58.8579102  27.3595717  79.6232873  53.8855676  17.8166511
  80.4578477  53.4536874  17.6343985  79.4617216  53.7137690  18.7443405
  79.2778765  50.3887789  19.1822850  79.2227569  50.2232061  18.2411294
  78.6524820  51.0963822  19.3385040  64.0671280  45.6255854  33.0084272
  64.7130144  45.1154807  33.4971497  63.8588431  46.3624535  33.5827697
  76.5924672  52.6936701  38.5076413  77.4615832  52.8677353  38.1463048
  76.1131424  53.5131118  38.3852142  72.5874891  39.8895898  18.7608168
  72.5753560  40.8337738  18.9176439  73.4798312  39.7066044  18.4667630
  70.7610852  59.8133802  30.1865846  71.6638099  59.8457412  30.5032341
  70.5348223  58.8834253  30.2012182  72.5164454  58.5664789  26.8475925
  71.5660085  58.5666650  26.7340297  72.8196941  57.8197523  26.3311960
  76.4027010  36.4838675  23.0154105  75.6359406  35.9297161  23.1610788
  76.8137715  36.5560544  23.8768257  68.4068771  42.7723471  37.1059286
  69.2700233  42.4160275  37.3162611  67.8334182  42.4337365  37.7934691
  88.2517148  64.4025327  27.9121687  88.8895558  64.2832074  27.2085027
  88.1337991  65.3506171  27.9709640  85.0606854  64.3552755  27.8483212
  84.7225366  64.2393820  26.9603747  85.9296622  63.9543920  27.8284218
  80.9193670  66.2088231  23.8380103  80.3558535  66.1178168  23.0696391
  80.8046065  65.3888136  24.3182596  85.5426637  65.5087607  33.8069418
  85.5315278  65.1140405  32.9349921  85.7047277  64.7753679  34.4003189
  78.4658102  67.7039423  26.6764324  79.2579394  67.3630248  26.2610623
  78.7054752  67.8134398  27.5966477  86.4993229  69.8759199  19.1494568
  85.8481208  70.4613280  18.7628582  87.2937591  70.4065394  19.2089605
  80.4248856  66.9648336  19.5481702  81.1979732  66.4177323  19.4094578
  80.7774255  67.8292586  19.7596164  82.2633898  68.2924719  32.7548602
  81.9723764  69.1970349  32.6395268  82.8990883  68.3341246  33.4692671
  83.1890105  65.6701567  29.3449961  83.7853677  65.4457589  28.6306924
  83.2465077  64.9286313  29.9475409  82.7615134  63.1241002  17.1800152
  83.0140654  62.6022524  16.4183615  81.8239693  62.9607148  17.2826836
  87.8058416  62.1276781  24.9874895  88.5921506  61.7096204  24.6365312
  88.0697121  63.0322873  25.1556544  87.9768494  67.5649631  19.6863552
  87.3414327  67.6384258  20.3984457  87.6465900  68.1543230  19.0082632
  93.2066844  62.0652014  25.8907874  93.9392016  61.4951231  26.1245703
  92.4506199  61.6773614  26.3314380  82.4811422  65.0269108  19.3824527
  82.3647680  64.3514012  20.0505612  82.5913682  64.5401482  18.5656680
  84.8242963  64.4879255  23.0871216  84.4601171  63.9609876  23.7984138
  85.6810079  64.0977725  22.9137702  90.7292264  55.7773588  30.3502483
  90.3975589  56.6468999  30.1263698  90.1337877  55.4609872  31.0296513
  84.4648450  59.5169155  18.0832565  84.6322853  60.3849392  18.4503036
  84.2745619  59.6796437  17.1593854  87.2223783  67.9786134  29.7498395
  86.9224507  68.8811173  29.6414203  86.8774843  67.7118317  30.6019548
  80.6736265  64.4299931  25.7835100  79.7486761  64.2976145  25.9912792
  80.9220678  65.2094150  26.2805042  90.6220927  60.4968674  27.4295833
  89.7137805  60.4284083  27.1354594  90.5708523  60.9740619  28.2577658
  84.4437671  61.9726813  19.0679232  84.3237296  62.4183863  19.9064712
  83.7490260  62.3212130  18.5092770  78.0345076  64.0733204  26.6178889
  78.1637457  64.3267683  27.5318301  77.3542527  64.6660912  26.2983544
  82.2044563  74.7430454  22.7169363  82.1268593  75.6938280  22.7957844
  81.6006207  74.3976327  23.3744289  84.6961793  61.9158320  35.3730730
  83.9195127  62.4752240  35.3633595  85.3352356  62.4015103  35.8945600
  92.4882574  58.6985113  29.2073707  91.8456954  58.9917646  28.5613501
  91.9837502  58.5838033  30.0126903  90.1422737  62.4448286  19.8959566
  91.0540593  62.6775673  19.7207263  89.6332384  63.0285330  19.3334644
  82.9508165  64.7243773  34.9348697  83.6922850  65.2628817  34.6583521
  82.2445151  65.3510062  35.0920249  88.4263505  66.8672914  33.5320858
  88.8346861  66.4255324  32.7875491  87.7040766  66.2925541  33.7855051
  84.7794575  61.8045520  30.9054415  85.6255770  62.2284934  31.0489064
  84.7193213  61.1479145  31.5992978  88.7492320  67.4274104  27.2873147
  88.1201182  67.5919818  26.5849215  88.3617982  67.8415714  28.0584111
  92.6281552  68.3628542  24.6417511  91.9432590  68.7427444  24.0914544
  92.7125401  68.9723869  25.3749459  87.9294020  59.4649889  32.5635589
  87.6854952  60.2191949  32.0269865  88.2053951  59.8435236  33.3982836
  89.8832483  66.0088501  31.2412855  90.0949378  66.6520261  30.5647236
  89.8362231  65.1750818  30.7734785  87.4858712  58.6206322  28.1449427
  86.6243191  58.9187575  28.4366164  87.5121147  58.8376721  27.2130459
  84.3020281  67.1648512  24.5523232  84.7658627  67.4436215  23.7627855
  84.0377080  66.2631957  24.3696323  81.1944363  66.7119994  27.4902996
  81.7645720  67.1407262  26.8520480  81.7852474  66.4302579  28.1887181
  83.2389168  63.2871665  21.3612798  83.9413211  63.7392708  21.8286724
  82.9069796  62.6455484  21.9892691  81.6869529  61.8783421  35.7364007
  81.0568190  62.5599702  35.9699404  81.5805617  61.7666503  34.7917145
  76.9814502  61.5455217  26.6629931  76.1913555  61.8012746  26.1870042
  77.4725749  62.3603555  26.7681972  90.9978311  68.8860457  29.4135212
  91.8195755  68.4840644  29.1317894  90.9940714  68.7828691  30.3651328
  78.9329247  61.9099797  23.6213408  78.1360410  62.0218491  24.1396903
  78.7054839  62.2486449  22.7554298  84.7634915  68.4344500  31.5695922
  84.8279347  68.8964907  32.4054094  84.0545838  67.8041865  31.6978232
  75.2652204  61.7985708  29.0944922  75.5160243  62.6832718  29.3602498
  75.8011753  61.6190309  28.3220014  99.0884304  65.2299205  25.7620183
  98.3348013  64.6606603  25.6064188  99.2231845  65.1961870  26.7090818
  84.4782932  70.1012607  21.4374903  84.3428607  70.9464143  21.8659751
  85.0192745  70.3031885  20.6740837  80.9650272  56.1804187  38.0989258
  80.5717217  55.6270386  38.7736902  81.7816412  56.4914766  38.4895775
  77.9312330  67.6188045  22.0102828  78.4436850  68.4131296  22.1608393
  78.5835042  66.9214336  21.9436429  79.7407214  70.7353802  24.0925581
  79.9173843  71.6571766  23.9046565  80.5364048  70.4212221  24.5219961
  83.8818233  57.5962066  35.6909515  84.6227946  58.1969219  35.6113977
  84.1136156  56.8539704  35.1327557  79.0259571  62.7818434  33.9687744
  78.9113086  61.8803691  34.2694843  78.1704089  63.0282130  33.6172561
  86.1051409  70.7236174  35.5675245  85.6615263  69.9372552  35.2496149
  86.7668622  70.9115324  34.9019136  80.8638530  72.2531975  30.0935923
  81.4145955  72.1249039  29.3212917  80.0250006  72.5526865  29.7430816
  88.2032647  71.0038974  33.5956646  88.1851122  71.8247855  33.1036915
  89.1252567  70.8793049  33.8206787  84.6605701  68.5183103  34.4380154
  85.1934038  67.7571391  34.2079462  84.1319782  68.2256755  35.1804309
  87.8275396  53.6243169  29.9673796  87.4839665  54.5144811  29.8912907
  88.1954358  53.4344827  29.1043381  75.8961246  65.9476700  22.7862398
  76.7336468  66.3573708  22.5696106  76.0739514  65.0076142  22.7562592
  87.7925678  63.6151780  18.4746231  87.2772302  64.3856385  18.7134619
  87.5202987  62.9416917  19.0979293  85.3772789  58.4601481  23.5331470
  84.5214386  58.0708332  23.3537108  85.7899741  58.5393442  22.6731255
  86.9071936  55.9947824  27.9323029  86.4036732  55.9577960  27.1190835
  87.2002543  56.9040567  27.9919686  83.1514822  56.0786554  26.9389211
  84.0167819  55.8829363  26.5795101  83.2192331  55.8496906  27.8658568
  92.7659953  66.3684135  20.4099405  91.9889395  66.0295295  19.9654567
  93.4451434  66.3736758  19.7354370  87.5811982  61.4878872  20.3006012
  87.2762117  61.8025022  21.1516156  88.5342424  61.5660292  20.3433345
  86.0258413  67.6469096  21.9498966  85.4979775  66.9121855  21.6372204
  85.5245916  68.4243772  21.7038935  91.0051259  65.8418116  27.0666013
  90.3474934  66.5317378  27.1546141  91.8091659  66.2314548  27.4099999
  80.7577141  58.3088762  24.3105578  81.3320893  58.0863944  23.5778771
  81.3448124  58.3777457  25.0634179  89.8156718  64.1962489  25.1169955
  90.3288600  64.8292481  25.6191664  90.4657942  63.5963684  24.7513315
  81.0846728  60.3393223  18.3301463  80.2484040  60.6767910  18.6510738
  80.9451498  60.2042203  17.3928600  83.0599809  55.1830011  23.0380647
  82.4064221  54.8679028  22.4137262  83.0180283  54.5605751  23.7640470
  84.1711014  65.4649306  14.9533939  83.2638075  65.2338560  15.1525088
  84.6682046  64.6686925  15.1407921  87.0779093  74.1746813  17.8730626
  86.4040791  74.4778510  18.4815583  87.4644915  74.9775894  17.5236083
  86.2937549  61.6711945  27.3628295  85.3760111  61.8926892  27.2049983
  86.7097693  61.7458255  26.5040002  87.0772597  63.0703360  22.4930975
  87.8244416  63.5824757  22.1838097  87.3464186  62.7487413  23.3535369
  85.3499247  65.5661901  19.4757930  84.4410466  65.2820934  19.5730399
  85.3794331  65.9860979  18.6161236  90.5818515  69.1768490  23.2449097
  90.1280842  68.3359400  23.3014288  89.9512481  69.8129889  23.5823877
  89.5251434  60.1060476  24.4749765  88.7874191  59.5937863  24.8060007
  89.7778208  59.6660858  23.6633041  89.0251454  71.0144987  24.1798915
  89.3174428  71.5750044  23.4611281  89.5350074  71.3073548  24.9352074
  89.6263061  52.8836728  25.0691534  89.9321938  52.0234092  24.7817449
  90.3515666  53.4754349  24.8690528  75.9187417  63.2867415  23.4573132
  75.7211817  62.6936776  22.7324198  75.3634081  62.9819625  24.1749071
  83.8984141  63.1790522  25.5767725  83.9532751  62.2264358  25.5010202
  83.0875343  63.3349961  26.0609023  85.0475335  67.1070645  16.8146008
  84.6094765  66.3906504  16.3551646  85.7885776  67.3346759  16.2531100
  81.8376501  61.7967581  23.3358104  81.0244367  62.0961752  23.7423296
  82.3335495  61.4023270  24.0532586  83.9885079  71.7925338  25.2692368
  83.9461258  72.0186185  24.3400901  84.9047778  71.5588713  25.4178170
  87.4350713  62.2609406  32.1672998  87.7900100  62.4880879  33.0267463
  88.0822844  62.5927783  31.5450253  93.1648450  65.3827842  22.8722327
  93.0266348  65.5729438  21.9443516  92.8084668  66.1447224  23.3290378
  81.3290576  59.3685937  28.9519339  81.9689955  59.2274696  28.2542302
  80.4968106  59.0820450  28.5757941  93.1917829  67.4504369  27.8833598
  93.6254336  67.3579658  28.7316652  93.9049410  67.4261869  27.2453614
  82.1050880  68.6688367  25.0654331  82.8991478  68.1738687  24.8636906
  81.3942572  68.1406230  24.7022037  86.9245724  71.0506463  29.4166699
  86.9782746  71.6197399  30.1844415  86.0560506  71.2208348  29.0520736
  78.4133643  62.8131449  21.1414084  77.4831231  62.7515904  21.3584046
  78.5091115  62.2907402  20.3450725  78.3319192  59.3386262  23.7292326
  78.5926010  60.2531595  23.6201486  79.1536365  58.8710704  23.8788938
  79.8044118  60.7524019  30.8991150  80.4767171  60.5441381  30.2503799
  78.9773904  60.5546105  30.4596382  94.0533379  67.4928069  30.4166484
  94.2469269  68.3973880  30.6625759  93.9533997  67.0335488  31.2505069
  85.7069690  57.3785960  32.9156811  85.0597605  58.0775910  32.8221287
  86.4770705  57.8122104  33.2833059  89.1148488  67.6434812  35.9907364
  88.9633994  67.4145364  35.0737448  89.1053167  68.6005413  36.0038709
  85.8833824  65.2166725  30.9753631  86.8125884  65.3677884  30.8022598
  85.4624854  65.3050746  30.1202277  84.6822156  69.2417389  28.7452168
  84.5433241  68.8736174  29.6178106  83.8936752  69.7565029  28.5736126
  85.2770308  74.3426486  20.0877705  85.4522063  73.8714529  20.9023328
  84.5903096  74.9692252  20.3158966  86.2327371  68.6198992  26.1341006
  85.8977203  68.5799762  27.0298656  85.7331317  67.9543708  25.6611416
  80.2071615  64.0266622  31.6593587  80.0691413  63.2946861  32.2605126
  81.1176538  63.9375522  31.3777775  89.1686563  65.9655026  16.4078066
  88.5515733  65.2401854  16.3111118  88.7003051  66.7264387  16.0645140
  82.8353915  63.7386581  31.1477267  83.5453534  63.0979773  31.1063885
  82.7923224  63.9899476  32.0703448  90.8240694  70.6753935  34.0683846
  90.7653240  69.9913155  33.4014429  91.2260213  71.4172925  33.6164472
  81.5482849  60.7251799  32.9672906  81.0120206  60.2742538  33.6194503
  80.9599558  60.8597708  32.2243371  79.8431393  77.4915848  26.8617565
  80.0827991  78.1234373  27.5396584  79.0000589  77.1403888  27.1482924
  80.9585108  60.1840451  15.5299370  80.0814575  60.0629251  15.1661617
  81.4342861  59.3926529  15.2778259  90.8258101  68.6393519  32.2997826
  89.9384880  68.3019440  32.4224225  91.3956652  67.9076550  32.5366591
  72.4787249  64.9717610  25.6240877  73.1658288  64.6579340  25.0361892
  72.3235377  65.8758975  25.3508129  77.2821971  59.8607807  30.0525901
  77.1980159  59.2533476  29.3176311  76.4604677  60.3516825  30.0535397
  84.3559255  73.2994971  29.2659069  84.2829426  74.1049942  29.7778374
  83.9136648  73.4986937  28.4407090  84.1449034  72.5366741  22.7761891
  83.3616556  73.0788421  22.8700115  84.8441780  73.0540721  23.1756132
  87.4545685  58.3461370  25.4196096  87.9514384  57.5931333  25.0997166
  86.6832666  58.3825687  24.8539305  95.3075442  64.0501736  27.0614387
  95.2965318  64.9326451  26.6908321  94.4392821  63.6973287  26.8668924
  86.8157938  73.1981805  31.4217228  87.5285911  73.8329270  31.3493129
  86.3247967  73.2945671  30.6057229  88.5375465  67.1033058  22.9934519
  87.6031744  67.2234520  22.8239224  88.7152134  66.2005524  22.7294529
  84.0380653  60.4878753  25.1467781  83.6678441  59.9349794  25.8348686
  84.5339746  59.8836887  24.5942781  91.9248017  62.9450377  23.5284553
  92.3908469  63.7778368  23.4544856  92.3755517  62.4795358  24.2329812
  81.8669852  70.9476248  32.2422798  82.5679311  71.5812731  32.3952193
  81.3964967  71.2890980  31.4818438  89.9924248  69.2894198  20.5270706
  90.2684092  69.1750793  21.4364580  89.1228746  68.8911683  20.4882879
  89.8964679  55.3130964  27.5675455  88.9827759  55.5435191  27.7357662
  90.3257781  55.3969408  28.4189487  89.6671138  63.5020856  30.0675349
  89.0142588  63.7496763  29.4127802  90.0451518  62.6884994  29.7337826
  86.6278312  73.5380549  24.1703519  86.8100706  72.7202205  24.6331271
  87.4511298  73.7548241  23.7328409  86.9620477  72.4648734  21.4318568
  87.4908244  71.9541189  20.8188730  87.2248697  72.1491264  22.2964101
  85.7158711  64.2440667  36.5541386  85.0399348  64.1434796  37.2243761
  86.5386345  64.0879881  37.0177383  77.4637570  70.4812603  29.1753901
  78.0491007  69.7356291  29.3081805  77.2662408  70.7916560  30.0590565
  80.3176225  73.5163851  24.1916344  79.6486600  74.0009978  23.7080384
  80.1789095  73.7633071  25.1059722  72.0555225  63.0518204  27.8958344
  72.0939324  62.5181794  28.6895462  71.5495518  62.5253409  27.2769321
  84.4581494  75.5507594  30.7899002  85.0099802  75.7139216  31.5548087
  84.7987687  76.1412032  30.1179027  79.4345987  57.8982744  31.3920887
  79.4987313  58.7597575  30.9798284  79.3713107  57.2856746  30.6593245
  78.9098260  59.9705877  35.0393921  79.5370298  59.5882954  35.6531445
  78.0526178  59.7520079  35.4049613  89.3092368  70.3768852  36.6447656
  89.8532272  70.9898810  36.1502611  88.7279213  70.9348430  37.1614669
  75.6863802  61.7782306  20.9712276  75.9817243  60.8692984  20.9179329
  74.7851838  61.7570045  20.6493278  87.5949881  73.4989570  27.7762684
  87.4701020  72.6979310  27.2673630  88.2528972  73.9935763  27.2876654
  79.2158049  59.8538302  26.9539824  78.4944635  60.4674270  26.8147298
  80.0051305  60.3896067  26.8756470  89.6584789  71.2998590  29.4042234
  88.7115125  71.1803941  29.3320561  90.0067563  70.4121088  29.4868496
  82.0184363  57.1892729  33.2280476  82.5418765  57.4355025  33.9906785
  81.7996696  58.0212764  32.8083613  77.4151644  59.4596403  21.0951601
  77.0864350  58.5793782  20.9126707  77.7691015  59.4044072  21.9827990
  86.6631223  71.0951306  25.6046586  86.5156185  70.1668014  25.7854156
  87.4884716  71.1171397  25.1203662  80.5293467  59.7469373  21.4627079
  80.8689540  60.2755294  20.7405687  80.9765587  60.0849779  22.2385645
  90.2665345  71.9179865  26.6911459  91.1911892  71.7122726  26.5535910
  90.0980648  71.6696266  27.6000801  83.2236908  58.1306424  30.9130147
  82.8833728  57.3314237  31.3150826  82.5175914  58.4308135  30.3406980
  83.8753380  55.2155736  29.3657470  84.6979449  54.7416215  29.2436360
  84.1191443  55.9946220  29.8656156  82.5161614  58.2443995  19.6620371
  83.2369977  58.6225248  19.1584088  81.8926918  58.9632872  19.7655349
  86.6592737  58.9489144  20.5978704  86.8756351  59.8313782  20.2967532
  86.1786804  58.5575357  19.8684346  81.3991958  61.9074857  27.1749448
  81.2536539  62.2215160  28.0673730  80.9217162  62.5259757  26.6220347
  83.2588341  58.8977405  27.2230338  83.2449910  58.0018498  26.8862636
  83.9760769  58.9048069  27.8568624  85.1114472  59.3314745  29.2683465
  84.8532250  60.2531816  29.2667796  84.5799512  58.9345180  29.9583929
  90.0560661  72.4365532  22.0473551  90.2297538  71.8711955  21.2947403
  90.5489552  73.2366427  21.8653041  75.8737621  64.4480201  30.1137109
  75.3291089  65.2240009  30.2457384  76.7516970  64.7951006  29.9556231
  82.6625237  57.7791785  22.4917908  82.7841148  56.8508431  22.6908795
  82.3727280  57.7930471  21.5796223  85.5316428  55.4646696  25.6284628
  85.5538124  55.5286029  24.6736607  85.9484487  54.6251204  25.8225134
  95.9100052  65.2001955  23.6663850  96.3531198  64.4509280  23.2682974
  95.0326562  65.1912092  23.2837582  91.0435833  71.7532297  19.1470449
  91.7386738  72.3738989  19.3657764  91.3858983  70.9027648  19.4222827
  76.6603642  63.5750098  33.0067266  75.9185378  63.7232733  33.5931897
  76.3396387  63.8358363  32.1434016  92.9427256  69.2032002  20.6757780
  93.4678580  69.5419275  19.9507100  92.8549609  68.2679018  20.4920914
  84.6047305  73.1166076  32.8047656  84.9134432  72.8715223  33.6770356
  85.4022787  73.3212714  32.3166527  84.6267917  75.2703986  25.0353033
  84.1872907  74.7780364  25.7285890  85.3776034  74.7276953  24.7945108
  77.1060256  71.4615526  25.0377661  77.9318276  71.1619298  24.6576304
  76.7554308  70.6923149  25.4867450  82.0741789  70.8141995  27.1075335
  81.4521799  70.1512700  26.8077562  82.7446656  70.8403127  26.4248982
  75.3068861  69.3801853  25.9966594  74.4700769  68.9524027  25.8150596
  75.2792507  69.5734296  26.9337386  82.1466317  59.2923783  36.7007841
  82.1954472  60.1685905  36.3185610  82.6888831  58.7501176  36.1279484
  92.6321162  69.8364906  35.9808978  91.8416706  69.8189045  35.4413477
  92.3954517  70.3753200  36.7358014  92.7519037  66.6857372  33.2941706
  92.8017042  66.5207380  34.2357229  92.6432961  65.8184631  32.9039587
  81.6355296  69.3645918  20.5833795  81.7843417  70.0481382  19.9300468
  82.4421740  69.3451008  21.0983251  90.0422800  62.6688300  34.6101013
  90.9432663  62.5294765  34.3185011  90.1170774  62.8342755  35.5499190
  84.3765605  60.0455155  33.4554199  83.5068915  60.3388721  33.1836788
  84.6125086  60.6295600  34.1761463  94.2537234  69.1054314  33.5383728
  93.9622043  69.4684294  34.3747189  93.6409366  68.3921322  33.3597060
  95.4532917  66.6707194  26.0586298  96.2879808  67.1096998  26.2223858
  95.5892045  66.1945847  25.2394544  92.5024423  64.2286928  32.0063786
  92.9778544  64.4214575  31.1982637  91.5789988  64.2846114  31.7607169
  79.3907929  65.3911096  21.5894864  79.1453971  64.4873426  21.7875074
  79.5603844  65.3928246  20.6474342  87.0804639  56.2634772  30.9719620
  87.5986583  56.9995799  30.6466108  86.7259772  56.5698765  31.8066379
  78.6603577  61.1239453  19.0881025  77.9672822  61.1983808  18.4321061
  78.4155329  60.3599797  19.6102542  87.3317233  52.6835055  26.4920516
  87.6118987  52.0158244  27.1180943  88.1167840  52.8764150  25.9795180
  85.1350702  71.8594048  18.0545542  84.5624669  72.4784236  17.6016014
  85.7083495  72.4093410  18.5885464  91.2026092  61.1052689  30.2392091
  92.1543514  61.2050786  30.2604315  91.0329542  60.3130957  30.7490176
  89.2240471  58.1908272  30.4251492  88.6290403  58.4713284  29.7297981
  88.9390168  58.6802173  31.1968233  88.3547961  72.1431199  19.1854125
  89.2878635  72.0776760  19.3887000  88.2671174  72.9787465  18.7268657
  90.9835978  71.4597069  16.1458072  90.9049610  71.1256933  17.0393830
  91.8045645  71.9518837  16.1449545  93.6814169  64.3258808  29.3534391
  93.6490489  63.3874809  29.5394075  94.2914793  64.4042845  28.6200216
  85.5197500  63.1954861  15.3961595  86.4656605  63.0661069  15.4650013
  85.1411745  62.4569523  15.8731023  93.8308658  61.1169852  29.3992674
  93.3147706  60.3328308  29.2122603  94.7148606  60.7888568  29.5639194
  91.4919385  54.8610867  25.3588487  91.2944206  54.5525955  26.2431819
  92.1019090  55.5872506  25.4886417  99.4990719  65.3874815  28.4940428
 100.2294108  65.1260103  29.0548131  98.8897665  64.6503537  28.5342496
  97.5806016  63.5282678  29.0914879  96.8539180  63.3938643  28.4831371
  97.1653303  63.8359506  29.8971597  85.4036193  67.2472607  36.8562252
  86.3239202  67.4251206  37.0502298  85.3685776  66.3028653  36.7041951
  83.7040417  61.1204838  15.3316480  82.7971873  60.8237950  15.4079194
  83.9816398  60.8234656  14.4650766  74.6218358  62.4411201  25.7815527
  74.3021142  61.5876509  25.4889901  74.0751786  62.6559779  26.5373494
  78.3998265  65.1573642  29.4985033  78.6184275  66.0890750  29.5173067
  78.8124039  64.7981616  30.2839837  85.3202483  55.6641727  21.4860721
  84.5103211  55.3188812  21.8615968  86.0086900  55.3549271  22.0748333
  87.2493031  54.7419774  23.1085018  87.8024070  55.1615228  23.7675041
  87.4863118  53.8155522  23.1507974  83.2726131  60.7306848  38.8887782
  83.1722858  61.6801205  38.8199873  83.0547673  60.4025087  38.0163852
  82.4739202  57.9791773  15.4728459  83.3358366  58.3046671  15.7324277
  82.6589546  57.1923269  14.9601525  74.4906618  66.0614112  27.7508648
  73.7970089  65.6468065  27.2378603  75.2379609  66.1034649  27.1542067
  90.6271838  56.8520299  22.6163682  90.0470508  57.5105103  22.2341735
  90.3607771  56.0297644  22.2051100  89.0775405  56.2525357  24.8185003
  89.5775183  56.3641891  24.0099322  89.7211013  55.9486410  25.4585811
  83.1357401  64.1603987  37.7052844  82.6524482  64.9604347  37.9116733
  83.2218340  64.1711931  36.7520288  76.4043360  65.9932366  25.6274663
  76.3814048  66.0920054  24.6756546  76.7143997  66.8397517  25.9491829
  79.0630738  68.0508521  29.7421277  80.0173992  68.0192464  29.6751209
  78.8643262  67.5899145  30.5571503  79.6530120  66.6209637  32.3092075
  80.4723009  67.1153716  32.3326912  79.9266928  65.7041605  32.2809643
  89.4096716  59.0120390  21.6720031  88.5222572  59.2970040  21.4540225
  89.8250706  58.8514153  20.8247308  92.7611253  59.0366911  25.3874370
  93.5371643  59.5263363  25.6598987  92.0359387  59.4624965  25.8446239
  95.1983811  59.7494530  26.4448311  95.7928302  59.5090266  25.7341619
  95.2710395  59.0301660  27.0721847  77.4180967  73.5928141  26.7591475
  77.2835435  72.8328542  26.1929473  77.0013029  74.3169041  26.2920264
  88.5539930  68.7765064  15.7668051  89.2575780  68.9815067  16.3825706
  87.8302579  69.3441826  16.0317134  89.3837740  64.5274926  21.8870321
  89.3272942  64.9843477  21.0477953  89.9366083  63.7665610  21.7093164
  93.1942546  60.3164657  22.7120440  92.9379480  59.9161293  23.5428648
  92.5695414  61.0308451  22.5870579  97.5054884  63.0560731  25.2191732
  96.9454442  63.1253920  25.9923294  96.8998387  62.8801715  24.4991228
  80.5750093  74.4897458  26.9709918  80.4582477  75.4342890  26.8688608
  79.7542539  74.1871019  27.3595717  90.4626627  69.2147594  17.8166511
  91.2972231  68.7828792  17.6343985  90.3010970  69.0429607  18.7443405
  90.1172520  65.7179707  19.1822850  90.0621323  65.5523978  18.2411294
  89.4918575  66.4255740  19.3385040  74.9065035  60.9547771  33.0084272
  75.5523898  60.4446725  33.4971497  74.6982186  61.6916453  33.5827697
  87.4318427  68.0228619  38.5076413  88.3009586  68.1969271  38.1463048
  86.9525178  68.8423036  38.3852142  83.4268645  55.2187816  18.7608168
  83.4147315  56.1629656  18.9176439  84.3192067  55.0357961  18.4667630
  81.6004607  75.1425720  30.1865846  82.5031854  75.1749330  30.5032341
  81.3741977  74.2126171  30.2012182  83.3558209  73.8956706  26.8475925
  82.4053840  73.8958568  26.7340297  83.6590695  73.1489441  26.3311960
  87.2420764  51.8130592  23.0154105  86.4753160  51.2589079  23.1610788
  87.6531469  51.8852461  23.8768257  79.2462526  58.1015388  37.1059286
  80.1093987  57.7452193  37.3162611  78.6727936  57.7629283  37.7934691
  99.0910902  79.7317245  27.9121687  99.7289312  79.6123992  27.2085027
  98.9731745  80.6798089  27.9709640  95.9000609  79.6844673  27.8483212
  95.5619120  79.5685737  26.9603747  96.7690377  79.2835838  27.8284218
  91.7587424  81.5380149  23.8380103  91.1952290  81.4470086  23.0696391
  91.6439819  80.7180054  24.3182596  96.3820392  80.8379524  33.8069418
  96.3709032  80.4432323  32.9349921  96.5441031  80.1045597  34.4003189
  89.3051856  83.0331341  26.6764324  90.0973148  82.6922165  26.2610623
  89.5448507  83.1426316  27.5966477  97.3386983  85.2051117  19.1494568
  96.6874963  85.7905197  18.7628582  98.1331346  85.7357312  19.2089605
  91.2642610  82.2940254  19.5481702  92.0373486  81.7469241  19.4094578
  91.6168009  83.1584503  19.7596164  93.1027653  83.6216636  32.7548602
  92.8117519  84.5262267  32.6395268  93.7384637  83.6633164  33.4692671
  94.0283860  80.9993485  29.3449961  94.6247432  80.7749507  28.6306924
  94.0858831  80.2578230  29.9475409  93.6008888  78.4532920  17.1800152
  93.8534409  77.9314441  16.4183615  92.6633447  78.2899066  17.2826836
  98.6452171  77.4568698  24.9874895  99.4315260  77.0388122  24.6365312
  98.9090875  78.3614791  25.1556544  98.8162248  82.8941549  19.6863552
  98.1808081  82.9676175  20.3984457  98.4859655  83.4835148  19.0082632
 104.0460598  77.3943932  25.8907874 104.7785770  76.8243148  26.1245703
 103.2899954  77.0065532  26.3314380  93.3205177  80.3561026  19.3824527
  93.2041435  79.6805929  20.0505612  93.4307437  79.8693400  18.5656680
  95.6636718  79.8171173  23.0871216  95.2994925  79.2901794  23.7984138
  96.5203834  79.4269642  22.9137702 101.5686018  71.1065506  30.3502483
 101.2369343  71.9760917  30.1263698 100.9731632  70.7901790  31.0296513
  95.3042205  74.8461073  18.0832565  95.4716607  75.7141309  18.4503036
  95.1139374  75.0088355  17.1593854  98.0617538  83.3078052  29.7498395
  97.7618261  84.2103091  29.6414203  97.7168597  83.0410235  30.6019548
  91.5130019  79.7591849  25.7835100  90.5880516  79.6268063  25.9912792
  91.7614433  80.5386068  26.2805042 101.4614682  75.8260592  27.4295833
 100.5531559  75.7576000  27.1354594 101.4102278  76.3032537  28.2577658
  95.2831426  77.3018730  19.0679232  95.1631051  77.7475781  19.9064712
  94.5884014  77.6504048  18.5092770  88.8738830  79.4025122  26.6178889
  89.0031212  79.6559601  27.5318301  88.1936282  79.9952830  26.2983544
  93.0438318  90.0722372  22.7169363  92.9662347  91.0230197  22.7957844
  92.4399961  89.7268245  23.3744289  95.5355548  77.2450238  35.3730730
  94.7588882  77.8044158  35.3633595  96.1746111  77.7307021  35.8945600
 103.3276328  74.0277030  29.2073707 102.6850708  74.3209564  28.5613501
 102.8231257  73.9129951  30.0126903 100.9816492  77.7740204  19.8959566
 101.8934348  78.0067590  19.7207263 100.4726139  78.3577248  19.3334644
  93.7901920  80.0535691  34.9348697  94.5316604  80.5920735  34.6583521
  93.0838905  80.6801980  35.0920249  99.2657259  82.1964831  33.5320858
  99.6740615  81.7547242  32.7875491  98.5434521  81.6217459  33.7855051
  95.6188330  77.1337438  30.9054415  96.4649525  77.5576852  31.0489064
  95.5586967  76.4771062  31.5992978  99.5886074  82.7566022  27.2873147
  98.9594937  82.9211736  26.5849215  99.2011736  83.1707632  28.0584111
 103.4675306  83.6920460  24.6417511 102.7826344  84.0719361  24.0914544
 103.5519155  84.3015786  25.3749459  98.7687775  74.7941806  32.5635589
  98.5248707  75.5483867  32.0269865  99.0447705  75.1727154  33.3982836
 100.7226238  81.3380419  31.2412855 100.9343133  81.9812179  30.5647236
 100.6755986  80.5042735  30.7734785  98.3252467  73.9498240  28.1449427
  97.4636946  74.2479493  28.4366164  98.3514901  74.1668638  27.2130459
  95.1414036  82.4940430  24.5523232  95.6052382  82.7728133  23.7627855
  94.8770834  81.5923875  24.3696323  92.0338117  82.0411912  27.4902996
  92.6039474  82.4699180  26.8520480  92.6246229  81.7594496  28.1887181
  94.0782922  78.6163582  21.3612798  94.7806965  79.0684626  21.8286724
  93.7463551  77.9747401  21.9892691  92.5263284  77.2075339  35.7364007
  91.8961944  77.8891620  35.9699404  92.4199371  77.0958421  34.7917145
  87.8208256  76.8747135  26.6629931  87.0307310  77.1304664  26.1870042
  88.3119503  77.6895473  26.7681972 101.8372066  84.2152374  29.4135212
 102.6589509  83.8132562  29.1317894 101.8334468  84.1120608  30.3651328
  89.7723001  77.2391714  23.6213408  88.9754165  77.3510409  24.1396903
  89.5448594  77.5778367  22.7554298  95.6028669  83.7636418  31.5695922
  95.6673102  84.2256825  32.4054094  94.8939593  83.1333783  31.6978232
  86.1045959  77.1277626  29.0944922  86.3553997  78.0124635  29.3602498
  86.6405507  76.9482227  28.3220014 109.9278059  80.5591123  25.7620183
 109.1741767  79.9898521  25.6064188 110.0625600  80.5253787  26.7090818
  95.3176687  85.4304525  21.4374903  95.1822361  86.2756061  21.8659751
  95.8586499  85.6323803  20.6740837  91.8044026  71.5096105  38.0989258
  91.4110972  70.9562303  38.7736902  92.6210167  71.8206683  38.4895775
  88.7706084  82.9479963  22.0102828  89.2830605  83.7423213  22.1608393
  89.4228797  82.2506254  21.9436429  90.5800969  86.0645719  24.0925581
  90.7567597  86.9863684  23.9046565  91.3757802  85.7504139  24.5219961
  94.7211987  72.9253984  35.6909515  95.4621701  73.5261137  35.6113977
  94.9529910  72.1831622  35.1327557  89.8653325  78.1110351  33.9687744
  89.7506840  77.2095609  34.2694843  89.0097843  78.3574048  33.6172561
  96.9445163  86.0528092  35.5675245  96.5009017  85.2664470  35.2496149
  97.6062377  86.2407242  34.9019136  91.7032284  87.5823893  30.0935923
  92.2539709  87.4540957  29.3212917  90.8643760  87.8818782  29.7430816
  99.0426401  86.3330892  33.5956646  99.0244876  87.1539773  33.1036915
  99.9646321  86.2084967  33.8206787  95.4999455  83.8475021  34.4380154
  96.0327792  83.0863309  34.2079462  94.9713536  83.5548673  35.1804309
  98.6669150  68.9535087  29.9673796  98.3233420  69.8436729  29.8912907
  99.0348113  68.7636745  29.1043381  86.7355001  81.2768617  22.7862398
  87.5730223  81.6865626  22.5696106  86.9133269  80.3368060  22.7562592
  98.6319433  78.9443698  18.4746231  98.1166056  79.7148303  18.7134619
  98.3596741  78.2708834  19.0979293  96.2166544  73.7893399  23.5331470
  95.3608140  73.4000249  23.3537108  96.6293496  73.8685360  22.6731255
  97.7465691  71.3239742  27.9323029  97.2430486  71.2869877  27.1190835
  98.0396297  72.2332485  27.9919686  93.9908576  71.4078472  26.9389211
  94.8561573  71.2121281  26.5795101  94.0586085  71.1788824  27.8658568
 103.6053707  81.6976053  20.4099405 102.8283150  81.3587212  19.9654567
 104.2845188  81.7028676  19.7354370  98.4205736  76.8170790  20.3006012
  98.1155872  77.1316939  21.1516156  99.3736178  76.8952210  20.3433345
  96.8652168  82.9761013  21.9498966  96.3373530  82.2413773  21.6372204
  96.3639671  83.7535690  21.7038935 101.8445014  81.1710034  27.0666013
 101.1868688  81.8609295  27.1546141 102.6485413  81.5606466  27.4099999
  91.5970896  73.6380680  24.3105578  92.1714647  73.4155861  23.5778771
  92.1841878  73.7069374  25.0634179 100.6550473  79.5254407  25.1169955
 101.1682355  80.1584398  25.6191664 101.3051697  78.9255602  24.7513315
  91.9240483  75.6685141  18.3301463  91.0877795  76.0059827  18.6510738
  91.7845252  75.5334121  17.3928600  93.8993563  70.5121929  23.0380647
  93.2457976  70.1970946  22.4137262  93.8574037  69.8897669  23.7640470
  95.0104768  80.7941224  14.9533939  94.1031830  80.5630477  15.1525088
  95.5075800  79.9978843  15.1407921  97.9172847  89.5038731  17.8730626
  97.2434546  89.8070428  18.4815583  98.3038669  90.3067811  17.5236083
  97.1331304  77.0003862  27.3628295  96.2153865  77.2218809  27.2049983
  97.5491447  77.0750173  26.5040002  97.9166351  78.3995278  22.4930975
  98.6638170  78.9116675  22.1838097  98.1857941  78.0779331  23.3535369
  96.1893002  80.8953819  19.4757930  95.2804221  80.6112851  19.5730399
  96.2188085  81.3152897  18.6161236 101.4212269  84.5060408  23.2449097
 100.9674596  83.6651318  23.3014288 100.7906236  85.1421806  23.5823877
 100.3645189  75.4352394  24.4749765  99.6267945  74.9229780  24.8060007
 100.6171962  74.9952776  23.6633041  99.8645208  86.3436905  24.1798915
 100.1568183  86.9041962  23.4611281 100.3743829  86.6365466  24.9352074
 100.4656816  68.2128646  25.0691534 100.7715693  67.3526010  24.7817449
 101.1909421  68.8046266  24.8690528  86.7581172  78.6159333  23.4573132
  86.5605572  78.0228693  22.7324198  86.2027836  78.3111543  24.1749071
  94.7377896  78.5082439  25.5767725  94.7926505  77.5556276  25.5010202
  93.9269098  78.6641878  26.0609023  95.8869089  82.4362562  16.8146008
  95.4488519  81.7198421  16.3551646  96.6279530  82.6638677  16.2531100
  92.6770256  77.1259499  23.3358104  91.8638121  77.4253670  23.7423296
  93.1729250  76.7315188  24.0532586  94.8278833  87.1217256  25.2692368
  94.7855012  87.3478102  24.3400901  95.7441532  86.8880630  25.4178170
  98.2744467  77.5901323  32.1672998  98.6293855  77.8172797  33.0267463
  98.9216598  77.9219700  31.5450253 104.0042204  80.7119759  22.8722327
 103.8660103  80.9021355  21.9443516 103.6478423  81.4739142  23.3290378
  92.1684330  74.6977854  28.9519339  92.8083710  74.5566614  28.2542302
  91.3361861  74.4112368  28.5757941 104.0311584  82.7796286  27.8833598
 104.4648090  82.6871575  28.7316652 104.7443164  82.7553787  27.2453614
  92.9444634  83.9980285  25.0654331  93.7385233  83.5030605  24.8636906
  92.2336327  83.4698148  24.7022037  97.7639479  86.3798380  29.4166699
  97.8176501  86.9489317  30.1844415  96.8954260  86.5500265  29.0520736
  89.2527398  78.1423367  21.1414084  88.3224986  78.0807822  21.3584046
  89.3484870  77.6199319  20.3450725  89.1712947  74.6678179  23.7292326
  89.4319764  75.5823513  23.6201486  89.9930119  74.2002622  23.8788938
  90.6437872  76.0815937  30.8991150  91.3160925  75.8733299  30.2503799
  89.8167659  75.8838023  30.4596382 104.8927133  82.8219987  30.4166484
 105.0863023  83.7265797  30.6625759 104.7927751  82.3627406  31.2505069
  96.5463444  72.7077878  32.9156811  95.8991359  73.4067827  32.8221287
  97.3164459  73.1414021  33.2833059  99.9542242  82.9726730  35.9907364
  99.8027748  82.7437281  35.0737448  99.9446921  83.9297331  36.0038709
  96.7227578  80.5458642  30.9753631  97.6519638  80.6969802  30.8022598
  96.3018608  80.6342663  30.1202277  95.5215910  84.5709307  28.7452168
  95.3826996  84.2028091  29.6178106  94.7330506  85.0856946  28.5736126
  96.1164062  89.6718403  20.0877705  96.2915818  89.2006447  20.9023328
  95.4296850  90.2984170  20.3158966  97.0721125  83.9490910  26.1341006
  96.7370958  83.9091680  27.0298656  96.5725071  83.2835625  25.6611416
  91.0465369  79.3558540  31.6593587  90.9085167  78.6238778  32.2605126
  91.9570293  79.2667440  31.3777775 100.0080317  81.2946944  16.4078066
  99.3909488  80.5693772  16.3111118  99.5396805  82.0556304  16.0645140
  93.6747670  79.0678499  31.1477267  94.3847289  78.4271691  31.1063885
  93.6316978  79.3191394  32.0703448 101.6634449  86.0045852  34.0683846
 101.6046995  85.3205072  33.4014429 102.0653967  86.7464842  33.6164472
  92.3876604  76.0543717  32.9672906  91.8513961  75.6034455  33.6194503
  91.7993312  76.1889626  32.2243371  90.6825147  92.8207766  26.8617565
  90.9221746  93.4526290  27.5396584  89.8394344  92.4695806  27.1482924
  91.7978863  75.5132368  15.5299370  90.9208329  75.3921169  15.1661617
  92.2736616  74.7218447  15.2778259 101.6651856  83.9685436  32.2997826
 100.7778635  83.6311358  32.4224225 102.2350407  83.2368467  32.5366591
  83.3181003  80.3009528  25.6240877  84.0052043  79.9871258  25.0361892
  83.1629132  81.2050893  25.3508129  88.1215725  75.1899725  30.0525901
  88.0373914  74.5825394  29.3176311  87.2998432  75.6808743  30.0535397
  95.1953009  88.6286889  29.2659069  95.1223181  89.4341860  29.7778374
  94.7530402  88.8278854  28.4407090  94.9842789  87.8658659  22.7761891
  94.2010311  88.4080339  22.8700115  95.6835534  88.3832638  23.1756132
  98.2939439  73.6753288  25.4196096  98.7908139  72.9223250  25.0997166
  97.5226421  73.7117605  24.8539305 106.1469196  79.3793654  27.0614387
 106.1359073  80.2618369  26.6908321 105.2786576  79.0265204  26.8668924
  97.6551693  88.5273723  31.4217228  98.3679665  89.1621187  31.3493129
  97.1641721  88.6237589  30.6057229  99.3769220  82.4324975  22.9934519
  98.4425498  82.5526438  22.8239224  99.5545888  81.5297442  22.7294529
  94.8774408  75.8170671  25.1467781  94.5072195  75.2641711  25.8348686
  95.3733500  75.2128805  24.5942781 102.7641771  78.2742295  23.5284553
 103.2302223  79.1070286  23.4544856 103.2149272  77.8087276  24.2329812
  92.7063606  86.2768166  32.2422798  93.4073066  86.9104649  32.3952193
  92.2358721  86.6182898  31.4818438 100.8318002  84.6186116  20.5270706
 101.1077846  84.5042710  21.4364580  99.9622501  84.2203601  20.4882879
 100.7358434  70.6422882  27.5675455  99.8221514  70.8727108  27.7357662
 101.1651535  70.7261326  28.4189487 100.5064892  78.8312774  30.0675349
  99.8536343  79.0788681  29.4127802 100.8845272  78.0176912  29.7337826
  97.4672066  88.8672467  24.1703519  97.6494461  88.0494123  24.6331271
  98.2905052  89.0840159  23.7328409  97.8014232  87.7940652  21.4318568
  98.3301998  87.2833106  20.8188730  98.0642451  87.4783182  22.2964101
  96.5552465  79.5732585  36.5541386  95.8793102  79.4726714  37.2243761
  97.3780099  79.4171798  37.0177383  88.3031324  85.8104521  29.1753901
  88.8884761  85.0648209  29.3081805  88.1056163  86.1208478  30.0590565
  91.1569980  88.8455768  24.1916344  90.4880355  89.3301896  23.7080384
  91.0182849  89.0924989  25.1059722  82.8948979  78.3810121  27.8958344
  82.9333079  77.8473712  28.6895462  82.3889272  77.8545327  27.2769321
  95.2975248  90.8799512  30.7899002  95.8493556  91.0431134  31.5548087
  95.6381442  91.4703950  30.1179027  90.2739741  73.2274662  31.3920887
  90.3381068  74.0889493  30.9798284  90.2106862  72.6148663  30.6593245
  89.7492014  75.2997794  35.0393921  90.3764053  74.9174872  35.6531445
  88.8919933  75.0811996  35.4049613 100.1486123  85.7060770  36.6447656
 100.6926027  86.3190728  36.1502611  99.5672967  86.2640348  37.1614669
  86.5257557  77.1074223  20.9712276  86.8210998  76.1984902  20.9179329
  85.6245593  77.0861963  20.6493278  98.4343636  88.8281488  27.7762684
  98.3094775  88.0271227  27.2673630  99.0922727  89.3227681  27.2876654
  90.0551804  75.1830220  26.9539824  89.3338390  75.7966188  26.8147298
  90.8445060  75.7187985  26.8756470 100.4978544  86.6290508  29.4042234
  99.5508879  86.5095859  29.3320561 100.8461317  85.7413006  29.4868496
  92.8578117  72.5184647  33.2280476  93.3812519  72.7646943  33.9906785
  92.6390451  73.3504681  32.8083613  88.2545398  74.7888321  21.0951601
  87.9258104  73.9085700  20.9126707  88.6084769  74.7335990  21.9827990
  97.5024977  86.4243224  25.6046586  97.3549940  85.4959931  25.7854156
  98.3278471  86.4463315  25.1203662  91.3687221  75.0761291  21.4627079
  91.7083294  75.6047212  20.7405687  91.8159342  75.4141697  22.2385645
 101.1059099  87.2471783  26.6911459 102.0305647  87.0414644  26.5535910
 100.9374402  86.9988184  27.6000801  94.0630662  73.4598342  30.9130147
  93.7227483  72.6606155  31.3150826  93.3569669  73.7600052  30.3406980
  94.7147134  70.5447654  29.3657470  95.5373203  70.0708132  29.2436360
  94.9585198  71.3238138  29.8656156  93.3555369  73.5735913  19.6620371
  94.0763731  73.9517165  19.1584088  92.7320673  74.2924789  19.7655349
  97.4986492  74.2781061  20.5978704  97.7150106  75.1605699  20.2967532
  97.0180559  73.8867275  19.8684346  92.2385713  77.2366775  27.1749448
  92.0930294  77.5507078  28.0673730  91.7610917  77.8551675  26.6220347
  94.0982096  74.2269323  27.2230338  94.0843665  73.3310416  26.8862636
  94.8154524  74.2339986  27.8568624  95.9508227  74.6606663  29.2683465
  95.6926004  75.5823734  29.2667796  95.4193267  74.2637097  29.9583929
 100.8954415  87.7657450  22.0473551 101.0691293  87.2003873  21.2947403
 101.3883306  88.5658345  21.8653041  86.7131375  79.7772119  30.1137109
  86.1684843  80.5531927  30.2457384  87.5910725  80.1242924  29.9556231
  93.5018992  73.1083703  22.4917908  93.6234903  72.1800349  22.6908795
  93.2121034  73.1222389  21.5796223  96.3710182  70.7938613  25.6284628
  96.3931879  70.8577946  24.6736607  96.7878241  69.9543122  25.8225134
 106.7493806  80.5293873  23.6663850 107.1924952  79.7801198  23.2682974
 105.8720317  80.5204009  23.2837582 101.8829588  87.0824214  19.1470449
 102.5780492  87.7030907  19.3657764 102.2252738  86.2319566  19.4222827
  87.4997397  78.9042015  33.0067266  86.7579133  79.0524651  33.5931897
  87.1790141  79.1650281  32.1434016 103.7821011  84.5323920  20.6757780
 104.3072335  84.8711193  19.9507100 103.6943363  83.5970935  20.4920914
  95.4441060  88.4457994  32.8047656  95.7528186  88.2007140  33.6770356
  96.2416542  88.6504632  32.3166527  95.4661672  90.5995903  25.0353033
  95.0266662  90.1072282  25.7285890  96.2169789  90.0568871  24.7945108
  87.9454011  86.7907444  25.0377661  88.7712031  86.4911216  24.6576304
  87.5948063  86.0215067  25.4867450  92.9135544  86.1433912  27.1075335
  92.2915553  85.4804617  26.8077562  93.5840411  86.1695044  26.4248982
  86.1462616  84.7093771  25.9966594  85.3094524  84.2815945  25.8150596
  86.1186261  84.9026214  26.9337386  92.9860071  74.6215700  36.7007841
  93.0348227  75.4977823  36.3185610  93.5282585  74.0793093  36.1279484
 103.4714917  85.1656824  35.9808978 102.6810461  85.1480962  35.4413477
 103.2348272  85.7045117  36.7358014 103.5912792  82.0149290  33.2941706
 103.6410797  81.8499297  34.2357229 103.4826715  81.1476549  32.9039587
  92.4749051  84.6937836  20.5833795  92.6237171  85.3773300  19.9300468
  93.2815494  84.6742926  21.0983251 100.8816554  77.9980218  34.6101013
 101.7826417  77.8586683  34.3185011 100.9564529  78.1634673  35.5499190
  95.2159360  75.3747073  33.4554199  94.3462669  75.6680639  33.1836788
  95.4518840  75.9587518  34.1761463 105.0930989  84.4346231  33.5383728
 104.8015797  84.7976212  34.3747189 104.4803120  83.7213240  33.3597060
 106.2926671  81.9999111  26.0586298 107.1273563  82.4388915  26.2223858
 106.4285800  81.5237764  25.2394544 103.3418177  79.5578846  32.0063786
 103.8172299  79.7506492  31.1982637 102.4183742  79.6138032  31.7607169
  90.2301684  80.7203013  21.5894864  89.9847726  79.8165343  21.7875074
  90.3997598  80.7220164  20.6474342  97.9198394  71.5926690  30.9719620
  98.4380337  72.3287717  30.6466108  97.5653526  71.8990683  31.8066379
  89.4997331  76.4531371  19.0881025  88.8066576  76.5275726  18.4321061
  89.2549083  75.6891715  19.6102542  98.1710988  68.0126972  26.4920516
  98.4512741  67.3450161  27.1180943  98.9561595  68.2056068  25.9795180
  95.9744456  87.1885966  18.0545542  95.4018423  87.8076153  17.6016014
  96.5477250  87.7385328  18.5885464 102.0419846  76.4344606  30.2392091
 102.9937269  76.5342704  30.2604315 101.8723296  75.6422875  30.7490176
 100.0634226  73.5200189  30.4251492  99.4684158  73.8005202  29.7297981
  99.7783922  74.0094090  31.1968233  99.1941716  87.4723116  19.1854125
 100.1272389  87.4068678  19.3887000  99.1064929  88.3079383  18.7268657
 101.8229733  86.7888987  16.1458072 101.7443364  86.4548850  17.0393830
 102.6439399  87.2810754  16.1449545 104.5207924  79.6550726  29.3534391
 104.4884244  78.7166727  29.5394075 105.1308547  79.7334763  28.6200216
  96.3591255  78.5246779  15.3961595  97.3050359  78.3952987  15.4650013
  95.9805500  77.7861441  15.8731023 104.6702412  76.4461769  29.3992674
 104.1541461  75.6620226  29.2122603 105.5542361  76.1180486  29.5639194
 102.3313139  70.1902785  25.3588487 102.1337960  69.8817873  26.2431819
 102.9412845  70.9164424  25.4886417 110.3384474  80.7166733  28.4940428
 111.0687862  80.4552021  29.0548131 109.7291419  79.9795455  28.5342496
 108.4199771  78.8574595  29.0914879 107.6932934  78.7230560  28.4831371
 108.0047058  79.1651424  29.8971597  96.2429947  82.5764525  36.8562252
  97.1632957  82.7543124  37.0502298  96.2079530  81.6320570  36.7041951
  94.5434172  76.4496755  15.3316480  93.6365627  76.1529868  15.4079194
  94.8210153  76.1526573  14.4650766  85.4612112  77.7703119  25.7815527
  85.1414897  76.9168427  25.4889901  84.9145540  77.9851697  26.5373494
  89.2392020  80.4865560  29.4985033  89.4578030  81.4182667  29.5173067
  89.6517794  80.1273534  30.2839837  96.1596238  70.9933645  21.4860721
  95.3496966  70.6480730  21.8615968  96.8480655  70.6841189  22.0748333
  98.0886786  70.0711692  23.1085018  98.6417824  70.4907145  23.7675041
  98.3256872  69.1447440  23.1507974  94.1119885  76.0598765  38.8887782
  94.0116612  77.0093122  38.8199873  93.8941427  75.7317004  38.0163852
  93.3132956  73.3083690  15.4728459  94.1752120  73.6338589  15.7324277
  93.4983301  72.5215186  14.9601525  85.3300372  81.3906030  27.7508648
  84.6363844  80.9759983  27.2378603  86.0773363  81.4326567  27.1542067
 101.4665593  72.1812217  22.6163682 100.8864262  72.8397021  22.2341735
 101.2001526  71.3589562  22.2051100  99.9169159  71.5817275  24.8185003
 100.4168938  71.6933809  24.0099322 100.5604767  71.2778327  25.4585811
  93.9751155  79.4895904  37.7052844  93.4918237  80.2896264  37.9116733
  94.0612094  79.5003849  36.7520288  87.2437115  81.3224284  25.6274663
  87.2207803  81.4211971  24.6756546  87.5537751  82.1689435  25.9491829
  89.9024493  83.3800439  29.7421277  90.8567746  83.3484381  29.6751209
  89.7037016  82.9191063  30.5571503  90.4923875  81.9501555  32.3092075
  91.3116764  82.4445634  32.3326912  90.7660682  81.0333523  32.2809643
 100.2490471  74.3412307  21.6720031  99.3616326  74.6261958  21.4540225
 100.6644460  74.1806071  20.8247308 103.6005007  74.3658828  25.3874370
 104.3765397  74.8555281  25.6598987 102.8753141  74.7916882  25.8446239
 106.0377566  75.0786448  26.4448311 106.6322057  74.8382183  25.7341619
 106.1104149  74.3593578  27.0721847  88.2574721  88.9220058  26.7591475
  88.1229189  88.1620459  26.1929473  87.8406784  89.6460958  26.2920264
  99.3933684  84.1056982  15.7668051 100.0969535  84.3106984  16.3825706
  98.6696333  84.6733744  16.0317134 100.2231495  79.8566843  21.8870321
 100.1666696  80.3135395  21.0477953 100.7759837  79.0957528  21.7093164
 104.0336301  75.6456575  22.7120440 103.7773235  75.2453211  23.5428648
 103.4089169  76.3600369  22.5870579 108.3448638  78.3852648  25.2191732
 107.7848196  78.4545838  25.9923294 107.7392142  78.2093633  24.4991228
  91.4143847  89.8189375  26.9709918  91.2976231  90.7634808  26.8688608
  90.5936294  89.5162937  27.3595717 101.3020382  84.5439511  17.8166511
 102.1365986  84.1120710  17.6343985 101.1404725  84.3721525  18.7443405
 100.9566274  81.0471624  19.1822850 100.9015078  80.8815896  18.2411294
 100.3312329  81.7547657  19.3385040  85.7458789  76.2839689  33.0084272
  86.3917653  75.7738643  33.4971497  85.5375940  77.0208371  33.5827697
  98.2712181  83.3520536  38.5076413  99.1403341  83.5261189  38.1463048
  97.7918933  84.1714953  38.3852142  94.2662399  70.5479733  18.7608168
  94.2541069  71.4921573  18.9176439  95.1585821  70.3649879  18.4667630
  92.4398361  90.4717637  30.1865846  93.3425608  90.5041248  30.5032341
  92.2135731  89.5418088  30.2012182  94.1951963  89.2248624  26.8475925
  93.2447594  89.2250486  26.7340297  94.4984450  88.4781358  26.3311960
  98.0814519  67.1422510  23.0154105  97.3146915  66.5880997  23.1610788
  98.4925224  67.2144379  23.8768257  90.0856280  73.4307306  37.1059286
  90.9487742  73.0744111  37.3162611  89.5121691  73.0921201  37.7934691
 109.9304657  95.0609162  27.9121687 110.5683067  94.9415910  27.2085027
 109.8125500  96.0090006  27.9709640 106.7394363  95.0136590  27.8483212
 106.4012875  94.8977655  26.9603747 107.6084131  94.6127755  27.8284218
 102.5981179  96.8672067  23.8380103 102.0346044  96.7762004  23.0696391
 102.4833574  96.0471971  24.3182596 107.2214146  96.1671442  33.8069418
 107.2102787  95.7724240  32.9349921 107.3834786  95.4337515  34.4003189
 100.1445611  98.3623258  26.6764324 100.9366903  98.0214083  26.2610623
 100.3842261  98.4718233  27.5966477 108.1780738 100.5343035  19.1494568
 107.5268717 101.1197115  18.7628582 108.9725100 101.0649229  19.2089605
 102.1036365  97.6232172  19.5481702 102.8767241  97.0761159  19.4094578
 102.4561764  98.4876421  19.7596164 103.9421407  98.9508554  32.7548602
 103.6511273  99.8554185  32.6395268 104.5778392  98.9925082  33.4692671
 104.8677614  96.3285402  29.3449961 105.4641186  96.1041425  28.6306924
 104.9252586  95.5870148  29.9475409 104.4402643  93.7824838  17.1800152
 104.6928163  93.2606359  16.4183615 103.5027202  93.6190983  17.2826836
 109.4845925  92.7860616  24.9874895 110.2709015  92.3680039  24.6365312
 109.7484630  93.6906708  25.1556544 109.6556003  98.2233466  19.6863552
 109.0201836  98.2968093  20.3984457 109.3253409  98.8127065  19.0082632
 114.8854353  92.7235849  25.8907874 115.6179524  92.1535066  26.1245703
 114.1293708  92.3357450  26.3314380 104.1598931  95.6852944  19.3824527
 104.0435189  95.0097847  20.0505612 104.2701191  95.1985318  18.5656680
 106.5030472  95.1463091  23.0871216 106.1388680  94.6193712  23.7984138
 107.3597588  94.7561560  22.9137702 112.4079773  86.4357423  30.3502483
 112.0763098  87.3052834  30.1263698 111.8125386  86.1193707  31.0296513
 106.1435959  90.1752991  18.0832565 106.3110362  91.0433227  18.4503036
 105.9533128  90.3380272  17.1593854 108.9011292  98.6369969  29.7498395
 108.6012016  99.5395008  29.6414203 108.5562352  98.3702153  30.6019548
 102.3523774  95.0883766  25.7835100 101.4274270  94.9559980  25.9912792
 102.6008187  95.8677986  26.2805042 112.3008436  91.1552510  27.4295833
 111.3925314  91.0867918  27.1354594 112.2496032  91.6324455  28.2577658
 106.1225180  92.6310648  19.0679232 106.0024805  93.0767699  19.9064712
 105.4277769  92.9795966  18.5092770  99.7132585  94.7317040  26.6178889
  99.8424966  94.9851519  27.5318301  99.0330036  95.3244748  26.2983544
 103.8832072 105.4014290  22.7169363 103.8056102 106.3522115  22.7957844
 103.2793716 105.0560162  23.3744289 106.3749302  92.5742155  35.3730730
 105.5982636  93.1336075  35.3633595 107.0139865  93.0598938  35.8945600
 114.1670083  89.3568948  29.2073707 113.5244463  89.6501481  28.5613501
 113.6625011  89.2421868  30.0126903 111.8210246  93.1032121  19.8959566
 112.7328102  93.3359508  19.7207263 111.3119893  93.6869165  19.3334644
 104.6295674  95.3827609  34.9348697 105.3710359  95.9212653  34.6583521
 103.9232660  96.0093897  35.0920249 110.1051014  97.5256749  33.5320858
 110.5134370  97.0839160  32.7875491 109.3828275  96.9509377  33.7855051
 106.4582084  92.4629356  30.9054415 107.3043279  92.8868769  31.0489064
 106.3980722  91.8062980  31.5992978 110.4279829  98.0857940  27.2873147
 109.7988691  98.2503654  26.5849215 110.0405491  98.4999549  28.0584111
 114.3069060  99.0212378  24.6417511 113.6220099  99.4011279  24.0914544
 114.3912910  99.6307704  25.3749459 109.6081529  90.1233724  32.5635589
 109.3642461  90.8775785  32.0269865 109.8841460  90.5019072  33.3982836
 111.5619992  96.6672337  31.2412855 111.7736887  97.3104096  30.5647236
 111.5149740  95.8334653  30.7734785 109.1646221  89.2790157  28.1449427
 108.3030700  89.5771411  28.4366164 109.1908656  89.4960556  27.2130459
 105.9807790  97.8232348  24.5523232 106.4446136  98.1020051  23.7627855
 105.7164589  96.9215792  24.3696323 102.8731872  97.3703829  27.4902996
 103.4433229  97.7991098  26.8520480 103.4639983  97.0886414  28.1887181
 104.9176677  93.9455500  21.3612798 105.6200720  94.3976544  21.8286724
 104.5857305  93.3039319  21.9892691 103.3657038  92.5367257  35.7364007
 102.7355699  93.2183538  35.9699404 103.2593126  92.4250338  34.7917145
  98.6602010  92.2039053  26.6629931  97.8701064  92.4596581  26.1870042
  99.1513258  93.0187391  26.7681972 112.6765820  99.5444292  29.4135212
 113.4983264  99.1424479  29.1317894 112.6728223  99.4412526  30.3651328
 100.6116756  92.5683632  23.6213408  99.8147919  92.6802326  24.1396903
 100.3842348  92.9070284  22.7554298 106.4422423  99.0928335  31.5695922
 106.5066856  99.5548742  32.4054094 105.7333347  98.4625700  31.6978232
  96.9439713  92.4569543  29.0944922  97.1947752  93.3416553  29.3602498
  97.4799262  92.2774145  28.3220014 120.7671813  95.8883040  25.7620183
 120.0135521  95.3190439  25.6064188 120.9019354  95.8545705  26.7090818
 106.1570441 100.7596443  21.4374903 106.0216116 101.6047978  21.8659751
 106.6980254 100.9615720  20.6740837 102.6437781  86.8388023  38.0989258
 102.2504726  86.2854221  38.7736902 103.4603921  87.1498601  38.4895775
  99.6099839  98.2771881  22.0102828 100.1224359  99.0715131  22.1608393
 100.2622551  97.5798171  21.9436429 101.4194723 101.3937637  24.0925581
 101.5961352 102.3155602  23.9046565 102.2151557 101.0796056  24.5219961
 105.5605742  88.2545902  35.6909515 106.3015455  88.8553055  35.6113977
 105.7923665  87.5123539  35.1327557 100.7047080  93.4402269  33.9687744
 100.5900595  92.5387526  34.2694843  99.8491598  93.6865966  33.6172561
 107.7838918 101.3820009  35.5675245 107.3402772 100.5956388  35.2496149
 108.4456131 101.5699160  34.9019136 102.5426039 102.9115811  30.0935923
 103.0933464 102.7832874  29.3212917 101.7037515 103.2110700  29.7430816
 109.8820156 101.6622809  33.5956646 109.8638631 102.4831690  33.1036915
 110.8040076 101.5376884  33.8206787 106.3393210  99.1766939  34.4380154
 106.8721547  98.4155227  34.2079462 105.8107291  98.8840590  35.1804309
 109.5062905  84.2827005  29.9673796 109.1627174  85.1728646  29.8912907
 109.8741867  84.0928662  29.1043381  97.5748755  96.6060535  22.7862398
  98.4123977  97.0157543  22.5696106  97.7527023  95.6659977  22.7562592
 109.4713187  94.2735616  18.4746231 108.9559811  95.0440220  18.7134619
 109.1990496  93.6000752  19.0979293 107.0560298  89.1185317  23.5331470
 106.2001895  88.7292167  23.3537108 107.4687250  89.1977277  22.6731255
 108.5859445  86.6531660  27.9323029 108.0824241  86.6161795  27.1190835
 108.8790052  87.5624403  27.9919686 104.8302331  86.7370390  26.9389211
 105.6955328  86.5413198  26.5795101 104.8979840  86.5080741  27.8658568
 114.4447462  97.0267970  20.4099405 113.6676904  96.6879130  19.9654567
 115.1238943  97.0320594  19.7354370 109.2599491  92.1462708  20.3006012
 108.9549626  92.4608857  21.1516156 110.2129933  92.2244128  20.3433345
 107.7045922  98.3052931  21.9498966 107.1767284  97.5705691  21.6372204
 107.2033425  99.0827607  21.7038935 112.6838768  96.5001952  27.0666013
 112.0262443  97.1901213  27.1546141 113.4879168  96.8898384  27.4099999
 102.4364650  88.9672597  24.3105578 103.0108402  88.7447779  23.5778771
 103.0235633  89.0361292  25.0634179 111.4944227  94.8546324  25.1169955
 112.0076109  95.4876316  25.6191664 112.1445451  94.2547520  24.7513315
 102.7634237  90.9977058  18.3301463 101.9271549  91.3351745  18.6510738
 102.6239007  90.8626038  17.3928600 104.7387318  85.8413846  23.0380647
 104.0851730  85.5262864  22.4137262 104.6967792  85.2189587  23.7640470
 105.8498523  96.1233141  14.9533939 104.9425584  95.8922395  15.1525088
 106.3469555  95.3270761  15.1407921 108.7566602 104.8330649  17.8730626
 108.0828300 105.1362345  18.4815583 109.1432423 105.6359729  17.5236083
 107.9725058  92.3295780  27.3628295 107.0547620  92.5510727  27.2049983
 108.3885202  92.4042090  26.5040002 108.7560106  93.7287196  22.4930975
 109.5031925  94.2408593  22.1838097 109.0251695  93.4071248  23.3535369
 107.0286756  96.2245736  19.4757930 106.1197975  95.9404769  19.5730399
 107.0581840  96.6444815  18.6161236 112.2606023  99.8352326  23.2449097
 111.8068351  98.9943236  23.3014288 111.6299990 100.4713724  23.5823877
 111.2038943  90.7644312  24.4749765 110.4661700  90.2521698  24.8060007
 111.4565717  90.3244693  23.6633041 110.7038963 101.6728822  24.1798915
 110.9961937 102.2333880  23.4611281 111.2137583 101.9657383  24.9352074
 111.3050570  83.5420564  25.0691534 111.6109447  82.6817927  24.7817449
 112.0303175  84.1338184  24.8690528  97.5974926  93.9451250  23.4573132
  97.3999326  93.3520611  22.7324198  97.0421590  93.6403461  24.1749071
 105.5771650  93.8374357  25.5767725 105.6320260  92.8848193  25.5010202
 104.7662852  93.9933796  26.0609023 106.7262844  97.7654480  16.8146008
 106.2882274  97.0490339  16.3551646 107.4673285  97.9930595  16.2531100
 103.5164010  92.4551417  23.3358104 102.7031876  92.7545587  23.7423296
 104.0123004  92.0607105  24.0532586 105.6672588 102.4509174  25.2692368
 105.6248767 102.6770020  24.3400901 106.5835287 102.2172548  25.4178170
 109.1138222  92.9193241  32.1672998 109.4687609  93.1464714  33.0267463
 109.7610353  93.2511618  31.5450253 114.8435959  96.0411677  22.8722327
 114.7053857  96.2313273  21.9443516 114.4872177  96.8031060  23.3290378
 103.0078085  90.0269772  28.9519339 103.6477464  89.8858531  28.2542302
 102.1755615  89.7404286  28.5757941 114.8705338  98.1088204  27.8833598
 115.3041845  98.0163493  28.7316652 115.5836919  98.0845704  27.2453614
 103.7838389  99.3272203  25.0654331 104.5778987  98.8322523  24.8636906
 103.0730081  98.7990066  24.7022037 108.6033233 101.7090298  29.4166699
 108.6570255 102.2781234  30.1844415 107.7348015 101.8792183  29.0520736
 100.0921152  93.4715284  21.1414084  99.1618740  93.4099740  21.3584046
 100.1878624  92.9491237  20.3450725 100.0106701  89.9970097  23.7292326
 100.2713519  90.9115430  23.6201486 100.8323874  89.5294540  23.8788938
 101.4831627  91.4107854  30.8991150 102.1554680  91.2025216  30.2503799
 100.6561413  91.2129940  30.4596382 115.7320888  98.1511905  30.4166484
 115.9256778  99.0557715  30.6625759 115.6321506  97.6919324  31.2505069
 107.3857199  88.0369795  32.9156811 106.7385114  88.7359745  32.8221287
 108.1558214  88.4705939  33.2833059 110.7935997  98.3018647  35.9907364
 110.6421503  98.0729199  35.0737448 110.7840676  99.2589249  36.0038709
 107.5621333  95.8750560  30.9753631 108.4913393  96.0261720  30.8022598
 107.1412363  95.9634581  30.1202277 106.3609665  99.9001225  28.7452168
 106.2220750  99.5320009  29.6178106 105.5724261 100.4148864  28.5736126
 106.9557817 105.0010321  20.0877705 107.1309572 104.5298364  20.9023328
 106.2690605 105.6276087  20.3158966 107.9114880  99.2782827  26.1341006
 107.5764712  99.2383597  27.0298656 107.4118826  98.6127543  25.6611416
 101.8859124  94.6850457  31.6593587 101.7478922  93.9530696  32.2605126
 102.7964047  94.5959357  31.3777775 110.8474071  96.6238862  16.4078066
 110.2303242  95.8985690  16.3111118 110.3790560  97.3848222  16.0645140
 104.5141424  94.3970417  31.1477267 105.2241043  93.7563609  31.1063885
 104.4710733  94.6483311  32.0703448 112.5028203 101.3337770  34.0683846
 112.4440749 100.6496990  33.4014429 112.9047722 102.0756760  33.6164472
 103.2270358  91.3835634  32.9672906 102.6907715  90.9326373  33.6194503
 102.6387067  91.5181543  32.2243371 101.5218902 108.1499684  26.8617565
 101.7615500 108.7818208  27.5396584 100.6788098 107.7987724  27.1482924
 102.6372617  90.8424286  15.5299370 101.7602084  90.7213087  15.1661617
 103.1130370  90.0510364  15.2778259 112.5045610  99.2977354  32.2997826
 111.6172389  98.9603276  32.4224225 113.0744161  98.5660385  32.5366591
  94.1574758  95.6301446  25.6240877  94.8445797  95.3163176  25.0361892
  94.0022886  96.5342810  25.3508129  98.9609480  90.5191642  30.0525901
  98.8767668  89.9117312  29.3176311  98.1392186  91.0100661  30.0535397
 106.0346764 103.9578806  29.2659069 105.9616935 104.7633778  29.7778374
 105.5924157 104.1570772  28.4407090 105.8236543 103.1950576  22.7761891
 105.0404065 103.7372256  22.8700115 106.5229289 103.7124556  23.1756132
 109.1333194  89.0045206  25.4196096 109.6301893  88.2515168  25.0997166
 108.3620175  89.0409522  24.8539305 116.9862951  94.7085571  27.0614387
 116.9752827  95.5910287  26.6908321 116.1180330  94.3557122  26.8668924
 108.4945447 103.8565640  31.4217228 109.2073420 104.4913105  31.3493129
 108.0035476 103.9529506  30.6057229 110.2162974  97.7616893  22.9934519
 109.2819253  97.8818355  22.8239224 110.3939643  96.8589360  22.7294529
 105.7168162  91.1462589  25.1467781 105.3465950  90.5933629  25.8348686
 106.2127255  90.5420722  24.5942781 113.6035526  93.6034212  23.5284553
 114.0695978  94.4362204  23.4544856 114.0543026  93.1379194  24.2329812
 103.5457361 101.6060084  32.2422798 104.2466820 102.2396567  32.3952193
 103.0752476 101.9474815  31.4818438 111.6711757  99.9478034  20.5270706
 111.9471601  99.8334628  21.4364580 110.8016255  99.5495518  20.4882879
 111.5752188  85.9714799  27.5675455 110.6615268  86.2019026  27.7357662
 112.0045290  86.0553243  28.4189487 111.3458647  94.1604691  30.0675349
 110.6930097  94.4080599  29.4127802 111.7239027  93.3468829  29.7337826
 108.3065821 104.1964384  24.1703519 108.4888215 103.3786040  24.6331271
 109.1298807 104.4132077  23.7328409 108.6407986 103.1232569  21.4318568
 109.1695753 102.6125024  20.8188730 108.9036206 102.8075100  22.2964101
 107.3946220  94.9024502  36.5541386 106.7186857  94.8018632  37.2243761
 108.2173854  94.7463716  37.0177383  99.1425079 101.1396439  29.1753901
  99.7278516 100.3940127  29.3081805  98.9449917 101.4500395  30.0590565
 101.9963734 104.1747686  24.1916344 101.3274109 104.6593814  23.7080384
 101.8576604 104.4216907  25.1059722  93.7342734  93.7102039  27.8958344
  93.7726833  93.1765630  28.6895462  93.2283026  93.1837244  27.2769321
 106.1369003 106.2091430  30.7899002 106.6887311 106.3723051  31.5548087
 106.4775196 106.7995868  30.1179027 101.1133496  88.5566579  31.3920887
 101.1774822  89.4181410  30.9798284 101.0500616  87.9440581  30.6593245
 100.5885768  90.6289712  35.0393921 101.2157807  90.2466789  35.6531445
  99.7313687  90.4103914  35.4049613 110.9879877 101.0352687  36.6447656
 111.5319781 101.6482645  36.1502611 110.4066722 101.5932266  37.1614669
  97.3651311  92.4366141  20.9712276  97.6604752  91.5276820  20.9179329
  96.4639347  92.4153881  20.6493278 109.2737390 104.1573405  27.7762684
 109.1488529 103.3563145  27.2673630 109.9316481 104.6519599  27.2876654
 100.8945558  90.5122138  26.9539824 100.1732144  91.1258105  26.8147298
 101.6838814  91.0479903  26.8756470 111.3372298 101.9582425  29.4042234
 110.3902634 101.8387776  29.3320561 111.6855072 101.0704923  29.4868496
 103.6971872  87.8476564  33.2280476 104.2206274  88.0938861  33.9906785
 103.4784205  88.6796599  32.8083613  99.0939153  90.1180239  21.0951601
  98.7651859  89.2377618  20.9126707  99.4478524  90.0627907  21.9827990
 108.3418732 101.7535142  25.6046586 108.1943694 100.8251849  25.7854156
 109.1672225 101.7755232  25.1203662 102.2080976  90.4053209  21.4627079
 102.5477048  90.9339130  20.7405687 102.6553096  90.7433615  22.2385645
 111.9452854 102.5763700  26.6911459 112.8699401 102.3706562  26.5535910
 111.7768157 102.3280101  27.6000801 104.9024417  88.7890259  30.9130147
 104.5621237  87.9898072  31.3150826 104.1963423  89.0891970  30.3406980
 105.5540889  85.8739572  29.3657470 106.3766958  85.4000050  29.2436360
 105.7978952  86.6530056  29.8656156 104.1949123  88.9027830  19.6620371
 104.9157486  89.2809083  19.1584088 103.5714427  89.6216707  19.7655349
 108.3380246  89.6072979  20.5978704 108.5543860  90.4897617  20.2967532
 107.8574313  89.2159193  19.8684346 103.0779467  92.5658692  27.1749448
 102.9324048  92.8798995  28.0673730 102.6004671  93.1843593  26.6220347
 104.9375850  89.5561240  27.2230338 104.9237419  88.6602334  26.8862636
 105.6548278  89.5631904  27.8568624 106.7901981  89.9898581  29.2683465
 106.5319759  90.9115651  29.2667796 106.2587021  89.5929015  29.9583929
 111.7348170 103.0949368  22.0473551 111.9085047 102.5295790  21.2947403
 112.2277061 103.8950263  21.8653041  97.5525130  95.1064037  30.1137109
  97.0078598  95.8823845  30.2457384  98.4304479  95.4534841  29.9556231
 104.3412746  88.4375621  22.4917908 104.4628657  87.5092267  22.6908795
 104.0514789  88.4514307  21.5796223 107.2103937  86.1230531  25.6284628
 107.2325633  86.1869864  24.6736607 107.6271996  85.2835040  25.8225134
 117.5887561  95.8585791  23.6663850 118.0318707  95.1093116  23.2682974
 116.7114071  95.8495927  23.2837582 112.7223342 102.4116132  19.1470449
 113.4174247 103.0322825  19.3657764 113.0646492 101.5611483  19.4222827
  98.3391151  94.2333933  33.0067266  97.5972887  94.3816568  33.5931897
  98.0183896  94.4942199  32.1434016 114.6214765  99.8615838  20.6757780
 115.1466089 100.2003110  19.9507100 114.5337118  98.9262853  20.4920914
 106.2834814 103.7749911  32.8047656 106.5921941 103.5299058  33.6770356
 107.0810296 103.9796550  32.3166527 106.3055426 105.9287821  25.0353033
 105.8660416 105.4364200  25.7285890 107.0563543 105.3860789  24.7945108
  98.7847765 102.1199362  25.0377661  99.6105785 101.8203134  24.6576304
  98.4341817 101.3506984  25.4867450 103.7529298 101.4725830  27.1075335
 103.1309308 100.8096535  26.8077562 104.4234165 101.4986962  26.4248982
  96.9856370 100.0385688  25.9966594  96.1488278  99.6107863  25.8150596
  96.9580016 100.2318132  26.9337386 103.8253826  89.9507618  36.7007841
 103.8741981  90.8269741  36.3185610 104.3676340  89.4085011  36.1279484
 114.3108671 100.4948741  35.9808978 113.5204215 100.4772880  35.4413477
 114.0742026 101.0337035  36.7358014 114.4306546  97.3441208  33.2941706
 114.4804551  97.1791215  34.2357229 114.3220470  96.4768467  32.9039587
 103.3142805 100.0229753  20.5833795 103.4630926 100.7065218  19.9300468
 104.1209249 100.0034843  21.0983251 111.7210309  93.3272136  34.6101013
 112.6220172  93.1878601  34.3185011 111.7958283  93.4926591  35.5499190
 106.0553114  90.7038990  33.4554199 105.1856424  90.9972556  33.1836788
 106.2912595  91.2879435  34.1761463 115.9324743  99.7638149  33.5383728
 115.6409552 100.1268130  34.3747189 115.3196875  99.0505157  33.3597060
 117.1320426  97.3291029  26.0586298 117.9667317  97.7680833  26.2223858
 117.2679554  96.8529682  25.2394544 114.1811932  94.8870764  32.0063786
 114.6566053  95.0798410  31.1982637 113.2577497  94.9429950  31.7607169
 101.0695438  96.0494931  21.5894864 100.8241480  95.1457261  21.7875074
 101.2391353  96.0512081  20.6474342 108.7592148  86.9218607  30.9719620
 109.2774092  87.6579634  30.6466108 108.4047281  87.2282601  31.8066379
 100.3391086  91.7823289  19.0881025  99.6460331  91.8567644  18.4321061
 100.0942838  91.0183632  19.6102542 109.0104742  83.3418890  26.4920516
 109.2906496  82.6742079  27.1180943 109.7955349  83.5347985  25.9795180
 106.8138211 102.5177884  18.0545542 106.2412178 103.1368071  17.6016014
 107.3871004 103.0677245  18.5885464 112.8813601  91.7636524  30.2392091
 113.8331023  91.8634622  30.2604315 112.7117051  90.9714792  30.7490176
 110.9027980  88.8492107  30.4251492 110.3077912  89.1297120  29.7297981
 110.6177677  89.3386008  31.1968233 110.0335470 102.8015034  19.1854125
 110.9666144 102.7360596  19.3887000 109.9458683 103.6371301  18.7268657
 112.6623487 102.1180904  16.1458072 112.5837119 101.7840768  17.0393830
 113.4833154 102.6102672  16.1449545 115.3601678  94.9842644  29.3534391
 115.3277998  94.0458644  29.5394075 115.9702302  95.0626680  28.6200216
 107.1985009  93.8538697  15.3961595 108.1444114  93.7244905  15.4650013
 106.8199254  93.1153358  15.8731023 115.5096167  91.7753687  29.3992674
 114.9935215  90.9912144  29.2122603 116.3936115  91.4472404  29.5639194
 113.1706894  85.5194703  25.3588487 112.9731715  85.2109791  26.2431819
 113.7806599  86.2456341  25.4886417 121.1778228  96.0458650  28.4940428
 121.9081617  95.7843939  29.0548131 120.5685174  95.3087372  28.5342496
 119.2593525  94.1866513  29.0914879 118.5326689  94.0522478  28.4831371
 118.8440812  94.4943342  29.8971597 107.0823702  97.9056443  36.8562252
 108.0026711  98.0835042  37.0502298 107.0473285  96.9612488  36.7041951
 105.3827926  91.7788673  15.3316480 104.4759382  91.4821786  15.4079194
 105.6603907  91.4818491  14.4650766  96.3005867  93.0995036  25.7815527
  95.9808651  92.2460345  25.4889901  95.7539295  93.3143614  26.5373494
 100.0785774  95.8157477  29.4985033 100.2971784  96.7474585  29.5173067
 100.4911548  95.4565452  30.2839837 106.9989992  86.3225563  21.4860721
 106.1890720  85.9772648  21.8615968 107.6874409  86.0133106  22.0748333
 108.9280540  85.4003609  23.1085018 109.4811579  85.8199063  23.7675041
 109.1650627  84.4739358  23.1507974 104.9513640  91.3890683  38.8887782
 104.8510366  92.3385040  38.8199873 104.7335182  91.0608922  38.0163852
 104.1526711  88.6375608  15.4728459 105.0145875  88.9630506  15.7324277
 104.3377055  87.8507104  14.9601525  96.1694127  96.7197948  27.7508648
  95.4757598  96.3051901  27.2378603  96.9167118  96.7618484  27.1542067
 112.3059347  87.5104135  22.6163682 111.7258016  88.1688939  22.2341735
 112.0395280  86.6881479  22.2051100 110.7562914  86.9109192  24.8185003
 111.2562692  87.0225727  24.0099322 111.3998522  86.6070245  25.4585811
 104.8144910  94.8187822  37.7052844 104.3311991  95.6188182  37.9116733
 104.9005849  94.8295767  36.7520288  98.0830869  96.6516202  25.6274663
  98.0601557  96.7503889  24.6756546  98.3931506  97.4981352  25.9491829
 100.7418247  98.7092357  29.7421277 101.6961501  98.6776299  29.6751209
 100.5430771  98.2482980  30.5571503 101.3317629  97.2793473  32.3092075
 102.1510518  97.7737551  32.3326912 101.6054437  96.3625441  32.2809643
 111.0884225  89.6704225  21.6720031 110.2010080  89.9553876  21.4540225
 111.5038215  89.5097988  20.8247308 114.4398762  89.6950746  25.3874370
 115.2159152  90.1847198  25.6598987 113.7146896  90.1208800  25.8446239
 116.8771320  90.4078365  26.4448311 117.4715811  90.1674101  25.7341619
 116.9497904  89.6885496  27.0721847  99.0968476 104.2511976  26.7591475
  98.9622944 103.4912377  26.1929473  98.6800538 104.9752876  26.2920264
 110.2327439  99.4348900  15.7668051 110.9363289  99.6398902  16.3825706
 109.5090088 100.0025662  16.0317134 111.0625249  95.1858761  21.8870321
 111.0060451  95.6427312  21.0477953 111.6153592  94.4249446  21.7093164
 114.8730055  90.9748493  22.7120440 114.6166989  90.5745128  23.5428648
 114.2482923  91.6892287  22.5870579 119.1842393  93.7144566  25.2191732
 118.6241951  93.7837755  25.9923294 118.5785896  93.5385551  24.4991228
 102.2537602 105.1481293  26.9709918 102.1369986 106.0926726  26.8688608
 101.4330048 104.8454855  27.3595717 112.1414136  99.8731429  17.8166511
 112.9759740  99.4412627  17.6343985 111.9798479  99.7013443  18.7443405
 111.7960029  96.3763542  19.1822850 111.7408832  96.2107814  18.2411294
 111.1706084  97.0839575  19.3385040  96.5852544  91.6131607  33.0084272
  97.2311407  91.1030561  33.4971497  96.3769695  92.3500288  33.5827697
 109.1105936  98.6812454  38.5076413 109.9797095  98.8553106  38.1463048
 108.6312687  99.5006871  38.3852142 105.1056154  85.8771651  18.7608168
 105.0934824  86.8213491  18.9176439 105.9979576  85.6941797  18.4667630
 103.2792116 105.8009555  30.1865846 104.1819363 105.8333165  30.5032341
 103.0529486 104.8710006  30.2012182 105.0345718 104.5540542  26.8475925
 104.0841349 104.5542403  26.7340297 105.3378204 103.8073276  26.3311960
 108.9208273  82.4714428  23.0154105 108.1540669  81.9172915  23.1610788
 109.3318978  82.5436297  23.8768257 100.9250034  88.7599224  37.1059286
 101.7881496  88.4036028  37.3162611 100.3515445  88.4213118  37.7934691
 120.7698411 110.3901080  27.9121687 121.4076821 110.2707827  27.2085027
 120.6519254 111.3381924  27.9709640 117.5788118 110.3428508  27.8483212
 117.2406629 110.2269573  26.9603747 118.4477886 109.9419673  27.8284218
 113.4374933 112.1963984  23.8380103 112.8739799 112.1053921  23.0696391
 113.3227328 111.3763889  24.3182596 118.0607901 111.4963360  33.8069418
 118.0496541 111.1016158  32.9349921 118.2228540 110.7629432  34.4003189
 110.9839365 113.6915176  26.6764324 111.7760657 113.3506001  26.2610623
 111.2236015 113.8010151  27.5966477 112.9430119 112.9524089  19.5481702
 113.7160995 112.4053076  19.4094578 113.2955518 113.8168339  19.7596164
 114.7815162 114.2800472  32.7548602 114.4905028 115.1846102  32.6395268
 115.4172146 114.3216999  33.4692671 115.7071369 111.6577320  29.3449961
 116.3034941 111.4333343  28.6306924 115.7646340 110.9162066  29.9475409
 115.2796397 109.1116755  17.1800152 115.5321918 108.5898277  16.4183615
 114.3420956 108.9482901  17.2826836 120.3239680 108.1152534  24.9874895
 121.1102769 107.6971957  24.6365312 120.5878384 109.0198626  25.1556544
 120.4949757 113.5525384  19.6863552 119.8595590 113.6260011  20.3984457
 120.1647164 114.1418983  19.0082632 125.7248107 108.0527767  25.8907874
 126.4573279 107.4826984  26.1245703 124.9687463 107.6649367  26.3314380
 114.9992686 111.0144861  19.3824527 114.8828944 110.3389765  20.0505612
 115.1094946 110.5277235  18.5656680 117.3424227 110.4755009  23.0871216
 116.9782434 109.9485629  23.7984138 118.1991343 110.0853478  22.9137702
 123.2473527 101.7649341  30.3502483 122.9156852 102.6344752  30.1263698
 122.6519141 101.4485625  31.0296513 116.9829714 105.5044908  18.0832565
 117.1504116 106.3725145  18.4503036 116.7926883 105.6672190  17.1593854
 119.7405047 113.9661887  29.7498395 119.4405770 114.8686926  29.6414203
 119.3956106 113.6994070  30.6019548 113.1917528 110.4175684  25.7835100
 112.2668025 110.2851898  25.9912792 113.4401942 111.1969903  26.2805042
 123.1402191 106.4844427  27.4295833 122.2319068 106.4159836  27.1354594
 123.0889787 106.9616372  28.2577658 116.9618935 107.9602566  19.0679232
 116.8418560 108.4059616  19.9064712 116.2671523 108.3087883  18.5092770
 110.5526339 110.0608958  26.6178889 110.6818721 110.3143436  27.5318301
 109.8723791 110.6536666  26.2983544 114.7225827 120.7306207  22.7169363
 114.6449856 121.6814033  22.7957844 114.1187470 120.3852080  23.3744289
 117.2143056 107.9034073  35.3730730 116.4376391 108.4627993  35.3633595
 117.8533620 108.3890856  35.8945600 125.0063837 104.6860866  29.2073707
 124.3638217 104.9793399  28.5613501 124.5018766 104.5713786  30.0126903
 122.6604001 108.4324039  19.8959566 123.5721857 108.6651426  19.7207263
 122.1513648 109.0161083  19.3334644 115.4689429 110.7119526  34.9348697
 116.2104113 111.2504570  34.6583521 114.7626414 111.3385815  35.0920249
 120.9444768 112.8548667  33.5320858 121.3528124 112.4131077  32.7875491
 120.2222030 112.2801294  33.7855051 117.2975838 107.7921273  30.9054415
 118.1437034 108.2160687  31.0489064 117.2374476 107.1354898  31.5992978
 121.2673583 113.4149857  27.2873147 120.6382446 113.5795571  26.5849215
 120.8799245 113.8291467  28.0584111 125.1462815 114.3504295  24.6417511
 124.4613853 114.7303197  24.0914544 125.2306664 114.9599622  25.3749459
 120.4475284 105.4525642  32.5635589 120.2036216 106.2067702  32.0269865
 120.7235214 105.8310989  33.3982836 122.4013747 111.9964254  31.2412855
 122.6130642 112.6396014  30.5647236 122.3543495 111.1626571  30.7734785
 120.0039976 104.6082075  28.1449427 119.1424455 104.9063328  28.4366164
 120.0302410 104.8252474  27.2130459 116.8201545 113.1524265  24.5523232
 117.2839890 113.4311968  23.7627855 116.5558343 112.2507710  24.3696323
 113.7125626 112.6995747  27.4902996 114.2826983 113.1283015  26.8520480
 114.3033738 112.4178332  28.1887181 115.7570431 109.2747418  21.3612798
 116.4594474 109.7268461  21.8286724 115.4251060 108.6331237  21.9892691
 114.2050793 107.8659174  35.7364007 113.5749453 108.5475455  35.9699404
 114.0986880 107.7542256  34.7917145 109.4995765 107.5330970  26.6629931
 108.7094819 107.7888499  26.1870042 109.9907012 108.3479308  26.7681972
 123.5159575 114.8736210  29.4135212 124.3377018 114.4716397  29.1317894
 123.5121977 114.7704444  30.3651328 111.4510510 107.8975550  23.6213408
 110.6541674 108.0094244  24.1396903 111.2236103 108.2362202  22.7554298
 117.2816178 114.4220253  31.5695922 117.3460610 114.8840660  32.4054094
 116.5727102 113.7917618  31.6978232 107.7833468 107.7861461  29.0944922
 108.0341506 108.6708471  29.3602498 108.3193016 107.6066062  28.3220014
 131.6065568 111.2174958  25.7620183 130.8529276 110.6482356  25.6064188
 131.7413109 111.1837623  26.7090818 116.9964196 116.0888360  21.4374903
 116.8609870 116.9339896  21.8659751 117.5374008 116.2907638  20.6740837
 113.4831535 102.1679940  38.0989258 113.0898481 101.6146139  38.7736902
 114.2997676 102.4790519  38.4895775 110.4493593 113.6063798  22.0102828
 110.9618114 114.4007049  22.1608393 111.1016306 112.9090089  21.9436429
 112.2588478 116.7229555  24.0925581 112.4355106 117.6447519  23.9046565
 113.0545311 116.4087974  24.5219961 116.3999496 103.5837819  35.6909515
 117.1409210 104.1844972  35.6113977 116.6317419 102.8415457  35.1327557
 111.5440834 108.7694187  33.9687744 111.4294349 107.8679444  34.2694843
 110.6885352 109.0157883  33.6172561 118.6232672 116.7111927  35.5675245
 118.1796526 115.9248305  35.2496149 119.2849886 116.8991077  34.9019136
 113.3819793 118.2407729  30.0935923 113.9327218 118.1124792  29.3212917
 112.5431269 118.5402618  29.7430816 120.7213910 116.9914727  33.5956646
 120.7032385 117.8123608  33.1036915 121.6433830 116.8668802  33.8206787
 117.1786964 114.5058856  34.4380154 117.7115301 113.7447145  34.2079462
 116.6501045 114.2132508  35.1804309 120.3456659  99.6118922  29.9673796
 120.0020929 100.5020564  29.8912907 120.7135622  99.4220580  29.1043381
 108.4142510 111.9352453  22.7862398 109.2517732 112.3449461  22.5696106
 108.5920778 110.9951895  22.7562592 120.3106942 109.6027533  18.4746231
 119.7953565 110.3732138  18.7134619 120.0384250 108.9292670  19.0979293
 117.8954053 104.4477234  23.5331470 117.0395649 104.0584085  23.3537108
 118.3081005 104.5269195  22.6731255 119.4253200 101.9823577  27.9323029
 118.9217995 101.9453713  27.1190835 119.7183806 102.8916320  27.9919686
 115.6696085 102.0662307  26.9389211 116.5349082 101.8705116  26.5795101
 115.7373594 101.8372659  27.8658568 120.0993245 107.4754626  20.3006012
 119.7943381 107.7900775  21.1516156 121.0523687 107.5536045  20.3433345
 118.5439677 113.6344849  21.9498966 118.0161039 112.8997608  21.6372204
 118.0427180 114.4119525  21.7038935 123.5232523 111.8293869  27.0666013
 122.8656197 112.5193131  27.1546141 124.3272922 112.2190301  27.4099999
 113.2758405 104.2964515  24.3105578 113.8502156 104.0739697  23.5778771
 113.8629387 104.3653210  25.0634179 122.3337982 110.1838242  25.1169955
 122.8469864 110.8168234  25.6191664 122.9839206 109.5839438  24.7513315
 113.6027992 106.3268976  18.3301463 112.7665304 106.6643663  18.6510738
 113.4632761 106.1917956  17.3928600 115.5781072 101.1705764  23.0380647
 114.9245485 100.8554781  22.4137262 115.5361546 100.5481504  23.7640470
 118.8118813 107.6587698  27.3628295 117.8941374 107.8802645  27.2049983
 119.2278956 107.7334008  26.5040002 119.5953860 109.0579113  22.4930975
 120.3425679 109.5700510  22.1838097 119.8645450 108.7363166  23.3535369
 117.8680511 111.5537654  19.4757930 116.9591730 111.2696687  19.5730399
 117.8975594 111.9736733  18.6161236 123.0999778 115.1644243  23.2449097
 122.6462105 114.3235153  23.3014288 122.4693745 115.8005642  23.5823877
 122.0432698 106.0936229  24.4749765 121.3055454 105.5813616  24.8060007
 122.2959471 105.6536611  23.6633041 121.5432717 117.0020740  24.1798915
 121.8355692 117.5625797  23.4611281 122.0531338 117.2949301  24.9352074
 122.1444325  98.8712481  25.0691534 122.4503202  98.0109845  24.7817449
 122.8696930  99.4630102  24.8690528 108.4368681 109.2743168  23.4573132
 108.2393081 108.6812529  22.7324198 107.8815345 108.9695378  24.1749071
 116.4165405 109.1666275  25.5767725 116.4714014 108.2140111  25.5010202
 115.6056607 109.3225714  26.0609023 114.3557765 107.7843334  23.3358104
 113.5425630 108.0837505  23.7423296 114.8516759 107.3899023  24.0532586
 116.5066342 117.7801091  25.2692368 116.4642521 118.0061938  24.3400901
 117.4229041 117.5464466  25.4178170 119.9531976 108.2485159  32.1672998
 120.3081364 108.4756632  33.0267463 120.6004107 108.5803536  31.5450253
 125.6829713 111.3703595  22.8722327 125.5447612 111.5605191  21.9443516
 125.3265932 112.1322977  23.3290378 113.8471839 105.3561690  28.9519339
 114.4871219 105.2150449  28.2542302 113.0149370 105.0696203  28.5757941
 125.7099093 113.4380122  27.8833598 126.1435599 113.3455411  28.7316652
 126.4230673 113.4137622  27.2453614 114.6232143 114.6564120  25.0654331
 115.4172742 114.1614440  24.8636906 113.9123836 114.1281983  24.7022037
 119.4426988 117.0382216  29.4166699 119.4964010 117.6073152  30.1844415
 118.5741769 117.2084101  29.0520736 110.9314907 108.8007202  21.1414084
 110.0012495 108.7391657  21.3584046 111.0272379 108.2783155  20.3450725
 110.8500456 105.3262015  23.7292326 111.1107273 106.2407348  23.6201486
 111.6717628 104.8586457  23.8788938 112.3225381 106.7399772  30.8991150
 112.9948434 106.5317134  30.2503799 111.4955168 106.5421858  30.4596382
 126.5714642 113.4803822  30.4166484 126.7650532 114.3849633  30.6625759
 126.4715260 113.0211241  31.2505069 118.2250953 103.3661713  32.9156811
 117.5778868 104.0651663  32.8221287 118.9951968 103.7997857  33.2833059
 121.6329751 113.6310565  35.9907364 121.4815257 113.4021117  35.0737448
 121.6234430 114.5881166  36.0038709 118.4015087 111.2042478  30.9753631
 119.3307147 111.3553637  30.8022598 117.9806117 111.2926499  30.1202277
 117.2003419 115.2293142  28.7452168 117.0614505 114.8611927  29.6178106
 116.4118015 115.7440782  28.5736126 118.7508634 114.6074745  26.1341006
 118.4158467 114.5675515  27.0298656 118.2512580 113.9419461  25.6611416
 112.7252878 110.0142375  31.6593587 112.5872676 109.2822614  32.2605126
 113.6357802 109.9251275  31.3777775 115.3535179 109.7262334  31.1477267
 116.0634797 109.0855526  31.1063885 115.3104487 109.9775229  32.0703448
 123.3421958 116.6629688  34.0683846 123.2834504 115.9788908  33.4014429
 123.7441476 117.4048678  33.6164472 114.0664113 106.7127552  32.9672906
 113.5301470 106.2618291  33.6194503 113.4780821 106.8473461  32.2243371
 112.3612656 123.4791601  26.8617565 112.6009255 124.1110126  27.5396584
 111.5181853 123.1279641  27.1482924 113.4766372 106.1716204  15.5299370
 112.5995838 106.0505004  15.1661617 113.9524125 105.3802282  15.2778259
 123.3439365 114.6269272  32.2997826 122.4566144 114.2895193  32.4224225
 123.9137916 113.8952303  32.5366591 104.9968512 110.9593363  25.6240877
 105.6839552 110.6455093  25.0361892 104.8416641 111.8634728  25.3508129
 109.8003234 105.8483560  30.0525901 109.7161423 105.2409229  29.3176311
 108.9785941 106.3392578  30.0535397 116.8740518 119.2870724  29.2659069
 116.8010690 120.0925695  29.7778374 116.4317911 119.4862690  28.4407090
 116.6630298 118.5242494  22.7761891 115.8797820 119.0664174  22.8700115
 117.3623043 119.0416474  23.1756132 119.9726948 104.3337123  25.4196096
 120.4695648 103.5807086  25.0997166 119.2013930 104.3701440  24.8539305
 127.8256705 110.0377489  27.0614387 127.8146582 110.9202204  26.6908321
 126.9574085 109.6849040  26.8668924 119.3339202 119.1857558  31.4217228
 120.0467174 119.8205023  31.3493129 118.8429230 119.2821424  30.6057229
 121.0556729 113.0908811  22.9934519 120.1213007 113.2110273  22.8239224
 121.2333397 112.1881277  22.7294529 116.5561917 106.4754506  25.1467781
 116.1859704 105.9225547  25.8348686 117.0521009 105.8712640  24.5942781
 124.4429280 108.9326130  23.5284553 124.9089732 109.7654121  23.4544856
 124.8936781 108.4671111  24.2329812 114.3851115 116.9352001  32.2422798
 115.0860575 117.5688484  32.3952193 113.9146230 117.2766733  31.4818438
 122.5105511 115.2769951  20.5270706 122.7865355 115.1626546  21.4364580
 121.6410010 114.8787436  20.4882879 122.4145943 101.3006717  27.5675455
 121.5009023 101.5310944  27.7357662 122.8439044 101.3845161  28.4189487
 122.1852401 109.4896609  30.0675349 121.5323852 109.7372516  29.4127802
 122.5632781 108.6760747  29.7337826 119.1459575 119.5256302  24.1703519
 119.3281970 118.7077958  24.6331271 119.9692561 119.7423994  23.7328409
 118.2339974 110.2316420  36.5541386 117.5580611 110.1310549  37.2243761
 119.0567608 110.0755634  37.0177383 109.9818833 116.4688356  29.1753901
 110.5672270 115.7232044  29.3081805 109.7843672 116.7792313  30.0590565
 112.8357489 119.5039604  24.1916344 112.1667864 119.9885731  23.7080384
 112.6970358 119.7508824  25.1059722 104.5736488 109.0393957  27.8958344
 104.6120588 108.5057547  28.6895462 104.0676781 108.5129162  27.2769321
 116.9762757 121.5383347  30.7899002 117.5281065 121.7014969  31.5548087
 117.3168951 122.1287785  30.1179027 111.9527250 103.8858497  31.3920887
 112.0168577 104.7473328  30.9798284 111.8894371 103.2732499  30.6593245
 111.4279523 105.9581630  35.0393921 112.0551562 105.5758707  35.6531445
 110.5707442 105.7395832  35.4049613 121.8273632 116.3644605  36.6447656
 122.3713536 116.9774563  36.1502611 121.2460476 116.9224183  37.1614669
 108.2045066 107.7658059  20.9712276 108.4998507 106.8568737  20.9179329
 107.3033101 107.7445798  20.6493278 120.1131144 119.4865323  27.7762684
 119.9882284 118.6855063  27.2673630 120.7710236 119.9811516  27.2876654
 111.7339313 105.8414055  26.9539824 111.0125898 106.4550023  26.8147298
 112.5232568 106.3771820  26.8756470 122.1766053 117.2874343  29.4042234
 121.2296388 117.1679694  29.3320561 122.5248826 116.3996841  29.4868496
 114.5365626 103.1768482  33.2280476 115.0600028 103.4230778  33.9906785
 114.3177960 104.0088517  32.8083613 109.9332907 105.4472156  21.0951601
 109.6045613 104.5669535  20.9126707 110.2872278 105.3919825  21.9827990
 119.1812486 117.0827059  25.6046586 119.0337449 116.1543767  25.7854156
 120.0065980 117.1047150  25.1203662 113.0474730 105.7345126  21.4627079
 113.3870803 106.2631048  20.7405687 113.4946851 106.0725532  22.2385645
 122.7846608 117.9055618  26.6911459 123.7093156 117.6998479  26.5535910
 122.6161911 117.6572019  27.6000801 115.7418171 104.1182177  30.9130147
 115.4014992 103.3189990  31.3150826 115.0357178 104.4183888  30.3406980
 116.3934643 101.2031489  29.3657470 117.2160712 100.7291968  29.2436360
 116.6372707 101.9821973  29.8656156 115.0342878 104.2319748  19.6620371
 115.7551240 104.6101001  19.1584088 114.4108182 104.9508625  19.7655349
 119.1774000 104.9364897  20.5978704 119.3937615 105.8189535  20.2967532
 118.6968068 104.5451110  19.8684346 113.9173222 107.8950610  27.1749448
 113.7717803 108.2090913  28.0673730 113.4398426 108.5135510  26.6220347
 115.7769605 104.8853158  27.2230338 115.7631174 103.9894251  26.8862636
 116.4942033 104.8923822  27.8568624 117.6295735 105.3190498  29.2683465
 117.3713513 106.2407569  29.2667796 117.0980776 104.9220933  29.9583929
 108.3918884 110.4355954  30.1137109 107.8472352 111.2115762  30.2457384
 109.2698234 110.7826759  29.9556231 115.1806501 103.7667538  22.4917908
 115.3022412 102.8384185  22.6908795 114.8908543 103.7806224  21.5796223
 118.0497691 101.4522449  25.6284628 118.0719388 101.5161782  24.6736607
 118.4665750 100.6126957  25.8225134 128.4281315 111.1877708  23.6663850
 128.8712461 110.4385034  23.2682974 127.5507826 111.1787845  23.2837582
 109.1784906 109.5625851  33.0067266 108.4366642 109.7108486  33.5931897
 108.8577650 109.8234116  32.1434016 117.1228569 119.1041829  32.8047656
 117.4315695 118.8590976  33.6770356 117.9204051 119.3088467  32.3166527
 117.1449181 121.2579739  25.0353033 116.7054171 120.7656117  25.7285890
 117.8957298 120.7152706  24.7945108 109.6241520 117.4491279  25.0377661
 110.4499539 117.1495051  24.6576304 109.2735572 116.6798902  25.4867450
 114.5923053 116.8017748  27.1075335 113.9703062 116.1388453  26.8077562
 115.2627920 116.8278880  26.4248982 107.8250125 115.3677606  25.9966594
 106.9882033 114.9399780  25.8150596 107.7973770 115.5610049  26.9337386
 114.6647580 105.2799536  36.7007841 114.7135736 106.1561658  36.3185610
 115.2070094 104.7376929  36.1279484 125.1502426 115.8240659  35.9808978
 124.3597970 115.8064798  35.4413477 124.9135780 116.3628953  36.7358014
 125.2700301 112.6733125  33.2941706 125.3198306 112.5083133  34.2357229
 125.1614224 111.8060384  32.9039587 114.1536560 115.3521671  20.5833795
 114.3024680 116.0357135  19.9300468 114.9603003 115.3326761  21.0983251
 122.5604063 108.6564053  34.6101013 123.4613926 108.5170518  34.3185011
 122.6352038 108.8218508  35.5499190 116.8946869 106.0330908  33.4554199
 116.0250178 106.3264474  33.1836788 117.1306349 106.6171353  34.1761463
 126.7718498 115.0930067  33.5383728 126.4803306 115.4560047  34.3747189
 126.1590629 114.3797075  33.3597060 127.9714180 112.6582947  26.0586298
 128.8061071 113.0972751  26.2223858 128.1073309 112.1821600  25.2394544
 125.0205686 110.2162681  32.0063786 125.4959808 110.4090328  31.1982637
 124.0971251 110.2721867  31.7607169 111.9089193 111.3786849  21.5894864
 111.6635235 110.4749179  21.7875074 112.0785107 111.3803999  20.6474342
 119.5985903 102.2510525  30.9719620 120.1167846 102.9871552  30.6466108
 119.2441035 102.5574518  31.8066379 111.1784840 107.1115206  19.0881025
 110.4854085 107.1859561  18.4321061 110.9336592 106.3475550  19.6102542
 119.8498497  98.6710808  26.4920516 120.1300250  98.0033997  27.1180943
 120.6349104  98.8639903  25.9795180 123.7207355 107.0928442  30.2392091
 124.6724778 107.1926539  30.2604315 123.5510805 106.3006710  30.7490176
 121.7421734 104.1784025  30.4251492 121.1471667 104.4589037  29.7297981
 121.4571431 104.6677926  31.1968233 126.1995433 110.3134561  29.3534391
 126.1671753 109.3750562  29.5394075 126.8096056 110.3918598  28.6200216
 118.0378764 109.1830614  15.3961595 118.9837868 109.0536822  15.4650013
 117.6593009 108.4445276  15.8731023 126.3489921 107.1045605  29.3992674
 125.8328970 106.3204061  29.2122603 127.2329870 106.7764321  29.5639194
 124.0100648 100.8486620  25.3588487 123.8125469 100.5401708  26.2431819
 124.6200354 101.5748259  25.4886417 132.0171983 111.3750568  28.4940428
 132.7475371 111.1135856  29.0548131 131.4078928 110.6379290  28.5342496
 130.0987280 109.5158431  29.0914879 129.3720443 109.3814396  28.4831371
 129.6834567 109.8235259  29.8971597 117.9217456 113.2348360  36.8562252
 118.8420466 113.4126959  37.0502298 117.8867039 112.2904406  36.7041951
 116.2221681 107.1080591  15.3316480 115.3153136 106.8113703  15.4079194
 116.4997662 106.8110409  14.4650766 107.1399621 108.4286954  25.7815527
 106.8202406 107.5752262  25.4889901 106.5933049 108.6435532  26.5373494
 110.9179529 111.1449395  29.4985033 111.1365539 112.0766503  29.5173067
 111.3305303 110.7857369  30.2839837 117.8383747 101.6517480  21.4860721
 117.0284475 101.3064565  21.8615968 118.5268163 101.3425024  22.0748333
 119.7674295 100.7295527  23.1085018 120.3205333 101.1490981  23.7675041
 120.0044381  99.8031275  23.1507974 115.7907394 106.7182601  38.8887782
 115.6904121 107.6676958  38.8199873 115.5728936 106.3900840  38.0163852
 114.9920465 103.9667526  15.4728459 115.8539629 104.2922424  15.7324277
 115.1770810 103.1799022  14.9601525 107.0087881 112.0489865  27.7508648
 106.3151353 111.6343818  27.2378603 107.7560872 112.0910402  27.1542067
 123.1453102 102.8396052  22.6163682 122.5651771 103.4980856  22.2341735
 122.8789035 102.0173397  22.2051100 121.5956668 102.2401110  24.8185003
 122.0956447 102.3517645  24.0099322 122.2392276 101.9362163  25.4585811
 115.6538664 110.1479740  37.7052844 115.1705746 110.9480100  37.9116733
 115.7399603 110.1587684  36.7520288 108.9224624 111.9808119  25.6274663
 108.8995312 112.0795807  24.6756546 109.2325260 112.8273270  25.9491829
 111.5812002 114.0384274  29.7421277 112.5355255 114.0068217  29.6751209
 111.3824525 113.5774898  30.5571503 112.1711384 112.6085390  32.3092075
 112.9904273 113.1029469  32.3326912 112.4448191 111.6917358  32.2809643
 121.9277980 104.9996143  21.6720031 121.0403835 105.2845793  21.4540225
 122.3431969 104.8389906  20.8247308 125.2792516 105.0242664  25.3874370
 126.0552906 105.5139116  25.6598987 124.5540650 105.4500718  25.8446239
 127.7165075 105.7370283  26.4448311 128.3109566 105.4966019  25.7341619
 127.7891658 105.0177413  27.0721847 109.9362230 119.5803894  26.7591475
 109.8016698 118.8204295  26.1929473 109.5194293 120.3044794  26.2920264
 121.9019004 110.5150679  21.8870321 121.8454205 110.9719230  21.0477953
 122.4547346 109.7541363  21.7093164 125.7123810 106.3040410  22.7120440
 125.4560744 105.9037046  23.5428648 125.0876678 107.0184204  22.5870579
 130.0236147 109.0436484  25.2191732 129.4635705 109.1129673  25.9923294
 129.4179651 108.8677468  24.4991228 113.0931356 120.4773211  26.9709918
 112.9763740 121.4218643  26.8688608 112.2723803 120.1746772  27.3595717
 122.6353783 111.7055460  19.1822850 122.5802587 111.5399731  18.2411294
 122.0099838 112.4131493  19.3385040 107.4246298 106.9423524  33.0084272
 108.0705162 106.4322478  33.4971497 107.2163449 107.6792206  33.5827697
 119.9499690 114.0104372  38.5076413 120.8190850 114.1845024  38.1463048
 119.4706442 114.8298789  38.3852142 115.9449908 101.2063569  18.7608168
 115.9328578 102.1505409  18.9176439 116.8373330 101.0233714  18.4667630
 114.1185870 121.1301473  30.1865846 115.0213117 121.1625083  30.5032341
 113.8923240 120.2001924  30.2012182 115.8739472 119.8832459  26.8475925
 114.9235103 119.8834321  26.7340297 116.1771959 119.1365194  26.3311960
 119.7602028  97.8006345  23.0154105 118.9934424  97.2464832  23.1610788
 120.1712733  97.8728214  23.8768257 111.7643789 104.0891141  37.1059286
 112.6275251 103.7327946  37.3162611 111.1909200 103.7505036  37.7934691
 128.9001655 126.8255277  33.8069418 128.8890296 126.4308076  32.9349921
 129.0622295 126.0921350  34.4003189 125.6208916 129.6092389  32.7548602
 125.3298782 130.5138020  32.6395268 126.2565901 129.6508917  33.4692671
 134.0867282 117.0941259  30.3502483 133.7550607 117.9636670  30.1263698
 133.4912895 116.7777543  31.0296513 121.3920094 125.3900875  26.6178889
 121.5212475 125.6435354  27.5318301 120.7117545 125.9828583  26.2983544
 128.0536811 123.2325991  35.3730730 127.2770145 123.7919911  35.3633595
 128.6927374 123.7182774  35.8945600 135.8457592 120.0152783  29.2073707
 135.2031972 120.3085317  28.5613501 135.3412520 119.9005704  30.0126903
 126.3083183 126.0411444  34.9348697 127.0497868 126.5796488  34.6583521
 125.6020169 126.6677733  35.0920249 131.7838523 128.1840584  33.5320858
 132.1921879 127.7422995  32.7875491 131.0615784 127.6093212  33.7855051
 128.1369593 123.1213191  30.9054415 128.9830788 123.5452605  31.0489064
 128.0768231 122.4646815  31.5992978 131.2869038 120.7817560  32.5635589
 131.0429970 121.5359620  32.0269865 131.5628969 121.1602907  33.3982836
 130.8433730 119.9373993  28.1449427 129.9818209 120.2355246  28.4366164
 130.8696165 120.1544391  27.2130459 125.0444547 123.1951092  35.7364007
 124.4143208 123.8767373  35.9699404 124.9380635 123.0834174  34.7917145
 120.3389519 122.8622888  26.6629931 119.5488573 123.1180417  26.1870042
 120.8300767 123.6771226  26.7681972 128.1209932 129.7512171  31.5695922
 128.1854365 130.2132578  32.4054094 127.4120856 129.1209536  31.6978232
 118.6227222 123.1153379  29.0944922 118.8735261 124.0000389  29.3602498
 119.1586771 122.9357980  28.3220014 124.3225290 117.4971858  38.0989258
 123.9292235 116.9438057  38.7736902 125.1391430 117.8082436  38.4895775
 127.2393251 118.9129737  35.6909515 127.9802964 119.5136890  35.6113977
 127.4711174 118.1707375  35.1327557 122.3834589 124.0986104  33.9687744
 122.2688104 123.1971362  34.2694843 121.5279107 124.3449801  33.6172561
 129.4626427 132.0403845  35.5675245 129.0190281 131.2540223  35.2496149
 130.1243640 132.2282995  34.9019136 128.0180719 129.8350774  34.4380154
 128.5509056 129.0739062  34.2079462 127.4894800 129.5424426  35.1804309
 131.1850414 114.9410840  29.9673796 130.8414683 115.8312482  29.8912907
 131.5529376 114.7512498  29.1043381 130.2646954 117.3115495  27.9323029
 129.7611750 117.2745630  27.1190835 130.5577561 118.2208238  27.9919686
 126.5089840 117.3954225  26.9389211 127.3742837 117.1997034  26.5795101
 126.5767349 117.1664577  27.8658568 124.1152159 119.6256433  24.3105578
 124.6895911 119.4031614  23.5778771 124.7023141 119.6945127  25.0634179
 126.4174827 116.4997682  23.0380647 125.7639239 116.1846699  22.4137262
 126.3755301 115.8773422  23.7640470 132.9838079 114.2004399  25.0691534
 133.2896956 113.3401763  24.7817449 133.7090684 114.7922019  24.8690528
 130.7925731 123.5777076  32.1672998 131.1475118 123.8048550  33.0267463
 131.4397862 123.9095453  31.5450253 124.6865594 120.6853608  28.9519339
 125.3264973 120.5442367  28.2542302 123.8543124 120.3988121  28.5757941
 123.1619136 122.0691690  30.8991150 123.8342189 121.8609052  30.2503799
 122.3348922 121.8713776  30.4596382 129.0644708 118.6953631  32.9156811
 128.4172623 119.3943580  32.8221287 129.8345723 119.1289775  33.2833059
 132.4723505 128.9602483  35.9907364 132.3209012 128.7313034  35.0737448
 132.4628185 129.9173084  36.0038709 129.2408842 126.5334395  30.9753631
 130.1700902 126.6845555  30.8022598 128.8199872 126.6218416  30.1202277
 123.5646633 125.3434293  31.6593587 123.4266431 124.6114531  32.2605126
 124.4751556 125.2543193  31.3777775 126.1928933 125.0554252  31.1477267
 126.9028552 124.4147444  31.1063885 126.1498242 125.3067147  32.0703448
 124.9057867 122.0419470  32.9672906 124.3695224 121.5910208  33.6194503
 124.3174576 122.1765379  32.2243371 115.8362267 126.2885281  25.6240877
 116.5233306 125.9747011  25.0361892 115.6810395 127.1926646  25.3508129
 120.6396989 121.1775478  30.0525901 120.5555177 120.5701147  29.3176311
 119.8179695 121.6684496  30.0535397 125.2244870 132.2643919  32.2422798
 125.9254329 132.8980402  32.3952193 124.7539985 132.6058651  31.4818438
 133.2539697 116.6298635  27.5675455 132.3402777 116.8602861  27.7357662
 133.6832799 116.7137079  28.4189487 129.0733729 125.5608338  36.5541386
 128.3974366 125.4602467  37.2243761 129.8961363 125.4047551  37.0177383
 120.8212588 131.7980274  29.1753901 121.4066025 131.0523962  29.3081805
 120.6237426 132.1084231  30.0590565 115.4130243 124.3685874  27.8958344
 115.4514342 123.8349465  28.6895462 114.9070535 123.8421080  27.2769321
 122.7921005 119.2150415  31.3920887 122.8562331 120.0765246  30.9798284
 122.7288125 118.6024416  30.6593245 122.2673277 121.2873547  35.0393921
 122.8945316 120.9050625  35.6531445 121.4101196 121.0687749  35.4049613
 132.6667386 131.6936523  36.6447656 133.2107290 132.3066481  36.1502611
 132.0854231 132.2516101  37.1614669 122.5733067 121.1705973  26.9539824
 121.8519653 121.7841941  26.8147298 123.3626323 121.7063738  26.8756470
 125.3759381 118.5060400  33.2280476 125.8993783 118.7522696  33.9906785
 125.1571714 119.3380434  32.8083613 126.5811926 119.4474095  30.9130147
 126.2408746 118.6481908  31.3150826 125.8750932 119.7475806  30.3406980
 127.2328398 116.5323407  29.3657470 128.0554467 116.0583885  29.2436360
 127.4766461 117.3113891  29.8656156 124.7566976 123.2242528  27.1749448
 124.6111557 123.5382831  28.0673730 124.2792180 123.8427428  26.6220347
 126.6163359 120.2145076  27.2230338 126.6024928 119.3186169  26.8862636
 127.3335787 120.2215739  27.8568624 128.4689490 120.6482416  29.2683465
 128.2107268 121.5699487  29.2667796 127.9374530 120.2512850  29.9583929
 119.2312639 125.7647872  30.1137109 118.6866107 126.5407680  30.2457384
 120.1091988 126.1118677  29.9556231 128.8891446 116.7814366  25.6284628
 128.9113142 116.8453700  24.6736607 129.3059505 115.9418875  25.8225134
 120.0178660 124.8917768  33.0067266 119.2760396 125.0400404  33.5931897
 119.6971405 125.1526034  32.1434016 125.5041335 120.6091453  36.7007841
 125.5529490 121.4853576  36.3185610 126.0463849 120.0668846  36.1279484
 135.9896180 131.1532577  35.9808978 135.1991724 131.1356715  35.4413477
 135.7529535 131.6920870  36.7358014 136.1094055 128.0025043  33.2941706
 136.1592060 127.8375050  34.2357229 136.0007979 127.1352302  32.9039587
 133.3997818 123.9855971  34.6101013 134.3007681 123.8462436  34.3185011
 133.4745792 124.1510426  35.5499190 127.7340623 121.3622826  33.4554199
 126.8643933 121.6556392  33.1836788 127.9700104 121.9463271  34.1761463
 130.4379657 117.5802443  30.9719620 130.9561601 118.3163470  30.6466108
 130.0834790 117.8866436  31.8066379 130.6892251 114.0002725  26.4920516
 130.9694005 113.3325914  27.1180943 131.4742858 114.1931821  25.9795180
 134.5601110 122.4220359  30.2392091 135.5118532 122.5218457  30.2604315
 134.3904560 121.6298628  30.7490176 132.5815489 119.5075942  30.4251492
 131.9865421 119.7880955  29.7297981 132.2965186 119.9969843  31.1968233
 128.7611211 128.5640278  36.8562252 129.6814220 128.7418877  37.0502298
 128.7260794 127.6196323  36.7041951 117.9793376 123.7578872  25.7815527
 117.6596160 122.9044180  25.4889901 117.4326804 123.9727450  26.5373494
 121.7573283 126.4741313  29.4985033 121.9759293 127.4058420  29.5173067
 122.1699057 126.1149287  30.2839837 126.6301149 122.0474518  38.8887782
 126.5297875 122.9968875  38.8199873 126.4122691 121.7192757  38.0163852
 117.8481636 127.3781783  27.7508648 117.1545107 126.9635736  27.2378603
 118.5954627 127.4202320  27.1542067 126.4932419 125.4771657  37.7052844
 126.0099500 126.2772017  37.9116733 126.5793358 125.4879602  36.7520288
 122.4205756 129.3676192  29.7421277 123.3749010 129.3360134  29.6751209
 122.2218280 128.9066816  30.5571503 123.0105138 127.9377308  32.3092075
 123.8298027 128.4321387  32.3326912 123.2841946 127.0209276  32.2809643
 118.2640052 122.2715442  33.0084272 118.9098916 121.7614396  33.4971497
 118.0557204 123.0084124  33.5827697 130.7893445 129.3396289  38.5076413
 131.6584604 129.5136942  38.1463048 130.3100196 130.1590706  38.3852142
 130.5995782 113.1298263  23.0154105 129.8328178 112.5756750  23.1610788
 131.0106487 113.2020132  23.8768257 122.6037543 119.4183059  37.1059286
 123.4669005 119.0619864  37.3162611 122.0302954 119.0796954  37.7934691
 135.1619044 132.8263776  38.0989258 134.7685990 132.2729974  38.7736902
 135.9785185 133.1374354  38.4895775 133.4431298 134.7474977  37.1059286
 134.3062760 134.3911781  37.3162611 132.8696709 134.4088871  37.7934691
  74.7032884  27.1857812  20.5314724  74.6921525  26.7910610  19.6595228
  74.8653523  26.4523884  21.1248496  71.4240145  29.9694923  19.4793908
  71.1330011  30.8740554  19.3640575  72.0597129  30.0111451  20.1937978
  76.3830030  29.6556339  16.4743702  76.0830753  30.5581378  16.3659509
  76.0381090  29.3888522  17.3264855  73.8568040  23.5928525  22.0976037
  73.0801374  24.1522445  22.0878901  74.4958603  24.0785308  22.6190907
  72.1114412  26.4013978  21.6594004  72.8529096  26.9399022  21.3828827
  71.4051398  27.0280267  21.8165555  77.5869752  28.5443119  20.2566165
  77.9953108  28.1025529  19.5120797  76.8647013  27.9695746  20.5100358
  73.9400822  23.4815725  17.6299722  74.7862017  23.9055139  17.7734371
  73.8799459  22.8249350  18.3238285  77.9098566  29.1044309  14.0118454
  77.2807429  29.2690023  13.3094522  77.5224228  29.5185919  14.7829418
  81.7887798  30.0398747  11.3662818  81.1038836  30.4197648  10.8159851
  81.8731648  30.6494074  12.0994765  77.0900267  21.1420094  19.2880896
  76.8461199  21.8962154  18.7515171  77.3660198  21.5205441  20.1228143
  79.0438730  27.6858706  17.9658161  79.2555625  28.3290466  17.2892542
  78.9968478  26.8521023  17.4980091  70.8475776  23.5553626  22.4609314
  70.2174436  24.2369907  22.6944710  70.7411864  23.4436708  21.5162452
  80.1584558  30.5630662  16.1380519  80.9802002  30.1610849  15.8563200
  80.1546961  30.4598896  17.0896634  73.9241161  30.1114705  18.2941229
  73.9885594  30.5735112  19.1299401  73.2152085  29.4812070  18.4223539
  88.2490551  26.9069410  12.4865490  87.4954259  26.3376808  12.3309494
  88.3838092  26.8732075  13.4336125  70.1256519  17.8574392  24.8234565
  69.7323464  17.3040591  25.4982209  70.9422659  18.1684971  25.2141082
  73.0424480  19.2732271  22.4154821  73.7834193  19.8739424  22.3359284
  73.2742402  18.5309909  21.8572864  68.1865818  24.4588639  20.6933051
  68.0719333  23.5573896  20.9940150  67.3310335  24.7052335  20.3417867
  75.2657655  32.4006379  22.2920551  74.8221510  31.6142757  21.9741456
  75.9274869  32.5885529  21.6264442  70.0244776  33.9302180  16.8181230
  70.5752202  33.8019244  16.0458224  69.1856252  34.2297069  16.4676123
  77.3638893  32.6809179  20.3201953  77.3457369  33.5018060  19.8282222
  78.2858813  32.5563254  20.5452094  73.8211948  30.1953308  21.1625461
  74.3540284  29.4341596  20.9324769  73.2926029  29.9026960  21.9049616
  80.1657506  27.5188321  13.7911319  79.5081181  28.2087583  13.8791448
  80.9697905  27.9084753  14.1345306  78.1857701  32.6915192  10.9044222
  78.4780675  33.2520249  10.1856588  78.6956321  32.9843753  11.6597381
  76.5956960  23.9379611  18.8918304  76.9506347  24.1651084  19.7512770
  77.2429091  24.2697987  18.2695560  82.3524076  29.1274574  14.6078905
  82.7860583  29.0349863  15.4561959  83.0655657  29.1032074  13.9698921
  76.0851971  32.7276668  16.1412005  76.1388993  33.2967604  16.9089721
  75.2166752  32.8978553  15.7766043  83.2139626  29.1698274  17.1411790
  83.4075516  30.0744085  17.3871065  83.1140244  28.7105693  17.9750375
  74.8675936  19.0556165  19.6402118  74.2203851  19.7546114  19.5466594
  75.6376952  19.4892309  20.0078366  78.2754734  29.3205017  22.7152671
  78.1240241  29.0915569  21.7982755  78.2659414  30.2775618  22.7284016
  75.0440071  26.8936930  17.6998937  75.9732131  27.0448089  17.5267905
  74.6231101  26.9820950  16.8447584  73.8428402  30.9187594  15.4697475
  73.7039488  30.5506379  16.3423413  73.0542999  31.4335234  15.2981433
  69.3677862  25.7036827  18.3838894  69.2297660  24.9717066  18.9850433
  70.2782785  25.6145727  18.1023082  71.9960162  25.4156786  17.8722574
  72.7059781  24.7749978  17.8309192  71.9529470  25.6669681  18.7948754
  79.9846941  32.3524140  20.7929153  79.9259487  31.6683360  20.1259736
  80.3866459  33.0943130  20.3409779  69.0037640  39.1686053  13.5862872
  69.2434238  39.8004578  14.2641890  68.1606836  38.8174093  13.8728231
  79.9864348  30.3163723  19.0243132  79.0991127  29.9789645  19.1469531
  80.5562899  29.5846755  19.2611898  73.5165502  34.9765176  15.9904376
  73.4435673  35.7820147  16.5023680  73.0742895  35.1757142  15.1652397
  84.4681689  25.7271941  13.7859694  84.4571565  26.6096656  13.4153627
  83.5999068  25.3743492  13.5914231  75.9764185  34.8752010  18.1462534
  76.6892157  35.5099475  18.0738436  75.4854214  34.9715876  17.3302536
  71.0276099  32.6246453  18.9668105  71.7285558  33.2582936  19.1197499
  70.5571214  32.9661185  18.2063744  78.8277385  25.1791061  16.7920655
  78.1748835  25.4266968  16.1373108  79.2057765  24.3655199  16.4583133
  75.7884559  35.2150754  10.8948826  75.9706953  34.3972410  11.3576578
  76.6117545  35.4318446  10.4573716  74.8764958  25.9210872  23.2786693
  74.2005595  25.8205001  23.9489068  75.6992592  25.7650086  23.7422690
  66.6243817  32.1582808  15.8999208  67.2097254  31.4126496  16.0327112
  66.4268655  32.4686765  16.7835872  73.6187741  37.2277799  17.5144309
  74.1706049  37.3909421  18.2793394  73.9593934  37.8182237  16.8424333
  68.0704506  21.6476082  21.7639228  68.6976545  21.2653159  22.3776752
  67.2132425  21.4290284  22.1294920  78.4698615  32.0539057  23.3692963
  79.0138519  32.6669015  22.8747918  77.8885460  32.6118635  23.8859976
  76.7556128  35.1759775  14.5007991  76.6307267  34.3749515  13.9918936
  77.4135219  35.6705968  14.0121961  78.8191036  32.9768795  16.1287541
  77.8721372  32.8574146  16.0565868  79.1673809  32.0891293  16.2113802
  75.8237469  32.7721511  12.3291893  75.6762432  31.8438218  12.5099463
  76.6490963  32.7941602  11.8448968  79.4271591  33.5950070  13.4156766
  80.3518139  33.3892931  13.2781217  79.2586895  33.3466471  14.3246107
  73.7653552  34.7936281  19.5292963  74.0740678  34.5485428  20.4015662
  74.5629034  34.9982919  19.0411833  73.7874164  36.9474190  11.7598339
  73.3479154  36.4550569  12.4531196  74.5382281  36.4047158  11.5190415
  71.3072564  20.9693988  23.4253147  71.3560719  21.8456110  23.0430917
  71.8495078  20.4271381  22.8524790  81.7927409  31.5135111  22.7054284
  81.0022953  31.4959250  22.1658784  81.5560764  32.0523405  23.4603321
  81.9125284  28.3627577  20.0187013  81.9623289  28.1977585  20.9602536
  81.8039208  27.4954836  19.6284894  79.2029047  24.3458505  21.3346319
  80.1038909  24.2064970  21.0430317  79.2777021  24.5112960  22.2744497
  73.5371852  21.7225360  20.1799506  72.6675161  22.0158926  19.9082094
  73.7731332  22.3065805  20.9006769  83.4143481  30.7824519  20.2629034
  83.1228289  31.1454499  21.0992495  82.8015612  30.0691527  20.0842366
  84.6139163  28.3477399  12.7831605  85.4486055  28.7867203  12.9469165
  84.7498292  27.8716052  11.9639850  81.6630669  25.9057133  18.7309092
  82.1384791  26.0984780  17.9227944  80.7396235  25.9616319  18.4852476
  80.3632338  22.7822893  16.9637398  81.3149761  22.8820991  16.9849622
  80.1935789  21.9901162  17.4735482  82.8420416  26.0029013  16.0779698
  82.8096736  25.0645014  16.2639381  83.4521040  26.0813050  15.3445522
  82.9914905  22.7940057  16.1237981  82.4753953  22.0098513  15.9367910
  83.8754853  22.4658773  16.2884500  88.6596966  27.0645020  15.2185734
  89.3900354  26.8030308  15.7793438  88.0503911  26.3273742  15.2587802
  86.7412263  25.2052883  15.8160186  86.0145427  25.0708847  15.2076677
  86.3259550  25.5129711  16.6216904  74.5642440  28.9242812  23.5807559
  75.4845449  29.1021411  23.7747605  74.5292023  27.9798858  23.4287258
  72.4332377  22.4077053  25.6133089  72.3329104  23.3571410  25.5445180
  72.2153919  22.0795292  24.7409159  72.2963647  25.8374191  24.4298150
  71.8130729  26.6374552  24.6362039  72.3824586  25.8482136  23.4765594
  68.2236985  29.7278726  16.4666584  69.1780238  29.6962669  16.3996516
  68.0249509  29.2669350  17.2816810  68.8136367  28.2979842  19.0337382
  69.6329256  28.7923921  19.0572219  69.0873175  27.3811810  19.0054949
  69.7356340  36.1667663  13.6955225  69.6188724  37.1113095  13.5933915
  68.9148786  35.8641224  14.0841024  76.5924673  29.6998824  25.2321719
  77.4615833  29.8739476  24.8708354  76.1131425  30.5193240  25.1097449
  70.7610854  36.8195925  16.9111153  71.6638100  36.8519535  17.2277648
  70.5348224  35.8896376  16.9257489  72.5164456  35.5726911  13.5721232
  71.5660087  35.5728773  13.4585604  72.8196942  34.8259646  13.0557266
  68.4068772  19.7785593  23.8304593  69.2700234  19.4222398  24.0407918
  67.8334183  19.4399488  24.5179997  88.2517149  41.4087450  14.6366994
  88.8895559  41.2894197  13.9330334  88.1337992  42.3568293  14.6954946
  85.0606855  41.3614878  14.5728519  84.7225367  41.2455942  13.6849054
  85.9296624  40.9606043  14.5529525  80.9193671  43.2150354  10.5625410
  80.3558536  43.1240291   9.7941697  80.8046066  42.3950259  11.0427902
  85.5426638  42.5149729  20.5314724  85.5315279  42.1202528  19.6595228
  85.7047278  41.7815802  21.1248496  78.4658103  44.7101546  13.4009630
  79.2579395  44.3692370  12.9855929  78.7054753  44.8196521  14.3211783
  86.4993230  46.8821322   5.8739875  85.8481210  47.4675402   5.4873888
  87.2937593  47.4127517   5.9334912  80.4248857  43.9710459   6.2727009
  81.1979733  43.4239446   6.1339885  80.7774256  44.8354708   6.4841470
  82.2633900  45.2986841  19.4793908  81.9723766  46.2032472  19.3640575
  82.8990884  45.3403369  20.1937978  83.1890106  42.6763690  16.0695268
  83.7853679  42.4519712  15.3552231  83.2465078  41.9348435  16.6720716
  87.8058418  39.1338903  11.7120202  88.5921507  38.7158327  11.3610619
  88.0697122  40.0384996  11.8801850  87.9768495  44.5711754   6.4108859
  87.3414328  44.6446380   7.1229764  87.6465901  45.1605353   5.7327938
  93.2066845  39.0714137  12.6153181  93.9392017  38.5013353  12.8491010
  92.4506201  38.6835737  13.0559686  82.4811424  42.0331231   6.1069834
  82.3647682  41.3576134   6.7750918  82.5913684  41.5463605   5.2901987
  84.8242965  41.4941378   9.8116523  84.4601172  40.9671999  10.5229445
  85.6810080  41.1039847   9.6383008  90.7292265  32.7835711  17.0747789
  90.3975590  33.6531122  16.8509004  90.1337879  32.4671995  17.7541820
  87.2223785  44.9848257  16.4743702  86.9224508  45.8873295  16.3659509
  86.8774844  44.7180440  17.3264855  80.6736266  41.4362054  12.5080406
  79.7486763  41.3038268  12.7158098  80.9220679  42.2156273  13.0050349
  90.6220929  37.5030797  14.1541139  89.7137806  37.4346205  13.8599900
  90.5708524  37.9802742  14.9822965  84.4437672  38.9788935   5.7924538
  84.3237298  39.4245986   6.6310019  83.7490261  39.3274253   5.2338077
  78.0345077  41.0795327  13.3424195  78.1637458  41.3329806  14.2563607
  77.3542529  41.6723035  13.0228851  82.2044565  51.7492577   9.4414670
  82.1268594  52.7000402   9.5203150  81.6006208  51.4038450  10.0989596
  84.6961794  38.9220442  22.0976037  83.9195128  39.4814363  22.0878901
  85.3352357  39.4077225  22.6190907  92.4882575  35.7047235  15.9319013
  91.8456955  35.9979768  15.2858808  91.9837503  35.5900156  16.7372210
  90.1422739  39.4510408   6.6204872  91.0540595  39.6837795   6.4452570
  89.6332386  40.0347453   6.0579951  82.9508167  41.7305896  21.6594004
  83.6922851  42.2690940  21.3828827  82.2445152  42.3572185  21.8165555
  88.4263506  43.8735036  20.2566165  88.8346862  43.4317447  19.5120797
  87.7040768  43.2987664  20.5100358  84.7794576  38.8107643  17.6299722
  85.6255771  39.2347057  17.7734371  84.7193214  38.1541267  18.3238285
  88.7492321  44.4336227  14.0118454  88.1201183  44.5981941  13.3094522
  88.3617983  44.8477836  14.7829418  92.6281553  45.3690665  11.3662818
  91.9432591  45.7489566  10.8159851  92.7125402  45.9785991  12.0994765
  87.9294022  36.4712011  19.2880896  87.6854953  37.2254072  18.7515171
  88.2053952  36.8497359  20.1228143  89.8832484  43.0150624  17.9658161
  90.0949380  43.6582384  17.2892542  89.8362233  42.1812940  17.4980091
  87.4858713  35.6268444  14.8694733  86.6243192  35.9249698  15.1611471
  87.5121148  35.8438843  13.9375766  84.3020283  44.1710635  11.2768539
  84.7658628  44.4498338  10.4873162  84.0377081  43.2694080  11.0941630
  81.1944364  43.7182117  14.2148302  81.7645721  44.1469385  13.5765787
  81.7852476  43.4364701  14.9132488  83.2389169  40.2933787   8.0858104
  83.9413212  40.7454831   8.5532031  82.9069797  39.6517606   8.7137997
  81.6869530  38.8845544  22.4609314  81.0568191  39.5661825  22.6944710
  81.5805618  38.7728626  21.5162452  76.9814503  38.5517340  13.3875238
  76.1913557  38.8074869  12.9115348  77.4725750  39.3665678  13.4927278
  90.9978312  45.8922579  16.1380519  91.8195756  45.4902766  15.8563200
  90.9940715  45.7890813  17.0896634  78.9329248  38.9161919  10.3458714
  78.1360411  39.0280614  10.8642210  78.7054840  39.2548571   9.4799605
  84.7634916  45.4406622  18.2941229  84.8279348  45.9027030  19.1299401
  84.0545840  44.8103987  18.4223539  75.2652206  38.8047830  15.8190229
  75.5160244  39.6894840  16.0847804  75.8011754  38.6252432  15.0465320
  99.0884305  42.2361328  12.4865490  98.3348014  41.6668726  12.3309494
  99.2231847  42.2023992  13.4336125  84.4782933  47.1074730   8.1620209
  84.3428608  47.9526266   8.5905057  85.0192746  47.3094008   7.3986143
  80.9650273  33.1866310  24.8234565  80.5717219  32.6332508  25.4982209
  81.7816413  33.4976888  25.2141082  77.9312331  44.6250168   8.7348134
  78.4436851  45.4193418   8.8853699  78.5835044  43.9276458   8.6681736
  79.7407216  47.7415924  10.8170888  79.9173844  48.6633889  10.6291872
  80.5364049  47.4274344  11.2465267  83.8818234  34.6024189  22.4154821
  84.6227947  35.2031342  22.3359284  84.1136157  33.8601827  21.8572864
  79.0259572  39.7880556  20.6933051  78.9113087  38.8865813  20.9940150
  78.1704090  40.0344253  20.3417867  86.1051410  47.7298296  22.2920551
  85.6615264  46.9434675  21.9741456  86.7668623  47.9177447  21.6264442
  80.8638531  49.2594098  16.8181230  81.4145956  49.1311161  16.0458224
  80.0250007  49.5588987  16.4676123  88.2032648  48.0101096  20.3201953
  88.1851123  48.8309977  19.8282222  89.1252568  47.8855172  20.5452094
  84.6605702  45.5245226  21.1625461  85.1934039  44.7633514  20.9324769
  84.1319783  45.2318878  21.9049616  87.8275397  30.6305292  16.6919103
  87.4839666  31.5206934  16.6158213  88.1954360  30.4406950  15.8288688
  75.8961248  42.9538822   9.5107705  76.7336470  43.3635831   9.2941413
  76.0739515  42.0138264   9.4807899  87.7925680  40.6213903   5.1991538
  87.2772303  41.3918508   5.4379925  87.5202988  39.9479039   5.8224599
  85.3772791  35.4663604  10.2576776  84.5214387  35.0770454  10.0782415
  85.7899743  35.5455565   9.3976562  86.9071937  33.0009947  14.6568336
  86.4036733  32.9640082  13.8436141  87.2002544  33.9102690  14.7164993
  83.1514823  33.0848677  13.6634518  84.0167820  32.8891485  13.3040407
  83.2192332  32.8559029  14.5903875  92.7659954  43.3746258   7.1344711
  91.9889397  43.0357417   6.6899874  93.4451435  43.3798881   6.4599676
  87.5811983  38.4940995   7.0251319  87.2762118  38.8087144   7.8761462
  88.5342425  38.5722415   7.0678652  86.0258415  44.6531218   8.6744273
  85.4979776  43.9183978   8.3617511  85.5245917  45.4305895   8.4284241
  91.0051261  42.8480239  13.7911319  90.3474935  43.5379500  13.8791448
  91.8091660  43.2376671  14.1345306  80.7577142  35.3150885  11.0350885
  81.3320894  35.0926066  10.3024078  81.3448125  35.3839579  11.7879486
  89.8156720  41.2024612  11.8415261  90.3288601  41.8354603  12.3436971
  90.4657943  40.6025807  11.4758621  83.0599810  32.1892134   9.7625954
  82.4064222  31.8741151   9.1382569  83.0180284  31.5667874  10.4885777
  87.0779094  51.1808936   4.5975932  86.4040793  51.4840633   5.2060890
  87.4644916  51.9838016   4.2481389  86.2937550  38.6774067  14.0873602
  85.3760112  38.8989014  13.9295290  86.7097694  38.7520378  13.2285309
  87.0772598  40.0765483   9.2176282  87.8244417  40.5886880   8.9083404
  87.3464188  39.7549536  10.0780676  85.3499248  42.5724024   6.2003236
  84.4410468  42.2883056   6.2975706  85.3794332  42.9923102   5.3406543
  90.5818516  46.1830613   9.9694404  90.1280843  45.3421523  10.0259594
  89.9512482  46.8192011  10.3069184  89.5251435  37.1122599  11.1995071
  88.7874192  36.5999985  11.5305314  89.7778209  36.6722981  10.3878348
  89.0251455  48.0207110  10.9044222  89.3174429  48.5812167  10.1856588
  89.5350076  48.3135671  11.6597381  89.6263063  29.8898851  11.7936841
  89.9321939  29.0296214  11.5062756  90.3515667  30.4816471  11.5935834
  75.9187419  40.2929538  10.1818438  75.7211819  39.6998898   9.4569505
  75.3634083  39.9881748  10.8994377  83.8984142  40.1852644  12.3013032
  83.9532752  39.2326481  12.2255508  83.0875344  40.3412083  12.7854330
  85.0475336  44.1132767   3.5391315  84.6094766  43.3968626   3.0796952
  85.7885777  44.3408882   2.9776406  81.8376502  38.8029704  10.0603410
  81.0244368  39.1023874  10.4668603  82.3335497  38.4085393  10.7777893
  83.9885080  48.7987461  11.9937675  83.9461259  49.0248307  11.0646207
  84.9047779  48.5650835  12.1423476  87.4350714  39.2671528  18.8918304
  87.7900102  39.4943001  19.7512770  88.0822845  39.5989905  18.2695560
  93.1648451  42.3889964   9.5967633  93.0266350  42.5791560   8.6688823
  92.8084670  43.1509347  10.0535685  81.3290577  36.3748059  15.6764645
  81.9689956  36.2336818  14.9787609  80.4968108  36.0882573  15.3003247
  93.1917831  44.4566491  14.6078905  93.6254337  44.3641780  15.4561959
  93.9049411  44.4323992  13.9698921  82.1050881  45.6750490  11.7899638
  82.8991479  45.1800810  11.5882213  81.3942573  45.1468353  11.4267343
  86.9245725  48.0568585  16.1412005  86.9782748  48.6259522  16.9089721
  86.0560507  48.2270470  15.7766043  78.4133644  39.8193572   7.8659391
  77.4831233  39.7578027   8.0829353  78.5091116  39.2969524   7.0696032
  78.3319193  36.3448384  10.4537632  78.5926011  37.2593718  10.3446793
  79.1536366  35.8772827  10.6034245  79.8044119  37.7586142  17.6236457
  80.4767172  37.5503504  16.9749106  78.9773905  37.5608228  17.1841689
  94.0533380  44.4990192  17.1411790  94.2469270  45.4036002  17.3871065
  93.9533998  44.0397611  17.9750375  85.7069691  34.3848082  19.6402118
  85.0597606  35.0838032  19.5466594  86.4770706  34.8184226  20.0078366
  89.1148489  44.6496935  22.7152671  88.9633995  44.4207486  21.7982755
  89.1053168  45.6067536  22.7284016  85.8833825  42.2228847  17.6998937
  86.8125885  42.3740007  17.5267905  85.4624855  42.3112868  16.8447584
  84.6822157  46.2479512  15.4697475  84.5433243  45.8798296  16.3423413
  83.8936753  46.7627151  15.2981433  85.2770309  51.3488608   6.8123011
  85.4522065  50.8776651   7.6268634  84.5903097  51.9754374   7.0404272
  86.2327372  45.6261114  12.8586313  85.8977205  45.5861884  13.7543963
  85.7331318  44.9605830  12.3856723  80.2071616  41.0328745  18.3838894
  80.0691414  40.3008983  18.9850433  81.1176540  40.9437645  18.1023082
  89.1686564  42.9717149   3.1323372  88.5515734  42.2463977   3.0356425
  88.7003052  43.7326509   2.7890447  82.8353917  40.7448704  17.8722574
  83.5453535  40.1041896  17.8309192  82.7923225  40.9961599  18.7948754
  90.8240695  47.6816057  20.7929153  90.7653242  46.9975277  20.1259736
  91.2260214  48.4235047  20.3409779  81.5482851  37.7313922  19.6918213
  81.0120208  37.2804660  20.3439809  80.9599559  37.8659831  18.9488677
  79.8431394  54.4977971  13.5862872  80.0827992  55.1296495  14.2641890
  79.0000591  54.1466011  13.8728231  90.8258103  45.6455641  19.0243132
  89.9384881  45.3081563  19.1469531  91.3956654  44.9138672  19.2611898
  72.4787250  41.9779733  12.3486184  73.1658290  41.6641463  11.7607199
  72.3235379  42.8821098  12.0753435  77.2821972  36.8669929  16.7771208
  77.1980161  36.2595599  16.0421617  76.4604678  37.3578948  16.7780704
  84.3559256  50.3057093  15.9904376  84.2829428  51.1112065  16.5023680
  83.9136649  50.5049059  15.1652397  84.1449036  49.5428864   9.5007197
  83.3616558  50.0850544   9.5945422  84.8441781  50.0602843   9.9001438
  87.4545686  35.3523493  12.1441403  87.9514385  34.5993455  11.8242473
  86.6832667  35.3887810  11.5784612  95.3075443  41.0563858  13.7859694
  95.2965319  41.9388574  13.4153627  94.4392823  40.7035409  13.5914231
  86.8157940  50.2043928  18.1462534  87.5285912  50.8391392  18.0738436
  86.3247968  50.3007793  17.3302536  88.5375467  44.1095180   9.7179826
  87.6031745  44.2296643   9.5484530  88.7152135  43.2067647   9.4539836
  84.0380655  37.4940876  11.8713087  83.6678442  36.9411916  12.5593993
  84.5339747  36.8899009  11.3188087  91.9248018  39.9512499  10.2529860
  92.3908470  40.7840491  10.1790163  92.3755518  39.4857481  10.9575119
  81.8669853  47.9538371  18.9668105  82.5679313  48.5874854  19.1197499
  81.3964968  48.2953103  18.2063744  89.9924249  46.2956321   7.2516012
  90.2684093  46.1812915   8.1609886  89.1228748  45.8973806   7.2128185
  89.8964681  32.3193086  14.2920761  88.9827760  32.5497313  14.4602968
  90.3257782  32.4031531  15.1434794  89.6671139  40.5082978  16.7920655
  89.0142589  40.7558886  16.1373108  90.0451519  39.6947117  16.4583133
  86.6278313  50.5442672  10.8948826  86.8100708  49.7264328  11.3576578
  87.4511299  50.7610364  10.4573716  86.9620478  49.4710857   8.1563874
  87.4908245  48.9603311   7.5434036  87.2248698  49.1553387   9.0209407
  85.7158712  41.2502789  23.2786693  85.0399349  41.1496919  23.9489068
  86.5386346  41.0942003  23.7422690  77.4637571  47.4874726  15.8999208
  78.0491008  46.7418414  16.0327112  77.2662410  47.7978683  16.7835872
  80.3176226  50.5225973  10.9161650  79.6486602  51.0072101  10.4325690
  80.1789096  50.7695194  11.8305029  72.0555226  40.0580326  14.6203651
  72.0939325  39.5243917  15.4140769  71.5495519  39.5315532  14.0014628
  84.4581495  52.5569717  17.5144309  85.0099803  52.7201338  18.2793394
  84.7987688  53.1474155  16.8424333  79.4345988  34.9044867  18.1166193
  79.4987315  35.7659698  17.7043591  79.3713108  34.2918868  17.3838552
  78.9098261  36.9767999  21.7639228  79.5370300  36.5945077  22.3776752
  78.0526180  36.7582201  22.1294920  89.3092369  47.3830974  23.3692963
  89.8532273  47.9960933  22.8747918  88.7279214  47.9410553  23.8859976
  87.5949882  50.5051692  14.5007991  87.4701022  49.7041432  13.9918936
  88.2528973  50.9997886  14.0121961  79.2158051  36.8600425  13.6785131
  78.4944636  37.4736393  13.5392604  80.0051306  37.3958190  13.6001777
  89.6584791  48.3060713  16.1287541  88.7115126  48.1866064  16.0565868
  90.0067564  47.4183211  16.2113802  82.0184364  34.1954851  19.9525783
  82.5418766  34.4417148  20.7152092  81.7996697  35.0274886  19.5328920
  86.6631224  48.1013429  12.3291893  86.5156186  47.1730136  12.5099463
  87.4884717  48.1233519  11.8448968  80.5293468  36.7531496   8.1872385
  80.8689541  37.2817417   7.4650994  80.9765589  37.0911902   8.9630952
  90.2665346  48.9241987  13.4156766  91.1911893  48.7184849  13.2781217
  90.0980649  48.6758389  14.3246107  83.2236909  35.1368547  17.6375453
  82.8833729  34.3376360  18.0396133  82.5175915  35.4370257  17.0652286
  83.8753381  32.2217859  16.0902776  84.6979450  31.7478337  15.9681667
  84.1191444  33.0008343  16.5901463  86.6592738  35.9551266   7.3224010
  86.8756353  36.8375904   7.0212838  86.1786805  35.5637480   6.5929652
  81.3991960  38.9136980  13.8994755  81.2536540  39.2277283  14.7919036
  80.9217163  39.5321880  13.3465653  83.2588343  35.9039528  13.9475644
  83.2449911  35.0080621  13.6107942  83.9760771  35.9110191  14.5813930
  85.1114473  36.3376868  15.9928772  84.8532251  37.2593938  15.9913102
  84.5799514  35.9407302  16.6829236  90.0560662  49.4427655   8.7718857
  90.2297540  48.8774077   8.0192710  90.5489553  50.2428550   8.5898347
  75.8737622  41.4542324  16.8382416  75.3291090  42.2302132  16.9702690
  76.7516972  41.8013128  16.6801537  82.6625238  34.7853908   9.2163215
  82.7841150  33.8570554   9.4154102  82.3727281  34.7992594   8.3041530
  85.5316429  32.4708818  12.3529934  85.5538126  32.5348151  11.3981914
  85.9484488  31.6313327  12.5470441  95.9100053  42.2064078  10.3909157
  96.3531199  41.4571403   9.9928280  95.0326563  42.1974214  10.0082889
  91.0435835  48.7594419   5.8715756  91.7386739  49.3801112   6.0903070
  91.3858985  47.9089771   6.1468133  76.6603644  40.5812220  19.7312573
  75.9185380  40.7294856  20.3177203  76.3396388  40.8420486  18.8679322
  92.9427258  46.2094125   7.4003086  93.4678582  46.5481398   6.6752406
  92.8549610  45.2741140   7.2166221  84.6047306  50.1228199  19.5292963
  84.9134433  49.8777345  20.4015662  85.4022788  50.3274837  19.0411833
  84.6267918  52.2766108  11.7598339  84.1872909  51.7842487  12.4531196
  85.3776035  51.7339076  11.5190415  77.1060257  48.4677649  11.7622968
  77.9318277  48.1681421  11.3821611  76.7554309  47.6985271  12.2112756
  82.0741791  47.8204117  13.8320641  81.4521800  47.1574822  13.5322869
  82.7446657  47.8465249  13.1494289  75.3068862  46.3863975  12.7211901
  74.4700771  45.9586150  12.5395902  75.2792508  46.5796419  13.6582692
  82.1466318  36.2985905  23.4253147  82.1954473  37.1748028  23.0430917
  82.6888832  35.7563298  22.8524790  92.6321164  46.8427029  22.7054284
  91.8416707  46.8251167  22.1658784  92.3954518  47.3815322  23.4603321
  92.7519039  43.6919495  20.0187013  92.8017044  43.5269502  20.9602536
  92.6432962  42.8246754  19.6284894  81.6355297  46.3708041   7.3079102
  81.7843418  47.0543505   6.6545774  82.4421741  46.3513131   7.8228557
  90.0422801  39.6750423  21.3346319  90.9432664  39.5356888  21.0430317
  90.1170776  39.8404878  22.2744497  84.3765606  37.0517278  20.1799506
  83.5068916  37.3450844  19.9082094  84.6125087  37.6357723  20.9006769
  94.2537236  46.1116436  20.2629034  93.9622044  46.4746417  21.0992495
  93.6409367  45.3983445  20.0842366  95.4532918  43.6769316  12.7831605
  96.2879809  44.1159120  12.9469165  95.5892047  43.2007969  11.9639850
  92.5024424  41.2349051  18.7309092  92.9778545  41.4276697  17.9227944
  91.5789989  41.2908237  18.4852476  79.3907930  42.3973218   8.3140171
  79.1453972  41.4935548   8.5120381  79.5603845  42.3990369   7.3719649
  87.0804640  33.2696895  17.6964926  87.5986584  34.0057922  17.3711415
  86.7259773  33.5760888  18.5311685  87.3317234  29.6897177  13.2165823
  87.6118988  29.0220366  13.8426249  88.1167841  29.8826273  12.7040487
  85.1350703  48.8656171   4.7790849  84.5624670  49.4846358   4.3261321
  85.7083497  49.4155533   5.3130771  91.2026093  38.1114811  16.9637398
  92.1543516  38.2112909  16.9849622  91.0329543  37.3193080  17.4735482
  89.2240472  35.1970394  17.1496799  88.6290404  35.4775407  16.4543287
  88.9390169  35.6864295  17.9213540  88.3547963  49.1493321   5.9099431
  89.2878636  49.0838883   6.1132307  88.2671176  49.9849588   5.4513964
  90.9835979  48.4659192   2.8703379  90.9049611  48.1319055   3.7639137
  91.8045646  48.9580959   2.8694851  93.6814171  41.3320931  16.0779698
  93.6490491  40.3936932  16.2639381  94.2914794  41.4104968  15.3445522
  93.8308659  38.1231974  16.1237981  93.3147708  37.3390431  15.9367910
  94.7148608  37.7950691  16.2884500  91.4919386  31.8672990  12.0833793
  91.2944207  31.5588078  12.9677125  92.1019092  32.5934629  12.2131723
  99.4990720  42.3936938  15.2185734 100.2294109  42.1322226  15.7793438
  98.8897666  41.6565660  15.2587802  97.5806018  40.5344800  15.8160186
  96.8539181  40.4000765  15.2076677  97.1653304  40.8421629  16.6216904
  85.4036194  44.2534730  23.5807559  86.3239203  44.4313329  23.7747605
  85.3685777  43.3090775  23.4287258  74.6218359  39.4473324  12.5060833
  74.3021143  38.5938632  12.2135207  74.0751787  39.6621902  13.2618801
  78.3998267  42.1635765  16.2230340  78.6184276  43.0952872  16.2418374
  78.8124040  41.8043739  17.0085144  85.3202484  32.6703850   8.2106028
  84.5103213  32.3250935   8.5861274  86.0086901  32.3611394   8.7993640
  87.2493033  31.7481897   9.8330325  87.8024071  32.1677350  10.4920348
  87.4863119  30.8217645   9.8753281  83.2726132  37.7368970  25.6133089
  83.1722859  38.6863327  25.5445180  83.0547674  37.4087209  24.7409159
  74.4906619  43.0676235  14.4753955  73.7970090  42.6530188  13.9623909
  75.2379610  43.1096772  13.8787374  90.6271840  33.8582422   9.3408989
  90.0470509  34.5167226   8.9587041  90.3607772  33.0359766   8.9296407
  89.0775406  33.2587480  11.5430309  89.5775184  33.3704014  10.7344628
  89.7211014  32.9548532  12.1831118  83.1357402  41.1666109  24.4298150
  82.6524484  41.9666469  24.6362039  83.2218341  41.1774054  23.4765594
  76.4043362  42.9994489  12.3519970  76.3814050  43.0982176  11.4001853
  76.7143998  43.8459640  12.6737136  79.0630739  45.0570644  16.4666584
  80.0173993  45.0254586  16.3996516  78.8643263  44.5961268  17.2816810
  79.6530122  43.6271760  19.0337382  80.4723011  44.1215839  19.0572219
  79.9266929  42.7103728  19.0054949  89.4096718  36.0182512   8.3965337
  88.5222573  36.3032163   8.1785532  89.8250707  35.8576276   7.5492614
  92.7611254  36.0429033  12.1119677  93.5371644  36.5325486  12.3844293
  92.0359388  36.4687087  12.5691546  95.1983812  36.7556652  13.1693617
  95.7928303  36.5152388  12.4586925  95.2710396  36.0363783  13.7967153
  77.4180968  50.5990263  13.4836782  77.2835436  49.8390664  12.9174780
  77.0013030  51.3231163  13.0165571  88.5539931  45.7827187   2.4913357
  89.2575781  45.9877189   3.1071013  87.8302580  46.3503949   2.7562441
  89.3837741  41.5337048   8.6115627  89.3272943  41.9905600   7.7723260
  89.9366084  40.7727733   8.4338470  93.1942547  37.3226780   9.4365747
  92.9379482  36.9223416  10.2673955  92.5695415  38.0370574   9.3115886
  97.5054885  40.0622853  11.9437038  96.9454443  40.1316043  12.7168600
  96.8998389  39.8863838  11.2236535  80.5750094  51.4959580  13.6955225
  80.4582478  52.4405013  13.5933915  79.7542540  51.1933142  14.0841024
  90.4626629  46.2209716   4.5411817  91.2972233  45.7890915   4.3589292
  90.3010972  46.0491730   5.4688712  90.1172521  42.7241829   5.9068157
  90.0621325  42.5586101   4.9656601  89.4918576  43.4317862   6.0630346
  74.9065036  37.9609894  19.7329579  75.5523899  37.4508848  20.2216804
  74.6982187  38.6978575  20.3073004  87.4318428  45.0290741  25.2321719
  88.3009588  45.2031394  24.8708354  86.9525179  45.8485158  25.1097449
  81.6004608  52.1487842  16.9111153  82.5031855  52.1811453  17.2277648
  81.3741978  51.2188293  16.9257489  83.3558210  50.9018829  13.5721232
  82.4053841  50.9020690  13.4585604  83.6590696  50.1551563  13.0557266
  87.2420766  28.8192715   9.7399412  86.4753162  28.2651202   9.8856094
  87.6531471  28.8914584  10.6013563  79.2462527  35.1077511  23.8304593
  80.1093988  34.7514316  24.0407918  78.6727937  34.7691406  24.5179997
  99.0910904  56.7379367  14.6366994  99.7289314  56.6186115  13.9330334
  98.9731747  57.6860211  14.6954946  95.9000610  56.6906795  14.5728519
  95.5619122  56.5747860  13.6849054  96.7690378  56.2897960  14.5529525
  91.7587426  58.5442272  10.5625410  91.1952291  58.4532209   9.7941697
  91.6439821  57.7242176  11.0427902  96.3820393  57.8441647  20.5314724
  96.3709034  57.4494445  19.6595228  96.5441032  57.1107720  21.1248496
  89.3051858  60.0393463  13.4009630  90.0973150  59.6984288  12.9855929
  89.5448508  60.1488438  14.3211783  97.3386984  62.2113239   5.8739875
  96.6874964  62.7967320   5.4873888  98.1331347  62.7419434   5.9334912
  91.2642612  59.3002377   6.2727009  92.0373488  58.7531364   6.1339885
  91.6168010  60.1646626   6.4841470  93.1027654  60.6278759  19.4793908
  92.8117520  61.5324390  19.3640575  93.7384638  60.6695286  20.1937978
  94.0283861  58.0055607  16.0695268  94.6247433  57.7811630  15.3552231
  94.0858833  57.2640353  16.6720716  93.6008889  55.4595043   3.9045459
  93.8534410  54.9376564   3.1428922  92.6633448  55.2961188   4.0072142
  98.6452172  54.4630821  11.7120202  99.4315261  54.0450244  11.3610619
  98.9090877  55.3676913  11.8801850  98.8162250  59.9003671   6.4108859
  98.1808083  59.9738298   7.1229764  98.4859656  60.4897270   5.7327938
 104.0460599  54.4006054  12.6153181 104.7785771  53.8305271  12.8491010
 103.2899955  54.0127655  13.0559686  93.3205178  57.3623149   6.1069834
  93.2041436  56.6868052   6.7750918  93.4307438  56.8755523   5.2901987
  95.6636719  56.8233296   9.8116523  95.2994926  56.2963917  10.5229445
  96.5203835  56.4331765   9.6383008 101.5686020  48.1127628  17.0747789
 101.2369344  48.9823039  16.8509004 100.9731633  47.7963912  17.7541820
  95.3042206  51.8523195   4.8077872  95.4716608  52.7203432   5.1748343
  95.1139375  52.0150477   3.8839161  98.0617539  60.3140174  16.4743702
  97.7618262  61.2165213  16.3659509  97.7168599  60.0472358  17.3264855
  91.5130021  56.7653971  12.5080406  90.5880517  56.6330185  12.7158098
  91.7614434  57.5448190  13.0050349 101.4614683  52.8322715  14.1541139
 100.5531560  52.7638123  13.8599900 101.4102279  53.3094659  14.9822965
  95.2831427  54.3080853   5.7924538  95.1631052  54.7537904   6.6310019
  94.5884015  54.6566171   5.2338077  88.8738832  56.4087245  13.3424195
  89.0031213  56.6621724  14.2563607  88.1936283  57.0014953  13.0228851
  93.0438319  67.0784495   9.4414670  92.9662349  68.0292320   9.5203150
  92.4399963  66.7330367  10.0989596  95.5355549  54.2512360  22.0976037
  94.7588883  54.8106280  22.0878901  96.1746112  54.7369143  22.6190907
 103.3276329  51.0339153  15.9319013 102.6850710  51.3271686  15.2858808
 102.8231258  50.9192073  16.7372210 100.9816493  54.7802326   6.6204872
 101.8934349  55.0129713   6.4452570 100.4726140  55.3639370   6.0579951
  93.7901921  57.0597813  21.6594004  94.5316605  57.5982857  21.3828827
  93.0838907  57.6864102  21.8165555  99.2657261  59.2026954  20.2566165
  99.6740617  58.7609364  19.5120797  98.5434522  58.6279581  20.5100358
  95.6188331  54.1399561  17.6299722  96.4649526  54.5638974  17.7734371
  95.5586968  53.4833185  18.3238285  99.5886075  59.7628145  14.0118454
  98.9594938  59.9273859  13.3094522  99.2011737  60.1769754  14.7829418
 103.4675307  60.6982582  11.3662818 102.7826345  61.0781484  10.8159851
 103.5519157  61.3077909  12.0994765  98.7687776  51.8003929  19.2880896
  98.5248708  52.5545990  18.7515171  99.0447707  52.1789277  20.1228143
 100.7226239  58.3442541  17.9658161 100.9343134  58.9874301  17.2892542
 100.6755987  57.5104858  17.4980091  98.3252468  50.9560362  14.8694733
  97.4636947  51.2541616  15.1611471  98.3514902  51.1730761  13.9375766
  95.1414037  59.5002553  11.2768539  95.6052383  59.7790256  10.4873162
  94.8770835  58.5985997  11.0941630  92.0338118  59.0474034  14.2148302
  92.6039475  59.4761303  13.5765787  92.6246230  58.7656619  14.9132488
  94.0782923  55.6225705   8.0858104  94.7806967  56.0746749   8.5532031
  93.7463552  54.9809524   8.7137997  92.5263285  54.2137462  22.4609314
  91.8961945  54.8953743  22.6944710  92.4199373  54.1020543  21.5162452
  87.8208257  53.8809258  13.3875238  87.0307311  54.1366786  12.9115348
  88.3119505  54.6957596  13.4927278 101.8372067  61.2214497  16.1380519
 102.6589511  60.8194684  15.8563200 101.8334470  61.1182731  17.0896634
  89.7723003  54.2453837  10.3458714  88.9754166  54.3572531  10.8642210
  89.5448595  54.5840489   9.4799605  95.6028670  60.7698540  18.2941229
  95.6673103  61.2318947  19.1299401  94.8939594  60.1395905  18.4223539
  86.1045960  54.1339748  15.8190229  86.3553999  55.0186758  16.0847804
  86.6405509  53.9544350  15.0465320 109.9278060  57.5653245  12.4865490
 109.1741768  56.9960643  12.3309494 110.0625601  57.5315910  13.4336125
  95.3176688  62.4366648   8.1620209  95.1822363  63.2818183   8.5905057
  95.8586500  62.6385925   7.3986143  91.8044028  48.5158228  24.8234565
  91.4110973  47.9624426  25.4982209  92.6210168  48.8268806  25.2141082
  88.7706085  59.9542086   8.7348134  89.2830606  60.7485336   8.8853699
  89.4228798  59.2568376   8.6681736  90.5800970  63.0707842  10.8170888
  90.7567598  63.9925807  10.6291872  91.3757804  62.7566261  11.2465267
  94.7211989  49.9316107  22.4154821  95.4621702  50.5323260  22.3359284
  94.9529911  49.1893744  21.8572864  89.8653327  55.1172474  20.6933051
  89.7506842  54.2157731  20.9940150  89.0097844  55.3636171  20.3417867
  96.9445164  63.0590214  22.2920551  96.5009018  62.2726593  21.9741456
  97.6062378  63.2469365  21.6264442  91.7032285  64.5886016  16.8181230
  92.2539711  64.4603079  16.0458224  90.8643761  64.8880905  16.4676123
  99.0426402  63.3393014  20.3201953  99.0244878  64.1601895  19.8282222
  99.9646322  63.2147089  20.5452094  95.4999457  60.8537144  21.1625461
  96.0327793  60.0925432  20.9324769  94.9713538  60.5610795  21.9049616
  98.6669151  45.9597210  16.6919103  98.3233421  46.8498851  16.6158213
  99.0348114  45.7698867  15.8288688  86.7355002  58.2830740   9.5107705
  87.5730224  58.6927748   9.2941413  86.9133270  57.3430182   9.4807899
  98.6319434  55.9505821   5.1991538  98.1166058  56.7210425   5.4379925
  98.3596743  55.2770957   5.8224599  96.2166545  50.7955521  10.2576776
  95.3608142  50.4062372  10.0782415  96.6293497  50.8747482   9.3976562
  97.7465692  48.3301865  14.6568336  97.2430487  48.2932000  13.8436141
  98.0396299  49.2394607  14.7164993  93.9908578  48.4140594  13.6634518
  94.8561575  48.2183403  13.3040407  94.0586087  48.1850946  14.5903875
 103.6053708  58.7038175   7.1344711 102.8283151  58.3649335   6.6899874
 104.2845189  58.7090798   6.4599676  98.4205737  53.8232913   7.0251319
  98.1155873  54.1379062   7.8761462  99.3736180  53.9014333   7.0678652
  96.8652169  59.9823136   8.6744273  96.3373531  59.2475896   8.3617511
  96.3639672  60.7597812   8.4284241 101.8445015  58.1772157  13.7911319
 101.1868690  58.8671418  13.8791448 102.6485414  58.5668588  14.1345306
  91.5970897  50.6442802  11.0350885  92.1714649  50.4217984  10.3024078
  92.1841879  50.7131497  11.7879486 100.6550474  56.5316529  11.8415261
 101.1682356  57.1646521  12.3436971 101.3051698  55.9317725  11.4758621
  91.9240484  52.6747263   5.0546770  91.0877796  53.0121950   5.3756045
  91.7845254  52.5396243   4.1173907  93.8993565  47.5184051   9.7625954
  93.2457977  47.2033068   9.1382569  93.8574039  46.8959792  10.4885777
  95.0104769  57.8003346   1.6779246  94.1031831  57.5692600   1.8770395
  95.5075801  57.0040966   1.8653228  97.9172848  66.5100854   4.5975932
  97.2434547  66.8132550   5.2060890  98.3038670  67.3129934   4.2481389
  97.1331305  54.0065985  14.0873602  96.2153866  54.2280932  13.9295290
  97.5491449  54.0812295  13.2285309  97.9166353  55.4057400   9.2176282
  98.6638172  55.9178798   8.9083404  98.1857942  55.0841453  10.0780676
  96.1893003  57.9015941   6.2003236  95.2804222  57.6174974   6.2975706
  96.2188087  58.3215020   5.3406543 101.4212270  61.5122531   9.9694404
 100.9674597  60.6713441  10.0259594 100.7906237  62.1483929  10.3069184
 100.3645190  52.4414517  11.1995071  99.6267947  51.9291903  11.5305314
 100.6171963  52.0014898  10.3878348  99.8645210  63.3499027  10.9044222
 100.1568184  63.9104084  10.1856588 100.3743830  63.6427588  11.6597381
 100.4656817  45.2190769  11.7936841 100.7715694  44.3588132  11.5062756
 101.1909422  45.8108389  11.5935834  86.7581173  55.6221455  10.1818438
  86.5605573  55.0290816   9.4569505  86.2027837  55.3173666  10.8994377
  94.7377897  55.5144562  12.3013032  94.7926507  54.5618398  12.2255508
  93.9269099  55.6704001  12.7854330  95.8869091  59.4424685   3.5391315
  95.4488521  58.7260544   3.0796952  96.6279532  59.6700800   2.9776406
  92.6770257  54.1321622  10.0603410  91.8638122  54.4315792  10.4668603
  93.1729251  53.7377310  10.7777893  94.8278835  64.1279378  11.9937675
  94.7855013  64.3540225  11.0646207  95.7441534  63.8942753  12.1423476
  98.2744468  54.5963446  18.8918304  98.6293856  54.8234919  19.7512770
  98.9216600  54.9281823  18.2695560 104.0042205  57.7181882   9.5967633
 103.8660104  57.9083478   8.6688823 103.6478424  58.4801265  10.0535685
  92.1684332  51.7039977  15.6764645  92.8083711  51.5628736  14.9787609
  91.3361862  51.4174490  15.3003247 104.0311585  59.7858409  14.6078905
 104.4648092  59.6933698  15.4561959 104.7443166  59.7615909  13.9698921
  92.9444635  61.0042407  11.7899638  93.7385234  60.5092728  11.5882213
  92.2336328  60.4760271  11.4267343  97.7639480  63.3860503  16.1412005
  97.8176502  63.9551439  16.9089721  96.8954261  63.5562388  15.7766043
  89.2527399  55.1485489   7.8659391  88.3224987  55.0869945   8.0829353
  89.3484871  54.6261442   7.0696032  89.1712948  51.6740302  10.4537632
  89.4319765  52.5885635  10.3446793  89.9930120  51.2064745  10.6034245
  90.6437873  53.0878059  17.6236457  91.3160927  52.8795421  16.9749106
  89.8167660  52.8900145  17.1841689 104.8927135  59.8282110  17.1411790
 105.0863025  60.7327920  17.3871065 104.7927753  59.3689529  17.9750375
  96.5463445  49.7140000  19.6402118  95.8991360  50.4129950  19.5466594
  97.3164461  50.1476144  20.0078366  99.9542243  59.9788852  22.7152671
  99.8027750  59.7499404  21.7982755  99.9446923  60.9359454  22.7284016
  96.7227580  57.5520765  17.6998937  97.6519640  57.7031925  17.5267905
  96.3018610  57.6404786  16.8447584  95.5215911  61.5771429  15.4697475
  95.3826997  61.2090214  16.3423413  94.7330508  62.0919069  15.2981433
  96.1164063  66.6780526   6.8123011  96.2915819  66.2068569   7.6268634
  95.4296851  67.3046292   7.0404272  97.0721127  60.9553032  12.8586313
  96.7370959  60.9153802  13.7543963  96.5725072  60.2897748  12.3856723
  91.0465371  56.3620662  18.3838894  90.9085169  55.6300901  18.9850433
  91.9570294  56.2729562  18.1023082 100.0080318  58.3009067   3.1323372
  99.3909489  57.5755895   3.0356425  99.5396807  59.0618427   2.7890447
  93.6747671  56.0740622  17.8722574  94.3847290  55.4333814  17.8309192
  93.6316979  56.3253516  18.7948754 101.6634450  63.0107975  20.7929153
 101.6046996  62.3267195  20.1259736 102.0653968  63.7526965  20.3409779
  92.3876605  53.0605839  19.6918213  91.8513962  52.6096578  20.3439809
  91.7993314  53.1951748  18.9488677  90.6825149  69.8269889  13.5862872
  90.9221747  70.4588413  14.2641890  89.8394345  69.4757929  13.8728231
  91.7978864  52.5194491   2.2544677  90.9208330  52.3983292   1.8906923
  92.2736617  51.7280569   2.0023565 101.6651857  60.9747559  19.0243132
 100.7778636  60.6373481  19.1469531 102.2350408  60.2430590  19.2611898
  83.3181004  57.3071651  12.3486184  84.0052044  56.9933381  11.7607199
  83.1629133  58.2113015  12.0753435  88.1215726  52.1961847  16.7771208
  88.0373915  51.5887517  16.0421617  87.2998433  52.6870865  16.7780704
  95.1953011  65.6349011  15.9904376  95.1223182  66.4403983  16.5023680
  94.7530404  65.8340977  15.1652397  94.9842790  64.8720781   9.5007197
  94.2010312  65.4142461   9.5945422  95.6835535  65.3894761   9.9001438
  98.2939440  50.6815411  12.1441403  98.7908140  49.9285373  11.8242473
  97.5226422  50.7179727  11.5784612 106.1469198  56.3855776  13.7859694
 106.1359074  57.2680492  13.4153627 105.2786577  56.0327327  13.5914231
  97.6551694  65.5335845  18.1462534  98.3679666  66.1683310  18.0738436
  97.1641723  65.6299711  17.3302536  99.3769221  59.4387098   9.7179826
  98.4425500  59.5588560   9.5484530  99.5545889  58.5359565   9.4539836
  94.8774409  52.8232794  11.8713087  94.5072197  52.2703834  12.5593993
  95.3733502  52.2190927  11.3188087 102.7641772  55.2804417  10.2529860
 103.2302225  56.1132409  10.1790163 103.2149273  54.8149399  10.9575119
  92.7063608  63.2830289  18.9668105  93.4073067  63.9166772  19.1197499
  92.2358723  63.6245020  18.2063744 100.8318003  61.6248238   7.2516012
 101.1077847  61.5104833   8.1609886  99.9622502  61.2265723   7.2128185
 100.7358435  47.6485004  14.2920761  99.8221515  47.8789231  14.4602968
 101.1651537  47.7323448  15.1434794 100.5064894  55.8374896  16.7920655
  99.8536344  56.0850804  16.1373108 100.8845274  55.0239034  16.4583133
  97.4672067  65.8734589  10.8948826  97.6494462  65.0556245  11.3576578
  98.2905053  66.0902282  10.4573716  97.8014233  64.8002774   8.1563874
  98.3301999  64.2895229   7.5434036  98.0642453  64.4845305   9.0209407
  96.5552467  56.5794707  23.2786693  95.8793104  56.4788836  23.9489068
  97.3780101  56.4233921  23.7422690  88.3031326  62.8166644  15.8999208
  88.8884763  62.0710332  16.0327112  88.1056164  63.1270600  16.7835872
  91.1569981  65.8517891  10.9161650  90.4880356  66.3364019  10.4325690
  91.0182851  66.0987112  11.8305029  82.8948980  55.3872244  14.6203651
  82.9333080  54.8535835  15.4140769  82.3889273  54.8607449  14.0014628
  95.2975250  67.8861635  17.5144309  95.8493558  68.0493256  18.2793394
  95.6381443  68.4766072  16.8424333  90.2739743  50.2336784  18.1166193
  90.3381069  51.0951615  17.7043591  90.2106863  49.6210786  17.3838552
  89.7492015  52.3059917  21.7639228  90.3764054  51.9236994  22.3776752
  88.8919934  52.0874119  22.1294920 100.1486124  62.7122892  23.3692963
 100.6926028  63.3252850  22.8747918  99.5672969  63.2702471  23.8859976
  86.5257558  54.1136346   7.6957582  86.8210999  53.2047024   7.6424636
  85.6245594  54.0924086   7.3738585  98.4343637  65.8343610  14.5007991
  98.3094776  65.0333350  13.9918936  99.0922728  66.3289803  14.0121961
  90.0551805  52.1892343  13.6785131  89.3338391  52.8028310  13.5392604
  90.8445061  52.7250107  13.6001777 100.4978545  63.6352630  16.1287541
  99.5508881  63.5157981  16.0565868 100.8461318  62.7475128  16.2113802
  92.8578119  49.5246769  19.9525783  93.3812520  49.7709066  20.7152092
  92.6390452  50.3566804  19.5328920  88.2545400  51.7950444   7.8196907
  87.9258106  50.9147823   7.6372013  88.6084770  51.7398112   8.7073297
  97.5024978  63.4305346  12.3291893  97.3549941  62.5022054  12.5099463
  98.3278472  63.4525437  11.8448968  91.3687223  52.0823414   8.1872385
  91.7083295  52.6109335   7.4650994  91.8159343  52.4203820   8.9630952
 101.1059100  64.2533905  13.4156766 102.0305648  64.0476767  13.2781217
 100.9374404  64.0050306  14.3246107  94.0630664  50.4660464  17.6375453
  93.7227484  49.6668277  18.0396133  93.3569670  50.7662175  17.0652286
  94.7147135  47.5509777  16.0902776  95.5373205  47.0770255  15.9681667
  94.9585199  48.3300260  16.5901463  93.3555370  50.5798035   6.3865678
  94.0763732  50.9579288   5.8829395  92.7320674  51.2986912   6.4900656
  97.4986493  51.2843184   7.3224010  97.7150107  52.1667822   7.0212838
  97.0180560  50.8929397   6.5929652  92.2385714  54.2428897  13.8994755
  92.0930295  54.5569200  14.7919036  91.7610918  54.8613798  13.3465653
  94.0982097  51.2331445  13.9475644  94.0843666  50.3372539  13.6107942
  94.8154525  51.2402109  14.5813930  95.9508228  51.6668785  15.9928772
  95.6926006  52.5885856  15.9913102  95.4193268  51.2699220  16.6829236
 100.8954417  64.7719573   8.7718857 101.0691294  64.2065995   8.0192710
 101.3883308  65.5720467   8.5898347  86.7131376  56.7834242  16.8382416
  86.1684844  57.5594050  16.9702690  87.5910726  57.1305046  16.6801537
  93.5018993  50.1145826   9.2163215  93.6234904  49.1862472   9.4154102
  93.2121035  50.1284512   8.3041530  96.3710183  47.8000736  12.3529934
  96.3931880  47.8640069  11.3981914  96.7878242  46.9605245  12.5470441
 106.7493808  57.5355996  10.3909157 107.1924954  56.7863321   9.9928280
 105.8720318  57.5266132  10.0082889 101.8829589  64.0886337   5.8715756
 102.5780494  64.7093030   6.0903070 102.2252739  63.2381688   6.1468133
  87.4997398  55.9104138  19.7312573  86.7579134  56.0586773  20.3177203
  87.1790142  56.1712404  18.8679322 103.7821012  61.5386043   7.4003086
 104.3072336  61.8773315   6.6752406 103.6943365  60.6033058   7.2166221
  95.4441061  65.4520116  19.5292963  95.7528187  65.2069263  20.4015662
  96.2416543  65.6566755  19.0411833  95.4661673  67.6058026  11.7598339
  95.0266663  67.1134405  12.4531196  96.2169790  67.0630993  11.5190415
  87.9454012  63.7969567  11.7622968  88.7712032  63.4973339  11.3821611
  87.5948064  63.0277189  12.2112756  92.9135545  63.1496035  13.8320641
  92.2915554  62.4866740  13.5322869  93.5840412  63.1757167  13.1494289
  86.1462617  61.7155893  12.7211901  85.3094525  61.2878068  12.5395902
  86.1186262  61.9088336  13.6582692  92.9860073  51.6277823  23.4253147
  93.0348228  52.5039946  23.0430917  93.5282587  51.0855216  22.8524790
 103.4714918  62.1718946  22.7054284 102.6810462  62.1543085  22.1658784
 103.2348273  62.7107240  23.4603321 103.5912793  59.0211413  20.0187013
 103.6410798  58.8561420  20.9602536 103.4826717  58.1538672  19.6284894
  92.4749052  61.6999958   7.3079102  92.6237172  62.3835423   6.6545774
  93.2815495  61.6805048   7.8228557 100.8816556  55.0042341  21.3346319
 101.7826418  54.8648805  21.0430317 100.9564530  55.1696795  22.2744497
  95.2159361  52.3809195  20.1799506  94.3462670  52.6742761  19.9082094
  95.4518841  52.9649640  20.9006769 105.0930990  61.4408354  20.2629034
 104.8015798  61.8038335  21.0992495 104.4803121  60.7275362  20.0842366
 106.2926672  59.0061234  12.7831605 107.1273564  59.4451038  12.9469165
 106.4285801  58.5299887  11.9639850 103.3418178  56.5640969  18.7309092
 103.8172300  56.7568615  17.9227944 102.4183744  56.6200155  18.4852476
  90.2301685  57.7265136   8.3140171  89.9847727  56.8227466   8.5120381
  90.3997599  57.7282286   7.3719649  97.9198395  48.5988812  17.6964926
  98.4380339  49.3349839  17.3711415  97.5653528  48.9052806  18.5311685
  89.4997332  53.4593493   5.8126332  88.8066577  53.5337848   5.1566368
  89.2549084  52.6953837   6.3347849  98.1710989  45.0189095  13.2165823
  98.4512743  44.3512284  13.8426249  98.9561596  45.2118190  12.7040487
  95.9744457  64.1948089   4.7790849  95.4018425  64.8138276   4.3261321
  96.5477251  64.7447450   5.3130771 102.0419847  53.4406729  16.9637398
 102.9937270  53.5404826  16.9849622 101.8723298  52.6484997  17.4735482
 100.0634227  50.5262312  17.1496799  99.4684159  50.8067325  16.4543287
  99.7783923  51.0156213  17.9213540  99.1941717  64.4785239   5.9099431
 100.1272390  64.4130801   6.1132307  99.1064930  65.3141506   5.4513964
 101.8229734  63.7951109   2.8703379 101.7443365  63.4610973   3.7639137
 102.6439401  64.2872877   2.8694851 104.5207925  56.6612848  16.0779698
 104.4884245  55.7228849  16.2639381 105.1308549  56.7396885  15.3445522
  96.3591256  55.5308901   2.1206902  97.3050361  55.4015110   2.1895320
  95.9805501  54.7923563   2.5976330 104.6702414  53.4523892  16.1237981
 104.1541462  52.6682349  15.9367910 105.5542362  53.1242609  16.2884500
 102.3313141  47.1964907  12.0833793 102.1337962  46.8879996  12.9677125
 102.9412846  47.9226546  12.2131723 110.3384475  57.7228855  15.2185734
 111.0687863  57.4614143  15.7793438 109.7291420  56.9857577  15.2587802
 108.4199772  55.8636718  15.8160186 107.6932936  55.7292683  15.2076677
 108.0047059  56.1713547  16.6216904  96.2429948  59.5826648  23.5807559
  97.1632958  59.7605247  23.7747605  96.2079532  58.6382693  23.4287258
  94.5434173  53.4558878   2.0561787  93.6365629  53.1591991   2.1324500
  94.8210154  53.1588696   1.1896073  85.4612113  54.7765241  12.5060833
  85.1414898  53.9230549  12.2135207  84.9145542  54.9913819  13.2618801
  89.2392021  57.4927682  16.2230340  89.4578031  58.4244790  16.2418374
  89.6517795  57.1335657  17.0085144  96.1596239  47.9995768   8.2106028
  95.3496967  47.6542853   8.5861274  96.8480656  47.6903311   8.7993640
  98.0886787  47.0773814   9.8330325  98.6417826  47.4969268  10.4920348
  98.3256873  46.1509562   9.8753281  94.1119886  53.0660888  25.6133089
  94.0116613  54.0155245  25.5445180  93.8941428  52.7379127  24.7409159
  93.3132958  50.3145813   2.1973766  94.1752122  50.6400711   2.4569583
  93.4983302  49.5277309   1.6846832  85.3300373  58.3968153  14.4753955
  84.6363845  57.9822106  13.9623909  86.0773364  58.4388689  13.8787374
 101.4665594  49.1874340   9.3408989 100.8864263  49.8459144   8.9587041
 101.2001527  48.3651684   8.9296407  99.9169161  48.5879397  11.5430309
 100.4168939  48.6995932  10.7344628 100.5604769  48.2840450  12.1831118
  93.9751156  56.4958027  24.4298150  93.4918238  57.2958387  24.6362039
  94.0612095  56.5065972  23.4765594  87.2437116  58.3286407  12.3519970
  87.2207804  58.4274094  11.4001853  87.5537753  59.1751557  12.6737136
  89.9024494  60.3862562  16.4666584  90.8567747  60.3546504  16.3996516
  89.7037017  59.9253185  17.2816810  90.4923876  58.9563678  19.0337382
  91.3116765  59.4507756  19.0572219  90.7660684  58.0395646  19.0054949
 100.2490472  51.3474430   8.3965337  99.3616327  51.6324081   8.1785532
 100.6644461  51.1868193   7.5492614 103.6005008  51.3720951  12.1119677
 104.3765398  51.8617403  12.3844293 102.8753143  51.7979005  12.5691546
 106.0377567  52.0848570  13.1693617 106.6322058  51.8444306  12.4586925
 106.1104151  51.3655701  13.7967153  88.2574723  65.9282181  13.4836782
  88.1229191  65.1682582  12.9174780  87.8406785  66.6523081  13.0165571
  99.3933686  61.1119105   2.4913357 100.0969536  61.3169107   3.1071013
  98.6696334  61.6795866   2.7562441 100.2231496  56.8628966   8.6115627
 100.1666697  57.3197517   7.7723260 100.7759838  56.1019650   8.4338470
 104.0336302  52.6518698   9.4365747 103.7773236  52.2515333  10.2673955
 103.4089170  53.3662492   9.3115886 108.3448640  55.3914771  11.9437038
 107.7848198  55.4607960  12.7168600 107.7392143  55.2155756  11.2236535
  91.4143849  66.8251498  13.6955225  91.2976233  67.7696931  13.5933915
  90.5936295  66.5225060  14.0841024 101.3020383  61.5501634   4.5411817
 102.1365987  61.1182832   4.3589292 101.1404726  61.3783647   5.4688712
 100.9566275  58.0533747   5.9068157 100.9015079  57.8878019   4.9656601
 100.3312331  58.7609780   6.0630346  85.7458790  53.2901811  19.7329579
  86.3917654  52.7800765  20.2216804  85.5375941  54.0270493  20.3073004
  98.2712182  60.3582659  25.2321719  99.1403342  60.5323311  24.8708354
  97.7918934  61.1777076  25.1097449  94.2662401  47.5541856   5.4853475
  94.2541071  48.4983696   5.6421746  95.1585823  47.3712002   5.1912936
  92.4398363  67.4779760  16.9111153  93.3425609  67.5103370  17.2277648
  92.2135733  66.5480211  16.9257489  94.1951965  66.2310747  13.5721232
  93.2447596  66.2312608  13.4585604  94.4984451  65.4843481  13.0557266
  98.0814520  44.1484633   9.7399412  97.3146916  43.5943119   9.8856094
  98.4925225  44.2206501  10.6013563  90.0856281  50.4369429  23.8304593
  90.9487743  50.0806233  24.0407918  89.5121692  50.0983323  24.5179997
 109.9304658  72.0671285  14.6366994 110.5683068  71.9478032  13.9330334
 109.8125501  73.0152129  14.6954946 106.7394364  72.0198713  14.5728519
 106.4012876  71.9039778  13.6849054 107.6084133  71.6189878  14.5529525
 102.5981180  73.8734189  10.5625410 102.0346045  73.7824126   9.7941697
 102.4833575  73.0534094  11.0427902 107.2214147  73.1733565  20.5314724
 107.2102788  72.7786363  19.6595228 107.3834787  72.4399637  21.1248496
 100.1445612  75.3685381  13.4009630 100.9366904  75.0276206  12.9855929
 100.3842262  75.4780356  14.3211783 108.1780739  77.5405157   5.8739875
 107.5268719  78.1259238   5.4873888 108.9725102  78.0711352   5.9334912
 102.1036366  74.6294294   6.2727009 102.8767242  74.0823281   6.1339885
 102.4561765  75.4938544   6.4841470 103.9421409  75.9570677  19.4793908
 103.6511275  76.8616307  19.3640575 104.5778393  75.9987204  20.1937978
 104.8677615  73.3347525  16.0695268 105.4641188  73.1103547  15.3552231
 104.9252587  72.5932271  16.6720716 104.4402644  70.7886960   3.9045459
 104.6928165  70.2668482   3.1428922 103.5027203  70.6253106   4.0072142
 109.4845927  69.7922739  11.7120202 110.2709016  69.3742162  11.3610619
 109.7484631  70.6968831  11.8801850 109.6556004  75.2295589   6.4108859
 109.0201837  75.3030216   7.1229764 109.3253410  75.8189188   5.7327938
 114.8854354  69.7297972  12.6153181 115.6179526  69.1597189  12.8491010
 114.1293710  69.3419572  13.0559686 104.1598933  72.6915066   6.1069834
 104.0435191  72.0159970   6.7750918 104.2701192  72.2047440   5.2901987
 106.5030474  72.1525213   9.8116523 106.1388681  71.6255834  10.5229445
 107.3597589  71.7623682   9.6383008 112.4079774  63.4419546  17.0747789
 112.0763099  64.3114957  16.8509004 111.8125388  63.1255830  17.7541820
 106.1435961  67.1815113   4.8077872 106.3110363  68.0495350   5.1748343
 105.9533130  67.3442395   3.8839161 108.9011294  75.6432092  16.4743702
 108.6012017  76.5457131  16.3659509 108.5562353  75.3764275  17.3264855
 102.3523775  72.0945889  12.5080406 101.4274272  71.9622103  12.7158098
 102.6008188  72.8740108  13.0050349 112.3008437  68.1614632  14.1541139
 111.3925315  68.0930041  13.8599900 112.2496033  68.6386577  14.9822965
 106.1225181  69.6372771   5.7924538 106.0024807  70.0829821   6.6310019
 105.4277770  69.9858088   5.2338077  99.7132586  71.7379162  13.3424195
  99.8424967  71.9913641  14.2563607  99.0330038  72.3306870  13.0228851
 103.8832073  82.4076412   9.4414670 103.8056103  83.3584237   9.5203150
 103.2793717  82.0622285  10.0989596 106.3749303  69.5804278  22.0976037
 105.5982637  70.1398198  22.0878901 107.0139866  70.0661061  22.6190907
 114.1670084  66.3631071  15.9319013 113.5244464  66.6563604  15.2858808
 113.6625012  66.2483991  16.7372210 111.8210248  70.1094244   6.6204872
 112.7328104  70.3421631   6.4452570 111.3119895  70.6931288   6.0579951
 104.6295676  72.3889731  21.6594004 105.3710360  72.9274775  21.3828827
 103.9232661  73.0156020  21.8165555 110.1051015  74.5318872  20.2566165
 110.5134371  74.0901282  19.5120797 109.3828277  73.9571499  20.5100358
 106.4582085  69.4691478  17.6299722 107.3043280  69.8930892  17.7734371
 106.3980723  68.8125103  18.3238285 110.4279830  75.0920062  14.0118454
 109.7988692  75.2565776  13.3094522 110.0405492  75.5061672  14.7829418
 114.3069062  76.0274500  11.3662818 113.6220100  76.4073401  10.8159851
 114.3912911  76.6369827  12.0994765 109.6081531  67.1295847  19.2880896
 109.3642462  67.8837907  18.7515171 109.8841461  67.5081194  20.1228143
 111.5619993  73.6734459  17.9658161 111.7736889  74.3166219  17.2892542
 111.5149742  72.8396776  17.4980091 109.1646222  66.2852280  14.8694733
 108.3030701  66.5833533  15.1611471 109.1908657  66.5022679  13.9375766
 105.9807792  74.8294470  11.2768539 106.4446137  75.1082173  10.4873162
 105.7164590  73.9277915  11.0941630 102.8731873  74.3765952  14.2148302
 103.4433230  74.8053220  13.5765787 103.4639985  74.0948537  14.9132488
 104.9176678  70.9517623   8.0858104 105.6200721  71.4038666   8.5532031
 104.5857306  70.3101442   8.7137997 103.3657039  69.5429379  22.4609314
 102.7355700  70.2245660  22.6944710 103.2593127  69.4312461  21.5162452
  98.6602012  69.2101175  13.3875238  97.8701066  69.4658704  12.9115348
  99.1513259  70.0249513  13.4927278 112.6765821  76.5506415  16.1380519
 113.4983265  76.1486602  15.8563200 112.6728224  76.4474649  17.0896634
 100.6116757  69.5745755  10.3458714  99.8147920  69.6864449  10.8642210
 100.3842349  69.9132407   9.4799605 106.4422425  76.0990458  18.2941229
 106.5066857  76.5610865  19.1299401 105.7333349  75.4687823  18.4223539
  96.9439715  69.4631666  15.8190229  97.1947753  70.3478676  16.0847804
  97.4799263  69.2836267  15.0465320 120.7671814  72.8945163  12.4865490
 120.0135523  72.3252561  12.3309494 120.9019356  72.8607828  13.4336125
 106.1570442  77.7658565   8.1620209 106.0216117  78.6110101   8.5905057
 106.6980255  77.9677843   7.3986143 102.6437782  63.8450145  24.8234565
 102.2504728  63.2916344  25.4982209 103.4603922  64.1560724  25.2141082
  99.6099840  75.2834003   8.7348134 100.1224360  76.0777254   8.8853699
 100.2622553  74.5860294   8.6681736 101.4194725  78.3999760  10.8170888
 101.5961353  79.3217724  10.6291872 102.2151558  78.0858179  11.2465267
 105.5605743  65.2608024  22.4154821 106.3015456  65.8615177  22.3359284
 105.7923666  64.5185662  21.8572864 100.7047081  70.4464392  20.6933051
 100.5900596  69.5449649  20.9940150  99.8491599  70.6928088  20.3417867
 107.7838919  78.3882132  22.2920551 107.3402773  77.6018510  21.9741456
 108.4456132  78.5761282  21.6264442 102.5426040  79.9177933  16.8181230
 103.0933465  79.7894997  16.0458224 101.7037516  80.2172822  16.4676123
 109.8820157  78.6684932  20.3201953 109.8638632  79.4893813  19.8282222
 110.8040077  78.5439007  20.5452094 106.3393211  76.1829061  21.1625461
 106.8721548  75.4217349  20.9324769 105.8107292  75.8902713  21.9049616
 109.5062906  61.2889127  16.6919103 109.1627175  62.1790769  16.6158213
 109.8741869  61.0990785  15.8288688  97.5748757  73.6122658   9.5107705
  98.4123979  74.0219666   9.2941413  97.7527024  72.6722100   9.4807899
 109.4713189  71.2797738   5.1991538 108.9559812  72.0502343   5.4379925
 109.1990497  70.6062874   5.8224599 107.0560300  66.1247439  10.2576776
 106.2001896  65.7354290  10.0782415 107.4687251  66.2039400   9.3976562
 108.5859446  63.6593782  14.6568336 108.0824242  63.6223918  13.8436141
 108.8790053  64.5686525  14.7164993 104.8302332  63.7432512  13.6634518
 105.6955329  63.5475321  13.3040407 104.8979841  63.5142864  14.5903875
 114.4447463  74.0330093   7.1344711 113.6676906  73.6941252   6.6899874
 115.1238944  74.0382716   6.4599676 109.2599492  69.1524830   7.0251319
 108.9549627  69.4670980   7.8761462 110.2129934  69.2306250   7.0678652
 107.7045924  75.3115054   8.6744273 107.1767285  74.5767813   8.3617511
 107.2033426  76.0889730   8.4284241 112.6838770  73.5064074  13.7911319
 112.0262444  74.1963336  13.8791448 113.4879169  73.8960506  14.1345306
 102.4364651  65.9734720  11.0350885 103.0108403  65.7509902  10.3024078
 103.0235634  66.0423415  11.7879486 111.4944229  71.8608447  11.8415261
 112.0076110  72.4938439  12.3436971 112.1445452  71.2609642  11.4758621
 102.7634238  68.0039181   5.0546770 101.9271551  68.3413868   5.3756045
 102.6239008  67.8688161   4.1173907 104.7387319  62.8475969   9.7625954
 104.0851731  62.5324986   9.1382569 104.6967793  62.2251709  10.4885777
 105.8498524  73.1295264   1.6779246 104.9425586  72.8984517   1.8770395
 106.3469556  72.3332883   1.8653228 108.7566603  81.8392771   4.5975932
 108.0828302  82.1424468   5.2060890 109.1432425  82.6421852   4.2481389
 107.9725059  69.3357902  14.0873602 107.0547621  69.5572849  13.9295290
 108.3885203  69.4104213  13.2285309 108.7560107  70.7349318   9.2176282
 109.5031926  71.2470715   8.9083404 109.0251697  70.4133371  10.0780676
 107.0286757  73.2307859   6.2003236 106.1197977  72.9466892   6.2975706
 107.0581841  73.6506937   5.3406543 112.2606025  76.8414448   9.9694404
 111.8068352  76.0005358  10.0259594 111.6299991  77.4775847  10.3069184
 111.2038944  67.7706434  11.1995071 110.4661701  67.2583821  11.5305314
 111.4565718  67.3306816  10.3878348 110.7038964  78.6790945  10.9044222
 110.9961938  79.2396002  10.1856588 111.2137585  78.9719506  11.6597381
 111.3050572  60.5482686  11.7936841 111.6109448  59.6880050  11.5062756
 112.0303176  61.1400307  11.5935834  97.5974928  70.9513373  10.1818438
  97.3999328  70.3582734   9.4569505  97.0421592  70.6465583  10.8994377
 105.5771651  70.8436479  12.3013032 105.6320261  69.8910316  12.2255508
 104.7662853  70.9995919  12.7854330 106.7262845  74.7716603   3.5391315
 106.2882275  74.0552461   3.0796952 107.4673286  74.9992717   2.9776406
 103.5164011  69.4613539  10.0603410 102.7031877  69.7607710  10.4668603
 104.0123005  69.0669228  10.7777893 105.6672589  79.4571296  11.9937675
 105.6248768  79.6832142  11.0646207 106.5835288  79.2234671  12.1423476
 109.1138223  69.9255364  18.8918304 109.4687611  70.1526837  19.7512770
 109.7610354  70.2573740  18.2695560 114.8435960  73.0473800   9.5967633
 114.7053859  73.2375396   8.6688823 114.4872179  73.8093182  10.0535685
 103.0078086  67.0331895  15.6764645 103.6477465  66.8920654  14.9787609
 102.1755617  66.7466408  15.3003247 114.8705340  75.1150327  14.6078905
 115.3041846  75.0225616  15.4561959 115.5836920  75.0907827  13.9698921
 103.7838390  76.3334325  11.7899638 104.5778988  75.8384645  11.5882213
 103.0730082  75.8052188  11.4267343 108.6033234  78.7152421  16.1412005
 108.6570257  79.2843357  16.9089721 107.7348016  78.8854306  15.7766043
 100.0921153  70.4777407   7.8659391  99.1618742  70.4161862   8.0829353
 100.1878625  69.9553360   7.0696032 100.0106702  67.0032220  10.4537632
 100.2713520  67.9177553  10.3446793 100.8323875  66.5356662  10.6034245
 101.4831628  68.4169977  17.6236457 102.1554681  68.2087339  16.9749106
 100.6561414  68.2192063  17.1841689 115.7320889  75.1574027  17.1411790
 115.9256779  76.0619838  17.3871065 115.6321507  74.6981446  17.9750375
 107.3857200  65.0431918  19.6402118 106.7385115  65.7421867  19.5466594
 108.1558215  65.4768062  20.0078366 110.7935998  75.3080770  22.7152671
 110.6421504  75.0791322  21.7982755 110.7840677  76.2651371  22.7284016
 107.5621334  72.8812683  17.6998937 108.4913394  73.0323842  17.5267905
 107.1412364  72.9696704  16.8447584 106.3609666  76.9063347  15.4697475
 106.2220752  76.5382132  16.3423413 105.5724262  77.4210987  15.2981433
 106.9557818  82.0072444   6.8123011 107.1309574  81.5360487   7.6268634
 106.2690606  82.6338210   7.0404272 107.9114881  76.2844950  12.8586313
 107.5764714  76.2445720  13.7543963 107.4118827  75.6189666  12.3856723
 101.8859125  71.6912580  18.3838894 101.7478923  70.9592819  18.9850433
 102.7964049  71.6021480  18.1023082 110.8474073  73.6300984   3.1323372
 110.2303243  72.9047812   3.0356425 110.3790561  74.3910344   2.7890447
 104.5141426  71.4032539  17.8722574 105.2241044  70.7625731  17.8309192
 104.4710734  71.6545434  18.7948754 112.5028204  78.3399893  20.7929153
 112.4440751  77.6559113  20.1259736 112.9047723  79.0818883  20.3409779
 103.2270360  68.3897757  19.6918213 102.6907717  67.9388496  20.3439809
 102.6387068  68.5243666  18.9488677 101.5218903  85.1561806  13.5862872
 101.7615501  85.7880331  14.2641890 100.6788100  84.8049846  13.8728231
 102.6372619  67.8486408   2.2544677 101.7602085  67.7275209   1.8906923
 103.1130372  67.0572487   2.0023565 112.5045612  76.3039476  19.0243132
 111.6172390  75.9665398  19.1469531 113.0744163  75.5722508  19.2611898
  94.1574759  72.6363568  12.3486184  94.8445799  72.3225298  11.7607199
  94.0022887  73.5404933  12.0753435  98.9609481  67.5253765  16.7771208
  98.8767670  66.9179434  16.0421617  98.1392187  68.0162783  16.7780704
 106.0346765  80.9640929  15.9904376 105.9616937  81.7695900  16.5023680
 105.5924158  81.1632895  15.1652397 105.8236545  80.2012699   9.5007197
 105.0404067  80.7434379   9.5945422 106.5229290  80.7186678   9.9001438
 109.1333195  66.0107328  12.1441403 109.6301894  65.2577291  11.8242473
 108.3620176  66.0471645  11.5784612 116.9862952  71.7147694  13.7859694
 116.9752828  72.5972409  13.4153627 116.1180332  71.3619245  13.5914231
 108.4945449  80.8627763  18.1462534 109.2073421  81.4975228  18.0738436
 108.0035477  80.9591629  17.3302536 110.2162976  74.7679016   9.7179826
 109.2819254  74.8880478   9.5484530 110.3939644  73.8651482   9.4539836
 105.7168164  68.1524711  11.8713087 105.3465951  67.5995752  12.5593993
 106.2127256  67.5482845  11.3188087 113.6035527  70.6096335  10.2529860
 114.0695979  71.4424326  10.1790163 114.0543027  70.1441316  10.9575119
 103.5457362  78.6122206  18.9668105 104.2466822  79.2458689  19.1197499
 103.0752477  78.9536938  18.2063744 111.6711758  76.9540156   7.2516012
 111.9471602  76.8396751   8.1609886 110.8016257  76.5557641   7.2128185
 111.5752190  62.9776922  14.2920761 110.6615269  63.2081149  14.4602968
 112.0045291  63.0615366  15.1434794 111.3458648  71.1666814  16.7920655
 110.6930098  71.4142721  16.1373108 111.7239028  70.3530952  16.4583133
 108.3065822  81.2026507  10.8948826 108.4888217  80.3848163  11.3576578
 109.1298808  81.4194199  10.4573716 108.6407987  80.1294692   8.1563874
 109.1695754  79.6187147   7.5434036 108.9036207  79.8137222   9.0209407
 107.3946221  71.9086625  23.2786693 106.7186858  71.8080754  23.9489068
 108.2173855  71.7525839  23.7422690  99.1425080  78.1458561  15.8999208
  99.7278517  77.4002249  16.0327112  98.9449919  78.4562518  16.7835872
 101.9963735  81.1809809  10.9161650 101.3274111  81.6655936  10.4325690
 101.8576605  81.4279029  11.8305029  93.7342735  70.7164162  14.6203651
  93.7726834  70.1827752  15.4140769  93.2283028  70.1899367  14.0014628
 106.1369004  83.2153552  17.5144309 106.6887312  83.3785174  18.2793394
 106.4775197  83.8057990  16.8424333 101.1133497  65.5628702  18.1166193
 101.1774824  66.4243533  17.7043591 101.0500617  64.9502704  17.3838552
 100.5885770  67.6351835  21.7639228 101.2157809  67.2528912  22.3776752
  99.7313689  67.4166037  22.1294920 110.9879878  78.0414810  23.3692963
 111.5319782  78.6544768  22.8747918 110.4066723  78.5994388  23.8859976
  97.3651313  69.4428264   7.6957582  97.6604754  68.5338942   7.6424636
  96.4639348  69.4216003   7.3738585 109.2737391  81.1635528  14.5007991
 109.1488531  80.3625268  13.9918936 109.9316482  81.6581721  14.0121961
 100.8945560  67.5184260  13.6785131 100.1732145  68.1320228  13.5392604
 101.6838815  68.0542025  13.6001777 111.3372300  78.9644548  16.1287541
 110.3902635  78.8449899  16.0565868 111.6855073  78.0767046  16.2113802
 103.6971873  64.8538687  19.9525783 104.2206275  65.1000983  20.7152092
 103.4784206  65.6858722  19.5328920  99.0939154  67.1242361   7.8196907
  98.7651860  66.2439740   7.6372013  99.4478525  67.0690030   8.7073297
 108.3418733  78.7597264  12.3291893 108.1943695  77.8313972  12.5099463
 109.1672226  78.7817355  11.8448968 102.2080977  67.4115331   8.1872385
 102.5477050  67.9401252   7.4650994 102.6553098  67.7495737   8.9630952
 111.9452855  79.5825823  13.4156766 112.8699402  79.3768684  13.2781217
 111.7768158  79.3342224  14.3246107 104.9024418  65.7952382  17.6375453
 104.5621238  64.9960195  18.0396133 104.1963424  66.0954093  17.0652286
 105.5540890  62.8801694  16.0902776 106.3766959  62.4062173  15.9681667
 105.7978953  63.6592178  16.5901463 104.1949124  65.9089953   6.3865678
 104.9157487  66.2871206   5.8829395 103.5714429  66.6278830   6.4900656
 108.3380247  66.6135102   7.3224010 108.5543862  67.4959740   7.0212838
 107.8574314  66.2221315   6.5929652 103.0779469  69.5720815  13.8994755
 102.9324049  69.8861118  14.7919036 102.6004672  70.1905715  13.3465653
 104.9375852  66.5623363  13.9475644 104.9237420  65.6664456  13.6107942
 105.6548280  66.5694027  14.5813930 106.7901982  66.9960703  15.9928772
 106.5319760  67.9177774  15.9913102 106.2587023  66.5991138  16.6829236
 111.7348171  80.1011490   8.7718857 111.9085049  79.5357913   8.0192710
 112.2277062  80.9012385   8.5898347  97.5525131  72.1126159  16.8382416
  97.0078599  72.8885967  16.9702690  98.4304481  72.4596964  16.6801537
 104.3412747  65.4437743   9.2163215 104.4628659  64.5154389   9.4154102
 104.0514790  65.4576429   8.3041530 107.2103938  63.1292654  12.3529934
 107.2325635  63.1931987  11.3981914 107.6271997  62.2897162  12.5470441
 117.5887562  72.8647913  10.3909157 118.0318708  72.1155238   9.9928280
 116.7114072  72.8558050  10.0082889 112.7223343  79.4178255   5.8715756
 113.4174248  80.0384947   6.0903070 113.0646494  78.5673606   6.1468133
  98.3391153  71.2396056  19.7312573  97.5972889  71.3878691  20.3177203
  98.0183897  71.5004321  18.8679322 114.6214767  76.8677960   7.4003086
 115.1466091  77.2065233   6.6752406 114.5337119  75.9324976   7.2166221
 106.2834815  80.7812034  19.5292963 106.5921942  80.5361181  20.4015662
 107.0810297  80.9858672  19.0411833 106.3055427  82.9349944  11.7598339
 105.8660418  82.4426322  12.4531196 107.0563544  82.3922911  11.5190415
  98.7847766  79.1261484  11.7622968  99.6105786  78.8265256  11.3821611
  98.4341818  78.3569107  12.2112756 103.7529300  78.4787953  13.8320641
 103.1309309  77.8158658  13.5322869 104.4234166  78.5049084  13.1494289
  96.9856371  77.0447811  12.7211901  96.1488280  76.6169985  12.5395902
  96.9580017  77.2380254  13.6582692 103.8253827  66.9569741  23.4253147
 103.8741982  67.8331863  23.0430917 104.3676341  66.4147134  22.8524790
 114.3108673  77.5010864  22.7054284 113.5204216  77.4835003  22.1658784
 114.0742027  78.0399158  23.4603321 114.4306548  74.3503330  20.0187013
 114.4804553  74.1853338  20.9602536 114.3220471  73.4830589  19.6284894
 103.3142806  77.0291876   7.3079102 103.4630927  77.7127340   6.6545774
 104.1209250  77.0096966   7.8228557 111.7210310  70.3334258  21.3346319
 112.6220173  70.1940723  21.0430317 111.7958285  70.4988713  22.2744497
 106.0553115  67.7101113  20.1799506 105.1856425  68.0034679  19.9082094
 106.2912596  68.2941558  20.9006769 115.9324745  76.7700272  20.2629034
 115.6409553  77.1330252  21.0992495 115.3196876  76.0567280  20.0842366
 117.1320427  74.3353152  12.7831605 117.9667318  74.7742956  12.9469165
 117.2679556  73.8591805  11.9639850 114.1811933  71.8932886  18.7309092
 114.6566054  72.0860533  17.9227944 113.2577498  71.9492072  18.4852476
 101.0695439  73.0557054   8.3140171 100.8241481  72.1519384   8.5120381
 101.2391354  73.0574204   7.3719649 108.7592149  63.9280730  17.6964926
 109.2774093  64.6641757  17.3711415 108.4047282  64.2344723  18.5311685
 100.3391087  68.7885411   5.8126332  99.6460332  68.8629766   5.1566368
 100.0942839  68.0245755   6.3347849 109.0104743  60.3481012  13.2165823
 109.2906497  59.6804202  13.8426249 109.7955350  60.5410108  12.7040487
 106.8138212  79.5240006   4.7790849 106.2412179  80.1430194   4.3261321
 107.3871006  80.0739368   5.3130771 112.8813602  68.7698646  16.9637398
 113.8331025  68.8696744  16.9849622 112.7117052  67.9776915  17.4735482
 110.9027981  65.8554230  17.1496799 110.3077913  66.1359242  16.4543287
 110.6177678  66.3448131  17.9213540 110.0335472  79.8077157   5.9099431
 110.9666145  79.7422718   6.1132307 109.9458685  80.6433423   5.4513964
 112.6623488  79.1243027   2.8703379 112.5837120  78.7902890   3.7639137
 113.4833155  79.6164795   2.8694851 115.3601680  71.9904766  16.0779698
 115.3278000  71.0520767  16.2639381 115.9702303  72.0688803  15.3445522
 107.1985010  70.8600819   2.1206902 108.1444115  70.7307027   2.1895320
 106.8199255  70.1215481   2.5976330 115.5096168  68.7815810  16.1237981
 114.9935217  67.9974266  15.9367910 116.3936117  68.4534526  16.2884500
 113.1706895  62.5256825  12.0833793 112.9731716  62.2171913  12.9677125
 113.7806601  63.2518464  12.2131723 121.1778229  73.0520773  15.2185734
 121.9081618  72.7906061  15.7793438 120.5685175  72.3149495  15.2587802
 119.2593527  71.1928636  15.8160186 118.5326690  71.0584601  15.2076677
 118.8440813  71.5005464  16.6216904 107.0823703  74.9118565  23.5807559
 108.0026712  75.0897164  23.7747605 107.0473286  73.9674611  23.4287258
 105.3827928  68.7850796   2.0561787 104.4759383  68.4883908   2.1324500
 105.6603909  68.4880614   1.1896073  96.3005868  70.1057159  12.5060833
  95.9808652  69.2522467  12.2135207  95.7539296  70.3205737  13.2618801
 100.0785776  72.8219600  16.2230340 100.2971785  73.7536708  16.2418374
 100.4911549  72.4627574  17.0085144 106.9989993  63.3287685   8.2106028
 106.1890722  62.9834770   8.5861274 107.6874410  63.0195229   8.7993640
 108.9280542  62.4065732   9.8330325 109.4811580  62.8261185  10.4920348
 109.1650628  61.4801480   9.8753281 104.9513641  68.3952806  25.6133089
 104.8510368  69.3447163  25.5445180 104.7335183  68.0671045  24.7409159
 104.1526712  65.6437731   2.1973766 105.0145876  65.9692629   2.4569583
 104.3377056  64.8569227   1.6846832  96.1694128  73.7260070  14.4753955
  95.4757599  73.3114023  13.9623909  96.9167119  73.7680607  13.8787374
 112.3059349  64.5166257   9.3408989 111.7258018  65.1751061   8.9587041
 112.0395281  63.6943602   8.9296407 110.7562915  63.9171315  11.5430309
 111.2562693  64.0287849  10.7344628 111.3998523  63.6132368  12.1831118
 104.8144911  71.8249945  24.4298150 104.3311993  72.6250305  24.6362039
 104.9005850  71.8357889  23.4765594  98.0830871  73.6578324  12.3519970
  98.0601559  73.7566011  11.4001853  98.3931507  74.5043475  12.6737136
 100.7418248  75.7154479  16.4666584 101.6961502  75.6838422  16.3996516
 100.5430772  75.2545103  17.2816810 101.3317631  74.2855595  19.0337382
 102.1510520  74.7799674  19.0572219 101.6054438  73.3687563  19.0054949
 111.0884227  66.6766348   8.3965337 110.2010082  66.9615998   8.1785532
 111.5038216  66.5160111   7.5492614 114.4398763  66.7012869  12.1119677
 115.2159153  67.1909321  12.3844293 113.7146897  67.1270923  12.5691546
 116.8771321  67.4140488  13.1693617 117.4715812  67.1736224  12.4586925
 116.9497905  66.6947618  13.7967153  99.0968477  81.2574099  13.4836782
  98.9622945  80.4974500  12.9174780  98.6800539  81.9814999  13.0165571
 110.2327440  76.4411022   2.4913357 110.9363290  76.6461025   3.1071013
 109.5090089  77.0087784   2.7562441 111.0625250  72.1920884   8.6115627
 111.0060452  72.6489435   7.7723260 111.6153593  71.4311568   8.4338470
 114.8730056  67.9810615   9.4365747 114.6166991  67.5807251  10.2673955
 114.2482924  68.6954409   9.3115886 119.1842394  70.7206689  11.9437038
 118.6241952  70.7899878  12.7168600 118.5785898  70.5447673  11.2236535
 102.2537603  82.1543416  13.6955225 102.1369987  83.0988848  13.5933915
 101.4330049  81.8516977  14.0841024 112.1414138  76.8793551   4.5411817
 112.9759742  76.4474750   4.3589292 111.9798481  76.7075565   5.4688712
 111.7960030  73.3825665   5.9068157 111.7408834  73.2169936   4.9656601
 111.1706085  74.0901698   6.0630346  96.5852545  68.6193729  19.7329579
  97.2311408  68.1092683  20.2216804  96.3769696  69.3562411  20.3073004
 109.1105937  75.6874577  25.2321719 109.9797097  75.8615229  24.8708354
 108.6312688  76.5068993  25.1097449 105.1056155  62.8833774   5.4853475
 105.0934825  63.8275614   5.6421746 105.9979577  62.7003919   5.1912936
 103.2792117  82.8071678  16.9111153 104.1819364  82.8395288  17.2277648
 103.0529487  81.8772129  16.9257489 105.0345719  81.5602664  13.5721232
 104.0841350  81.5604526  13.4585604 105.3378205  80.8135399  13.0557266
 108.9208275  59.4776550   9.7399412 108.1540671  58.9235037   9.8856094
 109.3318980  59.5498419  10.6013563 100.9250036  65.7661346  23.8304593
 101.7881497  65.4098151  24.0407918 100.3515446  65.4275241  24.5179997
 120.7698413  87.3963203  14.6366994 121.4076823  87.2769950  13.9330334
 120.6519256  88.3444047  14.6954946 117.5788119  87.3490631  14.5728519
 117.2406630  87.2331695  13.6849054 118.4477887  86.9481796  14.5529525
 113.4374935  89.2026107  10.5625410 112.8739800  89.1116044   9.7941697
 113.3227330  88.3826012  11.0427902 118.0607902  88.5025482  20.5314724
 118.0496543  88.1078281  19.6595228 118.2228541  87.7691555  21.1248496
 110.9839367  90.6977299  13.4009630 111.7760659  90.3568123  12.9855929
 111.2236017  90.8072274  14.3211783 112.9430121  89.9586212   6.2727009
 113.7160997  89.4115199   6.1339885 113.2955519  90.8230461   6.4841470
 114.7815163  91.2862594  19.4793908 114.4905029  92.1908225  19.3640575
 115.4172147  91.3279122  20.1937978 115.7071370  88.6639443  16.0695268
 116.3034942  88.4395465  15.3552231 115.7646341  87.9224188  16.6720716
 115.2796398  86.1178878   3.9045459 115.5321919  85.5960399   3.1428922
 114.3420957  85.9545023   4.0072142 120.3239681  85.1214656  11.7120202
 121.1102770  84.7034080  11.3610619 120.5878385  86.0260749  11.8801850
 120.4949759  90.5587507   6.4108859 119.8595592  90.6322133   7.1229764
 120.1647165  91.1481106   5.7327938 125.7248108  85.0589890  12.6153181
 126.4573280  84.4889106  12.8491010 124.9687464  84.6711490  13.0559686
 114.9992687  88.0206984   6.1069834 114.8828945  87.3451887   6.7750918
 115.1094947  87.5339358   5.2901987 117.3424228  87.4817131   9.8116523
 116.9782435  86.9547752  10.5229445 118.1991344  87.0915600   9.6383008
 123.2473529  78.7711464  17.0747789 122.9156853  79.6406875  16.8509004
 122.6519142  78.4547748  17.7541820 116.9829715  82.5107031   4.8077872
 117.1504117  83.3787267   5.1748343 116.7926884  82.6734313   3.8839161
 119.7405048  90.9724010  16.4743702 119.4405771  91.8749049  16.3659509
 119.3956108  90.7056193  17.3264855 113.1917530  87.4237807  12.5080406
 112.2668026  87.2914021  12.7158098 113.4401943  88.2032026  13.0050349
 123.1402192  83.4906550  14.1541139 122.2319069  83.4221958  13.8599900
 123.0889788  83.9678495  14.9822965 116.9618936  84.9664688   5.7924538
 116.8418561  85.4121739   6.6310019 116.2671524  85.3150006   5.2338077
 110.5526341  87.0671080  13.3424195 110.6818722  87.3205559  14.2563607
 109.8723792  87.6598788  13.0228851 114.7225828  97.7368330   9.4414670
 114.6449858  98.6876155   9.5203150 114.1187472  97.3914203  10.0989596
 117.2143058  84.9096195  22.0976037 116.4376392  85.4690116  22.0878901
 117.8533621  85.3952978  22.6190907 125.0063838  81.6922988  15.9319013
 124.3638219  81.9855521  15.2858808 124.5018767  81.5775909  16.7372210
 122.6604002  85.4386161   6.6204872 123.5721858  85.6713548   6.4452570
 122.1513649  86.0223206   6.0579951 115.4689430  87.7181649  21.6594004
 116.2104114  88.2566693  21.3828827 114.7626416  88.3447938  21.8165555
 120.9444770  89.8610789  20.2566165 121.3528126  89.4193200  19.5120797
 120.2222031  89.2863417  20.5100358 117.2975840  84.7983396  17.6299722
 118.1437035  85.2222810  17.7734371 117.2374477  84.1417020  18.3238285
 121.2673584  90.4211980  14.0118454 120.6382447  90.5857694  13.3094522
 120.8799246  90.8353589  14.7829418 125.1462816  91.3566418  11.3662818
 124.4613854  91.7365319  10.8159851 125.2306666  91.9661744  12.0994765
 120.4475285  82.4587764  19.2880896 120.2036217  83.2129825  18.7515171
 120.7235216  82.8373112  20.1228143 122.4013748  89.0026377  17.9658161
 122.6130643  89.6458137  17.2892542 122.3543496  88.1688693  17.4980091
 120.0039977  81.6144197  14.8694733 119.1424456  81.9125451  15.1611471
 120.0302411  81.8314596  13.9375766 116.8201546  90.1586388  11.2768539
 117.2839892  90.4374091  10.4873162 116.5558344  89.2569833  11.0941630
 113.7125627  89.7057870  14.2148302 114.2826984  90.1345138  13.5765787
 114.3033739  89.4240454  14.9132488 115.7570432  86.2809540   8.0858104
 116.4594476  86.7330584   8.5532031 115.4251061  85.6393359   8.7137997
 114.2050794  84.8721297  22.4609314 113.5749454  85.5537578  22.6944710
 114.0986882  84.7604379  21.5162452 109.4995766  84.5393093  13.3875238
 108.7094820  84.7950622  12.9115348 109.9907014  85.3541431  13.4927278
 123.5159576  91.8798332  16.1380519 124.3377020  91.4778520  15.8563200
 123.5121979  91.7766566  17.0896634 111.4510512  84.9037672  10.3458714
 110.6541675  85.0156367  10.8642210 111.2236104  85.2424325   9.4799605
 117.2816179  91.4282376  18.2941229 117.3460612  91.8902783  19.1299401
 116.5727103  90.7979740  18.4223539 107.7833469  84.7923584  15.8190229
 108.0341508  85.6770593  16.0847804 108.3193018  84.6128185  15.0465320
 131.6065569  88.2237081  12.4865490 130.8529277  87.6544479  12.3309494
 131.7413110  88.1899745  13.4336125 116.9964197  93.0950483   8.1620209
 116.8609872  93.9402019   8.5905057 117.5374009  93.2969761   7.3986143
 113.4831537  79.1742063  24.8234565 113.0898482  78.6208261  25.4982209
 114.2997677  79.4852641  25.2141082 110.4493594  90.6125921   8.7348134
 110.9618115  91.4069171   8.8853699 111.1016307  89.9152212   8.6681736
 112.2588479  93.7291677  10.8170888 112.4355107  94.6509642  10.6291872
 113.0545313  93.4150097  11.2465267 116.3999498  80.5899942  22.4154821
 117.1409211  81.1907095  22.3359284 116.6317420  79.8477580  21.8572864
 111.5440836  85.7756309  20.6933051 111.4294351  84.8741566  20.9940150
 110.6885353  86.0220006  20.3417867 118.6232673  93.7174050  22.2920551
 118.1796527  92.9310428  21.9741456 119.2849887  93.9053200  21.6264442
 113.3819794  95.2469851  16.8181230 113.9327220  95.1186914  16.0458224
 112.5431270  95.5464740  16.4676123 120.7213911  93.9976849  20.3201953
 120.7032387  94.8185731  19.8282222 121.6433831  93.8730925  20.5452094
 117.1786966  91.5120979  21.1625461 117.7115302  90.7509267  20.9324769
 116.6501047  91.2194631  21.9049616 120.3456660  76.6181045  16.6919103
 120.0020930  77.5082687  16.6158213 120.7135623  76.4282703  15.8288688
 108.4142511  88.9414575   9.5107705 109.2517733  89.3511584   9.2941413
 108.5920779  88.0014018   9.4807899 120.3106943  86.6089656   5.1991538
 119.7953567  87.3794261   5.4379925 120.0384252  85.9354792   5.8224599
 117.8954054  81.4539357  10.2576776 117.0395651  81.0646207  10.0782415
 118.3081006  81.5331318   9.3976562 119.4253201  78.9885700  14.6568336
 118.9217996  78.9515835  13.8436141 119.7183808  79.8978443  14.7164993
 115.6696087  79.0724430  13.6634518 116.5349084  78.8767238  13.3040407
 115.7373596  78.8434782  14.5903875 120.0993246  84.4816748   7.0251319
 119.7943382  84.7962897   7.8761462 121.0523688  84.5598168   7.0678652
 118.5439678  90.6406971   8.6744273 118.0161040  89.9059731   8.3617511
 118.0427181  91.4181648   8.4284241 123.5232524  88.8355992  13.7911319
 122.8656199  89.5255253  13.8791448 124.3272923  89.2252424  14.1345306
 113.2758406  81.3026638  11.0350885 113.8502158  81.0801819  10.3024078
 113.8629388  81.3715332  11.7879486 122.3337983  87.1900365  11.8415261
 122.8469865  87.8230356  12.3436971 122.9839207  86.5901560  11.4758621
 113.6027993  83.3331099   5.0546770 112.7665305  83.6705785   5.3756045
 113.4632763  83.1980079   4.1173907 115.5781074  78.1767887   9.7625954
 114.9245486  77.8616904   9.1382569 115.5361548  77.5543627  10.4885777
 118.8118814  84.6649820  14.0873602 117.8941375  84.8864767  13.9295290
 119.2278958  84.7396131  13.2285309 119.5953862  86.0641236   9.2176282
 120.3425681  86.5762633   8.9083404 119.8645451  85.7425289  10.0780676
 117.8680512  88.5599777   6.2003236 116.9591731  88.2758809   6.2975706
 117.8975596  88.9798855   5.3406543 123.0999779  92.1706366   9.9694404
 122.6462106  91.3297276  10.0259594 122.4693746  92.8067764  10.3069184
 122.0432699  83.0998352  11.1995071 121.3055456  82.5875738  11.5305314
 122.2959472  82.6598734  10.3878348 121.5432718  94.0082863  10.9044222
 121.8355693  94.5687920  10.1856588 122.0531339  94.3011424  11.6597381
 122.1444326  75.8774604  11.7936841 122.4503203  75.0171968  11.5062756
 122.8696931  76.4692224  11.5935834 108.4368682  86.2805291  10.1818438
 108.2393082  85.6874651   9.4569505 107.8815346  85.9757501  10.8994377
 116.4165406  86.1728397  12.3013032 116.4714016  85.2202234  12.2255508
 115.6056608  86.3287836  12.7854330 114.3557766  84.7905457  10.0603410
 113.5425631  85.0899627  10.4668603 114.8516760  84.3961146  10.7777893
 116.5066344  94.7863214  11.9937675 116.4642522  95.0124060  11.0646207
 117.4229043  94.5526588  12.1423476 119.9531977  85.2547281  18.8918304
 120.3081365  85.4818755  19.7512770 120.6004109  85.5865658  18.2695560
 125.6829714  88.3765717   9.5967633 125.5447613  88.5667313   8.6688823
 125.3265933  89.1385100  10.0535685 113.8471841  82.3623812  15.6764645
 114.4871220  82.2212572  14.9787609 113.0149371  82.0758326  15.3003247
 125.7099094  90.4442244  14.6078905 126.1435601  90.3517533  15.4561959
 126.4230675  90.4199745  13.9698921 114.6232144  91.6626243  11.7899638
 115.4172743  91.1676563  11.5882213 113.9123837  91.1344106  11.4267343
 119.4426989  94.0444338  16.1412005 119.4964011  94.6135275  16.9089721
 118.5741770  94.2146223  15.7766043 110.9314908  85.8069325   7.8659391
 110.0012496  85.7453780   8.0829353 111.0272380  85.2845277   7.0696032
 110.8500457  82.3324137  10.4537632 111.1107274  83.2469471  10.3446793
 111.6717629  81.8648580  10.6034245 112.3225382  83.7461895  17.6236457
 112.9948436  83.5379257  16.9749106 111.4955169  83.5483981  17.1841689
 126.5714644  90.4865945  17.1411790 126.7650534  91.3911755  17.3871065
 126.4715262  90.0273364  17.9750375 118.2250954  80.3723835  19.6402118
 117.5778869  81.0713785  19.5466594 118.9951970  80.8059979  20.0078366
 121.6329752  90.6372688  22.7152671 121.4815259  90.4083239  21.7982755
 121.6234432  91.5943289  22.7284016 118.4015089  88.2104600  17.6998937
 119.3307149  88.3615760  17.5267905 117.9806119  88.2988621  16.8447584
 117.2003420  92.2355265  15.4697475 117.0614506  91.8674049  16.3423413
 116.4118017  92.7502904  15.2981433 118.7508636  91.6136868  12.8586313
 118.4158468  91.5737637  13.7543963 118.2512581  90.9481583  12.3856723
 112.7252880  87.0204498  18.3838894 112.5872677  86.2884736  18.9850433
 113.6357803  86.9313398  18.1023082 115.3535180  86.7324457  17.8722574
 116.0634799  86.0917649  17.8309192 115.3104488  86.9837352  18.7948754
 123.3421959  93.6691810  20.7929153 123.2834505  92.9851030  20.1259736
 123.7441477  94.4110800  20.3409779 114.0664114  83.7189675  19.6918213
 113.5301471  83.2680413  20.3439809 113.4780823  83.8535584  18.9488677
 112.3612658 100.4853724  13.5862872 112.6009256 101.1172248  14.2641890
 111.5181854 100.1341764  13.8728231 113.4766373  83.1778326   2.2544677
 112.5995839  83.0567127   1.8906923 113.9524126  82.3864404   2.0023565
 123.3439366  91.6331394  19.0243132 122.4566145  91.2957316  19.1469531
 123.9137917  90.9014425  19.2611898 104.9968513  87.9655486  12.3486184
 105.6839553  87.6517216  11.7607199 104.8416642  88.8696851  12.0753435
 109.8003235  82.8545682  16.7771208 109.7161424  82.2471352  16.0421617
 108.9785942  83.3454701  16.7780704 116.8740520  96.2932846  15.9904376
 116.8010691  97.0987818  16.5023680 116.4317913  96.4924812  15.1652397
 116.6630299  95.5304617   9.5007197 115.8797821  96.0726297   9.5945422
 117.3623044  96.0478596   9.9001438 119.9726949  81.3399246  12.1441403
 120.4695649  80.5869208  11.8242473 119.2013931  81.3763563  11.5784612
 127.8256707  87.0439612  13.7859694 127.8146583  87.9264327  13.4153627
 126.9574086  86.6911162  13.5914231 119.3339203  96.1919681  18.1462534
 120.0467175  96.8267145  18.0738436 118.8429232  96.2883547  17.3302536
 121.0556730  90.0970933   9.7179826 120.1213009  90.2172396   9.5484530
 121.2333398  89.1943400   9.4539836 116.5561918  83.4816629  11.8713087
 116.1859706  82.9287669  12.5593993 117.0521011  82.8774762  11.3188087
 124.4429281  85.9388252  10.2529860 124.9089734  86.7716244  10.1790163
 124.8936782  85.4733234  10.9575119 114.3851117  93.9414124  18.9668105
 115.0860576  94.5750607  19.1197499 113.9146232  94.2828856  18.2063744
 122.5105512  92.2832074   7.2516012 122.7865356  92.1688668   8.1609886
 121.6410011  91.8849559   7.2128185 122.4145944  78.3068839  14.2920761
 121.5009024  78.5373066  14.4602968 122.8439046  78.3907284  15.1434794
 122.1852403  86.4958731  16.7920655 121.5323853  86.7434639  16.1373108
 122.5632782  85.6822870  16.4583133 119.1459576  96.5318425  10.8948826
 119.3281971  95.7140081  11.3576578 119.9692562  96.7486117  10.4573716
 118.2339976  87.2378543  23.2786693 117.5580613  87.1372672  23.9489068
 119.0567609  87.0817756  23.7422690 109.9818835  93.4750479  15.8999208
 110.5672271  92.7294167  16.0327112 109.7843673  93.7854436  16.7835872
 112.8357490  96.5101726  10.9161650 112.1667865  96.9947854  10.4325690
 112.6970360  96.7570947  11.8305029 104.5736489  86.0456079  14.6203651
 104.6120589  85.5119670  15.4140769 104.0676782  85.5191285  14.0014628
 116.9762758  98.5445470  17.5144309 117.5281067  98.7077091  18.2793394
 117.3168952  99.1349908  16.8424333 111.9527252  80.8920620  18.1166193
 112.0168578  81.7535451  17.7043591 111.8894372  80.2794621  17.3838552
 111.4279524  82.9643752  21.7639228 112.0551563  82.5820830  22.3776752
 110.5707443  82.7457954  22.1294920 121.8273633  93.3706727  23.3692963
 122.3713537  93.9836686  22.8747918 121.2460478  93.9286306  23.8859976
 108.2045067  84.7720181   7.6957582 108.4998508  83.8630860   7.6424636
 107.3033103  84.7507921   7.3738585 120.1131146  96.4927445  14.5007991
 119.9882285  95.6917185  13.9918936 120.7710237  96.9873639  14.0121961
 111.7339314  82.8476178  13.6785131 111.0125900  83.4612146  13.5392604
 112.5232570  83.3833943  13.6001777 122.1766054  94.2936466  16.1287541
 121.2296390  94.1741817  16.0565868 122.5248827  93.4058964  16.2113802
 114.5365628  80.1830604  19.9525783 115.0600029  80.4292901  20.7152092
 114.3177961  81.0150639  19.5328920 109.9332909  82.4534279   7.8196907
 109.6045615  81.5731658   7.6372013 110.2872279  82.3981948   8.7073297
 119.1812487  94.0889182  12.3291893 119.0337450  93.1605889  12.5099463
 120.0065981  94.1109272  11.8448968 113.0474732  82.7407249   8.1872385
 113.3870804  83.2693170   7.4650994 113.4946852  83.0787655   8.9630952
 122.7846609  94.9117741  13.4156766 123.7093157  94.7060602  13.2781217
 122.6161913  94.6634142  14.3246107 115.7418173  81.1244300  17.6375453
 115.4014993  80.3252113  18.0396133 115.0357179  81.4246010  17.0652286
 116.3934644  78.2093612  16.0902776 117.2160714  77.7354090  15.9681667
 116.6372708  78.9884096  16.5901463 115.0342879  81.2381870   6.3865678
 115.7551241  81.6163123   5.8829395 114.4108183  81.9570747   6.4900656
 119.1774002  81.9427019   7.3224010 119.3937616  82.8251657   7.0212838
 118.6968069  81.5513233   6.5929652 113.9173223  84.9012733  13.8994755
 113.7717804  85.2153036  14.7919036 113.4398427  85.5197633  13.3465653
 115.7769606  81.8915281  13.9475644 115.7631175  80.9956374  13.6107942
 116.4942034  81.8985944  14.5813930 117.6295737  82.3252621  15.9928772
 117.3713515  83.2469691  15.9913102 117.0980777  81.9283055  16.6829236
 108.3918885  87.4418077  16.8382416 107.8472353  88.2177885  16.9702690
 109.2698235  87.7888882  16.6801537 115.1806502  80.7729661   9.2163215
 115.3022413  79.8446307   9.4154102 114.8908544  80.7868347   8.3041530
 118.0497692  78.4584571  12.3529934 118.0719389  78.5223904  11.3981914
 118.4665751  77.6189080  12.5470441 128.4281317  88.1939831  10.3909157
 128.8712463  87.4447156   9.9928280 127.5507827  88.1849967  10.0082889
 109.1784907  86.5687973  19.7312573 108.4366643  86.7170609  20.3177203
 108.8577651  86.8296239  18.8679322 117.1228570  96.1103952  19.5292963
 117.4315696  95.8653098  20.4015662 117.9204052  96.3150590  19.0411833
 117.1449182  98.2641861  11.7598339 116.7054172  97.7718240  12.4531196
 117.8957299  97.7214829  11.5190415 109.6241521  94.4553402  11.7622968
 110.4499541  94.1557174  11.3821611 109.2735573  93.6861024  12.2112756
 114.5923054  93.8079870  13.8320641 113.9703063  93.1450575  13.5322869
 115.2627921  93.8341002  13.1494289 107.8250126  92.3739728  12.7211901
 106.9882034  91.9461903  12.5395902 107.7973771  92.5672172  13.6582692
 114.6647582  82.2861658  23.4253147 114.7135737  83.1623781  23.0430917
 115.2070096  81.7439051  22.8524790 125.1502427  92.8302782  22.7054284
 124.3597971  92.8126920  22.1658784 124.9135782  93.3691075  23.4603321
 125.2700302  89.6795248  20.0187013 125.3198307  89.5145255  20.9602536
 125.1614226  88.8122507  19.6284894 114.1536561  92.3583794   7.3079102
 114.3024681  93.0419258   6.6545774 114.9603004  92.3388884   7.8228557
 122.5604065  85.6626176  21.3346319 123.4613927  85.5232641  21.0430317
 122.6352039  85.8280631  22.2744497 116.8946870  83.0393031  20.1799506
 116.0250179  83.3326597  19.9082094 117.1306350  83.6233476  20.9006769
 126.7718499  92.0992189  20.2629034 126.4803307  92.4622170  21.0992495
 126.1590630  91.3859198  20.0842366 127.9714181  89.6645069  12.7831605
 128.8061073  90.1034873  12.9469165 128.1073310  89.1883722  11.9639850
 125.0205687  87.2224804  18.7309092 125.4959809  87.4152450  17.9227944
 124.0971253  87.2783990  18.4852476 111.9089194  88.3848971   8.3140171
 111.6635236  87.4811301   8.5120381 112.0785108  88.3866122   7.3719649
 119.5985904  79.2572648  17.6964926 120.1167848  79.9933675  17.3711415
 119.2441037  79.5636641  18.5311685 111.1784841  84.1177329   5.8126332
 110.4854086  84.1921684   5.1566368 110.9336593  83.3537672   6.3347849
 119.8498498  75.6772930  13.2165823 120.1300252  75.0096119  13.8426249
 120.6349105  75.8702026  12.7040487 123.7207356  84.0990564  16.9637398
 124.6724779  84.1988662  16.9849622 123.5510807  83.3068833  17.4735482
 121.7421736  81.1846147  17.1496799 121.1471668  81.4651160  16.4543287
 121.4571432  81.6740048  17.9213540 126.1995434  87.3196684  16.0779698
 126.1671754  86.3812685  16.2639381 126.8096058  87.3980721  15.3445522
 118.0378765  86.1892737   2.1206902 118.9837870  86.0598945   2.1895320
 117.6593010  85.4507399   2.5976330 126.3489923  84.1107727  16.1237981
 125.8328971  83.3266184  15.9367910 127.2329871  83.7826444  16.2884500
 124.0100649  77.8548743  12.0833793 123.8125471  77.5463831  12.9677125
 124.6200355  78.5810382  12.2131723 132.0171984  88.3812691  15.2185734
 132.7475372  88.1197979  15.7793438 131.4078929  87.6441413  15.2587802
 130.0987281  86.5220553  15.8160186 129.3720445  86.3876518  15.2076677
 129.6834568  86.8297382  16.6216904 117.9217457  90.2410483  23.5807559
 118.8420467  90.4189082  23.7747605 117.8867041  89.2966528  23.4287258
 116.2221682  84.1142713   2.0561787 115.3153137  83.8175826   2.1324500
 116.4997663  83.8172531   1.1896073 107.1399622  85.4349077  12.5060833
 106.8202407  84.5814385  12.2135207 106.5933051  85.6497655  13.2618801
 110.9179530  88.1511518  16.2230340 111.1365540  89.0828625  16.2418374
 111.3305304  87.7919492  17.0085144 117.8383748  78.6579603   8.2106028
 117.0284476  78.3126688   8.5861274 118.5268165  78.3487147   8.7993640
 119.7674296  77.7357650   9.8330325 120.3205335  78.1553103  10.4920348
 120.0044382  76.8093398   9.8753281 115.7907395  83.7244723  25.6133089
 115.6904122  84.6739080  25.5445180 115.5728937  83.3962962  24.7409159
 114.9920467  80.9729648   2.1973766 115.8539631  81.2984547   2.4569583
 115.1770811  80.1861144   1.6846832 107.0087882  89.0551988  14.4753955
 106.3151354  88.6405941  13.9623909 107.7560873  89.0972525  13.8787374
 123.1453103  79.8458175   9.3408989 122.5651772  80.5042979   8.9587041
 122.8789036  79.0235519   8.9296407 121.5956670  79.2463233  11.5430309
 122.0956448  79.3579767  10.7344628 122.2392277  78.9424285  12.1831118
 115.6538665  87.1541862  24.4298150 115.1705747  87.9542222  24.6362039
 115.7399604  87.1649807  23.4765594 108.9224625  88.9870242  12.3519970
 108.8995313  89.0857929  11.4001853 109.2325261  89.8335393  12.6737136
 111.5812003  91.0446397  16.4666584 112.5355256  91.0130339  16.3996516
 111.3824526  90.5837021  17.2816810 112.1711385  89.6147513  19.0337382
 112.9904274  90.1091592  19.0572219 112.4448193  88.6979481  19.0054949
 121.9277981  82.0058265   8.3965337 121.0403836  82.2907916   8.1785532
 122.3431970  81.8452029   7.5492614 125.2792517  82.0304786  12.1119677
 126.0552907  82.5201239  12.3844293 124.5540652  82.4562840  12.5691546
 127.7165076  82.7432405  13.1693617 128.3109567  82.5028141  12.4586925
 127.7891660  82.0239536  13.7967153 109.9362232  96.5866016  13.4836782
 109.8016700  95.8266417  12.9174780 109.5194294  97.3106916  13.0165571
 121.9019005  87.5212801   8.6115627 121.8454206  87.9781353   7.7723260
 122.4547347  86.7603486   8.4338470 125.7123811  83.3102533   9.4365747
 125.4560745  82.9099169  10.2673955 125.0876679  84.0246327   9.3115886
 130.0236149  86.0498606  11.9437038 129.4635707  86.1191796  12.7168600
 129.4179652  85.8739591  11.2236535 113.0931358  97.4835333  13.6955225
 112.9763742  98.4280766  13.5933915 112.2723804  97.1808895  14.0841024
 122.6353784  88.7117582   5.9068157 122.5802588  88.5461854   4.9656601
 122.0099840  89.4193615   6.0630346 107.4246299  83.9485647  19.7329579
 108.0705163  83.4384601  20.2216804 107.2163450  84.6854328  20.3073004
 119.9499691  91.0166494  25.2321719 120.8190851  91.1907147  24.8708354
 119.4706443  91.8360911  25.1097449 115.9449910  78.2125691   5.4853475
 115.9328580  79.1567531   5.6421746 116.8373332  78.0295837   5.1912936
 114.1185872  98.1363595  16.9111153 115.0213118  98.1687206  17.2277648
 113.8923242  97.2064046  16.9257489 115.8739474  96.8894582  13.5721232
 114.9235105  96.8896443  13.4585604 116.1771960  96.1427316  13.0557266
 119.7602029  74.8068468   9.7399412 118.9934425  74.2526955   9.8856094
 120.1712734  74.8790337  10.6013563 111.7643790  81.0953264  23.8304593
 112.6275252  80.7390069  24.0407918 111.1909201  80.7567159  24.5179997
 128.9001656 103.8317400  20.5314724 128.8890297 103.4370198  19.6595228
 129.0622296 103.0983473  21.1248496 125.6208918 106.6154512  19.4793908
 125.3298784 107.5200143  19.3640575 126.2565902 106.6571039  20.1937978
 134.0867283  94.1003381  17.0747789 133.7550608  94.9698792  16.8509004
 133.4912897  93.7839665  17.7541820 121.3920095 102.3962998  13.3424195
 121.5212476 102.6497477  14.2563607 120.7117546 102.9890706  13.0228851
 128.0536812 100.2388113  22.0976037 127.2770146 100.7982033  22.0878901
 128.6927375 100.7244896  22.6190907 135.8457593  97.0214906  15.9319013
 135.2031973  97.3147439  15.2858808 135.3412521  96.9067826  16.7372210
 126.3083185 103.0473567  21.6594004 127.0497869 103.5858610  21.3828827
 125.6020170 103.6739855  21.8165555 131.7838524 105.1902707  20.2566165
 132.1921880 104.7485118  19.5120797 131.0615786 104.6155335  20.5100358
 128.1369594 100.1275314  17.6299722 128.9830789 100.5514727  17.7734371
 128.0768232  99.4708938  18.3238285 131.2869040  97.7879682  19.2880896
 131.0429971  98.5421743  18.7515171 131.5628970  98.1665030  20.1228143
 130.8433731  96.9436115  14.8694733 129.9818210  97.2417369  15.1611471
 130.8696166  97.1606514  13.9375766 125.0444548 100.2013215  22.4609314
 124.4143209 100.8829496  22.6944710 124.9380636 100.0896296  21.5162452
 120.3389521  99.8685011  13.3875238 119.5488575 100.1242539  12.9115348
 120.8300768 100.6833349  13.4927278 128.1209934 106.7574293  18.2941229
 128.1854366 107.2194700  19.1299401 127.4120858 106.1271658  18.4223539
 118.6227224 100.1215501  15.8190229 118.8735262 101.0062511  16.0847804
 119.1586772  99.9420103  15.0465320 124.3225291  94.5033981  24.8234565
 123.9292237  93.9500179  25.4982209 125.1391431  94.8144559  25.2141082
 127.2393252  95.9191860  22.4154821 127.9802965  96.5199013  22.3359284
 127.4711175  95.1769497  21.8572864 122.3834590 101.1048227  20.6933051
 122.2688105 100.2033484  20.9940150 121.5279108 101.3511924  20.3417867
 129.4626428 109.0465967  22.2920551 129.0190282 108.2602346  21.9741456
 130.1243641 109.2345118  21.6264442 128.0180720 106.8412897  21.1625461
 128.5509057 106.0801185  20.9324769 127.4894801 106.5486548  21.9049616
 131.1850415  91.9472963  16.6919103 130.8414684  92.8374604  16.6158213
 131.5529378  91.7574620  15.8288688 130.2646955  94.3177618  14.6568336
 129.7611751  94.2807753  13.8436141 130.5577562  95.2270360  14.7164993
 126.5089841  94.4016347  13.6634518 127.3742838  94.2059156  13.3040407
 126.5767350  94.1726699  14.5903875 124.1152160  96.6318555  11.0350885
 124.6895912  96.4093737  10.3024078 124.7023143  96.7007250  11.7879486
 126.4174828  93.5059804   9.7625954 125.7639240  93.1908821   9.1382569
 126.3755302  92.8835545  10.4885777 132.9838081  91.2066522  11.7936841
 133.2896957  90.3463885  11.5062756 133.7090685  91.7984142  11.5935834
 130.7925732 100.5839199  18.8918304 131.1475120 100.8110672  19.7512770
 131.4397863 100.9157576  18.2695560 124.6865595  97.6915730  15.6764645
 125.3264974  97.5504489  14.9787609 123.8543126  97.4050243  15.3003247
 123.1619137  99.0753812  17.6236457 123.8342190  98.8671174  16.9749106
 122.3348923  98.8775898  17.1841689 129.0644709  95.7015753  19.6402118
 128.4172624  96.4005703  19.5466594 129.8345724  96.1351897  20.0078366
 132.4723507 105.9664605  22.7152671 132.3209013 105.7375157  21.7982755
 132.4628186 106.9235207  22.7284016 129.2408843 103.5396518  17.6998937
 130.1700903 103.6907678  17.5267905 128.8199873 103.6280539  16.8447584
 123.5646634 102.3496415  18.3838894 123.4266432 101.6176654  18.9850433
 124.4751558 102.2605315  18.1023082 126.1928935 102.0616375  17.8722574
 126.9028553 101.4209567  17.8309192 126.1498243 102.3129269  18.7948754
 124.9057869  99.0481592  19.6918213 124.3695226  98.5972331  20.3439809
 124.3174577  99.1827501  18.9488677 115.8362268 103.2947404  12.3486184
 116.5233308 102.9809134  11.7607199 115.6810396 104.1988768  12.0753435
 120.6396990  98.1837600  16.7771208 120.5555179  97.5763270  16.0421617
 119.8179696  98.6746618  16.7780704 125.2244871 109.2706042  18.9668105
 125.9254331 109.9042525  19.1197499 124.7539986 109.6120773  18.2063744
 133.2539699  93.6360757  14.2920761 132.3402778  93.8664984  14.4602968
 133.6832800  93.7199201  15.1434794 129.0733730 102.5670460  23.2786693
 128.3974367 102.4664590  23.9489068 129.8961364 102.4109674  23.7422690
 120.8212589 108.8042397  15.8999208 121.4066026 108.0586085  16.0327112
 120.6237428 109.1146353  16.7835872 115.4130244 101.3747997  14.6203651
 115.4514343 100.8411588  15.4140769 114.9070537 100.8483202  14.0014628
 122.7921006  96.2212537  18.1166193 122.8562333  97.0827368  17.7043591
 122.7288126  95.6086539  17.3838552 122.2673279  98.2935670  21.7639228
 122.8945318  97.9112747  22.3776752 121.4101198  98.0749872  22.1294920
 132.6667387 108.6998645  23.3692963 133.2107291 109.3128603  22.8747918
 132.0854232 109.2578224  23.8859976 122.5733068  98.1768096  13.6785131
 121.8519654  98.7904063  13.5392604 123.3626324  98.7125860  13.6001777
 125.3759382  95.5122522  19.9525783 125.8993784  95.7584819  20.7152092
 125.1571715  96.3442557  19.5328920 126.5811927  96.4536217  17.6375453
 126.2408747  95.6544030  18.0396133 125.8750933  96.7537928  17.0652286
 127.2328399  93.5385530  16.0902776 128.0554468  93.0646008  15.9681667
 127.4766462  94.3176013  16.5901463 124.7566978 100.2304650  13.8994755
 124.6111558 100.5444953  14.7919036 124.2792181 100.8489551  13.3465653
 126.6163361  97.2207198  13.9475644 126.6024929  96.3248292  13.6107942
 127.3335789  97.2277862  14.5813930 128.4689491  97.6544539  15.9928772
 128.2107269  98.5761609  15.9913102 127.9374532  97.2574973  16.6829236
 119.2312640 102.7709995  16.8382416 118.6866108 103.5469803  16.9702690
 120.1091990 103.1180799  16.6801537 128.8891447  93.7876489  12.3529934
 128.9113144  93.8515822  11.3981914 129.3059506  92.9480998  12.5470441
 120.0178662 101.8979891  19.7312573 119.2760398 102.0462526  20.3177203
 119.6971406 102.1588157  18.8679322 125.5041336  97.6153576  23.4253147
 125.5529491  98.4915699  23.0430917 126.0463850  97.0730969  22.8524790
 135.9896182 108.1594699  22.7054284 135.1991725 108.1418838  22.1658784
 135.7529536 108.6982993  23.4603321 136.1094057 105.0087166  20.0187013
 136.1592062 104.8437173  20.9602536 136.0007980 104.1414425  19.6284894
 133.3997819 100.9918094  21.3346319 134.3007682 100.8524558  21.0430317
 133.4745794 101.1572548  22.2744497 127.7340624  98.3684948  20.1799506
 126.8643934  98.6618514  19.9082094 127.9700105  98.9525393  20.9006769
 130.4379658  94.5864565  17.6964926 130.9561602  95.3225592  17.3711415
 130.0834791  94.8928559  18.5311685 130.6892252  91.0064848  13.2165823
 130.9694006  90.3388037  13.8426249 131.4742859  91.1993943  12.7040487
 134.5601111  99.4282482  16.9637398 135.5118534  99.5280579  16.9849622
 134.3904561  98.6360750  17.4735482 132.5815490  96.5138065  17.1496799
 131.9865422  96.7943078  16.4543287 132.2965187  97.0031966  17.9213540
 128.7611212 105.5702401  23.5807559 129.6814221 105.7481000  23.7747605
 128.7260795 104.6258446  23.4287258 117.9793377 100.7640994  12.5060833
 117.6596161  99.9106302  12.2135207 117.4326805 100.9789572  13.2618801
 121.7573285 103.4803435  16.2230340 121.9759294 104.4120543  16.2418374
 122.1699058 103.1211410  17.0085144 126.6301150  99.0536641  25.6133089
 126.5297877 100.0030998  25.5445180 126.4122692  98.7254880  24.7409159
 117.8481637 104.3843906  14.4753955 117.1545108 103.9697859  13.9623909
 118.5954628 104.4264442  13.8787374 126.4932420 102.4833780  24.4298150
 126.0099502 103.2834140  24.6362039 126.5793359 102.4941725  23.4765594
 122.4205757 106.3738315  16.4666584 123.3749011 106.3422257  16.3996516
 122.2218281 105.9128938  17.2816810 123.0105139 104.9439431  19.0337382
 123.8298028 105.4383509  19.0572219 123.2841947 104.0271399  19.0054949
 118.2640054  99.2777564  19.7329579 118.9098917  98.7676518  20.2216804
 118.0557205 100.0146246  20.3073004 130.7893446 106.3458412  25.2321719
 131.6584606 106.5199064  24.8708354 130.3100197 107.1652829  25.1097449
 130.5995784  90.1360386   9.7399412 129.8328179  89.5818872   9.8856094
 131.0106489  90.2082255  10.6013563 122.6037545  96.4245182  23.8304593
 123.4669006  96.0681986  24.0407918 122.0302955  96.0859076  24.5179997
 135.1619046 109.8325898  24.8234565 134.7685991 109.2792097  25.4982209
 135.9785186 110.1436477  25.2141082 133.4431299 111.7537099  23.8304593
 134.3062761 111.3973904  24.0407918 132.8696710 111.4150994  24.5179997
  96.3820394  34.8503770   7.2560031  96.3709035  34.4556568   6.3840535
  96.5441034  34.1169842   7.8493802  93.1027655  37.6340881   6.2039215
  92.8117521  38.5386512   6.0885881  93.7384640  37.6757409   6.9183284
  98.0617540  37.3202297   3.1989009  97.7618264  38.2227336   3.0904816
  97.7168600  37.0534480   4.0510161  95.5355550  31.2574483   8.8221343
  94.7588884  31.8168403   8.8124208  96.1746113  31.7431266   9.3436213
  93.7901922  34.0659936   8.3839310  94.5316607  34.6044980   8.1074134
  93.0838908  34.6926225   8.5410862  99.2657262  36.2089077   6.9811472
  99.6740618  35.7671487   6.2366104  98.5434523  35.6341704   7.2345665
  95.6188332  31.1461683   4.3545029  96.4649527  31.5701097   4.4979678
  95.5586970  30.4895308   5.0483592  99.5886077  36.7690267   0.7363761
  98.9594939  36.9335981   0.0339828  99.2011739  37.1831877   1.5074725
 103.4675309  37.7044705  -1.9091876 102.7826347  38.0843606  -2.4594842
 103.5519158  38.3140032  -1.1759928  98.7687777  28.8066052   6.0126202
  98.5248709  29.5608112   5.4760478  99.0447708  29.1851399   6.8473449
 100.7226240  35.3504664   4.6903468 100.9343135  35.9936424   4.0137849
 100.6755988  34.5166981   4.2225398  92.5263286  31.2199584   9.1854620
  91.8961947  31.9015865   9.4190017  92.4199374  31.1082666   8.2407758
 101.8372068  38.2276619   2.8625825 102.6589512  37.8256807   2.5808507
 101.8334471  38.1244854   3.8141941  95.6028672  37.7760663   5.0186536
  95.6673104  38.2381070   5.8544708  94.8939595  37.1458028   5.1468846
  91.8044029  25.5220350  11.5479871  91.4110974  24.9686549  12.2227515
  92.6210169  25.8330929  11.9386389  94.7211990  26.9378229   9.1400128
  95.4621703  27.5385382   9.0604590  94.9529913  26.1955867   8.5818170
  89.8653328  32.1234596   7.4178357  89.7506843  31.2219854   7.7185456
  89.0097846  32.3698293   7.0663174  96.9445166  40.0652337   9.0165858
  96.5009020  39.2788715   8.6986763  97.6062379  40.2531487   8.3509749
  91.7032287  41.5948138   3.5426537  92.2539712  41.4665202   2.7703531
  90.8643763  41.8943027   3.1921429  99.0426404  40.3455137   7.0447259
  99.0244879  41.1664018   6.5527529  99.9646324  40.2209212   7.2697401
  95.4999458  37.8599266   7.8870768  96.0327795  37.0987554   7.6570076
  94.9713539  37.5672918   8.6294922 101.8445017  35.1834279   0.5156626
 101.1868691  35.8733541   0.6036755 102.6485416  35.5730711   0.8590612
  99.8645211  40.3561150  -2.3710471 100.1568185  40.9166207  -3.0898106
 100.3743831  40.6489711  -1.6157312  98.2744470  31.6025569   5.6163611
  98.6293857  31.8297042   6.4758077  98.9216601  31.9343945   4.9940866
 104.0311586  36.7920532   1.3324212 104.4648093  36.6995821   2.1807266
 104.7443167  36.7678032   0.6944228  97.7639481  40.3922626   2.8657312
  97.8176503  40.9613562   3.6335028  96.8954263  40.5624511   2.5011349
 104.8927136  36.8344232   3.8657097 105.0863026  37.7390043   4.1116372
 104.7927754  36.3751651   4.6995682  96.5463447  26.7202123   6.3647424
  95.8991362  27.4192072   6.2711901  97.3164462  27.1538267   6.7323672
  99.9542245  36.9850975   9.4397978  99.8027751  36.7561527   8.5228061
  99.9446924  37.9421576   9.4529323  96.7227581  34.5582888   4.4244244
  97.6519641  34.7094047   4.2513211  96.3018611  34.6466908   3.5692890
  95.5215913  38.5833552   2.1942782  95.3826998  38.2152336   3.0668720
  94.7330509  39.0981191   2.0226739  91.0465372  33.3682785   5.1084201
  90.9085170  32.6363024   5.7095740  91.9570295  33.2791685   4.8268388
  93.6747672  33.0802744   4.5967880  94.3847291  32.4395936   4.5554499
  93.6316981  33.3315639   5.5194061 101.6634451  40.0170097   7.5174459
 101.6046997  39.3329318   6.8505042 102.0653970  40.7589087   7.0655085
  90.6825150  46.8332011   0.3108178  90.9221748  47.4650535   0.9887197
  89.8394346  46.4820051   0.5973538 101.6651858  37.9809681   5.7488439
 100.7778637  37.6435603   5.8714838 102.2350410  37.2492713   5.9857204
  95.1953012  42.6411134   2.7149682  95.1223183  43.4466105   3.2268987
  94.7530405  42.8403100   1.8897704 106.1469199  33.3917899   0.5105001
 106.1359075  34.2742614   0.1398934 105.2786578  33.0389450   0.3159538
  97.6551695  42.5397968   4.8707841  98.3679668  43.1745433   4.7983742
  97.1641724  42.6361834   4.0547843  92.7063609  40.2892411   5.6913412
  93.4073068  40.9228894   5.8442806  92.2358724  40.6307143   4.9309051
 100.5064895  32.8437019   3.5165962  99.8536345  33.0912926   2.8618415
 100.8845275  32.0301157   3.1828439  97.4672069  42.8796712  -2.3805868
  97.6494463  42.0618368  -1.9178115  98.2905055  43.0964404  -2.8180978
  96.5552468  33.5856830  10.0031999  95.8793105  33.4850959  10.6734374
  97.3780102  33.4296043  10.4667996  88.3031327  39.8228766   2.6244514
  88.8884764  39.0772454   2.7572419  88.1056165  40.1332723   3.5081178
  95.2975251  44.8923757   4.2389615  95.8493559  45.0555379   5.0038700
  95.6381444  45.4828195   3.5669640  89.7492017  29.3122040   8.4884534
  90.3764055  28.9299117   9.1022058  88.8919935  29.0936241   8.8540227
 100.1486125  39.7185015  10.0938270 100.6926029  40.3314973   9.5993224
  99.5672970  40.2764593  10.6105283  98.4343638  42.8405733   1.2253297
  98.3094777  42.0395473   0.7164243  99.0922729  43.3351926   0.7367267
 100.4978546  40.6414753   2.8532847  99.5508882  40.5220104   2.7811174
 100.8461320  39.7537251   2.9359109  97.5024980  40.4367469  -0.9462800
  97.3549942  39.5084176  -0.7655230  98.3278473  40.4587560  -1.4305725
 101.1059102  41.2596028   0.1402072 102.0305649  41.0538889   0.0026524
 100.9374405  41.0112429   1.0491414  95.4441062  42.4582239   6.2538270
  95.7528189  42.2131386   7.1260969  96.2416544  42.6628877   5.7657140
  95.4661674  44.6120148  -1.5156354  95.0266664  44.1196527  -0.8223497
  96.2169791  44.0693116  -1.7564279  92.9860074  28.6339946  10.1498454
  93.0348229  29.5102068   9.7676223  93.5282588  28.0917339   9.5770097
 103.4714919  39.1781069   9.4299591 102.6810463  39.1605208   8.8904090
 103.2348274  39.7169362  10.1848627 103.5912794  36.0273535   6.7432319
 103.6410799  35.8623543   7.6847842 103.4826718  35.1600794   6.3530200
 100.8816557  32.0104463   8.0591626 101.7826420  31.8710928   7.7675624
 100.9564531  32.1758918   8.9989804  95.2159362  29.3871318   6.9044812
  94.3462672  29.6804884   6.6327401  95.4518843  29.9711763   7.6252076
 105.0930991  38.4470477   6.9874341 104.8015800  38.8100457   7.8237802
 104.4803123  37.7337485   6.8087673 106.2926674  36.0123356  -0.4923089
 107.1273565  36.4513161  -0.3285528 106.4285802  35.5362010  -1.3114843
 103.3418180  33.5703091   5.4554399 103.8172301  33.7630738   4.6473250
 102.4183745  33.6262277   5.2097783 102.0419849  30.4468851   3.6882705
 102.9937271  30.5466949   3.7094929 101.8723299  29.6547120   4.1980789
 104.5207926  33.6674971   2.8025004 104.4884246  32.7290972   2.9884688
 105.1308550  33.7459008   2.0690829 104.6702415  30.4586015   2.8483287
 104.1541463  29.6744471   2.6613216 105.5542363  30.1304731   3.0129807
 110.3384476  34.7290978   1.9431041 111.0687865  34.4676266   2.5038744
 109.7291422  33.9919700   1.9833109 108.4199773  32.8698841   2.5405492
 107.6932937  32.7354805   1.9321984 108.0047060  33.1775669   3.3462210
  96.2429950  36.5888770  10.3052865  97.1632959  36.7667369  10.4992912
  96.2079533  35.6444816  10.1532564  94.1119888  30.0723011  12.3378395
  94.0116615  31.0217368  12.2690486  93.8941430  29.7441250  11.4654465
  93.9751158  33.5020149  11.1543457  93.4918239  34.3020510  11.3607346
  94.0612097  33.5128094  10.2010901  89.9024495  37.3924684   3.1911891
  90.8567749  37.3608626   3.1241822  89.7037019  36.9315308   4.0062117
  90.4923877  35.9625800   5.7582688  91.3116766  36.4569879   5.7817526
  90.7660685  35.0457768   5.7300256  91.4143850  43.8313621   0.4200531
  91.2976234  44.7759053   0.3179222  90.5936296  43.5287182   0.8086330
  98.2712184  37.3644782  11.9567026  99.1403343  37.5385434  11.5953661
  97.7918935  38.1839198  11.8342755  92.4398364  44.4841883   3.6356460
  93.3425611  44.5165493   3.9522955  92.2135734  43.5542334   3.6502795
  94.1951966  43.2372869   0.2966538  93.2447597  43.2374731   0.1830911
  94.4984452  42.4905604  -0.2197427  90.0856283  27.4431551  10.5549900
  90.9487744  27.0868356  10.7653224  89.5121693  27.1045446  11.2425304
 109.9304659  49.0733407   1.3612301 110.5683069  48.9540155   0.6575641
 109.8125502  50.0214251   1.4200253 106.7394366  49.0260836   1.2973825
 106.4012877  48.9101900   0.4094360 107.6084134  48.6252001   1.2774832
 102.5981181  50.8796312  -2.7129284 102.0346047  50.7886249  -3.4812996
 102.4833576  50.0596216  -2.2326791 107.2214149  50.1795687   7.2560031
 107.2102789  49.7848486   6.3840535 107.3834788  49.4461760   7.8493802
 100.1445613  52.3747504   0.1254937 100.9366905  52.0338328  -0.2898764
 100.3842264  52.4842479   1.0457090 108.1780740  54.5467280  -7.4014819
 107.5268720  55.1321360  -7.7880805 108.9725103  55.0773475  -7.3419781
 102.1036367  51.6356417  -7.0027684 102.8767243  51.0885404  -7.1414809
 102.4561766  52.5000666  -6.7913223 103.9421410  52.9632799   6.2039215
 103.6511276  53.8678430   6.0885881 104.5778394  53.0049327   6.9183284
 104.8677617  50.3409648   2.7940575 105.4641189  50.1165670   2.0797537
 104.9252588  49.5994393   3.3966022 109.4845928  46.7984861  -1.5634491
 110.2709017  46.3804285  -1.9144074 109.7484632  47.7030954  -1.3952843
 109.6556005  52.2357712  -6.8645834 109.0201838  52.3092338  -6.1524930
 109.3253412  52.8251310  -7.5426755 114.8854355  46.7360095  -0.6601513
 115.6179527  46.1659311  -0.4263683 114.1293711  46.3481695  -0.2195007
 104.1598934  49.6977189  -7.1684860 104.0435192  49.0222092  -6.5003775
 104.2701194  49.2109563  -7.9852706 106.5030475  49.1587336  -3.4638170
 106.1388682  48.6317957  -2.7525249 107.3597591  48.7685805  -3.6371685
 112.4079775  40.4481669   3.7993096 112.0763100  41.3177080   3.5754311
 111.8125389  40.1317953   4.4787126 108.9011295  52.6494215   3.1989009
 108.6012018  53.5519253   3.0904816 108.5562354  52.3826398   4.0510161
 102.3523776  49.1008011  -0.7674287 101.4274273  48.9684226  -0.5596595
 102.6008190  49.8802231  -0.2704345 112.3008439  45.1676755   0.8786446
 111.3925316  45.0992163   0.5845207 112.2496035  45.6448700   1.7068271
 106.1225183  46.6434893  -7.4830155 106.0024808  47.0891944  -6.6444675
 105.4277771  46.9920211  -8.0416617  99.7132587  48.7441285   0.0669502
  99.8424969  48.9975764   0.9808914  99.0330039  49.3368993  -0.2525843
 103.8832075  59.4138535  -3.8340024 103.8056104  60.3646360  -3.7551543
 103.2793718  59.0684407  -3.1765097 106.3749305  46.5866400   8.8221343
 105.5982639  47.1460321   8.8124208 107.0139868  47.0723183   9.3436213
 114.1670085  43.3693193   2.6564320 113.5244465  43.6625726   2.0104114
 113.6625014  43.2546114   3.4617516 104.6295677  49.3951854   8.3839310
 105.3710361  49.9336898   8.1074134 103.9232662  50.0218143   8.5410862
 110.1051016  51.5380994   6.9811472 110.5134372  51.0963405   6.2366104
 109.3828278  50.9633622   7.2345665 106.4582087  46.4753601   4.3545029
 107.3043282  46.8993015   4.4979678 106.3980724  45.8187225   5.0483592
 110.4279831  52.0982185   0.7363761 109.7988694  52.2627899   0.0339828
 110.0405493  52.5123794   1.5074725 114.3069063  53.0336623  -1.9091876
 113.6220101  53.4135524  -2.4594842 114.3912912  53.6431949  -1.1759928
 109.6081532  44.1357969   6.0126202 109.3642464  44.8900030   5.4760478
 109.8841462  44.5143317   6.8473449 111.5619995  50.6796582   4.6903468
 111.7736890  51.3228342   4.0137849 111.5149743  49.8458898   4.2225398
 109.1646224  43.2914402   1.5940040 108.3030703  43.5895656   1.8856778
 109.1908658  43.5084801   0.6621073 105.9807793  51.8356593  -1.9986154
 106.4446139  52.1144296  -2.7881532 105.7164591  50.9340038  -2.1813064
 102.8731874  51.3828074   0.9393609 103.4433231  51.8115343   0.3011093
 103.4639986  51.1010659   1.6377795 104.9176679  47.9579745  -5.1896589
 105.6200722  48.4100789  -4.7222663 104.5857308  47.3163564  -4.5616696
 103.3657041  46.5491502   9.1854620 102.7355701  47.2307783   9.4190017
 103.2593128  46.4374584   8.2407758  98.6602013  46.2163298   0.1120544
  97.8701067  46.4720827  -0.3639345  99.1513260  47.0311636   0.2172585
 112.6765823  53.5568537   2.8625825 113.4983266  53.1548724   2.5808507
 112.6728225  53.4536771   3.8141941 100.6116758  46.5807877  -2.9295979
  99.8147922  46.6926571  -2.4112483 100.3842351  46.9194529  -3.7955088
 106.4422426  53.1052580   5.0186536 106.5066859  53.5672988   5.8544708
 105.7333350  52.4749945   5.1468846  96.9439716  46.4693788   2.5435535
  97.1947754  47.3540798   2.8093111  97.4799264  46.2898390   1.7710627
 106.1570444  54.7720688  -5.1134484 106.0216118  55.6172224  -4.6849636
 106.6980256  54.9739966  -5.8768550 102.6437783  40.8512268  11.5479871
 102.2504729  40.2978466  12.2227515 103.4603924  41.1622846  11.9386389
  99.6099841  52.2896126  -4.5406559 100.1224362  53.0839376  -4.3900994
 100.2622554  51.5922416  -4.6072957 101.4194726  55.4061882  -2.4583806
 101.5961354  56.3279847  -2.6462822 102.2151559  55.0920301  -2.0289426
 105.5605744  42.2670147   9.1400128 106.3015458  42.8677300   9.0604590
 105.7923667  41.5247785   8.5818170 100.7047082  47.4526514   7.4178357
 100.5900597  46.5511771   7.7185456  99.8491600  47.6990211   7.0663174
 107.7838920  55.3944254   9.0165858 107.3402774  54.6080633   8.6986763
 108.4456134  55.5823405   8.3509749 102.5426041  56.9240056   3.5426537
 103.0933466  56.7957119   2.7703531 101.7037517  57.2234945   3.1921429
 109.8820158  55.6747054   7.0447259 109.8638633  56.4955935   6.5527529
 110.8040078  55.5501130   7.2697401 106.3393212  53.1891184   7.8870768
 106.8721549  52.4279472   7.6570076 105.8107293  52.8964836   8.6294922
 109.5062907  38.2951250   3.4164409 109.1627177  39.1852892   3.3403520
 109.8741870  38.1052907   2.5533994  97.5748758  50.6184780  -3.7646988
  98.4123980  51.0281789  -3.9813281  97.7527026  49.6784222  -3.7946794
 107.0560301  43.1309562  -3.0177917 106.2001897  42.7416412  -3.1972278
 107.4687253  43.2101523  -3.8778132 108.5859448  40.6655905   1.3813643
 108.0824243  40.6286040   0.5681448 108.8790054  41.5748648   1.4410299
 104.8302334  40.7494635   0.3879824 105.6955330  40.5537443   0.0285714
 104.8979842  40.5204986   1.3149181 107.7045925  52.3177176  -4.6010420
 107.1767287  51.5829936  -4.9137183 107.2033428  53.0951853  -4.8470452
 112.6838771  50.5126197   0.5156626 112.0262445  51.2025458   0.6036755
 113.4879170  50.9022629   0.8590612 102.4364653  42.9796843  -2.2403809
 103.0108404  42.7572024  -2.9730616 103.0235635  43.0485537  -1.4875207
 111.4944230  48.8670570  -1.4339432 112.0076112  49.5000561  -0.9317722
 112.1445454  48.2671765  -1.7996072 104.7387320  39.8538092  -3.5128739
 104.0851733  39.5387109  -4.1372125 104.6967794  39.2313832  -2.7868916
 108.7566604  58.8454894  -8.6778761 108.0828303  59.1486591  -8.0693803
 109.1432426  59.6483974  -9.0273304 107.9725061  46.3420025   0.8118908
 107.0547622  46.5634972   0.6540596 108.3885204  46.4166336  -0.0469384
 108.7560108  47.7411441  -4.0578411 109.5031927  48.2532838  -4.3671289
 109.0251698  47.4195493  -3.1974018 107.0286759  50.2369981  -7.0751457
 106.1197978  49.9529014  -6.9778987 107.0581842  50.6569060  -7.9348150
 112.2606026  53.8476571  -3.3060290 111.8068353  53.0067481  -3.2495099
 111.6299993  54.4837969  -2.9685509 111.2038946  44.7768557  -2.0759622
 110.4661702  44.2645943  -1.7449380 111.4565719  44.3368939  -2.8876345
 110.7038965  55.6853068  -2.3710471 110.9961940  56.2458125  -3.0898106
 111.2137586  55.9781629  -1.6157312  97.5974929  47.9575496  -3.0936255
  97.3999329  47.3644856  -3.8185188  97.0421593  47.6527706  -2.3760316
 105.5771653  47.8498602  -0.9741662 105.6320262  46.8972438  -1.0499185
 104.7662855  48.0058041  -0.4900363 106.7262846  51.7778725  -9.7363379
 106.2882276  51.0614584 -10.1957741 107.4673287  52.0054840 -10.2978287
 103.5164013  46.4675662  -3.2151283 102.7031878  46.7669832  -2.8086091
 104.0123007  46.0731351  -2.4976801 105.6672590  56.4633419  -1.2817018
 105.6248769  56.6894265  -2.2108486 106.5835289  56.2296793  -1.1331217
 109.1138224  46.9317486   5.6163611 109.4687612  47.1588959   6.4758077
 109.7610355  47.2635863   4.9940866 103.0078087  44.0394017   2.4009952
 103.6477467  43.8982776   1.7032915 102.1755618  43.7528531   2.0248554
 114.8705341  52.1212449   1.3324212 115.3041847  52.0287738   2.1807266
 115.5836921  52.0969950   0.6944228 103.7838391  53.3396448  -1.4855056
 104.5778990  52.8446768  -1.6872481 103.0730084  52.8114311  -1.8487350
 108.6033236  55.7214543   2.8657312 108.6570258  56.2905480   3.6335028
 107.7348017  55.8916428   2.5011349 100.0921155  47.4839529  -5.4095303
  99.1618743  47.4223985  -5.1925341 100.1878627  46.9615482  -6.2058662
 100.0106704  44.0094342  -2.8217061 100.2713521  44.9239676  -2.9307901
 100.8323876  43.5418785  -2.6720448 101.4831629  45.4232100   4.3481763
 102.1554682  45.2149462   3.6994412 100.6561416  45.2254185   3.9086996
 115.7320890  52.1636150   3.8657097 115.9256780  53.0681960   4.1116372
 115.6321509  51.7043569   4.6995682 107.3857201  42.0494040   6.3647424
 106.7385116  42.7483990   6.2711901 108.1558216  42.4830184   6.7323672
 110.7935999  52.3142893   9.4397978 110.6421505  52.0853444   8.5228061
 110.7840678  53.2713494   9.4529323 107.5621335  49.8874805   4.4244244
 108.4913395  50.0385965   4.2513211 107.1412365  49.9758826   3.5692890
 106.3609667  53.9125470   2.1942782 106.2220753  53.5444254   3.0668720
 105.5724263  54.4273109   2.0226739 106.9557819  59.0134566  -6.4631682
 107.1309575  58.5422609  -5.6486059 106.2690607  59.6400332  -6.2350421
 107.9114882  53.2907072  -0.4168381 107.5764715  53.2507842   0.4789269
 107.4118828  52.6251788  -0.8897970 101.8859126  48.6974702   5.1084201
 101.7478924  47.9654941   5.7095740 102.7964050  48.6083603   4.8268388
 104.5141427  48.4094662   4.5967880 105.2241046  47.7687854   4.5554499
 104.4710735  48.6607557   5.5194061 112.5028206  55.3462015   7.5174459
 112.4440752  54.6621235   6.8505042 112.9047724  56.0881005   7.0655085
 103.2270361  45.3959880   6.4163520 102.6907718  44.9450618   7.0685116
 102.6387069  45.5305789   5.6733984 101.5218904  62.1623929   0.3108178
 101.7615503  62.7942453   0.9887197 100.6788101  61.8111969   0.5973538
 112.5045613  53.3101599   5.7488439 111.6172392  52.9727521   5.8714838
 113.0744164  52.5784630   5.9857204  94.1574760  49.6425691  -0.9268510
  94.8445800  49.3287421  -1.5147494  94.0022889  50.5467055  -1.2001258
  98.9609482  44.5315887   3.5016514  98.8767671  43.9241557   2.7666924
  98.1392189  45.0224906   3.5026010 106.0346766  57.9703051   2.7149682
 105.9616938  58.7758023   3.2268987 105.5924159  58.1695017   1.8897704
 105.8236546  57.2074821  -3.7747496 105.0404068  57.7496502  -3.6809272
 106.5229291  57.7248801  -3.3753255 109.1333196  43.0169451  -1.1313291
 109.6301896  42.2639413  -1.4512221 108.3620178  43.0533768  -1.6970081
 116.9862953  48.7209816   0.5105001 116.9752830  49.6034532   0.1398934
 116.1180333  48.3681367   0.3159538 108.4945450  57.8689885   4.8707841
 109.2073422  58.5037350   4.7983742 108.0035478  57.9653751   4.0547843
 110.2162977  51.7741138  -3.5574867 109.2819255  51.8942601  -3.7270163
 110.3939645  50.8713605  -3.8214858 105.7168165  45.1586834  -1.4041606
 105.3465952  44.6057874  -0.7160701 106.2127257  44.5544967  -1.9566606
 113.6035528  47.6158457  -3.0224833 114.0695980  48.4486449  -3.0964531
 114.0543029  47.1503439  -2.3179575 103.5457363  55.6184329   5.6913412
 104.2466823  56.2520812   5.8442806 103.0752478  55.9599060   4.9309051
 111.6711759  53.9602279  -6.0238681 111.9471603  53.8458873  -5.1144807
 110.8016258  53.5619764  -6.0626508 111.5752191  39.9839044   1.0166068
 110.6615271  40.2143271   1.1848275 112.0045292  40.0677488   1.8680100
 111.3458649  48.1728936   3.5165962 110.6930100  48.4204844   2.8618415
 111.7239029  47.3593075   3.1828439 108.3065823  58.2088630  -2.3805868
 108.4888218  57.3910285  -1.9178115 109.1298809  58.4256322  -2.8180978
 108.6407989  57.1356815  -5.1190819 109.1695755  56.6249269  -5.7320657
 108.9036208  56.8199345  -4.2545286 107.3946222  48.9148747  10.0031999
 106.7186859  48.8142877  10.6734374 108.2173856  48.7587961  10.4667996
  99.1425081  55.1520684   2.6244514  99.7278518  54.4064372   2.7572419
  98.9449920  55.4624641   3.5081178 101.9963737  58.1871931  -2.3593043
 101.3274112  58.6718059  -2.8429003 101.8576606  58.4341152  -1.4449665
  93.7342736  47.7226284   1.3448958  93.7726836  47.1889875   2.1386076
  93.2283029  47.1961490   0.7259935 106.1369005  60.2215675   4.2389615
 106.6887313  60.3847296   5.0038700 106.4775199  60.8120113   3.5669640
 101.1133498  42.5690825   4.8411500 101.1774825  43.4305656   4.4288898
 101.0500619  41.9564826   4.1083858 100.5885771  44.6413957   8.4884534
 101.2157810  44.2591035   9.1022058  99.7313690  44.4228159   8.8540227
 110.9879880  55.0476932  10.0938270 111.5319784  55.6606891   9.5993224
 110.4066724  55.6056511  10.6105283 109.2737393  58.1697650   1.2253297
 109.1488532  57.3687390   0.7164243 109.9316484  58.6643844   0.7367267
 100.8945561  44.5246383   0.4030438 100.1732147  45.1382351   0.2637911
 101.6838817  45.0604148   0.3247084 111.3372301  55.9706670   2.8532847
 110.3902636  55.8512022   2.7811174 111.6855074  55.0829169   2.9359109
 103.6971874  41.8600809   6.6771089 104.2206276  42.1063106   7.4397399
 103.4784208  42.6920844   6.2574227 108.3418734  55.7659387  -0.9462800
 108.1943697  54.8376094  -0.7655230 109.1672228  55.7879477  -1.4305725
 102.2080979  44.4177454  -5.0882308 102.5477051  44.9463375  -5.8103700
 102.6553099  44.7557860  -4.3123742 111.9452856  56.5887945   0.1402072
 112.8699404  56.3830807   0.0026524 111.7768159  56.3404347   1.0491414
 104.9024419  42.8014505   4.3620760 104.5621240  42.0022318   4.7641440
 104.1963426  43.1016215   3.7897593 105.5540891  39.8863817   2.8148083
 106.3766960  39.4124295   2.6926973 105.7978955  40.6654301   3.3146769
 103.0779470  46.5782938   0.6240061 102.9324051  46.8923241   1.5164343
 102.6004674  47.1967838   0.0710960 104.9375853  43.5685486   0.6720951
 104.9237422  42.6726579   0.3353249 105.6548281  43.5756149   1.3059237
 106.7901984  44.0022826   2.7174078 106.5319761  44.9239896   2.7158409
 106.2587024  43.6053260   3.4074543 111.7348172  57.1073613  -4.5035836
 111.9085050  56.5420035  -5.2561984 112.2277063  57.9074508  -4.6856346
  97.5525132  49.1188282   3.5627723  97.0078600  49.8948090   3.6947997
  98.4304482  49.4659086   3.4046844 104.3412749  42.4499866  -4.0591479
 104.4628660  41.5216512  -3.8600591 104.0514791  42.4638552  -4.9713163
 107.2103939  40.1354776  -0.9224759 107.2325636  40.1994109  -1.8772779
 107.6271998  39.2959285  -0.7284253 112.7223345  56.4240377  -7.4038938
 113.4174249  57.0447070  -7.1851623 113.0646495  55.5735729  -7.1286560
  98.3391154  48.2458178   6.4557880  97.5972890  48.3940814   7.0422510
  98.0183898  48.5066444   5.5924629 106.2834817  57.7874156   6.2538270
 106.5921943  57.5423303   7.1260969 107.0810299  57.9920795   5.7657140
 106.3055429  59.9412066  -1.5156354 105.8660419  59.4488445  -0.8223497
 107.0563546  59.3985034  -1.7564279  98.7847768  56.1323607  -1.5131726
  99.6105788  55.8327379  -1.8933082  98.4341820  55.3631229  -1.0641937
 103.7529301  55.4850075   0.5565948 103.1309310  54.8220780   0.2568176
 104.4234168  55.5111207  -0.1260404  96.9856373  54.0509933  -0.5542792
  96.1488281  53.6232108  -0.7358791  96.9580018  54.2442377   0.3827999
 103.8253828  43.9631863  10.1498454 103.8741984  44.8393986   9.7676223
 104.3676342  43.4209256   9.5770097 114.3108674  54.5072986   9.4299591
 113.5204218  54.4897125   8.8904090 114.0742029  55.0461280  10.1848627
 114.4306549  51.3565453   6.7432319 114.4804554  51.1915460   7.6847842
 114.3220472  50.4892712   6.3530200 103.3142808  54.0353999  -5.9675592
 103.4630928  54.7189463  -6.6208919 104.1209251  54.0159089  -5.4526136
 111.7210311  47.3396381   8.0591626 112.6220174  47.2002846   7.7675624
 111.7958286  47.5050836   8.9989804 106.0553117  44.7163236   6.9044812
 105.1856426  45.0096802   6.6327401 106.2912597  45.3003681   7.6252076
 115.9324746  53.7762394   6.9874341 115.6409554  54.1392375   7.8237802
 115.3196877  53.0629403   6.8087673 117.1320428  51.3415274  -0.4923089
 117.9667320  51.7805078  -0.3285528 117.2679557  50.8653927  -1.3114843
 114.1811934  48.8995009   5.4554399 114.6566056  49.0922655   4.6473250
 113.2577499  48.9554195   5.2097783 101.0695441  50.0619176  -4.9614523
 100.8241483  49.1581506  -4.7634313 101.2391355  50.0636327  -5.9035045
 108.7592151  40.9342853   4.4210233 109.2774094  41.6703879   4.0956721
 108.4047283  41.2406846   5.2556992 109.0104745  37.3543135  -0.0588871
 109.2906498  36.6866324   0.5671556 109.7955352  37.5472231  -0.5714207
 106.8138213  56.5302129  -8.4963844 106.2412180  57.1492316  -8.9493372
 107.3871007  57.0801491  -7.9623922 112.8813603  45.7760769   3.6882705
 113.8331026  45.8758867   3.7094929 112.7117053  44.9839038   4.1980789
 110.9027983  42.8616352   3.8742105 110.3077915  43.1421365   3.1788594
 110.6177679  43.3510253   4.6458847 110.0335473  56.8139279  -7.3655262
 110.9666146  56.7484841  -7.1622386 109.9458686  57.6495546  -7.8240729
 115.3601681  48.9966889   2.8025004 115.3278001  48.0582889   2.9884688
 115.9702304  49.0750925   2.0690829 115.5096169  45.7877932   2.8483287
 114.9935218  45.0036389   2.6613216 116.3936118  45.4596649   3.0129807
 121.1778231  50.0582896   1.9431041 121.9081619  49.7968184   2.5038744
 120.5685176  49.3211618   1.9833109 119.2593528  48.1990758   2.5405492
 118.5326691  48.0646723   1.9321984 118.8440815  48.5067587   3.3462210
 107.0823704  51.9180688  10.3052865 108.0026714  52.0959287  10.4992912
 107.0473287  50.9736733  10.1532564  96.3005869  47.1119282  -0.7693860
  95.9808654  46.2584590  -1.0619486  95.7539297  47.3267860  -0.0135893
 100.0785777  49.8281723   2.9475646 100.2971787  50.7598830   2.9663680
 100.4911551  49.4689697   3.7330450 104.9513642  45.4014928  12.3378395
 104.8510369  46.3509285  12.2690486 104.7335184  45.0733167  11.4654465
  96.1694129  50.7322193   1.1999261  95.4757601  50.3176146   0.6869216
  96.9167120  50.7742730   0.6032680 104.8144912  48.8312067  11.1543457
 104.3311994  49.6312427  11.3607346 104.9005851  48.8420012  10.2010901
  98.0830872  50.6640447  -0.9234724  98.0601560  50.7628134  -1.8752841
  98.3931508  51.5105598  -0.6017558 100.7418250  52.7216602   3.1911891
 101.6961503  52.6900544   3.1241822 100.5430773  52.2607226   4.0062117
 101.3317632  51.2917718   5.7582688 102.1510521  51.7861797   5.7817526
 101.6054439  50.3749686   5.7300256  99.0968478  58.2636221   0.2082089
  98.9622946  57.5036622  -0.3579913  98.6800541  58.9877121  -0.2589123
 111.0625252  49.1983006  -4.6639066 111.0060453  49.6551558  -5.5031434
 111.6153594  48.4373691  -4.8416223 102.2537604  59.1605538   0.4200531
 102.1369988  60.1050971   0.3179222 101.4330051  58.8579100   0.8086330
  96.5852546  45.6255852   6.4574885  97.2311410  45.1154806   6.9462111
  96.3769697  46.3624533   7.0318311 109.1105938  52.6936699  11.9567026
 109.9797098  52.8677352  11.5953661 108.6312690  53.5131116  11.8342755
 103.2792118  59.8133800   3.6356460 104.1819365  59.8457411   3.9522955
 103.0529489  58.8834251   3.6502795 105.0345720  58.5664787   0.2966538
 104.0841351  58.5666648   0.1830911 105.3378207  57.8197521  -0.2197427
 100.9250037  42.7723469  10.5549900 101.7881499  42.4160274  10.7653224
 100.3515448  42.4337364  11.2425304 120.7698414  64.4025325   1.3612301
 121.4076824  64.2832073   0.6575641 120.6519257  65.3506169   1.4200253
 117.5788120  64.3552753   1.2973825 117.2406632  64.2393818   0.4094360
 118.4477888  63.9543918   1.2774832 113.4374936  66.2088230  -2.7129284
 112.8739801  66.1178167  -3.4812996 113.3227331  65.3888134  -2.2326791
 118.0607903  65.5087605   7.2560031 118.0496544  65.1140403   6.3840535
 118.2228543  64.7753678   7.8493802 110.9839368  67.7039421   0.1254937
 111.7760660  67.3630246  -0.2898764 111.2236018  67.8134396   1.0457090
 112.9430122  66.9648335  -7.0027684 113.7160998  66.4177322  -7.1414809
 113.2955521  67.8292584  -6.7913223 114.7815164  68.2924717   6.2039215
 114.4905030  69.1970348   6.0885881 115.4172149  68.3341244   6.9183284
 115.7071371  65.6701565   2.7940575 116.3034943  65.4457588   2.0797537
 115.7646343  64.9286311   3.3966022 115.2796400  63.1241001  -9.3709234
 115.5321920  62.6022522 -10.1325771 114.3420959  62.9607146  -9.2682551
 120.3239682  62.1276779  -1.5634491 121.1102772  61.7096202  -1.9144074
 120.5878387  63.0322871  -1.3952843 120.4949760  67.5649629  -6.8645834
 119.8595593  67.6384256  -6.1524930 120.1647166  68.1543228  -7.5426755
 125.7248110  62.0652012  -0.6601513 126.4573281  61.4951229  -0.4263683
 124.9687465  61.6773613  -0.2195007 114.9992688  65.0269107  -7.1684860
 114.8828946  64.3514010  -6.5003775 115.1094948  64.5401481  -7.9852706
 117.3424229  64.4879254  -3.4638170 116.9782437  63.9609875  -2.7525249
 118.1991345  64.0977723  -3.6371685 123.2473530  55.7773586   3.7993096
 122.9156855  56.6468997   3.5754311 122.6519143  55.4609870   4.4787126
 119.7405049  67.9786132   3.1989009 119.4405773  68.8811171   3.0904816
 119.3956109  67.7118316   4.0510161 113.1917531  64.4299929  -0.7674287
 112.2668027  64.2976143  -0.5596595 113.4401944  65.2094148  -0.2704345
 123.1402193  60.4968673   0.8786446 122.2319071  60.4284081   0.5845207
 123.0889789  60.9740617   1.7068271 116.9618937  61.9726811  -7.4830155
 116.8418562  62.4183862  -6.6444675 116.2671526  62.3212129  -8.0416617
 110.5526342  64.0733203   0.0669502 110.6818723  64.3267682   0.9808914
 109.8723793  64.6660911  -0.2525843 114.7225829  74.7430453  -3.8340024
 114.6449859  75.6938278  -3.7551543 114.1187473  74.3976325  -3.1765097
 117.2143059  61.9158318   8.8221343 116.4376393  62.4752238   8.8124208
 117.8533622  62.4015101   9.3436213 125.0063840  58.6985111   2.6564320
 124.3638220  58.9917644   2.0104114 124.5018768  58.5838031   3.4617516
 115.4689431  64.7243771   8.3839310 116.2104116  65.2628815   8.1074134
 114.7626417  65.3510060   8.5410862 120.9444771  66.8672912   6.9811472
 121.3528127  66.4255322   6.2366104 120.2222032  66.2925539   7.2345665
 117.2975841  61.8045519   4.3545029 118.1437036  62.2284932   4.4979678
 117.2374479  61.1479143   5.0483592 121.2673586  67.4274103   0.7363761
 120.6382448  67.5919817   0.0339828 120.8799248  67.8415712   1.5074725
 125.1462818  68.3628540  -1.9091876 124.4613856  68.7427442  -2.4594842
 125.2306667  68.9723867  -1.1759928 120.4475286  59.4649887   6.0126202
 120.2036218  60.2191948   5.4760478 120.7235217  59.8435235   6.8473449
 122.4013749  66.0088499   4.6903468 122.6130644  66.6520259   4.0137849
 122.3543497  65.1750816   4.2225398 120.0039978  58.6206320   1.5940040
 119.1424457  58.9187574   1.8856778 120.0302413  58.8376719   0.6621073
 116.8201547  67.1648511  -1.9986154 117.2839893  67.4436214  -2.7881532
 116.5558346  66.2631955  -2.1813064 113.7125629  66.7119992   0.9393609
 114.2826986  67.1407261   0.3011093 114.3033740  66.4302577   1.6377795
 115.7570434  63.2871663  -5.1896589 116.4594477  63.7392707  -4.7222663
 115.4251062  62.6455482  -4.5616696 114.2050795  61.8783420   9.1854620
 113.5749456  62.5599700   9.4190017 114.0986883  61.7666501   8.2407758
 109.4995767  61.5455216   0.1120544 108.7094821  61.8012744  -0.3639345
 109.9907015  62.3603554   0.2172585 123.5159577  68.8860455   2.8625825
 124.3377021  68.4840642   2.5808507 123.5121980  68.7828689   3.8141941
 111.4510513  61.9099795  -2.9295979 110.6541676  62.0218489  -2.4112483
 111.2236105  62.2486447  -3.7955088 117.2816180  68.4344498   5.0186536
 117.3460613  68.8964905   5.8544708 116.5727104  67.8041863   5.1468846
 107.7833470  61.7985706   2.5435535 108.0341509  62.6832716   2.8093111
 108.3193019  61.6190308   1.7710627 116.9964198  70.1012606  -5.1134484
 116.8609873  70.9464141  -4.6849636 117.5374011  70.3031883  -5.8768550
 113.4831538  56.1804185  11.5479871 113.0898483  55.6270384  12.2227515
 114.2997678  56.4914764  11.9386389 110.4493596  67.6188044  -4.5406559
 110.9618116  68.4131294  -4.3900994 111.1016308  66.9214334  -4.6072957
 112.2588480  70.7353800  -2.4583806 112.4355109  71.6571765  -2.6462822
 113.0545314  70.4212219  -2.0289426 116.3999499  57.5962065   9.1400128
 117.1409212  58.1969218   9.0604590 116.6317422  56.8539702   8.5818170
 111.5440837  62.7818432   7.4178357 111.4294352  61.8803689   7.7185456
 110.6885355  63.0282129   7.0663174 118.6232675  70.7236172   9.0165858
 118.1796529  69.9372551   8.6986763 119.2849888  70.9115323   8.3509749
 113.3819796  72.2531974   3.5426537 113.9327221  72.1249037   2.7703531
 112.5431272  72.5526863   3.1921429 120.7213913  71.0038972   7.0447259
 120.7032388  71.8247853   6.5527529 121.6433833  70.8793047   7.2697401
 117.1786967  68.5183102   7.8870768 117.7115304  67.7571390   7.6570076
 116.6501048  68.2256753   8.6294922 120.3456662  53.6243167   3.4164409
 120.0020931  54.5144809   3.3403520 120.7135624  53.4344825   2.5533994
 108.4142512  65.9476698  -3.7646988 109.2517734  66.3573706  -3.9813281
 108.5920780  65.0076140  -3.7946794 117.8954055  58.4601479  -3.0177917
 117.0395652  58.0708330  -3.1972278 118.3081007  58.5393440  -3.8778132
 119.4253202  55.9947823   1.3813643 118.9217998  55.9577958   0.5681448
 119.7183809  56.9040565   1.4410299 115.6696088  56.0786552   0.3879824
 116.5349085  55.8829361   0.0285714 115.7373597  55.8496904   1.3149181
 118.5439679  67.6469094  -4.6010420 118.0161041  66.9121854  -4.9137183
 118.0427182  68.4243770  -4.8470452 123.5232525  65.8418115   0.5156626
 122.8656200  66.5317376   0.6036755 124.3272925  66.2314546   0.8590612
 113.2758407  58.3088760  -2.2403809 113.8502159  58.0863942  -2.9730616
 113.8629390  58.3777455  -1.4875207 122.3337984  64.1962487  -1.4339432
 122.8469866  64.8292479  -0.9317722 122.9839208  63.5963683  -1.7996072
 113.6027994  60.3393221  -8.2207923 112.7665306  60.6767908  -7.8998649
 113.4632764  60.2042201  -9.1580786 115.5781075  55.1830009  -3.5128739
 114.9245487  54.8679026  -4.1372125 115.5361549  54.5605750  -2.7868916
 118.8118815  61.6711943   0.8118908 117.8941377  61.8926890   0.6540596
 119.2278959  61.7458253  -0.0469384 119.5953863  63.0703358  -4.0578411
 120.3425682  63.5824756  -4.3671289 119.8645452  62.7487411  -3.1974018
 117.8680513  65.5661899  -7.0751457 116.9591732  65.2820932  -6.9778987
 117.8975597  65.9860978  -7.9348150 123.0999780  69.1768489  -3.3060290
 122.6462108  68.3359399  -3.2495099 122.4693747  69.8129887  -2.9685509
 122.0432700  60.1060475  -2.0759622 121.3055457  59.5937861  -1.7449380
 122.2959474  59.6660856  -2.8876345 121.5432720  71.0144985  -2.3710471
 121.8355694  71.5750042  -3.0898106 122.0531340  71.3073546  -1.6157312
 108.4368683  63.2867413  -3.0936255 108.2393083  62.6936774  -3.8185188
 107.8815347  62.9819623  -2.3760316 116.4165407  63.1790520  -0.9741662
 116.4714017  62.2264356  -1.0499185 115.6056609  63.3349959  -0.4900363
 114.3557767  61.7967579  -3.2151283 113.5425633  62.0961750  -2.8086091
 114.8516761  61.4023268  -2.4976801 116.5066345  71.7925336  -1.2817018
 116.4642524  72.0186183  -2.2108486 117.4229044  71.5588711  -1.1331217
 119.9531979  62.2609404   5.6163611 120.3081366  62.4880877   6.4758077
 120.6004110  62.5927781   4.9940866 113.8471842  59.3685935   2.4009952
 114.4871221  59.2274694   1.7032915 113.0149372  59.0820448   2.0248554
 125.7099095  67.4504367   1.3324212 126.1435602  67.3579656   2.1807266
 126.4230676  67.4261867   0.6944228 114.6232146  68.6688365  -1.4855056
 115.4172744  68.1738686  -1.6872481 113.9123838  68.1406229  -1.8487350
 119.4426990  71.0506461   2.8657312 119.4964012  71.6197397   3.6335028
 118.5741772  71.2208346   2.5011349 110.9314909  62.8131447  -5.4095303
 110.0012497  62.7515903  -5.1925341 111.0272381  62.2907400  -6.2058662
 110.8500458  59.3386260  -2.8217061 111.1107276  60.2531593  -2.9307901
 111.6717631  58.8710703  -2.6720448 112.3225384  60.7524017   4.3481763
 112.9948437  60.5441379   3.6994412 111.4955170  60.5546103   3.9086996
 126.5714645  67.4928068   3.8657097 126.7650535  68.3973878   4.1116372
 126.4715263  67.0335487   4.6995682 118.2250956  57.3785958   6.3647424
 117.5778871  58.0775908   6.2711901 118.9951971  57.8122102   6.7323672
 121.6329754  67.6434810   9.4397978 121.4815260  67.4145362   8.5228061
 121.6234433  68.6005412   9.4529323 118.4015090  65.2166723   4.4244244
 119.3307150  65.3677883   4.2513211 117.9806120  65.3050744   3.5692890
 117.2003422  69.2417387   2.1942782 117.0614507  68.8736172   3.0668720
 116.4118018  69.7565027   2.0226739 118.7508637  68.6198990  -0.4168381
 118.4158469  68.5799760   0.4789269 118.2512583  67.9543706  -0.8897970
 112.7252881  64.0266620   5.1084201 112.5872679  63.2946859   5.7095740
 113.6357804  63.9375520   4.8268388 115.3535181  63.7386579   4.5967880
 116.0634800  63.0979772   4.5554499 115.3104490  63.9899474   5.5194061
 123.3421960  70.6753933   7.5174459 123.2834506  69.9913153   6.8505042
 123.7441479  71.4172923   7.0655085 114.0664115  60.7251797   6.4163520
 113.5301472  60.2742536   7.0685116 113.4780824  60.8597706   5.6733984
 112.3612659  77.4915847   0.3108178 112.6009257  78.1234371   0.9887197
 111.5181855  77.1403887   0.5973538 123.3439367  68.6393517   5.7488439
 122.4566146  68.3019439   5.8714838 123.9137918  67.9076548   5.9857204
 104.9968515  64.9717608  -0.9268510 105.6839554  64.6579339  -1.5147494
 104.8416643  65.8758973  -1.2001258 109.8003237  59.8607805   3.5016514
 109.7161425  59.2533475   2.7666924 108.9785943  60.3516823   3.5026010
 116.8740521  73.2994969   2.7149682 116.8010692  74.1049941   3.2268987
 116.4317914  73.4986935   1.8897704 116.6630300  72.5366739  -3.7747496
 115.8797822  73.0788419  -3.6809272 117.3623046  73.0540719  -3.3753255
 119.9726951  58.3461369  -1.1313291 120.4695650  57.5931331  -1.4512221
 119.2013932  58.3825685  -1.6970081 127.8256708  64.0501734   0.5105001
 127.8146584  64.9326450   0.1398934 126.9574087  63.6973285   0.3159538
 119.3339204  73.1981803   4.8707841 120.0467177  73.8329268   4.7983742
 118.8429233  73.2945669   4.0547843 121.0556731  67.1033056  -3.5574867
 120.1213010  67.2234518  -3.7270163 121.2333400  66.2005523  -3.8214858
 116.5561919  60.4878752  -1.4041606 116.1859707  59.9349792  -0.7160701
 117.0521012  59.8836885  -1.9566606 124.4429283  62.9450375  -3.0224833
 124.9089735  63.7778367  -3.0964531 124.8936783  62.4795357  -2.3179575
 114.3851118  70.9476247   5.6913412 115.0860577  71.5812730   5.8442806
 113.9146233  71.2890978   4.9309051 122.5105514  69.2894196  -6.0238681
 122.7865358  69.1750791  -5.1144807 121.6410012  68.8911681  -6.0626508
 122.4145945  55.3130962   1.0166068 121.5009025  55.5435189   1.1848275
 122.8439047  55.3969406   1.8680100 122.1852404  63.5020854   3.5165962
 121.5323854  63.7496761   2.8618415 122.5632784  62.6884992   3.1828439
 119.1459578  73.5380547  -2.3805868 119.3281972  72.7202203  -1.9178115
 119.9692564  73.7548239  -2.8180978 118.2339977  64.2440665  10.0031999
 117.5580614  64.1434794  10.6734374 119.0567611  64.0879879  10.4667996
 109.9818836  70.4812602   2.6244514 110.5672273  69.7356290   2.7572419
 109.7843674  70.7916558   3.5081178 112.8357491  73.5163849  -2.3593043
 112.1667866  74.0009977  -2.8429003 112.6970361  73.7633069  -1.4449665
 104.5736491  63.0518202   1.3448958 104.6120590  62.5181793   2.1386076
 104.0676783  62.5253407   0.7259935 116.9762760  75.5507593   4.2389615
 117.5281068  75.7139214   5.0038700 117.3168953  76.1412030   3.5669640
 111.9527253  57.8982742   4.8411500 112.0168579  58.7597573   4.4288898
 111.8894373  57.2856744   4.1083858 111.4279525  59.9705875   8.4884534
 112.0551564  59.5882952   9.1022058 110.5707444  59.7520077   8.8540227
 121.8273634  70.3768850  10.0938270 122.3713538  70.9898808   9.5993224
 121.2460479  70.9348428  10.6105283 108.2045068  61.7782304  -5.5797111
 108.4998509  60.8692982  -5.6330057 107.3033104  61.7570043  -5.9016109
 120.1131147  73.4989568   1.2253297 119.9882286  72.6979308   0.7164243
 120.7710238  73.9935761   0.7367267 111.7339315  59.8538301   0.4030438
 111.0125901  60.4674268   0.2637911 112.5232571  60.3896065   0.3247084
 122.1766055  71.2998588   2.8532847 121.2296391  71.1803939   2.7811174
 122.5248829  70.4121086   2.9359109 114.5365629  57.1892727   6.6771089
 115.0600031  57.4355024   7.4397399 114.3177962  58.0212762   6.2574227
 109.9332910  59.4596402  -5.4557786 109.6045616  58.5793781  -5.6382680
 110.2872281  59.4044070  -4.5681397 119.1812489  71.0951304  -0.9462800
 119.0337451  70.1668012  -0.7655230 120.0065982  71.1171395  -1.4305725
 113.0474733  59.7469371  -5.0882308 113.3870805  60.2755293  -5.8103700
 113.4946853  60.0849778  -4.3123742 122.7846611  71.9179863   0.1402072
 123.7093158  71.7122724   0.0026524 122.6161914  71.6696264   1.0491414
 115.7418174  58.1306422   4.3620760 115.4014994  57.3314235   4.7641440
 115.0357180  58.4308133   3.7897593 116.3934646  55.2155735   2.8148083
 117.2160715  54.7416213   2.6926973 116.6372709  55.9946218   3.3146769
 115.0342880  58.2443993  -6.8889015 115.7551243  58.6225246  -7.3925299
 114.4108184  58.9632870  -6.7854037 113.9173224  61.9074855   0.6240061
 113.7717805  62.2215158   1.5164343 113.4398428  62.5259756   0.0710960
 115.7769607  58.8977403   0.6720951 115.7631176  58.0018497   0.3353249
 116.4942035  58.9048067   1.3059237 117.6295738  59.3314743   2.7174078
 117.3713516  60.2531814   2.7158409 117.0980778  58.9345178   3.4074543
 108.3918887  64.4480200   3.5627723 107.8472355  65.2240008   3.6947997
 109.2698236  64.7951004   3.4046844 115.1806503  57.7791784  -4.0591479
 115.3022414  56.8508430  -3.8600591 114.8908546  57.7930469  -4.9713163
 118.0497694  55.4646694  -0.9224759 118.0719390  55.5286027  -1.8772779
 118.4665753  54.6251203  -0.7284253 109.1784908  63.5750096   6.4557880
 108.4366644  63.7232731   7.0422510 108.8577653  63.8358362   5.5924629
 117.1228571  73.1166074   6.2538270 117.4315698  72.8715221   7.1260969
 117.9204053  73.3212713   5.7657140 117.1449183  75.2703984  -1.5156354
 116.7054173  74.7780362  -0.8223497 117.8957300  74.7276951  -1.7564279
 109.6241522  71.4615525  -1.5131726 110.4499542  71.1619297  -1.8933082
 109.2735574  70.6923147  -1.0641937 114.5923055  70.8141993   0.5565948
 113.9703065  70.1512698   0.2568176 115.2627922  70.8403125  -0.1260404
 107.8250127  69.3801851  -0.5542792 106.9882035  68.9524025  -0.7358791
 107.7973773  69.5734294   0.3827999 114.6647583  59.2923781  10.1498454
 114.7135738  60.1685904   9.7676223 115.2070097  58.7501174   9.5770097
 125.1502428  69.8364904   9.4299591 124.3597972  69.8189043   8.8904090
 124.9135783  70.3753198  10.1848627 125.2700303  66.6857371   6.7432319
 125.3198308  66.5207378   7.6847842 125.1614227  65.8184630   6.3530200
 114.1536562  69.3645916  -5.9675592 114.3024683  70.0481381  -6.6208919
 114.9603006  69.3451006  -5.4526136 122.5604066  62.6688299   8.0591626
 123.4613929  62.5294763   7.7675624 122.6352040  62.8342753   8.9989804
 116.8946871  60.0455153   6.9044812 116.0250181  60.3388719   6.6327401
 117.1306352  60.6295598   7.6252076 126.7718500  69.1054312   6.9874341
 126.4803309  69.4684293   7.8237802 126.1590632  68.3921320   6.8087673
 127.9714183  66.6707192  -0.4923089 128.8061074  67.1096996  -0.3285528
 128.1073311  66.1945845  -1.3114843 125.0205689  64.2286927   5.4554399
 125.4959810  64.4214573   4.6473250 124.0971254  64.2846112   5.2097783
 111.9089195  65.3911094  -4.9614523 111.6635237  64.4873424  -4.7634313
 112.0785110  65.3928244  -5.9035045 119.5985905  56.2634770   4.4210233
 120.1167849  56.9995797   4.0956721 119.2441038  56.5698764   5.2556992
 111.1784843  61.1239451  -7.4628361 110.4854088  61.1983806  -8.1188325
 110.9336595  60.3599795  -6.9406844 119.8498499  52.6835053  -0.0588871
 120.1300253  52.0158242   0.5671556 120.6349106  52.8764148  -0.5714207
 123.7207358  61.1052687   3.6882705 124.6724780  61.2050784   3.7094929
 123.5510808  60.3130955   4.1980789 121.7421737  58.1908270   3.8742105
 121.1471669  58.4713283   3.1788594 121.4571434  58.6802171   4.6458847
 126.1995435  64.3258806   2.8025004 126.1671755  63.3874807   2.9884688
 126.8096059  64.4042843   2.0690829 126.3489924  61.1169850   2.8483287
 125.8328972  60.3328306   2.6613216 127.2329872  60.7888566   3.0129807
 132.0171985  65.3874813   1.9431041 132.7475374  65.1260101   2.5038744
 131.4078931  64.6503535   1.9833109 130.0987282  63.5282676   2.5405492
 129.3720446  63.3938641   1.9321984 129.6834569  63.8359504   3.3462210
 117.9217459  67.2472606  10.3052865 118.8420468  67.4251205  10.4992912
 117.8867042  66.3028651  10.1532564 107.1399624  62.4411199  -0.7693860
 106.8202408  61.5876507  -1.0619486 106.5933052  62.6559777  -0.0135893
 110.9179531  65.1573640   2.9475646 111.1365541  66.0890748   2.9663680
 111.3305305  64.7981615   3.7330450 115.7907397  60.7306846  12.3378395
 115.6904123  61.6801203  12.2690486 115.5728939  60.4025085  11.4654465
 107.0087884  66.0614111   1.1999261 106.3151355  65.6468063   0.6869216
 107.7560875  66.1034647   0.6032680 115.6538667  64.1603985  11.1543457
 115.1705748  64.9604345  11.3607346 115.7399606  64.1711930  10.2010901
 108.9224626  65.9932364  -0.9234724 108.8995314  66.0920052  -1.8752841
 109.2325263  66.8397515  -0.6017558 111.5812004  68.0508519   3.1911891
 112.5355258  68.0192462   3.1241822 111.3824528  67.5899143   4.0062117
 112.1711386  66.6209636   5.7582688 112.9904275  67.1153714   5.7817526
 112.4448194  65.7041604   5.7300256 109.9362233  73.5928139   0.2082089
 109.8016701  72.8328540  -0.3579913 109.5194295  74.3169039  -0.2589123
 121.9019006  64.5274924  -4.6639066 121.8454208  64.9843475  -5.5031434
 122.4547349  63.7665608  -4.8416223 113.0931359  74.4897456   0.4200531
 112.9763743  75.4342888   0.3179222 112.2723805  74.1871018   0.8086330
 107.4246301  60.9547769   6.4574885 108.0705164  60.4446723   6.9462111
 107.2163452  61.6916451   7.0318311 119.9499693  68.0228617  11.9567026
 120.8190852  68.1969269  11.5953661 119.4706444  68.8423034  11.8342755
 114.1185873  75.1425718   3.6356460 115.0213120  75.1749328   3.9522955
 113.8923243  74.2126169   3.6502795 115.8739475  73.8956704   0.2966538
 114.9235106  73.8958566   0.1830911 116.1771961  73.1489439  -0.2197427
 111.7643792  58.1015386  10.5549900 112.6275253  57.7452191  10.7653224
 111.1909202  57.7629281  11.2425304 128.9001658  80.8379523   7.2560031
 128.8890298  80.4432321   6.3840535 129.0622297  80.1045595   7.8493802
 125.6208919  83.6216634   6.2039215 125.3298785  84.5262265   6.0885881
 126.2565903  83.6633162   6.9183284 134.0867284  71.1065504   3.7993096
 133.7550609  71.9760915   3.5754311 133.4912898  70.7901788   4.4787126
 121.3920096  79.4025120   0.0669502 121.5212478  79.6559599   0.9808914
 120.7117548  79.9952828  -0.2525843 128.0536813  77.2450236   8.8221343
 127.2770148  77.8044156   8.8124208 128.6927377  77.7307019   9.3436213
 135.8457594  74.0277029   2.6564320 135.2031974  74.3209562   2.0104114
 135.3412523  73.9129949   3.4617516 126.3083186  80.0535689   8.3839310
 127.0497870  80.5920733   8.1074134 125.6020171  80.6801978   8.5410862
 131.7838525  82.1964830   6.9811472 132.1921881  81.7547240   6.2366104
 131.0615787  81.6217457   7.2345665 128.1369595  77.1337436   4.3545029
 128.9830791  77.5576850   4.4979678 128.0768233  76.4771061   5.0483592
 131.2869041  74.7941805   6.0126202 131.0429973  75.5483865   5.4760478
 131.5628971  75.1727152   6.8473449 130.8433733  73.9498238   1.5940040
 129.9818212  74.2479491   1.8856778 130.8696167  74.1668637   0.6621073
 125.0444550  77.2075337   9.1854620 124.4143210  77.8891618   9.4190017
 124.9380637  77.0958419   8.2407758 120.3389522  76.8747133   0.1120544
 119.5488576  77.1304662  -0.3639345 120.8300769  77.6895471   0.2172585
 128.1209935  83.7636416   5.0186536 128.1854368  84.2256823   5.8544708
 127.4120859  83.1333781   5.1468846 118.6227225  77.1277624   2.5435535
 118.8735263  78.0124634   2.8093111 119.1586773  76.9482225   1.7710627
 124.3225292  71.5096103  11.5479871 123.9292238  70.9562302  12.2227515
 125.1391433  71.8206682  11.9386389 127.2393253  72.9253982   9.1400128
 127.9802967  73.5261135   9.0604590 127.4711176  72.1831620   8.5818170
 122.3834591  78.1110349   7.4178357 122.2688106  77.2095607   7.7185456
 121.5279109  78.3574046   7.0663174 129.4626429  86.0528090   9.0165858
 129.0190283  85.2664468   8.6986763 130.1243643  86.2407240   8.3509749
 128.0180721  83.8475019   7.8870768 128.5509058  83.0863307   7.6570076
 127.4894802  83.5548671   8.6294922 131.1850416  68.9535085   3.4164409
 130.8414686  69.8436727   3.3403520 131.5529379  68.7636743   2.5533994
 130.2646957  71.3239740   1.3813643 129.7611752  71.2869875   0.5681448
 130.5577563  72.2332483   1.4410299 126.5089842  71.4078470   0.3879824
 127.3742839  71.2121279   0.0285714 126.5767351  71.1788822   1.3149181
 124.1152162  73.6380678  -2.2403809 124.6895913  73.4155859  -2.9730616
 124.7023144  73.7069372  -1.4875207 126.4174829  70.5121927  -3.5128739
 125.7639242  70.1970944  -4.1372125 126.3755303  69.8897667  -2.7868916
 130.7925733  77.5901322   5.6163611 131.1475121  77.8172795   6.4758077
 131.4397864  77.9219698   4.9940866 124.6865596  74.6977853   2.4009952
 125.3264976  74.5566612   1.7032915 123.8543127  74.4112366   2.0248554
 123.1619138  76.0815935   4.3481763 123.8342191  75.8733297   3.6994412
 122.3348925  75.8838021   3.9086996 129.0644710  72.7077876   6.3647424
 128.4172625  73.4067825   6.2711901 129.8345725  73.1414020   6.7323672
 132.4723508  82.9726728   9.4397978 132.3209014  82.7437280   8.5228061
 132.4628187  83.9297329   9.4529323 129.2408844  80.5458641   4.4244244
 130.1700904  80.6969800   4.2513211 128.8199874  80.6342661   3.5692890
 123.5646635  79.3558538   5.1084201 123.4266433  78.6238777   5.7095740
 124.4751559  79.2667438   4.8268388 126.1928936  79.0678497   4.5967880
 126.9028554  78.4271689   4.5554499 126.1498244  79.3191392   5.5194061
 124.9057870  76.0543715   6.4163520 124.3695227  75.6034453   7.0685116
 124.3174578  76.1889624   5.6733984 115.8362269  80.3009526  -0.9268510
 116.5233309  79.9871256  -1.5147494 115.6810398  81.2050891  -1.2001258
 120.6396991  75.1899723   3.5016514 120.5555180  74.5825392   2.7666924
 119.8179698  75.6808741   3.5026010 125.2244872  86.2768164   5.6913412
 125.9254332  86.9104647   5.8442806 124.7539987  86.6182896   4.9309051
 133.2539700  70.6422880   1.0166068 132.3402780  70.8727107   1.1848275
 133.6832801  70.7261324   1.8680100 129.0733731  79.5732583  10.0031999
 128.3974368  79.4726712  10.6734374 129.8961365  79.4171797  10.4667996
 120.8212590  85.8104519   2.6244514 121.4066027  85.0648207   2.7572419
 120.6237429  86.1208476   3.5081178 115.4130245  78.3810120   1.3448958
 115.4514345  77.8473710   2.1386076 114.9070538  77.8545325   0.7259935
 122.7921007  73.2274660   4.8411500 122.8562334  74.0889491   4.4288898
 122.7288128  72.6148662   4.1083858 122.2673280  75.2997793   8.4884534
 122.8945319  74.9174870   9.1022058 121.4101199  75.0811995   8.8540227
 132.6667389  85.7060768  10.0938270 133.2107293  86.3190726   9.5993224
 132.0854233  86.2640346  10.6105283 122.5733070  75.1830218   0.4030438
 121.8519655  75.7966186   0.2637911 123.3626326  75.7187983   0.3247084
 125.3759383  72.5184645   6.6771089 125.8993785  72.7646941   7.4397399
 125.1571717  73.3504680   6.2574227 126.5811928  73.4598340   4.3620760
 126.2408749  72.6606153   4.7641440 125.8750935  73.7600051   3.7897593
 127.2328400  70.5447652   2.8148083 128.0554469  70.0708130   2.6926973
 127.4766464  71.3238136   3.3146769 124.7566979  77.2366773   0.6240061
 124.6111560  77.5507076   1.5164343 124.2792183  77.8551673   0.0710960
 126.6163362  74.2269321   0.6720951 126.6024931  73.3310414   0.3353249
 127.3335790  74.2339985   1.3059237 128.4689492  74.6606661   2.7174078
 128.2107270  75.5823732   2.7158409 127.9374533  74.2637096   3.4074543
 119.2312641  79.7772117   3.5627723 118.6866109  80.5531925   3.6947997
 120.1091991  80.1242922   3.4046844 128.8891448  70.7938612  -0.9224759
 128.9113145  70.8577945  -1.8772779 129.3059507  69.9543120  -0.7284253
 120.0178663  78.9042014   6.4557880 119.2760399  79.0524649   7.0422510
 119.6971407  79.1650279   5.5924629 125.5041337  74.6215699  10.1498454
 125.5529493  75.4977821   9.7676223 126.0463851  74.0793092   9.5770097
 135.9896183  85.1656822   9.4299591 135.1991727  85.1480961   8.8904090
 135.7529537  85.7045116  10.1848627 136.1094058  82.0149288   6.7432319
 136.1592063  81.8499296   7.6847842 136.0007981  81.1476547   6.3530200
 133.3997820  77.9980216   8.0591626 134.3007683  77.8586681   7.7675624
 133.4745795  78.1634671   8.9989804 127.7340626  75.3747071   6.9044812
 126.8643935  75.6680637   6.6327401 127.9700106  75.9587516   7.6252076
 130.4379660  71.5926688   4.4210233 130.9561603  72.3287715   4.0956721
 130.0834792  71.8990681   5.2556992 130.6892254  68.0126970  -0.0588871
 130.9694007  67.3450159   0.5671556 131.4742861  68.2056066  -0.5714207
 134.5601112  76.4344604   3.6882705 135.5118535  76.5342702   3.7094929
 134.3904562  75.6422873   4.1980789 132.5815492  73.5200188   3.8742105
 131.9865424  73.8005200   3.1788594 132.2965188  74.0094089   4.6458847
 128.7611213  82.5764523  10.3052865 129.6814223  82.7543122  10.4992912
 128.7260796  81.6320569  10.1532564 117.9793378  77.7703117  -0.7693860
 117.6596163  76.9168425  -1.0619486 117.4326806  77.9851695  -0.0135893
 121.7573286  80.4865558   2.9475646 121.9759296  81.4182666   2.9663680
 122.1699060  80.1273532   3.7330450 126.6301151  76.0598764  12.3378395
 126.5297878  77.0093121  12.2690486 126.4122693  75.7317003  11.4654465
 117.8481638  81.3906028   1.1999261 117.1545110  80.9759981   0.6869216
 118.5954629  81.4326565   0.6032680 126.4932421  79.4895902  11.1543457
 126.0099503  80.2896263  11.3607346 126.5793360  79.5003847  10.2010901
 122.4205759  83.3800437   3.1911891 123.3749012  83.3484380   3.1241822
 122.2218282  82.9191061   4.0062117 123.0105141  81.9501553   5.7582688
 123.8298030  82.4445632   5.7817526 123.2841948  81.0333521   5.7300256
 118.2640055  76.2839687   6.4574885 118.9098919  75.7738641   6.9462111
 118.0557206  77.0208369   7.0318311 130.7893447  83.3520535  11.9567026
 131.6584607  83.5261187  11.5953661 130.3100199  84.1714951  11.8342755
 122.6037546  73.4307304  10.5549900 123.4669008  73.0744109  10.7653224
 122.0302957  73.0921199  11.2425304 135.1619047  86.8388021  11.5479871
 134.7685992  86.2854219  12.2227515 135.9785187  87.1498599  11.9386389
 133.4431300  88.7599222  10.5549900 134.3062762  88.4036027  10.7653224
 132.8696711  88.4213117  11.2425304   1.5340506 111.2174963 105.4148340
   0.7804215 110.6482362 105.2592345   1.6688047 111.1837628 106.3618975
   1.9446921 111.3750573 108.1468585   2.6750310 111.1135862 108.7076288
   1.3353867 110.6379295 108.1870653   1.5367104 125.7193003 107.5649845
   2.1745514 125.5999750 106.8613185   1.4187947 126.6673847 107.6237797
   1.0908373 123.4444457 104.6403053   1.8771462 123.0263880 104.2893470
   1.3547077 124.3490549 104.8084701   1.2618450 128.8817307  99.3391709
   0.6264283 128.9551934 100.0512614   0.9315857 129.4710906  98.6610789
   6.4916800 123.3819690 105.5436031   7.2241972 122.8118907 105.7773861
   5.7356156 122.9941290 105.9842537   4.0142220 117.0941264 110.0030640
   3.6825545 117.9636675 109.7791855   3.4187834 116.7777548 110.6824670
   3.9070884 121.8136350 107.0823990   2.9987761 121.7451759 106.7882751
   3.8558480 122.2908295 107.9105815   5.7732530 120.0152789 108.8601864
   5.1306910 120.3085322 108.2141658   5.2687459 119.9005709 109.6655060
   3.4272694 123.7615962  99.5487723   4.3390550 123.9943349  99.3735420
   2.9182341 124.3453006  98.9862802   1.7113461 128.1840590 113.1849015
   2.1196818 127.7423000 112.4403648   0.9890723 127.6093217 113.4383208
   2.0342276 128.7441780 106.9401304   1.4051139 128.9087494 106.2377372
   1.6467938 129.1583390 107.7112268   5.9131508 129.6796218 104.2945668
   5.2282546 130.0595120 103.7442701   5.9975357 130.2891545 105.0277616
   1.2143977 120.7817565 112.2163746   0.9704909 121.5359625 111.6798022
   1.4903907 121.1602912 113.0510993   3.1682440 127.3256177 110.8941012
   3.3799335 127.9687937 110.2175393   3.1212188 126.4918494 110.4262942
   4.2828268 130.2028133 109.0663369   5.1045711 129.8008320 108.7846051
   4.2790670 130.0996367 110.0179485  12.3734261 126.5466881 105.4148340
  11.6197969 125.9774279 105.2592345  12.5081802 126.5129546 106.3618975
   1.4882603 132.3206650 113.2484803   1.4701078 133.1415531 112.7565072
   2.4102523 132.1960725 113.4734944   1.1125352 114.9410845 109.6201953
   0.7689622 115.8312487 109.5441064   1.4804315 114.7512503 108.7571538
   1.0775635 124.9319456  98.1274388   0.5622258 125.7024061  98.3662776
   0.8052943 124.2584593  98.7507450   6.0509909 127.6851811 100.0627562
   5.2739352 127.3462971  99.6182724   6.7301390 127.6904434  99.3882527
   0.8661938 122.8046549  99.9534170   0.5612074 123.1192698 100.8044313
   1.8192380 122.8827968  99.9961503   4.2901216 127.1585792 106.7194170
   3.6324890 127.8485054 106.8074299   5.0941615 127.5482224 107.0628156
   3.1006675 125.5130165 104.7698112   3.6138557 126.1460157 105.2719821
   3.7507899 124.9131361 104.4041472   3.8668471 130.4936166 102.8977254
   3.4130798 129.6527076 102.9542445   3.2362438 131.1297565 103.2352034
   2.8101391 121.4228153 104.1277922   2.0724147 120.9105539 104.4588164
   3.0628164 120.9828534 103.3161199   2.3101410 132.3312663 103.8327072
   2.6024385 132.8917720 103.1139438   2.8200031 132.6241224 104.5880231
   2.9113018 114.2004405 104.7219691   3.2171895 113.3401768 104.4345606
   3.6365623 114.7922025 104.5218685   0.7200669 123.5777082 111.8201155
   1.0750057 123.8048555 112.6795621   1.3672800 123.9095459 111.1978410
   6.4498406 126.6995518 102.5250484   6.3116305 126.8897114 101.5971673
   6.0934625 127.4614900 102.9818535   6.4767786 128.7672045 107.5361755
   6.9104292 128.6747334 108.3844809   7.1899367 128.7429545 106.8981771
   7.3383335 128.8095745 110.0694641   7.5319225 129.7141556 110.3153916
   7.2383954 128.3503164 110.9033226   2.3998444 128.9602488 115.6435521
   2.2483950 128.7313040 114.7265605   2.3903124 129.9173090 115.6566866
   2.4536519 127.2822702  96.0606223   1.8365690 126.5569530  95.9639276
   1.9853008 128.0432063  95.7173297   4.1090651 131.9921611 113.7212003
   4.0503197 131.3080831 113.0542586   4.5110169 132.7340601 113.2692629
   4.1108058 129.9561195 111.9525983   3.2234837 129.6187116 112.0752382
   4.6806609 129.2244226 112.1894748   8.5925399 125.3669412 106.7142545
   8.5815275 126.2494127 106.3436478   7.7242778 125.0140963 106.5197082
   1.8225422 128.4200734 102.6462676   0.8881701 128.5402196 102.4767381
   2.0002090 127.5173200 102.3822686   5.2097973 124.2618053 103.1812711
   5.6758425 125.0946045 103.1073013   5.6605474 123.7963034 103.8857969
   3.2774204 130.6061874 100.1798863   3.5534048 130.4918469 101.0892737
   2.4078703 130.2079359 100.1411036   3.1814636 116.6298640 107.2203612
   2.2677716 116.8602867 107.3885819   3.6107737 116.7137084 108.0717644
   2.9521094 124.8188532 109.7203506   2.2992545 125.0664439 109.0655959
   3.3301474 124.0052670 109.3865983   0.8799838 134.8157246 107.4290841
   0.7550977 134.0146986 106.9201787   1.5378929 135.3103439 106.9404811
   2.9434746 132.6166266 109.0570391   1.9965081 132.4971617 108.9848718
   3.2917519 131.7288764 109.1396653   3.5515301 133.2347541 106.3439616
   4.4761849 133.0290402 106.2064067   3.3830604 132.9863942 107.2528958
   3.3410617 133.7533208 101.7001708   3.5147495 133.1879631 100.9475560
   3.8339509 134.5534103 101.5181198   9.1950008 126.5169631 103.3192007
   9.6381155 125.7676957 102.9211131   8.3176519 126.5079768 102.9365739
   4.3285790 133.0699973  98.7998606   5.0236694 133.6906665  99.0185921
   4.6708940 132.2195324  99.0750984   6.2277213 130.5199678 100.3285937
   6.7528537 130.8586951  99.6035257   6.1399565 129.5846694 100.1449071
   5.9171119 131.1532582 115.6337135   5.1266663 131.1356721 115.0941634
   5.6804474 131.6920876 116.3886171   6.0368994 128.0025048 112.9469863
   6.0866999 127.8375056 113.8885386   5.9282917 127.1352307 112.5567744
   3.3272756 123.9855976 114.2629170   4.2282619 123.8462441 113.9713168
   3.4020731 124.1510431 115.2027347   7.5387191 130.4221990 113.1911885
   7.2471999 130.7851970 114.0275346   6.9259322 129.7088998 113.0125217
   8.7382873 127.9874870 105.7114455   9.5729765 128.4264674 105.8752015
   8.8742002 127.5113523 104.8922701   5.7874379 125.5454604 111.6591943
   6.2628501 125.7382251 110.8510794   4.8639944 125.6013790 111.4135326
   0.6167190 114.0002731 106.1448673   0.8968944 113.3325920 106.7709100
   1.4017797 114.1931826 105.6323337   4.4876048 122.4220365 109.8920248
   5.4393471 122.5218462 109.9132472   4.3179499 121.6298633 110.4018333
   2.5090428 119.5075948 110.0779649   1.9140360 119.7880960 109.3826138
   2.2240124 119.9969849 110.8496390   1.6397918 133.4598875  98.8382282
   2.5728591 133.3944436  99.0415157   1.5521131 134.2955141  98.3796814
   4.2685935 132.7764745  95.7986229   4.1899566 132.4424609  96.6921987
   5.0895601 133.2686513  95.7977702   6.9664126 125.6426484 109.0062548
   6.9340446 124.7042485 109.1922232   7.5764750 125.7210521 108.2728373
   7.1158614 122.4337528 109.0520831   6.5997663 121.6495984 108.8650760
   7.9998563 122.1056244 109.2167351   4.7769341 116.1778543 105.0116644
   4.5794162 115.8693631 105.8959976   5.3869047 116.9040182 105.1414574
  12.7840676 126.7042491 108.1468585  13.5144064 126.4427779 108.7076288
  12.1747621 125.9671213 108.1870653  10.8655973 124.8450354 108.7443036
  10.1389136 124.7106319 108.1359528  10.4503260 125.1527182 109.5499754
   0.5342988 116.0587450 102.7613175   1.0874027 116.4782904 103.4203198
   0.7713074 115.1323198 102.8036131   3.9121795 118.1687975 102.2691839
   3.3320464 118.8272779 101.8869892   3.6457728 117.3465320 101.8579257
   2.3625361 117.5693033 104.4713160   2.8625140 117.6809568 103.6627479
   3.0060969 117.2654086 105.1113968   2.6946673 120.3288066 101.3248188
   1.8072528 120.6137716 101.1068382   3.1100662 120.1681829 100.4775465
   6.0461209 120.3534587 105.0402527   6.8221599 120.8431039 105.3127144
   5.3209343 120.7792641 105.4974396   8.4833768 121.0662206 106.0976468
   9.0778259 120.8257942 105.3869776   8.5560351 120.3469336 106.7250004
   1.8389886 130.0932740  95.4196208   2.5425737 130.2982743  96.0353863
   1.1152535 130.6609502  95.6845291   2.6687697 125.8442602 101.5398478
   2.6122898 126.3011153 100.7006110   3.2216039 125.0833286 101.3621321
   6.4792503 121.6332333 102.3648597   6.2229437 121.2328969 103.1956805
   5.8545371 122.3476127 102.2398737  10.7904841 124.3728407 104.8719889
  10.2304399 124.4421596 105.6451451  10.1848344 124.1969391 104.1519385
   3.7476584 130.5315270  97.4694668   4.5822188 130.0996468  97.2872143
   3.5860927 130.3597283  98.3971562   3.4022476 127.0347383  98.8351007
   3.3471280 126.8691654  97.8939451   2.7768531 127.7423416  98.9913197
  11.9302127 138.7736375 104.6403053  12.7165217 138.3555798 104.2893470
  12.1940832 139.6782467 104.8084701  17.3310555 138.7111608 105.5436031
  18.0635727 138.1410825 105.7773861  16.5749910 138.3233208 105.9842537
  14.8535975 132.4233182 110.0030640  14.5219300 133.2928593 109.7791855
  14.2581588 132.1069466 110.6824670   8.5892161 136.1628749  97.7360722
   8.7566564 137.0308985  98.1031193   8.3989330 136.3256031  96.8122011
  14.7464638 137.1428268 107.0823990  13.8381516 137.0743676 106.7882751
  14.6952234 137.6200213 107.9105815  16.6126285 135.3444706 108.8601864
  15.9700665 135.6377240 108.2141658  16.1081213 135.2297627 109.6655060
  14.2666448 139.0907880  99.5487723  15.1784304 139.3235266  99.3735420
  13.7576095 139.6744924  98.9862802   8.9038286 138.4505114 110.5582572
   9.7499481 138.8744528 110.7017221   8.8436924 137.7938738 111.2521136
  12.0537731 136.1109483 112.2163746  11.8098663 136.8651543 111.6798022
  12.3297662 136.4894830 113.0510993  11.6102423 135.2665916 107.7977584
  10.7486902 135.5647169 108.0894321  11.6364858 135.4836314 106.8658616
  23.2128015 141.8758799 105.4148340  22.4591724 141.3066197 105.2592345
  23.3475556 141.8421463 106.3618975   8.0061944 134.2421660 115.3437672
   8.7471657 134.8428813 115.2642134   8.2379867 133.4999298 114.7855714
  11.9519107 130.2702763 109.6201953  11.6083376 131.1604405 109.5441064
  12.3198069 130.0804421 108.7571538   9.5016501 135.1061075 103.1859627
   8.6458097 134.7167925 103.0065265   9.9143452 135.1853036 102.3259412
  11.0315647 132.6407418 107.5851187  10.5280443 132.6037553 106.7718992
  11.3246254 133.5500161 107.6447843   7.2758533 132.7246148 106.5917368
   8.1411530 132.5288957 106.2323258   7.3436042 132.4956500 107.5186725
  11.7055693 138.1338466  99.9534170  11.4005828 138.4484615 100.8044313
  12.6586135 138.2119886  99.9961503   4.8820852 134.9548356 103.9633735
   5.4564604 134.7323537 103.2306928   5.4691835 135.0237050 104.7162336
   5.2090439 136.9852817  97.9829620   4.3727751 137.3227503  98.3038895
   5.0695209 136.8501797  97.0456757   7.1843520 131.8289605 102.6908805
   6.5307932 131.5138622 102.0665419   7.1423994 131.2065345 103.4168627
  10.4181260 138.3171538 107.0156452   9.5003822 138.5386485 106.8578140
  10.8341404 138.3917849 106.1568159  13.6495145 136.7520070 104.1277922
  12.9117902 136.2397456 104.4588164  13.9021919 136.3120452 103.3161199
  13.7506772 129.5296322 104.7219691  14.0565649 128.6693686 104.4345606
  14.4759377 130.1213942 104.5218685  11.5594424 138.9068999 111.8201155
  11.9143811 139.1340473 112.6795621  12.2066555 139.2387376 111.1978410
   5.4534287 136.0145531 108.6047496   6.0933666 135.8734290 107.9070459
   4.6211817 135.7280044 108.2286098   9.8313401 134.0245554 112.5684968
   9.1841316 134.7235503 112.4749444  10.6014416 134.4581698 112.9361216
   5.6726560 137.3711393 112.6201063   5.1363918 136.9202131 113.2722660
   5.0843269 137.5057302 111.8771528   5.0828819 136.8300044  95.1827527
   4.2058286 136.7088845  94.8189774   5.5586573 136.0386123  94.9306416
  11.5789396 134.9920964 105.0724253  12.0758095 134.2390926 104.7525323
  10.8076377 135.0285281 104.5067462  19.4319153 140.6961330 106.7142545
  19.4209029 141.5786045 106.3436478  18.5636532 140.3432880 106.5197082
   8.1624364 137.1338347 104.7995938   7.7922152 136.5809387 105.4876843
   8.6583457 136.5296481 104.2470938  16.0491728 139.5909971 103.1812711
  16.5152180 140.4237962 103.1073013  16.4999228 139.1254952 103.8857969
  14.0208390 131.9590558 107.2203612  13.1071470 132.1894784 107.3885819
  14.4501492 132.0429002 108.0717644  13.7914849 140.1480450 109.7203506
  13.1386299 140.3956357 109.0655959  14.1695229 139.3344588 109.3865983
   3.5589698 134.5442338 111.0449044   3.6231024 135.4057169 110.6326441
   3.4956818 133.9316340 110.3121402   6.1428074 133.8352323 112.8808633
   6.6662476 134.0814619 113.6434942   5.9240407 134.6672357 112.4611770
   1.5395355 136.1055997 100.7479758   1.2108061 135.2253376 100.5654864
   1.8934726 136.0503666 101.6356147   4.6537178 136.3928967 101.1155236
   4.9933251 136.9214888 100.3933844   5.1009299 136.7309373 101.8913802
   7.3480619 134.7766018 110.5658304   7.0077439 133.9773831 110.9678984
   6.6419625 135.0767729 109.9935137   7.9997091 131.8615330 109.0185627
   8.8223160 131.3875808 108.8964517   8.2435154 132.6405814 109.5184313
   6.6405325 134.8903589  99.3148528   7.3613688 135.2684841  98.8112245
   6.0170629 135.6092465  99.4183506  10.7836448 135.5948738 100.2506861
  11.0000062 136.4773375  99.9495689  10.3030515 135.2034951  99.5212503
   7.3832052 135.5436999 106.8758495   7.3693621 134.6478092 106.5390793
   8.1004480 135.5507662 107.5096781   9.2358183 135.9774339 108.9211622
   8.9775961 136.8991410 108.9195953   8.7043223 135.5804773 109.6112086
   6.7868948 134.4251379 102.1446065   6.9084859 133.4968025 102.3436953
   6.4970991 134.4390065 101.2324380   9.6560139 132.1106289 105.2812785
   9.6781835 132.1745623 104.3264764  10.0728198 131.2710798 105.4753291
  20.0343763 141.8461549 103.3192007  20.4774909 141.0968874 102.9211131
  19.1570273 141.8371685 102.9365739   6.2710028 135.9383376 116.3535998
   6.3198183 136.8145499 115.9713767   6.8132542 135.3960769 115.7807641
  14.1666511 139.3147894 114.2629170  15.0676374 139.1754359 113.9713168
  14.2414485 139.4802349 115.2027347   8.5009316 136.6914749 113.1082356
   7.6312626 136.9848315 112.8364945   8.7368797 137.2755194 113.8289620
  16.6268134 140.8746522 111.6591943  17.1022255 141.0674168 110.8510794
  15.7033699 140.9305708 111.4135326  11.2048350 132.9094366 110.6247777
  11.7230294 133.6455393 110.2994265  10.8503483 133.2158359 111.4594536
  11.4560944 129.3294648 106.1448673  11.7362698 128.6617837 106.7709100
  12.2411551 129.5223744 105.6323337  15.3269803 137.7512282 109.8920248
  16.2787225 137.8510380 109.9132472  15.1573253 136.9590551 110.4018333
  13.3484182 134.8367865 110.0779649  12.7534114 135.1172878 109.3826138
  13.0633879 135.3261766 110.8496390  17.8057880 140.9718402 109.0062548
  17.7734200 140.0334403 109.1922232  18.4158504 141.0502439 108.2728373
  17.9552369 137.7629445 109.0520831  17.4391418 136.9787902 108.8650760
  18.8392317 137.4348162 109.2167351  15.6163096 131.5070461 105.0116644
  15.4187917 131.1985549 105.8959976  16.2262801 132.2332100 105.1414574
  23.6234430 142.0334409 108.1468585  24.3537819 141.7719697 108.7076288
  23.0141376 141.2963131 108.1870653  21.7049727 140.1742271 108.7443036
  20.9782891 140.0398236 108.1359528  21.2897014 140.4819100 109.5499754
   7.8284128 137.7664431  94.9844637   6.9215584 137.4697544  95.0607351
   8.1060109 137.4694249  94.1178924   9.4446194 132.3101321 101.1388879
   8.6346922 131.9648406 101.5144125  10.1330611 132.0008865 101.7276490
  11.3736742 131.3879368 102.7613175  11.9267781 131.8074821 103.4203198
  11.6106829 130.4615116 102.8036131   6.5982913 134.6251367  95.1256616
   7.4602077 134.9506265  95.3852434   6.7833257 133.8382862  94.6129682
  14.7515549 133.4979893 102.2691839  14.1714219 134.1564697 101.8869892
  14.4851482 132.6757238 101.8579257  13.2019116 132.8984951 104.4713160
  13.7018894 133.0101485 103.6627479  13.8454724 132.5946004 105.1113968
  13.5340428 135.6579983 101.3248188  12.6466283 135.9429634 101.1068382
  13.9494417 135.4973747 100.4775465  16.8854964 135.6826504 105.0402527
  17.6615354 136.1722957 105.3127144  16.1603098 136.1084559 105.4974396
  19.3227522 136.3954124 106.0976468  19.9172013 136.1549860 105.3869776
  19.3954106 135.6761254 106.7250004  17.3186257 136.9624251 102.3648597
  17.0623191 136.5620887 103.1956805  16.6939125 137.6768045 102.2398737
  21.6298595 139.7020324 104.8719889  21.0698153 139.7713514 105.6451451
  21.0242098 139.5261309 104.1519385   7.5512356 131.8647410  98.4136325
   7.5391026 132.8089249  98.5704596   8.4435778 131.6817555  98.1195787
  11.3664475 128.4590186 102.6682262  10.5996871 127.9048673 102.8138945
  11.7775180 128.5312055 103.5296414   1.5340507  88.2237086  92.1393647
   0.7804216  87.6544484  91.9837652   1.6688049  88.1899751  93.0864282
   1.9446922  88.3812696  94.8713891   2.6750311  88.1197984  95.4321595
   1.3353868  87.6441418  94.9115959   1.5367106 102.7255126  94.2895151
   2.1745516 102.6061873  93.5858491   1.4187949 103.6735970  94.3483103
   1.0908374 100.4506579  91.3648359   1.8771463 100.0326003  91.0138776
   1.3547079 101.3552672  91.5330008   1.2618452 105.8879430  86.0637016
   0.6264285 105.9614056  86.7757921   0.9315858 106.4773029  85.3856095
   6.4916801 100.3881813  92.2681338   7.2241973  99.8181029  92.5019167
   5.7356157 100.0003413  92.7087843   4.0142222  94.1003387  96.7275946
   3.6825546  94.9698798  96.5037161   3.4187835  93.7839671  97.4069977
   3.9070885  98.8198473  93.8069296   2.9987762  98.7513881  93.5128057
   3.8558481  99.2970418  94.6351122   5.7732531  97.0214911  95.5847170
   5.1306912  97.3147444  94.9386965   5.2687460  96.9067832  96.3900367
   3.4272695 100.7678085  86.2733030   4.3390551 101.0005471  86.0980727
   2.9182342 101.3515129  85.7108108   1.7113463 105.1902712  99.9094322
   2.1196819 104.7485123  99.1648954   0.9890724 104.6155340 100.1628515
   2.0342277 105.7503903  93.6646611   1.4051140 105.9149617  92.9622679
   1.6467939 106.1645513  94.4357575   5.9131509 106.6858341  91.0190975
   5.2282547 107.0657242  90.4688008   5.9975359 107.2953667  91.7522923
   1.2143978  97.7879687  98.9409053   0.9704910  98.5421748  98.4043328
   1.4903909  98.1665035  99.7756300   3.1682441 104.3318300  97.6186318
   3.3799336 104.9750060  96.9420699   3.1212189 103.4980616  97.1508248
   4.2828269 107.2090255  95.7908676   5.1045713 106.8070443  95.5091357
   4.2790672 107.1058489  96.7424791  12.3734262 103.5529004  92.1393647
  11.6197970 102.9836402  91.9837652  12.5081803 103.5191668  93.0864282
   1.4882604 109.3268772  99.9730110   1.4701080 110.1477654  99.4810379
   2.4102524 109.2022848 100.1980251   1.1125354  91.9472968  96.3447260
   0.7689623  92.8374610  96.2686371   1.4804316  91.7574626  95.4816845
   1.0775636 101.9381579  84.8519695   0.5622260 102.7086184  85.0908082
   0.8052945 101.2646715  85.4752756   6.0509910 104.6913934  86.7872869
   5.2739353 104.3525093  86.3428031   6.7301391 104.6966557  86.1127834
   0.8661939  99.8108671  86.6779476   0.5612075 100.1254820  87.5289619
   1.8192382  99.8890091  86.7206809   4.2901217 104.1647915  93.4439477
   3.6324892 104.8547176  93.5319605   5.0941616 104.5544347  93.7873463
   3.1006676 102.5192288  91.4943418   3.6138558 103.1522279  91.9965128
   3.7507900 101.9193483  91.1286778   3.8668472 107.4998289  89.6222561
   3.4130799 106.6589199  89.6787751   3.2362439 108.1359687  89.9597341
   2.8101392  98.4290275  90.8523228   2.0724149  97.9167661  91.1833471
   3.0628165  97.9890657  90.0406505   2.3101412 109.3374786  90.5572379
   2.6024386 109.8979843  89.8384745   2.8200032 109.6303347  91.3125538
   2.9113019  91.2066527  91.4464998   3.2171896  90.3463891  91.1590913
   3.6365624  91.7984147  91.2463992   0.7200671 100.5839204  98.5446461
   1.0750058 100.8110678  99.4040927   1.3672802 100.9157581  97.9223717
   6.4498407 103.7057640  89.2495790   6.3116306 103.8959236  88.3216980
   6.0934626 104.4677023  89.7063842   6.4767787 105.7734167  94.2607062
   6.9104294 105.6809456  95.1090116   7.1899368 105.7491668  93.6227078
   7.3383337 105.8157868  96.7939947   7.5319227 106.7203678  97.0399222
   7.2383955 105.3565287  97.6278532   2.3998445 105.9664611 102.3680828
   2.2483952 105.7375162 101.4510912   2.3903125 106.9235212 102.3812173
   2.4536520 104.2884825  82.7851529   1.8365691 103.5631653  82.6884582
   1.9853009 105.0494185  82.4418604   4.1090652 108.9983733 100.4457310
   4.0503198 108.3142953  99.7787893   4.5110170 109.7402723  99.9937936
   4.1108059 106.9623317  98.6771290   3.2234838 106.6249239  98.7997688
   4.6806610 106.2306348  98.9140055   8.5925400 102.3731535  93.4387851
   8.5815276 103.2556250  93.0681784   7.7242779 102.0203085  93.2442388
   1.8225423 105.4262856  89.3707983   0.8881702 105.5464319  89.2012687
   2.0002092 104.5235323  89.1067993   5.2097974 101.2680176  89.9058017
   5.6758427 102.1008167  89.8318320   5.6605475 100.8025157  90.6103276
   3.2774206 107.6123997  86.9044169   3.5534049 107.4980591  87.8138043
   2.4078704 107.2141482  86.8656342   3.1814637  93.6360762  93.9448919
   2.2677717  93.8664989  94.1131125   3.6107739  93.7199207  94.7962951
   2.9521096 101.8250654  96.4448813   2.2992546 102.0726562  95.7901265
   3.3301476 101.0114793  96.1111290   2.5942326 108.6998650 103.0221120
   3.1382230 109.3128609 102.5276075   2.0129171 109.2578229 103.5388133
   0.8799839 111.8219368  94.1536148   0.7550978 111.0209108  93.6447093
   1.5378930 112.3165562  93.6650118   2.9434747 109.6228389  95.7815698
   1.9965083 109.5033740  95.7094025   3.2917520 108.7350887  95.8641959
   3.5515302 110.2409664  93.0684923   4.4761850 110.0352525  92.9309374
   3.3830606 109.9926065  93.9774264   3.3410619 110.7595331  88.4247014
   3.5147496 110.1941753  87.6720867   3.8339510 111.5596226  88.2426504
   9.1950010 103.5231754  90.0437314   9.6381156 102.7739079  89.6456437
   8.3176520 103.5141890  89.6611046   4.3285791 110.0762095  85.5243913
   5.0236696 110.6968788  85.7431227   4.6708941 109.2257447  85.7996290
   6.2277214 107.5261801  87.0531243   6.7528538 107.8649074  86.3280563
   6.1399567 106.5908816  86.8694378   5.9171120 108.1594705 102.3582441
   5.1266664 108.1418843 101.8186941   5.6804475 108.6982998 103.1131478
   6.0368995 105.0087171  99.6715170   6.0867000 104.8437178 100.6130693
   5.9282919 104.1414430  99.2813051   3.3272758 100.9918099 100.9874477
   4.2282620 100.8524564 100.6958474   3.4020732 101.1572554 101.9272654
   7.5387192 107.4284112  99.9157191   7.2472000 107.7914093 100.7520652
   6.9259323 106.7151121  99.7370523   8.7382874 104.9936992  92.4359762
   9.5729766 105.4326796  92.5997322   8.8742003 104.5175645  91.6168007
   5.7874380 102.5516727  98.3837249   6.2628502 102.7444373  97.5756101
   4.8639946 102.6075913  98.1380633   0.6167191  91.0064853  92.8693980
   0.8968945  90.3388042  93.4954406   1.4017798  91.1993949  92.3568644
   4.4876049  99.4282487  96.6165555   5.4393472  99.5280585  96.6377779
   4.3179500  98.6360756  97.1263639   2.5090429  96.5138070  96.8024956
   1.9140361  96.7943083  96.1071445   2.2240126  97.0031971  97.5741697
   1.6397919 110.4660997  85.5627588   2.5728592 110.4006559  85.7660464
   1.5521132 111.3017264  85.1042121   4.2685936 109.7826868  82.5231536
   4.1899567 109.4486731  83.4167294   5.0895603 110.2748635  82.5223008
   6.9664127 102.6488607  95.7307855   6.9340447 101.7104608  95.9167538
   7.5764751 102.7272644  94.9973680   7.1158616  99.4399650  95.7766138
   6.5997664  98.6558107  95.5896067   7.9998564  99.1118367  95.9412657
   4.7769343  93.1840666  91.7361950   4.5794164  92.8755754  92.6205282
   5.3869048  93.9102305  91.8659880  12.7840677 103.7104614  94.8713891
  13.5144065 103.4489902  95.4321595  12.1747622 102.9733336  94.9115959
  10.8655974 101.8512476  95.4688343  10.1389138 101.7168441  94.8604834
  10.4503261 102.1589305  96.2745061   0.5342989  93.0649573  89.4858482
   1.0874028  93.4845026  90.1448505   0.7713076  92.1385321  89.5281438
   3.9121796  95.1750098  88.9937146   3.3320465  95.8334902  88.6115199
   3.6457729  94.3527442  88.5824564   2.3625363  94.5755156  91.1958466
   2.8625141  94.6871690  90.3872785   3.0060971  94.2716208  91.8359275
   2.6946674  97.3350188  88.0493494   1.8072529  97.6199839  87.8313689
   3.1100663  97.1743952  87.2020771   6.0461210  97.3596709  91.7647834
   6.8221601  97.8493162  92.0372450   5.3209345  97.7854763  92.2219703
   8.4833769  98.0724328  92.8221774   9.0778260  97.8320064  92.1115082
   8.5560353  97.3531459  93.4495311   1.8389888 107.0994863  82.1441514
   2.5425738 107.3044865  82.7599170   1.1152537 107.6671625  82.4090598
   2.6687698 102.8504724  88.2643785   2.6122899 103.3073276  87.4251417
   3.2216040 102.0895409  88.0866627   6.4792504  98.6394456  89.0893904
   6.2229438  98.2391092  89.9202112   5.8545372  99.3538250  88.9644043
  10.7904842 101.3790529  91.5965195  10.2304400 101.4483719  92.3696757
  10.1848345 101.2031514  90.8764692   3.7476585 107.5377392  84.1939974
   4.5822189 107.1058591  84.0117449   3.5860928 107.3659406  85.1216869
   3.4022477 104.0409505  85.5596314   3.3471281 103.8753777  84.6184758
   2.7768533 104.7485538  85.7158503  12.3760860 118.0547043  94.2895151
  13.0139270 117.9353791  93.5858491  12.2581703 119.0027887  94.3483103
   9.1850567 118.0074471  94.2256676   8.8469078 117.8915536  93.3377211
  10.0540335 117.6065636  94.2057682   5.0437382 119.8609948  90.2153567
   4.4802247 119.7699885  89.4469855   4.9289777 119.0409852  90.6956059
   9.6670350 119.1609323 100.1842881   9.6558990 118.7662121  99.3123385
   9.8290989 118.4275396 100.7776653   2.5901814 121.3561139  93.0537787
   3.3823106 121.0151964  92.6384087   2.8298464 121.4656114  93.9739941
  10.6236941 123.5280915  85.5268032   9.9724921 124.1134996  85.1402045
  11.4181304 124.0587110  85.5863069   4.5492568 120.6170053  85.9255166
   5.3223444 120.0699040  85.7868042   4.9017967 121.4814302  86.1369627
   6.3877611 121.9446435  99.1322065   6.0967477 122.8492066  99.0168732
   7.0234595 121.9862963  99.8466135   7.3133818 119.3223283  95.7223425
   7.9097390 119.0979306  95.0080388   7.3708789 118.5808029  96.3248873
   6.8858846 116.7762719  83.5573616   7.1384367 116.2544240  82.7957079
   5.9483405 116.6128864  83.6600300  11.9302129 115.7798497  91.3648359
  12.7165218 115.3617920  91.0138776  12.1940833 116.6844589  91.5330008
  12.1012206 121.2171347  86.0637016  11.4658039 121.2905974  86.7757921
  11.7709612 121.8064946  85.3856095  17.3310556 115.7173730  92.2681338
  18.0635728 115.1472947  92.5019167  16.5749912 115.3295331  92.7087843
   6.6055135 118.6790825  85.7597991   6.4891393 118.0035728  86.4279075
   6.7157395 118.1923199  84.9430144   8.9486676 118.1400972  89.4644680
   8.5844883 117.6131593  90.1757602   9.8053791 117.7499441  89.2911166
  14.8535976 109.4295304  96.7275946  14.5219301 110.2990715  96.5037161
  14.2581590 109.1131588  97.4069977   8.5892163 113.1690871  84.4606029
   8.7566565 114.0371108  84.8276500   8.3989332 113.3318153  83.5367318
  11.3467496 121.6307850  96.1271859  11.0468219 122.5332889  96.0187666
  11.0018555 121.3640034  96.9793012   4.7979977 118.0821647  92.1608563
   3.8730474 117.9497861  92.3686255   5.0464390 118.8615866  92.6578506
  14.7464640 114.1490391  93.8069296  13.8381517 114.0805799  93.5128057
  14.6952235 114.6262336  94.6351122   8.5681383 115.6248529  85.4452696
   8.4481009 116.0705580  86.2838176   7.8733972 115.9733847  84.8866234
   2.1588788 117.7254921  92.9952353   2.2881169 117.9789400  93.9091764
   1.4786240 118.3182629  92.6757008   6.3288276 128.3952171  89.0942827
   6.2512305 129.3459996  89.1731307   5.7249919 128.0498043  89.7517753
   8.8205505 115.5680036 101.7504194   8.0438839 116.1273956 101.7407058
   9.4596068 116.0536819 102.2719064  16.6126286 112.3506829  95.5847170
  15.9700666 112.6439362  94.9386965  16.1081214 112.2359749  96.3900367
  14.2666450 116.0970002  86.2733030  15.1784306 116.3297389  86.0980727
  13.7576097 116.6807046  85.7108108   7.0751878 118.3765490 101.3122161
   7.8166562 118.9150534 101.0356984   6.3688863 119.0031778 101.4693712
  12.5507217 120.5194630  99.9094322  12.9590573 120.0777041  99.1648954
  11.8284479 119.9447258 100.1628515   8.9038287 115.4567237  97.2827879
   9.7499482 115.8806650  97.4262528   8.8436925 114.8000861  97.9766442
  12.8736032 121.0795821  93.6646611  12.2444894 121.2441535  92.9622679
  12.4861694 121.4937430  94.4357575  16.7525264 122.0150258  91.0190975
  16.0676302 122.3949160  90.4688008  16.8369113 122.6245585  91.7522923
  12.0537733 113.1171605  98.9409053  11.8098665 113.8713666  98.4043328
  12.3297663 113.4956953  99.7756300  14.0076195 119.6610218  97.6186318
  14.2193091 120.3041977  96.9420699  13.9605944 118.8272534  97.1508248
  11.6102424 112.2728038  94.5222890  10.7486903 112.5709292  94.8139628
  11.6364859 112.4898437  93.5903923   8.4263994 120.8170229  90.9296696
   8.8902339 121.0957932  90.1401319   8.1620792 119.9153673  90.7469787
   5.3188075 120.3641710  93.8676459   5.8889432 120.7928979  93.2293944
   5.9096187 120.0824295  94.5660645   7.3632880 116.9393381  87.7386261
   8.0656923 117.3914425  88.2060188   7.0313508 116.2977200  88.3666154
   5.8113241 115.5305138 102.1137471   5.1811902 116.2121419 102.3472867
   5.7049329 115.4188219 101.1690609  15.1222023 122.5382173  95.7908676
  15.9439467 122.1362360  95.5091357  15.1184426 122.4350407  96.7424791
   3.0572959 115.5621513  89.9986872   2.2604122 115.6740207  90.5170367
   2.8298551 115.9008165  89.1327762   8.8878627 122.0866216  97.9469386
   8.9523059 122.5486623  98.7827558   8.1789551 121.4563581  98.0751696
  23.2128016 118.8820921  92.1393647  22.4591725 118.3128319  91.9837652
  23.3475558 118.8483586  93.0864282   8.6026644 123.7534324  87.8148366
   8.4672319 124.5985859  88.2433214   9.1436457 123.9553601  87.0514300
   5.0893984 109.8325904 104.4762722   4.6960930 109.2792102 105.1510366
   5.9060124 110.1436482 104.8669239   2.0556042 121.2709762  88.3876292
   2.5680562 122.0653012  88.5381856   2.7078755 120.5736052  88.3209893
   3.8650927 124.3875518  90.4699045   4.0417555 125.3093483  90.2820029
   4.6607760 124.0733937  90.8993425   8.0061945 111.2483783 102.0682978
   8.7471658 111.8490936 101.9887441   8.2379868 110.5061420 101.5101021
   3.1503283 116.4340150 100.3461208   3.0356798 115.5325407 100.6468307
   2.2947801 116.6803847  99.9946024  10.2295121 124.3757890 101.9448709
   9.7858975 123.5894269 101.6269613  10.8912334 124.5637041 101.2792599
   4.9882242 125.9053692  96.4709387   5.5389667 125.7770755  95.6986381
   4.1493718 126.2048581  96.1204280  12.3276359 124.6560690  99.9730110
  12.3094834 125.4769571  99.4810379  13.2496279 124.5314765 100.1980251
   8.7849413 122.1704820 100.8153618   9.3177750 121.4093108 100.5852926
   8.2563494 121.8778471 101.5577773  11.9519108 107.2764886  96.3447260
  11.6083377 108.1666527  96.2686371  12.3198071 107.0866543  95.4816845
  11.9169391 117.2673497  84.8519695  11.4016014 118.0378101  85.0908082
  11.6446699 116.5938633  85.4752756   9.5016502 112.1123197  89.9104933
   8.6458098 111.7230048  89.7310572   9.9143454 112.1915158  89.0504719
  11.0315648 109.6469541  94.3096493  10.5280444 109.6099676  93.4964298
  11.3246255 110.5562283  94.3693150   7.2758534 109.7308270  93.3162675
   8.1411531 109.5351079  92.9568564   7.3436043 109.5018622  94.2432032
  16.8903665 120.0205851  86.7872869  16.1133108 119.6817011  86.3428031
  17.5695146 120.0258475  86.1127834  11.7055694 115.1400589  86.6779476
  11.4005829 115.4546738  87.5289619  12.6586136 115.2182009  86.7206809
  10.1502126 121.2990812  88.3272430   9.6223487 120.5643572  88.0145668
   9.6489628 122.0765488  88.0812399  15.1294972 119.4939833  93.4439477
  14.4718646 120.1839094  93.5319605  15.9335371 119.8836265  93.7873463
   4.8820853 111.9610478  90.6879042   5.4564605 111.7385660  89.9552235
   5.4691836 112.0299173  91.4407643  13.9400431 117.8484205  91.4943418
  14.4532312 118.4814197  91.9965128  14.5901654 117.2485401  91.1286778
   5.2090440 113.9914939  84.7074927   4.3727753 114.3289626  85.0284202
   5.0695210 113.8563919  83.7702064   7.1843521 108.8351727  89.4154111
   6.5307933 108.5200744  88.7910726   7.1423995 108.2127468  90.1413934
   8.2954726 119.1171022  81.3307403   7.3881788 118.8860276  81.5298552
   8.7925758 118.3208642  81.5181385  11.2022805 127.8268530  84.2504089
  10.5284504 128.1300226  84.8589047  11.5888627 128.6297610  83.9009546
  10.4181261 115.3233661  93.7401759   9.5003823 115.5448608  93.5823447
  10.8341405 115.3979971  92.8813466  11.2016309 116.7225077  88.8704439
  11.9488128 117.2346474  88.5611561  11.4707899 116.4009129  89.7308833
   9.4742959 119.2183617  85.8531393   8.5654179 118.9342650  85.9503863
   9.5038043 119.6382696  84.9934700  14.7062227 122.8290207  89.6222561
  14.2524554 121.9881117  89.6787751  14.0756193 123.4651605  89.9597341
  13.6495146 113.7582193  90.8523228  12.9117903 113.2459579  91.1833471
  13.9021920 113.3182574  90.0406505  13.1495166 124.6666703  90.5572379
  13.4418140 125.2271761  89.8384745  13.6593787 124.9595264  91.3125538
  13.7506774 106.5358445  91.4464998  14.0565650 105.6755808  91.1590913
  14.4759378 107.1276065  91.2463992   8.0227853 116.8312238  91.9541189
   8.0776463 115.8786074  91.8783665   7.2119055 116.9871677  92.4382487
   9.1719047 120.7592361  83.1919472   8.7338477 120.0428220  82.7325109
   9.9129488 120.9868476  82.6304563   5.9620213 115.4489298  89.7131568
   5.1488079 115.7483468  90.1196760   6.4579208 115.0544986  90.4306050
   8.1128791 125.4447055  91.6465832   8.0704970 125.6707901  90.7174364
   9.0291490 125.2110429  91.7951633  11.5594425 115.9131122  98.5446461
  11.9143813 116.1402595  99.4040927  12.2066556 116.2449499  97.9223717
  17.2892162 119.0349558  89.2495790  17.1510061 119.2251154  88.3216980
  16.9328381 119.7968941  89.7063842   5.4534288 113.0207653  95.3292803
   6.0933667 112.8796412  94.6315766   4.6211819 112.7342166  94.9531404
  17.3161542 121.1026085  94.2607062  17.7498048 121.0101374  95.1090116
  18.0293122 121.0783585  93.6227078   6.2294592 122.3210084  91.4427795
   7.0235190 121.8260404  91.2410370   5.5186284 121.7927947  91.0795501
  11.0489436 124.7028179  95.7940163  11.1026459 125.2719115  96.5617878
  10.1804218 124.8730064  95.4294200   2.5377355 116.4653165  87.5187548
   1.6074944 116.4037621  87.7357510   2.6334827 115.9429118  86.7224189
   2.4562905 112.9907978  90.1065789   2.7169722 113.9053311  89.9974950
   3.2780077 112.5232421  90.2562402   3.9287830 114.4045735  97.2764614
   4.6010883 114.1963097  96.6277263   3.1017616 114.2067821  96.8369846
  18.1777091 121.1449786  96.7939947  18.3712981 122.0495596  97.0399222
  18.0777709 120.6857205  97.6278532   9.8313402 111.0307676  99.2930275
   9.1841317 111.7297626  99.1994751  10.6014417 111.4643820  99.6606523
  13.2392200 121.2956528 102.3680828  13.0877706 121.0667080 101.4510912
  13.2296879 122.2527130 102.3812173  10.0077536 118.8688441  97.3527094
  10.9369596 119.0199601  97.1796062   9.5868566 118.9572462  96.4975741
   8.8065868 122.8939106  95.1225632   8.6676954 122.5257890  95.9951570
   8.0180464 123.4086745  94.9509590   9.4014020 127.9948202  86.4651169
   9.5765776 127.5236245  87.2796791   8.7146808 128.6213968  86.6932429
  10.3571083 122.2720708  92.5114470  10.0220916 122.2321478  93.4072120
   9.8575029 121.6065424  92.0384880   4.3315327 117.6788338  98.0367051
   4.1935125 116.9468577  98.6378590   5.2420251 117.5897238  97.7551239
  13.2930275 119.6176743  82.7851529  12.6759445 118.8923571  82.6884582
  12.8246763 120.3786103  82.4418604   6.9597628 117.3908298  97.5250731
   7.6697246 116.7501490  97.4837349   6.9166936 117.6421192  98.4476911
  14.9484406 124.3275651 100.4457310  14.8896953 123.6434871  99.7787893
  15.3503925 125.0694641  99.9937936   5.6726562 114.3773515  99.3446370
   5.1363919 113.9264254  99.9967966   5.0843270 114.5119424  98.6016834
   3.9675105 131.1437565  93.2391029   4.2071703 131.7756089  93.9170047
   3.1244302 130.7925605  93.5256388   5.0828821 113.8362167  81.9072834
   4.2058287 113.7150968  81.5435080   5.5586574 113.0448245  81.6551722
  14.9501814 122.2915235  98.6771290  14.0628592 121.9541157  98.7997688
  15.5200365 121.5598266  98.9140055   1.4065683 113.5129523  96.4299365
   1.3223872 112.9055193  95.6949775   0.5848389 114.0038541  96.4308861
   8.4802967 126.9516687  95.6432533   8.4073139 127.7571659  96.1551837
   8.0380360 127.1508653  94.8180554   8.2692747 126.1888457  89.1535354
   7.4860269 126.7310137  89.2473579   8.9685492 126.7062437  89.5529595
  11.5789397 111.9983087  91.7969560  12.0758096 111.2453049  91.4770630
  10.8076378 112.0347403  91.2312769  19.4319154 117.7023452  93.4387851
  19.4209030 118.5848168  93.0681784  18.5636534 117.3495003  93.2442388
  10.9401651 126.8503521  97.7990691  11.6529623 127.4850986  97.7266593
  10.4491679 126.9467387  96.9830693  12.6619178 120.7554774  89.3707983
  11.7275456 120.8756236  89.2012687  12.8395846 119.8527241  89.1067993
   8.1624366 114.1400470  91.5241244   7.7922153 113.5871510  92.2122150
   8.6583458 113.5358603  90.9716244  16.0491729 116.5972093  89.9058017
  16.5152181 117.4300085  89.8318320  16.4999229 116.1317075  90.6103276
   5.9913564 124.5997965  98.6196262   6.6923024 125.2334448  98.7725656
   5.5208679 124.9412696  97.8591901  14.1167960 122.9415914  86.9044169
  14.3927804 122.8272509  87.8138043  13.2472459 122.5433399  86.8656342
  14.0208392 108.9652680  93.9448919  13.1071471 109.1956907  94.1131125
  14.4501493 109.0491124  94.7962951  13.7914850 117.1542572  96.4448813
  13.1386300 117.4018480  95.7901265  14.1695230 116.3406710  96.1111290
  10.7522024 127.1902265  90.5476983  10.9344419 126.3723921  91.0104735
  11.5755010 127.4069958  90.1101873  11.0864190 126.1170450  87.8092031
  11.6151956 125.6062905  87.1962193  11.3492409 125.8012981  88.6737564
   9.8402423 117.8962383 102.9314850   9.1643060 117.7956513 103.6017225
  10.6630057 117.7401597 103.3950847   1.5881282 124.1334320  95.5527365
   2.1734719 123.3878008  95.6855269   1.3906121 124.4438276  96.4364029
   4.4419937 127.1685567  90.5689807   3.7730313 127.6531695  90.0853847
   4.3032807 127.4154788  91.4833186   8.5825206 129.2029311  97.1672466
   9.1343514 129.3660932  97.9321551   8.9231399 129.7933748  96.4952490
   3.5589699 111.5504460  97.7694350   3.6231026 112.4119291  97.3571748
   3.4956820 110.9378462  97.0366709   3.0341972 113.6227593 101.4167385
   3.6614011 113.2404670 102.0304909   2.1769891 113.4041795 101.7823077
  13.4336080 124.0290568 103.0221120  13.9775984 124.6420526 102.5276075
  12.8522925 124.5870147 103.5388133  11.7193593 127.1511286  94.1536148
  11.5944733 126.3501026  93.6447093  12.3772684 127.6457480  93.6650118
   3.3401762 113.5060019  93.3313288   2.6188347 114.1195986  93.1920761
   4.1295017 114.0417783  93.2529934  13.7828502 124.9520306  95.7815698
  12.8358837 124.8325657  95.7094025  14.1311275 124.0642804  95.8641959
   6.1428075 110.8414445  99.6053940   6.6662477 111.0876742 100.3680249
   5.9240408 111.6734480  99.1857077   1.5395356 113.1118120  87.4725065
   1.2108062 112.2315499  87.2900170   1.8934727 113.0565788  88.3601454
  10.7874935 124.7473022  91.9820050  10.6399897 123.8189730  92.1627620
  11.6128429 124.7693113  91.4977125   4.6537179 113.3991090  87.8400542
   4.9933252 113.9277011  87.1179151   5.1009300 113.7371496  88.6159109
  14.3909057 125.5701581  93.0684923  15.3155604 125.3644443  92.9309374
  14.2224360 125.3217982  93.9774264   7.3480620 111.7828140  97.2903610
   7.0077440 110.9835953  97.6924290   6.6419626 112.0829851  96.7180444
   7.9997092 108.8677453  95.7430933   8.8223161 108.3937931  95.6209824
   8.2435155 109.6467936  96.2429620   6.6405326 111.8965711  86.0393835
   7.3613689 112.2746964  85.5357552   6.0170631 112.6154588  86.1428813
  10.7836449 112.6010860  86.9752167  11.0000064 113.4835498  86.6740996
  10.3030516 112.2097074  86.2457809   5.5235671 115.5596573  93.5522912
   5.3780251 115.8736876  94.4447193   5.0460874 116.1781474  92.9993811
   7.3832054 112.5499121  93.6003802   7.3693622 111.6540215  93.2636099
   8.1004482 112.5569785  94.2342088   9.2358184 112.9836462  95.6456929
   8.9775962 113.9053532  95.6441259   8.7043225 112.5866896  96.3357393
  14.1804373 126.0887249  88.4247014  14.3541251 125.5233671  87.6720867
  14.6733264 126.8888144  88.2426504   6.7868950 111.4313502  88.8691372
   6.9084861 110.5030148  89.0682259   6.4970992 111.4452188  87.9569687
   9.6560140 109.1168412  92.0058091   9.6781837 109.1807745  91.0510071
  10.0728199 108.2772921  92.1998598  20.0343764 118.8523672  90.0437314
  20.4774910 118.1030997  89.6456437  19.1570275 118.8433808  89.6611046
  15.1679546 125.4054013  85.5243913  15.8630450 126.0260706  85.7431227
  15.5102696 124.5549364  85.7996290  17.0670969 122.8553719  87.0531243
  17.5922293 123.1940991  86.3280563  16.9793321 121.9200734  86.8694378
   8.7291017 126.7687792  99.1821120   9.0378144 126.5236939 100.0543820
   9.5266499 126.9734431  98.6939990   8.7511629 128.9225702  91.4126497
   8.3116620 128.4302081  92.1059353   9.5019746 128.3798670  91.1718572
   1.2303968 125.1137243  91.4151125   2.0561988 124.8141015  91.0349768
   0.8798020 124.3444865  91.8640913   6.1985502 124.4663711  93.4848798
   5.5765511 123.8034416  93.1851026   6.8690368 124.4924843  92.8022446
   6.2710029 112.9445499 103.0781304   6.3198185 113.8207622 102.6959074
   6.8132543 112.4022892 102.5052947  16.7564875 123.4886622 102.3582441
  15.9660418 123.4710761 101.8186941  16.5198229 124.0274916 103.1131478
  16.8762750 120.3379089  99.6715170  16.9260755 120.1729096 100.6130693
  16.7676673 119.4706348  99.2813051   5.7599008 123.0167634  86.9607259
   5.9087129 123.7003099  86.3073932   6.5665452 122.9972724  87.4756714
  14.1666512 116.3210017 100.9874477  15.0676375 116.1816481 100.6958474
  14.2414487 116.4864471 101.9272654   8.5009317 113.6976871  99.8327663
   7.6312627 113.9910437  99.5610251   8.7368798 114.2817316 100.5534927
  18.3780947 122.7576030  99.9157191  18.0865755 123.1206011 100.7520652
  17.7653078 122.0443038  99.7370523  19.5776629 120.3228910  92.4359762
  20.4123520 120.7618714  92.5997322  19.7135758 119.8467563  91.6168007
  16.6268135 117.8808645  98.3837249  17.1022256 118.0736291  97.5756101
  15.7033700 117.9367831  98.1380633   3.5151641 119.0432812  87.9668328
   3.2697683 118.1395142  88.1648538   3.6847556 119.0449962  87.0247806
  11.2048351 109.9156488  97.3493083  11.7230295 110.6517515  97.0239572
  10.8503484 110.2220482  98.1839842   2.7847289 114.7761170  85.4654489
   2.0916534 114.8505524  84.8094525   2.5399041 114.0121513  85.9876006
  11.4560945 106.3356771  92.8693980  11.7362699 105.6679960  93.4954406
  12.2411552 106.5285866  92.3568644   9.2594414 125.5115765  84.4319006
   8.6868381 126.1305952  83.9789478   9.8327208 126.0615126  84.9658928
  15.3269804 114.7574405  96.6165555  16.2787227 114.8572503  96.6377779
  15.1573254 113.9652673  97.1263639  13.3484183 111.8429988  96.8024956
  12.7534115 112.1235001  96.1071445  13.0633880 112.3323889  97.5741697
  12.4791674 125.7952915  85.5627588  13.4122347 125.7298477  85.7660464
  12.3914887 126.6309182  85.1042121  15.1079690 125.1118785  82.5231536
  15.0293322 124.7778649  83.4167294  15.9289357 125.6040553  82.5223008
  17.8057882 117.9780525  95.7307855  17.7734202 117.0396525  95.9167538
  18.4158505 118.0564561  94.9973680   9.6441212 116.8476578  81.7735059
  10.5900317 116.7182786  81.8423477   9.2655457 116.1091239  82.2504487
  17.9552370 114.7691568  95.7766138  17.4391419 113.9850025  95.5896067
  18.8392319 114.4410285  95.9412657  15.6163097 108.5132584  91.7361950
  15.4187918 108.2047672  92.6205282  16.2262803 109.2394222  91.8659880
  23.6234431 119.0396531  94.8713891  24.3537820 118.7781819  95.4321595
  23.0141377 118.3025253  94.9115959  21.7049729 117.1804394  95.4688343
  20.9782892 117.0460359  94.8604834  21.2897015 117.4881223  96.2745061
   9.5279905 120.8994324 103.2335716  10.4482914 121.0772923 103.4275762
   9.4929488 119.9550369 103.0815415   7.8284130 114.7726554  81.7089944
   6.9215585 114.4759667  81.7852658   8.1060111 114.4756372  80.8424230
   2.5241978 118.8095358  95.8758497   2.7427987 119.7412466  95.8946531
   2.9367751 118.4503333  96.6613301   9.4446195 109.3163444  87.8634185
   8.6346924 108.9710529  88.2389431  10.1330612 109.0070987  88.4521797
  11.3736744 108.3941490  89.4858482  11.9267782 108.8136944  90.1448505
  11.6106830 107.4677239  89.5281438   7.3969843 114.3828564 105.2661246
   7.2966570 115.3322921 105.1973337   7.1791385 114.0546803 104.3937316
   6.5982914 111.6313489  81.8501923   7.4602078 111.9568387  82.1097740
   6.7833258 110.8444985  81.3374989  14.7515551 110.5042016  88.9937146
  14.1714220 111.1626820  88.6115199  14.4851483 109.6819360  88.5824564
  13.2019117 109.9047073  91.1958466  13.7018895 110.0163608  90.3872785
  13.8454725 109.6008126  91.8359275   7.2601113 117.8125703 104.0826307
   6.7768195 118.6126063 104.2890196   7.3462052 117.8233648 103.1293751
   0.5287073 119.6454083  92.0048127   0.5057761 119.7441770  91.0530010
   0.8387709 120.4919233  92.3265293   3.1874450 121.7030238  96.1194741
   4.1417704 121.6714180  96.0524673   2.9886974 121.2420861  96.9344967
   3.7773833 120.2731354  98.6865539   4.5966722 120.7675432  98.7100376
   4.0510640 119.3563322  98.6583106  13.5340429 112.6642106  88.0493494
  12.6466284 112.9491757  87.8313689  13.9494418 112.5035869  87.2020771
  16.8854965 112.6888627  91.7647834  17.6615355 113.1785079  92.0372450
  16.1603099 113.1146681  92.2219703  19.3227524 113.4016246  92.8221774
  19.9172014 113.1611982  92.1115082  19.3954107 112.6823377  93.4495311
   1.5424679 127.2449857  93.1364939   1.4079147 126.4850258  92.5702937
   1.1256741 127.9690757  92.6693728  12.6783642 122.4286781  82.1441514
  13.3819492 122.6336783  82.7599170  11.9546291 122.9963543  82.4090598
  13.5081453 118.1796642  88.2643785  13.4516654 118.6365193  87.4251417
  14.0609795 117.4187326  88.0866627  17.3186258 113.9686374  89.0893904
  17.0623193 113.5683009  89.9202112  16.6939126 114.6830168  88.9644043
  21.6298596 116.7082447  91.5965195  21.0698154 116.7775636  92.3696757
  21.0242100 116.5323432  90.8764692   4.6993805 128.1419174  93.3483382
   4.5826189 129.0864607  93.2462072   3.8786251 127.8392736  93.7369181
  14.5870340 122.8669310  84.1939974  15.4215944 122.4350508  84.0117449
  14.4254683 122.6951324  85.1216869  14.2416232 119.3701423  85.5596314
  14.1865036 119.2045695  84.6184758  13.6162287 120.0777456  85.7158503
  11.5562139 121.6750335 104.8849876  12.4253299 121.8490987 104.5236511
  11.0768890 122.4944752 104.7625606   7.5512357 108.8709532  85.1381632
   7.5391027 109.8151372  85.2949903   8.4435779 108.6879678  84.8441093
   5.7248319 128.7947436  96.5639310   6.6275566 128.8271046  96.8805805
   5.4985689 127.8647887  96.5785646   7.4801921 127.5478423  93.2249389
   6.5297552 127.5480284  93.1113761   7.7834407 126.8011157  92.7085423
  11.3664477 105.4652309  89.3927569  10.5996873 104.9110795  89.5384251
  11.7775182 105.5374178  90.2541721   3.3706238 111.7537105 103.4832750
   4.2337699 111.3973909 103.6936075   2.7971648 111.4150999 104.1708154
  23.2154615 133.3838961  94.2895151  23.8533025 133.2645708  93.5858491
  23.0975458 134.3319805  94.3483103  20.0244321 133.3366389  94.2256676
  19.6862833 133.2207454  93.3377211  20.8934089 132.9357554  94.2057682
  15.8831137 135.1901865  90.2153567  15.3196002 135.0991802  89.4469855
  15.7683532 134.3701770  90.6956059  20.5064104 134.4901241 100.1842881
  20.4952745 134.0954039  99.3123385  20.6684743 133.7567313 100.7776653
  13.4295569 136.6853057  93.0537787  14.2216861 136.3443882  92.6384087
  13.6692219 136.7948032  93.9739941  21.4630695 138.8572833  85.5268032
  20.8118675 139.4426914  85.1402045  22.2575058 139.3879028  85.5863069
  15.3886323 135.9461970  85.9255166  16.1617199 135.3990957  85.7868042
  15.7411721 136.8106220  86.1369627  17.2271365 137.2738353  99.1322065
  16.9361231 138.1783983  99.0168732  17.8628349 137.3154880  99.8466135
  18.1527572 134.6515201  95.7223425  18.7491144 134.4271223  95.0080388
  18.2102544 133.9099947  96.3248873  17.7252600 132.1054636  83.5573616
  17.9778121 131.5836158  82.7957079  16.7877159 131.9420782  83.6600300
  22.7695883 131.1090415  91.3648359  23.5558972 130.6909838  91.0138776
  23.0334588 132.0136507  91.5330008  22.9405961 136.5463265  86.0637016
  22.3051794 136.6197892  86.7757921  22.6103367 137.1356864  85.3856095
  28.1704310 131.0465648  92.2681338  28.9029482 130.4764865  92.5019167
  27.4143666 130.6587248  92.7087843  17.4448889 134.0082742  85.7597991
  17.3285147 133.3327646  86.4279075  17.5551149 133.5215116  84.9430144
  19.7880430 133.4692889  89.4644680  19.4238637 132.9423510  90.1757602
  20.6447546 133.0791359  89.2911166  25.6929731 124.7587222  96.7275946
  25.3613055 125.6282633  96.5037161  25.0975344 124.4423506  97.4069977
  19.4285917 128.4982789  84.4606029  19.5960319 129.3663026  84.8276500
  19.2383086 128.6610071  83.5367318  22.1861250 136.9599768  96.1271859
  21.8861973 137.8624807  96.0187666  21.8412310 136.6931951  96.9793012
  15.6373732 133.4113565  92.1608563  14.7124228 133.2789779  92.3686255
  15.8858145 134.1907784  92.6578506  25.5858394 129.4782308  93.8069296
  24.6775271 129.4097717  93.5128057  25.5345990 129.9554253  94.6351122
  19.4075138 130.9540447  85.4452696  19.2874763 131.3997497  86.2838176
  18.7127726 131.3025764  84.8866234  12.9982543 133.0546838  92.9952353
  13.1274924 133.3081317  93.9091764  12.3179994 133.6474546  92.6757008
  19.6599260 130.8971954 101.7504194  18.8832594 131.4565874 101.7407058
  20.2989823 131.3828737 102.2719064  27.4520040 127.6798747  95.5847170
  26.8094421 127.9731280  94.9386965  26.9474969 127.5651667  96.3900367
  25.1060204 131.4261920  86.2733030  26.0178060 131.6589307  86.0980727
  24.5969851 132.0098964  85.7108108  17.9145632 133.7057407 101.3122161
  18.6560316 134.2442451 101.0356984  17.2082618 134.3323696 101.4693712
  23.3900972 135.8486548  99.9094322  23.7984328 135.4068958  99.1648954
  22.6678233 135.2739175 100.1628515  19.7432042 130.7859154  97.2827879
  20.5893237 131.2098568  97.4262528  19.6830679 130.1292779  97.9766442
  23.7129786 136.4087738  93.6646611  23.0838649 136.5733452  92.9622679
  23.3255448 136.8229348  94.4357575  27.5919018 137.3442176  91.0190975
  26.9070056 137.7241078  90.4688008  27.6762868 137.9537503  91.7522923
  22.8931487 128.4463523  98.9409053  22.6492419 129.2005583  98.4043328
  23.1691418 128.8248870  99.7756300  24.8469950 134.9902135  97.6186318
  25.0586845 135.6333895  96.9420699  24.7999698 134.1564452  97.1508248
  22.4496179 127.6019956  94.5222890  21.5880658 127.9001209  94.8139628
  22.4758614 127.8190355  93.5903923  19.2657748 136.1462146  90.9296696
  19.7296094 136.4249849  90.1401319  19.0014546 135.2445591  90.7469787
  16.1581829 135.6933628  93.8676459  16.7283186 136.1220896  93.2293944
  16.7489941 135.4116213  94.5660645  18.2026634 132.2685299  87.7386261
  18.9050678 132.7206342  88.2060188  17.8707263 131.6269118  88.3666154
  16.6506996 130.8597055 102.1137471  16.0205656 131.5413336 102.3472867
  16.5443084 130.7480137 101.1690609  11.9451968 130.5268851  93.0403395
  11.1551022 130.7826380  92.5643505  12.4363216 131.3417189  93.1455435
  25.9615778 137.8674091  95.7908676  26.7833222 137.4654278  95.5091357
  25.9578181 137.7642325  96.7424791  13.8966714 130.8913431  89.9986872
  13.0997877 131.0032125  90.5170367  13.6692306 131.2300083  89.1327762
  19.7272381 137.4158134  97.9469386  19.7916814 137.8778541  98.7827558
  19.0183305 136.7855499  98.0751696  10.2289671 130.7799342  95.4718386
  10.4797710 131.6646352  95.7375962  10.7649220 130.6003943  94.6993477
  34.0521771 134.2112839  92.1393647  33.2985479 133.6420237  91.9837652
  34.1869312 134.1775504  93.0864282  19.4420399 139.0826241  87.8148366
  19.3066074 139.9277777  88.2433214  19.9830211 139.2845519  87.0514300
  15.9287739 125.1617821 104.4762722  15.5354684 124.6084020 105.1510366
  16.7453879 125.4728400 104.8669239  12.8949796 136.6001679  88.3876292
  13.4074317 137.3944930  88.5381856  13.5472509 135.9027970  88.3209893
  14.7044681 139.7167436  90.4699045  14.8811309 140.6385400  90.2820029
  15.5001515 139.4025855  90.8993425  18.8455700 126.5775700 102.0682978
  19.5865413 127.1782853 101.9887441  19.0773622 125.8353338 101.5101021
  13.9897038 131.7632068 100.3461208  13.8750553 130.8617325 100.6468307
  13.1341555 132.0095764  99.9946024  21.0688875 139.7049808 101.9448709
  20.6252730 138.9186186 101.6269613  21.7306089 139.8928958 101.2792599
  23.1670113 139.9852608  99.9730110  23.1488589 140.8061489  99.4810379
  24.0890033 139.8606683 100.1980251  19.6243168 137.4996737 100.8153618
  20.1571504 136.7385025 100.5852926  19.0957249 137.2070389 101.5577773
  22.7912863 122.6056803  96.3447260  22.4477132 123.4958445  96.2686371
  23.1591825 122.4158461  95.4816845  10.8598713 134.9290334  89.1635862
  11.6973935 135.3387342  88.9469570  11.0376981 133.9889776  89.1336056
  22.7563145 132.5965414  84.8519695  22.2409769 133.3670019  85.0908082
  22.4840454 131.9230551  85.4752756  20.3410256 127.4415115  89.9104933
  19.4851853 127.0521966  89.7310572  20.7537208 127.5207076  89.0504719
  21.8709403 124.9761458  94.3096493  21.3674198 124.9391594  93.4964298
  22.1640010 125.8854201  94.3693150  18.1152289 125.0600188  93.3162675
  18.9805286 124.8642997  92.9568564  18.1829798 124.8310540  94.2432032
  27.7297419 135.3497769  86.7872869  26.9526862 135.0108929  86.3428031
  28.4088900 135.3550392  86.1127834  22.5449448 130.4692506  86.6779476
  22.2399584 130.7838656  87.5289619  23.4979891 130.5473926  86.7206809
  20.9895880 136.6282730  88.3272430  20.4617242 135.8935489  88.0145668
  20.4883383 137.4057406  88.0812399  25.9688726 134.8231750  93.4439477
  25.3112401 135.5131012  93.5319605  26.7729125 135.2128182  93.7873463
  15.7214608 127.2902396  90.6879042  16.2958360 127.0677578  89.9552235
  16.3085590 127.3591091  91.4407643  24.7794185 133.1776123  91.4943418
  25.2926067 133.8106115  91.9965128  25.4295409 132.5777318  91.1286778
  16.0484195 129.3206857  84.7074927  15.2121507 129.6581544  85.0284202
  15.9088965 129.1855837  83.7702064  18.0237276 124.1643645  89.4154111
  17.3701688 123.8492662  88.7910726  17.9817750 123.5419385  90.1413934
  19.1348480 134.4462940  81.3307403  18.2275542 134.2152194  81.5298552
  19.6319512 133.6500559  81.5181385  21.2575016 130.6525579  93.7401759
  20.3397577 130.8740526  93.5823447  21.6735160 130.7271889  92.8813466
  22.0410064 132.0516994  88.8704439  22.7881883 132.5638391  88.5611561
  22.3101653 131.7301047  89.7308833  20.3136714 134.5475535  85.8531393
  19.4047933 134.2634568  85.9503863  20.3431798 134.9674613  84.9934700
  25.5455981 138.1582124  89.6222561  25.0918308 137.3173034  89.6787751
  24.9149948 138.7943523  89.9597341  24.4888901 129.0874110  90.8523228
  23.7511658 128.5751497  91.1833471  24.7415674 128.6474492  90.0406505
  23.9888921 139.9958621  90.5572379  24.2811895 140.5563678  89.8384745
  24.4987541 140.2887182  91.3125538  24.5900528 121.8650362  91.4464998
  24.8959405 121.0047726  91.1590913  25.3153133 122.4567983  91.2463992
  10.8824884 132.2681049  89.8346596  10.6849284 131.6750410  89.1097662
  10.3271548 131.9633259  90.5522534  18.8621608 132.1604156  91.9541189
  18.9170218 131.2077992  91.8783665  18.0512810 132.3163595  92.4382487
  20.0112802 136.0884279  83.1919472  19.5732232 135.3720138  82.7325109
  20.7523243 136.3160393  82.6304563  16.8013968 130.7781215  89.7131568
  15.9881833 131.0775386  90.1196760  17.2972962 130.3836904  90.4306050
  18.9522546 140.7738972  91.6465832  18.9098725 140.9999819  90.7174364
  19.8685245 140.5402347  91.7951633  22.3988180 131.2423040  98.5446461
  22.7537567 131.4694513  99.4040927  23.0460311 131.5741417  97.9223717
  28.1285916 134.3641476  89.2495790  27.9903815 134.5543072  88.3216980
  27.7722135 135.1260858  89.7063842  16.2928043 128.3499571  95.3292803
  16.9327422 128.2088330  94.6315766  15.4605573 128.0634084  94.9531404
  28.1555296 136.4318003  94.2607062  28.5891803 136.3393292  95.1090116
  28.8686877 136.4075503  93.6227078  17.0688346 137.6502001  91.4427795
  17.8628945 137.1552321  91.2410370  16.3580039 137.1219864  91.0795501
  21.8883191 140.0320097  95.7940163  21.9420213 140.6011033  96.5617878
  21.0197972 140.2021982  95.4294200  13.3771110 131.7945083  87.5187548
  12.4468698 131.7329538  87.7357510  13.4728582 131.2721036  86.7224189
  13.2956659 128.3199896  90.1065789  13.5563476 129.2345229  89.9974950
  14.1173831 127.8524338  90.2562402  14.7681584 129.7337653  97.2764614
  15.4404638 129.5255015  96.6277263  13.9411371 129.5359739  96.8369846
  29.0170846 136.4741703  96.7939947  29.2106736 137.3787514  97.0399222
  28.9171464 136.0149122  97.6278532  20.6707156 126.3599594  99.2930275
  20.0235071 127.0589544  99.1994751  21.4408172 126.7935738  99.6606523
  24.0785954 136.6248446 102.3680828  23.9271461 136.3958998 101.4510912
  24.0690634 137.5819047 102.3812173  20.8471291 134.1980359  97.3527094
  21.7763351 134.3491518  97.1796062  20.4262321 134.2864380  96.4975741
  19.6459622 138.2231023  95.1225632  19.5070708 137.8549808  95.9951570
  18.8574219 138.7378663  94.9509590  21.1964838 137.6012626  92.5114470
  20.8614670 137.5613396  93.4072120  20.6968783 136.9357342  92.0384880
  15.1709082 133.0080256  98.0367051  15.0328880 132.2760495  98.6378590
  16.0814005 132.9189156  97.7551239  24.1324029 134.9468660  82.7851529
  23.5153200 134.2215488  82.6884582  23.6640518 135.7078021  82.4418604
  17.7991382 132.7200215  97.5250731  18.5091001 132.0793407  97.4837349
  17.7560690 132.9713110  98.4476911  25.7878161 139.6567569 100.4457310
  25.7290707 138.9726789  99.7787893  26.1897679 140.3986559  99.9937936
  16.5120316 129.7065433  99.3446370  15.9757673 129.2556172  99.9967966
  15.9237025 129.8411342  98.6016834  15.9222575 129.1654085  81.9072834
  15.0452042 129.0442885  81.5435080  16.3980328 128.3740163  81.6551722
  25.7895568 137.6207153  98.6771290  24.9022347 137.2833074  98.7997688
  26.3594119 136.8890184  98.9140055   7.4424715 133.9531244  92.0014341
   8.1295755 133.6392974  91.4135356   7.2872844 134.8572609  91.7281592
  12.2459437 128.8421441  96.4299365  12.1617626 128.2347110  95.6949775
  11.4242144 129.3330459  96.4308861  19.1086501 141.5180375  89.1535354
  18.3254023 142.0602055  89.2473579  19.8079246 142.0354355  89.5529595
  22.4183151 127.3275004  91.7969560  22.9151851 126.5744967  91.4770630
  21.6470133 127.3639321  91.2312769  30.2712909 133.0315370  93.4387851
  30.2602785 133.9140085  93.0681784  29.4030288 132.6786921  93.2442388
  21.7795405 142.1795439  97.7990691  22.4923377 142.8142904  97.7266593
  21.2885434 142.2759305  96.9830693  23.5012932 136.0846692  89.3707983
  22.5669211 136.2048154  89.2012687  23.6789600 135.1819158  89.1067993
  19.0018120 129.4692387  91.5241244  18.6315908 128.9163428  92.2122150
  19.4977213 128.8650521  90.9716244  26.8885483 131.9264011  89.9058017
  27.3545936 132.7592002  89.8318320  27.3392984 131.4608992  90.6103276
  16.8307319 139.9289882  98.6196262  17.5316778 140.5626365  98.7725656
  16.3602434 140.2704614  97.8591901  24.9561714 138.2707832  86.9044169
  25.2321558 138.1564427  87.8138043  24.0866213 137.8725317  86.8656342
  24.8602146 124.2944598  93.9448919  23.9465226 124.5248825  94.1131125
  25.2895248 124.3783042  94.7962951  24.6308605 132.4834490  96.4448813
  23.9780055 132.7310397  95.7901265  25.0088985 131.6698628  96.1111290
  21.5915779 142.5194183  90.5476983  21.7738173 141.7015839  91.0104735
  22.4148765 142.7361875  90.1101873  21.9257944 141.4462368  87.8092031
  22.4545710 140.9354823  87.1962193  22.1886164 141.1304898  88.6737564
  20.6796178 133.2254301 102.9314850  20.0036815 133.1248430 103.6017225
  21.5023812 133.0693515 103.3950847  12.4275037 139.4626237  95.5527365
  13.0128474 138.7169925  95.6855269  12.2299875 139.7730194  96.4364029
   7.0192691 132.0331838  94.2731808   7.0576791 131.4995428  95.0668926
   6.5132984 131.5067043  93.6542785  14.3983454 126.8796378  97.7694350
  14.4624780 127.7411209  97.3571748  14.3350574 126.2670380  97.0366709
  13.8735726 128.9519511 101.4167385  14.5007765 128.5696588 102.0304909
  13.0163645 128.7333713 101.7823077  24.2729835 139.3582486 103.0221120
  24.8169739 139.9712444 102.5276075  23.6916680 139.9162064 103.5388133
  10.6501269 130.7595940  87.3485739  10.9454710 129.8506618  87.2952793
   9.7489305 130.7383679  87.0266742  22.5587348 142.4803204  94.1536148
  22.4338487 141.6792944  93.6447093  23.2166439 142.9749397  93.6650118
  14.1795516 128.8351936  93.3313288  13.4582102 129.4487904  93.1920761
  14.9688772 129.3709701  93.2529934  24.6222256 140.2812224  95.7815698
  23.6752592 140.1617575  95.7094025  24.9705029 139.3934722  95.8641959
  16.9821830 126.1706363  99.6053940  17.5056231 126.4168659 100.3680249
  16.7634163 127.0026398  99.1857077  12.3789111 128.4410037  87.4725065
  12.0501817 127.5607416  87.2900170  12.7328481 128.3857706  88.3601454
  21.6268689 140.0764940  91.9820050  21.4793652 139.1481648  92.1627620
  22.4522183 140.0985031  91.4977125  15.4930934 128.7283007  87.8400542
  15.8327006 129.2568928  87.1179151  15.9403054 129.0663413  88.6159109
  25.2302811 140.8993499  93.0684923  26.1549359 140.6936360  92.9309374
  25.0618115 140.6509900  93.9774264  18.1874375 127.1120058  97.2903610
  17.8471195 126.3127871  97.6924290  17.4813381 127.4121769  96.7180444
  18.8390846 124.1969370  95.7430933  19.6616916 123.7229849  95.6209824
  19.0828910 124.9759854  96.2429620  17.4799081 127.2257629  86.0393835
  18.2007443 127.6038882  85.5357552  16.8564385 127.9446506  86.1428813
  21.6230204 127.9302778  86.9752167  21.8393818 128.8127416  86.6740996
  21.1424271 127.5388991  86.2457809  16.3629425 130.8888491  93.5522912
  16.2174006 131.2028794  94.4447193  15.8854629 131.5073391  92.9993811
  18.2225808 127.8791039  93.6003802  18.2087377 126.9832132  93.2636099
  18.9398236 127.8861703  94.2342088  20.0751939 128.3128379  95.6456929
  19.8169717 129.2345450  95.6441259  19.5436979 127.9158814  96.3357393
  25.0198128 141.4179166  88.4247014  25.1935005 140.8525589  87.6720867
  25.5127019 142.2180061  88.2426504  10.8375087 133.4293835  96.4910573
  10.2928555 134.2053643  96.6230847  11.7154437 133.7764640  96.3329695
  17.6262704 126.7605419  88.8691372  17.7478615 125.8322065  89.0682259
  17.3364746 126.7744105  87.9569687  20.4953894 124.4460330  92.0058091
  20.5175591 124.5099663  91.0510071  20.9121953 123.6064838  92.1998598
  30.8737519 134.1815589  90.0437314  31.3168665 133.4322914  89.6456437
  29.9964029 134.1725726  89.6611046  26.0073300 140.7345931  85.5243913
  26.7024205 141.3552623  85.7431227  26.3496450 139.8841282  85.7996290
  11.6241109 132.5563732  99.3840730  10.8822845 132.7046367  99.9705360
  11.3033853 132.8171997  98.5207479  27.9064723 138.1845636  87.0531243
  28.4316047 138.5232909  86.3280563  27.8187076 137.2492652  86.8694378
  19.5684772 142.0979710  99.1821120  19.8771898 141.8528857 100.0543820
  20.3660254 142.3026348  98.6939990  17.0379256 139.7955629  93.4848798
  16.4159265 139.1326334  93.1851026  17.7084123 139.8216761  92.8022446
  10.2706328 138.3615487  92.3740058   9.4338236 137.9337661  92.1924059
  10.2429973 138.5547930  93.3110849  17.1103784 128.2737417 103.0781304
  17.1591939 129.1499539 102.6959074  17.6526298 127.7314810 102.5052947
  27.5958629 138.8178540 102.3582441  26.8054173 138.8002679 101.8186941
  27.3591984 139.3566834 103.1131478  27.7156504 135.6671006  99.6715170
  27.7654509 135.5021014 100.6130693  27.6070428 134.7998265  99.2813051
  16.5992763 138.3459552  86.9607259  16.7480883 139.0295016  86.3073932
  17.4059206 138.3264642  87.4756714  25.0060267 131.6501934 100.9874477
  25.9070129 131.5108399 100.6958474  25.0808241 131.8156389 101.9272654
  19.3403072 129.0268789  99.8327663  18.4706381 129.3202355  99.5610251
  19.5762552 129.6109234 100.5534927  29.2174701 138.0867948  99.9157191
  28.9259509 138.4497928 100.7520652  28.6046832 137.3734956  99.7370523
  30.4170383 135.6520828  92.4359762  31.2517275 136.0910632  92.5997322
  30.5529512 135.1759481  91.6168007  27.4661889 133.2100562  98.3837249
  27.9416011 133.4028209  97.5756101  26.5427455 133.2659748  98.1380633
  14.3545396 134.3724730  87.9668328  14.1091438 133.4687060  88.1648538
  14.5241310 134.3741880  87.0247806  22.0442106 125.2448406  97.3493083
  22.5624050 125.9809433  97.0239572  21.6897239 125.5512399  98.1839842
  13.6241043 130.1053087  85.4654489  12.9310288 130.1797442  84.8094525
  13.3792795 129.3413431  85.9876006  22.2954700 121.6648689  92.8693980
  22.5756454 120.9971878  93.4954406  23.0805307 121.8577784  92.3568644
  20.0988168 140.8407682  84.4319006  19.5262136 141.4597870  83.9789478
  20.6720962 141.3907044  84.9658928  26.1663558 130.0866323  96.6165555
  27.1180981 130.1864420  96.6377779  25.9967009 129.2944591  97.1263639
  24.1877938 127.1721906  96.8024956  23.5927870 127.4526918  96.1071445
  23.9027635 127.6615807  97.5741697  23.3185428 141.1244833  85.5627588
  24.2516101 141.0590394  85.7660464  23.2308641 141.9601099  85.1042121
  25.9473445 140.4410703  82.5231536  25.8687076 140.1070566  83.4167294
  26.7683112 140.9332471  82.5223008  28.6451636 133.3072442  95.7307855
  28.6127956 132.3688443  95.9167538  29.2552260 133.3856479  94.9973680
  20.4834967 132.1768495  81.7735059  21.4294072 132.0474703  81.8423477
  20.1049212 131.4383157  82.2504487  28.7946125 130.0983486  95.7766138
  28.2785173 129.3141942  95.5896067  29.6786073 129.7702202  95.9412657
  26.4556852 123.8424501  91.7361950  26.2581673 123.5339589  92.6205282
  27.0656557 124.5686140  91.8659880  34.4628186 134.3688449  94.8713891
  35.1931574 134.1073737  95.4321595  33.8535131 133.6317171  94.9115959
  32.5443483 132.5096312  95.4688343  31.8176647 132.3752277  94.8604834
  32.1290770 132.8173140  96.2745061  20.3673660 136.2286241 103.2335716
  21.2876669 136.4064840 103.4275762  20.3323243 135.2842287 103.0815415
  18.6677884 130.1018472  81.7089944  17.7609340 129.8051584  81.7852658
  18.9453865 129.8048290  80.8424230   9.5855825 131.4224835  92.1588990
   9.2658609 130.5690143  91.8663364   9.0389253 131.6373413  92.9146958
  13.3635732 134.1387276  95.8758497  13.5821742 135.0704384  95.8946531
  13.7761506 133.7795250  96.6613301  20.2839950 124.6455361  87.8634185
  19.4740678 124.3002446  88.2389431  20.9724367 124.3362905  88.4521797
  22.2130498 123.7233408  89.4858482  22.7661537 124.1428862  90.1448505
  22.4500585 122.7969156  89.5281438  18.2363597 129.7120482 105.2661246
  18.1360324 130.6614839 105.1973337  18.0185139 129.3838721 104.3937316
  17.4376669 126.9605407  81.8501923  18.2995833 127.2860305  82.1097740
  17.6227013 126.1736903  81.3374989   9.4544085 135.0427746  94.1282112
   8.7607556 134.6281699  93.6152066  10.2017076 135.0848283  93.5315531
  25.5909305 125.8333933  88.9937146  25.0107974 126.4918737  88.6115199
  25.3245238 125.0111278  88.5824564  24.0412872 125.2338991  91.1958466
  24.5412650 125.3455525  90.3872785  24.6848480 124.9300044  91.8359275
  18.0994867 133.1417621 104.0826307  17.6161949 133.9417981 104.2890196
  18.1855806 133.1525565 103.1293751  11.3680827 134.9746000  92.0048127
  11.3451515 135.0733688  91.0530010  11.6781464 135.8211151  92.3265293
  14.0268205 137.0322155  96.1194741  14.9811458 137.0006098  96.0524673
  13.8280729 136.5712779  96.9344967  14.6167587 135.6023271  98.6865539
  15.4360476 136.0967350  98.7100376  14.8904395 134.6855239  98.6583106
  24.3734183 127.9934024  88.0493494  23.4860038 128.2783674  87.8313689
  24.7888172 127.8327787  87.2020771  27.7248719 128.0180545  91.7647834
  28.5009110 128.5076997  92.0372450  26.9996854 128.4438599  92.2219703
  30.1621278 128.7308164  92.8221774  30.7565769 128.4903900  92.1115082
  30.2347862 128.0115294  93.4495311  23.5177397 137.7578698  82.1441514
  24.2213247 137.9628701  82.7599170  22.7940045 138.3255460  82.4090598
  24.3475207 133.5088560  88.2643785  24.2910408 133.9657111  87.4251417
  24.9003549 132.7479244  88.0866627  28.1580013 129.2978291  89.0893904
  27.9016947 128.8974927  89.9202112  27.5332881 130.0122085  88.9644043
  32.4692351 132.0374365  91.5965195  31.9091909 132.1067554  92.3696757
  31.8635854 131.8615349  90.8764692  25.4264094 138.1961227  84.1939974
  26.2609698 137.7642426  84.0117449  25.2648437 138.0243241  85.1216869
  25.0809986 134.6993341  85.5596314  25.0258790 134.5337612  84.6184758
  24.4556042 135.4069374  85.7158503   9.8702501 129.9361405  99.3857736
  10.5161365 129.4260359  99.8744961   9.6619652 130.6730087  99.9601161
  22.3955893 137.0042253 104.8849876  23.2647053 137.1782905 104.5236511
  21.9162645 137.8236669 104.7625606  18.3906112 124.2001450  85.1381632
  18.3784782 125.1443290  85.2949903  19.2829534 124.0171595  84.8441093
  22.2058231 120.7944226  89.3927569  21.4390627 120.2402713  89.5384251
  22.6168936 120.8666095  90.2541721  14.2099992 127.0829022 103.4832750
  15.0731454 126.7265827 103.6936075  13.6365403 126.7442917 104.1708154
  33.6089638 146.4382332  91.3648359  34.3952727 146.0201756  91.0138776
  33.8728342 147.3428425  91.5330008  39.0098065 146.3757566  92.2681338
  39.7423237 145.8056782  92.5019167  38.2537421 145.9879166  92.7087843
  36.5323485 140.0879140  96.7275946  36.2006810 140.9574551  96.5037161
  35.9369099 139.7715424  97.4069977  30.2679672 143.8274707  84.4606029
  30.4354074 144.6954943  84.8276500  30.0776841 143.9901989  83.5367318
  36.4252149 144.8074226  93.8069296  35.5169026 144.7389634  93.5128057
  36.3739744 145.2846171  94.6351122  38.2913795 143.0090664  95.5847170
  37.6488175 143.3023197  94.9386965  37.7868723 142.8943585  96.3900367
  35.9453959 146.7553838  86.2733030  36.8571815 146.9881224  86.0980727
  35.4363606 147.3390882  85.7108108  30.5825796 146.1151072  97.2827879
  31.4286991 146.5390486  97.4262528  30.5224434 145.4584696  97.9766442
  33.7325242 143.7755440  98.9409053  33.4886173 144.5297501  98.4043328
  34.0085172 144.1540788  99.7756300  33.2889933 142.9311873  94.5222890
  32.4274412 143.2293127  94.8139628  33.3152368 143.1482272  93.5903923
  44.8915525 149.5404757  92.1393647  44.1379234 148.9712155  91.9837652
  45.0263067 149.5067421  93.0864282  26.7681493 140.4909739 104.4762722
  26.3748439 139.9375937 105.1510366  27.5847633 140.8020317 104.8669239
  29.6849454 141.9067618 102.0682978  30.4259167 142.5074771 101.9887441
  29.9167377 141.1645256 101.5101021  33.6306617 137.9348721  96.3447260
  33.2870886 138.8250363  96.2686371  33.9985580 137.7450379  95.4816845
  31.1804011 142.7707033  89.9104933  30.3245607 142.3813883  89.7310572
  31.5930963 142.8498994  89.0504719  32.7103157 140.3053376  94.3096493
  32.2067953 140.2683511  93.4964298  33.0033764 141.2146119  94.3693150
  28.9546043 140.3892106  93.3162675  29.8199040 140.1934914  92.9568564
  29.0223552 140.1602458  94.2432032  33.3843203 145.7984424  86.6779476
  33.0793338 146.1130573  87.5289619  34.3373645 145.8765844  86.7206809
  26.5608362 142.6194314  90.6879042  27.1352114 142.3969495  89.9552235
  27.1479345 142.6883008  91.4407643  26.8877949 144.6498775  84.7074927
  26.0515262 144.9873461  85.0284202  26.7482719 144.5147755  83.7702064
  28.8631030 139.4935563  89.4154111  28.2095442 139.1784580  88.7910726
  28.8211504 138.8711303  90.1413934  32.0968770 145.9817496  93.7401759
  31.1791332 146.2032443  93.5823447  32.5128914 146.0563807  92.8813466
  35.3282655 144.4166028  90.8523228  34.5905412 143.9043414  91.1833471
  35.5809429 143.9766410  90.0406505  35.4294283 137.1942280  91.4464998
  35.7353159 136.3339644  91.1590913  36.1546887 137.7859900  91.2463992
  33.2381934 146.5714957  98.5446461  33.5931322 146.7986431  99.4040927
  33.8854065 146.9033334  97.9223717  27.1321797 143.6791488  95.3292803
  27.7721176 143.5380248  94.6315766  26.2999328 143.3926002  94.9531404
  31.5100911 141.6891512  99.2930275  30.8628826 142.3881461  99.1994751
  32.2801926 142.1227655  99.6606523  27.3514071 145.0357351  99.3446370
  26.8151428 144.5848089  99.9967966  26.7630779 145.1703260  98.6016834
  26.7616330 144.4946002  81.9072834  25.8845796 144.3734803  81.5435080
  27.2374083 143.7032081  81.6551722  33.2576906 142.6566922  91.7969560
  33.7545605 141.9036884  91.4770630  32.4863887 142.6931239  91.2312769
  41.1106663 148.3607288  93.4387851  41.0996539 149.2432003  93.0681784
  40.2424043 148.0078838  93.2442388  29.8411875 144.7984305  91.5241244
  29.4709662 144.2455345  92.2122150  30.3370967 144.1942439  90.9716244
  37.7279238 147.2555929  89.9058017  38.1939690 148.0883920  89.8318320
  38.1786738 146.7900910  90.6103276  35.6995901 139.6236516  93.9448919
  34.7858980 139.8540742  94.1131125  36.1289002 139.7074960  94.7962951
  35.4702359 147.8126407  96.4448813  34.8173809 148.0602315  95.7901265
  35.8482739 146.9990546  96.1111290  25.2377208 142.2088296  97.7694350
  25.3018535 143.0703127  97.3571748  25.1744328 141.5962297  97.0366709
  24.7129481 144.2811428 101.4167385  25.3401520 143.8988506 102.0304909
  23.8557400 144.0625630 101.7823077  27.8215584 141.4998281  99.6053940
  28.3449986 141.7460577 100.3680249  27.6027917 142.3318315  99.1857077
  23.2182865 143.7701955  87.4725065  22.8895571 142.8899334  87.2900170
  23.5722236 143.7149624  88.3601454  26.3324688 144.0574925  87.8400542
  26.6720761 144.5860846  87.1179151  26.7796809 144.3955331  88.6159109
  29.0268129 142.4411976  97.2903610  28.6864949 141.6419789  97.6924290
  28.3207135 142.7413686  96.7180444  29.6784601 139.5261288  95.7430933
  30.5010670 139.0521766  95.6209824  29.9222664 140.3051772  96.2429620
  28.3192835 142.5549547  86.0393835  29.0401198 142.9330799  85.5357552
  27.6958140 143.2738423  86.1428813  32.4623958 143.2594695  86.9752167
  32.6787573 144.1419333  86.6740996  31.9818025 142.8680909  86.2457809
  29.0619563 143.2082957  93.6003802  29.0481131 142.3124050  93.2636099
  29.7791991 143.2153620  94.2342088  30.9145693 143.6420297  95.6456929
  30.6563471 144.5637368  95.6441259  30.3830734 143.2450731  96.3357393
  28.4656458 142.0897337  88.8691372  28.5872370 141.1613983  89.0682259
  28.1758501 142.1036023  87.9569687  31.3347649 139.7752247  92.0058091
  31.3569346 139.8391580  91.0510071  31.7515708 138.9356756  92.1998598
  41.7131273 149.5107507  90.0437314  42.1562419 148.7614832  89.6456437
  40.8357783 149.5017643  89.6611046  27.9497538 143.6029334 103.0781304
  27.9985693 144.4791457 102.6959074  28.4920052 143.0606727 102.5052947
  35.8454021 146.9793852 100.9874477  36.7463884 146.8400317 100.6958474
  35.9201996 147.1448307 101.9272654  30.1796826 144.3560707  99.8327663
  29.3100136 144.6494273  99.5610251  30.4156307 144.9401152 100.5534927
  38.3055644 148.5392480  98.3837249  38.7809765 148.7320126  97.5756101
  37.3821209 148.5951666  98.1380633  32.8835860 140.5740324  97.3493083
  33.4017804 141.3101351  97.0239572  32.5290993 140.8804317  98.1839842
  33.1348454 136.9940606  92.8693980  33.4150208 136.3263795  93.4954406
  33.9199061 137.1869702  92.3568644  37.0057313 145.4158240  96.6165555
  37.9574736 145.5156338  96.6377779  36.8360763 144.6236509  97.1263639
  35.0271692 142.5013823  96.8024956  34.4321624 142.7818836  96.1071445
  34.7421389 142.9907724  97.5741697  39.4845391 148.6364360  95.7307855
  39.4521711 147.6980361  95.9167538  40.0946014 148.7148397  94.9973680
  39.6339879 145.4275403  95.7766138  39.1178928 144.6433860  95.5896067
  40.5179828 145.0994120  95.9412657  37.2950606 139.1716419  91.7361950
  37.0975427 138.8631507  92.6205282  37.9050312 139.8978058  91.8659880
  45.3021940 149.6980367  94.8713891  46.0325329 149.4365655  95.4321595
  44.6928886 148.9609089  94.9115959  43.3837238 147.8388229  95.4688343
  42.6570401 147.7044194  94.8604834  42.9684524 148.1465058  96.2745061
  29.5071639 145.4310389  81.7089944  28.6003094 145.1343502  81.7852658
  29.7847620 145.1340207  80.8424230  31.1233704 139.9747279  87.8634185
  30.3134433 139.6294364  88.2389431  31.8118121 139.6654823  88.4521797
  33.0524253 139.0525326  89.4858482  33.6055291 139.4720779  90.1448505
  33.2894339 138.1261074  89.5281438  29.0757352 145.0412399 105.2661246
  28.9754079 145.9906756 105.1973337  28.8578894 144.7130638 104.3937316
  28.2770423 142.2897324  81.8501923  29.1389587 142.6152223  82.1097740
  28.4620767 141.5028820  81.3374989  36.4303060 141.1625851  88.9937146
  35.8501729 141.8210655  88.6115199  36.1638992 140.3403196  88.5824564
  34.8806626 140.5630909  91.1958466  35.3806404 140.6747443  90.3872785
  35.5242234 140.2591961  91.8359275  35.2127938 143.3225941  88.0493494
  34.3253793 143.6075592  87.8313689  35.6281927 143.1619705  87.2020771
  38.5642474 143.3472462  91.7647834  39.3402864 143.8368915  92.0372450
  37.8390608 143.7730516  92.2219703  41.0015032 144.0600082  92.8221774
  41.5959523 143.8195817  92.1115082  41.0741616 143.3407212  93.4495311
  38.9973767 144.6270209  89.0893904  38.7410702 144.2266845  89.9202112
  38.3726635 145.3414003  88.9644043  43.3086105 147.3666282  91.5965195
  42.7485663 147.4359472  92.3696757  42.7029609 147.1907267  90.8764692
  29.2299866 139.5293367  85.1381632  29.2178536 140.4735207  85.2949903
  30.1223288 139.3463513  84.8441093  33.0451986 136.1236144  89.3927569
  32.2784382 135.5694631  89.5384251  33.4562691 136.1958013  90.2541721
  25.0493747 142.4120940 103.4832750  25.9125208 142.0557745 103.6936075
  24.4759157 142.0734835 104.1708154   1.5340509  65.2299209  78.8638954
   0.7804217  64.6606607  78.7082958   1.6688050  65.1961873  79.8109588
   1.9446924  65.3874819  81.5959198   2.6750312  65.1260107  82.1566901
   1.3353869  64.6503541  81.6361266   1.5367107  79.7317248  81.0140458
   2.1745517  79.6123996  80.3103798   1.4187950  80.6798092  81.0728410
   1.0908375  77.4568702  78.0893666   1.8771465  77.0388125  77.7384083
   1.3547080  78.3614794  78.2575314   1.2618453  82.8941552  72.7882323
   0.6264286  82.9676179  73.5003227   0.9315859  83.4835151  72.1101402
   6.4916803  77.3943935  78.9926644   7.2241975  76.8243152  79.2264474
   5.7356158  77.0065536  79.4333150   4.0142223  71.1065509  83.4521253
   3.6825548  71.9760920  83.2282468   3.4187836  70.7901793  84.1315283
   3.9070886  75.8260596  80.5314603   2.9987764  75.7576004  80.2373364
   3.8558482  76.3032540  81.3596428   5.7732533  74.0277034  82.3092477
   5.1306913  74.3209567  81.6632272   5.2687461  73.9129954  83.1145674
   3.4272696  77.7740207  72.9978336   4.3390552  78.0067594  72.8226034
   2.9182343  78.3577251  72.4353415   1.7113464  82.1964835  86.6339629
   2.1196820  81.7547245  85.8894261   0.9890726  81.6217462  86.8873822
   2.0342279  82.7566026  80.3891918   1.4051141  82.9211740  79.6867986
   1.6467941  83.1707635  81.1602882   5.9131511  83.6920463  77.7436281
   5.2282549  84.0719365  77.1933315   5.9975360  84.3015790  78.4768229
   1.2143979  74.7941810  85.6654359   0.9704911  75.5483871  85.1288635
   1.4903910  75.1727158  86.5001606   3.1682442  81.3380422  84.3431625
   3.3799337  81.9812182  83.6666006   3.1212190  80.5042739  83.8753555
   4.2828270  84.2152378  82.5153982   5.1045714  83.8132565  82.2336664
   4.2790673  84.1120612  83.4670098  12.3734263  80.5591126  78.8638954
  11.6197972  79.9898524  78.7082958  12.5081804  80.5253791  79.8109588
   1.4882606  86.3330895  86.6975416   1.4701081  87.1539776  86.2055686
   2.4102526  86.2084970  86.9225558   1.1125355  68.9535091  83.0692567
   0.7689624  69.8436732  82.9931677   1.4804317  68.7636748  82.2062152
   1.0775638  78.9443702  71.5765002   0.5622261  79.7148306  71.8153389
   0.8052946  78.2708838  72.1998063   6.0509912  81.6976056  73.5118175
   5.2739354  81.3587216  73.0673337   6.7301393  81.7028679  72.8373140
   0.8661941  76.8170794  73.4024783   0.5612076  77.1316943  74.2534926
   1.8192383  76.8952214  73.4452116   4.2901219  81.1710038  80.1684783
   3.6324893  81.8609299  80.2564912   5.0941618  81.5606469  80.5118769
   3.1006677  79.5254410  78.2188725   3.6138559  80.1584402  78.7210435
   3.7507901  78.9255606  77.8532085   3.8668474  84.5060412  76.3467868
   3.4130801  83.6651322  76.4033058   3.2362440  85.1421810  76.6842648
   2.8101393  75.4352398  77.5768535   2.0724150  74.9229784  77.9078778
   3.0628167  74.9952779  76.7651812   2.3101413  86.3436908  77.2817686
   2.6024387  86.9041965  76.5630051   2.8200033  86.6365469  78.0370845
   2.9113020  68.2128650  78.1710304   3.2171897  67.3526013  77.8836219
   3.6365625  68.8046270  77.9709298   0.7200672  77.5901327  85.2691768
   1.0750060  77.8172800  86.1286234   1.3672803  77.9219704  84.6469023
   6.4498409  80.7119763  75.9741097   6.3116307  80.9021359  75.0462286
   6.0934628  81.4739146  76.4309148   6.4767788  82.7796290  80.9852369
   6.9104295  82.6871579  81.8335423   7.1899369  82.7553790  80.3472385
   7.3383338  82.8219991  83.5185254   7.5319228  83.7265801  83.7644529
   7.2383956  82.3627410  84.3523839   2.3998447  82.9726733  89.0926135
   2.2483953  82.7437285  88.1756218   2.3903126  83.9297335  89.1057480
   2.4536522  81.2946947  69.5096836   1.8365692  80.5693776  69.4129889
   1.9853010  82.0556308  69.1663910   4.1090653  86.0045856  87.1702616
   4.0503199  85.3205076  86.5033200   4.5110172  86.7464846  86.7183242
   4.1108060  83.9685440  85.4016596   3.2234839  83.6311362  85.5242995
   4.6806612  83.2368471  85.6385362   8.5925401  79.3793657  80.1633158
   8.5815277  80.2618373  79.7927091   7.7242780  79.0265208  79.9687695
   1.8225424  82.4324979  76.0953290   0.8881703  82.5526441  75.9257994
   2.0002093  81.5297446  75.8313300   5.2097976  78.2742298  76.6303324
   5.6758428  79.1070290  76.5563626   5.6605476  77.8087280  77.3348582
   3.2774207  84.6186119  73.6289476   3.5534051  84.5042714  74.5383350
   2.4078706  84.2203604  73.5901649   3.1814638  70.6422885  80.6694225
   2.2677718  70.8727112  80.8376432   3.6107740  70.7261329  81.5208258
   2.9521097  78.8312777  83.1694119   2.2992547  79.0788685  82.5146572
   3.3301477  78.0176915  82.8356596   2.5942327  85.7060773  89.7466427
   3.1382231  86.3190731  89.2521382   2.0129172  86.2640351  90.2633440
   0.8799840  88.8281491  80.8781454   0.7550980  88.0271231  80.3692400
   1.5378931  89.3227684  80.3895424   2.9434748  86.6290511  82.5061005
   1.9965084  86.5095862  82.4339331   3.2917522  85.7413009  82.5887266
   3.5515304  87.2471786  79.7930230   4.4761851  87.0414647  79.6554681
   3.3830607  86.9988187  80.7019571   3.3410620  87.7657454  75.1492321
   3.5147497  87.2003876  74.3966173   3.8339511  88.5658348  74.9671811
   9.1950011  80.5293877  76.7682621   9.6381157  79.7801202  76.3701744
   8.3176521  80.5204013  76.3856353   4.3285792  87.0824218  72.2489219
   5.0236697  87.7030911  72.4676534   4.6708942  86.2319569  72.5241597
   6.2277215  84.5323924  73.7776550   6.7528540  84.8711196  73.0525870
   6.1399568  83.5970939  73.5939685   5.9171121  85.1656827  89.0827748
   5.1266665  85.1480966  88.5432247   5.6804476  85.7045121  89.8376785
   6.0368997  82.0149294  86.3960477   6.0867001  81.8499301  87.3375999
   5.9282920  81.1476553  86.0058357   3.3272759  77.9980222  87.7119783
   4.2282622  77.8586686  87.4203781   3.4020733  78.1634676  88.6517961
   7.5387193  84.4346235  86.6402498   7.2472002  84.7976216  87.4765959
   6.9259325  83.7213243  86.4615830   8.7382876  81.9999115  79.1605068
   9.5729767  82.4388919  79.3242629   8.8742004  81.5237768  78.3413314
   5.7874382  79.5578850  85.1082556   6.2628503  79.7506496  84.3001407
   4.8639947  79.6138035  84.8625940   0.6167192  68.0126976  79.5939287
   0.8968946  67.3450165  80.2199713   1.4017799  68.2056071  79.0813950
   4.4876051  76.4344610  83.3410862   5.4393474  76.5342707  83.3623086
   4.3179501  75.6422878  83.8508946   2.5090430  73.5200193  83.5270263
   1.9140362  73.8005206  82.8316751   2.2240127  74.0094094  84.2987004
   1.6397921  87.4723120  72.2872895   2.5728594  87.4068681  72.4905771
   1.5521133  88.3079387  71.8287428   4.2685937  86.7888990  69.2476843
   4.1899569  86.4548854  70.1412601   5.0895604  87.2810758  69.2468315
   6.9664128  79.6550729  82.4553161   6.9340449  78.7166730  82.6412845
   7.5764752  79.7334766  81.7218986   7.1158617  76.4461773  82.5011444
   6.5997666  75.6620230  82.3141373   7.9998565  76.1180489  82.6657964
   4.7769344  70.1902788  78.4607257   4.5794165  69.8817877  79.3450589
   5.3869049  70.9164427  78.5905187  12.7840678  80.7166736  81.5959198
  13.5144067  80.4552024  82.1566901  12.1747624  79.9795458  81.6361266
  10.8655975  78.8574599  82.1933649  10.1389139  78.7230564  81.5850141
  10.4503262  79.1651427  82.9990367   0.5342990  70.0711695  76.2103788
   1.0874029  70.4907149  76.8693812   0.7713077  69.1447443  76.2526744
   3.9121798  72.1812220  75.7182453   3.3320467  72.8397025  75.3360505
   3.6457730  71.3589565  75.3069870   2.3625364  71.5817278  77.9203773
   2.8625142  71.6933813  77.1118092   3.0060972  71.2778331  78.5604582
   2.6946676  74.3412311  74.7738801   1.8072531  74.6261961  74.5558996
   3.1100665  74.1806074  73.9266078   6.0461212  74.3658832  78.4893140
   6.8221602  74.8555284  78.7617757   5.3209346  74.7916886  78.9465010
   8.4833770  75.0786451  79.5467081   9.0778261  74.8382187  78.8360389
   8.5560354  74.3593582  80.1740617   1.8389889  84.1056986  68.8686821
   2.5425739  84.3106988  69.4844477   1.1152538  84.6733747  69.1335905
   2.6687699  79.8566847  74.9889091   2.6122901  80.3135398  74.1496724
   3.2216042  79.0957531  74.8111934   6.4792505  75.6456579  75.8139211
   6.2229439  75.2453214  76.6447418   5.8545373  76.3600373  75.6889350
  10.7904843  78.3852652  78.3210502  10.2304401  78.4545841  79.0942064
  10.1848346  78.2093637  77.6009998   3.7476586  84.5439515  70.9185281
   4.5822190  84.1120713  70.7362756   3.5860929  84.3721528  71.8462176
   3.4022479  81.0471628  72.2841620   3.3471282  80.8815899  71.3430064
   2.7768534  81.7547661  72.4403810  12.3760861  95.0609166  81.0140458
  13.0139271  94.9415913  80.3103798  12.2581704  96.0090010  81.0728410
   9.1850568  95.0136594  80.9501982   8.8469079  94.8977659  80.0622517
  10.0540336  94.6127759  80.9302989   5.0437383  96.8672070  76.9398873
   4.4802249  96.7762007  76.1715161   4.9289779  96.0471975  77.4201366
   9.6670351  96.1671446  86.9088188   9.6558992  95.7724244  86.0368692
   9.8290990  95.4337518  87.5021959   2.5901815  98.3623262  79.7783094
   3.3823107  98.0214087  79.3629393   2.8298466  98.4718237  80.6985247
  10.6236942 100.5343038  72.2513338   9.9724922 101.1197118  71.8647352
  11.4181305 101.0649233  72.3108376   4.5492569  97.6232175  72.6500473
   5.3223445  97.0761162  72.5113348   4.9017968  98.4876425  72.8614934
   6.3877612  98.9508557  85.8567372   6.0967478  99.8554188  85.7414038
   7.0234596  98.9925085  86.5711442   7.3133819  96.3285406  82.4468732
   7.9097391  96.1041428  81.7325695   7.3708790  95.5870151  83.0494179
   6.8858847  93.7824841  70.2818923   7.1384368  93.2606363  69.5202386
   5.9483406  93.6190987  70.3845606  11.9302130  92.7860620  78.0893666
  12.7165219  92.3680043  77.7384083  12.1940834  93.6906712  78.2575314
  12.1012207  98.2233470  72.7882323  11.4658040  98.2968097  73.5003227
  11.7709614  98.8127069  72.1101402  17.3310557  92.7235853  78.9926644
  18.0635729  92.1535070  79.2264474  16.5749913  92.3357453  79.4333150
   6.6055136  95.6852947  72.4843298   6.4891394  95.0097851  73.1524382
   6.7157396  95.1985321  71.6675451   8.9486677  95.1463094  76.1889987
   8.5844884  94.6193715  76.9002908   9.8053793  94.7561563  76.0156472
  14.8535977  86.4357427  83.4521253  14.5219302  87.3052838  83.2282468
  14.2581591  86.1193711  84.1315283   8.5892164  90.1752994  71.1851335
   8.7566566  91.0433231  71.5521806   8.3989333  90.3380276  70.2612625
  11.3467497  98.6369973  82.8517166  11.0468220  99.5395012  82.7432973
  11.0018557  98.3702156  83.7038319   4.7979978  95.0883770  78.8853870
   3.8730475  94.9559984  79.0931562   5.0464392  95.8677989  79.3823813
  14.7464641  91.1552513  80.5314603  13.8381518  91.0867922  80.2373364
  14.6952237  91.6324458  81.3596428   8.5681385  92.6310652  72.1698002
   8.4481010  93.0767702  73.0083482   7.8733973  92.9795969  71.6111540
   2.1588790  94.7317043  79.7197659   2.2881171  94.9851522  80.6337071
   1.4786241  95.3244751  79.4002314   6.3288277 105.4014293  75.8188133
   6.2512306 106.3522118  75.8976614   5.7249920 105.0560166  76.4763060
   8.8205507  92.5742159  88.4749500   8.0438841  93.1336079  88.4652365
   9.4596070  93.0598942  88.9964370  16.6126287  89.3568952  82.3092477
  15.9700667  89.6501485  81.6632272  16.1081216  89.2421872  83.1145674
  14.2666451  93.1032125  72.9978336  15.1784307  93.3359512  72.8226034
  13.7576098  93.6869169  72.4353415   7.0751879  95.3827612  88.0367467
   7.8166563  95.9212656  87.7602291   6.3688864  96.0093901  88.1939019
  12.5507219  97.5256753  86.6339629  12.9590575  97.0839163  85.8894261
  11.8284480  96.9509380  86.8873822   8.9038289  92.4629359  84.0073186
   9.7499484  92.8868773  84.1507835   8.8436926  91.8062984  84.7011749
  12.8736033  98.0857943  80.3891918  12.2444896  98.2503657  79.6867986
  12.4861695  98.4999553  81.1602882  16.7525265  99.0212381  77.7436281
  16.0676303  99.4011282  77.1933315  16.8369114  99.6307708  78.4768229
  12.0537734  90.1233728  85.6654359  11.8098666  90.8775788  85.1288635
  12.3297664  90.5019075  86.5001606  14.0076197  96.6672340  84.3431625
  14.2193092  97.3104100  83.6666006  13.9605945  95.8334657  83.8753555
  11.6102426  89.2790161  81.2468197  10.7486905  89.5771414  81.5384935
  11.6364860  89.4960560  80.3149230   8.4263995  97.8232351  77.6542003
   8.8902341  98.1020054  76.8646625   8.1620793  96.9215796  77.4715093
   5.3188076  97.3703833  80.5921766   5.8889433  97.7991101  79.9539251
   5.9096188  97.0886418  81.2905952   7.3632881  93.9455504  74.4631568
   8.0656924  94.3976547  74.9305494   7.0313510  93.3039323  75.0911461
   5.8113243  92.5367260  88.8382777   5.1811903  93.2183541  89.0718174
   5.7049330  92.4250342  87.8935916  15.1222025  99.5444296  82.5153982
  15.9439468  99.1424483  82.2336664  15.1184427  99.4412530  83.4670098
   3.0572960  92.5683636  76.7232178   2.2604124  92.6802330  77.2415674
   2.8298553  92.9070288  75.8573069   8.8878628  99.0928339  84.6714693
   8.9523061  99.5548746  85.5072865   8.1789552  98.4625704  84.7997003
  23.2128018  95.8883044  78.8638954  22.4591726  95.3190442  78.7082958
  23.3475559  95.8545709  79.8109588   8.6026646 100.7596446  74.5393673
   8.4672320 101.6047982  74.9678521   9.1436458 100.9615724  73.7759607
   5.0893985  86.8388026  91.2008028   4.6960931  86.2854225  91.8755673
   5.9060126  87.1498605  91.5914546   2.0556043  98.2771884  75.1121598
   2.5680564  99.0715135  75.2627163   2.7078756  97.5798175  75.0455200
   3.8650928 101.3937641  77.1944351   4.0417556 102.3155605  77.0065335
   4.6607761 101.0796060  77.6238731   8.0061946  88.2545905  88.7928285
   8.7471660  88.8553058  88.7132747   8.2379869  87.5123543  88.2346327
   3.1503284  93.4402273  87.0706515   3.0356799  92.5387530  87.3713613
   2.2947802  93.6865969  86.7191331  10.2295122 101.3820013  88.6694015
   9.7858976 100.5956391  88.3514920  10.8912336 101.5699163  88.0037906
   4.9882243 102.9115814  83.1954694   5.5389668 102.7832878  82.4231688
   4.1493719 103.2110703  82.8449586  12.3276360 101.6622813  86.6975416
  12.3094836 102.4831694  86.2055686  13.2496280 101.5376888  86.9225558
   8.7849414  99.1766942  87.5398925   9.3177751  98.4155230  87.3098233
   8.2563495  98.8840594  88.2823079  11.9519109  84.2827008  83.0692567
  11.6083379  85.1728650  82.9931677  12.3198072  84.0928666  82.2062152
  11.9169392  94.2735619  71.5765002  11.4016015  95.0440224  71.8153389
  11.6446700  93.6000755  72.1998063   9.5016503  89.1185320  76.6350240
   8.6458099  88.7292170  76.4555879   9.9143455  89.1977281  75.7750026
  11.0315650  86.6531663  81.0341800  10.5280445  86.6161799  80.2209605
  11.3246257  87.5624406  81.0938456   7.2758536  86.7370393  80.0407982
   8.1411532  86.5413202  79.6813871   7.3436044  86.5080745  80.9677338
  16.8903666  97.0267974  73.5118175  16.1133109  96.6879133  73.0673337
  17.5695147  97.0320597  72.8373140  11.7055695  92.1462711  73.4024783
  11.4005831  92.4608861  74.2534926  12.6586137  92.2244131  73.4452116
  10.1502127  98.3052935  75.0517737   9.6223489  97.5705694  74.7390974
   9.6489630  99.0827611  74.8057705  15.1294973  96.5001955  80.1684783
  14.4718647  97.1901217  80.2564912  15.9335372  96.8898387  80.5118769
   4.8820855  88.9672601  77.4124348   5.4564607  88.7447782  76.6797541
   5.4691837  89.0361295  78.1652950  13.9400432  94.8546328  78.2188725
  14.4532314  95.4876320  78.7210435  14.5901656  94.2547523  77.8532085
   5.2090442  90.9977062  71.4320234   4.3727754  91.3351749  71.7529508
   5.0695211  90.8626042  70.4947371   7.1843522  85.8413850  76.1399418
   6.5307935  85.5262867  75.5156033   7.1423996  85.2189590  76.8659241
   8.2954727  96.1233145  68.0552710   7.3881789  95.8922398  68.2543859
   8.7925759  95.3270764  68.2426691  11.2022806 104.8330652  70.9749396
  10.5284505 105.1362349  71.5834354  11.5888628 105.6359733  70.6254853
  10.4181263  92.3295783  80.4647065   9.5003824  92.5510730  80.3068753
  10.8341406  92.4042094  79.6058773  11.2016310  93.7287199  75.5949746
  11.9488129  94.2408596  75.2856868  11.4707900  93.4071252  76.4554139
   9.4742961  96.2245740  72.5776700   8.5654180  95.9404773  72.6749170
   9.5038044  96.6444818  71.7180007  14.7062228  99.8352329  76.3467868
  14.2524555  98.9943239  76.4033058  14.0756195 100.4713728  76.6842648
  13.6495148  90.7644315  77.5768535  12.9117904  90.2521702  77.9078778
  13.9021921  90.3244697  76.7651812  13.1495167 101.6728826  77.2817686
  13.4418142 102.2333883  76.5630051  13.6593788 101.9657387  78.0370845
  13.7506775  83.5420567  78.1710304  14.0565652  82.6817931  77.8836219
  14.4759380  84.1338188  77.9709298   8.0227855  93.8374360  78.6786495
   8.0776464  92.8848197  78.6028972   7.2119057  93.9933800  79.1627794
   9.1719048  97.7654484  69.9164779   8.7338478  97.0490342  69.4570416
   9.9129489  97.9930598  69.3549870   5.9620215  92.4551420  76.4376874
   5.1488080  92.7545591  76.8442066   6.4579209  92.0607109  77.1551356
   8.1128792 102.4509177  78.3711139   8.0704971 102.6770023  77.4419671
   9.0291491 102.2172552  78.5196940  11.5594426  92.9193245  85.2691768
  11.9143814  93.1464718  86.1286234  12.2066557  93.2511621  84.6469023
  17.2892163  96.0411681  75.9741097  17.1510062  96.2313277  75.0462286
  16.9328382  96.8031063  76.4309148   5.4534289  90.0269776  82.0538109
   6.0933669  89.8858535  81.3561072   4.6211820  89.7404289  81.6776711
  17.3161543  98.1088208  80.9852369  17.7498049  98.0163497  81.8335423
  18.0293124  98.0845708  80.3472385   6.2294593  99.3272206  78.1673102
   7.0235192  98.8322526  77.9655677   5.5186286  98.7990069  77.8040807
  11.0489438 101.7090302  82.5185469  11.1026460 102.2781238  83.2863185
  10.1804219 101.8792187  82.1539506   2.5377357  93.4715288  74.2432854
   1.6074945  93.4099743  74.4602816   2.6334829  92.9491241  73.4469496
   2.4562906  89.9970101  76.8311096   2.7169723  90.9115434  76.7220256
   3.2780078  89.5294543  76.9807709   3.9287831  91.4107858  84.0009920
   4.6010885  91.2025220  83.3522569   3.1017618  91.2129944  83.5615153
  18.1777092  98.1511908  83.5185254  18.3712982  99.0557719  83.7644529
  18.0777711  97.6919327  84.3523839   9.8313403  88.0369799  86.0175581
   9.1841318  88.7359748  85.9240058  10.6014419  88.4705943  86.3851830
  13.2392201  98.3018651  89.0926135  13.0877707  98.0729203  88.1756218
  13.2296881  99.2589252  89.1057480  10.0077537  95.8750564  84.0772401
  10.9369597  96.0261723  83.9041368   9.5868567  95.9634584  83.2221048
   8.8065869  99.9001228  81.8470939   8.6676955  99.5320013  82.7196877
   8.0180465 100.4148868  81.6754896   9.4014021 105.0010325  73.1896475
   9.5765777 104.5298368  74.0042098   8.7146809 105.6276091  73.4177736
  10.3571084  99.2782831  79.2359776  10.0220917  99.2383601  80.1317426
   9.8575030  98.6127547  78.7630187   4.3315328  94.6850461  84.7612358
   4.1935126  93.9530700  85.3623897   5.2420252  94.5959361  84.4796545
  13.2930276  96.6238865  69.5096836  12.6759447  95.8985693  69.4129889
  12.8246765  97.3848225  69.1663910   6.9597629  94.3970420  84.2496037
   7.6697248  93.7563612  84.2082656   6.9166937  94.6483315  85.1722218
  14.9484408 101.3337774  87.1702616  14.8896954 100.6496994  86.5033200
  15.3503926 102.0756764  86.7183242   5.6726563  91.3835638  86.0691677
   5.1363920  90.9326377  86.7213273   5.0843271  91.5181547  85.3262141
   3.9675107 108.1499687  79.9636335   4.2071705 108.7818212  80.6415354
   3.1244303 107.7987727  80.2501695   5.0828822  90.8424289  68.6318140
   4.2058288  90.7213090  68.2680387   5.5586575  90.0510368  68.3797029
  14.9501815  99.2977357  85.4016596  14.0628594  98.9603279  85.5242995
  15.5200366  98.5660389  85.6385362   1.4065684  90.5191646  83.1544671
   1.3223873  89.9117315  82.4195081   0.5848391  91.0100664  83.1554168
   8.4802968 103.9578810  82.3677839   8.4073140 104.7633781  82.8797144
   8.0380361 104.1570776  81.5425861   8.2692748 103.1950580  75.8780661
   7.4860270 103.7372260  75.9718885   8.9685493 103.7124559  76.2774902
  11.5789398  89.0045209  78.5214866  12.0758098  88.2515172  78.2015937
  10.8076380  89.0409526  77.9558076  19.4319156  94.7085575  80.1633158
  19.4209032  95.5910290  79.7927091  18.5636535  94.3557126  79.9687695
  10.9401652 103.8565644  84.5235998  11.6529624 104.4913109  84.4511899
  10.4491681 103.9529510  83.7076000  12.6619179  97.7616897  76.0953290
  11.7275458  97.8818359  75.9257994  12.8395847  96.8589363  75.8313300
   8.1624367  91.1462592  78.2486551   7.7922154  90.5933633  78.9367456
   8.6583459  90.5420726  77.6961551  16.0491730  93.6034216  76.6303324
  16.5152182  94.4362207  76.5563626  16.4999231  93.1379197  77.3348582
   5.9913565 101.6060087  85.3441569   6.6923025 102.2396570  85.4970963
   5.5208680 101.9474819  84.5837208  14.1167961  99.9478037  73.6289476
  14.3927805  99.8334632  74.5383350  13.2472460  99.5495522  73.5901649
  14.0208393  85.9714803  80.6694225  13.1071473  86.2019030  80.8376432
  14.4501494  86.0553247  81.5208258  13.7914851  94.1604695  83.1694119
  13.1386302  94.4080602  82.5146572  14.1695231  93.3468833  82.8356596
  10.7522025 104.1964388  77.2722289  10.9344420 103.3786044  77.7350042
  11.5755011 104.4132080  76.8347179  11.0864191 103.1232573  74.5337338
  11.6151957 102.6125028  73.9207500  11.3492410 102.8075103  75.3982871
   9.8402424  94.9024506  89.6560156   9.1643061  94.8018635  90.3262532
  10.6630058  94.7463720  90.1196154   1.5881283 101.1396442  82.2772672
   2.1734720 100.3940130  82.4100576   1.3906122 101.4500399  83.1609335
   4.4419939 104.1747690  77.2935114   3.7730314 104.6593817  76.8099154
   4.3032808 104.4216910  78.2078492   8.5825207 106.2091433  83.8917772
   9.1343515 106.3723055  84.6566858   8.9231401 106.7995871  83.2197797
   3.5589701  88.5566583  84.4939657   3.6231027  89.4181414  84.0817055
   3.4956821  87.9440585  83.7612015   3.0341973  90.6289716  88.1412691
   3.6614012  90.2466793  88.7550216   2.1769892  90.4103918  88.5068384
  13.4336082 101.0352691  89.7466427  13.9775986 101.6482649  89.2521382
  12.8522926 101.5932269  90.2633440  11.7193595 104.1573409  80.8781454
  11.5944734 103.3563149  80.3692400  12.3772686 104.6519602  80.3895424
   3.3401763  90.5122141  80.0558595   2.6188349  91.1258109  79.9166068
   4.1295019  91.0479906  79.9775241  13.7828503 101.9582429  82.5061005
  12.8358838 101.8387780  82.4339331  14.1311276 101.0704927  82.5887266
   6.1428076  87.8476568  86.3299246   6.6662478  88.0938864  87.0925556
   5.9240410  88.6796603  85.9102384   1.5395357  90.1180242  74.1970371
   1.2108064  89.2377621  74.0145477   1.8934728  90.0627911  75.0846760
  10.7874936 101.7535145  78.7065357  10.6399899 100.8251852  78.8872927
  11.6128430 101.7755236  78.2222432   4.6537181  90.4053212  74.5645849
   4.9933253  90.9339133  73.8424457   5.1009301  90.7433618  75.3404415
  14.3909058 102.5763704  79.7930230  15.3155606 102.3706565  79.6554681
  14.2224361 102.3280105  80.7019571   7.3480621  88.7890263  84.0148917
   7.0077442  87.9898076  84.4169597   6.6419628  89.0891974  83.4425750
   7.9997093  85.8739575  82.4676240   8.8223163  85.4000053  82.3455130
   8.2435157  86.6530059  82.9674926   6.6405328  88.9027834  72.7639142
   7.3613690  89.2809087  72.2602859   6.0170632  89.6216711  72.8674120
  10.7836451  89.6072983  73.6997474  11.0000065  90.4897621  73.3986302
  10.3030518  89.2159196  72.9703116   5.5235672  92.5658696  80.2768219
   5.3780253  92.8798999  81.1692500   5.0460876  93.1843596  79.7239117
   7.3832055  89.5561244  80.3249108   7.3693624  88.6602337  79.9881406
   8.1004483  89.5631908  80.9587394   9.2358186  89.9898584  82.3702236
   8.9775963  90.9115655  82.3686566   8.7043226  89.5929019  83.0602700
  14.1804374 103.0949371  75.1492321  14.3541252 102.5295794  74.3966173
  14.6733266 103.8950266  74.9671811   6.7868951  88.4375624  75.5936678
   6.9084862  87.5092270  75.7927566   6.4970993  88.4514310  74.6814994
   9.6560141  86.1230535  78.7303398   9.6781838  86.1869868  77.7755378
  10.0728200  85.2835043  78.9243904  20.0343765  95.8585794  76.7682621
  20.4774912  95.1093119  76.3701744  19.1570276  95.8495931  76.3856353
  15.1679547 102.4116136  72.2489219  15.8630451 103.0322828  72.4676534
  15.5102697 101.5611487  72.5241597  17.0670970  99.8615841  73.7776550
  17.5922294 100.2003114  73.0525870  16.9793322  98.9262857  73.5939685
   8.7291019 103.7749915  85.9066427   9.0378145 103.5299062  86.7789126
   9.5266501 103.9796553  85.4185297   8.7511631 105.9287824  78.1371803
   8.3116621 105.4364203  78.8304660   9.5019748 105.3860792  77.8963878
   1.2303970 102.1199365  78.1396431   2.0561990 101.8203137  77.7595075
   0.8798022 101.3506988  78.5886220   6.1985503 101.4725834  80.2094105
   5.5765512 100.8096539  79.9096333   6.8690370 101.4986965  79.5267753
   6.2710030  89.9507622  89.8026611   6.3198186  90.8269744  89.4204380
   6.8132545  89.4085015  89.2298254  16.7564876 100.4948745  89.0827748
  15.9660420 100.4772884  88.5432247  16.5198231 101.0337039  89.8376785
  16.8762751  97.3441211  86.3960477  16.9260756  97.1791219  87.3375999
  16.7676674  96.4768470  86.0058357   5.7599010 100.0229757  73.6852565
   5.9087130 100.7065221  73.0319238   6.5665453 100.0034847  74.2002021
  14.1666513  93.3272139  87.7119783  15.0676376  93.1878604  87.4203781
  14.2414488  93.4926594  88.6517961   8.5009319  90.7038994  86.5572970
   7.6312628  90.9972560  86.2855558   8.7368799  91.2879439  87.2780233
  18.3780948  99.7638153  86.6402498  18.0865756 100.1268133  87.4765959
  17.7653079  99.0505161  86.4615830  19.5776630  97.3291033  79.1605068
  20.4123522  97.7680837  79.3242629  19.7135759  96.8529686  78.3413314
  16.6268136  94.8870767  85.1082556  17.1022258  95.0798414  84.3001407
  15.7033701  94.9429953  84.8625940   3.5151643  96.0494935  74.6913634
   3.2697685  95.1457265  74.8893844   3.6847557  96.0512085  73.7493112
  11.2048353  86.9218611  84.0738390  11.7230296  87.6579638  83.7484878
  10.8503485  87.2282604  84.9085149   2.7847290  91.7823292  72.1899796
   2.0916535  91.8567647  71.5339832   2.5399042  91.0183636  72.7121313
  11.4560947  83.3418893  79.5939287  11.7362701  82.6742083  80.2199713
  12.2411554  83.5347989  79.0813950   9.2594415 102.5177887  71.1564313
   8.6868382 103.1368074  70.7034785   9.8327209 103.0677249  71.6904235
  15.3269805  91.7636527  83.3410862  16.2787228  91.8634625  83.3623086
  15.1573256  90.9714796  83.8508946  13.3484185  88.8492111  83.5270263
  12.7534117  89.1297123  82.8316751  13.0633881  89.3386012  84.2987004
  12.4791675 102.8015037  72.2872895  13.4122348 102.7360599  72.4905771
  12.3914888 103.6371304  71.8287428  15.1079692 102.1180908  69.2476843
  15.0293323 101.7840771  70.1412601  15.9289358 102.6102676  69.2468315
  17.8057883  94.9842647  82.4553161  17.7734203  94.0458648  82.6412845
  18.4158507  95.0626684  81.7218986   9.6441214  93.8538700  68.4980365
  10.5900318  93.7244908  68.5668783   9.2655459  93.1153362  68.9749793
  17.9552371  91.7753691  82.5011444  17.4391420  90.9912147  82.3141373
  18.8392320  91.4472407  82.6657964  15.6163098  85.5194706  78.4607257
  15.4187919  85.2109794  79.3450589  16.2262804  86.2456345  78.5905187
  23.6234433  96.0458654  81.5959198  24.3537821  95.7843942  82.1566901
  23.0141378  95.3087376  81.6361266  21.7049730  94.1866517  82.1933649
  20.9782893  94.0522481  81.5850141  21.2897017  94.4943345  82.9990367
   9.5279906  97.9056446  89.9581022  10.4482916  98.0835045  90.1521069
   9.4929489  96.9612492  89.8060722   7.8284131  91.7788676  68.4335251
   6.9215586  91.4821789  68.5097964   8.1060112  91.4818495  67.5669537
   2.5241979  95.8157481  82.6003803   2.7427989  96.7474589  82.6191837
   2.9367753  95.4565455  83.3858607   9.4446197  86.3225566  74.5879492
   8.6346925  85.9772651  74.9634738  10.1330614  86.0133110  75.1767103
  11.3736745  85.4003613  76.2103788  11.9267784  85.8199066  76.8693812
  11.6106831  84.4739361  76.2526744   7.3969844  91.3890687  91.9906552
   7.2966571  92.3385044  91.9218643   7.1791386  91.0608926  91.1182622
   6.5982916  88.6375612  68.5747230   7.4602080  88.9630510  68.8343047
   6.7833260  87.8507108  68.0620296  14.7515552  87.5104138  75.7182453
  14.1714221  88.1688942  75.3360505  14.4851485  86.6881483  75.3069870
  13.2019118  86.9109196  77.9203773  13.7018897  87.0225730  77.1118092
  13.8454726  86.6070249  78.5604582   7.2601114  94.8187825  90.8071614
   6.7768196  95.6188186  91.0135503   7.3462053  94.8295770  89.8539058
   0.5287074  96.6516205  78.7293433   0.5057762  96.7503892  77.7775317
   0.8387710  97.4981356  79.0510600   3.1874452  98.7092360  82.8440048
   4.1417705  98.6776303  82.7769979   2.9886975  98.2482984  83.6590274
   3.7773834  97.2793476  85.4110846   4.5966723  97.7737555  85.4345683
   4.0510642  96.3625444  85.3828413  13.5340430  89.6704229  74.7738801
  12.6466285  89.9553879  74.5558996  13.9494419  89.5097992  73.9266078
  16.8854966  89.6950750  78.4893140  17.6615356  90.1847202  78.7617757
  16.1603100  90.1208804  78.9465010  19.3227525  90.4078369  79.5467081
  19.9172016  90.1674105  78.8360389  19.3954108  89.6885499  80.1740617
   1.5424680 104.2511980  79.8610246   1.4079148 103.4912381  79.2948244
   1.1256743 104.9752880  79.3939035  12.6783643  99.4348903  68.8686821
  13.3819494  99.6398906  69.4844477  11.9546292 100.0025665  69.1335905
  13.5081454  95.1858764  74.9889091  13.4516655  95.6427316  74.1496724
  14.0609796  94.4249449  74.8111934  17.3186260  90.9748496  75.8139211
  17.0623194  90.5745132  76.6447418  16.6939128  91.6892290  75.6889350
  21.6298598  93.7144570  78.3210502  21.0698156  93.7837759  79.0942064
  21.0242101  93.5385554  77.6009998   4.6993806 105.1481297  80.0728688
   4.5826190 106.0926729  79.9707379   3.8786253 104.8454858  80.4614488
  14.5870341  99.8731432  70.9185281  15.4215945  99.4412631  70.7362756
  14.4254684  99.7013446  71.8462176  14.2416233  96.3763546  72.2841620
  14.1865037  96.2107817  71.3430064  13.6162288  97.0839579  72.4403810
  11.5562140  98.6812458  91.6095183  12.4253300  98.8553110  91.2481818
  11.0768892  99.5006874  91.4870912   7.5512359  85.8771655  71.8626939
   7.5391028  86.8213495  72.0195210   8.4435780  85.6941800  71.5686400
   5.7248320 105.8009559  83.2884617   6.6275567 105.8333169  83.6051112
   5.4985691 104.8710010  83.3030953   7.4801922 104.5540545  79.9494695
   6.5297554 104.5542407  79.8359068   7.7834409 103.8073280  79.4330730
  11.3664478  82.4714431  76.1172876  10.5996874  81.9172918  76.2629558
  11.7775183  82.5436300  76.9787027   3.3706239  88.7599227  90.2078057
   4.2337701  88.4036032  90.4181381   2.7971650  88.4213122  90.8953461
  23.2154616 110.3901084  81.0140458  23.8533026 110.2707831  80.3103798
  23.0975459 111.3381927  81.0728410  20.0244322 110.3428512  80.9501982
  19.6862834 110.2269576  80.0622517  20.8934090 109.9419677  80.9302989
  15.8831138 112.1963988  76.9398873  15.3196003 112.1053925  76.1715161
  15.7683533 111.3763893  77.4201366  20.5064105 111.4963363  86.9088188
  20.4952746 111.1016162  86.0368692  20.6684745 110.7629436  87.5021959
  13.4295570 113.6915180  79.7783094  14.2216862 113.3506004  79.3629393
  13.6692220 113.8010155  80.6985247  21.4630697 115.8634956  72.2513338
  20.8118676 116.4489036  71.8647352  22.2575059 116.3941151  72.3108376
  15.3886324 112.9524093  72.6500473  16.1617200 112.4053080  72.5113348
  15.7411723 113.8168342  72.8614934  17.2271366 114.2800475  85.8567372
  16.9361232 115.1846106  85.7414038  17.8628351 114.3217003  86.5711442
  18.1527573 111.6577324  82.4468732  18.7491145 111.4333346  81.7325695
  18.2102545 110.9162069  83.0494179  17.7252602 109.1116759  70.2818923
  17.9778122 108.5898280  69.5202386  16.7877161 108.9482904  70.3845606
  22.7695884 108.1152537  78.0893666  23.5558974 107.6971961  77.7384083
  23.0334589 109.0198630  78.2575314  22.9405962 113.5525388  72.7882323
  22.3051795 113.6260014  73.5003227  22.6103368 114.1418987  72.1101402
  28.1704312 108.0527771  78.9926644  28.9029484 107.4826987  79.2264474
  27.4143667 107.6649371  79.4333150  17.4448890 111.0144865  72.4843298
  17.3285148 110.3389768  73.1524382  17.5551150 110.5277239  71.6675451
  19.7880431 110.4755012  76.1889987  19.4238639 109.9485633  76.9002908
  20.6447547 110.0853481  76.0156472  25.6929732 101.7649345  83.4521253
  25.3613057 102.6344756  83.2282468  25.0975345 101.4485629  84.1315283
  19.4285918 105.5044912  71.1851335  19.5960321 106.3725148  71.5521806
  19.2383087 105.6672193  70.2612625  22.1861251 113.9661891  82.8517166
  21.8861975 114.8686929  82.7432973  21.8412311 113.6994074  83.7038319
  15.6373733 110.4175688  78.8853870  14.7124229 110.2851902  79.0931562
  15.8858146 111.1969907  79.3823813  25.5858395 106.4844431  80.5314603
  24.6775273 106.4159839  80.2373364  25.5345991 106.9616376  81.3596428
  19.4075139 107.9602569  72.1698002  19.2874764 108.4059620  73.0083482
  18.7127728 108.3087887  71.6111540  12.9982544 110.0608961  79.7197659
  13.1274925 110.3143440  80.6337071  12.3179995 110.6536669  79.4002314
  17.1682031 120.7306211  75.8188133  17.0906061 121.6814036  75.8976614
  16.5643675 120.3852084  76.4763060  19.6599261 107.9034076  88.4749500
  18.8832595 108.4627997  88.4652365  20.2989824 108.3890859  88.9964370
  27.4520042 104.6860869  82.3092477  26.8094422 104.9793402  81.6632272
  26.9474970 104.5713790  83.1145674  25.1060205 108.4324042  72.9978336
  26.0178061 108.6651429  72.8226034  24.5969852 109.0161087  72.4353415
  17.9145633 110.7119530  88.0367467  18.6560318 111.2504574  87.7602291
  17.2082619 111.3385819  88.1939019  23.3900973 112.8548670  86.6339629
  23.7984329 112.4131081  85.8894261  22.6678235 112.2801298  86.8873822
  19.7432043 107.7921277  84.0073186  20.5893238 108.2160691  84.1507835
  19.6830681 107.1354901  84.7011749  23.7129788 113.4149861  80.3891918
  23.0838650 113.5795575  79.6867986  23.3255450 113.8291470  81.1602882
  27.5919020 114.3504299  77.7436281  26.9070058 114.7303200  77.1933315
  27.6762869 114.9599625  78.4768229  22.8931488 105.4525645  85.6654359
  22.6492420 106.2067706  85.1288635  23.1691419 105.8310993  86.5001606
  24.8469951 111.9964258  84.3431625  25.0586846 112.6396018  83.6666006
  24.7999699 111.1626574  83.8753555  22.4496180 104.6082078  81.2468197
  21.5880659 104.9063332  81.5384935  22.4758615 104.8252477  80.3149230
  19.2657750 113.1524269  77.6542003  19.7296095 113.4311972  76.8646625
  19.0014548 112.2507714  77.4715093  16.1581831 112.6995751  80.5921766
  16.7283188 113.1283019  79.9539251  16.7489942 112.4178335  81.2905952
  18.2026636 109.2747421  74.4631568  18.9050679 109.7268465  74.9305494
  17.8707264 108.6331240  75.0911461  16.6506997 107.8659178  88.8382777
  16.0205658 108.5475459  89.0718174  16.5443085 107.7542260  87.8935916
  11.9451970 107.5330974  79.7648701  11.1551024 107.7888503  79.2888812
  12.4363217 108.3479312  79.8700742  25.9615779 114.8736213  82.5153982
  26.7833223 114.4716400  82.2336664  25.9578182 114.7704447  83.4670098
  13.8966715 107.8975553  76.7232178  13.0997878 108.0094248  77.2415674
  13.6692307 108.2362205  75.8573069  19.7272383 114.4220256  84.6714693
  19.7916815 114.8840664  85.5072865  19.0183306 113.7917621  84.7997003
  10.2289673 107.7861464  82.1963692  10.4797711 108.6708474  82.4621268
  10.7649221 107.6066066  81.4238784  34.0521772 111.2174962  78.8638954
  33.2985481 110.6482360  78.7082958  34.1869313 111.1837626  79.8109588
  19.4420400 116.0888364  74.5393673  19.3066075 116.9339900  74.9678521
  19.9830213 116.2907642  73.7759607  15.9287740 102.1679944  91.2008028
  15.5354685 101.6146142  91.8755673  16.7453880 102.4790522  91.5914546
  12.8949798 113.6063802  75.1121598  13.4074318 114.4007052  75.2627163
  13.5472510 112.9090092  75.0455200  14.7044682 116.7229558  77.1944351
  14.8811311 117.6447523  77.0065335  15.5001516 116.4087978  77.6238731
  18.8455701 103.5837823  88.7928285  19.5865414 104.1844976  88.7132747
  19.0773624 102.8415461  88.2346327  13.9897039 108.7694190  87.0706515
  13.8750554 107.8679447  87.3713613  13.1341557 109.0157887  86.7191331
  21.0688877 116.7111930  88.6694015  20.6252731 115.9248309  88.3514920
  21.7306090 116.8991081  88.0037906  15.8275998 118.2407732  83.1954694
  16.3783423 118.1124795  82.4231688  14.9887474 118.5402621  82.8449586
  23.1670115 116.9914730  86.6975416  23.1488590 117.8123611  86.2055686
  24.0890035 116.8668806  86.9225558  19.6243169 114.5058860  87.5398925
  20.1571506 113.7447148  87.3098233  19.0957250 114.2132512  88.2823079
  22.7912864  99.6118926  83.0692567  22.4477133 100.5020568  82.9931677
  23.1591826  99.4220584  82.2062152  10.8598714 111.9352456  75.8881169
  11.6973936 112.3449465  75.6714876  11.0376982 110.9951898  75.8581363
  22.7563146 109.6027537  71.5765002  22.2409770 110.3732142  71.8153389
  22.4840455 108.9292673  72.1998063  20.3410258 104.4477238  76.6350240
  19.4851854 104.0584088  76.4555879  20.7537209 104.5269199  75.7750026
  21.8709404 101.9823581  81.0341800  21.3674200 101.9453716  80.2209605
  22.1640011 102.8916324  81.0938456  18.1152290 102.0662311  80.0407982
  18.9805287 101.8705119  79.6813871  18.1829799 101.8372663  80.9677338
  27.7297421 112.3559892  73.5118175  26.9526863 112.0171051  73.0673337
  28.4088902 112.3612515  72.8373140  22.5449450 107.4754629  73.4024783
  22.2399585 107.7900778  74.2534926  23.4979892 107.5536049  73.4452116
  20.9895882 113.6344852  75.0517737  20.4617243 112.8997612  74.7390974
  20.4883384 114.4119529  74.8057705  25.9688728 111.8293873  80.1684783
  25.3112402 112.5193134  80.2564912  26.7729127 112.2190305  80.5118769
  15.7214609 104.2964519  77.4124348  16.2958361 104.0739700  76.6797541
  16.3085592 104.3653213  78.1652950  24.7794186 110.1838246  78.2188725
  25.2926068 110.8168237  78.7210435  25.4295410 109.5839441  77.8532085
  16.0484196 106.3268980  71.4320234  15.2121508 106.6643666  71.7529508
  15.9088966 106.1917959  70.4947371  18.0237277 101.1705768  76.1399418
  17.3701689 100.8554785  75.5156033  17.9817751 100.5481508  76.8659241
  19.1348482 111.4525063  68.0552710  18.2275543 111.2214316  68.2543859
  19.6319514 110.6562682  68.2426691  22.0416561 120.1622570  70.9749396
  21.3678259 120.4654267  71.5834354  22.4282383 120.9651650  70.6254853
  21.2575017 107.6587701  80.4647065  20.3397579 107.8802648  80.3068753
  21.6735161 107.7334012  79.6058773  22.0410065 109.0579117  75.5949746
  22.7881884 109.5700514  75.2856868  22.3101654 108.7363170  76.4554139
  20.3136715 111.5537658  72.5776700  19.4047934 111.2696690  72.6749170
  20.3431799 111.9736736  71.7180007  25.5455983 115.1644247  76.3467868
  25.0918310 114.3235157  76.4033058  24.9149949 115.8005645  76.6842648
  24.4888902 106.0936233  77.5768535  23.7511659 105.5813619  77.9078778
  24.7415676 105.6536615  76.7651812  23.9888922 117.0020744  77.2817686
  24.2811896 117.5625801  76.5630051  24.4987542 117.2949305  78.0370845
  24.5900529  98.8712485  78.1710304  24.8959406  98.0109848  77.8836219
  25.3153134  99.4630105  77.9709298  10.8824886 109.2743172  76.5591902
  10.6849285 108.6812532  75.8342969  10.3271549 108.9695382  77.2767841
  18.8621609 109.1666278  78.6786495  18.9170219 108.2140115  78.6028972
  18.0512811 109.3225717  79.1627794  20.0112803 113.0946401  69.9164779
  19.5732233 112.3782260  69.4570416  20.7523244 113.3222516  69.3549870
  16.8013969 107.7843338  76.4376874  15.9881835 108.0837508  76.8442066
  17.2972963 107.3899027  77.1551356  18.9522547 117.7801095  78.3711139
  18.9098726 118.0061941  77.4419671  19.8685246 117.5464469  78.5196940
  22.3988181 108.2485162  85.2691768  22.7537568 108.4756635  86.1286234
  23.0460312 108.5803539  84.6469023  28.1285918 111.3703598  75.9741097
  27.9903816 111.5605194  75.0462286  27.7722137 112.1322981  76.4309148
  16.2928044 105.3561693  82.0538109  16.9327423 105.2150452  81.3561072
  15.4605574 105.0696207  81.6776711  28.1555297 113.4380125  80.9852369
  28.5891804 113.3455414  81.8335423  28.8686878 113.4137626  80.3472385
  17.0688348 114.6564124  78.1673102  17.8628946 114.1614444  77.9655677
  16.3580040 114.1281987  77.8040807  21.8883192 117.0382219  82.5185469
  21.9420214 117.6073156  83.2863185  21.0197974 117.2084104  82.1539506
  13.3771111 108.8007206  74.2432854  12.4468699 108.7391661  74.4602816
  13.4728583 108.2783158  73.4469496  13.2956660 105.3262018  76.8311096
  13.5563478 106.2407352  76.7220256  14.1173833 104.8586461  76.9807709
  14.7681586 106.7399776  84.0009920  15.4404639 106.5317138  83.3522569
  13.9411372 106.5421862  83.5615153  29.0170847 113.4803826  83.5185254
  29.2106737 114.3849636  83.7644529  28.9171465 113.0211245  84.3523839
  20.6707158 103.3661716  86.0175581  20.0235073 104.0651666  85.9240058
  21.4408173 103.7997860  86.3851830  24.0785956 113.6310569  89.0926135
  23.9271462 113.4021120  88.1756218  24.0690635 114.5881170  89.1057480
  20.8471292 111.2042481  84.0772401  21.7763352 111.3553641  83.9041368
  20.4262322 111.2926502  83.2221048  19.6459624 115.2293146  81.8470939
  19.5070709 114.8611930  82.7196877  18.8574220 115.7440785  81.6754896
  20.2407776 120.3302242  73.1896475  20.4159531 119.8590285  74.0042098
  19.5540564 120.9568008  73.4177736  21.1964839 114.6074748  79.2359776
  20.8614671 114.5675518  80.1317426  20.6968785 113.9419464  78.7630187
  15.1709083 110.0142379  84.7612358  15.0328881 109.2822617  85.3623897
  16.0814006 109.9251279  84.4796545  24.1324031 111.9530783  69.5096836
  23.5153201 111.2277611  69.4129889  23.6640519 112.7140143  69.1663910
  17.7991384 109.7262338  84.2496037  18.5091002 109.0855530  84.2082656
  17.7560692 109.9775233  85.1722218  25.7878162 116.6629691  87.1702616
  25.7290708 115.9788911  86.5033200  26.1897681 117.4048681  86.7183242
  16.5120317 106.7127556  86.0691677  15.9757675 106.2618294  86.7213273
  15.9237026 106.8473465  85.3262141  14.8068861 123.4791605  79.9636335
  15.0465459 124.1110129  80.6415354  13.9638057 123.1279645  80.2501695
  15.9222576 106.1716207  68.6318140  15.0452043 106.0505008  68.2680387
  16.3980330 105.3802285  68.3797029  25.7895569 114.6269275  85.4016596
  24.9022348 114.2895197  85.5242995  26.3594121 113.8952306  85.6385362
   7.4424717 110.9593367  78.7259648   8.1295756 110.6455097  78.1380663
   7.2872845 111.8634732  78.4526899  12.2459439 105.8483563  83.1544671
  12.1617627 105.2409233  82.4195081  11.4242145 106.3392582  83.1554168
  19.3196723 119.2870727  82.3677839  19.2466894 120.0925699  82.8797144
  18.8774116 119.4862693  81.5425861  19.1086502 118.5242497  75.8780661
  18.3254024 119.0664178  75.9718885  19.8079248 119.0416477  76.2774902
  22.4183153 104.3337127  78.5214866  22.9151852 103.5807089  78.2015937
  21.6470134 104.3701444  77.9558076  30.2712910 110.0377492  80.1633158
  30.2602786 110.9202208  79.7927091  29.4030289 109.6849043  79.9687695
  21.7795406 119.1857561  84.5235998  22.4923379 119.8205026  84.4511899
  21.2885435 119.2821427  83.7076000  23.5012933 113.0908814  76.0953290
  22.5669212 113.2110277  75.9257994  23.6789602 112.1881281  75.8313300
  19.0018121 106.4754510  78.2486551  18.6315909 105.9225550  78.9367456
  19.4977214 105.8712643  77.6961551  26.8885485 108.9326133  76.6303324
  27.3545937 109.7654125  76.5563626  27.3392985 108.4671115  77.3348582
  16.8307320 116.9352005  85.3441569  17.5316779 117.5688488  85.4970963
  16.3602435 117.2766737  84.5837208  24.9561716 115.2769955  73.6289476
  25.2321560 115.1626549  74.5383350  24.0866214 114.8787440  73.5901649
  24.8602147 101.3006720  80.6694225  23.9465227 101.5310947  80.8376432
  25.2895249 101.3845165  81.5208258  24.6308606 109.4896612  83.1694119
  23.9780056 109.7372520  82.5146572  25.0088986 108.6760751  82.8356596
  21.5915780 119.5256306  77.2722289  21.7738174 118.7077962  77.7350042
  22.4148766 119.7423998  76.8347179  21.9257945 118.4524491  74.5337338
  22.4545712 117.9416945  73.9207500  22.1886165 118.1367021  75.3982871
  20.6796179 110.2316423  89.6560156  20.0036816 110.1310553  90.3262532
  21.5023813 110.0755637  90.1196154  12.4275038 116.4688360  82.2772672
  13.0128475 115.7232048  82.4100576  12.2299876 116.7792317  83.1609335
  15.2813693 119.5039607  77.2935114  14.6124068 119.9885735  76.8099154
  15.1426563 119.7508828  78.2078492   7.0192693 109.0393960  80.9977115
   7.0576792 108.5057551  81.7914233   6.5132986 108.5129166  80.3788092
  19.4218962 121.5383351  83.8917772  19.9737270 121.7014972  84.6566858
  19.7625155 122.1287789  83.2197797  14.3983455 103.8858501  84.4939657
  14.4624781 104.7473332  84.0817055  14.3350575 103.2732502  83.7612015
  13.8735728 105.9581633  88.1412691  14.5007766 105.5758711  88.7550216
  13.0163646 105.7395835  88.5068384  24.2729836 116.3644608  89.7466427
  24.8169740 116.9774567  89.2521382  23.6916681 116.9224187  90.2633440
  10.6501270 107.7658062  74.0731046  10.9454711 106.8568741  74.0198100
   9.7489306 107.7445802  73.7512048  22.5587349 119.4865326  80.8781454
  22.4338489 118.6855066  80.3692400  23.2166440 119.9811520  80.3895424
  14.1795517 105.8414059  80.0558595  13.4582103 106.4550027  79.9166068
  14.9688773 106.3771824  79.9775241  24.6222257 117.2874347  82.5061005
  23.6752593 117.1679698  82.4339331  24.9705031 116.3996845  82.5887266
  16.9821831 103.1768485  86.3299246  17.5056233 103.4230782  87.0925556
  16.7634164 104.0088520  85.9102384  12.3789112 105.4472160  74.1970371
  12.0501818 104.5669539  74.0145477  12.7328483 105.3919829  75.0846760
  21.6268691 117.0827063  78.7065357  21.4793653 116.1543770  78.8872927
  22.4522184 117.1047153  78.2222432  15.4930935 105.7345130  74.5645849
  15.8327008 106.2631051  73.8424457  15.9403056 106.0725536  75.3404415
  25.2302813 117.9055621  79.7930230  26.1549360 117.6998483  79.6554681
  25.0618116 117.6572023  80.7019571  18.1874376 104.1182181  84.0148917
  17.8471196 103.3189994  84.4169597  17.4813382 104.4183891  83.4425750
  18.8390848 101.2031493  82.4676240  19.6616917 100.7291971  82.3455130
  19.0828911 101.9821977  82.9674926  17.4799082 104.2319751  72.7639142
  18.2007445 104.6101004  72.2602859  16.8564386 104.9508628  72.8674120
  21.6230205 104.9364900  73.6997474  21.8393819 105.8189538  73.3986302
  21.1424272 104.5451114  72.9703116  16.3629426 107.8950614  80.2768219
  16.2174007 108.2090917  81.1692500  15.8854630 108.5135514  79.7239117
  18.2225809 104.8853162  80.3249108  18.2087378 103.9894255  79.9881406
  18.9398237 104.8923825  80.9587394  20.0751940 105.3190502  82.3702236
  19.8169718 106.2407572  82.3686566  19.5436980 104.9220936  83.0602700
  25.0198129 118.4241289  75.1492321  25.1935006 117.8587711  74.3966173
  25.5127020 119.2242184  74.9671811  10.8375089 110.4355958  83.2155880
  10.2928557 111.2115766  83.3476154  11.7154438 110.7826762  83.0575001
  17.6262705 103.7667542  75.5936678  17.7478616 102.8384188  75.7927566
  17.3364748 103.7806228  74.6814994  20.4953896 101.4522452  78.7303398
  20.5175592 101.5161785  77.7755378  20.9121955 100.6126961  78.9243904
  30.8737520 111.1877712  76.7682621  31.3168666 110.4385037  76.3701744
  29.9964030 111.1787848  76.3856353  26.0073301 117.7408053  72.2489219
  26.7024206 118.3614746  72.4676534  26.3496451 116.8903405  72.5241597
  11.6241110 109.5625854  86.1086037  10.8822846 109.7108490  86.6950667
  11.3033855 109.8234120  85.2452786  27.9064724 115.1907759  73.7776550
  28.4316048 115.5295032  73.0525870  27.8187077 114.2554774  73.5939685
  19.5684773 119.1041833  85.9066427  19.8771900 118.8590979  86.7789126
  20.3660255 119.3088471  85.4185297  19.5905385 121.2579742  78.1371803
  19.1510375 120.7656121  78.8304660  20.3413502 120.7152710  77.8963878
  12.0697724 117.4491283  78.1396431  12.8955744 117.1495055  77.7595075
  11.7191776 116.6798905  78.5886220  17.0379257 116.8017751  80.2094105
  16.4159267 116.1388456  79.9096333  17.7084124 116.8278883  79.5267753
  10.2706329 115.3677609  79.0985365   9.4338237 114.9399784  78.9169366
  10.2429975 115.5610053  80.0356156  17.1103785 105.2799539  89.8026611
  17.1591940 106.1561662  89.4204380  17.6526299 104.7376932  89.2298254
  27.5958630 115.8240663  89.0827748  26.8054174 115.8064801  88.5432247
  27.3591985 116.3628956  89.8376785  27.7156506 112.6733129  86.3960477
  27.7654510 112.5083136  87.3375999  27.6070429 111.8060388  86.0058357
  16.5992764 115.3521675  73.6852565  16.7480885 116.0357139  73.0319238
  17.4059208 115.3326765  74.2002021  25.0060268 108.6564057  87.7119783
  25.9070131 108.5170522  87.4203781  25.0808242 108.8218512  88.6517961
  19.3403073 106.0330912  86.5572970  18.4706383 106.3264478  86.2855558
  19.5762554 106.6171357  87.2780233  29.2174702 115.0930070  86.6402498
  28.9259511 115.4560051  87.4765959  28.6046834 114.3797079  86.4615830
  30.4170385 112.6582950  79.1605068  31.2517276 113.0972754  79.3242629
  30.5529513 112.1821603  78.3413314  27.4661891 110.2162685  85.1082556
  27.9416012 110.4090331  84.3001407  26.5427456 110.2721871  84.8625940
  14.3545397 111.3786852  74.6913634  14.1091439 110.4749182  74.8893844
  14.5241312 111.3804003  73.7493112  22.0442107 102.2510529  84.0738390
  22.5624051 102.9871556  83.7484878  21.6897240 102.5574522  84.9085149
  13.6241045 107.1115210  72.1899796  12.9310290 107.1859565  71.5339832
  13.3792797 106.3475553  72.7121313  22.2954701  98.6710811  79.5939287
  22.5756455  98.0034000  80.2199713  23.0805308  98.8639907  79.0813950
  20.0988170 117.8469805  71.1564313  19.5262137 118.4659992  70.7034785
  20.6720963 118.3969167  71.6904235  26.1663560 107.0928445  83.3410862
  27.1180982 107.1926543  83.3623086  25.9967010 106.3006714  83.8508946
  24.1877939 104.1784028  83.5270263  23.5927871 104.4589041  82.8316751
  23.9027636 104.6677929  84.2987004  23.3185430 118.1306955  72.2872895
  24.2516103 118.0652517  72.4905771  23.2308642 118.9663222  71.8287428
  25.9473446 117.4472825  69.2476843  25.8687078 117.1132689  70.1412601
  26.7683113 117.9394593  69.2468315  28.6451637 110.3134565  82.4553161
  28.6127957 109.3750566  82.6412845  29.2552261 110.3918602  81.7218986
  20.4834968 109.1830618  68.4980365  21.4294073 109.0536826  68.5668783
  20.1049213 108.4445280  68.9749793  28.7946126 107.1045608  82.5011444
  28.2785175 106.3204065  82.3141373  29.6786074 106.7764325  82.6657964
  26.4556853 100.8486624  78.4607257  26.2581674 100.5401712  79.3450589
  27.0656558 101.5748263  78.5905187  34.4628187 111.3750572  81.5959198
  35.1931576 111.1135860  82.1566901  33.8535133 110.6379294  81.6361266
  32.5443484 109.5158434  82.1933649  31.8176648 109.3814399  81.5850141
  32.1290771 109.8235263  82.9990367  20.3673661 113.2348364  89.9581022
  21.2876670 113.4126963  90.1521069  20.3323244 112.2904409  89.8060722
  18.6677885 107.1080594  68.4335251  17.7609341 106.8113707  68.5097964
  18.9453866 106.8110412  67.5669537   9.5855826 108.4286958  78.8834297
   9.2658610 107.5752266  78.5908671   9.0389254 108.6435536  79.6392264
  13.3635733 111.1449399  82.6003803  13.5821743 112.0766506  82.6191837
  13.7761507 110.7857373  83.3858607  20.2839951 101.6517484  74.5879492
  19.4740679 101.3064569  74.9634738  20.9724368 101.3425028  75.1767103
  22.2130499 100.7295531  76.2103788  22.7661538 101.1490984  76.8693812
  22.4500586  99.8031279  76.2526744  18.2363599 106.7182604  91.9906552
  18.1360326 107.6676961  91.9218643  18.0185141 106.3900843  91.1182622
  17.4376670 103.9667529  68.5747230  18.2995834 104.2922428  68.8343047
  17.6227014 103.1799025  68.0620296   9.4544086 112.0489869  80.8527419
   8.7607557 111.6343822  80.3397373  10.2017077 112.0910406  80.2560837
  25.5909306 102.8396056  75.7182453  25.0107976 103.4980860  75.3360505
  25.3245239 102.0173400  75.3069870  24.0412873 102.2401114  77.9203773
  24.5412651 102.3517648  77.1118092  24.6848481 101.9362166  78.5604582
  18.0994869 110.1479743  90.8071614  17.6161950 110.9480103  91.0135503
  18.1855808 110.1587688  89.8539058  11.3680828 111.9808123  78.7293433
  11.3451516 112.0795810  77.7775317  11.6781465 112.8273274  79.0510600
  14.0268206 114.0384278  82.8440048  14.9811460 114.0068220  82.7769979
  13.8280730 113.5774902  83.6590274  14.6167588 112.6085394  85.4110846
  15.4360477 113.1029473  85.4345683  14.8904396 111.6917362  85.3828413
  24.3734185 104.9996146  74.7738801  23.4860040 105.2845797  74.5558996
  24.7888174 104.8389910  73.9266078  27.7248721 105.0242667  78.4893140
  28.5009111 105.5139120  78.7617757  26.9996855 105.4500721  78.9465010
  30.1621279 105.7370286  79.5467081  30.7565770 105.4966022  78.8360389
  30.2347863 105.0177417  80.1740617  12.3818435 119.5803897  79.8610246
  12.2472903 118.8204298  79.2948244  11.9650497 120.3044797  79.3939035
  23.5177398 114.7640821  68.8686821  24.2213248 114.9690823  69.4844477
  22.7940047 115.3317583  69.1335905  24.3475208 110.5150682  74.9889091
  24.2910410 110.9719234  74.1496724  24.9003551 109.7541367  74.8111934
  28.1580014 106.3040414  75.8139211  27.9016948 105.9037050  76.6447418
  27.5332882 107.0184208  75.6889350  32.4692352 109.0436487  78.3210502
  31.9091910 109.1129677  79.0942064  31.8635855 108.8677472  77.6009998
  15.5387561 120.4773214  80.0728688  15.4219945 121.4218647  79.9707379
  14.7180007 120.1746776  80.4614488  25.4264095 115.2023350  70.9185281
  26.2609699 114.7704549  70.7362756  25.2648438 115.0305364  71.8462176
  25.0809988 111.7055463  72.2841620  25.0258791 111.5399735  71.3430064
  24.4556043 112.4131496  72.4403810   9.8702503 106.9423528  86.1103043
  10.5161366 106.4322482  86.5990268   9.6619654 107.6792209  86.6846468
  22.3955895 114.0104375  91.6095183  23.2647054 114.1845028  91.2481818
  21.9162646 114.8298792  91.4870912  18.3906113 101.2063572  71.8626939
  18.3784783 102.1505412  72.0195210  19.2829535 101.0233718  71.5686400
  16.5642075 121.1301476  83.2884617  17.4669322 121.1625087  83.6051112
  16.3379445 120.2001927  83.3030953  18.3195677 119.8832463  79.9494695
  17.3691308 119.8834324  79.8359068  18.6228163 119.1365197  79.4330730
  22.2058232  97.8006349  76.1172876  21.4390628  97.2464836  76.2629558
  22.6168937  97.8728218  76.9787027  14.2099994 104.0891145  90.2078057
  15.0731455 103.7327950  90.4181381  13.6365404 103.7505040  90.8953461
  34.0548370 125.7193001  81.0140458  34.6926780 125.5999749  80.3103798
  33.9369213 126.6673845  81.0728410  30.8638077 125.6720429  80.9501982
  30.5256588 125.5561494  80.0622517  31.7327845 125.2711594  80.9302989
  26.7224892 127.5255906  76.9398873  26.1589758 127.4345843  76.1715161
  26.6077287 126.7055810  77.4201366  31.3457860 126.8255281  86.9088188
  31.3346501 126.4308079  86.0368692  31.5078499 126.0921354  87.5021959
  24.2689324 129.0207097  79.7783094  25.0610616 128.6797922  79.3629393
  24.5085975 129.1302072  80.6985247  32.3024451 131.1926873  72.2513338
  31.6512431 131.7780954  71.8647352  33.0968814 131.7233068  72.3108376
  26.2280078 128.2816011  72.6500473  27.0010954 127.7344998  72.5113348
  26.5805477 129.1460260  72.8614934  28.0665121 129.6092393  85.8567372
  27.7754987 130.5138024  85.7414038  28.7022105 129.6508920  86.5711442
  28.9921328 126.9869241  82.4468732  29.5884900 126.7625264  81.7325695
  29.0496299 126.2453987  83.0494179  28.5646356 124.4408677  70.2818923
  28.8171877 123.9190198  69.5202386  27.6270915 124.2774822  70.3845606
  33.6089639 123.4444455  78.0893666  34.3952728 123.0263878  77.7384083
  33.8728343 124.3490547  78.2575314  33.7799716 128.8817305  72.7882323
  33.1445549 128.9551932  73.5003227  33.4497123 129.4710904  72.1101402
  39.0098066 123.3819688  78.9926644  39.7423238 122.8118905  79.2264474
  38.2537422 122.9941289  79.4333150  28.2842645 126.3436783  72.4843298
  28.1678903 125.6681686  73.1524382  28.3944905 125.8569157  71.6675451
  30.6274186 125.8046930  76.1889987  30.2632393 125.2777551  76.9002908
  31.4841302 125.4145399  76.0156472  36.5323486 117.0941262  83.4521253
  36.2006811 117.9636673  83.2282468  35.9369100 116.7777546  84.1315283
  30.2679673 120.8336829  71.1851335  30.4354075 121.7017066  71.5521806
  30.0776842 120.9964111  70.2612625  33.0255006 129.2953808  82.8517166
  32.7255729 130.1978847  82.7432973  32.6806065 129.0285992  83.7038319
  26.4767487 125.7467605  78.8853870  25.5517984 125.6143819  79.0931562
  26.7251901 126.5261824  79.3823813  36.4252150 121.8136349  80.5314603
  35.5169027 121.7451757  80.2373364  36.3739746 122.2908293  81.3596428
  30.2468894 123.2894487  72.1698002  30.1268519 123.7351538  73.0083482
  29.5521482 123.6379805  71.6111540  23.8376298 125.3900879  79.7197659
  23.9668680 125.6435358  80.6337071  23.1573750 125.9828587  79.4002314
  28.0075786 136.0598129  75.8188133  27.9299815 137.0105954  75.8976614
  27.4037429 135.7144001  76.4763060  30.4993016 123.2325994  88.4749500
  29.7226350 123.7919914  88.4652365  31.1383579 123.7182777  88.9964370
  38.2913796 120.0152787  82.3092477  37.6488176 120.3085320  81.6632272
  37.7868725 119.9005707  83.1145674  35.9453960 123.7615960  72.9978336
  36.8571816 123.9943347  72.8226034  35.4363607 124.3453004  72.4353415
  28.7539388 126.0411447  88.0367467  29.4954072 126.5796491  87.7602291
  28.0476373 126.6677736  88.1939019  34.2294727 128.1840588  86.6339629
  34.6378084 127.7422998  85.8894261  33.5071989 127.6093215  86.8873822
  30.5825798 123.1213195  84.0073186  31.4286993 123.5452608  84.1507835
  30.5224435 122.4646819  84.7011749  34.5523542 128.7441779  80.3891918
  33.9232405 128.9087493  79.6867986  34.1649204 129.1583388  81.1602882
  38.4312774 129.6796216  77.7436281  37.7463812 130.0595118  77.1933315
  38.5156623 130.2891543  78.4768229  33.7325243 120.7817563  85.6654359
  33.4886175 121.5359624  85.1288635  34.0085173 121.1602911  86.5001606
  35.6863706 127.3256175  84.3431625  35.8980601 127.9687935  83.6666006
  35.6393454 126.4918492  83.8753555  33.2889935 119.9373996  81.2468197
  32.4274414 120.2355250  81.5384935  33.3152369 120.1544395  80.3149230
  30.1051504 128.4816187  77.6542003  30.5689850 128.7603890  76.8646625
  29.8408302 127.5799631  77.4715093  26.9975585 128.0287668  80.5921766
  27.5676942 128.4574937  79.9539251  27.5883697 127.7470253  81.2905952
  29.0420390 124.6039339  74.4631568  29.7444433 125.0560383  74.9305494
  28.7101019 123.9623158  75.0911461  27.4900752 123.1951096  88.8382777
  26.8599412 123.8767377  89.0718174  27.3836839 123.0834177  87.8935916
  22.7845724 122.8622892  79.7648701  21.9944778 123.1180420  79.2888812
  23.2756971 123.6771230  79.8700742  36.8009534 130.2028131  82.5153982
  37.6226977 129.8008318  82.2336664  36.7971936 130.0996365  83.4670098
  24.7360469 123.2267471  76.7232178  23.9391633 123.3386165  77.2415674
  24.5086062 123.5654123  75.8573069  30.5666137 129.7512174  84.6714693
  30.6310570 130.2132581  85.5072865  29.8577061 129.1209539  84.7997003
  21.0683427 123.1153382  82.1963692  21.3191465 124.0000392  82.4621268
  21.6042975 122.9357984  81.4238784  44.8915527 126.5466879  78.8638954
  44.1379235 125.9774277  78.7082958  45.0263068 126.5129544  79.8109588
  30.2814155 131.4180282  74.5393673  30.1459829 132.2631817  74.9678521
  30.8223967 131.6199559  73.7759607  26.7681494 117.4971862  91.2008028
  26.3748440 116.9438060  91.8755673  27.5847635 117.8082440  91.5914546
  23.7343552 128.9355720  75.1121598  24.2468073 129.7298970  75.2627163
  24.3866265 128.2382010  75.0455200  25.5438437 132.0521476  77.1944351
  25.7205065 132.9739441  77.0065335  26.3395270 131.7379895  77.6238731
  29.6849455 118.9129741  88.7928285  30.4259169 119.5136894  88.7132747
  29.9167378 118.1707378  88.2346327  24.8290793 124.0986108  87.0706515
  24.7144308 123.1971365  87.3713613  23.9735311 124.3449805  86.7191331
  31.9082631 132.0403848  88.6694015  31.4646485 131.2540227  88.3514920
  32.5699845 132.2282999  88.0037906  26.6669752 133.5699650  83.1954694
  27.2177177 133.4416713  82.4231688  25.8281228 133.8694539  82.8449586
  34.0063869 132.3206648  86.6975416  33.9882344 133.1415529  86.2055686
  34.9283789 132.1960723  86.9225558  30.4636923 129.8350778  87.5398925
  30.9965260 129.0739066  87.3098233  29.9351004 129.5424429  88.2823079
  33.6306618 114.9410844  83.0692567  33.2870888 115.8312485  82.9931677
  33.9985581 114.7512501  82.2062152  21.6992469 127.2644374  75.8881169
  22.5367691 127.6741382  75.6714876  21.8770737 126.3243816  75.8581363
  33.5956901 124.9319455  71.5765002  33.0803524 125.7024059  71.8153389
  33.3234209 124.2584591  72.1998063  31.1804012 119.7769155  76.6350240
  30.3245608 119.3876006  76.4555879  31.5930964 119.8561116  75.7750026
  32.7103159 117.3115499  81.0341800  32.2067954 117.2745634  80.2209605
  33.0033766 118.2208241  81.0938456  28.9546045 117.3954228  80.0407982
  29.8199041 117.1997037  79.6813871  29.0223553 117.1664580  80.9677338
  38.5691175 127.6851809  73.5118175  37.7920618 127.3462969  73.0673337
  39.2482656 127.6904432  72.8373140  33.3843204 122.8046547  73.4024783
  33.0793340 123.1192696  74.2534926  34.3373646 122.8827967  73.4452116
  31.8289636 128.9636770  75.0517737  31.3010998 128.2289530  74.7390974
  31.3277139 129.7411446  74.8057705  36.8082482 127.1585791  80.1684783
  36.1506156 127.8485052  80.2564912  37.6122881 127.5482222  80.5118769
  26.5608364 119.6256436  77.4124348  27.1352116 119.4031618  76.6797541
  27.1479346 119.6945131  78.1652950  35.6187941 125.5130163  78.2188725
  36.1319823 126.1460155  78.7210435  36.2689165 124.9131359  77.8532085
  26.8877951 121.6560897  71.4320234  26.0515263 121.9935584  71.7529508
  26.7482720 121.5209877  70.4947371  28.8631031 116.4997685  76.1399418
  28.2095444 116.1846702  75.5156033  28.8211505 115.8773426  76.8659241
  29.9742236 126.7816980  68.0552710  29.0669298 126.5506234  68.2543859
  30.4713268 125.9854600  68.2426691  32.8810315 135.4914488  70.9749396
  32.2072014 135.7946184  71.5834354  33.2676137 136.2943568  70.6254853
  32.0968772 122.9879619  80.4647065  31.1791333 123.2094566  80.3068753
  32.5128915 123.0625929  79.6058773  32.8803819 124.3871034  75.5949746
  33.6275638 124.8992432  75.2856868  33.1495409 124.0655087  76.4554139
  31.1530470 126.8829575  72.5776700  30.2441689 126.5988608  72.6749170
  31.1825553 127.3028654  71.7180007  36.3849737 130.4936165  76.3467868
  35.9312064 129.6527075  76.4033058  35.7543704 131.1297563  76.6842648
  35.3282657 121.4228151  77.5768535  34.5905413 120.9105537  77.9078778
  35.5809430 120.9828532  76.7651812  34.8282676 132.3312661  77.2817686
  35.1205651 132.8917718  76.5630051  35.3381297 132.6241222  78.0370845
  35.4294284 114.2004403  78.1710304  35.7353161 113.3401766  77.8836219
  36.1546889 114.7922023  77.9709298  21.7218640 124.6035089  76.5591902
  21.5243040 124.0104450  75.8342969  21.1665304 124.2987300  77.2767841
  29.7015364 124.4958196  78.6786495  29.7563973 123.5432032  78.6028972
  28.8906566 124.6517635  79.1627794  30.8506557 128.4238319  69.9164779
  30.4125987 127.7074178  69.4570416  31.5916998 128.6514434  69.3549870
  27.6407724 123.1135256  76.4376874  26.8275589 123.4129426  76.8442066
  28.1366718 122.7190944  77.1551356  29.7916301 133.1093012  78.3711139
  29.7492480 133.3353859  77.4419671  30.7079000 132.8756387  78.5196940
  33.2381935 123.5777080  85.2691768  33.5931323 123.8048553  86.1286234
  33.8854066 123.9095457  84.6469023  38.9679672 126.6995516  75.9741097
  38.8297571 126.8897112  75.0462286  38.6115891 127.4614899  76.4309148
  27.1321798 120.6853611  82.0538109  27.7721178 120.5442370  81.3561072
  26.2999329 120.3988124  81.6776711  38.9949052 128.7672043  80.9852369
  39.4285558 128.6747332  81.8335423  39.7080633 128.7429543  80.3472385
  27.9082102 129.9856041  78.1673102  28.7022701 129.4906362  77.9655677
  27.1973795 129.4573905  77.8040807  32.7276947 132.3674137  82.5185469
  32.7813969 132.9365073  83.2863185  31.8591728 132.5376022  82.1539506
  24.2164866 124.1299123  74.2432854  23.2862454 124.0683579  74.4602816
  24.3122338 123.6075076  73.4469496  24.1350415 120.6553936  76.8311096
  24.3957232 121.5699269  76.7220256  24.9567587 120.1878379  76.9807709
  25.6075340 122.0691693  84.0009920  26.2798394 121.8609055  83.3522569
  24.7805127 121.8713779  83.5615153  39.8564601 128.8095744  83.5185254
  40.0500491 129.7141554  83.7644529  39.7565220 128.3503163  84.3523839
  31.5100912 118.6953634  86.0175581  30.8628827 119.3943584  85.9240058
  32.2801927 119.1289778  86.3851830  34.9179710 128.9602486  89.0926135
  34.7665216 128.7313038  88.1756218  34.9084390 129.9173088  89.1057480
  31.6865046 126.5334399  84.0772401  32.6157106 126.6845559  83.9041368
  31.2656076 126.6218420  83.2221048  30.4853378 130.5585063  81.8470939
  30.3464464 130.1903848  82.7196877  29.6967974 131.0732703  81.6754896
  31.0801530 135.6594160  73.1896475  31.2553286 135.1882203  74.0042098
  30.3934318 136.2859926  73.4177736  32.0358593 129.9366666  79.2359776
  31.7008426 129.8967436  80.1317426  31.5362539 129.2711382  78.7630187
  26.0102837 125.3434296  84.7612358  25.8722635 124.6114535  85.3623897
  26.9207761 125.2543196  84.4796545  34.9717785 127.2822701  69.5096836
  34.3546956 126.5569529  69.4129889  34.5034273 128.0432061  69.1663910
  28.6385138 125.0554256  84.2496037  29.3484757 124.4147448  84.2082656
  28.5954446 125.3067150  85.1722218  36.6271917 131.9921609  87.1702616
  36.5684463 131.3080829  86.5033200  37.0291435 132.7340599  86.7183242
  27.3514072 122.0419473  86.0691677  26.8151429 121.5910212  86.7213273
  26.7630780 122.1765382  85.3262141  25.6462615 138.8083523  79.9636335
  25.8859214 139.4402047  80.6415354  24.8031812 138.4571563  80.2501695
  26.7616331 121.5008125  68.6318140  25.8845797 121.3796926  68.2680387
  27.2374084 120.7094203  68.3797029  36.6289324 129.9561193  85.4016596
  35.7416103 129.6187115  85.5242995  37.1987875 129.2244224  85.6385362
  18.2818471 126.2885285  78.7259648  18.9689511 125.9747015  78.1380663
  18.1266600 127.1926649  78.4526899  23.0853193 121.1775481  83.1544671
  23.0011382 120.5701151  82.4195081  22.2635900 121.6684499  83.1554168
  30.1590477 134.6162645  82.3677839  30.0860649 135.4217617  82.8797144
  29.7167870 134.8154611  81.5425861  29.9480257 133.8534415  75.8780661
  29.1647779 134.3956095  75.9718885  30.6473002 134.3708395  76.2774902
  33.2576907 119.6629045  78.5214866  33.7545607 118.9099007  78.2015937
  32.4863889 119.6993361  77.9558076  41.1106664 125.3669410  80.1633158
  41.0996541 126.2494126  79.7927091  40.2424044 125.0140961  79.9687695
  32.6189161 134.5149479  84.5235998  33.3317133 135.1496944  84.4511899
  32.1279190 134.6113345  83.7076000  34.3406688 128.4200732  76.0953290
  33.4062967 128.5402194  75.9257994  34.5183356 127.5173199  75.8313300
  29.8411876 121.8046428  78.2486551  29.4709663 121.2517468  78.9367456
  30.3370968 121.2004561  77.6961551  37.7279239 124.2618051  76.6303324
  38.1939691 125.0946043  76.5563626  38.1786740 123.7963033  77.3348582
  27.6701074 132.2643923  85.3441569  28.3710534 132.8980406  85.4970963
  27.1996189 132.6058654  84.5837208  35.7955470 130.6061872  73.6289476
  36.0715314 130.4918467  74.5383350  34.9259969 130.2079357  73.5901649
  35.6995902 116.6298638  80.6694225  34.7858982 116.8602865  80.8376432
  36.1289003 116.7137082  81.5208258  35.4702360 124.8188530  83.1694119
  34.8173811 125.0664438  82.5146572  35.8482740 124.0052668  82.8356596
  32.4309534 134.8548223  77.2722289  32.6131929 134.0369879  77.7350042
  33.2542520 135.0715916  76.8347179  32.7651700 133.7816408  74.5337338
  33.2939466 133.2708863  73.9207500  33.0279919 133.4658939  75.3982871
  31.5189933 125.5608341  89.6560156  30.8430570 125.4602470  90.3262532
  32.3417567 125.4047555  90.1196154  23.2668792 131.7980278  82.2772672
  23.8522229 131.0523966  82.4100576  23.0693631 132.1084234  83.1609335
  26.1207448 134.8331525  77.2935114  25.4517823 135.3177653  76.8099154
  25.9820317 135.0800746  78.2078492  17.8586447 124.3685878  80.9977115
  17.8970547 123.8349469  81.7914233  17.3526740 123.8421083  80.3788092
  30.2612716 136.8675269  83.8917772  30.8131024 137.0306890  84.6566858
  30.6018910 137.4579706  83.2197797  25.2377209 119.2150418  84.4939657
  25.3018536 120.0765249  84.0817055  25.1744330 118.6024420  83.7612015
  24.7129482 121.2873551  88.1412691  25.3401521 120.9050628  88.7550216
  23.8557401 121.0687753  88.5068384  35.1123591 131.6936526  89.7466427
  35.6563495 132.3066484  89.2521382  34.5310435 132.2516105  90.2633440
  21.4895025 123.0949980  74.0731046  21.7848466 122.1860658  74.0198100
  20.5883061 123.0737719  73.7512048  33.3981104 134.8157244  80.8781454
  33.2732243 134.0146984  80.3692400  34.0560195 135.3103437  80.3895424
  25.0189272 121.1705977  80.0558595  24.2975858 121.7841944  79.9166068
  25.8082528 121.7063741  79.9775241  35.4616012 132.6166264  82.5061005
  34.5146347 132.4971615  82.4339331  35.8098785 131.7288762  82.5887266
  27.8215585 118.5060403  86.3299246  28.3449987 118.7522700  87.0925556
  27.6027919 119.3380438  85.9102384  23.2182866 120.7764078  74.1970371
  22.8895573 119.8961457  74.0145477  23.5722237 120.7211746  75.0846760
  32.4662445 132.4118980  78.7065357  32.3187408 131.4835688  78.8872927
  33.2915939 132.4339071  78.2222432  26.3324690 121.0637048  74.5645849
  26.6720762 121.5922969  73.8424457  26.7796810 121.4017454  75.3404415
  36.0696567 133.2347539  79.7930230  36.9943115 133.0290400  79.6554681
  35.9011870 132.9863940  80.7019571  29.0268130 119.4474098  84.0148917
  28.6864951 118.6481911  84.4169597  28.3207137 119.7475809  83.4425750
  29.6784602 116.5323411  82.4676240  30.5010671 116.0583889  82.3455130
  29.9222666 117.3113894  82.9674926  28.3192837 119.5611669  72.7639142
  29.0401199 119.9392922  72.2602859  27.6958141 120.2800546  72.8674120
  32.4623960 120.2656818  73.6997474  32.6787574 121.1481456  73.3986302
  31.9818027 119.8743031  72.9703116  27.2023181 123.2242531  80.2768219
  27.0567762 123.5382834  81.1692500  26.7248385 123.8427432  79.7239117
  29.0619564 120.2145079  80.3249108  29.0481133 119.3186173  79.9881406
  29.7791992 120.2215743  80.9587394  30.9145695 120.6482419  82.3702236
  30.6563472 121.5699490  82.3686566  30.3830735 120.2512854  83.0602700
  35.8591883 133.7533207  75.1492321  36.0328761 133.1879629  74.3966173
  36.3520775 134.5534101  74.9671811  21.6768843 125.7647876  83.2155880
  21.1322311 126.5407684  83.3476154  22.5548193 126.1118680  83.0575001
  28.4656460 119.0959460  75.5936678  28.5872371 118.1676106  75.7927566
  28.1758502 119.1098146  74.6814994  31.3347650 116.7814370  78.7303398
  31.3569347 116.8453703  77.7755378  31.7515709 115.9418879  78.9243904
  41.7131274 126.5169630  76.7682621  42.1562420 125.7676955  76.3701744
  40.8357785 126.5079766  76.3856353  36.8467056 133.0699971  72.2489219
  37.5417960 133.6906664  72.4676534  37.1890206 132.2195322  72.5241597
  22.4634865 124.8917772  86.1086037  21.7216601 125.0400407  86.6950667
  22.1427609 125.1526038  85.2452786  38.7458479 130.5199677  73.7776550
  39.2709803 130.8586949  73.0525870  38.6580831 129.5846692  73.5939685
  30.4078528 134.4333750  85.9066427  30.7165654 134.1882897  86.7789126
  31.2054010 134.6380389  85.4185297  30.4299140 136.5871660  78.1371803
  29.9904130 136.0948039  78.8304660  31.1807257 136.0444627  77.8963878
  22.9091479 132.7783201  78.1396431  23.7349499 132.4786973  77.7595075
  22.5585531 132.0090823  78.5886220  27.8773012 132.1309669  80.2094105
  27.2553021 131.4680374  79.9096333  28.5477879 132.1570801  79.5267753
  21.1100084 130.6969527  79.0985365  20.2731992 130.2691701  78.9169366
  21.0823729 130.8901970  80.0356156  27.9497539 120.6091457  89.8026611
  27.9985695 121.4853580  89.4204380  28.4920053 120.0668850  89.2298254
  38.4352385 131.1532580  89.0827748  37.6447929 131.1356719  88.5432247
  38.1985740 131.6920874  89.8376785  38.5550260 128.0025047  86.3960477
  38.6048265 127.8375054  87.3375999  38.4464183 127.1352306  86.0058357
  27.4386519 130.6813592  73.6852565  27.5874639 131.3649057  73.0319238
  28.2452962 130.6618682  74.2002021  35.8454022 123.9855975  87.7119783
  36.7463885 123.8462439  87.4203781  35.9201997 124.1510429  88.6517961
  30.1796828 121.3622829  86.5572970  29.3100137 121.6556395  86.2855558
  30.4156308 121.9463274  87.2780233  40.0568457 130.4221988  86.6402498
  39.7653265 130.7851969  87.4765959  39.4440588 129.7088996  86.4615830
  41.2564139 127.9874868  79.1605068  42.0911031 128.4264672  79.3242629
  41.3923268 127.5113521  78.3413314  38.3055645 125.5454603  85.1082556
  38.7809767 125.7382249  84.3001407  37.3821210 125.6013789  84.8625940
  25.1939152 126.7078770  74.6913634  24.9485194 125.8041100  74.8893844
  25.3635066 126.7095920  73.7493112  32.8835862 117.5802446  84.0738390
  33.4017805 118.3163473  83.7484878  32.5290994 117.8866440  84.9085149
  24.4634799 122.4407127  72.1899796  23.7704044 122.5151482  71.5339832
  24.2186551 121.6767471  72.7121313  33.1348456 114.0002729  79.5939287
  33.4150210 113.3325918  80.2199713  33.9199063 114.1931824  79.0813950
  30.9381924 133.1761723  71.1564313  30.3655891 133.7951910  70.7034785
  31.5114718 133.7261084  71.6904235  37.0057314 122.4220363  83.3410862
  37.9574737 122.5218460  83.3623086  36.8360764 121.6298631  83.8508946
  35.0271694 119.5075946  83.5270263  34.4321626 119.7880959  82.8316751
  34.7421390 119.9969847  84.2987004  34.1579184 133.4598873  72.2872895
  35.0909857 133.3944435  72.4905771  34.0702397 134.2955140  71.8287428
  36.7867201 132.7764743  69.2476843  36.7080832 132.4424607  70.1412601
  37.6076867 133.2686511  69.2468315  39.4845392 125.6426482  82.4553161
  39.4521712 124.7042483  82.6412845  40.0946016 125.7210519  81.7218986
  31.3228723 124.5122535  68.4980365  32.2687827 124.3828744  68.5668783
  30.9442968 123.7737197  68.9749793  39.6339880 122.4337526  82.5011444
  39.1178929 121.6495983  82.3141373  40.5179829 122.1056243  82.6657964
  37.2950607 116.1778541  78.4607257  37.0975428 115.8693630  79.3450589
  37.9050313 116.9040180  78.5905187  45.3021942 126.7042489  81.5959198
  46.0325330 126.4427777  82.1566901  44.6928887 125.9671211  81.6361266
  43.3837239 124.8450352  82.1933649  42.6570402 124.7106317  81.5850141
  42.9684526 125.1527181  82.9990367  31.2067415 128.5640282  89.9581022
  32.1270425 128.7418881  90.1521069  31.1716998 127.6196327  89.8060722
  29.5071640 122.4372512  68.4335251  28.6003095 122.1405625  68.5097964
  29.7847621 122.1402330  67.5669537  20.4249580 123.7578875  78.8834297
  20.1052365 122.9044183  78.5908671  19.8783008 123.9727453  79.6392264
  24.2029488 126.4741316  82.6003803  24.4215498 127.4058424  82.6191837
  24.6155262 126.1149291  83.3858607  31.1233706 116.9809402  74.5879492
  30.3134434 116.6356487  74.9634738  31.8118123 116.6716945  75.1767103
  33.0524254 116.0587448  76.2103788  33.6055293 116.4782902  76.8693812
  33.2894340 115.1323196  76.2526744  29.0757353 122.0474522  91.9906552
  28.9754080 122.9968879  91.9218643  28.8578895 121.7192761  91.1182622
  28.2770425 119.2959447  68.5747230  29.1389589 119.6214345  68.8343047
  28.4620769 118.5090943  68.0620296  20.2937840 127.3781787  80.8527419
  19.6001312 126.9635740  80.3397373  21.0410831 127.4202323  80.2560837
  36.4303061 118.1687974  75.7182453  35.8501730 118.8272778  75.3360505
  36.1638994 117.3465318  75.3069870  34.8806627 117.5693031  77.9203773
  35.3806406 117.6809566  77.1118092  35.5242235 117.2654084  78.5604582
  28.9388623 125.4771661  90.8071614  28.4555705 126.2772021  91.0135503
  29.0249562 125.4879606  89.8539058  22.2074583 127.3100041  78.7293433
  22.1845271 127.4087728  77.7775317  22.5175219 128.1565191  79.0510600
  24.8661961 129.3676196  82.8440048  25.8205214 129.3360138  82.7769979
  24.6674484 128.9066819  83.6590274  25.4561343 127.9377312  85.4110846
  26.2754232 128.4321390  85.4345683  25.7298151 127.0209280  85.3828413
  35.2127939 120.3288064  74.7738801  34.3253794 120.6137715  74.5558996
  35.6281928 120.1681827  73.9266078  38.5642475 120.3534585  78.4893140
  39.3402865 120.8431037  78.7617757  37.8390609 120.7792639  78.9465010
  41.0015034 121.0662204  79.5467081  41.5959525 120.8257940  78.8360389
  41.0741617 120.3469335  80.1740617  23.2212189 134.9095815  79.8610246
  23.0866657 134.1496216  79.2948244  22.8044252 135.6336715  79.3939035
  34.3571152 130.0932739  68.8686821  35.0607003 130.2982741  69.4844477
  33.6333801 130.6609500  69.1335905  35.1868963 125.8442600  74.9889091
  35.1304164 126.3011151  74.1496724  35.7397305 125.0833284  74.8111934
  38.9973769 121.6332332  75.8139211  38.7410703 121.2328967  76.6447418
  38.3726637 122.3476126  75.6889350  43.3086107 124.3728405  78.3210502
  42.7485664 124.4421594  79.0942064  42.7029610 124.1969390  77.6009998
  26.3781315 135.8065132  80.0728688  26.2613699 136.7510565  79.9707379
  25.5573762 135.5038694  80.4614488  36.2657850 130.5315268  70.9185281
  37.1003454 130.0996466  70.7362756  36.1042193 130.3597281  71.8462176
  35.9203742 127.0347381  72.2841620  35.8652546 126.8691653  71.3430064
  35.2949797 127.7423414  72.4403810  20.7096257 122.2715445  86.1103043
  21.3555121 121.7614399  86.5990268  20.5013408 123.0084127  86.6846468
  33.2349649 129.3396293  91.6095183  34.1040809 129.5136945  91.2481818
  32.7556401 130.1590710  91.4870912  29.2299868 116.5355490  71.8626939
  29.2178537 117.4797330  72.0195210  30.1223289 116.3525635  71.5686400
  27.4035829 136.4593394  83.2884617  28.3063076 136.4917004  83.6051112
  27.1773200 135.5293845  83.3030953  29.1589431 135.2124380  79.9494695
  28.2085062 135.2126242  79.8359068  29.4621918 134.4657115  79.4330730
  33.0451987 113.1298267  76.1172876  32.2784383 112.5756753  76.2629558
  33.4562692 113.2020135  76.9787027  25.0493748 119.4183063  90.2078057
  25.9125210 119.0619867  90.4181381  24.4759159 119.0796957  90.8953461
  44.8942125 141.0484919  81.0140458  45.5320535 140.9291666  80.3103798
  44.7762968 141.9965763  81.0728410  41.7031831 141.0012347  80.9501982
  41.3650343 140.8853412  80.0622517  42.5721599 140.6003512  80.9302989
  37.5618647 142.8547823  76.9398873  36.9983512 142.7637760  76.1715161
  37.4471042 142.0347728  77.4201366  42.1851614 142.1547199  86.9088188
  42.1740255 141.7599997  86.0368692  42.3472254 141.4213271  87.5021959
  35.1083079 144.3499015  79.7783094  35.9004371 144.0089840  79.3629393
  35.3479729 144.4593990  80.6985247  43.1418206 146.5218791  72.2513338
  42.4906185 147.1072872  71.8647352  43.9362568 147.0524986  72.3108376
  37.0673833 143.6107928  72.6500473  37.8404709 143.0636915  72.5113348
  37.4199232 144.4752178  72.8614934  38.9058875 144.9384311  85.8567372
  38.6148741 145.8429941  85.7414038  39.5415860 144.9800838  86.5711442
  39.8315082 142.3161159  82.4468732  40.4278654 142.0917181  81.7325695
  39.8890054 141.5745905  83.0494179  39.4040111 139.7700594  70.2818923
  39.6565631 139.2482116  69.5202386  38.4664670 139.6066740  70.3845606
  44.4483393 138.7736373  78.0893666  45.2346483 138.3555796  77.7384083
  44.7122098 139.6782465  78.2575314  44.6193471 144.2109223  72.7882323
  43.9839304 144.2843850  73.5003227  44.2890877 144.8002822  72.1101402
  49.8491821 138.7111606  78.9926644  50.5816993 138.1410823  79.2264474
  49.0931176 138.3233206  79.4333150  39.1236399 141.6728700  72.4843298
  39.0072657 140.9973604  73.1524382  39.2338659 141.1861074  71.6675451
  41.4667940 141.1338847  76.1889987  41.1026148 140.6069468  76.9002908
  42.3235056 140.7437316  76.0156472  47.3717241 132.4233180  83.4521253
  47.0400566 133.2928591  83.2282468  46.7762854 132.1069464  84.1315283
  41.1073427 136.1628747  71.1851335  41.2747830 137.0308984  71.5521806
  40.9170596 136.3256029  70.2612625  43.8648760 144.6245726  82.8517166
  43.5649484 145.5270765  82.7432973  43.5199820 144.3577909  83.7038319
  37.3161242 141.0759523  78.8853870  36.3911738 140.9435737  79.0931562
  37.5645655 141.8553742  79.3823813  47.2645904 137.1428266  80.5314603
  46.3562782 137.0743675  80.2373364  47.2133500 137.6200211  81.3596428
  41.0862648 138.6186405  72.1698002  40.9662273 139.0643455  73.0083482
  40.3915237 138.9671722  71.6111540  34.6770053 140.7192796  79.7197659
  34.8062434 140.9727275  80.6337071  33.9967504 141.3120504  79.4002314
  41.3386770 138.5617912  88.4749500  40.5620104 139.1211832  88.4652365
  41.9777333 139.0474695  88.9964370  49.1307551 135.3444705  82.3092477
  48.4881931 135.6377238  81.6632272  48.6262479 135.2297625  83.1145674
  46.7847714 139.0907878  72.9978336  47.6965570 139.3235265  72.8226034
  46.2757361 139.6744922  72.4353415  39.5933142 141.3703365  88.0367467
  40.3347827 141.9088409  87.7602291  38.8870128 141.9969654  88.1939019
  45.0688482 143.5132506  86.6339629  45.4771838 143.0714916  85.8894261
  44.3465743 142.9385133  86.8873822  41.4219552 138.4505112  84.0073186
  42.2680747 138.8744526  84.1507835  41.3618190 137.7938737  84.7011749
  45.3917297 144.0733696  80.3891918  44.7626159 144.2379410  79.6867986
  45.0042959 144.4875306  81.1602882  49.2706529 145.0088134  77.7436281
  48.5857567 145.3887035  77.1933315  49.3550378 145.6183461  78.4768229
  44.5718997 136.1109481  85.6654359  44.3279929 136.8651541  85.1288635
  44.8478928 136.4894828  86.5001606  46.5257460 142.6548093  84.3431625
  46.7374355 143.2979853  83.6666006  46.4787208 141.8210410  83.8753555
  44.1283689 135.2665914  81.2468197  43.2668168 135.5647167  81.5384935
  44.1546124 135.4836313  80.3149230  40.9445258 143.8108104  77.6542003
  41.4083604 144.0895807  76.8646625  40.6802057 142.9091549  77.4715093
  37.8369340 143.3579586  80.5921766  38.4070697 143.7866854  79.9539251
  38.4277451 143.0762171  81.2905952  39.8814145 139.9331257  74.4631568
  40.5838188 140.3852300  74.9305494  39.5494773 139.2915076  75.0911461
  38.3294506 138.5243013  88.8382777  37.6993167 139.2059294  89.0718174
  38.2230594 138.4126095  87.8935916  33.6239479 138.1914809  79.7648701
  32.8338532 138.4472338  79.2888812  34.1150726 139.0063147  79.8700742
  47.6403288 145.5320049  82.5153982  48.4620732 145.1300236  82.2336664
  47.6365691 145.4288283  83.4670098  35.5754224 138.5559389  76.7232178
  34.7785387 138.6678083  77.2415674  35.3479816 138.8946041  75.8573069
  41.4059892 145.0804092  84.6714693  41.4704324 145.5424499  85.5072865
  40.6970815 144.4501457  84.7997003  31.9077182 138.4445300  82.1963692
  32.1585220 139.3292310  82.4621268  32.4436730 138.2649901  81.4238784
  55.7309281 141.8758797  78.8638954  54.9772990 141.3066195  78.7082958
  55.8656822 141.8421462  79.8109588  41.1207909 146.7472199  74.5393673
  40.9853584 147.5923735  74.9678521  41.6617722 146.9491477  73.7759607
  37.6075249 132.8263779  91.2008028  37.2142194 132.2729978  91.8755673
  38.4241389 133.1374358  91.5914546  34.5737307 144.2647637  75.1121598
  35.0861827 145.0590888  75.2627163  35.2260019 143.5673928  75.0455200
  36.3832191 147.3813394  77.1944351  36.5598820 148.3031358  77.0065335
  37.1789025 147.0671813  77.6238731  40.5243210 134.2421658  88.7928285
  41.2652923 134.8428811  88.7132747  40.7561133 133.4999296  88.2346327
  35.6684548 139.4278026  87.0706515  35.5538063 138.5263283  87.3713613
  34.8129066 139.6741722  86.7191331  42.7476386 147.3695766  88.6694015
  42.3040240 146.5832144  88.3514920  43.4093599 147.5574916  88.0037906
  44.8457624 147.6498566  86.6975416  44.8276099 148.4707447  86.2055686
  45.7677544 147.5252641  86.9225558  41.3030678 145.1642695  87.5398925
  41.8359015 144.4030983  87.3098233  40.7744759 144.8716347  88.2823079
  44.4700373 130.2702761  83.0692567  44.1264642 131.1604403  82.9931677
  44.8379335 130.0804419  82.2062152  32.5386223 142.5936292  75.8881169
  33.3761445 143.0033300  75.6714876  32.7164491 141.6535734  75.8581363
  44.4350655 140.2611372  71.5765002  43.9197279 141.0315977  71.8153389
  44.1627964 139.5876508  72.1998063  42.0197767 135.1061073  76.6350240
  41.1639363 134.7167923  76.4555879  42.4324718 135.1853034  75.7750026
  43.5496913 132.6407416  81.0341800  43.0461709 132.6037552  80.2209605
  43.8427520 133.5500159  81.0938456  39.7939799 132.7246146  80.0407982
  40.6592796 132.5288955  79.6813871  39.8617308 132.4956498  80.9677338
  49.4084930 143.0143727  73.5118175  48.6314372 142.6754886  73.0673337
  50.0876411 143.0196350  72.8373140  44.2236959 138.1338464  73.4024783
  43.9187094 138.4484614  74.2534926  45.1767401 138.2119884  73.4452116
  42.6683390 144.2928688  75.0517737  42.1404752 143.5581447  74.7390974
  42.1670893 145.0703364  74.8057705  47.6476237 142.4877708  80.1684783
  46.9899911 143.1776970  80.2564912  48.4516636 142.8774140  80.5118769
  37.4002118 134.9548354  77.4124348  37.9745870 134.7323536  76.6797541
  37.9873101 135.0237049  78.1652950  46.4581695 140.8422081  78.2188725
  46.9713577 141.4752073  78.7210435  47.1082919 140.2423276  77.8532085
  37.7271705 136.9852815  71.4320234  36.8909017 137.3227502  71.7529508
  37.5876475 136.8501795  70.4947371  39.7024786 131.8289603  76.1399418
  39.0489198 131.5138620  75.5156033  39.6605260 131.2065343  76.8659241
  40.8135991 142.1108898  68.0552710  39.9063052 141.8798151  68.2543859
  41.3107023 141.3146517  68.2426691  42.9362526 138.3171536  80.4647065
  42.0185088 138.5386483  80.3068753  43.3522670 138.3917847  79.6058773
  43.7197574 139.7162952  75.5949746  44.4669393 140.2284349  75.2856868
  43.9889163 139.3947005  76.4554139  41.9924224 142.2121493  72.5776700
  41.0835443 141.9280526  72.6749170  42.0219308 142.6320571  71.7180007
  47.2243492 145.8228082  76.3467868  46.7705819 144.9818992  76.4033058
  46.5937458 146.4589481  76.6842648  46.1676411 136.7520068  77.5768535
  45.4299168 136.2397455  77.9078778  46.4203185 136.3120450  76.7651812
  45.6676431 147.6604579  77.2817686  45.9599405 148.2209636  76.5630051
  46.1775051 147.9533140  78.0370845  46.2688038 129.5296320  78.1710304
  46.5746915 128.6693684  77.8836219  46.9940643 130.1213941  77.9709298
  32.5612394 139.9327007  76.5591902  32.3636794 139.3396368  75.8342969
  32.0059058 139.6279217  77.2767841  40.5409118 139.8250113  78.6786495
  40.5957728 138.8723950  78.6028972  39.7300320 139.9809553  79.1627794
  41.6900312 143.7530237  69.9164779  41.2519742 143.0366095  69.4570416
  42.4310753 143.9806351  69.3549870  38.4801478 138.4427173  76.4376874
  37.6669344 138.7421344  76.8442066  38.9760472 138.0482862  77.1551356
  40.6310056 148.4384930  78.3711139  40.5886235 148.6645776  77.4419671
  41.5472755 148.2048305  78.5196940  44.0775690 138.9068998  85.2691768
  44.4325077 139.1340471  86.1286234  44.7247821 139.2387374  84.6469023
  49.8073427 142.0287434  75.9741097  49.6691325 142.2189030  75.0462286
  49.4509646 142.7906816  76.4309148  37.9715553 136.0145529  82.0538109
  38.6114932 135.8734288  81.3561072  37.1393083 135.7280042  81.6776711
  49.8342806 144.0963961  80.9852369  50.2679313 144.0039250  81.8335423
  50.5474387 144.0721461  80.3472385  38.7475857 145.3147959  78.1673102
  39.5416455 144.8198279  77.9655677  38.0367549 144.7865822  77.8040807
  43.5670701 147.6966055  82.5185469  43.6207723 148.2656991  83.2863185
  42.6985483 147.8667940  82.1539506  35.0558620 139.4591041  74.2432854
  34.1256208 139.3975496  74.4602816  35.1516092 138.9366994  73.4469496
  34.9744169 135.9845854  76.8311096  35.2350987 136.8991187  76.7220256
  35.7961342 135.5170296  76.9807709  36.4469095 137.3983611  84.0009920
  37.1192148 137.1900973  83.3522569  35.6198881 137.2005697  83.5615153
  50.6958356 144.1387661  83.5185254  50.8894246 145.0433472  83.7644529
  50.5958974 143.6795080  84.3523839  42.3494667 134.0245552  86.0175581
  41.7022582 134.7235501  85.9240058  43.1195682 134.4581696  86.3851830
  45.7573465 144.2894404  89.0926135  45.6058971 144.0604956  88.1756218
  45.7478144 145.2465005  89.1057480  42.5258801 141.8626317  84.0772401
  43.4550861 142.0137476  83.9041368  42.1049831 141.9510338  83.2221048
  41.3247133 145.8876981  81.8470939  41.1858218 145.5195766  82.7196877
  40.5361729 146.4024621  81.6754896  42.8752348 145.2658584  79.2359776
  42.5402180 145.2259354  80.1317426  42.3756294 144.6003300  78.7630187
  36.8496592 140.6726214  84.7612358  36.7116390 139.9406453  85.3623897
  37.7601515 140.5835114  84.4796545  45.8111540 142.6114618  69.5096836
  45.1940710 141.8861446  69.4129889  45.3428028 143.3723978  69.1663910
  39.4778892 140.3846173  84.2496037  40.1878511 139.7439365  84.2082656
  39.4348201 140.6359068  85.1722218  47.4665671 147.3213527  87.1702616
  47.4078217 146.6372747  86.5033200  47.8685190 148.0632517  86.7183242
  38.1907826 137.3711391  86.0691677  37.6545183 136.9202130  86.7213273
  37.6024535 137.5057300  85.3262141  37.6010085 136.8300042  68.6318140
  36.7239552 136.7088843  68.2680387  38.0767838 136.0386121  68.3797029
  47.4683078 145.2853110  85.4016596  46.5809857 144.9479032  85.5242995
  48.0381630 144.5536142  85.6385362  29.1212226 141.6177202  78.7259648
  29.8083265 141.3038932  78.1380663  28.9660354 142.5218567  78.4526899
  33.9246948 136.5067399  83.1544671  33.8405136 135.8993068  82.4195081
  33.1029654 136.9976417  83.1554168  40.7874011 149.1826333  75.8780661
  40.0041533 149.7248013  75.9718885  41.4866757 149.7000312  76.2774902
  44.0970662 134.9920962  78.5214866  44.5939361 134.2390925  78.2015937
  43.3257643 135.0285279  77.9558076  51.9500419 140.6961328  80.1633158
  51.9390295 141.5786043  79.7927091  51.0817798 140.3432879  79.9687695
  43.4582915 149.8441397  84.5235998  44.1710888 150.4788862  84.4511899
  42.9672944 149.9405263  83.7076000  45.1800442 143.7492650  76.0953290
  44.2456721 143.8694112  75.9257994  45.3577111 142.8465116  75.8313300
  40.6805630 137.1338345  78.2486551  40.3103418 136.5809386  78.9367456
  41.1764723 136.5296479  77.6961551  48.5672994 139.5909969  76.6303324
  49.0333446 140.4237960  76.5563626  49.0180494 139.1254950  77.3348582
  38.5094829 147.5935840  85.3441569  39.2104288 148.2272323  85.4970963
  38.0389944 147.9350572  84.5837208  46.6349225 145.9353790  73.6289476
  46.9109069 145.8210385  74.5383350  45.7653723 145.5371275  73.5901649
  46.5389656 131.9590556  80.6694225  45.6252736 132.1894783  80.8376432
  46.9682758 132.0429000  81.5208258  46.3096115 140.1480448  83.1694119
  45.6567565 140.3956355  82.5146572  46.6876495 139.3344586  82.8356596
  43.2703289 150.1840141  77.2722289  43.4525683 149.3661797  77.7350042
  44.0936275 150.4007833  76.8347179  43.6045454 149.1108326  74.5337338
  44.1333221 148.6000781  73.9207500  43.8673674 148.7950856  75.3982871
  42.3583688 140.8900259  89.6560156  41.6824325 140.7894388  90.3262532
  43.1811322 140.7339473  90.1196154  34.1062547 147.1272195  82.2772672
  34.6915984 146.3815883  82.4100576  33.9087385 147.4376152  83.1609335
  28.6980202 139.6977796  80.9977115  28.7364301 139.1641386  81.7914233
  28.1920495 139.1713001  80.3788092  36.0770964 134.5442336  84.4939657
  36.1412290 135.4057167  84.0817055  36.0138084 133.9316338  83.7612015
  35.5523237 136.6165469  88.1412691  36.1795275 136.2342546  88.7550216
  34.6951155 136.3979671  88.5068384  45.9517345 147.0228444  89.7466427
  46.4957249 147.6358402  89.2521382  45.3704190 147.5808022  90.2633440
  32.3288779 138.4241898  74.0731046  32.6242220 137.5152576  74.0198100
  31.4276815 138.4029637  73.7512048  44.2374858 150.1449162  80.8781454
  44.1125997 149.3438902  80.3692400  44.8953949 150.6395355  80.3895424
  35.8583026 136.4997894  80.0558595  35.1369612 137.1133862  79.9166068
  36.6476282 137.0355659  79.9775241  46.3009766 147.9458182  82.5061005
  45.3540102 147.8263533  82.4339331  46.6492540 147.0580680  82.5887266
  38.6609340 133.8352321  86.3299246  39.1843742 134.0814617  87.0925556
  38.4421673 134.6672356  85.9102384  34.0576621 136.1055995  74.1970371
  33.7289327 135.2253374  74.0145477  34.4115992 136.0503664  75.0846760
  43.3056200 147.7410898  78.7065357  43.1581162 146.8127606  78.8872927
  44.1309693 147.7630989  78.2222432  37.1718444 136.3928965  74.5645849
  37.5114517 136.9214886  73.8424457  37.6190564 136.7309371  75.3404415
  46.9090322 148.5639457  79.7930230  47.8336869 148.3582318  79.6554681
  46.7405625 148.3155858  80.7019571  39.8661885 134.7766016  84.0148917
  39.5258705 133.9773829  84.4169597  39.1600891 135.0767727  83.4425750
  40.5178357 131.8615328  82.4676240  41.3404426 131.3875807  82.3455130
  40.7616420 132.6405812  82.9674926  39.1586591 134.8903587  72.7639142
  39.8794954 135.2684840  72.2602859  38.5351895 135.6092464  72.8674120
  43.3017714 135.5948736  73.6997474  43.5181328 136.4773374  73.3986302
  42.8211781 135.2034949  72.9703116  38.0416935 138.5534449  80.2768219
  37.8961516 138.8674752  81.1692500  37.5642139 139.1719349  79.7239117
  39.9013318 135.5436997  80.3249108  39.8874887 134.6478090  79.9881406
  40.6185746 135.5507661  80.9587394  41.7539449 135.9774337  82.3702236
  41.4957227 136.8991408  82.3686566  41.2224489 135.5804772  83.0602700
  46.6985638 149.0825124  75.1492321  46.8722515 148.5171547  74.3966173
  47.1914529 149.8826019  74.9671811  32.5162598 141.0939793  83.2155880
  31.9716066 141.8699601  83.3476154  33.3941947 141.4410598  83.0575001
  39.3050214 134.4251377  75.5936678  39.4266125 133.4968023  75.7927566
  39.0152257 134.4390063  74.6814994  42.1741405 132.1106288  78.7303398
  42.1963101 132.1745621  77.7755378  42.5909464 131.2710796  78.9243904
  52.5525029 141.8461547  76.7682621  52.9956175 141.0968872  76.3701744
  51.6751539 141.8371684  76.3856353  47.6860810 148.3991889  72.2489219
  48.3811715 149.0198581  72.4676534  48.0283960 147.5487240  72.5241597
  33.3028619 140.2209690  86.1086037  32.5610355 140.3692325  86.6950667
  32.9821364 140.4817955  85.2452786  49.5852233 145.8491594  73.7776550
  50.1103557 146.1878867  73.0525870  49.4974586 144.9138610  73.5939685
  41.2472282 149.7625668  85.9066427  41.5559409 149.5174815  86.7789126
  42.0447764 149.9672306  85.4185297  38.7166766 147.4601587  80.2094105
  38.0946776 146.7972292  79.9096333  39.3871633 147.4862718  79.5267753
  31.9493838 146.0261445  79.0985365  31.1125746 145.5983619  78.9169366
  31.9217484 146.2193888  80.0356156  38.7891294 135.9383375  89.8026611
  38.8379449 136.8145497  89.4204380  39.3313808 135.3960768  89.2298254
  49.2746139 146.4824498  89.0827748  48.4841683 146.4648637  88.5432247
  49.0379494 147.0212792  89.8376785  49.3944014 143.3316964  86.3960477
  49.4442019 143.1666972  87.3375999  49.2857938 142.4644223  86.0058357
  38.2780273 146.0105510  73.6852565  38.4268394 146.6940974  73.0319238
  39.0846717 145.9910600  74.2002021  46.6847777 139.3147892  87.7119783
  47.5857640 139.1754357  87.4203781  46.7595751 139.4802347  88.6517961
  41.0190582 136.6914747  86.5572970  40.1493892 136.9848313  86.2855558
  41.2550063 137.2755192  87.2780233  50.8962211 145.7513906  86.6402498
  50.6047020 146.1143886  87.4765959  50.2834343 145.0380914  86.4615830
  52.0957894 143.3166786  79.1605068  52.9304785 143.7556590  79.3242629
  52.2317022 142.8405439  78.3413314  49.1449400 140.8746520  85.1082556
  49.6203521 141.0674167  84.3001407  48.2214965 140.9305706  84.8625940
  36.0332906 142.0370688  74.6913634  35.7878948 141.1333018  74.8893844
  36.2028821 142.0387838  73.7493112  43.7229616 132.9094364  84.0738390
  44.2411560 133.6455391  83.7484878  43.3684749 133.2158357  84.9085149
  35.3028554 137.7699045  72.1899796  34.6097799 137.8443400  71.5339832
  35.0580306 137.0059389  72.7121313  43.9742210 129.3294646  79.5939287
  44.2543964 128.6617836  80.2199713  44.7592817 129.5223742  79.0813950
  41.7775679 148.5053640  71.1564313  41.2049646 149.1243828  70.7034785
  42.3508472 149.0553002  71.6904235  47.8451069 137.7512280  83.3410862
  48.7968491 137.8510378  83.3623086  47.6754519 136.9590549  83.8508946
  45.8665448 134.8367864  83.5270263  45.2715380 135.1172876  82.8316751
  45.5815145 135.3261765  84.2987004  44.9972939 148.7890791  72.2872895
  45.9303612 148.7236352  72.4905771  44.9096151 149.6247057  71.8287428
  47.6260955 148.1056661  69.2476843  47.5474587 147.7716524  70.1412601
  48.4470622 148.5978429  69.2468315  50.3239146 140.9718400  82.4553161
  50.2915466 140.0334401  82.6412845  50.9339770 141.0502437  81.7218986
  42.1622477 139.8414453  68.4980365  43.1081582 139.7120661  68.5668783
  41.7836722 139.1029115  68.9749793  50.4733635 137.7629444  82.5011444
  49.9572683 136.9787900  82.3141373  51.3573583 137.4348160  82.6657964
  48.1344362 131.5070459  78.4607257  47.9369183 131.1985547  79.3450589
  48.7444067 132.2332098  78.5905187  56.1415696 142.0334407  81.5959198
  56.8719085 141.7719695  82.1566901  55.5322642 141.2963129  81.6361266
  54.2230993 140.1742270  82.1933649  53.4964157 140.0398235  81.5850141
  53.8078280 140.4819098  82.9990367  42.0461170 143.8932199  89.9581022
  42.9664179 144.0710798  90.1521069  42.0110753 142.9488245  89.8060722
  40.3465394 137.7664430  68.4335251  39.4396850 137.4697542  68.5097964
  40.6241375 137.4694248  67.5669537  31.2643335 139.0870793  78.8834297
  30.9446119 138.2336101  78.5908671  30.7176763 139.3019371  79.6392264
  35.0423242 141.8033234  82.6003803  35.2609252 142.7350342  82.6191837
  35.4549016 141.4441208  83.3858607  41.9627460 132.3101319  74.5879492
  41.1528188 131.9648404  74.9634738  42.6511877 132.0008863  75.1767103
  43.8918008 131.3879366  76.2103788  44.4449047 131.8074819  76.8693812
  44.1288095 130.4615114  76.2526744  39.9151108 137.3766440  91.9906552
  39.8147835 138.3260797  91.9218643  39.6972650 137.0484679  91.1182622
  39.1164179 134.6251365  68.5747230  39.9783343 134.9506263  68.8343047
  39.3014523 133.8382861  68.0620296  31.1331595 142.7073704  80.8527419
  30.4395066 142.2927657  80.3397373  31.8804586 142.7494241  80.2560837
  47.2696815 133.4979891  75.7182453  46.6895485 134.1564695  75.3360505
  47.0032748 132.6757236  75.3069870  45.7200382 132.8984949  77.9203773
  46.2200160 133.0101483  77.1118092  46.3635990 132.5946002  78.5604582
  39.7782378 140.8063579  90.8071614  39.2949459 141.6063939  91.0135503
  39.8643317 140.8171523  89.8539058  33.0468337 142.6391958  78.7293433
  33.0239025 142.7379645  77.7775317  33.3568974 143.4857109  79.0510600
  35.7055715 144.6968113  82.8440048  36.6598969 144.6652056  82.7769979
  35.5068239 144.2358737  83.6590274  36.2955097 143.2669229  85.4110846
  37.1147986 143.7613308  85.4345683  36.5691905 142.3501197  85.3828413
  46.0521693 135.6579982  74.7738801  45.1647549 135.9429632  74.5558996
  46.4675683 135.4973745  73.9266078  49.4036230 135.6826503  78.4893140
  50.1796620 136.1722955  78.7617757  48.6784364 136.1084557  78.9465010
  51.8408788 136.3954122  79.5467081  52.4353279 136.1549858  78.8360389
  51.9135372 135.6761252  80.1740617  45.1964907 145.4224656  68.8686821
  45.9000757 145.6274659  69.4844477  44.4727556 145.9901418  69.1335905
  46.0262717 141.1734518  74.9889091  45.9697919 141.6303069  74.1496724
  46.5791060 140.4125202  74.8111934  49.8367523 136.9624249  75.8139211
  49.5804457 136.5620885  76.6447418  49.2120391 137.6768043  75.6889350
  54.1479861 139.7020323  78.3210502  53.5879419 139.7713512  79.0942064
  53.5423364 139.5261307  77.6009998  47.1051604 145.8607185  70.9185281
  47.9397208 145.4288384  70.7362756  46.9435947 145.6889199  71.8462176
  46.7597497 142.3639299  72.2841620  46.7046300 142.1983570  71.3430064
  46.1343552 143.0715332  72.4403810  31.5490012 137.6007363  86.1103043
  32.1948875 137.0906317  86.5990268  31.3407163 138.3376045  86.6846468
  44.0743404 144.6688211  91.6095183  44.9434563 144.8428863  91.2481818
  43.5950155 145.4882627  91.4870912  40.0693622 131.8647408  71.8626939
  40.0572292 132.8089248  72.0195210  40.9617044 131.6817553  71.5686400
  43.8845741 128.4590184  76.1172876  43.1178137 127.9048671  76.2629558
  44.2956446 128.5312053  76.9787027  35.8887503 134.7474980  90.2078057
  36.7518964 134.3911785  90.4181381  35.3152913 134.4088875  90.8953461
  55.2877148 154.1028290  78.0893666  56.0740237 153.6847714  77.7384083
  55.5515852 155.0074383  78.2575314  60.6885575 154.0403524  78.9926644
  61.4210747 153.4702740  79.2264474  59.9324931 153.6525124  79.4333150
  58.2110995 147.7525098  83.4521253  57.8794320 148.6220509  83.2282468
  57.6156609 147.4361382  84.1315283  51.9467182 151.4920665  71.1851335
  52.1141584 152.3600901  71.5521806  51.7564351 151.6547947  70.2612625
  58.1039659 152.4720184  80.5314603  57.1956536 152.4035592  80.2373364
  58.0527255 152.9492129  81.3596428  59.9701305 150.6736622  82.3092477
  59.3275685 150.9669155  81.6632272  59.4656234 150.5589543  83.1145674
  57.6241469 154.4199795  72.9978336  58.5359325 154.6527182  72.8226034
  57.1151116 155.0036840  72.4353415  52.2613307 153.7797030  84.0073186
  53.1074502 154.2036444  84.1507835  52.2011944 153.1230654  84.7011749
  55.4112752 151.4401398  85.6654359  55.1673684 152.1943459  85.1288635
  55.6872682 151.8186746  86.5001606  54.9677444 150.5957831  81.2468197
  54.1061923 150.8939085  81.5384935  54.9939878 150.8128230  80.3149230
  66.5703036 157.2050715  78.8638954  65.8166744 156.6358113  78.7082958
  66.7050577 157.1713379  79.8109588  48.4469003 148.1555697  91.2008028
  48.0535949 147.6021895  91.8755673  49.2635144 148.4666275  91.5914546
  51.3636964 149.5713576  88.7928285  52.1046678 150.1720729  88.7132747
  51.5954887 148.8291214  88.2346327  55.3094127 145.5994679  83.0692567
  54.9658397 146.4896321  82.9931677  55.6773090 145.4096337  82.2062152
  52.8591521 150.4352991  76.6350240  52.0033117 150.0459841  76.4555879
  53.2718473 150.5144952  75.7750026  54.3890668 147.9699334  81.0341800
  53.8855463 147.9329469  80.2209605  54.6821274 148.8792077  81.0938456
  50.6333554 148.0538064  80.0407982  51.4986550 147.8580872  79.6813871
  50.7011062 147.8248416  80.9677338  55.0630713 153.4630382  73.4024783
  54.7580849 153.7776531  74.2534926  56.0161155 153.5411802  73.4452116
  48.2395873 150.2840272  77.4124348  48.8139624 150.0615453  76.6797541
  48.8266855 150.3528966  78.1652950  48.5665460 152.3144733  71.4320234
  47.7302772 152.6519419  71.7529508  48.4270229 152.1793713  70.4947371
  50.5418540 147.1581521  76.1399418  49.8882953 146.8430538  75.5156033
  50.4999014 146.5357261  76.8659241  53.7756281 153.6463454  80.4647065
  52.8578842 153.8678401  80.3068753  54.1916424 153.7209765  79.6058773
  57.0070166 152.0811986  77.5768535  56.2692922 151.5689372  77.9078778
  57.2596939 151.6412368  76.7651812  57.1081793 144.8588238  78.1710304
  57.4140670 143.9985602  77.8836219  57.8334398 145.4505858  77.9709298
  54.9169444 154.2360915  85.2691768  55.2718832 154.4632388  86.1286234
  55.5641575 154.5679292  84.6469023  48.8109307 151.3437446  82.0538109
  49.4508687 151.2026206  81.3561072  47.9786838 151.0571960  81.6776711
  53.1888421 149.3537469  86.0175581  52.5416336 150.0527419  85.9240058
  53.9589436 149.7873613  86.3851830  49.0301581 152.7003309  86.0691677
  48.4938938 152.2494047  86.7213273  48.4418289 152.8349218  85.3262141
  48.4403840 152.1591960  68.6318140  47.5633306 152.0380761  68.2680387
  48.9161593 151.3678038  68.3797029  54.9364416 150.3212880  78.5214866
  55.4333116 149.5682842  78.2015937  54.1651398 150.3577197  77.9558076
  62.7894173 156.0253246  80.1633158  62.7784050 156.9077961  79.7927091
  61.9211553 155.6724796  79.9687695  51.5199385 152.4630263  78.2486551
  51.1497172 151.9101303  78.9367456  52.0158477 151.8588396  77.6961551
  59.4066748 154.9201886  76.6303324  59.8727200 155.7529878  76.5563626
  59.8574249 154.4546868  77.3348582  57.3783411 147.2882473  80.6694225
  56.4646491 147.5186700  80.8376432  57.8076512 147.3720918  81.5208258
  57.1489869 155.4772365  83.1694119  56.4961320 155.7248273  82.5146572
  57.5270249 154.6636504  82.8356596  46.9164718 149.8734254  84.4939657
  46.9806045 150.7349085  84.0817055  46.8531839 149.2608255  83.7612015
  46.3916991 151.9457386  88.1412691  47.0189030 151.5634464  88.7550216
  45.5344910 151.7271588  88.5068384  49.5003094 149.1644238  86.3299246
  50.0237496 149.4106535  87.0925556  49.2815428 149.9964273  85.9102384
  44.8970375 151.4347913  74.1970371  44.5683082 150.5545292  74.0145477
  45.2509746 151.3795582  75.0846760  48.0112199 151.7220883  74.5645849
  48.3508271 152.2506804  73.8424457  48.4584319 152.0601289  75.3404415
  50.7055639 150.1057934  84.0148917  50.3652460 149.3065747  84.4169597
  49.9994646 150.4059644  83.4425750  51.3572111 147.1907246  82.4676240
  52.1798180 146.7167724  82.3455130  51.6010175 147.9697730  82.9674926
  49.9980346 150.2195504  72.7639142  50.7188708 150.5976757  72.2602859
  49.3745650 150.9384381  72.8674120  54.1411469 150.9240653  73.6997474
  54.3575083 151.8065291  73.3986302  53.6605536 150.5326867  72.9703116
  50.7407073 150.8728915  80.3249108  50.7268642 149.9770008  79.9881406
  51.4579501 150.8799578  80.9587394  52.5933204 151.3066255  82.3702236
  52.3350981 152.2283325  82.3686566  52.0618244 150.9096689  83.0602700
  50.1443969 149.7543295  75.5936678  50.2659880 148.8259941  75.7927566
  49.8546011 149.7681981  74.6814994  53.0135159 147.4398205  78.7303398
  53.0356856 147.5037538  77.7755378  53.4303218 146.6002714  78.9243904
  63.3918783 157.1753465  76.7682621  63.8349929 156.4260790  76.3701744
  62.5145294 157.1663601  76.3856353  49.6285048 151.2675292  89.8026611
  49.6773204 152.1437415  89.4204380  50.1707562 150.7252685  89.2298254
  57.5241531 154.6439810  87.7119783  58.4251394 154.5046275  87.4203781
  57.5989506 154.8094265  88.6517961  51.8584337 152.0206665  86.5572970
  50.9887646 152.3140231  86.2855558  52.0943817 152.6047110  87.2780233
  59.9843154 156.2038438  85.1082556  60.4597276 156.3966084  84.3001407
  59.0608719 156.2597624  84.8625940  54.5623371 148.2386282  84.0738390
  55.0805314 148.9747309  83.7484878  54.2078503 148.5450275  84.9085149
  54.8135965 144.6586564  79.5939287  55.0937718 143.9909753  80.2199713
  55.5986572 144.8515660  79.0813950  58.6844823 153.0804198  83.3410862
  59.6362246 153.1802296  83.3623086  58.5148273 152.2882467  83.8508946
  56.7059203 150.1659781  83.5270263  56.1109135 150.4464794  82.8316751
  56.4208899 150.6553682  84.2987004  61.1632901 156.3010318  82.4553161
  61.1309221 155.3626319  82.6412845  61.7733524 156.3794355  81.7218986
  61.3127389 153.0921361  82.5011444  60.7966438 152.3079818  82.3141373
  62.1967338 152.7640078  82.6657964  58.9738116 146.8362377  78.4607257
  58.7762937 146.5277465  79.3450589  59.5837822 147.5624016  78.5905187
  66.9809451 157.3626325  81.5959198  67.7112839 157.1011613  82.1566901
  66.3716396 156.6255047  81.6361266  65.0624748 155.5034187  82.1933649
  64.3357911 155.3690152  81.5850141  64.6472035 155.8111016  82.9990367
  51.1859149 153.0956347  68.4335251  50.2790604 152.7989460  68.5097964
  51.4635130 152.7986165  67.5669537  52.8021215 147.6393237  74.5879492
  51.9921943 147.2940322  74.9634738  53.4905632 147.3300781  75.1767103
  54.7311763 146.7171284  76.2103788  55.2842801 147.1366737  76.8693812
  54.9681849 145.7907032  76.2526744  50.7544862 152.7058357  91.9906552
  50.6541589 153.6552714  91.9218643  50.5366404 152.3776596  91.1182622
  49.9557933 149.9543282  68.5747230  50.8177097 150.2798181  68.8343047
  50.1408278 149.1674778  68.0620296  58.1090570 148.8271809  75.7182453
  57.5289239 149.4856613  75.3360505  57.8426503 148.0049153  75.3069870
  56.5594136 148.2276867  77.9203773  57.0593915 148.3393401  77.1118092
  57.2029744 147.9237919  78.5604582  56.8915448 150.9871899  74.7738801
  56.0041303 151.2721550  74.5558996  57.3069437 150.8265663  73.9266078
  60.2429984 151.0118420  78.4893140  61.0190374 151.5014873  78.7617757
  59.5178118 151.4376474  78.9465010  62.6802543 151.7246039  79.5467081
  63.2747034 151.4841775  78.8360389  62.7529126 151.0053170  80.1740617
  60.6761278 152.2916167  75.8139211  60.4198212 151.8912803  76.6447418
  60.0514146 153.0059961  75.6889350  64.9873615 155.0312240  78.3210502
  64.4273173 155.1005430  79.0942064  64.3817119 154.8553225  77.6009998
  50.9087377 147.1939325  71.8626939  50.8966046 148.1381165  72.0195210
  51.8010798 147.0109471  71.5686400  54.7239496 143.7882102  76.1172876
  53.9571892 143.2340589  76.2629558  55.1350201 143.8603971  76.9787027
  46.7281257 150.0766898  90.2078057  47.5912719 149.7203703  90.4181381
  46.1546668 149.7380793  90.8953461   1.5340510  42.2361331  65.5884260
   0.7804218  41.6668729  65.4328265   1.6688051  42.2023996  66.5354895
   1.9446925  42.3936941  68.3204505   2.6750313  42.1322229  68.8812208
   1.3353870  41.6565663  68.3606573   1.5367108  56.7379371  67.7385764
   2.1745518  56.6186118  67.0349105   1.4187951  57.6860215  67.7973717
   1.0908377  54.4630825  64.8138972   1.8771466  54.0450248  64.4629389
   1.3547081  55.3676917  64.9820621   1.2618454  59.9003675  59.5127629
   0.6264287  59.9738301  60.2248534   0.9315861  60.4897274  58.8346709
   6.4916804  54.4006058  65.7171951   7.2241976  53.8305275  65.9509780
   5.7356160  54.0127658  66.1578457   4.0142224  48.1127632  70.1766560
   3.6825549  48.9823043  69.9527775   3.4187838  47.7963916  70.8560590
   3.9070888  52.8322718  67.2559910   2.9987765  52.7638127  66.9618671
   3.8558483  53.3094663  68.0841735   5.7732534  51.0339157  69.0337784
   5.1306914  51.3271690  68.3877578   5.2687462  50.9192077  69.8390980
   3.4272698  54.7802330  59.7223643   4.3390554  55.0129716  59.5471340
   2.9182345  55.3639374  59.1598721   1.7113465  59.2026958  73.3584935
   2.1196821  58.7609368  72.6139568   0.9890727  58.6279585  73.6119128
   2.0342280  59.7628148  67.1137224   1.4051142  59.9273862  66.4113292
   1.6467942  60.1769758  67.8848188   5.9131512  60.6982586  64.4681588
   5.2282550  61.0781487  63.9178621   5.9975361  61.3077913  65.2013536
   1.2143981  51.8003933  72.3899666   0.9704913  52.5545993  71.8533942
   1.4903911  52.1789280  73.2246913   3.1682443  58.3442545  71.0676932
   3.3799339  58.9874305  70.3911313   3.1212192  57.5104862  70.5998862
   4.2828271  61.2214500  69.2399289   5.1045715  60.8194688  68.9581971
   4.2790674  61.1182735  70.1915405  12.3734264  57.5653249  65.5884260
  11.6197973  56.9960647  65.4328265  12.5081806  57.5315913  66.5354895
   1.4882607  63.3393018  73.4220723   1.4701082  64.1601899  72.9300992
   2.4102527  63.2147093  73.6470864   1.1125356  45.9597213  69.7937873
   0.7689625  46.8498855  69.7176984   1.4804319  45.7698871  68.9307458
   1.0775639  55.9505824  58.3010308   0.5622262  56.7210429  58.5398696
   0.8052947  55.2770960  58.9243370   6.0509913  58.7038179  60.2363482
   5.2739356  58.3649338  59.7918644   6.7301394  58.7090802  59.5618447
   0.8661942  53.8232916  60.1270089   0.5612078  54.1379065  60.9780233
   1.8192384  53.9014336  60.1697422   4.2901220  58.1772160  66.8930090
   3.6324894  58.8671422  66.9810218   5.0941619  58.5668592  67.2364076
   3.1006679  56.5316533  64.9434032   3.6138560  57.1646525  65.4455741
   3.7507902  55.9317728  64.5777392   3.8668475  61.5122534  63.0713174
   3.4130802  60.6713444  63.1278365   3.2362442  62.1483933  63.4087954
   2.8101394  52.4414520  64.3013842   2.0724151  51.9291906  64.6324084
   3.0628168  52.0014902  63.4897118   2.3101414  63.3499031  64.0062992
   2.6024388  63.9104088  63.2875358   2.8200035  63.6427592  64.7616151
   2.9113022  45.2190772  64.8955611   3.2171899  44.3588136  64.6081526
   3.6365627  45.8108392  64.6954605   0.7200673  54.5963450  71.9937075
   1.0750061  54.8234923  72.8531540   1.3672804  54.9281826  71.3714330
   6.4498410  57.7181885  62.6986404   6.3116309  57.9083481  61.7707593
   6.0934629  58.4801268  63.1554455   6.4767790  59.7858412  67.7097675
   6.9104296  59.6933702  68.5580729   7.1899370  59.7615913  67.0717691
   7.3383339  59.8282113  70.2430561   7.5319229  60.7327924  70.4889836
   7.2383957  59.3689532  71.0769146   2.3998448  59.9788856  75.8171441
   2.2483954  59.7499408  74.9001525   2.3903127  60.9359457  75.8302786
   2.4536523  58.3009070  56.2342143   1.8365693  57.5755898  56.1375195
   1.9853011  59.0618430  55.8909217   4.1090654  63.0107978  73.8947923
   4.0503201  62.3267199  73.2278506   4.5110173  63.7526968  73.4428549
   4.1108062  60.9747562  72.1261903   3.2234841  60.6373484  72.2488302
   4.6806613  60.2430594  72.3630668   8.5925402  56.3855780  66.8878464
   8.5815279  57.2680495  66.5172398   7.7242782  56.0327331  66.6933001
   1.8225426  59.4387101  62.8198596   0.8881704  59.5588564  62.6503301
   2.0002094  58.5359568  62.5558606   5.2097977  55.2804421  63.3548630
   5.6758429  56.1132412  63.2808933   5.6605477  54.8149402  64.0593889
   3.2774208  61.6248242  60.3534783   3.5534052  61.5104837  61.2628657
   2.4078707  61.2265727  60.3146956   3.1814640  47.6485008  67.3939532
   2.2677719  47.8789235  67.5621739   3.6107741  47.7323452  68.2453564
   2.9521098  55.8374900  69.8939426   2.2992548  56.0850807  69.2391879
   3.3301478  55.0239038  69.5601903   2.5942328  62.7122896  76.4711733
   3.1382232  63.3252854  75.9766688   2.0129173  63.2702474  76.9878746
   0.8799841  65.8343614  67.6026761   0.7550981  65.0333354  67.0937707
   1.5378932  66.3289807  67.1140731   2.9434750  63.6352634  69.2306311
   1.9965085  63.5157985  69.1584638   3.2917523  62.7475132  69.3132573
   3.5515305  64.2533909  66.5175536   4.4761852  64.0476770  66.3799987
   3.3830608  64.0050310  67.4264878   3.3410621  64.7719576  61.8737628
   3.5147499  64.2065999  61.1211480   3.8339512  65.5720471  61.6917118
   9.1950012  57.5355999  63.4927927   9.6381158  56.7863324  63.0947051
   8.3176523  57.5266135  63.1101659   4.3285794  64.0886341  58.9734526
   5.0236698  64.7093033  59.1921841   4.6708944  63.2381692  59.2486904
   6.2277217  61.5386046  60.5021857   6.7528541  61.8773319  59.7771177
   6.1399569  60.6033061  60.3184991   5.9171123  62.1718950  75.8073055
   5.1266666  62.1543089  75.2677554   5.6804477  62.7107243  76.5622091
   6.0368998  59.0211416  73.1205783   6.0867003  58.8561424  74.0621306
   5.9282921  58.1538675  72.7303664   3.3272760  55.0042344  74.4365090
   4.2282623  54.8648809  74.1449088   3.4020735  55.1696799  75.3763267
   7.5387195  61.4408358  73.3647805   7.2472003  61.8038338  74.2011266
   6.9259326  60.7275366  73.1861137   8.7382877  59.0061237  65.8850375
   9.5729768  59.4451041  66.0487935   8.8742006  58.5299891  65.0658621
   5.7874383  56.5640972  71.8327863   6.2628504  56.7568619  71.0246714
   4.8639948  56.6200158  71.5871246   0.6167194  45.0189098  66.3184593
   0.8968947  44.3512287  66.9445020   1.4017800  45.2118194  65.8059257
   4.4876052  53.4406732  70.0656168   5.4393475  53.5404830  70.0868392
   4.3179502  52.6485001  70.5754253   2.5090431  50.5262316  70.2515569
   1.9140363  50.8067328  69.5562058   2.2240128  51.0156216  71.0232310
   1.6397922  64.4785242  59.0118202   2.5728595  64.4130804  59.2151077
   1.5521135  65.3141509  58.5532734   4.2685938  63.7951113  55.9722149
   4.1899570  63.4610976  56.8657907   5.0895605  64.2872881  55.9713622
   6.9664130  56.6612852  69.1798468   6.9340450  55.7228853  69.3658152
   7.5764753  56.7396889  68.4464293   7.1158618  53.4523895  69.2256751
   6.5997667  52.6682352  69.0386680   7.9998567  53.1242612  69.3903271
   4.7769345  47.1964911  65.1852564   4.5794166  46.8879999  66.0695896
   5.3869051  47.9226550  65.3150494  12.7840680  57.7228859  68.3204505
  13.5144068  57.4614147  68.8812208  12.1747625  56.9857581  68.3606573
  10.8655977  55.8636721  68.9178956  10.1389140  55.7292686  68.3095448
  10.4503264  56.1713550  69.7235674   0.5342992  47.0773818  62.9349095
   1.0874030  47.4969271  63.5939118   0.7713078  46.1509566  62.9772051
   3.9121799  49.1874343  62.4427759   3.3320468  49.8459147  62.0605812
   3.6457731  48.3651688  62.0315177   2.3625365  48.5879401  64.6449080
   2.8625143  48.6995935  63.8363399   3.0060973  48.2840454  65.2849888
   2.6946677  51.3474433  61.4984108   1.8072532  51.6324084  61.2804302
   3.1100666  51.1868197  60.6511385   6.0461213  51.3720954  65.2138447
   6.8221603  51.8617407  65.4863064   5.3209347  51.7979009  65.6710316
   8.4833772  52.0848574  66.2712388   9.0778262  51.8444310  65.5605696
   8.5560355  51.3655704  66.8985924   1.8389890  61.1119108  55.5932128
   2.5425740  61.3169111  56.2089783   1.1152539  61.6795870  55.8581211
   2.6687701  56.8628969  61.7134398   2.6122902  57.3197521  60.8742030
   3.2216043  56.1019654  61.5357241   6.4792506  52.6518701  62.5384517
   6.2229441  52.2515337  63.3692725   5.8545374  53.3662495  62.4134656
  10.7904844  55.3914775  65.0455809  10.2304402  55.4607964  65.8187371
  10.1848348  55.2155759  64.3255305   3.7476588  61.5501637  57.6430588
   4.5822192  61.1182836  57.4608062   3.5860931  61.3783651  58.5707482
   3.4022480  58.0533751  59.0086927   3.3471284  57.8878022  58.0675371
   2.7768535  58.7609784  59.1649117  12.3760863  72.0671288  67.7385764
  13.0139273  71.9478036  67.0349105  12.2581706  73.0152132  67.7973717
   9.1850569  72.0198717  67.6747289   8.8469081  71.9039781  66.7867824
  10.0540337  71.6189882  67.6548295   5.0437385  73.8734193  63.6644180
   4.4802250  73.7824130  62.8960468   4.9289780  73.0534097  64.1446673
   9.6670352  73.1733568  73.6333495   9.6558993  72.7786367  72.7613998
   9.8290991  72.4399641  74.2267266   2.5901817  75.3685385  66.5028401
   3.3823109  75.0276209  66.0874700   2.8298467  75.4780360  67.4230554
  10.6236943  77.5405161  58.9758645   9.9724923  78.1259241  58.5892659
  11.4181306  78.0711356  59.0353682   4.5492571  74.6294298  59.3745779
   5.3223447  74.0823285  59.2358655   4.9017969  75.4938547  59.5860241
   6.3877613  75.9570680  72.5812679   6.0967479  76.8616311  72.4659345
   7.0234598  75.9987208  73.2956748   7.3133820  73.3347529  69.1714038
   7.9097392  73.1103551  68.4571001   7.3708792  72.5932274  69.7739486
   6.8858848  70.7886964  57.0064229   7.1384369  70.2668485  56.2447692
   5.9483408  70.6253109  57.1090913  11.9302131  69.7922742  64.8138972
  12.7165220  69.3742165  64.4629389  12.1940836  70.6968834  64.9820621
  12.1012209  75.2295593  59.5127629  11.4658042  75.3030219  60.2248534
  11.7709615  75.8189191  58.8346709  17.3310558  69.7297975  65.7171951
  18.0635730  69.1597192  65.9509780  16.5749914  69.3419576  66.1578457
   6.6055137  72.6915070  59.2088604   6.4891395  72.0159973  59.8769689
   6.7157397  72.2047444  58.3920757   8.9486678  72.1525217  62.9135293
   8.5844885  71.6255838  63.6248215   9.8053794  71.7623686  62.7401779
  14.8535979  63.4419550  70.1766560  14.5219304  64.3114961  69.9527775
  14.2581592  63.1255834  70.8560590   8.5892165  67.1815117  57.9096642
   8.7566567  68.0495353  58.2767113   8.3989334  67.3442398  56.9857931
  11.3467498  75.6432096  69.5762472  11.0468221  76.5457134  69.4678280
  11.0018558  75.3764279  70.4283625   4.7979980  72.0945892  65.6099177
   3.8730476  71.9622107  65.8176869   5.0464393  72.8740112  66.1069119
  14.7464642  68.1614636  67.2559910  13.8381519  68.0930044  66.9618671
  14.6952238  68.6386581  68.0841735   8.5681386  69.6372774  58.8943309
   8.4481011  70.0829825  59.7328789   7.8733974  69.9858092  58.3356847
   2.1588791  71.7379166  66.4442966   2.2881172  71.9913645  67.3582378
   1.4786242  72.3306874  66.1247621   6.3288278  82.4076416  62.5433440
   6.2512308  83.3584241  62.6221921   5.7249922  82.0622288  63.2008366
   8.8205508  69.5804281  75.1994807   8.0438842  70.1398202  75.1897672
   9.4596071  70.0661064  75.7209677  16.6126288  66.3631074  69.0337784
  15.9700669  66.6563607  68.3877578  16.1081217  66.2483995  69.8390980
  14.2666452  70.1094247  59.7223643  15.1784308  70.3421634  59.5471340
  13.7576099  70.6931292  59.1598721   7.0751880  72.3889735  74.7612774
   7.8166564  72.9274779  74.4847598   6.3688866  73.0156023  74.9184326
  12.5507220  74.5318875  73.3584935  12.9590576  74.0901286  72.6139568
  11.8284481  73.9571503  73.6119128   8.9038290  69.4691482  70.7318492
   9.7499485  69.8930896  70.8753141   8.8436927  68.8125106  71.4257055
  12.8736034  75.0920066  67.1137224  12.2444897  75.2565780  66.4113292
  12.4861696  75.5061675  67.8848188  16.7525266  76.0274504  64.4681588
  16.0676304  76.4073405  63.9178621  16.8369116  76.6369830  65.2013536
  12.0537735  67.1295850  72.3899666  11.8098667  67.8837911  71.8533942
  12.3297666  67.5081198  73.2246913  14.0076198  73.6734463  71.0676932
  14.2193093  74.3166223  70.3911313  13.9605946  72.8396779  70.5998862
  11.6102427  66.2852283  67.9713504  10.7486906  66.5833537  68.2630241
  11.6364862  66.5022682  67.0394536   8.4263996  74.8294474  64.3787309
   8.8902342  75.1082177  63.5891932   8.1620794  73.9277918  64.1960400
   5.3188077  74.3765955  67.3167073   5.8889434  74.8053224  66.6784557
   5.9096189  74.0948540  68.0151258   7.3632882  70.9517626  61.1876875
   8.0656926  71.4038670  61.6550801   7.0313511  70.3101445  61.8156768
   5.8113244  69.5429383  75.5628084   5.1811904  70.2245664  75.7963481
   5.7049332  69.4312465  74.6181222  15.1222026  76.5506418  69.2399289
  15.9439470  76.1486605  68.9581971  15.1184429  76.4474652  70.1915405
   3.0572962  69.5745758  63.4477485   2.2604125  69.6864452  63.9660980
   2.8298554  69.9132410  62.5818375   8.8878629  76.0990461  71.3959999
   8.9523062  76.5610869  72.2318171   8.1789553  75.4687826  71.5242309
  23.2128019  72.8945167  65.5884260  22.4591727  72.3252565  65.4328265
  23.3475560  72.8607831  66.5354895   8.6026647  77.7658569  61.2638980
   8.4672322  78.6110105  61.6923828   9.1436459  77.9677847  60.5004914
   5.0893987  63.8450149  77.9253335   4.6960932  63.2916347  78.6000979
   5.9060127  64.1560727  78.3159852   2.0556044  75.2834007  61.8366905
   2.5680565  76.0777257  61.9872470   2.7078757  74.5860297  61.7700506
   3.8650929  78.3999763  63.9189658   4.0417557  79.3217728  63.7310642
   4.6607763  78.0858182  64.3484038   8.0061948  65.2608028  75.5173592
   8.7471661  65.8615181  75.4378054   8.2379870  64.5185666  74.9591634
   3.1503286  70.4464395  73.7951821   3.0356801  69.5449652  74.0958920
   2.2947803  70.6928092  73.4436638  10.2295123  78.3882135  75.3939322
   9.7858978  77.6018514  75.0760226  10.8912337  78.5761286  74.7283213
   4.9882245  79.9177937  69.9200000   5.5389670  79.7895000  69.1476994
   4.1493720  80.2172826  69.5694893  12.3276361  78.6684935  73.4220723
  12.3094837  79.4893816  72.9300992  13.2496281  78.5439011  73.6470864
   8.7849416  76.1829065  74.2644231   9.3177752  75.4217353  74.0343539
   8.2563497  75.8902717  75.0068386  11.9519111  61.2889131  69.7937873
  11.6083380  62.1790772  69.7176984  12.3198073  61.0990788  68.9307458
  11.9169393  71.2797742  58.3010308  11.4016017  72.0502347  58.5398696
  11.6446702  70.6062878  58.9243370   9.5016504  66.1247443  63.3595547
   8.6458101  65.7354293  63.1801185   9.9143456  66.2039403  62.4995332
  11.0315651  63.6593786  67.7587106  10.5280447  63.6223921  66.9454912
  11.3246258  64.5686529  67.8183763   7.2758537  63.7432516  66.7653288
   8.1411534  63.5475324  66.4059178   7.3436046  63.5142867  67.6922645
  16.8903667  74.0330097  60.2363482  16.1133110  73.6941256  59.7918644
  17.5695148  74.0382720  59.5618447  11.7055696  69.1524834  60.1270089
  11.4005832  69.4670983  60.9780233  12.6586139  69.2306254  60.1697422
  10.1502128  75.3115057  61.7763043   9.6223490  74.5767817  61.4636281
   9.6489631  76.0889734  61.5303012  15.1294974  73.5064078  66.8930090
  14.4718649  74.1963339  66.9810218  15.9335374  73.8960510  67.2364076
   4.8820856  65.9734724  64.1369655   5.4564608  65.7509905  63.4042848
   5.4691838  66.0423418  64.8898256  13.9400433  71.8608450  64.9434032
  14.4532315  72.4938442  65.4455741  14.5901657  71.2609646  64.5777392
   5.2090443  68.0039185  58.1565540   4.3727755  68.3413871  58.4774815
   5.0695213  67.8688164  57.2192677   7.1843524  62.8475972  62.8644724
   6.5307936  62.5324990  62.2401339   7.1423998  62.2251713  63.5904547
   8.2954728  73.1295268  54.7798016   7.3881790  72.8984521  54.9789165
   8.7925760  72.3332887  54.9671998  11.2022807  81.8392775  57.6994703
  10.5284506  82.1424472  58.3079660  11.5888629  82.6421855  57.3500160
  10.4181264  69.3357906  67.1892372   9.5003825  69.5572853  67.0314060
  10.8341408  69.4104217  66.3304079  11.2016312  70.7349322  62.3195052
  11.9488131  71.2470719  62.0102174  11.4707901  70.4133374  63.1799446
   9.4742962  73.2307862  59.3022007   8.5654181  72.9466895  59.3994476
   9.5038046  73.6506941  58.4425313  14.7062229  76.8414452  63.0713174
  14.2524556  76.0005362  63.1278365  14.0756196  77.4775850  63.4087954
  13.6495149  67.7706438  64.3013842  12.9117906  67.2583824  64.6324084
  13.9021922  67.3306820  63.4897118  13.1495169  78.6790949  64.0062992
  13.4418143  79.2396006  63.2875358  13.6593789  78.9719510  64.7616151
  13.7506776  60.5482690  64.8955611  14.0565653  59.6880053  64.6081526
  14.4759381  61.1400310  64.6954605   8.0227856  70.8436483  65.4031802
   8.0776466  69.8910319  65.3274279   7.2119058  70.9995922  65.8873100
   9.1719050  74.7716606  56.6410085   8.7338480  74.0552465  56.1815723
   9.9129491  74.9992721  56.0795177   5.9620216  69.4613543  63.1622181
   5.1488081  69.7607713  63.5687373   6.4579210  69.0669232  63.8796663
   8.1128794  79.4571300  65.0956446   8.0704973  79.6832146  64.1664978
   9.0291493  79.2234674  65.2442247  11.5594428  69.9255367  71.9937075
  11.9143815  70.1526840  72.8531540  12.2066559  70.2573744  71.3714330
  17.2892164  73.0473803  62.6986404  17.1510063  73.2375399  61.7707593
  16.9328383  73.8093186  63.1554455   5.4534291  67.0331898  68.7783416
   6.0933670  66.8920657  68.0806379   4.6211821  66.7466412  68.4022018
  17.3161544  75.1150330  67.7097675  17.7498051  75.0225619  68.5580729
  18.0293125  75.0907831  67.0717691   6.2294595  76.3334329  64.8918408
   7.0235193  75.8384649  64.6900983   5.5186287  75.8052192  64.5286114
  11.0489439  78.7152424  69.2430776  11.1026461  79.2843361  70.0108492
  10.1804220  78.8854309  68.8784813   2.5377358  70.4777410  60.9678161
   1.6074946  70.4161866  61.1848123   2.6334830  69.9553363  60.1714802
   2.4562907  67.0032223  63.5556403   2.7169724  67.9177557  63.4465563
   3.2780079  66.5356666  63.7053015   3.9287832  68.4169980  70.7255227
   4.6010886  68.2087343  70.0767876   3.1017619  68.2192066  70.2860459
  18.1777094  75.1574031  70.2430561  18.3712984  76.0619841  70.4889836
  18.0777712  74.6981450  71.0769146   9.8313404  65.0431921  72.7420888
   9.1841319  65.7421871  72.6485364  10.6014420  65.4768065  73.1097136
  13.2392202  75.3080774  75.8171441  13.0877709  75.0791325  74.9001525
  13.2296882  76.2651375  75.8302786  10.0077539  72.8812686  70.8017708
  10.9369599  73.0323846  70.6286675   9.5868569  72.9696707  69.9466354
   8.8065871  76.9063351  68.5716245   8.6676956  76.5382135  69.4442183
   8.0180467  77.4210990  68.4000203   9.4014022  82.0072447  59.9141782
   9.5765778  81.5360490  60.7287405   8.7146811  82.6338213  60.1423043
  10.3571086  76.2844953  65.9605083  10.0220918  76.2445723  66.8562733
   9.8575031  75.6189669  65.4875493   4.3315330  71.6912583  71.4857664
   4.1935128  70.9592822  72.0869203   5.2420253  71.6021484  71.2041852
  13.2930277  73.6300988  56.2342143  12.6759448  72.9047816  56.1375195
  12.8246766  74.3910348  55.8909217   6.9597630  71.4032543  70.9741344
   7.6697249  70.7625735  70.9327962   6.9166938  71.6545438  71.8967525
  14.9484409  78.3399896  73.8947923  14.8896955  77.6559116  73.2278506
  15.3503927  79.0818886  73.4428549   5.6726564  68.3897761  72.7936983
   5.1363921  67.9388499  73.4458580   5.0843273  68.5243669  72.0507448
   3.9675108  85.1561810  66.6881642   4.2071706  85.7880334  67.3660661
   3.1244304  84.8049850  66.9747001   5.0828823  67.8486412  55.3563447
   4.2058290  67.7275213  54.9925694   5.5586576  67.0572490  55.1042336
  14.9501816  76.3039480  72.1261903  14.0628595  75.9665402  72.2488302
  15.5200367  75.5722511  72.3630668   1.4065685  67.5253768  69.8789978
   1.3223874  66.9179438  69.1440388   0.5848392  68.0162787  69.8799474
   8.4802970  80.9640932  69.0923146   8.4073141  81.7695904  69.6042451
   8.0380363  81.1632898  68.2671167   8.2692749  80.2012702  62.6025968
   7.4860271  80.7434383  62.6964192   8.9685494  80.7186682  63.0020209
  11.5789399  66.0107332  65.2460173  12.0758099  65.2577294  64.9261243
  10.8076381  66.0471649  64.6803382  19.4319157  71.7147697  66.8878464
  19.4209033  72.5972413  66.5172398  18.5636536  71.3619248  66.6933001
  10.9401653  80.8627766  71.2481305  11.6529625  81.4975231  71.1757206
  10.4491682  80.9591632  70.4321306  12.6619180  74.7679019  62.8198596
  11.7275459  74.8880482  62.6503301  12.8395849  73.8651486  62.5558606
   8.1624368  68.1524715  64.9731858   7.7922156  67.5995755  65.6612763
   8.6583461  67.5482848  64.4206858  16.0491731  70.6096338  63.3548630
  16.5152184  71.4424330  63.2808933  16.4999232  70.1441320  64.0593889
   5.9913567  78.6122210  72.0686875   6.6923026  79.2458693  72.2216270
   5.5208682  78.9536941  71.3082515  14.1167963  76.9540160  60.3534783
  14.3927806  76.8396754  61.2628657  13.2472461  76.5557645  60.3146956
  14.0208394  62.9776925  67.3939532  13.1071474  63.2081152  67.5621739
  14.4501496  63.0615369  68.2453564  13.7914853  71.1666817  69.8939426
  13.1386303  71.4142725  69.2391879  14.1695233  70.3530956  69.5601903
  10.7522027  81.2026511  63.9967596  10.9344421  80.3848166  64.4595348
  11.5755013  81.4194203  63.5592486  11.0864192  80.1294696  61.2582645
  11.6151958  79.6187150  60.6452807  11.3492412  79.8137226  62.1228178
   9.8402426  71.9086628  76.3805463   9.1643063  71.8080758  77.0507838
  10.6630060  71.7525842  76.8441460   1.5881285  78.1458565  69.0017978
   2.1734722  77.4002253  69.1345882   1.3906123  78.4562522  69.8854642
   4.4419940  81.1809812  64.0180421   3.7730315  81.6655940  63.5344461
   4.3032810  81.4279033  64.9323799   8.5825209  83.2153556  70.6163079
   9.1343517  83.3785177  71.3812164   8.9231402  83.8057994  69.9443104
   3.5589702  65.5628706  71.2184964   3.6231028  66.4243537  70.8062361
   3.4956822  64.9502707  70.4857322   3.0341974  67.6351838  74.8657998
   3.6614013  67.2528916  75.4795522   2.1769893  67.4166040  75.2313690
  13.4336083  78.0414813  76.4711733  13.9775987  78.6544772  75.9766688
  12.8522928  78.5994392  76.9878746  11.7193596  81.1635531  67.6026761
  11.5944735  80.3625271  67.0937707  12.3772687  81.6581725  67.1140731
   3.3401764  67.5184264  66.7803901   2.6188350  68.1320232  66.6411375
   4.1295020  68.0542029  66.7020547  13.7828504  78.9644551  69.2306311
  12.8358840  78.8449903  69.1584638  14.1311277  78.0767049  69.3132573
   6.1428078  64.8538690  73.0544553   6.6662479  65.1000987  73.8170862
   5.9240411  65.6858725  72.6347690   1.5395359  67.1242365  60.9215678
   1.2108065  66.2439744  60.7390784   1.8934729  67.0690034  61.8092067
  10.7874938  78.7597268  65.4310663  10.6399900  77.8313975  65.6118233
  11.6128431  78.7817358  64.9467739   4.6537182  67.4115335  61.2891156
   4.9933254  67.9401256  60.5669764   5.1009302  67.7495741  62.0649722
  14.3909059  79.5825826  66.5175536  15.3155607  79.3768688  66.3799987
  14.2224363  79.3342228  67.4264878   7.3480623  65.7952385  70.7394224
   7.0077443  64.9960199  71.1414903   6.6419629  66.0954096  70.1671057
   7.9997094  62.8801698  69.1921547   8.8223164  62.4062176  69.0700437
   8.2435158  63.6592182  69.6920233   6.6405329  65.9089956  59.4884448
   7.3613691  66.2871209  58.9848165   6.0170633  66.6278833  59.5919426
  10.7836452  66.6135105  60.4242781  11.0000066  67.4959743  60.1231609
  10.3030519  66.2221319  59.6948423   5.5235673  69.5720819  67.0013525
   5.3780254  69.8861122  67.8937807   5.0460877  70.1905719  66.4484424
   7.3832056  66.5623367  67.0494415   7.3693625  65.6664460  66.7126713
   8.1004484  66.5694030  67.6832701   9.2358187  66.9960707  69.0947542
   8.9775965  67.9177777  69.0931873   8.7043227  66.5991141  69.7848006
  14.1804376  80.1011494  61.8737628  14.3541253  79.5357916  61.1211480
  14.6733267  80.9012389  61.6917118   6.7868952  65.4437747  62.3181985
   6.9084863  64.5154393  62.5172872   6.4970994  65.4576433  61.4060300
   9.6560142  63.1292657  65.4548705   9.6781839  63.1931990  64.5000684
  10.0728201  62.2897166  65.6489211  20.0343767  72.8647917  63.4927927
  20.4774913  72.1155242  63.0947051  19.1570277  72.8558053  63.1101659
  15.1679548  79.4178258  58.9734526  15.8630453  80.0384951  59.1921841
  15.5102698  78.5673609  59.2486904  17.0670971  76.8677964  60.5021857
  17.5922295  77.2065237  59.7771177  16.9793324  75.9324979  60.3184991
   8.7291020  80.7812037  72.6311733   9.0378146  80.5361184  73.5034433
   9.5266502  80.9858676  72.1430604   8.7511632  82.9349947  64.8617110
   8.3116622  82.4426326  65.5549967   9.5019749  82.3922915  64.6209185
   1.2303971  79.1261488  64.8641738   2.0561991  78.8265260  64.4840381
   0.8798023  78.3569110  65.3131527   6.1985504  78.4787956  66.9339412
   5.5765513  77.8158661  66.6341639   6.8690371  78.5049088  66.2513059
   6.2710032  66.9569744  76.5271918   6.3198187  67.8331867  76.1449687
   6.8132546  66.4147137  75.9543561  16.7564877  77.5010867  75.8073055
  15.9660421  77.4835006  75.2677554  16.5198232  78.0399161  76.5622091
  16.8762752  74.3503334  73.1205783  16.9260757  74.1853341  74.0621306
  16.7676676  73.4830593  72.7303664   5.7599011  77.0291879  60.4097872
   5.9087131  77.7127344  59.7564545   6.5665454  77.0096970  60.9247328
  14.1666515  70.3334262  74.4365090  15.0676377  70.1940727  74.1449088
  14.2414489  70.4988717  75.3763267   8.5009320  67.7101117  73.2818276
   7.6312629  68.0034683  73.0100865   8.7368800  68.2941562  74.0025540
  18.3780949  76.7700275  73.3647805  18.0865757  77.1330256  74.2011266
  17.7653080  76.0567284  73.1861137  19.5776631  74.3353155  65.8850375
  20.4123523  74.7742959  66.0487935  19.7135760  73.8591808  65.0658621
  16.6268137  71.8932890  71.8327863  17.1022259  72.0860536  71.0246714
  15.7033703  71.9492076  71.5871246   3.5151644  73.0557057  61.4158941
   3.2697686  72.1519387  61.6139151   3.6847559  73.0574208  60.4738419
  11.2048354  63.9280734  70.7983697  11.7230298  64.6641760  70.4730185
  10.8503487  64.2344727  71.6330456   2.7847291  68.7885415  58.9145102
   2.0916536  68.8629770  58.2585138   2.5399043  68.0245758  59.4366619
  11.4560948  60.3481016  66.3184593  11.7362702  59.6804205  66.9445020
  12.2411555  60.5410112  65.8059257   9.2594417  79.5240010  57.8809619
   8.6868384  80.1430197  57.4280091   9.8327210  80.0739372  58.4149541
  15.3269806  68.7698650  70.0656168  16.2787229  68.8696748  70.0868392
  15.1573257  67.9776919  70.5754253  13.3484186  65.8554233  70.2515569
  12.7534118  66.1359246  69.5562058  13.0633883  66.3448134  71.0232310
  12.4791676  79.8077160  59.0118202  13.4122349  79.7422722  59.2151077
  12.3914889  80.6433427  58.5532734  15.1079693  79.1243030  55.9722149
  15.0293324  78.7902894  56.8657907  15.9289360  79.6164798  55.9713622
  17.8057884  71.9904770  69.1798468  17.7734204  71.0520770  69.3658152
  18.4158508  72.0688806  68.4464293   9.6441215  70.8600823  55.2225672
  10.5900320  70.7307031  55.2914090   9.2655460  70.1215485  55.6995100
  17.9552373  68.7815813  69.2256751  17.4391421  67.9974270  69.0386680
  18.8392321  68.4534530  69.3903271  15.6163100  62.5256829  65.1852564
  15.4187921  62.2171917  66.0695896  16.2262805  63.2518468  65.3150494
  23.6234434  73.0520777  68.3204505  24.3537822  72.7906065  68.8812208
  23.0141379  72.3149499  68.3606573  21.7049731  71.1928639  68.9178956
  20.9782895  71.0584604  68.3095448  21.2897018  71.5005468  69.7235674
   9.5279908  74.9118569  76.6826329  10.4482917  75.0897168  76.8766375
   9.4929491  73.9674614  76.5306028   7.8284132  68.7850799  55.1580557
   6.9215588  68.4883912  55.2343271   8.1060113  68.4880617  54.2914843
   2.5241980  72.8219603  69.3249110   2.7427990  73.7536711  69.3437144
   2.9367754  72.4627578  70.1103914   9.4446198  63.3287689  61.3124798
   8.6346926  62.9834774  61.6880045  10.1330615  63.0195233  61.9012410
  11.3736746  62.4065736  62.9349095  11.9267785  62.8261189  63.5939118
  11.6106833  61.4801484  62.9772051   7.3969845  68.3952809  78.7151859
   7.2966572  69.3447166  78.6463950   7.1791387  68.0671048  77.8427929
   6.5982917  65.6437734  55.2992536   7.4602081  65.9692633  55.5588354
   6.7833261  64.8569230  54.7865602  14.7515553  64.5166261  62.4427759
  14.1714222  65.1751065  62.0605812  14.4851486  63.6943605  62.0315177
  13.2019120  63.9171318  64.6449080  13.7018898  64.0287853  63.8363399
  13.8454728  63.6132371  65.2849888   7.2601115  71.8249948  77.5316921
   6.7768197  72.6250308  77.7380810   7.3462054  71.8357893  76.5784365
   0.5287075  73.6578328  65.4538740   0.5057763  73.7566015  64.5020623
   0.8387712  74.5043479  65.7755906   3.1874453  75.7154483  69.5685354
   4.1417706  75.6838425  69.5015286   2.9886977  75.2545107  70.3835580
   3.7773835  74.2855599  72.1356152   4.5966724  74.7799678  72.1590989
   4.0510643  73.3687567  72.1073720  13.5340431  66.6766351  61.4984108
  12.6466286  66.9616002  61.2804302  13.9494420  66.5160115  60.6511385
  16.8854967  66.7012872  65.2138447  17.6615358  67.1909325  65.4863064
  16.1603102  67.1270926  65.6710316  19.3227526  67.4140491  66.2712388
  19.9172017  67.1736227  65.5605696  19.3954110  66.6947622  66.8985924
   1.5424682  81.2574102  66.5855552   1.4079150  80.4974503  66.0193550
   1.1256744  81.9815002  66.1184341  12.6783645  76.4411026  55.5932128
  13.3819495  76.6461028  56.2089783  11.9546294  77.0087788  55.8581211
  13.5081455  72.1920887  61.7134398  13.4516656  72.6489439  60.8742030
  14.0609797  71.4311572  61.5357241  17.3186261  67.9810619  62.5384517
  17.0623195  67.5807255  63.3692725  16.6939129  68.6954413  62.4134656
  21.6298599  70.7206692  65.0455809  21.0698157  70.7899882  65.8187371
  21.0242102  70.5447677  64.3255305   4.6993808  82.1543419  66.7973995
   4.5826192  83.0988852  66.6952685   3.8786254  81.8516981  67.1859794
  14.5870342  76.8793555  57.6430588  15.4215946  76.4474753  57.4608062
  14.4254685  76.7075569  58.5707482  14.2416234  73.3825668  59.0086927
  14.1865038  73.2169940  58.0675371  13.6162290  74.0901701  59.1649117
  11.5562142  75.6874580  78.3340490  12.4253301  75.8615232  77.9727125
  11.0768893  76.5068997  78.2116219   7.5512360  62.8833777  58.5872245
   7.5391030  63.8275617  58.7440516   8.4435782  62.7003923  58.2931707
   5.7248322  82.8071681  70.0129923   6.6275568  82.8395291  70.3296418
   5.4985692  81.8772132  70.0276259   7.4801924  81.5602668  66.6740002
   6.5297555  81.5604529  66.5604374   7.7834410  80.8135402  66.1576037
  11.3664479  59.4776554  62.8418182  10.5996875  58.9235041  62.9874865
  11.7775184  59.5498423  63.7032334   3.3706240  65.7661350  76.9323363
   4.2337702  65.4098155  77.1426688   2.7971651  65.4275245  77.6198768
  23.2154617  87.3963206  67.7385764  23.8533027  87.2769953  67.0349105
  23.0975460  88.3444050  67.7973717  20.0244324  87.3490634  67.6747289
  19.6862835  87.2331699  66.7867824  20.8934092  86.9481799  67.6548295
  15.8831139  89.2026111  63.6644180  15.3196004  89.1116048  62.8960468
  15.7683534  88.3826015  64.1446673  20.5064107  88.5025486  73.6333495
  20.4952747  88.1078284  72.7613998  20.6684746  87.7691559  74.2267266
  13.4295571  90.6977302  66.5028401  14.2216863  90.3568127  66.0874700
  13.6692221  90.8072277  67.4230554  21.4630698  92.8697078  58.9758645
  20.8118678  93.4551159  58.5892659  22.2575061  93.4003273  59.0353682
  15.3886325  89.9586215  59.3745779  16.1617201  89.4115203  59.2358655
  15.7411724  90.8230465  59.5860241  17.2271368  91.2862598  72.5812679
  16.9361234  92.1908229  72.4659345  17.8628352  91.3279125  73.2956748
  18.1527575  88.6639446  69.1714038  18.7491147  88.4395469  68.4571001
  18.2102546  87.9224192  69.7739486  17.7252603  86.1178882  57.0064229
  17.9778124  85.5960403  56.2447692  16.7877162  85.9545027  57.1090913
  22.7695886  85.1214660  64.8138972  23.5558975  84.7034083  64.4629389
  23.0334590  86.0260752  64.9820621  22.9405963  90.5587510  59.5127629
  22.3051796  90.6322137  60.2248534  22.6103369  91.1481109  58.8346709
  28.1704313  85.0589893  65.7171951  28.9029485  84.4889110  65.9509780
  27.4143669  84.6711494  66.1578457  17.4448892  88.0206988  59.2088604
  17.3285150  87.3451891  59.8769689  17.5551152  87.5339361  58.3920757
  19.7880433  87.4817135  62.9135293  19.4238640  86.9547756  63.6248215
  20.6447548  87.0915604  62.7401779  25.6929733  78.7711467  70.1766560
  25.3613058  79.6406878  69.9527775  25.0975347  78.4547751  70.8560590
  19.4285920  82.5107034  57.9096642  19.5960322  83.3787271  58.2767113
  19.2383089  82.6734316  56.9857931  22.1861253  90.9724013  69.5762472
  21.8861976  91.8749052  69.4678280  21.8412312  90.7056196  70.4283625
  15.6373734  87.4237810  65.6099177  14.7124231  87.2914024  65.8176869
  15.8858147  88.2032029  66.1069119  25.5858397  83.4906553  67.2559910
  24.6775274  83.4221962  66.9618671  25.5345992  83.9678498  68.0841735
  19.4075140  84.9664692  58.8943309  19.2874766  85.4121743  59.7328789
  18.7127729  85.3150010  58.3356847  12.9982545  87.0671084  66.4442966
  13.1274926  87.3205563  67.3582378  12.3179997  87.6598792  66.1247621
  17.1682033  97.7368334  62.5433440  17.0906062  98.6876159  62.6221921
  16.5643676  97.3914206  63.2008366  19.6599262  84.9096199  75.1994807
  18.8832596  85.4690119  75.1897672  20.2989825  85.3952982  75.7209677
  27.4520043  81.6922992  69.0337784  26.8094423  81.9855525  68.3877578
  26.9474971  81.5775912  69.8390980  25.1060207  85.4386165  59.7223643
  26.0178063  85.6713552  59.5471340  24.5969854  86.0223209  59.1598721
  17.9145635  87.7181652  74.7612774  18.6560319  88.2566696  74.4847598
  17.2082620  88.3447941  74.9184326  23.3900974  89.8610793  73.3584935
  23.7984330  89.4193203  72.6139568  22.6678236  89.2863420  73.6119128
  19.7432044  84.7983400  70.7318492  20.5893240  85.2222813  70.8753141
  19.6830682  84.1417024  71.4257055  23.7129789  90.4211983  67.1137224
  23.0838651  90.5857698  66.4113292  23.3255451  90.8353593  67.8848188
  27.5919021  91.3566421  64.4681588  26.9070059  91.7365323  63.9178621
  27.6762870  91.9661748  65.2013536  22.8931490  82.4587768  72.3899666
  22.6492422  83.2129829  71.8533942  23.1691420  82.8373116  73.2246913
  24.8469952  89.0026380  71.0676932  25.0586848  89.6458140  70.3911313
  24.7999701  88.1688697  70.5998862  22.4496181  81.6144201  67.9713504
  21.5880660  81.9125455  68.2630241  22.4758616  81.8314600  67.0394536
  19.2657751  90.1586392  64.3787309  19.7296096  90.4374095  63.5891932
  19.0014549  89.2569836  64.1960400  16.1581832  89.7057873  67.3167073
  16.7283189  90.1345141  66.6784557  16.7489944  89.4240458  68.0151258
  18.2026637  86.2809544  61.1876875  18.9050680  86.7330588  61.6550801
  17.8707265  85.6393363  61.8156768  16.6506998  84.8721301  75.5628084
  16.0205659  85.5537581  75.7963481  16.5443086  84.7604382  74.6181222
  11.9451971  84.5393097  66.4894008  11.1551025  84.7950625  66.0134119
  12.4363218  85.3541434  66.5946049  25.9615780  91.8798336  69.2399289
  26.7833224  91.4778523  68.9581971  25.9578183  91.7766570  70.1915405
  13.8966716  84.9037676  63.4477485  13.0997879  85.0156370  63.9660980
  13.6692308  85.2424328  62.5818375  19.7272384  91.4282379  71.3959999
  19.7916816  91.8902786  72.2318171  19.0183308  90.7979744  71.5242309
  10.2289674  84.7923587  68.9208999  10.4797712  85.6770597  69.1866575
  10.7649222  84.6128189  68.1484091  34.0521773  88.2237084  65.5884260
  33.2985482  87.6544482  65.4328265  34.1869315  88.1899749  66.5354895
  19.4420401  93.0950487  61.2638980  19.3066076  93.9402022  61.6923828
  19.9830214  93.2969764  60.5004914  15.9287741  79.1742066  77.9253335
  15.5354687  78.6208265  78.6000979  16.7453881  79.4852645  78.3159852
  12.8949799  90.6125925  61.8366905  13.4074319  91.4069175  61.9872470
  13.5472512  89.9152215  61.7700506  14.7044684  93.7291681  63.9189658
  14.8811312  94.6509646  63.7310642  15.5001517  93.4150100  64.3484038
  18.8455702  80.5899946  75.5173592  19.5865415  81.1907099  75.4378054
  19.0773625  79.8477583  74.9591634  13.9897040  85.7756313  73.7951821
  13.8750555  84.8741570  74.0958920  13.1341558  86.0220010  73.4436638
  21.0688878  93.7174053  75.3939322  20.6252732  92.9310432  75.0760226
  21.7306091  93.9053204  74.7283213  15.8275999  95.2469855  69.9200000
  16.3783424  95.1186918  69.1476994  14.9887475  95.5464744  69.5694893
  23.1670116  93.9976853  73.4220723  23.1488591  94.8185734  72.9300992
  24.0890036  93.8730928  73.6470864  19.6243170  91.5120983  74.2644231
  20.1571507  90.7509271  74.0343539  19.0957251  91.2194634  75.0068386
  22.7912865  76.6181048  69.7937873  22.4477134  77.5082690  69.7176984
  23.1591828  76.4282706  68.9307458  10.8598716  88.9414579  62.6126475
  11.6973938  89.3511587  62.3960183  11.0376983  88.0014021  62.5826669
  22.7563148  86.6089660  58.3010308  22.2409771  87.3794264  58.5398696
  22.4840456  85.9354796  58.9243370  20.3410259  81.4539360  63.3595547
  19.4851855  81.0646211  63.1801185  20.7537211  81.5331321  62.4995332
  21.8709405  78.9885704  67.7587106  21.3674201  78.9515839  66.9454912
  22.1640012  79.8978446  67.8183763  18.1152291  79.0724433  66.7653288
  18.9805288  78.8767242  66.4059178  18.1829800  78.8434785  67.6922645
  27.7297422  89.3622014  60.2363482  26.9526865  89.0233174  59.7918644
  28.4088903  89.3674637  59.5618447  22.5449451  84.4816752  60.1270089
  22.2399586  84.7962901  60.9780233  23.4979893  84.5598172  60.1697422
  20.9895883  90.6406975  61.7763043  20.4617244  89.9059735  61.4636281
  20.4883385  91.4181651  61.5303012  25.9688729  88.8355995  66.8930090
  25.3112403  89.5255257  66.9810218  26.7729128  89.2252427  67.2364076
  15.7214610  81.3026641  64.1369655  16.2958362  81.0801823  63.4042848
  16.3085593  81.3715336  64.8898256  24.7794188  87.1900368  64.9434032
  25.2926069  87.8230360  65.4455741  25.4295411  86.5901564  64.5777392
  16.0484197  83.3331102  58.1565540  15.2121510  83.6705789  58.4774815
  15.9088967  83.1980082  57.2192677  18.0237278  78.1767890  62.8644724
  17.3701690  77.8616907  62.2401339  17.9817752  77.5543631  63.5904547
  19.1348483  88.4587185  54.7798016  18.2275545  88.2276439  54.9789165
  19.6319515  87.6624804  54.9671998  22.0416562  97.1684692  57.6994703
  21.3678261  97.4716389  58.3079660  22.4282384  97.9713773  57.3500160
  21.2575018  84.6649824  67.1892372  20.3397580  84.8864771  67.0314060
  21.6735162  84.7396134  66.3304079  22.0410066  86.0641239  62.3195052
  22.7881885  86.5762637  62.0102174  22.3101656  85.7425292  63.1799446
  20.3136716  88.5599780  59.3022007  19.4047936  88.2758813  59.3994476
  20.3431800  88.9798859  58.4425313  25.5455984  92.1706370  63.0713174
  25.0918311  91.3297279  63.1278365  24.9149951  92.8067768  63.4087954
  24.4888903  83.0998356  64.3013842  23.7511660  82.5875742  64.6324084
  24.7415677  82.6598737  63.4897118  23.9888923  94.0082866  64.0062992
  24.2811897  94.5687923  63.2875358  24.4987544  94.3011427  64.7616151
  24.5900531  75.8774608  64.8955611  24.8959407  75.0171971  64.6081526
  25.3153135  76.4692228  64.6954605  10.8824887  86.2805294  63.2837209
  10.6849287  85.6874655  62.5588275  10.3271551  85.9757504  64.0013148
  18.8621610  86.1728401  65.4031802  18.9170220  85.2202237  65.3274279
  18.0512812  86.3287840  65.8873100  20.0112804  90.1008524  56.6410085
  19.5732234  89.3844383  56.1815723  20.7523245  90.3284639  56.0795177
  16.8013970  84.7905460  63.1622181  15.9881836  85.0899631  63.5687373
  17.2972965  84.3961149  63.8796663  18.9522548  94.7863217  65.0956446
  18.9098727  95.0124064  64.1664978  19.8685247  94.5526592  65.2442247
  22.3988182  85.2547285  71.9937075  22.7537570  85.4818758  72.8531540
  23.0460313  85.5865662  71.3714330  28.1285919  88.3765721  62.6986404
  27.9903818  88.5667317  61.7707593  27.7722138  89.1385104  63.1554455
  16.2928045  82.3623816  68.7783416  16.9327424  82.2212575  68.0806379
  15.4605576  82.0758329  68.4022018  28.1555299  90.4442248  67.7097675
  28.5891805  90.3517537  68.5580729  28.8686879  90.4199748  67.0717691
  17.0688349  91.6626246  64.8918408  17.8628947  91.1676567  64.6900983
  16.3580041  91.1344110  64.5286114  21.8883193  94.0444342  69.2430776
  21.9420216  94.6135278  70.0108492  21.0197975  94.2146227  68.8784813
  13.3771112  85.8069328  60.9678161  12.4468701  85.7453784  61.1848123
  13.4728584  85.2845281  60.1714802  13.2956662  82.3324141  63.5556403
  13.5563479  83.2469474  63.4465563  14.1173834  81.8648584  63.7053015
  14.7681587  83.7461898  70.7255227  15.4404640  83.5379260  70.0767876
  13.9411373  83.5483984  70.2860459  29.0170848  90.4865948  70.2430561
  29.2106738  91.3911759  70.4889836  28.9171466  90.0273368  71.0769146
  20.6707159  80.3723839  72.7420888  20.0235074  81.0713789  72.6485364
  21.4408174  80.8059983  73.1097136  24.0785957  90.6372691  75.8171441
  23.9271463  90.4083243  74.9001525  24.0690636  91.5943293  75.8302786
  20.8471293  88.2104604  70.8017708  21.7763353  88.3615764  70.6286675
  20.4262323  88.2988625  69.9466354  19.6459625  92.2355268  68.5716245
  19.5070711  91.8674053  69.4442183  18.8574221  92.7502908  68.4000203
  20.2407777  97.3364365  59.9141782  20.4159533  96.8652408  60.7287405
  19.5540565  97.9630131  60.1423043  21.1964840  91.6136871  65.9605083
  20.8614673  91.5737641  66.8562733  20.6968786  90.9481587  65.4875493
  15.1709084  87.0204501  71.4857664  15.0328882  86.2884740  72.0869203
  16.0814008  86.9313401  71.2041852  24.1324032  88.9592905  56.2342143
  23.5153202  88.2339734  56.1375195  23.6640520  89.7202266  55.8909217
  17.7991385  86.7324460  70.9741344  18.5091003  86.0917653  70.9327962
  17.7560693  86.9837355  71.8967525  25.7878163  93.6691814  73.8947923
  25.7290710  92.9851034  73.2278506  26.1897682  94.4110804  73.4428549
  16.5120319  83.7189678  72.7936983  15.9757676  83.2680417  73.4458580
  15.9237027  83.8535587  72.0507448  14.8068862 100.4853728  66.6881642
  15.0465460 101.1172252  67.3660661  13.9638059 100.1341768  66.9747001
  15.9222578  83.1778330  55.3563447  15.0452044  83.0567131  54.9925694
  16.3980331  82.3864408  55.1042336  25.7895571  91.6331398  72.1261903
  24.9022349  91.2957320  72.2488302  26.3594122  90.9014429  72.3630668
   7.4424718  87.9655489  65.4504954   8.1295758  87.6517219  64.8625969
   7.2872847  88.8696854  65.1772206  12.2459440  82.8545686  69.8789978
  12.1617629  82.2471356  69.1440388  11.4242146  83.3454704  69.8799474
  19.3196724  96.2932850  69.0923146  19.2466896  97.0987822  69.6042451
  18.8774117  96.4924816  68.2671167  19.1086504  95.5304620  62.6025968
  18.3254026  96.0726300  62.6964192  19.8079249  96.0478600  63.0020209
  22.4183154  81.3399250  65.2460173  22.9151853  80.5869212  64.9261243
  21.6470135  81.3763566  64.6803382  30.2712911  87.0439615  66.8878464
  30.2602788  87.9264331  66.5172398  29.4030291  86.6911166  66.6933001
  21.7795408  96.1919684  71.2481305  22.4923380  96.8267149  71.1757206
  21.2885436  96.2883550  70.4321306  23.5012935  90.0970937  62.8198596
  22.5669213  90.2172399  62.6503301  23.6789603  89.1943404  62.5558606
  19.0018123  83.4816633  64.9731858  18.6315910  82.9287673  65.6612763
  19.4977215  82.8774766  64.4206858  26.8885486  85.9388256  63.3548630
  27.3545938  86.7716248  63.2808933  27.3392986  85.4733238  64.0593889
  16.8307321  93.9414128  72.0686875  17.5316781  94.5750611  72.2216270
  16.3602436  94.2828859  71.3082515  24.9561717  92.2832077  60.3534783
  25.2321561  92.1688672  61.2628657  24.0866216  91.8849562  60.3146956
  24.8602149  78.3068843  67.3939532  23.9465228  78.5373070  67.5621739
  25.2895250  78.3907287  68.2453564  24.6308607  86.4958735  69.8939426
  23.9780057  86.7434642  69.2391879  25.0088987  85.6822873  69.5601903
  21.5915781  96.5318428  63.9967596  21.7738176  95.7140084  64.4595348
  22.4148767  96.7486120  63.5592486  21.9257947  95.4586613  61.2582645
  22.4545713  94.9479068  60.6452807  22.1886166  95.1429144  62.1228178
  20.6796180  87.2378546  76.3805463  20.0036817  87.1372675  77.0507838
  21.5023814  87.0817760  76.8441460  12.4275039  93.4750483  69.0017978
  13.0128476  92.7294171  69.1345882  12.2299878  93.7854439  69.8854642
  15.2813694  96.5101730  64.0180421  14.6124070  96.9947858  63.5344461
  15.1426564  96.7570950  64.9323799   7.0192694  86.0456083  67.7222421
   7.0576793  85.5119674  68.5159539   6.5132987  85.5191288  67.1033398
  19.4218963  98.5445474  70.6163079  19.9737271  98.7077095  71.3812164
  19.7625156  99.1349911  69.9443104  14.3983456  80.8920623  71.2184964
  14.4624783  81.7535454  70.8062361  14.3350577  80.2794625  70.4857322
  13.8735729  82.9643756  74.8657998  14.5007768  82.5820833  75.4795522
  13.0163648  82.7457958  75.2313690  24.2729837  93.3706731  76.4711733
  24.8169741  93.9836689  75.9766688  23.6916682  93.9286309  76.9878746
  10.6501272  84.7720185  60.7976353  10.9454713  83.8630863  60.7443406
   9.7489307  84.7507924  60.4757355  22.5587350  96.4927449  67.6026761
  22.4338490  95.6917189  67.0937707  23.2166441  96.9873642  67.1140731
  14.1795519  82.8476182  66.7803901  13.4582104  83.4612149  66.6411375
  14.9688774  83.3833946  66.7020547  24.6222259  94.2936469  69.2306311
  23.6752594  94.1741820  69.1584638  24.9705032  93.4058967  69.3132573
  16.9821832  80.1830608  73.0544553  17.5056234  80.4292905  73.8170862
  16.7634165  81.0150643  72.6347690  12.3789113  82.4534283  60.9215678
  12.0501819  81.5731662  60.7390784  12.7328484  82.3981951  61.8092067
  21.6268692  94.0889185  65.4310663  21.4793654  93.1605893  65.6118233
  22.4522186  94.1109276  64.9467739  15.4930936  82.7407252  61.2891156
  15.8327009  83.2693174  60.5669764  15.9403057  83.0787659  62.0649722
  25.2302814  94.9117744  66.5175536  26.1549361  94.7060605  66.3799987
  25.0618117  94.6634145  67.4264878  18.1874377  81.1244303  70.7394224
  17.8471197  80.3252116  71.1414903  17.4813383  81.4246014  70.1671057
  18.8390849  78.2093616  69.1921547  19.6616918  77.7354094  69.0700437
  19.0828912  78.9884099  69.6920233  17.4799083  81.2381874  59.4884448
  18.2007446  81.6163127  58.9848165  16.8564388  81.9570751  59.5919426
  21.6230206  81.9427023  60.4242781  21.8393821  82.8251661  60.1231609
  21.1424273  81.5513236  59.6948423  16.3629428  84.9012736  67.0013525
  16.2174008  85.2153039  67.8937807  15.8854631  85.5197637  66.4484424
  18.2225811  81.8915284  67.0494415  18.2087379  80.9956378  66.7126713
  18.9398239  81.8985948  67.6832701  20.0751941  82.3252624  69.0947542
  19.8169719  83.2469695  69.0931873  19.5436982  81.9283059  69.7848006
  25.0198130  95.4303412  61.8737628  25.1935008  94.8649834  61.1211480
  25.5127021  96.2304306  61.6917118  10.8375090  87.4418081  69.9401186
  10.2928558  88.2177889  70.0721461  11.7154440  87.7888885  69.7820308
  17.6262707  80.7729664  62.3181985  17.7478618  79.8446311  62.5172872
  17.3364749  80.7868350  61.4060300  20.4953897  78.4584575  65.4548705
  20.5175594  78.5223908  64.5000684  20.9121956  77.6189084  65.6489211
  30.8737521  88.1939834  63.4927927  31.3168667  87.4447160  63.0947051
  29.9964032  88.1849971  63.1101659  26.0073303  94.7470176  58.9734526
  26.7024207  95.3676869  59.1921841  26.3496453  93.8965527  59.2486904
  11.6241112  86.5687977  72.8331343  10.8822848  86.7170612  73.4195974
  11.3033856  86.8296242  71.9698093  27.9064726  92.1969881  60.5021857
  28.4316050  92.5357154  59.7771177  27.8187078  91.2616897  60.3184991
  19.5684774  96.1103955  72.6311733  19.8771901  95.8653102  73.5034433
  20.3660256  96.3150594  72.1430604  19.5905386  98.2641865  64.8617110
  19.1510377  97.7718243  65.5549967  20.3413503  97.7214832  64.6209185
  12.0697725  94.4553406  64.8641738  12.8955745  94.1557177  64.4840381
  11.7191777  93.6861028  65.3131527  17.0379259  93.8079874  66.9339412
  16.4159268  93.1450579  66.6341639  17.7084125  93.8341006  66.2513059
  10.2706330  92.3739732  65.8230672   9.4338239  91.9461906  65.6414673
  10.2429976  92.5672175  66.7601463  17.1103786  82.2861662  76.5271918
  17.1591942  83.1623785  76.1449687  17.6526300  81.7439055  75.9543561
  27.5958632  92.8302785  75.8073055  26.8054175  92.8126924  75.2677554
  27.3591986  93.3691079  76.5622091  27.7156507  89.6795251  73.1205783
  27.7654512  89.5145259  74.0621306  27.6070430  88.8122510  72.7303664
  16.5992765  92.3583797  60.4097872  16.7480886  93.0419262  59.7564545
  17.4059209  92.3388887  60.9247328  25.0060269  85.6626179  74.4365090
  25.9070132  85.5232644  74.1449088  25.0808244  85.8280634  75.3763267
  19.3403074  83.0393034  73.2818276  18.4706384  83.3326600  73.0100865
  19.5762555  83.6233479  74.0025540  29.2174704  92.0992193  73.3647805
  28.9259512  92.4622174  74.2011266  28.6046835  91.3859201  73.1861137
  30.4170386  89.6645073  65.8850375  31.2517277  90.1034877  66.0487935
  30.5529515  89.1883726  65.0658621  27.4661892  87.2224808  71.8327863
  27.9416013  87.4152454  71.0246714  26.5427457  87.2783993  71.5871246
  14.3545398  88.3848975  61.4158941  14.1091440  87.4811305  61.6139151
  14.5241313  88.3866125  60.4738419  22.0442108  79.2572651  70.7983697
  22.5624052  79.9933678  70.4730185  21.6897241  79.5636644  71.6330456
  13.6241046  84.1177332  58.9145102  12.9310291  84.1921687  58.2585138
  13.3792798  83.3537676  59.4366619  22.2954702  75.6772934  66.3184593
  22.5756456  75.0096123  66.9445020  23.0805309  75.8702029  65.8059257
  20.0988171  94.8531928  57.8809619  19.5262138  95.4722115  57.4280091
  20.6720965  95.4031289  58.4149541  26.1663561  84.0990568  70.0656168
  27.1180984  84.1988665  70.0868392  25.9967011  83.3068836  70.5754253
  24.1877940  81.1846151  70.2515569  23.5927872  81.4651164  69.5562058
  23.9027637  81.6740052  71.0232310  23.3185431  95.1369078  59.0118202
  24.2516104  95.0714639  59.2151077  23.2308644  95.9725345  58.5532734
  25.9473447  94.4534948  55.9722149  25.8687079  94.1194812  56.8657907
  26.7683114  94.9456716  55.9713622  28.6451639  87.3196687  69.1798468
  28.6127959  86.3812688  69.3658152  29.2552262  87.3980724  68.4464293
  20.4834969  86.1892740  55.2225672  21.4294074  86.0598948  55.2914090
  20.1049214  85.4507402  55.6995100  28.7946127  84.1107731  69.2256751
  28.2785176  83.3266187  69.0386680  29.6786076  83.7826447  69.3903271
  26.4556854  77.8548746  65.1852564  26.2581675  77.5463835  66.0695896
  27.0656560  78.5810385  65.3150494  34.4628188  88.3812694  68.3204505
  35.1931577  88.1197982  68.8812208  33.8535134  87.6441416  68.3606573
  32.5443486  86.5220557  68.9178956  31.8176649  86.3876522  68.3095448
  32.1290772  86.8297385  69.7235674  20.3673662  90.2410486  76.6826329
  21.2876671  90.4189086  76.8766375  20.3323245  89.2966532  76.5306028
  18.6677887  84.1142717  55.1580557  17.7609342  83.8175829  55.2343271
  18.9453868  83.8172535  54.2914843   9.5855827  85.4349080  65.6079604
   9.2658611  84.5814388  65.3153978   9.0389255  85.6497658  66.3637571
  13.3635735  88.1511521  69.3249110  13.5821744  89.0828629  69.3437144
  13.7761508  87.7919496  70.1103914  20.2839952  78.6579606  61.3124798
  19.4740681  78.3126691  61.6880045  20.9724369  78.3487150  61.9012410
  22.2130501  77.7357653  62.9349095  22.7661539  78.1553107  63.5939118
  22.4500587  76.8093401  62.9772051  18.2363600  83.7244727  78.7151859
  18.1360327  84.6739084  78.6463950  18.0185142  83.3962966  77.8427929
  17.4376671  80.9729652  55.2992536  18.2995835  81.2984550  55.5588354
  17.6227015  80.1861148  54.7865602   9.4544087  89.0551992  67.5772725
   8.7607558  88.6405944  67.0642680  10.2017078  89.0972528  66.9806144
  25.5909308  79.8458178  62.4427759  25.0107977  80.5042982  62.0605812
  25.3245240  79.0235523  62.0315177  24.0412874  79.2463236  64.6449080
  24.5412652  79.3579771  63.8363399  24.6848482  78.9424289  65.2849888
  18.0994870  87.1541866  77.5316921  17.6161952  87.9542226  77.7380810
  18.1855809  87.1649811  76.5784365  11.3680830  88.9870245  65.4538740
  11.3451518  89.0857933  64.5020623  11.6781466  89.8335396  65.7755906
  14.0268207  91.0446400  69.5685354  14.9811461  91.0130343  69.5015286
  13.8280731  90.5837024  70.3835580  14.6167590  89.6147517  72.1356152
  15.4360479  90.1091595  72.1590989  14.8904397  88.6979485  72.1073720
  24.3734186  82.0058269  61.4984108  23.4860041  82.2907919  61.2804302
  24.7888175  81.8452032  60.6511385  27.7248722  82.0304790  65.2138447
  28.5009112  82.5201242  65.4863064  26.9996856  82.4562844  65.6710316
  30.1621281  82.7432409  66.2712388  30.7565771  82.5028145  65.5605696
  30.2347864  82.0239540  66.8985924  12.3818436  96.5866020  66.5855552
  12.2472904  95.8266421  66.0193550  11.9650498  97.3106920  66.1184341
  23.5177399  91.7702943  55.5932128  24.2213249  91.9752946  56.2089783
  22.7940048  92.3379705  55.8581211  24.3475210  87.5212805  61.7134398
  24.2910411  87.9781356  60.8742030  24.9003552  86.7603489  61.5357241
  28.1580015  83.3102537  62.5384517  27.9016950  82.9099172  63.3692725
  27.5332883  84.0246331  62.4134656  32.4692353  86.0498610  65.0455809
  31.9091911  86.1191799  65.8187371  31.8635857  85.8739594  64.3255305
  15.5387562  97.4835337  66.7973995  15.4219946  98.4280769  66.6952685
  14.7180008  97.1808899  67.1859794  25.4264097  92.2085473  57.6430588
  26.2609701  91.7766671  57.4608062  25.2648440  92.0367486  58.5707482
  25.0809989  88.7117586  59.0086927  25.0258793  88.5461857  58.0675371
  24.4556044  89.4193619  59.1649117   9.8702504  83.9485650  72.8348349
  10.5161367  83.4384604  73.3235574   9.6619655  84.6854332  73.4091774
  22.3955896  91.0166498  78.3340490  23.2647056  91.1907150  77.9727125
  21.9162647  91.8360915  78.2116219  18.3906114  78.2125695  58.5872245
  18.3784784  79.1567535  58.7440516  19.2829536  78.0295840  58.2931707
  16.5642076  98.1363599  70.0129923  17.4669323  98.1687209  70.3296418
  16.3379446  97.2064050  70.0276259  18.3195678  96.8894585  66.6740002
  17.3691309  96.8896447  66.5604374  18.6228164  96.1427320  66.1576037
  22.2058234  74.8068472  62.8418182  21.4390630  74.2526958  62.9874865
  22.6168939  74.8790340  63.7032334  14.2099995  81.0953267  76.9323363
  15.0731456  80.7390072  77.1426688  13.6365405  80.7567162  77.6198768
  34.0548372 102.7255124  67.7385764  34.6926782 102.6061871  67.0349105
  33.9369215 103.6735968  67.7973717  30.8638078 102.6782552  67.6747289
  30.5256590 102.5623617  66.7867824  31.7327846 102.2773717  67.6548295
  26.7224894 104.5318028  63.6644180  26.1589759 104.4407965  62.8960468
  26.6077289 103.7117933  64.1446673  31.3457861 103.8317404  73.6333495
  31.3346502 103.4370202  72.7613998  31.5078500 103.0983476  74.2267266
  24.2689326 106.0269220  66.5028401  25.0610618 105.6860045  66.0874700
  24.5085976 106.1364195  67.4230554  32.3024452 108.1988996  58.9758645
  31.6512432 108.7843076  58.5892659  33.0968815 108.7295191  59.0353682
  26.2280080 105.2878133  59.3745779  27.0010956 104.7407120  59.2358655
  26.5805478 106.1522382  59.5860241  28.0665122 106.6154515  72.5812679
  27.7754988 107.5200146  72.4659345  28.7022107 106.6571043  73.2956748
  28.9921329 103.9931364  69.1714038  29.5884901 103.7687386  68.4571001
  29.0496301 103.2516109  69.7739486  28.5646357 101.4470799  57.0064229
  28.8171878 100.9252321  56.2447692  27.6270916 101.2836945  57.1090913
  33.6089640 100.4506578  64.8138972  34.3952729 100.0326001  64.4629389
  33.8728345 101.3552670  64.9820621  33.7799718 105.8879428  59.5127629
  33.1445551 105.9614054  60.2248534  33.4497124 106.4773027  58.8346709
  39.0098067 100.3881811  65.7171951  39.7423239  99.8181028  65.9509780
  38.2537423 100.0003411  66.1578457  28.2842646 103.3498905  59.2088604
  28.1678904 102.6743809  59.8769689  28.3944906 102.8631279  58.3920757
  30.6274187 102.8109052  62.9135293  30.2632394 102.2839673  63.6248215
  31.4841303 102.4207521  62.7401779  36.5323488  94.1003385  70.1766560
  36.2006812  94.9698796  69.9527775  35.9369101  93.7839669  70.8560590
  30.2679674  97.8398952  57.9096642  30.4354076  98.7079188  58.2767113
  30.0776843  98.0026234  56.9857931  33.0255007 106.3015931  69.5762472
  32.7255730 107.2040970  69.4678280  32.6806067 106.0348114  70.4283625
  26.4767489 102.7529728  65.6099177  25.5517985 102.6205942  65.8176869
  26.7251902 103.5323947  66.1069119  36.4252151  98.8198471  67.2559910
  35.5169028  98.7513880  66.9618671  36.3739747  99.2970416  68.0841735
  30.2468895 100.2956610  58.8943309  30.1268520 100.7413660  59.7328789
  29.5521483 100.6441927  58.3356847  23.8376300 102.3963001  66.4442966
  23.9668681 102.6497480  67.3582378  23.1573751 102.9890709  66.1247621
  28.0075787 113.0660251  62.5433440  27.9299817 114.0168076  62.6221921
  27.4037431 112.7206124  63.2008366  30.4993017 100.2388117  75.1994807
  29.7226351 100.7982037  75.1897672  31.1383580 100.7244900  75.7209677
  38.2913797  97.0214910  69.0337784  37.6488178  97.3147443  68.3877578
  37.7868726  96.9067830  69.8390980  35.9453961 100.7678083  59.7223643
  36.8571817 101.0005469  59.5471340  35.4363608 101.3515127  59.1598721
  28.7539389 103.0473570  74.7612774  29.4954073 103.5858614  74.4847598
  28.0476375 103.6739859  74.9184326  34.2294729 105.1902711  73.3584935
  34.6378085 104.7485121  72.6139568  33.5071990 104.6155338  73.6119128
  30.5825799 100.1275317  70.7318492  31.4286994 100.5514731  70.8753141
  30.5224436  99.4708942  71.4257055  34.5523543 105.7503901  67.1137224
  33.9232406 105.9149615  66.4113292  34.1649205 106.1645511  67.8848188
  38.4312775 106.6858339  64.4681588  37.7463813 107.0657240  63.9178621
  38.5156625 107.2953666  65.2013536  33.7325244  97.7879686  72.3899666
  33.4886176  98.5421746  71.8533942  34.0085175  98.1665033  73.2246913
  35.6863707 104.3318298  71.0676932  35.8980602 104.9750058  70.3911313
  35.6393455 103.4980615  70.5998862  33.2889936  96.9436119  67.9713504
  32.4274415  97.2417372  68.2630241  33.3152371  97.1606518  67.0394536
  30.1051505 105.4878309  64.3787309  30.5689851 105.7666012  63.5891932
  29.8408303 104.5861754  64.1960400  26.9975586 105.0349791  67.3167073
  27.5676943 105.4637059  66.6784557  27.5883698 104.7532376  68.0151258
  29.0420391 101.6101462  61.1876875  29.7444435 102.0622505  61.6550801
  28.7101020 100.9685280  61.8156768  27.4900753 100.2013218  75.5628084
  26.8599413 100.8829499  75.7963481  27.3836841 100.0896300  74.6181222
  22.7845725  99.8685014  66.4894008  21.9944779 100.1242543  66.0134119
  23.2756973 100.6833352  66.5946049  36.8009535 107.2090253  69.2399289
  37.6226979 106.8070441  68.9581971  36.7971938 107.1058488  70.1915405
  24.7360471 100.2329594  63.4477485  23.9391634 100.3448288  63.9660980
  24.5086063 100.5716246  62.5818375  30.5666138 106.7574297  71.3959999
  30.6310571 107.2194704  72.2318171  29.8577062 106.1271662  71.5242309
  21.0683428 100.1215505  68.9208999  21.3191467 101.0062515  69.1866575
  21.6042977  99.9420106  68.1484091  44.8915528 103.5529002  65.5884260
  44.1379236 102.9836400  65.4328265  45.0263069 103.5191666  66.5354895
  30.2814156 108.4242404  61.2638980  30.1459831 109.2693940  61.6923828
  30.8223968 108.6261682  60.5004914  26.7681496  94.5033984  77.9253335
  26.3748441  93.9500183  78.6000979  27.5847636  94.8144563  78.3159852
  23.7343553 105.9417842  61.8366905  24.2468074 106.7361093  61.9872470
  24.3866266 105.2444133  61.7700506  25.5438438 109.0583599  63.9189658
  25.7205066 109.9801563  63.7310642  26.3395272 108.7442018  64.3484038
  29.6849457  95.9191863  75.5173592  30.4259170  96.5199016  75.4378054
  29.9167379  95.1769501  74.9591634  24.8290795 101.1048230  73.7951821
  24.7144310 100.2033488  74.0958920  23.9735312 101.3511927  73.4436638
  31.9082632 109.0465971  75.3939322  31.4646487 108.2602349  75.0760226
  32.5699846 109.2345121  74.7283213  26.6669754 110.5761772  69.9200000
  27.2177179 110.4478836  69.1476994  25.8281229 110.8756661  69.5694893
  34.0063870 109.3268771  73.4220723  33.9882346 110.1477652  72.9300992
  34.9283790 109.2022846  73.6470864  30.4636925 106.8412900  74.2644231
  30.9965261 106.0801188  74.0343539  29.9351006 106.5486552  75.0068386
  33.6306620  91.9472966  69.7937873  33.2870889  92.8374608  69.7176984
  33.9985582  91.7574624  68.9307458  21.6992470 104.2706497  62.6126475
  22.5367692 104.6803505  62.3960183  21.8770738 103.3305939  62.5826669
  33.5956902 101.9381577  58.3010308  33.0803526 102.7086182  58.5398696
  33.3234211 101.2646713  58.9243370  31.1804013  96.7831278  63.3595547
  30.3245610  96.3938128  63.1801185  31.5930965  96.8623239  62.4995332
  32.7103160  94.3177621  67.7587106  32.2067955  94.2807756  66.9454912
  33.0033767  95.2270364  67.8183763  28.9546046  94.4016351  66.7653288
  29.8199043  94.2059160  66.4059178  29.0223555  94.1726703  67.6922645
  38.5691176 104.6913932  60.2363482  37.7920619 104.3525091  59.7918644
  39.2482657 104.6966555  59.5618447  33.3843205  99.8108669  60.1270089
  33.0793341 100.1254819  60.9780233  34.3373648  99.8890089  60.1697422
  31.8289637 105.9698893  61.7763043  31.3010999 105.2351652  61.4636281
  31.3277140 106.7473569  61.5303012  36.8082483 104.1647913  66.8930090
  36.1506158 104.8547175  66.9810218  37.6122882 104.5544345  67.2364076
  26.5608365  96.6318559  64.1369655  27.1352117  96.4093740  63.4042848
  27.1479347  96.7007253  64.8898256  35.6187942 102.5192286  64.9434032
  36.1319824 103.1522278  65.4455741  36.2689166 101.9193481  64.5777392
  26.8877952  98.6623020  58.1565540  26.0515264  98.9997707  58.4774815
  26.7482722  98.5272000  57.2192677  28.8631033  93.5059808  62.8644724
  28.2095445  93.1908825  62.2401339  28.8211507  92.8835548  63.5904547
  29.9742237 103.7879103  54.7798016  29.0669299 103.5568356  54.9789165
  30.4713269 102.9916722  54.9671998  32.8810316 112.4976610  57.6994703
  32.2072015 112.8008307  58.3079660  33.2676138 113.3005690  57.3500160
  32.0968773  99.9941741  67.1892372  31.1791334 100.2156688  67.0314060
  32.5128917 100.0688052  66.3304079  32.8803821 101.3933157  62.3195052
  33.6275640 101.9054554  62.0102174  33.1495410 101.0717210  63.1799446
  31.1530471 103.8891698  59.3022007  30.2441690 103.6050731  59.3994476
  31.1825555 104.3090776  58.4425313  36.3849738 107.4998287  63.0713174
  35.9312065 106.6589197  63.1278365  35.7543705 108.1359686  63.4087954
  35.3282658  98.4290273  64.3013842  34.5905415  97.9167660  64.6324084
  35.5809431  97.9890655  63.4897118  34.8282678 109.3374784  64.0062992
  35.1205652 109.8979841  63.2875358  35.3381298 109.6303345  64.7616151
  35.4294285  91.2066525  64.8955611  35.7353162  90.3463889  64.6081526
  36.1546890  91.7984146  64.6954605  21.7218641 101.6097212  63.2837209
  21.5243041 101.0166573  62.5588275  21.1665305 101.3049422  64.0013148
  29.7015365 101.5020318  65.4031802  29.7563975 100.5494155  65.3274279
  28.8906567 101.6579757  65.8873100  30.8506559 105.4300441  56.6410085
  30.4125989 104.7136300  56.1815723  31.5917000 105.6576556  56.0795177
  27.6407725 100.1197378  63.1622181  26.8275590 100.4191549  63.5687373
  28.1366719  99.7253067  63.8796663  29.7916303 110.1155135  65.0956446
  29.7492482 110.3415981  64.1664978  30.7079002 109.8818510  65.2442247
  33.2381937 100.5839203  71.9937075  33.5931324 100.8110676  72.8531540
  33.8854068 100.9157579  71.3714330  38.9679673 103.7057638  62.6986404
  38.8297572 103.8959234  61.7707593  38.6115892 104.4677021  63.1554455
  27.1321800  97.6915734  68.7783416  27.7721179  97.5504493  68.0806379
  26.2999330  97.4050247  68.4022018  38.9949053 105.7734165  67.7097675
  39.4285560 105.6809455  68.5580729  39.7080634 105.7491666  67.0717691
  27.9082103 106.9918164  64.8918408  28.7022702 106.4968484  64.6900983
  27.1973796 106.4636027  64.5286114  32.7276948 109.3736260  69.2430776
  32.7813970 109.9427196  70.0108492  31.8591729 109.5438145  68.8784813
  24.2164867 101.1361246  60.9678161  23.2862455 101.0745701  61.1848123
  24.3122339 100.6137199  60.1714802  24.1350416  97.6616059  63.5556403
  24.3957233  98.5761392  63.4465563  24.9567588  97.1940501  63.7053015
  25.6075341  99.0753816  70.7255227  26.2798395  98.8671178  70.0767876
  24.7805128  98.8775902  70.2860459  39.8564603 105.8157866  70.2430561
  40.0500493 106.7203677  70.4889836  39.7565221 105.3565285  71.0769146
  31.5100913  95.7015757  72.7420888  30.8628828  96.4005706  72.6485364
  32.2801929  96.1351901  73.1097136  34.9179711 105.9664609  75.8171441
  34.7665218 105.7375161  74.9001525  34.9084391 106.9235210  75.8302786
  31.6865048 103.5396522  70.8017708  32.6157108 103.6907681  70.6286675
  31.2656078 103.6280542  69.9466354  30.4853379 107.5647186  68.5716245
  30.3464465 107.1965970  69.4442183  29.6967976 108.0794825  68.4000203
  31.0801531 112.6656283  59.9141782  31.2553287 112.1944326  60.7287405
  30.3934319 113.2922049  60.1423043  32.0358595 106.9428789  65.9605083
  31.7008427 106.9029559  66.8562733  31.5362540 106.2773505  65.4875493
  26.0102839 102.3496419  71.4857664  25.8722637 101.6176658  72.0869203
  26.9207762 102.2605319  71.2041852  34.9717786 104.2884823  56.2342143
  34.3546957 103.5631651  56.1375195  34.5034275 105.0494183  55.8909217
  28.6385139 102.0616378  70.9741344  29.3484758 101.4209570  70.9327962
  28.5954447 102.3129273  71.8967525  36.6271918 108.9983731  73.8947923
  36.5684464 108.3142952  73.2278506  37.0291436 109.7402721  73.4428549
  27.3514073  99.0481596  72.7936983  26.8151430  98.5972334  73.4458580
  26.7630782  99.1827505  72.0507448  25.6462617 115.8145645  66.6881642
  25.8859215 116.4464169  67.3660661  24.8031813 115.4633685  66.9747001
  26.7616332  98.5070247  55.3563447  25.8845799  98.3859048  54.9925694
  27.2374085  97.7156326  55.1042336  36.6289325 106.9623315  72.1261903
  35.7416104 106.6249237  72.2488302  37.1987876 106.2306347  72.3630668
  18.2818472 103.2947407  65.4504954  18.9689512 102.9809137  64.8625969
  18.1266601 104.1988772  65.1772206  23.0853194  98.1837604  69.8789978
  23.0011383  97.5763273  69.1440388  22.2635901  98.6746622  69.8799474
  30.1590479 111.6224768  69.0923146  30.0860650 112.4279739  69.6042451
  29.7167872 111.8216734  68.2671167  29.9480258 110.8596538  62.6025968
  29.1647780 111.4018218  62.6964192  30.6473003 111.3770517  63.0020209
  33.2576908  96.6691167  65.2460173  33.7545608  95.9161130  64.9261243
  32.4863890  96.7055484  64.6803382  41.1106666 102.3731533  66.8878464
  41.0996542 103.2556248  66.5172398  40.2424045 102.0203084  66.6933001
  32.6189162 111.5211602  71.2481305  33.3317134 112.1559067  71.1757206
  32.1279191 111.6175468  70.4321306  34.3406689 105.4262854  62.8198596
  33.4062968 105.5464317  62.6503301  34.5183358 104.5235321  62.5558606
  29.8411877  98.8108550  64.9731858  29.4709665  98.2579591  65.6612763
  30.3370970  98.2066684  64.4206858  37.7279240 101.2680174  63.3548630
  38.1939693 102.1008165  63.2808933  38.1786741 100.8025155  64.0593889
  27.6701076 109.2706045  72.0686875  28.3710535 109.9042528  72.2216270
  27.1996191 109.6120777  71.3082515  35.7955471 107.6123995  60.3534783
  36.0715315 107.4980590  61.2628657  34.9259970 107.2141480  60.3146956
  35.6995903  93.6360761  67.3939532  34.7858983  93.8664988  67.5621739
  36.1289005  93.7199205  68.2453564  35.4702362 101.8250653  69.8939426
  34.8173812 102.0726560  69.2391879  35.8482742 101.0114791  69.5601903
  32.4309536 111.8610346  63.9967596  32.6131930 111.0432002  64.4595348
  33.2542522 112.0778038  63.5592486  32.7651701 110.7878531  61.2582645
  33.2939467 110.2770986  60.6452807  33.0279921 110.4721061  62.1228178
  31.5189935 102.5670464  76.3805463  30.8430572 102.4664593  77.0507838
  32.3417569 102.4109677  76.8441460  23.2668794 108.8042400  69.0017978
  23.8522231 108.0586088  69.1345882  23.0693632 109.1146357  69.8854642
  26.1207449 111.8393648  64.0180421  25.4517824 112.3239775  63.5344461
  25.9820319 112.0862868  64.9323799  17.8586448 101.3748000  67.7222421
  17.8970548 100.8411591  68.5159539  17.3526741 100.8483206  67.1033398
  30.2612718 113.8737391  70.6163079  30.8131026 114.0369013  71.3812164
  30.6018911 114.4641829  69.9443104  25.2377211  96.2212541  71.2184964
  25.3018537  97.0827372  70.8062361  25.1744331  95.6086543  70.4857322
  24.7129483  98.2935674  74.8657998  25.3401522  97.9112751  75.4795522
  23.8557402  98.0749875  75.2313690  35.1123592 108.6998649  76.4711733
  35.6563496 109.3128607  75.9766688  34.5310437 109.2578227  76.9878746
  21.4895026 100.1012103  60.7976353  21.7848467  99.1922781  60.7443406
  20.5883062 100.0799842  60.4757355  33.3981105 111.8219367  67.6026761
  33.2732244 111.0209107  67.0937707  34.0560196 112.3165560  67.1140731
  25.0189273  98.1768099  66.7803901  24.2975859  98.7904067  66.6411375
  25.8082529  98.7125864  66.7020547  35.4616013 109.6228387  69.2306311
  34.5146349 109.5033738  69.1584638  35.8098786 108.7350885  69.3132573
  27.8215587  95.5122526  73.0544553  28.3449988  95.7584822  73.8170862
  27.6027920  96.3442561  72.6347690  23.2182868  97.7826200  60.9215678
  22.8895574  96.9023579  60.7390784  23.5722238  97.7273869  61.8092067
  32.4662446 109.4181103  65.4310663  32.3187409 108.4897810  65.6118233
  33.2915940 109.4401194  64.9467739  26.3324691  98.0699170  61.2891156
  26.6720763  98.5985091  60.5669764  26.7796811  98.4079576  62.0649722
  36.0696568 110.2409662  66.5175536  36.9943116 110.0352523  66.3799987
  35.9011872 109.9926063  67.4264878  29.0268132  96.4536221  70.7394224
  28.6864952  95.6544034  71.1414903  28.3207138  96.7537932  70.1671057
  29.6784603  93.5385533  69.1921547  30.5010673  93.0646011  69.0700437
  29.9222667  94.3176017  69.6920233  28.3192838  96.5673792  59.4884448
  29.0401200  96.9455044  58.9848165  27.6958142  97.2862669  59.5919426
  32.4623961  97.2718941  60.4242781  32.6787575  98.1543579  60.1231609
  31.9818028  96.8805154  59.6948423  27.2023182 100.2304654  67.0013525
  27.0567763 100.5444957  67.8937807  26.7248386 100.8489554  66.4484424
  29.0619565  97.2207202  67.0494415  29.0481134  96.3248295  66.7126713
  29.7791993  97.2277866  67.6832701  30.9145696  97.6544542  69.0947542
  30.6563474  98.5761613  69.0931873  30.3830736  97.2574977  69.7848006
  35.8591885 110.7595329  61.8737628  36.0328762 110.1941752  61.1211480
  36.3520776 111.5596224  61.6917118  21.6768844 102.7709998  69.9401186
  21.1322312 103.5469806  70.0721461  22.5548194 103.1180803  69.7820308
  28.4656461  96.1021582  62.3181985  28.5872372  95.1738228  62.5172872
  28.1758503  96.1160268  61.4060300  31.3347651  93.7876493  65.4548705
  31.3569348  93.8515826  64.5000684  31.7515710  92.9481001  65.6489211
  41.7131276 103.5231752  63.4927927  42.1562422 102.7739077  63.0947051
  40.8357786 103.5141889  63.1101659  36.8467057 110.0762094  58.9734526
  37.5417962 110.6968786  59.1921841  37.1890207 109.2257445  59.2486904
  22.4634866 101.8979895  72.8331343  21.7216602 102.0462530  73.4195974
  22.1427610 102.1588160  71.9698093  38.7458480 107.5261799  60.5021857
  39.2709804 107.8649072  59.7771177  38.6580833 106.5908814  60.3184991
  30.4078529 111.4395873  72.6311733  30.7165655 111.1945020  73.5034433
  31.2054011 111.6442511  72.1430604  30.4299141 113.5933782  64.8617110
  29.9904131 113.1010161  65.5549967  31.1807258 113.0506750  64.6209185
  22.9091480 109.7845323  64.8641738  23.7349500 109.4849095  64.4840381
  22.5585532 109.0152946  65.3131527  27.8773013 109.1371792  66.9339412
  27.2553022 108.4742497  66.6341639  28.5477880 109.1632923  66.2513059
  21.1100085 107.7031650  65.8230672  20.2731993 107.2753824  65.6414673
  21.0823730 107.8964093  66.7601463  27.9497541  97.6153580  76.5271918
  27.9985696  98.4915702  76.1449687  28.4920055  97.0730973  75.9543561
  38.4352386 108.1594703  75.8073055  37.6447930 108.1418842  75.2677554
  38.1985741 108.6982996  76.5622091  38.5550261 105.0087169  73.1205783
  38.6048266 104.8437177  74.0621306  38.4464185 104.1414428  72.7303664
  27.4386520 107.6875715  60.4097872  27.5874640 108.3711179  59.7564545
  28.2452963 107.6680805  60.9247328  35.8454024 100.9918097  74.4365090
  36.7463886 100.8524562  74.1449088  35.9201998 101.1572552  75.3763267
  30.1796829  98.3684952  73.2818276  29.3100138  98.6618518  73.0100865
  30.4156309  98.9525397  74.0025540  40.0568458 107.4284111  73.3647805
  39.7653266 107.7914091  74.2011266  39.4440589 106.7151119  73.1861137
  41.2564140 104.9936990  65.8850375  42.0911032 105.4326795  66.0487935
  41.3923269 104.5175644  65.0658621  38.3055646 102.5516725  71.8327863
  38.7809768 102.7444372  71.0246714  37.3821212 102.6075911  71.5871246
  25.1939153 103.7140892  61.4158941  24.9485195 102.8103222  61.6139151
  25.3635067 103.7158043  60.4738419  32.8835863  94.5864569  70.7983697
  33.4017807  95.3225596  70.4730185  32.5290996  94.8928562  71.6330456
  24.4634800  99.4469250  58.9145102  23.7704045  99.5213605  58.2585138
  24.2186552  98.6829594  59.4366619  33.1348457  91.0064851  66.3184593
  33.4150211  90.3388040  66.9445020  33.9199064  91.1993947  65.8059257
  30.9381925 110.1823845  57.8809619  30.3655893 110.8014032  57.4280091
  31.5114719 110.7323207  58.4149541  37.0057315  99.4282485  70.0656168
  37.9574738  99.5280583  70.0868392  36.8360766  98.6360754  70.5754253
  35.0271695  96.5138069  70.2515569  34.4321627  96.7943081  69.5562058
  34.7421392  97.0031970  71.0232310  34.1579185 110.4660995  59.0118202
  35.0909858 110.4006557  59.2151077  34.0702398 111.3017262  58.5532734
  36.7867202 109.7826866  55.9722149  36.7080833 109.4486729  56.8657907
  37.6076869 110.2748634  55.9713622  39.4845393 102.6488605  69.1798468
  39.4521713 101.7104606  69.3658152  40.0946017 102.7272642  68.4464293
  31.3228724 101.5184658  55.2225672  32.2687829 101.3890866  55.2914090
  30.9442969 100.7799320  55.6995100  39.6339882  99.4399648  69.2256751
  39.1178930  98.6558105  69.0386680  40.5179830  99.1118365  69.3903271
  37.2950609  93.1840664  65.1852564  37.0975430  92.8755752  66.0695896
  37.9050314  93.9102303  65.3150494  45.3021943 103.7104612  68.3204505
  46.0325331 103.4489900  68.8812208  44.6928888 102.9733334  68.3606573
  43.3837240 101.8512474  68.9178956  42.6570404 101.7168439  68.3095448
  42.9684527 102.1589303  69.7235674  31.2067417 105.5702404  76.6826329
  32.1270426 105.7481003  76.8766375  31.1717000 104.6258450  76.5306028
  29.5071641  99.4434634  55.1580557  28.6003097  99.1467747  55.2343271
  29.7847622  99.1464453  54.2914843  20.4249582 100.7640998  65.6079604
  20.1052366  99.9106306  65.3153978  19.8783010 100.9789576  66.3637571
  24.2029489 103.4803439  69.3249110  24.4215499 104.4120547  69.3437144
  24.6155263 103.1211413  70.1103914  31.1233707  93.9871524  61.3124798
  30.3134435  93.6418609  61.6880045  31.8118124  93.6779068  61.9012410
  33.0524255  93.0649571  62.9349095  33.6055294  93.4845024  63.5939118
  33.2894342  92.1385319  62.9772051  29.0757354  99.0536645  78.7151859
  28.9754081 100.0031002  78.6463950  28.8578896  98.7254883  77.8427929
  28.2770426  96.3021570  55.2992536  29.1389590  96.6276468  55.5588354
  28.4620770  95.5153066  54.7865602  20.2937842 104.3843909  67.5772725
  19.6001313 103.9697862  67.0642680  21.0410833 104.4264446  66.9806144
  36.4303062  95.1750096  62.4427759  35.8501731  95.8334900  62.0605812
  36.1638995  94.3527441  62.0315177  34.8806629  94.5755154  64.6449080
  35.3806407  94.6871688  63.8363399  35.5242237  94.2716207  65.2849888
  28.9388624 102.4833783  77.5316921  28.4555706 103.2834144  77.7380810
  29.0249563 102.4941728  76.5784365  22.2074584 104.3162163  65.4538740
  22.1845272 104.4149850  64.5020623  22.5175221 105.1627314  65.7755906
  24.8661962 106.3738318  69.5685354  25.8205215 106.3422260  69.5015286
  24.6674486 105.9128942  70.3835580  25.4561344 104.9439434  72.1356152
  26.2754233 105.4383513  72.1590989  25.7298152 104.0271402  72.1073720
  35.2127940  97.3350186  61.4984108  34.3253795  97.6199837  61.2804302
  35.6281929  97.1743950  60.6511385  38.5642476  97.3596707  65.2138447
  39.3402867  97.8493160  65.4863064  37.8390611  97.7854762  65.6710316
  41.0015035  98.0724327  66.2712388  41.5959526  97.8320063  65.5605696
  41.0741619  97.3531457  66.8985924  23.2212191 111.9157938  66.5855552
  23.0866659 111.1558339  66.0193550  22.8044253 112.6398837  66.1184341
  34.3571154 107.0994861  55.5932128  35.0607004 107.3044864  56.2089783
  33.6333802 107.6671623  55.8581211  35.1868964 102.8504722  61.7134398
  35.1304165 103.3073274  60.8742030  35.7397306 102.0895407  61.5357241
  38.9973770  98.6394454  62.5384517  38.7410704  98.2391090  63.3692725
  38.3726638  99.3538248  62.4134656  43.3086108 101.3790528  65.0455809
  42.7485666 101.4483717  65.8187371  42.7029611 101.2031512  64.3255305
  26.3781317 112.8127255  66.7973995  26.2613701 113.7572687  66.6952685
  25.5573763 112.5100816  67.1859794  36.2657851 107.5377390  57.6430588
  37.1003455 107.1058589  57.4608062  36.1042194 107.3659404  58.5707482
  35.9203743 104.0409504  59.0086927  35.8652547 103.8753775  58.0675371
  35.2949799 104.7485537  59.1649117  20.7096258  99.2777568  72.8348349
  21.3555122  98.7676522  73.3235574  20.5013409 100.0146250  73.4091774
  33.2349650 106.3458416  78.3340490  34.1040810 106.5199068  77.9727125
  32.7556402 107.1652832  78.2116219  29.2299869  93.5417613  58.5872245
  29.2178539  94.4859453  58.7440516  30.1223291  93.3587758  58.2931707
  27.4035831 113.4655517  70.0129923  28.3063077 113.4979127  70.3296418
  27.1773201 112.5355967  70.0276259  29.1589433 112.2186503  66.6740002
  28.2085064 112.2188365  66.5604374  29.4621919 111.4719238  66.1576037
  33.0451988  90.1360389  62.8418182  32.2784384  89.5818876  62.9874865
  33.4562693  90.2082258  63.7032334  25.0493749  96.4245185  76.9323363
  25.9125211  96.0681990  77.1426688  24.4759160  96.0859080  77.6198768
  44.8942126 118.0547041  67.7385764  45.5320536 117.9353789  67.0349105
  44.7762969 119.0027885  67.7973717  41.7031833 118.0074470  67.6747289
  41.3650344 117.8915534  66.7867824  42.5721601 117.6065635  67.6548295
  37.5618648 119.8609946  63.6644180  36.9983513 119.7699883  62.8960468
  37.4471043 119.0409850  64.1446673  42.1851615 119.1609321  73.6333495
  42.1740256 118.7662120  72.7613998  42.3472255 118.4275394  74.2267266
  35.1083080 121.3561138  66.5028401  35.9004372 121.0151962  66.0874700
  35.3479730 121.4656113  67.4230554  43.1418207 123.5280914  58.9758645
  42.4906187 124.1134994  58.5892659  43.9362570 124.0587109  59.0353682
  37.0673834 120.6170051  59.3745779  37.8404710 120.0699038  59.2358655
  37.4199233 121.4814300  59.5860241  38.9058877 121.9446433  72.5812679
  38.6148743 122.8492064  72.4659345  39.5415861 121.9862961  73.2956748
  39.8315083 119.3223282  69.1714038  40.4278656 119.0979304  68.4571001
  39.8890055 118.5808027  69.7739486  39.4040112 116.7762717  57.0064229
  39.6565633 116.2544238  56.2447692  38.4664671 116.6128862  57.1090913
  44.4483395 115.7798495  64.8138972  45.2346484 115.3617918  64.4629389
  44.7122099 116.6844588  64.9820621  44.6193472 121.2171346  59.5127629
  43.9839305 121.2905972  60.2248534  44.2890878 121.8064944  58.8346709
  49.8491822 115.7173729  65.7171951  50.5816994 115.1472945  65.9509780
  49.0931178 115.3295329  66.1578457  39.1236401 118.6790823  59.2088604
  39.0072659 118.0035726  59.8769689  39.2338661 118.1923197  58.3920757
  41.4667942 118.1400970  62.9135293  41.1026149 117.6131591  63.6248215
  42.3235057 117.7499439  62.7401779  47.3717242 109.4295303  70.1766560
  47.0400567 110.2990714  69.9527775  46.7762856 109.1131587  70.8560590
  41.1073429 113.1690870  57.9096642  41.2747831 114.0371106  58.2767113
  40.9170598 113.3318151  56.9857931  43.8648762 121.6307849  69.5762472
  43.5649485 122.5332887  69.4678280  43.5199821 121.3640032  70.4283625
  37.3161243 118.0821645  65.6099177  36.3911740 117.9497860  65.8176869
  37.5645656 118.8615865  66.1069119  47.2645906 114.1490389  67.2559910
  46.3562783 114.0805797  66.9618671  47.2133501 114.6262334  68.0841735
  41.0862649 115.6248527  58.8943309  40.9662275 116.0705578  59.7328789
  40.3915238 115.9733845  58.3356847  34.6770054 117.7254919  66.4442966
  34.8062435 117.9789398  67.3582378  33.9967506 118.3182627  66.1247621
  38.8469542 128.3952169  62.5433440  38.7693571 129.3459994  62.6221921
  38.2431185 128.0498041  63.2008366  41.3386771 115.5680034  75.1994807
  40.5620105 116.1273955  75.1897672  41.9777334 116.0536817  75.7209677
  49.1307552 112.3506827  69.0337784  48.4881932 112.6439360  68.3877578
  48.6262480 112.2359748  69.8390980  46.7847716 116.0970000  59.7223643
  47.6965572 116.3297387  59.5471340  46.2757363 116.6807045  59.1598721
  39.5933144 118.3765488  74.7612774  40.3347828 118.9150532  74.4847598
  38.8870129 119.0031777  74.9184326  45.0688483 120.5194628  73.3584935
  45.4771839 120.0777039  72.6139568  44.3465745 119.9447256  73.6119128
  41.4219553 115.4567235  70.7318492  42.2680748 115.8806649  70.8753141
  41.3618191 114.8000859  71.4257055  45.3917298 121.0795819  67.1137224
  44.7626160 121.2441533  66.4113292  45.0042960 121.4937428  67.8848188
  49.2706530 122.0150257  64.4681588  48.5857568 122.3949158  63.9178621
  49.3550379 122.6245583  65.2013536  44.5718999 113.1171603  72.3899666
  44.3279930 113.8713664  71.8533942  44.8478929 113.4956951  73.2246913
  46.5257461 119.6610216  71.0676932  46.7374357 120.3041976  70.3911313
  46.4787210 118.8272532  70.5998862  44.1283690 112.2728036  67.9713504
  43.2668169 112.5709290  68.2630241  44.1546125 112.4898435  67.0394536
  40.9445260 120.8170227  64.3787309  41.4083605 121.0957930  63.5891932
  40.6802058 119.9153672  64.1960400  37.8369341 120.3641708  67.3167073
  38.4070698 120.7928977  66.6784557  38.4277453 120.0824293  68.0151258
  39.8814146 116.9393379  61.1876875  40.5838189 117.3914423  61.6550801
  39.5494774 116.2977198  61.8156768  38.3294507 115.5305136  75.5628084
  37.6993168 116.2121417  75.7963481  38.2230595 115.4188218  74.6181222
  33.6239480 115.1976932  66.4894008  32.8338534 115.4534461  66.0134119
  34.1150727 116.0125270  66.5946049  47.6403289 122.5382171  69.2399289
  48.4620733 122.1362358  68.9581971  47.6365692 122.4350405  70.1915405
  35.5754225 115.5621511  63.4477485  34.7785388 115.6740205  63.9660980
  35.3479817 115.9008163  62.5818375  41.4059893 122.0866214  71.3959999
  41.4704325 122.5486622  72.2318171  40.6970817 121.4563579  71.5242309
  31.9077183 115.4507422  68.9208999  32.1585221 116.3354432  69.1866575
  32.4436731 115.2712024  68.1484091  55.7309282 118.8820920  65.5884260
  54.9772991 118.3128318  65.4328265  55.8656824 118.8483584  66.5354895
  41.1207910 123.7534322  61.2638980  40.9853585 124.5985858  61.6923828
  41.6617723 123.9553600  60.5004914  37.6075250 109.8325902  77.9253335
  37.2142196 109.2792100  78.6000979  38.4241390 110.1436480  78.3159852
  34.5737308 121.2709760  61.8366905  35.0861828 122.0653010  61.9872470
  35.2260021 120.5736050  61.7700506  36.3832193 124.3875516  63.9189658
  36.5598821 125.3093481  63.7310642  37.1789026 124.0733935  64.3484038
  40.5243211 111.2483781  75.5173592  41.2652924 111.8490934  75.4378054
  40.7561134 110.5061419  74.9591634  35.6684549 116.4340148  73.7951821
  35.5538064 115.5325405  74.0958920  34.8129067 116.6803845  73.4436638
  42.7476387 124.3757888  75.3939322  42.3040241 123.5894267  75.0760226
  43.4093600 124.5637039  74.7283213  37.5063508 125.9053690  69.9200000
  38.0570933 125.7770753  69.1476994  36.6674984 126.2048579  69.5694893
  44.8457625 124.6560688  73.4220723  44.8276100 125.4769569  72.9300992
  45.7677545 124.5314764  73.6470864  41.3030679 122.1704818  74.2644231
  41.8359016 121.4093106  74.0343539  40.7744760 121.8778470  75.0068386
  44.4700374 107.2764884  69.7937873  44.1264643 108.1666525  69.7176984
  44.8379337 107.0866541  68.9307458  32.5386225 119.5998414  62.6126475
  33.3761447 120.0095423  62.3960183  32.7164492 118.6597856  62.5826669
  44.4350657 117.2673495  58.3010308  43.9197280 118.0378100  58.5398696
  44.1627965 116.5938631  58.9243370  42.0197768 112.1123196  63.3595547
  41.1639364 111.7230046  63.1801185  42.4324720 112.1915156  62.4995332
  43.5496914 109.6469539  67.7587106  43.0461710 109.6099674  66.9454912
  43.8427521 110.5562282  67.8183763  39.7939800 109.7308269  66.7653288
  40.6592797 109.5351077  66.4059178  39.8617309 109.5018620  67.6922645
  49.4084931 120.0205850  60.2363482  48.6314374 119.6817009  59.7918644
  50.0876412 120.0258473  59.5618447  44.2236960 115.1400587  60.1270089
  43.9187095 115.4546736  60.9780233  45.1767402 115.2182007  60.1697422
  42.6683392 121.2990810  61.7763043  42.1404753 120.5643570  61.4636281
  42.1670894 122.0765487  61.5303012  47.6476238 119.4939831  66.8930090
  46.9899912 120.1839092  66.9810218  48.4516637 119.8836263  67.2364076
  37.4002119 111.9610477  64.1369655  37.9745871 111.7385658  63.4042848
  37.9873102 112.0299171  64.8898256  46.4581697 117.8484204  64.9434032
  46.9713578 118.4814195  65.4455741  47.1082920 117.2485399  64.5777392
  37.7271706 113.9914938  58.1565540  36.8909019 114.3289624  58.4774815
  37.5876476 113.8563917  57.2192677  39.7024787 108.8351726  62.8644724
  39.0489199 108.5200743  62.2401339  39.6605261 108.2127466  63.5904547
  40.8135992 119.1171021  54.7798016  39.9063054 118.8860274  54.9789165
  41.3107024 118.3208640  54.9671998  43.7204071 127.8268528  57.6994703
  43.0465770 128.1300225  58.3079660  44.1069893 128.6297608  57.3500160
  42.9362527 115.3233659  67.1892372  42.0185089 115.5448606  67.0314060
  43.3522671 115.3979970  66.3304079  43.7197575 116.7225075  62.3195052
  44.4669394 117.2346472  62.0102174  43.9889165 116.4009127  63.1799446
  41.9924225 119.2183615  59.3022007  41.0835445 118.9342648  59.3994476
  42.0219309 119.6382694  58.4425313  47.2243493 122.8290205  63.0713174
  46.7705820 121.9881115  63.1278365  46.5937459 123.4651603  63.4087954
  46.1676412 113.7582191  64.3013842  45.4299169 113.2459577  64.6324084
  46.4203186 113.3182573  63.4897118  45.6676432 124.6666702  64.0062992
  45.9599406 125.2271759  63.2875358  46.1775053 124.9595263  64.7616151
  46.2688040 106.5358443  64.8955611  46.5746916 105.6755806  64.6081526
  46.9940644 107.1276063  64.6954605  32.5612396 116.9389130  63.2837209
  32.3636796 116.3458490  62.5588275  32.0059060 116.6341340  64.0013148
  40.5409119 116.8312236  65.4031802  40.5957729 115.8786072  65.3274279
  39.7300321 116.9871675  65.8873100  41.6900313 120.7592359  56.6410085
  41.2519743 120.0428218  56.1815723  42.4310754 120.9868474  56.0795177
  38.4801479 115.4489296  63.1622181  37.6669345 115.7483466  63.5687373
  38.9760474 115.0544985  63.8796663  40.6310057 125.4447053  65.0956446
  40.5886236 125.6707899  64.1664978  41.5472756 125.2110427  65.2442247
  44.0775691 115.9131120  71.9937075  44.4325079 116.1402593  72.8531540
  44.7247822 116.2449497  71.3714330  49.8073428 119.0349556  62.6986404
  49.6691327 119.2251152  61.7707593  49.4509647 119.7968939  63.1554455
  37.9715554 113.0207651  68.7783416  38.6114933 112.8796410  68.0806379
  37.1393085 112.7342165  68.4022018  49.8342808 121.1026083  67.7097675
  50.2679314 121.0101372  68.5580729  50.5474388 121.0783584  67.0717691
  38.7475858 122.3210082  64.8918408  39.5416456 121.8260402  64.6900983
  38.0367550 121.7927945  64.5286114  43.5670702 124.7028177  69.2430776
  43.6207725 125.2719114  70.0108492  42.6985484 124.8730062  68.8784813
  35.0558621 116.4653163  60.9678161  34.1256210 116.4037619  61.1848123
  35.1516093 115.9429116  60.1714802  34.9744170 112.9907976  63.5556403
  35.2350988 113.9053310  63.4465563  35.7961343 112.5232419  63.7053015
  36.4469096 114.4045733  70.7255227  37.1192149 114.1963096  70.0767876
  35.6198882 114.2067819  70.2860459  50.6958357 121.1449784  70.2430561
  50.8894247 122.0495594  70.4889836  50.5958975 120.6857203  71.0769146
  42.3494668 111.0307674  72.7420888  41.7022583 111.7297624  72.6485364
  43.1195683 111.4643818  73.1097136  45.7573466 121.2956527  75.8171441
  45.6058972 121.0667078  74.9001525  45.7478145 122.2527128  75.8302786
  42.5258802 118.8688439  70.8017708  43.4550862 119.0199599  70.6286675
  42.1049832 118.9572460  69.9466354  41.3247134 122.8939104  68.5716245
  41.1858220 122.5257888  69.4442183  40.5361730 123.4086743  68.4000203
  41.9195286 127.9948200  59.9141782  42.0947042 127.5236243  60.7287405
  41.2328074 128.6213966  60.1423043  42.8752349 122.2720706  65.9605083
  42.5402182 122.2321476  66.8562733  42.3756295 121.6065422  65.4875493
  36.8496593 117.6788336  71.4857664  36.7116391 116.9468575  72.0869203
  37.7601517 117.5897237  71.2041852  45.8111541 119.6176741  56.2342143
  45.1940711 118.8923569  56.1375195  45.3428029 120.3786101  55.8909217
  39.4778894 117.3908296  70.9741344  40.1878512 116.7501488  70.9327962
  39.4348202 117.6421191  71.8967525  47.4665672 124.3275649  73.8947923
  47.4078219 123.6434869  73.2278506  47.8685191 125.0694639  73.4428549
  38.1907828 114.3773514  72.7936983  37.6545185 113.9264252  73.4458580
  37.6024536 114.5119423  72.0507448  36.4856371 131.1437563  66.6881642
  36.7252969 131.7756087  67.3660661  35.6425568 130.7925603  66.9747001
  37.6010087 113.8362165  55.3563447  36.7239553 113.7150966  54.9925694
  38.0767840 113.0448243  55.1042336  47.4683080 122.2915233  72.1261903
  46.5809858 121.9541155  72.2488302  48.0381631 121.5598264  72.3630668
  29.1212227 118.6239325  65.4504954  29.8083267 118.3101055  64.8625969
  28.9660356 119.5280689  65.1772206  33.9246949 113.5129521  69.8789978
  33.8405138 112.9055191  69.1440388  33.1029655 114.0038540  69.8799474
  40.9984233 126.9516685  69.0923146  40.9254405 127.7571657  69.6042451
  40.5561626 127.1508651  68.2671167  40.7874013 126.1888455  62.6025968
  40.0041535 126.7310136  62.6964192  41.4866758 126.7062435  63.0020209
  44.0970663 111.9983085  65.2460173  44.5939362 111.2453047  64.9261243
  43.3257644 112.0347402  64.6803382  51.9500420 117.7023450  66.8878464
  51.9390296 118.5848166  66.5172398  51.0817800 117.3495001  66.6933001
  43.4582917 126.8503519  71.2481305  44.1710889 127.4850984  71.1757206
  42.9672945 126.9467385  70.4321306  45.1800444 120.7554772  62.8198596
  44.2456722 120.8756235  62.6503301  45.3577112 119.8527239  62.5558606
  40.6805632 114.1400468  64.9731858  40.3103419 113.5871508  65.6612763
  41.1764724 113.5358601  64.4206858  48.5672995 116.5972091  63.3548630
  49.0333447 117.4300083  63.2808933  49.0180495 116.1317073  64.0593889
  38.5094830 124.5997963  72.0686875  39.2104290 125.2334446  72.2216270
  38.0389945 124.9412694  71.3082515  46.6349226 122.9415913  60.3534783
  46.9109070 122.8272507  61.2628657  45.7653725 122.5433398  60.3146956
  46.5389658 108.9652678  67.3939532  45.6252737 109.1956905  67.5621739
  46.9682759 109.0491122  68.2453564  46.3096116 117.1542570  69.8939426
  45.6567566 117.4018478  69.2391879  46.6876496 116.3406709  69.5601903
  43.2703290 127.1902264  63.9967596  43.4525685 126.3723919  64.4595348
  44.0936276 127.4069956  63.5592486  43.6045455 126.1170449  61.2582645
  44.1333222 125.6062903  60.6452807  43.8673675 125.8012979  62.1228178
  42.3583689 117.8962381  76.3805463  41.6824326 117.7956511  77.0507838
  43.1811323 117.7401595  76.8441460  34.1062548 124.1334318  69.0017978
  34.6915985 123.3878006  69.1345882  33.9087387 124.4438275  69.8854642
  36.9601203 127.1685565  64.0180421  36.2911579 127.6531693  63.5344461
  36.8214073 127.4154786  64.9323799  28.6980203 116.7039918  67.7222421
  28.7364302 116.1703509  68.5159539  28.1920496 116.1775124  67.1033398
  41.1006472 129.2029309  70.6163079  41.6524780 129.3660930  71.3812164
  41.4412665 129.7933747  69.9443104  36.0770965 111.5504459  71.2184964
  36.1412292 112.4119290  70.8062361  36.0138085 110.9378460  70.4857322
  35.5523238 113.6227591  74.8657998  36.1795277 113.2404669  75.4795522
  34.6951157 113.4041793  75.2313690  45.9517346 124.0290566  76.4711733
  46.4957250 124.6420525  75.9766688  45.3704191 124.5870145  76.9878746
  32.3288781 115.4304020  60.7976353  32.6242222 114.5214699  60.7443406
  31.4276816 115.4091760  60.4757355  44.2374859 127.1511284  67.6026761
  44.1125999 126.3501024  67.0937707  44.8953950 127.6457478  67.1140731
  35.8583028 113.5060017  66.7803901  35.1369613 114.1195985  66.6411375
  36.6476283 114.0417782  66.7020547  46.3009768 124.9520304  69.2306311
  45.3540103 124.8325656  69.1584638  46.6492541 124.0642803  69.3132573
  38.6609341 110.8414443  73.0544553  39.1843743 111.0876740  73.8170862
  38.4421674 111.6734478  72.6347690  34.0576622 113.1118118  60.9215678
  33.7289328 112.2315497  60.7390784  34.4115993 113.0565787  61.8092067
  43.3056201 124.7473021  65.4310663  43.1581163 123.8189728  65.6118233
  44.1309694 124.7693111  64.9467739  37.1718445 113.3991088  61.2891156
  37.5114518 113.9277009  60.5669764  37.6190566 113.7371494  62.0649722
  46.9090323 125.5701579  66.5175536  47.8336870 125.3644441  66.3799987
  46.7405626 125.3217981  67.4264878  39.8661886 111.7828139  70.7394224
  39.5258706 110.9835952  71.1414903  39.1600892 112.0829849  70.1671057
  40.5178358 108.8677451  69.1921547  41.3404427 108.3937929  69.0700437
  40.7616421 109.6467935  69.6920233  39.1586592 111.8965709  59.4884448
  39.8794955 112.2746962  58.9848165  38.5351897 112.6154586  59.5919426
  43.3017715 112.6010858  60.4242781  43.5181330 113.4835496  60.1231609
  42.8211782 112.2097072  59.6948423  38.0416937 115.5596572  67.0013525
  37.8961517 115.8736875  67.8937807  37.5642140 116.1781472  66.4484424
  39.9013320 112.5499120  67.0494415  39.8874888 111.6540213  66.7126713
  40.6185748 112.5569783  67.6832701  41.7539450 112.9836460  69.0947542
  41.4957228 113.9053530  69.0931873  41.2224491 112.5866894  69.7848006
  46.6985639 126.0887247  61.8737628  46.8722517 125.5233669  61.1211480
  47.1914530 126.8888142  61.6917118  32.5162599 118.1001916  69.9401186
  31.9716067 118.8761724  70.0721461  33.3941949 118.4472720  69.7820308
  39.3050215 111.4313500  62.3181985  39.4266127 110.5030146  62.5172872
  39.0152258 111.4452186  61.4060300  42.1741406 109.1168410  65.4548705
  42.1963103 109.1807743  64.5000684  42.5909465 108.2772919  65.6489211
  52.5525030 118.8523670  63.4927927  52.9956176 118.1030995  63.0947051
  51.6751540 118.8433806  63.1101659  47.6860812 125.4054011  58.9734526
  48.3811716 126.0260704  59.1921841  48.0283962 124.5549363  59.2486904
  33.3028621 117.2271812  72.8331343  32.5610357 117.3754448  73.4195974
  32.9821365 117.4880078  71.9698093  49.5852235 122.8553717  60.5021857
  50.1103559 123.1940990  59.7771177  49.4974587 121.9200732  60.3184991
  41.2472283 126.7687790  72.6311733  41.5559410 126.5236937  73.5034433
  42.0447765 126.9734429  72.1430604  41.2692895 128.9225700  64.8617110
  40.8297886 128.4302079  65.5549967  42.0201012 128.3798668  64.6209185
  33.7485234 125.1137241  64.8641738  34.5743254 124.8141013  64.4840381
  33.3979286 124.3444863  65.3131527  38.7166768 124.4663709  66.9339412
  38.0946777 123.8034414  66.6341639  39.3871634 124.4924841  66.2513059
  31.9493839 123.0323567  65.8230672  31.1125748 122.6045742  65.6414673
  31.9217485 123.2256011  66.7601463  38.7891295 112.9445497  76.5271918
  38.8379451 113.8207620  76.1449687  39.3313809 112.4022890  75.9543561
  49.2746141 123.4886620  75.8073055  48.4841684 123.4710759  75.2677554
  49.0379495 124.0274914  76.5622091  49.3944016 120.3379087  73.1205783
  49.4442021 120.1729094  74.0621306  49.2857939 119.4706346  72.7303664
  38.2780274 123.0167633  60.4097872  38.4268395 123.7003097  59.7564545
  39.0846718 122.9972723  60.9247328  46.6847778 116.3210015  74.4365090
  47.5857641 116.1816480  74.1449088  46.7595753 116.4864470  75.3763267
  41.0190583 113.6976870  73.2818276  40.1493893 113.9910436  73.0100865
  41.2550064 114.2817315  74.0025540  50.8962213 122.7576028  73.3647805
  50.6047021 123.1206009  74.2011266  50.2834344 122.0443037  73.1861137
  52.0957895 120.3228908  65.8850375  52.9304786 120.7618712  66.0487935
  52.2317024 119.8467561  65.0658621  49.1449401 117.8808643  71.8327863
  49.6203522 118.0736289  71.0246714  48.2214966 117.9367829  71.5871246
  36.0332907 119.0432810  61.4158941  35.7878949 118.1395140  61.6139151
  36.2028822 119.0449961  60.4738419  43.7229617 109.9156487  70.7983697
  44.2411561 110.6517513  70.4730185  43.3684750 110.2220480  71.6330456
  35.3028555 114.7761168  58.9145102  34.6097800 114.8505523  58.2585138
  35.0580307 114.0121511  59.4366619  43.9742211 106.3356769  66.3184593
  44.2543965 105.6679958  66.9445020  44.7592818 106.5285865  65.8059257
  41.7775680 125.5115763  57.8809619  41.2049647 126.1305950  57.4280091
  42.3508474 126.0615125  58.4149541  47.8451070 114.7574403  70.0656168
  48.7968493 114.8572501  70.0868392  47.6754520 113.9652672  70.5754253
  45.8665449 111.8429986  70.2515569  45.2715381 112.1234999  69.5562058
  45.5815146 112.3323887  71.0232310  44.9972940 125.7952913  59.0118202
  45.9303613 125.7298475  59.2151077  44.9096153 126.6309180  58.5532734
  47.6260956 125.1118783  55.9722149  47.5474588 124.7778647  56.8657907
  48.4470623 125.6040551  55.9713622  50.3239148 117.9780523  69.1798468
  50.2915468 117.0396523  69.3658152  50.9339771 118.0564559  68.4464293
  42.1622478 116.8476576  55.2225672  43.1081583 116.7182784  55.2914090
  41.7836723 116.1091238  55.6995100  50.4733636 114.7691566  69.2256751
  49.9572685 113.9850023  69.0386680  51.3573585 114.4410283  69.3903271
  48.1344363 108.5132582  65.1852564  47.9369184 108.2047670  66.0695896
  48.7444069 109.2394221  65.3150494  56.1415697 119.0396530  68.3204505
  56.8719086 118.7781818  68.8812208  55.5322643 118.3025252  68.3606573
  54.2230995 117.1804392  68.9178956  53.4964158 117.0460357  68.3095448
  53.8078281 117.4881221  69.7235674  42.0461171 120.8994322  76.6826329
  42.9664180 121.0772921  76.8766375  42.0110754 119.9550367  76.5306028
  40.3465396 114.7726552  55.1580557  39.4396851 114.4759665  55.2343271
  40.6241377 114.4756370  54.2914843  31.2643336 116.0932916  65.6079604
  30.9446120 115.2398224  65.3153978  30.7176764 116.3081494  66.3637571
  35.0423244 118.8095357  69.3249110  35.2609253 119.7412464  69.3437144
  35.4549017 118.4503331  70.1103914  41.9627461 109.3163442  61.3124798
  41.1528190 108.9710527  61.6880045  42.6511878 109.0070986  61.9012410
  43.8918010 108.3941489  62.9349095  44.4449048 108.8136942  63.5939118
  44.1288096 107.4677237  62.9772051  39.9151109 114.3828562  78.7151859
  39.8147836 115.3322919  78.6463950  39.6972651 114.0546801  77.8427929
  39.1164180 111.6313487  55.2992536  39.9783344 111.9568386  55.5588354
  39.3014524 110.8444983  54.7865602  31.1331596 119.7135827  67.5772725
  30.4395067 119.2989780  67.0642680  31.8804587 119.7556364  66.9806144
  47.2696817 110.5042014  62.4427759  46.6895486 111.1626818  62.0605812
  47.0032749 109.6819358  62.0315177  45.7200383 109.9047071  64.6449080
  46.2200161 110.0163606  63.8363399  46.3635991 109.6008124  65.2849888
  39.7782379 117.8125701  77.5316921  39.2949461 118.6126061  77.7380810
  39.8643318 117.8233646  76.5784365  33.0468339 119.6454081  65.4538740
  33.0239027 119.7441768  64.5020623  33.3568975 120.4919232  65.7755906
  35.7055716 121.7030236  69.5685354  36.6598970 121.6714178  69.5015286
  35.5068240 121.2420860  70.3835580  36.2955099 120.2731352  72.1356152
  37.1147988 120.7675431  72.1590989  36.5691906 119.3563320  72.1073720
  46.0521695 112.6642104  61.4984108  45.1647550 112.9491755  61.2804302
  46.4675684 112.5035868  60.6511385  49.4036231 112.6888625  65.2138447
  50.1796621 113.1785078  65.4863064  48.6784365 113.1146679  65.6710316
  51.8408790 113.4016244  66.2712388  52.4353280 113.1611980  65.5605696
  51.9135373 112.6823375  66.8985924  34.0605945 127.2449855  66.5855552
  33.9260413 126.4850256  66.0193550  33.6438007 127.9690755  66.1184341
  45.1964908 122.4286779  55.5932128  45.9000758 122.6336781  56.2089783
  44.4727557 122.9963541  55.8581211  46.0262718 118.1796640  61.7134398
  45.9697920 118.6365192  60.8742030  46.5791061 117.4187325  61.5357241
  49.8367524 113.9686372  62.5384517  49.5804459 113.5683008  63.3692725
  49.2120392 114.6830166  62.4134656  54.1479862 116.7082445  65.0455809
  53.5879420 116.7775635  65.8187371  53.5423366 116.5323430  64.3255305
  37.2175071 128.1419172  66.7973995  37.1007455 129.0864605  66.6952685
  36.3967517 127.8392734  67.1859794  47.1051606 122.8669308  57.6430588
  47.9397210 122.4350507  57.4608062  46.9435949 122.6951322  58.5707482
  46.7597498 119.3701421  59.0086927  46.7046302 119.2045693  58.0675371
  46.1343553 120.0777454  59.1649117  31.5490013 114.6069486  72.8348349
  32.1948876 114.0968440  73.3235574  31.3407164 115.3438167  73.4091774
  44.0743405 121.6750333  78.3340490  44.9434565 121.8490986  77.9727125
  43.5950156 122.4944750  78.2116219  40.0693623 108.8709530  58.5872245
  40.0572293 109.8151370  58.7440516  40.9617045 108.6879676  58.2931707
  38.2429585 128.7947434  70.0129923  39.1456832 128.8271044  70.3296418
  38.0166955 127.8647885  70.0276259  39.9983187 127.5478421  66.6740002
  39.0478818 127.5480282  66.5604374  40.3015673 126.8011155  66.1576037
  43.8845743 105.4652307  62.8418182  43.1178139 104.9110794  62.9874865
  44.2956448 105.5374176  63.7032334  35.8887504 111.7537103  76.9323363
  36.7518965 111.3973908  77.1426688  35.3152914 111.4150998  77.6198768
  55.7335881 133.3838959  67.7385764  56.3714291 133.2645707  67.0349105
  55.6156724 134.3319803  67.7973717  52.5425587 133.3366387  67.6747289
  52.2044099 133.2207452  66.7867824  53.4115355 132.9357552  67.6548295
  48.4012403 135.1901864  63.6644180  47.8377268 135.0991801  62.8960468
  48.2864798 134.3701768  64.1446673  53.0245370 134.4901239  73.6333495
  53.0134011 134.0954037  72.7613998  53.1866009 133.7567312  74.2267266
  45.9476835 136.6853055  66.5028401  46.7398127 136.3443880  66.0874700
  46.1873485 136.7948030  67.4230554  53.9811961 138.8572831  58.9758645
  53.3299941 139.4426912  58.5892659  54.7756324 139.3879026  59.0353682
  47.9067589 135.9461969  59.3745779  48.6798465 135.3990956  59.2358655
  48.2592987 136.8106218  59.5860241  49.7452631 137.2738351  72.5812679
  49.4542497 138.1783982  72.4659345  50.3809615 137.3154878  73.2956748
  50.6708838 134.6515199  69.1714038  51.2672410 134.4271222  68.4571001
  50.7283810 133.9099945  69.7739486  50.2433866 132.1054635  57.0064229
  50.4959387 131.5836156  56.2447692  49.3058425 131.9420780  57.1090913
  55.2877149 131.1090413  64.8138972  56.0740238 130.6909836  64.4629389
  55.5515854 132.0136505  64.9820621  55.4587227 136.5463263  59.5127629
  54.8233060 136.6197890  60.2248534  55.1284633 137.1356862  58.8346709
  60.6885576 131.0465646  65.7171951  61.4210748 130.4764863  65.9509780
  59.9324932 130.6587247  66.1578457  49.9630155 134.0082741  59.2088604
  49.8466413 133.3327644  59.8769689  50.0732415 133.5215115  58.3920757
  52.3061696 133.4692888  62.9135293  51.9419903 132.9423509  63.6248215
  53.1628812 133.0791357  62.7401779  58.2110997 124.7587220  70.1766560
  57.8794321 125.6282631  69.9527775  57.6156610 124.4423504  70.8560590
  51.9467183 128.4982787  57.9096642  52.1141585 129.3663024  58.2767113
  51.7564352 128.6610069  56.9857931  54.7042516 136.9599766  69.5762472
  54.4043239 137.8624805  69.4678280  54.3593576 136.6931950  70.4283625
  48.1554998 133.4113563  65.6099177  47.2305494 133.2789777  65.8176869
  48.4039411 134.1907782  66.1069119  58.1039660 129.4782306  67.2559910
  57.1956537 129.4097715  66.9618671  58.0527256 129.9554251  68.0841735
  51.9256404 130.9540445  58.8943309  51.8056029 131.3997496  59.7328789
  51.2308992 131.3025763  58.3356847  45.5163809 133.0546837  66.4442966
  45.6456190 133.3081316  67.3582378  44.8361260 133.6474545  66.1247621
  49.6863296 143.7244087  62.5433440  49.6087326 144.6751912  62.6221921
  49.0824940 143.3789959  63.2008366  52.1780526 130.8971952  75.1994807
  51.4013860 131.4565872  75.1897672  52.8171089 131.3828735  75.7209677
  59.9701306 127.6798745  69.0337784  59.3275687 127.9731278  68.3877578
  59.4656235 127.5651665  69.8390980  57.6241470 131.4261918  59.7223643
  58.5359326 131.6589305  59.5471340  57.1151117 132.0098962  59.1598721
  50.4326898 133.7057405  74.7612774  51.1741582 134.2442449  74.4847598
  49.7263884 134.3323694  74.9184326  55.9082238 135.8486546  73.3584935
  56.3165594 135.4068956  72.6139568  55.1859499 135.2739173  73.6119128
  52.2613308 130.7859153  70.7318492  53.1074503 131.2098566  70.8753141
  52.2011945 130.1292777  71.4257055  56.2311052 136.4087737  67.1137224
  55.6019915 136.5733451  66.4113292  55.8436714 136.8229346  67.8848188
  60.1100284 137.3442174  64.4681588  59.4251322 137.7241076  63.9178621
  60.1944134 137.9537501  65.2013536  55.4112753 128.4463521  72.3899666
  55.1673685 129.2005582  71.8533942  55.6872684 128.8248869  73.2246913
  57.3651216 134.9902133  71.0676932  57.5768111 135.6333893  70.3911313
  57.3180964 134.1564450  70.5998862  54.9677445 127.6019954  67.9713504
  54.1061924 127.9001208  68.2630241  54.9939879 127.8190353  67.0394536
  51.7839014 136.1462145  64.3787309  52.2477360 136.4249848  63.5891932
  51.5195812 135.2445589  64.1960400  48.6763095 135.6933626  67.3167073
  49.2464452 136.1220895  66.6784557  49.2671207 135.4116211  68.0151258
  50.7207900 132.2685297  61.1876875  51.4231944 132.7206341  61.6550801
  50.3888529 131.6269116  61.8156768  49.1688262 130.8597054  75.5628084
  48.5386922 131.5413334  75.7963481  49.0624350 130.7480135  74.6181222
  44.4633234 130.5268850  66.4894008  43.6732288 130.7826378  66.0134119
  44.9544482 131.3417188  66.5946049  58.4797044 137.8674089  69.2399289
  59.3014488 137.4654276  68.9581971  58.4759447 137.7642323  70.1915405
  46.4147980 130.8913429  63.4477485  45.6179143 131.0032123  63.9660980
  46.1873572 131.2300081  62.5818375  52.2453647 137.4158132  71.3959999
  52.3098080 137.8778539  72.2318171  51.5364571 136.7855497  71.5242309
  42.7470937 130.7799340  68.9208999  42.9978976 131.6646350  69.1866575
  43.2830486 130.6003942  68.1484091  66.5703037 134.2112837  65.5884260
  65.8166745 133.6420235  65.4328265  66.7050578 134.1775502  66.5354895
  51.9601665 139.0826240  61.2638980  51.8247340 139.9277775  61.6923828
  52.5011477 139.2845517  60.5004914  48.4469005 125.1617819  77.9253335
  48.0535950 124.6084018  78.6000979  49.2635145 125.4728398  78.3159852
  45.4131062 136.6001678  61.8366905  45.9255583 137.3944928  61.9872470
  46.0653775 135.9027968  61.7700506  47.2225947 139.7167434  63.9189658
  47.3992575 140.6385399  63.7310642  48.0182781 139.4025853  64.3484038
  51.3636966 126.5775699  75.5173592  52.1046679 127.1782852  75.4378054
  51.5954888 125.8353336  74.9591634  46.5078304 131.7632066  73.7951821
  46.3931819 130.8617323  74.0958920  45.6522821 132.0095763  73.4436638
  53.5870141 139.7049806  75.3939322  53.1433995 138.9186185  75.0760226
  54.2487355 139.8928957  74.7283213  48.3457262 141.2345608  69.9200000
  48.8964688 141.1062671  69.1476994  47.5068738 141.5340497  69.5694893
  55.6851379 139.9852606  73.4220723  55.6669855 140.8061487  72.9300992
  56.6071299 139.8606681  73.6470864  52.1424434 137.4996736  74.2644231
  52.6752770 136.7385024  74.0343539  51.6138515 137.2070387  75.0068386
  55.3094128 122.6056801  69.7937873  54.9658398 123.4958443  69.7176984
  55.6773091 122.4158459  68.9307458  43.3779979 134.9290332  62.6126475
  44.2155201 135.3387340  62.3960183  43.5558247 133.9889774  62.5826669
  55.2744411 132.5965413  58.3010308  54.7591035 133.3670017  58.5398696
  55.0021720 131.9230549  58.9243370  52.8591522 127.4415113  63.3595547
  52.0033119 127.0521964  63.1801185  53.2718474 127.5207074  62.4995332
  54.3890669 124.9761457  67.7587106  53.8855464 124.9391592  66.9454912
  54.6821276 125.8854199  67.8183763  50.6333555 125.0600186  66.7653288
  51.4986552 124.8642995  66.4059178  50.7011064 124.8310538  67.6922645
  60.2478685 135.3497767  60.2363482  59.4708128 135.0108927  59.7918644
  60.9270166 135.3550390  59.5618447  55.0630714 130.4692505  60.1270089
  54.7580850 130.7838654  60.9780233  56.0161157 130.5473925  60.1697422
  53.5077146 136.6282728  61.7763043  52.9798508 135.8935488  61.4636281
  53.0064649 137.4057404  61.5303012  58.4869992 134.8231748  66.8930090
  57.8293667 135.5131010  66.9810218  59.2910391 135.2128180  67.2364076
  48.2395874 127.2902394  64.1369655  48.8139626 127.0677576  63.4042848
  48.8266856 127.3591089  64.8898256  57.2975451 133.1776121  64.9434032
  57.8107333 133.8106113  65.4455741  57.9476675 132.5777317  64.5777392
  48.5665461 129.3206855  58.1565540  47.7302773 129.6581542  58.4774815
  48.4270231 129.1855835  57.2192677  50.5418542 124.1643643  62.8644724
  49.8882954 123.8492660  62.2401339  50.4999016 123.5419384  63.5904547
  51.6529746 134.4462938  54.7798016  50.7456808 134.2152192  54.9789165
  52.1500778 133.6500558  54.9671998  54.5597825 143.1560445  57.6994703
  53.8859524 143.4592142  58.3079660  54.9463647 143.9589526  57.3500160
  53.7756282 130.6525577  67.1892372  52.8578843 130.8740524  67.0314060
  54.1916426 130.7271887  66.3304079  54.5591330 132.0516992  62.3195052
  55.3063149 132.5638390  62.0102174  54.8282919 131.7301045  63.1799446
  52.8317980 134.5475533  59.3022007  51.9229199 134.2634566  59.3994476
  52.8613064 134.9674612  58.4425313  58.0637247 138.1582123  63.0713174
  57.6099574 137.3173033  63.1278365  57.4331214 138.7943521  63.4087954
  57.0070167 129.0874109  64.3013842  56.2692924 128.5751495  64.6324084
  57.2596940 128.6474490  63.4897118  56.5070187 139.9958619  64.0062992
  56.7993161 140.5563676  63.2875358  57.0168807 140.2887180  64.7616151
  57.1081794 121.8650361  64.8955611  57.4140671 121.0047724  64.6081526
  57.8334399 122.4567981  64.6954605  43.4006150 132.2681047  63.2837209
  43.2030550 131.6750408  62.5588275  42.8452814 131.9633257  64.0013148
  51.3802874 132.1604154  65.4031802  51.4351484 131.2077990  65.3274279
  50.5694076 132.3163593  65.8873100  52.5294068 136.0884277  56.6410085
  52.0913498 135.3720136  56.1815723  53.2704509 136.3160392  56.0795177
  49.3195234 130.7781213  63.1622181  48.5063099 131.0775384  63.5687373
  49.8154228 130.3836902  63.8796663  51.4703812 140.7738970  65.0956446
  51.4279990 140.9999817  64.1664978  52.3866511 140.5402345  65.2442247
  54.9169445 131.2423038  71.9937075  55.2718833 131.4694511  72.8531540
  55.5641577 131.5741415  71.3714330  60.6467182 134.3641474  62.6986404
  60.5085081 134.5543070  61.7707593  60.2903401 135.1260857  63.1554455
  48.8109309 128.3499569  68.7783416  49.4508688 128.2088328  68.0806379
  47.9786839 128.0634082  68.4022018  60.6736562 136.4318001  67.7097675
  61.1073069 136.3393290  68.5580729  61.3868143 136.4075501  67.0717691
  49.5869612 137.6501999  64.8918408  50.3810211 137.1552320  64.6900983
  48.8761305 137.1219863  64.5286114  54.4064457 140.0320095  69.2430776
  54.4601479 140.6011031  70.0108492  53.5379238 140.2021980  68.8784813
  45.8952376 131.7945081  60.9678161  44.9649964 131.7329537  61.1848123
  45.9909848 131.2721034  60.1714802  45.8137925 128.3199894  63.5556403
  46.0744742 129.2345227  63.4465563  46.6355097 127.8524337  63.7053015
  47.2862850 129.7337651  70.7255227  47.9585904 129.5255013  70.0767876
  46.4592637 129.5359737  70.2860459  61.5352112 136.4741702  70.2430561
  61.7288002 137.3787512  70.4889836  61.4352730 136.0149121  71.0769146
  53.1888422 126.3599592  72.7420888  52.5416337 127.0589542  72.6485364
  53.9589438 126.7935736  73.1097136  56.5967220 136.6248444  75.8171441
  56.4452727 136.3958996  74.9001525  56.5871900 137.5819046  75.8302786
  53.3652557 134.1980357  70.8017708  54.2944617 134.3491517  70.6286675
  52.9443587 134.2864378  69.9466354  52.1640888 138.2231021  68.5716245
  52.0251974 137.8549806  69.4442183  51.3755485 138.7378661  68.4000203
  52.7589040 143.3240118  59.9141782  52.9340796 142.8528161  60.7287405
  52.0721828 143.9505884  60.1423043  53.7146104 137.6012624  65.9605083
  53.3795936 137.5613394  66.8562733  53.2150049 136.9357340  65.4875493
  47.6890348 133.0080254  71.4857664  47.5510146 132.2760493  72.0869203
  48.5995271 132.9189154  71.2041852  56.6505295 134.9468658  56.2342143
  56.0334466 134.2215487  56.1375195  56.1821784 135.7078019  55.8909217
  50.3172648 132.7200213  70.9741344  51.0272267 132.0793406  70.9327962
  50.2741956 132.9713108  71.8967525  58.3059427 139.6567567  73.8947923
  58.2471973 138.9726787  73.2278506  58.7078945 140.3986557  73.4428549
  49.0301582 129.7065431  72.7936983  48.4938939 129.2556170  73.4458580
  48.4418291 129.8411340  72.0507448  47.3250126 146.4729481  66.6881642
  47.5646724 147.1048005  67.3660661  46.4819322 146.1217521  66.9747001
  48.4403841 129.1654083  55.3563447  47.5633307 129.0442884  54.9925694
  48.9161594 128.3740161  55.1042336  58.3076834 137.6207151  72.1261903
  57.4203613 137.2833073  72.2488302  58.8775385 136.8890182  72.3630668
  39.9605981 133.9531242  65.4504954  40.6477021 133.6392973  64.8625969
  39.8054110 134.8572607  65.1772206  44.7640703 128.8421439  69.8789978
  44.6798892 128.2347109  69.1440388  43.9423410 129.3330457  69.8799474
  51.8377988 142.2808603  69.0923146  51.7648159 143.0863575  69.6042451
  51.3955381 142.4800569  68.2671167  51.6267767 141.5180373  62.6025968
  50.8435289 142.0602053  62.6964192  52.3260512 142.0354353  63.0020209
  54.9364417 127.3275003  65.2460173  55.4333117 126.5744965  64.9261243
  54.1651399 127.3639319  64.6803382  62.7894175 133.0315368  66.8878464
  62.7784051 133.9140084  66.5172398  61.9211554 132.6786919  66.6933001
  54.2976671 142.1795437  71.2481305  55.0104643 142.8142902  71.1757206
  53.8066700 142.2759303  70.4321306  56.0194198 136.0846690  62.8198596
  55.0850477 136.2048152  62.6503301  56.1970866 135.1819157  62.5558606
  51.5199386 129.4692386  64.9731858  51.1497174 128.9163426  65.6612763
  52.0158479 128.8650519  64.4206858  59.4066749 131.9264009  63.3548630
  59.8727202 132.7592001  63.2808933  59.8574250 131.4608991  64.0593889
  49.3488585 139.9289881  72.0686875  50.0498044 140.5626364  72.2216270
  48.8783700 140.2704612  71.3082515  57.4742980 138.2707830  60.3534783
  57.7502824 138.1564425  61.2628657  56.6047479 137.8725315  60.3146956
  57.3783412 124.2944596  67.3939532  56.4646492 124.5248823  67.5621739
  57.8076514 124.3783040  68.2453564  57.1489871 132.4834488  69.8939426
  56.4961321 132.7310395  69.2391879  57.5270251 131.6698626  69.5601903
  54.1097044 142.5194181  63.9967596  54.2919439 141.7015837  64.4595348
  54.9330031 142.7361873  63.5592486  54.4439210 141.4462366  61.2582645
  54.9726976 140.9354821  60.6452807  54.7067430 141.1304897  62.1228178
  53.1977444 133.2254299  76.3805463  52.5218081 133.1248428  77.0507838
  54.0205078 133.0693513  76.8441460  44.9456303 139.4626236  69.0017978
  45.5309740 138.7169924  69.1345882  44.7481141 139.7730192  69.8854642
  47.7994958 142.4977483  64.0180421  47.1305333 142.9823611  63.5344461
  47.6607828 142.7446703  64.9323799  39.5373957 132.0331836  67.7222421
  39.5758057 131.4995427  68.5159539  39.0314250 131.5067041  67.1033398
  51.9400227 144.5321227  70.6163079  52.4918535 144.6952848  71.3812164
  52.2806420 145.1225664  69.9443104  46.9164720 126.8796376  71.2184964
  46.9806046 127.7411207  70.8062361  46.8531840 126.2670378  70.4857322
  46.3916992 128.9519509  74.8657998  47.0189031 128.5696586  75.4795522
  45.5344911 128.7333711  75.2313690  56.7911101 139.3582484  76.4711733
  57.3351005 139.9712442  75.9766688  56.2097946 139.9162062  76.9878746
  43.1682535 130.7595938  60.7976353  43.4635976 129.8506616  60.7443406
  42.2670571 130.7383677  60.4757355  55.0768614 142.4803202  67.6026761
  54.9519753 141.6792942  67.0937707  55.7347705 142.9749395  67.1140731
  46.6976782 128.8351935  66.7803901  45.9763368 129.4487902  66.6411375
  47.4870038 129.3709699  66.7020547  57.1403522 140.2812222  69.2306311
  56.1933858 140.1617573  69.1584638  57.4886295 139.3934720  69.3132573
  49.5003096 126.1706361  73.0544553  50.0237497 126.4168658  73.8170862
  49.2815429 127.0026396  72.6347690  44.8970377 128.4410036  60.9215678
  44.5683083 127.5607415  60.7390784  45.2509747 128.3857704  61.8092067
  54.1449955 140.0764938  65.4310663  53.9974918 139.1481646  65.6118233
  54.9703449 140.0985029  64.9467739  48.0112200 128.7283005  61.2891156
  48.3508272 129.2568927  60.5669764  48.4584320 129.0663412  62.0649722
  57.7484077 140.8993497  66.5175536  58.6730625 140.6936358  66.3799987
  57.5799381 140.6509898  67.4264878  50.7055641 127.1120056  70.7394224
  50.3652461 126.3127869  71.1414903  49.9994647 127.4121767  70.1671057
  51.3572112 124.1969369  69.1921547  52.1798182 123.7229847  69.0700437
  51.6010176 124.9759852  69.6920233  49.9980347 127.2257627  59.4884448
  50.7188709 127.6038880  58.9848165  49.3745651 127.9446504  59.5919426
  54.1411470 127.9302776  60.4242781  54.3575084 128.8127414  60.1231609
  53.6605537 127.5388989  59.6948423  48.8810691 130.8888489  67.0013525
  48.7355272 131.2028792  67.8937807  48.4035895 131.5073390  66.4484424
  50.7407074 127.8791037  67.0494415  50.7268643 126.9832131  66.7126713
  51.4579502 127.8861701  67.6832701  52.5933205 128.3128377  69.0947542
  52.3350983 129.2345448  69.0931873  52.0618245 127.9158812  69.7848006
  57.5379394 141.4179165  61.8737628  57.7116271 140.8525587  61.1211480
  58.0308285 142.2180059  61.6917118  43.3556353 133.4293834  69.9401186
  42.8109821 134.2053642  70.0721461  44.2335703 133.7764638  69.7820308
  50.1443970 126.7605418  62.3181985  50.2659881 125.8322064  62.5172872
  49.8546012 126.7744103  61.4060300  53.0135160 124.4460328  65.4548705
  53.0356857 124.5099661  64.5000684  53.4303219 123.6064837  65.6489211
  63.3918785 134.1815587  63.4927927  63.8349931 133.4322913  63.0947051
  62.5145295 134.1725724  63.1101659  58.5254566 140.7345929  58.9734526
  59.2205471 141.3552622  59.1921841  58.8677716 139.8841280  59.2486904
  44.1422375 132.5563730  72.8331343  43.4004111 132.7046365  73.4195974
  43.8215119 132.8171996  71.9698093  60.4245989 138.1845634  60.5021857
  60.9497313 138.5232907  59.7771177  60.3368342 137.2492650  60.3184991
  52.0866038 142.0979708  72.6311733  52.3953164 141.8528855  73.5034433
  52.8841520 142.3026347  72.1430604  52.1086650 144.2517618  64.8617110
  51.6691640 143.7593996  65.5549967  52.8594767 143.7090585  64.6209185
  44.5878989 140.4429159  64.8641738  45.4137009 140.1432930  64.4840381
  44.2373041 139.6736781  65.3131527  49.5560522 139.7955627  66.9339412
  48.9340531 139.1326332  66.6341639  50.2265389 139.8216759  66.2513059
  42.7887594 138.3615485  65.8230672  41.9519502 137.9337659  65.6414673
  42.7611239 138.5547928  66.7601463  49.6285050 128.2737415  76.5271918
  49.6773205 129.1499538  76.1449687  50.1707564 127.7314808  75.9543561
  60.1139895 138.8178538  75.8073055  59.3235439 138.8002677  75.2677554
  59.8773250 139.3566832  76.5622091  60.2337770 135.6671005  73.1205783
  60.2835775 135.5021012  74.0621306  60.1251694 134.7998264  72.7303664
  49.1174029 138.3459550  60.4097872  49.2662149 139.0295015  59.7564545
  49.9240472 138.3264640  60.9247328  57.5241533 131.6501933  74.4365090
  58.4251395 131.5108397  74.1449088  57.5989507 131.8156387  75.3763267
  51.8584338 129.0268787  73.2818276  50.9887647 129.3202353  73.0100865
  52.0943818 129.6109232  74.0025540  61.7355967 138.0867946  73.3647805
  61.4440775 138.4497927  74.2011266  61.1228098 137.3734954  73.1861137
  62.9351649 135.6520826  65.8850375  63.7698541 136.0910630  66.0487935
  63.0710778 135.1759479  65.0658621  59.9843155 133.2100561  71.8327863
  60.4597277 133.4028207  71.0246714  59.0608721 133.2659746  71.5871246
  46.8726662 134.3724728  61.4158941  46.6272704 133.4687058  61.6139151
  47.0422576 134.3741878  60.4738419  54.5623372 125.2448404  70.7983697
  55.0805316 125.9809431  70.4730185  54.2078505 125.5512398  71.6330456
  46.1422309 130.1053085  58.9145102  45.4491554 130.1797440  58.2585138
  45.8974061 129.3413429  59.4366619  54.8135966 121.6648687  66.3184593
  55.0937720 120.9971876  66.9445020  55.5986573 121.8577782  65.8059257
  52.6169434 140.8407681  57.8809619  52.0443402 141.4597868  57.4280091
  53.1902228 141.3907042  58.4149541  58.6844824 130.0866321  70.0656168
  59.6362247 130.1864418  70.0868392  58.5148275 129.2944589  70.5754253
  56.7059204 127.1721904  70.2515569  56.1109136 127.4526917  69.5562058
  56.4208900 127.6615805  71.0232310  55.8366694 141.1244831  59.0118202
  56.7697367 141.0590392  59.2151077  55.7489907 141.9601098  58.5532734
  58.4654711 140.4410701  55.9722149  58.3868342 140.1070565  56.8657907
  59.2864378 140.9332469  55.9713622  61.1632902 133.3072440  69.1798468
  61.1309222 132.3688441  69.3658152  61.7733526 133.3856477  68.4464293
  53.0016233 132.1768493  55.2225672  53.9475338 132.0474702  55.2914090
  52.6230478 131.4383155  55.6995100  61.3127391 130.0983484  69.2256751
  60.7966439 129.3141940  69.0386680  62.1967339 129.7702200  69.3903271
  58.9738118 123.8424499  65.1852564  58.7762939 123.5339588  66.0695896
  59.5837823 124.5686138  65.3150494  66.9809452 134.3688447  68.3204505
  67.7112840 134.1073735  68.8812208  66.3716397 133.6317169  68.3606573
  65.0624749 132.5096310  68.9178956  64.3357913 132.3752275  68.3095448
  64.6472036 132.8173138  69.7235674  52.8854926 136.2286240  76.6826329
  53.8057935 136.4064839  76.8766375  52.8504509 135.2842285  76.5306028
  51.1859150 130.1018470  55.1580557  50.2790606 129.8051582  55.2343271
  51.4635131 129.8048288  54.2914843  42.1037090 131.4224833  65.6079604
  41.7839875 130.5690141  65.3153978  41.5570519 131.6373411  66.3637571
  45.8816998 134.1387274  69.3249110  46.1003008 135.0704382  69.3437144
  46.2942772 133.7795249  70.1103914  52.8021216 124.6455359  61.3124798
  51.9921944 124.3002444  61.6880045  53.4905633 124.3362903  61.9012410
  54.7311764 123.7233406  62.9349095  55.2842803 124.1428860  63.5939118
  54.9681850 122.7969154  62.9772051  50.7544863 129.7120480  78.7151859
  50.6541590 130.6614837  78.6463950  50.5366405 129.3838719  77.8427929
  49.9557935 126.9605405  55.2992536  50.8177099 127.2860303  55.5588354
  50.1408279 126.1736901  54.7865602  41.9725351 135.0427745  67.5772725
  41.2788822 134.6281697  67.0642680  42.7198342 135.0848281  66.9806144
  58.1090571 125.8333931  62.4427759  57.5289240 126.4918735  62.0605812
  57.8426504 125.0111276  62.0315177  56.5594138 125.2338989  64.6449080
  57.0593916 125.3455524  63.8363399  57.2029746 124.9300042  65.2849888
  50.6176133 133.1417619  77.5316921  50.1343215 133.9417979  77.7380810
  50.7037072 133.1525564  76.5784365  43.8862093 134.9745998  65.4538740
  43.8632781 135.0733686  64.5020623  44.1962730 135.8211149  65.7755906
  46.5449471 137.0322153  69.5685354  47.4992724 137.0006096  69.5015286
  46.3461994 136.5712777  70.3835580  47.1348853 135.6023270  72.1356152
  47.9541742 136.0967348  72.1590989  47.4085661 134.6855238  72.1073720
  56.8915449 127.9934022  61.4984108  56.0041304 128.2783672  61.2804302
  57.3069438 127.8327785  60.6511385  60.2429985 128.0180543  65.2138447
  61.0190375 128.5076995  65.4863064  59.5178120 128.4438597  65.6710316
  62.6802544 128.7308162  66.2712388  63.2747035 128.4903898  65.5605696
  62.7529128 128.0115293  66.8985924  44.8999700 142.5741773  66.5855552
  44.7654168 141.8142174  66.0193550  44.4831762 143.2982673  66.1184341
  56.0358663 137.7578697  55.5932128  56.7394513 137.9628699  56.2089783
  55.3121311 138.3255458  55.8581211  56.8656473 133.5088558  61.7134398
  56.8091674 133.9657109  60.8742030  57.4184815 132.7479242  61.5357241
  60.6761279 129.2978290  62.5384517  60.4198213 128.8974925  63.3692725
  60.0514147 130.0122084  62.4134656  64.9873617 132.0374363  65.0455809
  64.4273175 132.1067552  65.8187371  64.3817120 131.8615348  64.3255305
  48.0568826 143.4711090  66.7973995  47.9401210 144.4156522  66.6952685
  47.2361272 143.1684652  67.1859794  57.9445360 138.1961226  57.6430588
  58.7790964 137.7642424  57.4608062  57.7829703 138.0243239  58.5707482
  57.5991252 134.6993339  59.0086927  57.5440056 134.5337610  58.0675371
  56.9737308 135.4069372  59.1649117  42.3883767 129.9361403  72.8348349
  43.0342631 129.4260357  73.3235574  42.1800918 130.6730085  73.4091774
  54.9137159 137.0042251  78.3340490  55.7828319 137.1782903  77.9727125
  54.4343911 137.8236668  78.2116219  50.9087378 124.2001448  58.5872245
  50.8966048 125.1443288  58.7440516  51.8010800 124.0171593  58.2931707
  49.0823340 144.1239352  70.0129923  49.9850586 144.1562962  70.3296418
  48.8560710 143.1939803  70.0276259  50.8376942 142.8770338  66.6740002
  49.8872573 142.8772200  66.5604374  51.1409428 142.1303073  66.1576037
  54.7239497 120.7944225  62.8418182  53.9571893 120.2402711  62.9874865
  55.1350202 120.8666093  63.7032334  46.7281258 127.0829020  76.9323363
  47.5912720 126.7265825  77.1426688  46.1546669 126.7442915  77.6198768
  66.5729635 148.7130877  67.7385764  67.2108045 148.5937624  67.0349105
  66.4550478 149.6611721  67.7973717  63.3819341 148.6658305  67.6747289
  63.0437853 148.5499370  66.7867824  64.2509110 148.2649470  67.6548295
  59.2406157 150.5193781  63.6644180  58.6771022 150.4283718  62.8960468
  59.1258552 149.6993686  64.1446673  63.8639124 149.8193157  73.6333495
  63.8527765 149.4245955  72.7613998  64.0259764 149.0859229  74.2267266
  56.7870589 152.0144973  66.5028401  57.5791881 151.6735798  66.0874700
  57.0267239 152.1239948  67.4230554  64.8205716 154.1864749  58.9758645
  64.1693696 154.7718829  58.5892659  65.6150079 154.7170944  59.0353682
  58.7461343 151.2753886  59.3745779  59.5192219 150.7282873  59.2358655
  59.0986742 152.1398136  59.5860241  60.5846386 152.6030268  72.5812679
  60.2936252 153.5075899  72.4659345  61.2203370 152.6446796  73.2956748
  61.5102592 149.9807117  69.1714038  62.1066165 149.7563139  68.4571001
  61.5677564 149.2391862  69.7739486  61.0827621 147.4346552  57.0064229
  61.3353142 146.9128074  56.2447692  60.1452180 147.2712698  57.1090913
  66.1270904 146.4382331  64.8138972  66.9133993 146.0201754  64.4629389
  66.3909608 147.3428423  64.9820621  66.2980981 151.8755181  59.5127629
  65.6626814 151.9489808  60.2248534  65.9678387 152.4648780  58.8346709
  71.5279331 146.3757564  65.7171951  72.2604503 145.8056781  65.9509780
  70.7718687 145.9879164  66.1578457  60.8023910 149.3374658  59.2088604
  60.6860168 148.6619562  59.8769689  60.9126170 148.8507032  58.3920757
  63.1455451 148.7984805  62.9135293  62.7813658 148.2715426  63.6248215
  64.0022566 148.4083274  62.7401779  69.0504751 140.0879138  70.1766560
  68.7188076 140.9574549  69.9527775  68.4550365 139.7715422  70.8560590
  62.7860938 143.8274705  57.9096642  62.9535340 144.6954941  58.2767113
  62.5958107 143.9901987  56.9857931  65.5436271 152.2891684  69.5762472
  65.2436994 153.1916723  69.4678280  65.1987330 152.0223867  70.4283625
  58.9948752 148.7405481  65.6099177  58.0699249 148.6081695  65.8176869
  59.2433165 149.5199700  66.1069119  68.9433414 144.8074224  67.2559910
  68.0350292 144.7389633  66.9618671  68.8921010 145.2846169  68.0841735
  62.7650158 146.2832363  58.8943309  62.6449784 146.7289413  59.7328789
  62.0702747 146.6317680  58.3356847  56.3557563 148.3838754  66.4442966
  56.4849944 148.6373233  67.3582378  55.6755015 148.9766462  66.1247621
  63.0174280 146.2263870  75.1994807  62.2407614 146.7857790  75.1897672
  63.6564843 146.7120653  75.7209677  70.8095061 143.0090663  69.0337784
  70.1669441 143.3023196  68.3877578  70.3049989 142.8943583  69.8390980
  68.4635225 146.7553836  59.7223643  69.3753081 146.9881223  59.5471340
  67.9544872 147.3390880  59.1598721  61.2720653 149.0349323  74.7612774
  62.0135337 149.5734367  74.4847598  60.5657638 149.6615612  74.9184326
  66.7475992 151.1778464  73.3584935  67.1559348 150.7360874  72.6139568
  66.0253254 150.6031091  73.6119128  63.1007062 146.1151070  70.7318492
  63.9468257 146.5390484  70.8753141  63.0405700 145.4584695  71.4257055
  67.0704807 151.7379654  67.1137224  66.4413669 151.9025368  66.4113292
  66.6830469 152.1521264  67.8848188  70.9494039 152.6734092  64.4681588
  70.2645077 153.0532993  63.9178621  71.0337888 153.2829419  65.2013536
  66.2506508 143.7755439  72.3899666  66.0067439 144.5297499  71.8533942
  66.5266438 144.1540786  73.2246913  68.2044970 150.3194051  71.0676932
  68.4161866 150.9625811  70.3911313  68.1574719 149.4856368  70.5998862
  65.8071199 142.9311872  67.9713504  64.9455678 143.2293125  68.2630241
  65.8333634 143.1482271  67.0394536  62.6232769 151.4754062  64.3787309
  63.0871114 151.7541765  63.5891932  62.3589567 150.5737507  64.1960400
  59.5156850 151.0225544  67.3167073  60.0858207 151.4512812  66.6784557
  60.1064962 150.7408129  68.0151258  61.5601655 147.5977215  61.1876875
  62.2625698 148.0498258  61.6550801  61.2282283 146.9561034  61.8156768
  60.0082016 146.1888971  75.5628084  59.3780677 146.8705252  75.7963481
  59.9018104 146.0772053  74.6181222  55.3026989 145.8560767  66.4894008
  54.5126043 146.1118296  66.0134119  55.7938236 146.6709105  66.5946049
  69.3190798 153.1966007  69.2399289  70.1408242 152.7946194  68.9581971
  69.3153201 153.0934241  70.1915405  57.2541734 146.2205347  63.4477485
  56.4572897 146.3324041  63.9660980  57.0267326 146.5591999  62.5818375
  63.0847402 152.7450050  71.3959999  63.1491834 153.2070457  72.2318171
  62.3758326 152.1147415  71.5242309  53.5864692 146.1091258  68.9208999
  53.8372730 146.9938268  69.1866575  54.1224240 145.9295859  68.1484091
  77.4096791 149.5404755  65.5884260  76.6560500 148.9712153  65.4328265
  77.5444333 149.5067419  66.5354895  62.7995419 154.4118157  61.2638980
  62.6641094 155.2569693  61.6923828  63.3405232 154.6137435  60.5004914
  59.2862759 140.4909737  77.9253335  58.8929705 139.9375936  78.6000979
  60.1028899 140.8020316  78.3159852  56.2524817 151.9293595  61.8366905
  56.7649337 152.7236846  61.9872470  56.9047530 151.2319886  61.7700506
  58.0619702 155.0459352  63.9189658  58.2386330 155.9677316  63.7310642
  58.8576535 154.7317771  64.3484038  62.2030720 141.9067616  75.5173592
  62.9440433 142.5074769  75.4378054  62.4348643 141.1645254  74.9591634
  57.3472058 147.0923983  73.7951821  57.2325573 146.1909241  74.0958920
  56.4916576 147.3387680  73.4436638  64.4263896 155.0341724  75.3939322
  63.9827750 154.2478102  75.0760226  65.0881109 155.2220874  74.7283213
  66.5245134 155.3144524  73.4220723  66.5063609 156.1353405  72.9300992
  67.4465054 155.1898599  73.6470864  62.9818188 152.8288653  74.2644231
  63.5146525 152.0676941  74.0343539  62.4532269 152.5362305  75.0068386
  66.1487883 137.9348719  69.7937873  65.8052152 138.8250361  69.7176984
  66.5166846 137.7450377  68.9307458  54.2173734 150.2582250  62.6126475
  55.0548956 150.6679258  62.3960183  54.3952001 149.3181692  62.5826669
  66.1138166 147.9257330  58.3010308  65.5984789 148.6961935  58.5398696
  65.8415474 147.2522466  58.9243370  63.6985277 142.7707031  63.3595547
  62.8426873 142.3813881  63.1801185  64.1112229 142.8498992  62.4995332
  65.2284423 140.3053374  67.7587106  64.7249219 140.2683509  66.9454912
  65.5215030 141.2146117  67.8183763  61.4727309 140.3892104  66.7653288
  62.3380306 140.1934913  66.4059178  61.5404818 140.1602456  67.6922645
  71.0872440 150.6789685  60.2363482  70.3101883 150.3400844  59.7918644
  71.7663921 150.6842308  59.5618447  65.9024469 145.7984422  60.1270089
  65.5974604 146.1130572  60.9780233  66.8554911 145.8765842  60.1697422
  64.3470901 151.9574646  61.7763043  63.8192262 151.2227405  61.4636281
  63.8458403 152.7349322  61.5303012  69.3263747 150.1523666  66.8930090
  68.6687421 150.8422928  66.9810218  70.1304146 150.5420098  67.2364076
  59.0789628 142.6194312  64.1369655  59.6533380 142.3969493  63.4042848
  59.6660611 142.6883006  64.8898256  68.1369206 148.5068039  64.9434032
  68.6501087 149.1398031  65.4455741  68.7870429 147.9069234  64.5777392
  59.4059215 144.6498773  58.1565540  58.5696528 144.9873460  58.4774815
  59.2663985 144.5147753  57.2192677  61.3812296 139.4935561  62.8644724
  60.7276708 139.1784578  62.2401339  61.3392770 138.8711301  63.5904547
  62.4923501 149.7754856  54.7798016  61.5850563 149.5444109  54.9789165
  62.9894533 148.9792475  54.9671998  64.6150036 145.9817494  67.1892372
  63.6972598 146.2032441  67.0314060  65.0310180 146.0563805  66.3304079
  65.3985084 147.3808910  62.3195052  66.1456903 147.8930307  62.0102174
  65.6676674 147.0592963  63.1799446  63.6711734 149.8767451  59.3022007
  62.7622954 149.5926484  59.3994476  63.7006818 150.2966529  58.4425313
  68.9031002 153.4874040  63.0713174  68.4493329 152.6464950  63.1278365
  68.2724968 154.1235439  63.4087954  67.8463921 144.4166026  64.3013842
  67.1086678 143.9043413  64.6324084  68.0990695 143.9766408  63.4897118
  67.3463941 155.3250537  64.0062992  67.6386915 155.8855594  63.2875358
  67.8562562 155.6179098  64.7616151  67.9475549 137.1942278  64.8955611
  68.2534425 136.3339642  64.6081526  68.6728153 137.7859899  64.6954605
  54.2399905 147.5972965  63.2837209  54.0424305 147.0042326  62.5588275
  53.6846569 147.2925175  64.0013148  62.2196628 147.4896071  65.4031802
  62.2745238 146.5369908  65.3274279  61.4087830 147.6455511  65.8873100
  63.3687822 151.4176194  56.6410085  62.9307252 150.7012053  56.1815723
  64.1098263 151.6452309  56.0795177  60.1588988 146.1073131  63.1622181
  59.3456854 146.4067302  63.5687373  60.6547982 145.7128820  63.8796663
  62.3097566 156.1030888  65.0956446  62.2673745 156.3291734  64.1664978
  63.2260265 155.8694263  65.2442247  65.7563200 146.5714956  71.9937075
  66.1112588 146.7986429  72.8531540  66.4035331 146.9033332  71.3714330
  71.4860937 149.6933392  62.6986404  71.3478836 149.8834987  61.7707593
  71.1297156 150.4552774  63.1554455  59.6503063 143.6791487  68.7783416
  60.2902442 143.5380246  68.0806379  58.8180594 143.3926000  68.4022018
  71.5130317 151.7609919  67.7097675  71.9466823 151.6685208  68.5580729
  72.2261897 151.7367419  67.0717691  60.4263367 152.9793917  64.8918408
  61.2203965 152.4844237  64.6900983  59.7155059 152.4511780  64.5286114
  65.2458211 155.3612013  69.2430776  65.2995234 155.9302949  70.0108492
  64.3772993 155.5313898  68.8784813  56.7346130 147.1236999  60.9678161
  55.8043719 147.0621454  61.1848123  56.8303602 146.6012952  60.1714802
  56.6531679 143.6491812  63.5556403  56.9138497 144.5637145  63.4465563
  57.4748852 143.1816254  63.7053015  58.1256605 145.0629569  70.7255227
  58.7979658 144.8546931  70.0767876  57.2986391 144.8651655  70.2860459
  72.3745866 151.8033619  70.2430561  72.5681756 152.7079430  70.4889836
  72.2746484 151.3441038  71.0769146  64.0282177 141.6891510  72.7420888
  63.3810092 142.3881459  72.6485364  64.7983192 142.1227654  73.1097136
  67.4360975 151.9540362  75.8171441  67.2846481 151.7250914  74.9001525
  67.4265654 152.9110963  75.8302786  64.2046311 149.5272275  70.8017708
  65.1338371 149.6783434  70.6286675  63.7837341 149.6156295  69.9466354
  63.0034643 153.5522939  68.5716245  62.8645729 153.1841723  69.4442183
  62.2149239 154.0670579  68.4000203  64.5539858 152.9304542  65.9605083
  64.2189691 152.8905312  66.8562733  64.0543804 152.2649258  65.4875493
  58.5284102 148.3372172  71.4857664  58.3903900 147.6052411  72.0869203
  59.4389026 148.2481072  71.2041852  67.4899050 150.2760576  56.2342143
  66.8728220 149.5507404  56.1375195  67.0215538 151.0369936  55.8909217
  61.1566403 148.0492131  70.9741344  61.8666021 147.4085323  70.9327962
  61.1135711 148.3005026  71.8967525  69.1453181 154.9859484  73.8947923
  69.0865728 154.3018705  73.2278506  69.5472700 155.7278474  73.4428549
  59.8695337 145.0357349  72.7936983  59.3332694 144.5848087  73.4458580
  59.2812045 145.1703258  72.0507448  59.2797596 144.4946000  55.3563447
  58.4027062 144.3734801  54.9925694  59.7555349 143.7032079  55.1042336
  69.1470589 152.9499068  72.1261903  68.2597367 152.6124990  72.2488302
  69.7169140 152.2182100  72.3630668  50.7999736 149.2823160  65.4504954
  51.4870776 148.9684890  64.8625969  50.6447864 150.1864525  65.1772206
  55.6034458 144.1713357  69.8789978  55.5192647 143.5639026  69.1440388
  54.7817164 144.6622375  69.8799474  62.4661522 156.8472291  62.6025968
  61.6829044 157.3893971  62.6964192  63.1654267 157.3646270  63.0020209
  65.7758172 142.6566920  65.2460173  66.2726871 141.9036883  64.9261243
  65.0045153 142.6931237  64.6803382  73.6287929 148.3607286  66.8878464
  73.6177805 149.2432001  66.5172398  72.7605309 148.0078837  66.6933001
  65.1370426 157.5087355  71.2481305  65.8498398 158.1434820  71.1757206
  64.6460454 157.6051221  70.4321306  66.8587953 151.4138607  62.8198596
  65.9244231 151.5340070  62.6503301  67.0364621 150.5111074  62.5558606
  62.3593141 144.7984303  64.9731858  61.9890928 144.2455344  65.6612763
  62.8552233 144.1942437  64.4206858  70.2460504 147.2555927  63.3548630
  70.7120956 148.0883918  63.2808933  70.6968004 146.7900908  64.0593889
  60.1882339 155.2581798  72.0686875  60.8891799 155.8918281  72.2216270
  59.7177454 155.5996530  71.3082515  68.3136735 153.5999748  60.3534783
  68.5896579 153.4856343  61.2628657  67.4441234 153.2017233  60.3146956
  68.2177167 139.6236514  67.3939532  67.3040246 139.8540741  67.5621739
  68.6470268 139.7074958  68.2453564  67.9883625 147.8126406  69.8939426
  67.3355075 148.0602313  69.2391879  68.3664005 146.9990544  69.5601903
  64.9490799 157.8486099  63.9967596  65.1313194 157.0307755  64.4595348
  65.7723785 158.0653791  63.5592486  65.2832964 156.7754284  61.2582645
  65.8120731 156.2646739  60.6452807  65.5461184 156.4596814  62.1228178
  64.0371198 148.5546217  76.3805463  63.3611835 148.4540346  77.0507838
  64.8598832 148.3985431  76.8441460  55.7850057 154.7918153  69.0017978
  56.3703494 154.0461841  69.1345882  55.5874896 155.1022110  69.8854642
  50.3767712 147.3623754  67.7222421  50.4151811 146.8287344  68.5159539
  49.8708005 146.8358959  67.1033398  57.7558474 142.2088294  71.2184964
  57.8199801 143.0703125  70.8062361  57.6925594 141.5962296  70.4857322
  57.2310747 144.2811427  74.8657998  57.8582786 143.8988504  75.4795522
  56.3738666 144.0625629  75.2313690  67.6304855 154.6874402  76.4711733
  68.1744759 155.3004360  75.9766688  67.0491700 155.2453980  76.9878746
  54.0076290 146.0887856  60.7976353  54.3029731 145.1798534  60.7443406
  53.1064325 146.0675595  60.4757355  65.9162368 157.8095120  67.6026761
  65.7913508 157.0084860  67.0937707  66.5741459 158.3041313  67.1140731
  57.5370537 144.1643852  66.7803901  56.8157122 144.7779820  66.6411375
  58.3263792 144.7001617  66.7020547  67.9797277 155.6104140  69.2306311
  67.0327612 155.4909491  69.1584638  68.3280050 154.7226638  69.3132573
  60.3396850 141.4998279  73.0544553  60.8631252 141.7460575  73.8170862
  60.1209183 142.3318314  72.6347690  55.7364131 143.7701953  60.9215678
  55.4076837 142.8899332  60.7390784  56.0903502 143.7149622  61.8092067
  64.9843710 155.4056856  65.4310663  64.8368672 154.4773563  65.6118233
  65.8097203 155.4276947  64.9467739  58.8505954 144.0574923  61.2891156
  59.1902027 144.5860844  60.5669764  59.2978075 144.3955329  62.0649722
  68.5877832 156.2285415  66.5175536  69.5124379 156.0228276  66.3799987
  68.4193135 155.9801816  67.4264878  61.5449395 142.4411974  70.7394224
  61.2046215 141.6419787  71.1414903  60.8388401 142.7413685  70.1671057
  62.1965867 139.5261286  69.1921547  63.0191936 139.0521764  69.0700437
  62.4403930 140.3051770  69.6920233  60.8374101 142.5549545  59.4884448
  61.5582464 142.9330798  58.9848165  60.2139406 143.2738422  59.5919426
  64.9805224 143.2594694  60.4242781  65.1968839 144.1419332  60.1231609
  64.4999291 142.8680907  59.6948423  59.7204446 146.2180407  67.0013525
  59.5749026 146.5320710  67.8937807  59.2429649 146.8365307  66.4484424
  61.5800829 143.2082955  67.0494415  61.5662397 142.3124048  66.7126713
  62.2973257 143.2153619  67.6832701  63.4326959 143.6420295  69.0947542
  63.1744737 144.5637366  69.0931873  62.9012000 143.2450730  69.7848006
  68.3773148 156.7471082  61.8737628  68.5510026 156.1817505  61.1211480
  68.8702039 157.5471977  61.6917118  54.1950108 148.7585751  69.9401186
  53.6503576 149.5345559  70.0721461  55.0729458 149.1056556  69.7820308
  60.9837724 142.0897335  62.3181985  61.1053636 141.1613981  62.5172872
  60.6939767 142.1036021  61.4060300  63.8528915 139.7752246  65.4548705
  63.8750612 139.8391579  64.5000684  64.2696974 138.9356754  65.6489211
  74.2312539 149.5107505  63.4927927  74.6743685 148.7614830  63.0947051
  73.3539049 149.5017642  63.1101659  69.3648321 156.0637847  58.9734526
  70.0599225 156.6844539  59.1921841  69.7071471 155.2133198  59.2486904
  54.9816130 147.8855648  72.8331343  54.2397866 148.0338283  73.4195974
  54.6608874 148.1463913  71.9698093  71.2639744 153.5137552  60.5021857
  71.7891068 153.8524825  59.7771177  71.1762096 152.5784567  60.3184991
  62.9259792 157.4271626  72.6311733  63.2346919 157.1820773  73.5034433
  63.7235274 157.6318264  72.1430604  60.3954277 155.1247545  66.9339412
  59.7734286 154.4618250  66.6341639  61.0659143 155.1508676  66.2513059
  53.6281348 153.6907403  65.8230672  52.7913257 153.2629577  65.6414673
  53.6004994 153.8839846  66.7601463  60.4678804 143.6029333  76.5271918
  60.5166959 144.4791455  76.1449687  61.0101318 143.0606726  75.9543561
  70.9533650 154.1470456  75.8073055  70.1629193 154.1294595  75.2677554
  70.7167004 154.6858749  76.5622091  71.0731525 150.9962922  73.1205783
  71.1229530 150.8312930  74.0621306  70.9645448 150.1290181  72.7303664
  59.9567783 153.6751468  60.4097872  60.1055904 154.3586932  59.7564545
  60.7634227 153.6556558  60.9247328  68.3635287 146.9793850  74.4365090
  69.2645150 146.8400315  74.1449088  68.4383262 147.1448305  75.3763267
  62.6978092 144.3560705  73.2818276  61.8281402 144.6494271  73.0100865
  62.9337573 144.9401150  74.0025540  72.5749722 153.4159864  73.3647805
  72.2834530 153.7789844  74.2011266  71.9621853 152.7026872  73.1861137
  73.7745404 150.9812743  65.8850375  74.6092295 151.4202548  66.0487935
  73.9104533 150.5051397  65.0658621  70.8236910 148.5392478  71.8327863
  71.2991031 148.7320125  71.0246714  69.9002475 148.5951664  71.5871246
  57.7120416 149.7016646  61.4158941  57.4666458 148.7978976  61.6139151
  57.8816331 149.7033796  60.4738419  65.4017126 140.5740322  70.7983697
  65.9199070 141.3101349  70.4730185  65.0472259 140.8804315  71.6330456
  56.9816064 145.4345003  58.9145102  56.2885309 145.5089358  58.2585138
  56.7367816 144.6705347  59.4366619  65.6529720 136.9940604  66.3184593
  65.9331474 136.3263793  66.9445020  66.4380327 137.1869700  65.8059257
  63.4563189 156.1699598  57.8809619  62.8837156 156.7889785  57.4280091
  64.0295983 156.7198960  58.4149541  69.5238579 145.4158238  70.0656168
  70.4756002 145.5156336  70.0868392  69.3542029 144.6236507  70.5754253
  67.5452958 142.5013822  70.2515569  66.9502890 142.7818834  69.5562058
  67.2602655 142.9907723  71.0232310  66.6760449 156.4536748  59.0118202
  67.6091122 156.3882310  59.2151077  66.5883662 157.2893015  58.5532734
  69.3048465 155.7702619  55.9722149  69.2262097 155.4362482  56.8657907
  70.1258132 156.2624387  55.9713622  72.0026657 148.6364358  69.1798468
  71.9702977 147.6980359  69.3658152  72.6127280 148.7148395  68.4464293
  63.8409987 147.5060411  55.2225672  64.7869092 147.3766619  55.2914090
  63.4624232 146.7675073  55.6995100  72.1521145 145.4275402  69.2256751
  71.6360194 144.6433858  69.0386680  73.0361094 145.0994118  69.3903271
  69.8131872 139.1716417  65.1852564  69.6156693 138.8631505  66.0695896
  70.4231578 139.8978056  65.3150494  77.8203206 149.6980365  68.3204505
  78.5506595 149.4365653  68.8812208  77.2110152 148.9609087  68.3606573
  75.9018504 147.8388228  68.9178956  75.1751667 147.7044192  68.3095448
  75.4865790 148.1465056  69.7235674  63.7248680 151.5578157  76.6826329
  64.6451689 151.7356756  76.8766375  63.6898263 150.6134203  76.5306028
  62.0252905 145.4310387  55.1580557  61.1184360 145.1343500  55.2343271
  62.3028886 145.1340206  54.2914843  52.9430845 146.7516751  65.6079604
  52.6233629 145.8982059  65.3153978  52.3964273 146.9665329  66.3637571
  56.7210753 149.4679192  69.3249110  56.9396762 150.3996300  69.3437144
  57.1336526 149.1087166  70.1103914  63.6414970 139.9747277  61.3124798
  62.8315699 139.6294362  61.6880045  64.3299387 139.6654821  61.9012410
  65.5705519 139.0525324  62.9349095  66.1236557 139.4720777  63.5939118
  65.8075605 138.1261072  62.9772051  61.5938618 145.0412398  78.7151859
  61.4935345 145.9906755  78.6463950  61.3760160 144.7130637  77.8427929
  60.7951689 142.2897323  55.2992536  61.6570853 142.6152221  55.5588354
  60.9802033 141.5028819  54.7865602  52.8119105 150.3719662  67.5772725
  52.1182576 149.9573615  67.0642680  53.5592096 150.4140199  66.9806144
  68.9484326 141.1625849  62.4427759  68.3682995 141.8210653  62.0605812
  68.6820258 140.3403194  62.0315177  67.3987892 140.5630907  64.6449080
  67.8987670 140.6747441  63.8363399  68.0423500 140.2591960  65.2849888
  61.4569888 148.4709536  77.5316921  60.9736970 149.2709897  77.7380810
  61.5430827 148.4817481  76.5784365  54.7255848 150.3037916  65.4538740
  54.7026536 150.4025603  64.5020623  55.0356484 151.1503067  65.7755906
  57.3843225 152.3614071  69.5685354  58.3386479 152.3298013  69.5015286
  57.1855749 151.9004695  70.3835580  57.9742608 150.9315187  72.1356152
  58.7935497 151.4259266  72.1590989  58.2479415 150.0147155  72.1073720
  67.7309204 143.3225940  61.4984108  66.8435059 143.6075590  61.2804302
  68.1463193 143.1619703  60.6511385  71.0823740 143.3472461  65.2138447
  71.8584130 143.8368913  65.4863064  70.3571874 143.7730515  65.6710316
  73.5196298 144.0600080  66.2712388  74.1140789 143.8195816  65.5605696
  73.5922882 143.3407210  66.8985924  66.8752417 153.0870614  55.5932128
  67.5788267 153.2920617  56.2089783  66.1515066 153.6547376  55.8581211
  67.7050227 148.8380475  61.7134398  67.6485429 149.2949027  60.8742030
  68.2578570 148.0771160  61.5357241  71.5155033 144.6270207  62.5384517
  71.2591968 144.2266843  63.3692725  70.8907901 145.3414001  62.4134656
  75.8267371 147.3666281  65.0455809  75.2666929 147.4359470  65.8187371
  75.2210875 147.1907265  64.3255305  68.7839115 153.5253143  57.6430588
  69.6184719 153.0934342  57.4608062  68.6223458 153.3535157  58.5707482
  68.4385007 150.0285257  59.0086927  68.3833811 149.8629528  58.0675371
  67.8131062 150.7361290  59.1649117  53.2277522 145.2653321  72.8348349
  53.8736385 144.7552275  73.3235574  53.0194673 146.0022003  73.4091774
  65.7530914 152.3334169  78.3340490  66.6222074 152.5074821  77.9727125
  65.2737665 153.1528585  78.2116219  61.7481132 139.5293366  58.5872245
  61.7359802 140.4735206  58.7440516  62.6404554 139.3463511  58.2931707
  65.5633252 136.1236142  62.8418182  64.7965648 135.5694629  62.9874865
  65.9743957 136.1958011  63.7032334  57.5675013 142.4120938  76.9323363
  58.4306474 142.0557743  77.1426688  56.9940423 142.0734833  77.6198768
  76.9664658 161.7674248  64.8138972  77.7527747 161.3493672  64.4629389
  77.2303363 162.6720341  64.9820621  82.3673085 161.7049482  65.7171951
  83.0998257 161.1348698  65.9509780  81.6112441 161.3171082  66.1578457
  79.8898506 155.4171056  70.1766560  79.5581830 156.2866467  69.9527775
  79.2944119 155.1007340  70.8560590  73.6254692 159.1566623  57.9096642
  73.7929094 160.0246859  58.2767113  73.4351861 159.3193904  56.9857931
  79.7827169 160.1366142  67.2559910  78.8744046 160.0681550  66.9618671
  79.7314765 160.6138087  68.0841735  81.6488815 158.3382580  69.0337784
  81.0063196 158.6315113  68.3877578  81.1443744 158.2235501  69.8390980
  79.3028979 162.0845753  59.7223643  80.2146835 162.3173140  59.5471340
  78.7938626 162.6682798  59.1598721  73.9400817 161.4442988  70.7318492
  74.7862012 161.8682402  70.8753141  73.8799454 160.7876612  71.4257055
  77.0900262 159.1047356  72.3899666  76.8461194 159.8589417  71.8533942
  77.3660193 159.4832704  73.2246913  76.6464954 158.2603789  67.9713504
  75.7849433 158.5585043  68.2630241  76.6727388 158.4774188  67.0394536
  88.2490546 164.8696673  65.5884260  87.4954254 164.3004071  65.4328265
  88.3838087 164.8359337  66.5354895  70.1256514 155.8201655  77.9253335
  69.7323459 155.2667853  78.6000979  70.9422654 156.1312233  78.3159852
  73.0424475 157.2359534  75.5173592  73.7834188 157.8366687  75.4378054
  73.2742397 156.4937172  74.9591634  76.9881637 153.2640637  69.7937873
  76.6445907 154.1542279  69.7176984  77.3560600 153.0742294  68.9307458
  74.5379031 158.0998949  63.3595547  73.6820628 157.7105799  63.1801185
  74.9505983 158.1790910  62.4995332  76.0678178 155.6345292  67.7587106
  75.5642973 155.5975427  66.9454912  76.3608785 156.5438035  67.8183763
  72.3121064 155.7184022  66.7653288  73.1774061 155.5226830  66.4059178
  72.3798573 155.4894373  67.6922645  76.7418223 161.1276340  60.1270089
  76.4368359 161.4422489  60.9780233  77.6948665 161.2057760  60.1697422
  69.9183383 157.9486230  64.1369655  70.4927135 157.7261411  63.4042848
  70.5054365 158.0174924  64.8898256  70.2452970 159.9790691  58.1565540
  69.4090282 160.3165377  58.4774815  70.1057740 159.8439670  57.2192677
  72.2206051 154.8227479  62.8644724  71.5670463 154.5076496  62.2401339
  72.1786525 154.2003219  63.5904547  75.4543791 161.3109412  67.1892372
  74.5366352 161.5324359  67.0314060  75.8703935 161.3855723  66.3304079
  78.6857676 159.7457944  64.3013842  77.9480433 159.2335330  64.6324084
  78.9384449 159.3058326  63.4897118  78.7869303 152.5234196  64.8955611
  79.0928180 151.6631559  64.6081526  79.5121908 153.1151816  64.6954605
  76.5956954 161.9006873  71.9937075  76.9506342 162.1278346  72.8531540
  77.2429086 162.2325250  71.3714330  70.4896818 159.0083404  68.7783416
  71.1296197 158.8672163  68.0806379  69.6574348 158.7217918  68.4022018
  74.8675931 157.0183427  72.7420888  74.2203846 157.7173377  72.6485364
  75.6376947 157.4519571  73.1097136  70.7089091 160.3649267  72.7936983
  70.1726448 159.9140005  73.4458580  70.1205800 160.4995176  72.0507448
  70.1191350 159.8237918  55.3563447  69.2420816 159.7026719  54.9925694
  70.5949103 159.0323996  55.1042336  76.6151926 157.9858838  65.2460173
  77.1120626 157.2328800  64.9261243  75.8438908 158.0223155  64.6803382
  84.4681684 163.6899203  66.8878464  84.4571560 164.5723919  66.5172398
  83.5999063 163.3370754  66.6933001  73.1986895 160.1276221  64.9731858
  72.8284683 159.5747261  65.6612763  73.6945988 159.5234354  64.4206858
  81.0854258 162.5847844  63.3548630  81.5514711 163.4175836  63.2808933
  81.5361759 162.1192826  64.0593889  79.0570921 154.9528431  67.3939532
  78.1434001 155.1832658  67.5621739  79.4864023 155.0366875  68.2453564
  78.8277380 163.1418323  69.8939426  78.1748830 163.3894231  69.2391879
  79.2057759 162.3282462  69.5601903  68.5952229 157.5380212  71.2184964
  68.6593555 158.3995043  70.8062361  68.5319349 156.9254213  70.4857322
  68.0704501 159.6103344  74.8657998  68.6976540 159.2280422  75.4795522
  67.2132420 159.3917546  75.2313690  71.1790605 156.8290196  73.0544553
  71.7025006 157.0752493  73.8170862  70.9602938 157.6610231  72.6347690
  66.5757886 159.0993871  60.9215678  66.2470592 158.2191250  60.7390784
  66.9297256 159.0441540  61.8092067  69.6899709 159.3866841  61.2891156
  70.0295781 159.9152762  60.5669764  70.1371829 159.7247247  62.0649722
  72.3843150 157.7703892  70.7394224  72.0439970 156.9711705  71.1414903
  71.6782156 158.0705602  70.1671057  73.0359621 154.8553204  69.1921547
  73.8585691 154.3813682  69.0700437  73.2797685 155.6343688  69.6920233
  71.6767856 157.8841462  59.4884448  72.3976218 158.2622715  58.9848165
  71.0533160 158.6030339  59.5919426  75.8198979 158.5886611  60.4242781
  76.0362593 159.4711249  60.1231609  75.3393046 158.1972825  59.6948423
  72.4194583 158.5374873  67.0494415  72.4056152 157.6415966  66.7126713
  73.1367011 158.5445536  67.6832701  74.2720714 158.9712213  69.0947542
  74.0138492 159.8929283  69.0931873  73.7405754 158.5742647  69.7848006
  71.8231479 157.4189253  62.3181985  71.9447390 156.4905899  62.5172872
  71.5333521 157.4327939  61.4060300  74.6922669 155.1044163  65.4548705
  74.7144366 155.1683496  64.5000684  75.1090728 154.2648672  65.6489211
  85.0706294 164.8399423  63.4927927  85.5137440 164.0906748  63.0947051
  84.1932804 164.8309559  63.1101659  71.3072559 158.9321250  76.5271918
  71.3560714 159.8083373  76.1449687  71.8495073 158.3898643  75.9543561
  79.2029042 162.3085768  74.4365090  80.1038904 162.1692233  74.1449088
  79.2777016 162.4740223  75.3763267  73.5371847 159.6852623  73.2818276
  72.6675156 159.9786189  73.0100865  73.7731327 160.2693068  74.0025540
  81.6630664 163.8684396  71.8327863  82.1384786 164.0612042  71.0246714
  80.7396230 163.9243582  71.5871246  76.2410881 155.9032240  70.7983697
  76.7592825 156.6393266  70.4730185  75.8866014 156.2096233  71.6330456
  76.4923475 152.3232522  66.3184593  76.7725229 151.6555711  66.9445020
  77.2774082 152.5161618  65.8059257  80.3632333 160.7450156  70.0656168
  81.3149756 160.8448254  70.0868392  80.1935784 159.9528425  70.5754253
  78.3846713 157.8305739  70.2515569  77.7896645 158.1110752  69.5562058
  78.0996409 158.3199640  71.0232310  82.8420411 163.9656276  69.1798468
  82.8096731 163.0272277  69.3658152  83.4521035 164.0440312  68.4464293
  82.9914900 160.7567319  69.2256751  82.4753948 159.9725776  69.0386680
  83.8754848 160.4286036  69.3903271  80.6525626 154.5008335  65.1852564
  80.4550448 154.1923423  66.0695896  81.2625332 155.2269974  65.3150494
  88.6596961 165.0272283  68.3204505  89.3900349 164.7657571  68.8812208
  88.0503906 164.2901005  68.3606573  86.7412258 163.1680145  68.9178956
  86.0145422 163.0336110  68.3095448  86.3259545 163.4756974  69.7235674
  72.8646659 160.7602305  55.1580557  71.9578114 160.4635418  55.2343271
  73.1422640 160.4632123  54.2914843  74.4808725 155.3039195  61.3124798
  73.6709453 154.9586280  61.6880045  75.1693142 154.9946739  61.9012410
  76.4099273 154.3817242  62.9349095  76.9630312 154.8012695  63.5939118
  76.6469359 153.4552990  62.9772051  72.4332372 160.3704315  78.7151859
  72.3329099 161.3198672  78.6463950  72.2153914 160.0422554  77.8427929
  71.6345444 157.6189240  55.2992536  72.4964608 157.9444139  55.5588354
  71.8195788 156.8320736  54.7865602  79.7878080 156.4917767  62.4427759
  79.2076749 157.1502571  62.0605812  79.5214013 155.6695111  62.0315177
  78.2381647 155.8922825  64.6449080  78.7381425 156.0039359  63.8363399
  78.8817254 155.5883877  65.2849888  78.5702958 158.6517857  61.4984108
  77.6828813 158.9367508  61.2804302  78.9856947 158.4911621  60.6511385
  81.9217494 158.6764378  65.2138447  82.6977884 159.1660831  65.4863064
  81.1965629 159.1022432  65.6710316  84.3590053 159.3891997  66.2712388
  84.9534544 159.1487733  65.5605696  84.4316637 158.6699128  66.8985924
  82.3548788 159.9562125  62.5384517  82.0985722 159.5558761  63.3692725
  81.7301656 160.6705919  62.4134656  86.6661126 162.6958198  65.0455809
  86.1060684 162.7651388  65.8187371  86.0604629 162.5199183  64.3255305
  72.5874887 154.8585283  58.5872245  72.5753557 155.8027123  58.7440516
  73.4798309 154.6755429  58.2931707  76.4027006 151.4528060  62.8418182
  75.6359402 150.8986547  62.9874865  76.8137711 151.5249929  63.7032334
  68.4068767 157.7412856  76.9323363  69.2700229 157.3849661  77.1426688
  67.8334178 157.4026751  77.6198768   1.5367110  33.7441493  54.4631071
   2.1745519  33.6248241  53.7594411   1.4187952  34.6922337  54.5219023
   1.0908378  31.4692947  51.5384279   1.8771467  31.0512370  51.1874696
   1.3547082  32.3739039  51.7065927   1.2618455  36.9065798  46.2372936
   0.6264288  36.9800424  46.9493841   0.9315862  37.4959396  45.5592015
   6.4916805  31.4068180  52.4417258   7.2241977  30.8367397  52.6755087
   5.7356161  31.0189781  52.8823763   4.0142225  25.1189755  56.9011866
   3.6825550  25.9885165  56.6773081   3.4187839  24.8026039  57.5805897
   3.9070889  29.8384841  53.9805216   2.9987766  29.7700249  53.6863977
   3.8558485  30.3156786  54.8087042   5.7732535  28.0401279  55.7583090
   5.1306915  28.3333812  55.1122885   5.2687464  27.9254199  56.5636287
   3.4272699  31.7864452  46.4468949   4.3390555  32.0191839  46.2716647
   2.9182346  32.3701496  45.8844028   1.7113467  36.2089080  60.0830242
   2.1196823  35.7671491  59.3384874   0.9890728  35.6341708  60.3364435
   2.0342281  36.7690271  53.8382531   1.4051144  36.9335985  53.1358599
   1.6467943  37.1831880  54.6093495   5.9131513  37.7044709  51.1926895
   5.2282551  38.0843610  50.6423928   5.9975362  38.3140035  51.9258842
   1.2143982  28.8066055  59.1144973   0.9704914  29.5608116  58.5779248
   1.4903912  29.1851403  59.9492220   3.1682445  35.3504668  57.7922238
   3.3799340  35.9936428  57.1156619   3.1212193  34.5166984  57.3244168
   4.2828273  38.2276623  55.9644596   5.1045716  37.8256810  55.6827277
   4.2790675  38.1244857  56.9160711  12.3734266  34.5715372  52.3129567
  11.6197974  34.0022770  52.1573571  12.5081807  34.5378036  53.2600202
   1.4882608  40.3455140  60.1466030   1.4701084  41.1664021  59.6546299
   2.4102528  40.2209215  60.3716171   1.0775640  32.9567947  45.0255615
   0.5622263  33.7272551  45.2644002   0.8052948  32.2833083  45.6488676
   6.0509914  35.7100301  46.9608788   5.2739357  35.3711461  46.5163951
   6.7301395  35.7152925  46.2863753   0.8661943  30.8295039  46.8515396
   0.5612079  31.1441188  47.7025539   1.8192385  30.9076459  46.8942729
   4.2901221  35.1834283  53.6175396   3.6324895  35.8733544  53.7055525
   5.0941620  35.5730715  53.9609383   3.1006680  33.5378655  51.6679338
   3.6138562  34.1708647  52.1701048   3.7507904  32.9379851  51.3022698
   3.8668476  38.5184657  49.7958481   3.4130803  37.6775567  49.8523671
   3.2362443  39.1546055  50.1333261   2.8101396  29.4476643  51.0259148
   2.0724152  28.9354029  51.3569391   3.0628169  29.0077024  50.2142425
   2.3101415  40.3561154  50.7308299   2.6024390  40.9166211  50.0120665
   2.8200036  40.6489715  51.4861458   0.7200674  31.6025572  58.7182381
   1.0750062  31.8297045  59.5776847   1.3672806  31.9343949  58.0959637
   6.4498411  34.7244008  49.4231710   6.3116310  34.9145604  48.4952900
   6.0934630  35.4863391  49.8799762   6.4767791  36.7920535  54.4342982
   6.9104298  36.6995824  55.2826036   7.1899372  36.7678036  53.7962998
   7.3383340  36.8344236  56.9675867   7.5319230  37.7390046  57.2135142
   7.2383959  36.3751655  57.8014452   2.3998449  36.9850978  62.5416748
   2.2483955  36.7561530  61.6246832   2.3903129  37.9421580  62.5548093
   2.4536524  35.3071193  42.9587449   1.8365695  34.5818021  42.8620502
   1.9853013  36.0680553  42.6154524   4.1090656  40.0170101  60.6193230
   4.0503202  39.3329321  59.9523813   4.5110174  40.7589091  60.1673856
   4.1108063  37.9809685  58.8507209   3.2234842  37.6435607  58.9733608
   4.6806614  37.2492716  59.0875975   8.5925404  33.3917902  53.6123771
   8.5815280  34.2742618  53.2417704   7.7242783  33.0389453  53.4178308
   1.8225427  36.4449224  49.5443903   0.8881706  36.5650686  49.3748607
   2.0002095  35.5421691  49.2803913   5.2097978  32.2866543  50.0793937
   5.6758430  33.1194535  50.0054240   5.6605479  31.8211525  50.7839196
   3.2774209  38.6310365  47.0780089   3.5534053  38.5166959  47.9873963
   2.4078708  38.2327849  47.0392262   3.1814641  24.6547130  54.1184838
   2.2677721  24.8851357  54.2867045   3.6107742  24.7385574  54.9698871
   2.9521099  32.8437022  56.6184732   2.2992550  33.0912930  55.9637185
   3.3301479  32.0301160  56.2847210   2.5942330  39.7185018  63.1957040
   3.1382234  40.3314977  62.7011995   2.0129174  40.2764597  63.7124053
   0.8799843  42.8405736  54.3272068   0.7550982  42.0395476  53.8183013
   1.5378934  43.3351930  53.8386038   2.9434751  40.6414756  55.9551618
   1.9965087  40.5220108  55.8829945   3.2917524  39.7537254  56.0377879
   3.5515306  41.2596031  53.2420843   4.4761854  41.0538893  53.1045294
   3.3830609  41.0112432  54.1510184   3.3410622  41.7781699  48.5982934
   3.5147500  41.2128121  47.8456787   3.8339514  42.5782594  48.4162424
   9.1950014  34.5418122  50.2173234   9.6381160  33.7925447  49.8192357
   8.3176524  34.5328258  49.8346966   4.3285795  41.0948463  45.6979833
   5.0236699  41.7155156  45.9167147   4.6708945  40.2443814  45.9732210
   6.2277218  38.5448169  47.2267163   6.7528542  38.8835441  46.5016483
   6.1399570  37.6095184  47.0430298   5.9171124  39.1781072  62.5318361
   5.1266668  39.1605211  61.9922861   5.6804479  39.7169366  63.2867398
   6.0368999  36.0273539  59.8451090   6.0867004  35.8623546  60.7866613
   5.9282922  35.1600798  59.4548971   3.3272761  32.0104467  61.1610396
   4.2282624  31.8710932  60.8694394   3.4020736  32.1758922  62.1008574
   7.5387196  38.4470480  60.0893111   7.2472004  38.8100461  60.9256572
   6.9259327  37.7337489  59.9106443   8.7382878  36.0123360  52.6095682
   9.5729770  36.4513164  52.7733242   8.8742007  35.5362013  51.7903927
   5.7874384  33.5703095  58.5573169   6.2628506  33.7630741  57.7492021
   4.8639950  33.6262281  58.3116553   4.4876053  30.4468855  56.7901475
   5.4393476  30.5466953  56.8113699   4.3179504  29.6547124  57.2999559
   2.5090433  27.5324438  56.9760876   1.9140365  27.8129451  56.2807364
   2.2240129  28.0218339  57.7477617   1.6397923  41.4847365  45.7363508
   2.5728596  41.4192927  45.9396384   1.5521136  42.3203632  45.2778041
   4.2685940  40.8013235  42.6967456   4.1899571  40.4673099  43.5903214
   5.0895607  41.2935003  42.6958928   6.9664131  33.6674975  55.9043775
   6.9340451  32.7290975  56.0903458   7.5764755  33.7459011  55.1709599
   7.1158619  30.4586018  55.9502058   6.5997668  29.6744475  55.7631987
   7.9998568  30.1304735  56.1148577   4.7769346  24.2027034  51.9097870
   4.5794167  23.8942122  52.7941202   5.3869052  24.9288673  52.0395800
  12.7840681  34.7290981  55.0449811  13.5144069  34.4676270  55.6057515
  12.1747626  33.9919703  55.0851879  10.8655978  32.8698844  55.6424263
  10.1389141  32.7354809  55.0340754  10.4503265  33.1775673  56.4480981
   3.9121800  26.1936466  49.1673066   3.3320469  26.8521270  48.7851118
   3.6457733  25.3713810  48.7560484   2.3625366  25.5941523  51.3694386
   2.8625145  25.7058058  50.5608705   3.0060974  25.2902576  52.0095195
   2.6946678  28.3536556  48.2229414   1.8072533  28.6386207  48.0049609
   3.1100667  28.1930319  47.3756691   6.0461214  28.3783077  51.9383754
   6.8221604  28.8679529  52.2108370   5.3209348  28.8041131  52.3955623
   8.4833773  29.0910696  52.9957694   9.0778264  28.8506432  52.2851002
   8.5560357  28.3717827  53.6231230   1.8389892  38.1181231  42.3177434
   2.5425742  38.3231233  42.9335090   1.1152540  38.6857993  42.5826518
   2.6687702  33.8691092  48.4379704   2.6122903  34.3259643  47.5987337
   3.2216044  33.1081777  48.2602547   6.4792508  29.6580824  49.2629824
   6.2229442  29.2577460  50.0938032   5.8545376  30.3724618  49.1379963
  10.7904846  32.3976897  51.7701115  10.2304404  32.4670086  52.5432677
  10.1848349  32.2217882  51.0500612   3.7476589  38.5563760  44.3675894
   4.5822193  38.1244958  44.1853369   3.5860932  38.3845774  45.2952789
   3.4022481  35.0595873  45.7332234   3.3471285  34.8940145  44.7920678
   2.7768536  35.7671906  45.8894423  12.3760864  49.0733411  54.4631071
  13.0139274  48.9540158  53.7594411  12.2581707  50.0214255  54.5219023
   9.1850570  49.0260839  54.3992596   8.8469082  48.9101904  53.5113131
  10.0540338  48.6252004  54.3793602   5.0437386  50.8796316  50.3889487
   4.4802251  50.7886253  49.6205774   4.9289781  50.0596220  50.8691979
   9.6670353  50.1795691  60.3578801   9.6558994  49.7848489  59.4859305
   9.8290993  49.4461763  60.9512573   2.5901818  52.3747507  53.2273707
   3.3823110  52.0338332  52.8120006   2.8298468  52.4842482  54.1475860
  10.6236945  54.5467283  45.7003952   9.9724924  55.1321364  45.3137965
  11.4181308  55.0773478  45.7598989   4.5492572  51.6356420  46.0991086
   5.3223448  51.0885407  45.9603962   4.9017971  52.5000670  46.3105547
   6.3877614  52.9632803  59.3057985   6.0967480  53.8678434  59.1904652
   7.0234599  53.0049330  60.0202055   7.3133821  50.3409651  55.8959345
   7.9097394  50.1165674  55.1816308   7.3708793  49.5994397  56.4984793
   6.8858850  47.7949087  43.7309536   7.1384370  47.2730608  42.9692999
   5.9483409  47.6315232  43.8336219  11.9302132  46.7984865  51.5384279
  12.7165222  46.3804288  51.1874696  12.1940837  47.7030957  51.7065927
  12.1012210  52.2357715  46.2372936  11.4658043  52.3092342  46.9493841
  11.7709616  52.8251314  45.5592015  17.3310560  46.7360098  52.4417258
  18.0635732  46.1659315  52.6755087  16.5749915  46.3481699  52.8823763
   6.6055138  49.6977192  45.9333911   6.4891397  49.0222096  46.6014995
   6.7157398  49.2109566  45.1166064   8.9486679  49.1587340  49.6380600
   8.5844887  48.6317961  50.3493522   9.8053795  48.7685809  49.4647085
  14.8535980  40.4481672  56.9011866  14.5219305  41.3177083  56.6773081
  14.2581593  40.1317956  57.5805897   8.5892166  44.1877239  44.6341949
   8.7566569  45.0557476  45.0012420   8.3989335  44.3504521  43.7103238
  11.3467500  52.6494218  56.3007779  11.0468223  53.5519257  56.1923586
  11.0018559  52.3826401  57.1528932   4.7979981  49.1008015  52.3344483
   3.8730477  48.9684229  52.5422175   5.0464394  49.8802234  52.8314426
  14.7464643  45.1676758  53.9805216  13.8381521  45.0992167  53.6863977
  14.6952239  45.6448703  54.8087042   8.5681387  46.6434897  45.6188615
   8.4481012  47.0891948  46.4574096   7.8733976  46.9920214  45.0602154
   2.1588792  48.7441289  53.1688272   2.2881173  48.9975768  54.0827684
   1.4786243  49.3368997  52.8492928   6.3288279  59.4138539  49.2678747
   6.2512309  60.3646364  49.3467227   5.7249923  59.0684411  49.9253673
   8.8205509  46.5866404  61.9240114   8.0438843  47.1460324  61.9142978
   9.4596072  47.0723187  62.4454984  16.6126290  43.3693197  55.7583090
  15.9700670  43.6625730  55.1122885  16.1081218  43.2546117  56.5636287
  14.2666453  47.1156370  46.4468949  15.1784309  47.3483757  46.2716647
  13.7576100  47.6993414  45.8844028   7.0751881  49.3951857  61.4858081
   7.8166566  49.9336901  61.2092904   6.3688867  50.0218146  61.6429632
  12.5507221  51.5380998  60.0830242  12.9590577  51.0963408  59.3384874
  11.8284483  50.9633625  60.3364435   8.9038291  46.4753605  57.4563799
   9.7499486  46.8993018  57.5998448   8.8436929  45.8187229  58.1502362
  12.8736036  52.0982188  53.8382531  12.2444898  52.2627903  53.1358599
  12.4861698  52.5123798  54.6093495  16.7525268  53.0336626  51.1926895
  16.0676306  53.4135528  50.6423928  16.8369117  53.6431953  51.9258842
  12.0537736  44.1357973  59.1144973  11.8098668  44.8900033  58.5779248
  12.3297667  44.5143321  59.9492220  14.0076199  50.6796585  57.7922238
  14.2193094  51.3228345  57.1156619  13.9605947  49.8458902  57.3244168
  11.6102428  43.2914406  54.6958810  10.7486907  43.5895660  54.9875548
  11.6364863  43.5084805  53.7639843   8.4263998  51.8356597  51.1032616
   8.8902343  52.1144299  50.3137239   8.1620796  50.9340041  50.9205707
   5.3188079  51.3828078  54.0412379   5.8889436  51.8115346  53.4029864
   5.9096190  51.1010663  54.7396565   7.3632884  47.9579749  47.9122181
   8.0656927  48.4100793  48.3796108   7.0313512  47.3163568  48.5402074
   5.8113245  46.5491506  62.2873391   5.1811906  47.2307786  62.5208787
   5.7049333  46.4374587  61.3426529  15.1222027  53.5568541  55.9644596
  15.9439471  53.1548728  55.6827277  15.1184430  53.4536775  56.9160711
   3.0572963  46.5807881  50.1722791   2.2604126  46.6926575  50.6906287
   2.8298555  46.9194533  49.3063682   8.8878631  53.1052584  58.1205306
   8.9523063  53.5672991  58.9563478   8.1789554  52.4749949  58.2487616
  23.2128020  49.9007289  52.3129567  22.4591729  49.3314687  52.1573571
  23.3475561  49.8669954  53.2600202   8.6026648  54.7720691  47.9884286
   8.4672323  55.6172227  48.4169134   9.1436461  54.9739969  47.2250220
   5.0893988  40.8512271  64.6498642   4.6960933  40.2978470  65.3246286
   5.9060128  41.1622850  65.0405159   2.0556046  52.2896130  48.5612211
   2.5680566  53.0839380  48.7117776   2.7078758  51.5922420  48.4945813
   3.8650930  55.4061886  50.6434965   4.0417559  56.3279851  50.4555949
   4.6607764  55.0920305  51.0729344   8.0061949  42.2670150  62.2418898
   8.7471662  42.8677304  62.1623361   8.2379872  41.5247788  61.6836941
   3.1503287  47.4526518  60.5197128   3.0356802  46.5511775  60.8204227
   2.2947805  47.6990214  60.1681944  10.2295125  55.3944258  62.1184628
   9.7858979  54.6080637  61.8005533  10.8912338  55.5823409  61.4528519
   4.9882246  56.9240060  56.6445307   5.5389671  56.7957123  55.8722301
   4.1493722  57.2234949  56.2940200  12.3276363  55.6747058  60.1466030
  12.3094838  56.4955939  59.6546299  13.2496283  55.5501133  60.3716171
   8.7849417  53.1891187  60.9889538   9.3177754  52.4279476  60.7588846
   8.2563498  52.8964839  61.7313693  11.9519112  38.2951253  56.5183180
  11.6083381  39.1852895  56.4422290  12.3198074  38.1052911  55.6552765
  11.9169395  48.2859864  45.0255615  11.4016018  49.0564469  45.2644002
  11.6446703  47.6125001  45.6488676   9.5016506  43.1309565  50.0840853
   8.6458102  42.7416416  49.9046492   9.9143457  43.2101526  49.2240639
  11.0315652  40.6655909  54.4832413  10.5280448  40.6286044  53.6700218
  11.3246259  41.5748651  54.5429070   7.2758538  40.7494638  53.4898595
   8.1411535  40.5537447  53.1304484   7.3436047  40.5204990  54.4167952
  16.8903669  51.0392219  46.9608788  16.1133111  50.7003379  46.5163951
  17.5695150  51.0444842  46.2863753  11.7055698  46.1586957  46.8515396
  11.4005833  46.4733106  47.7025539  12.6586140  46.2368376  46.8942729
  10.1502130  52.3177180  48.5008350   9.6223491  51.5829939  48.1881588
   9.6489632  53.0951856  48.2548318  15.1294976  50.5126200  53.6175396
  14.4718650  51.2025462  53.7055525  15.9335375  50.9022632  53.9609383
   4.8820857  42.9796846  50.8614962   5.4564609  42.7572028  50.1288155
   5.4691840  43.0485541  51.6143563  13.9400434  48.8670573  51.6679338
  14.4532316  49.5000565  52.1701048  14.5901658  48.2671769  51.3022698
   5.2090444  45.0101307  44.8810847   4.3727757  45.3475994  45.2020122
   5.0695214  44.8750287  43.9437984   7.1843525  39.8538095  49.5890031
   6.5307937  39.5387112  48.9646646   7.1423999  39.2313836  50.3149854
   8.2954730  50.1357390  41.5043323   7.3881791  49.9046644  41.7034472
   8.7925762  49.3395009  41.6917305  11.2022809  58.8454897  44.4240009
  10.5284507  59.1486594  45.0324967  11.5888631  59.6483978  44.0745466
  10.4181265  46.3420029  53.9137679   9.5003827  46.5634976  53.7559367
  10.8341409  46.4166339  53.0549386  11.2016313  47.7411444  49.0440359
  11.9488132  48.2532842  48.7347481  11.4707903  47.4195497  49.9044753
   9.4742963  50.2369985  46.0267313   8.5654182  49.9529018  46.1239783
   9.5038047  50.6569064  45.1670620  14.7062231  53.8476575  49.7958481
  14.2524558  53.0067484  49.8523671  14.0756197  54.4837973  50.1333261
  13.6495150  44.7768561  51.0259148  12.9117907  44.2645947  51.3569391
  13.9021924  44.3368942  50.2142425  13.1495170  55.6853071  50.7308299
  13.4418144  56.2458128  50.0120665  13.6593790  55.9781632  51.4861458
  13.7506777  37.5544813  51.6200918  14.0565654  36.6942176  51.3326833
  14.4759382  38.1462433  51.4199911   8.0227857  47.8498606  52.1277109
   8.0776467  46.8972442  52.0519585   7.2119059  48.0058045  52.6118407
   9.1719051  51.7778729  43.3655392   8.7338481  51.0614588  42.9061029
   9.9129492  52.0054844  42.8040483   5.9620217  46.4675665  49.8867487
   5.1488083  46.7669836  50.2932680   6.4579211  46.0731354  50.6041970
   8.1128795  56.4633422  51.8201752   8.0704974  56.6894269  50.8910284
   9.0291494  56.2296797  51.9687553  11.5594429  46.9317490  58.7182381
  11.9143817  47.1588963  59.5776847  12.2066560  47.2635867  58.0959637
  17.2892166  50.0535926  49.4231710  17.1510064  50.2437522  48.4952900
  16.9328385  50.8155309  49.8799762   5.4534292  44.0394021  55.5028722
   6.0933671  43.8982780  54.8051686   4.6211822  43.7528534  55.1267324
  17.3161545  52.1212453  54.4342982  17.7498052  52.0287742  55.2826036
  18.0293126  52.0969953  53.7962998   6.2294596  53.3396451  51.6163715
   7.0235194  52.8446771  51.4146290   5.5186288  52.8114314  51.2531420
  11.0489440  55.7214547  55.9676082  11.1026463  56.2905483  56.7353798
  10.1804222  55.8916432  55.6030120   2.5377359  47.4839533  47.6923468
   1.6074947  47.4223989  47.9093430   2.6334831  46.9615486  46.8960109
   2.4562908  44.0094346  50.2801709   2.7169726  44.9239679  50.1710870
   3.2780081  43.5418788  50.4298322   3.9287834  45.4232103  57.4500534
   4.6010887  45.2149465  56.8013183   3.1017620  45.2254189  57.0105766
  18.1777095  52.1636153  56.9675867  18.3712985  53.0681964  57.2135142
  18.0777713  51.7043572  57.8014452   9.8313406  42.0494044  59.4666195
   9.1841321  42.7483994  59.3730671  10.6014421  42.4830188  59.8342443
  13.2392204  52.3142896  62.5416748  13.0877710  52.0853448  61.6246832
  13.2296883  53.2713498  62.5548093  10.0077540  49.8874809  57.5263014
  10.9369600  50.0385969  57.3531982   9.5868570  49.9758830  56.6711661
   8.8065872  53.9125473  55.2961552   8.6676957  53.5444258  56.1687490
   8.0180468  54.4273113  55.1245510   9.4014024  59.0134570  46.6387088
   9.5765779  58.5422613  47.4532711   8.7146812  59.6400336  46.8668349
  10.3571087  53.2907076  52.6850390  10.0220920  53.2507846  53.5808040
   9.8575033  52.6251792  52.2120800   4.3315331  48.6974706  58.2102971
   4.1935129  47.9654945  58.8114510   5.2420254  48.6083606  57.9287159
  13.2930279  50.6363110  42.9587449  12.6759449  49.9109939  42.8620502
  12.8246767  51.3972471  42.6154524   6.9597632  48.4094665  57.6986651
   7.6697250  47.7687858  57.6573269   6.9166940  48.6607560  58.6212831
  14.9484410  55.3462019  60.6193230  14.8896956  54.6621239  59.9523813
  15.3503929  56.0881009  60.1673856   5.6726566  45.3959883  59.5182290
   5.1363923  44.9450622  60.1703886   5.0843274  45.5305792  58.7752754
   3.9675109  62.1623933  53.4126949   4.2071707  62.7942457  54.0905967
   3.1244305  61.8111973  53.6992308   5.0828824  44.8548535  42.0808754
   4.2058291  44.7337335  41.7171000   5.5586578  44.0634613  41.8287642
  14.9501817  53.3101603  58.8507209  14.0628596  52.9727524  58.9733608
  15.5200369  52.5784634  59.0875975   1.4065687  44.5315891  56.6035285
   1.3223875  43.9241560  55.8685694   0.5848393  45.0224909  56.6044781
   8.4802971  57.9703055  55.8168453   8.4073142  58.7758026  56.3287757
   8.0380364  58.1695021  54.9916474   8.2692751  57.2074825  49.3271274
   7.4860272  57.7496505  49.4209499   8.9685496  57.7248805  49.7265515
  11.5789401  43.0169454  51.9705480  12.0758100  42.2639417  51.6506550
  10.8076382  43.0533771  51.4048689  19.4319158  48.7209820  53.6123771
  19.4209034  49.6034535  53.2417704  18.5636537  48.3681371  53.4178308
  10.9401654  57.8689889  57.9726611  11.6529627  58.5037354  57.9002513
  10.4491683  57.9653755  57.1566613  12.6619181  51.7741142  49.5443903
  11.7275460  51.8942604  49.3748607  12.8395850  50.8713608  49.2803913
   8.1624369  45.1586837  51.6977164   7.7922157  44.6057878  52.3858070
   8.6583462  44.5544971  51.1452164  16.0491733  47.6158461  50.0793937
  16.5152185  48.4486453  50.0054240  16.4999233  47.1503443  50.7839196
   5.9913568  55.6184332  58.7932182   6.6923027  56.2520815  58.9461576
   5.5208683  55.9599064  58.0327821  14.1167964  53.9602282  47.0780089
  14.3927808  53.8458877  47.9873963  13.2472463  53.5619767  47.0392262
  14.0208395  39.9839048  54.1184838  13.1071475  40.2143275  54.2867045
  14.4501497  40.0677492  54.9698871  13.7914854  48.1728940  56.6184732
  13.1386304  48.4204847  55.9637185  14.1695234  47.3593078  56.2847210
  10.7522028  58.2088633  50.7212903  10.9344422  57.3910289  51.1840655
  11.5755014  58.4256325  50.2837793  11.0864193  57.1356818  47.9827951
  11.6151960  56.6249273  47.3698113  11.3492413  56.8199348  48.8473484
   9.8402427  48.9148751  63.1050770   9.1643064  48.8142880  63.7753145
  10.6630061  48.7587965  63.5686767   1.5881286  55.1520688  55.7263285
   2.1734723  54.4064375  55.8591189   1.3906124  55.4624644  56.6099949
   4.4419941  58.1871935  50.7425727   3.7730316  58.6718063  50.2589767
   4.3032811  58.4341155  51.6569106   8.5825210  60.2215678  57.3408386
   9.1343518  60.3847300  58.1057471   8.9231403  60.8120116  56.6688410
   3.5589703  42.5690828  57.9430270   3.6231030  43.4305659  57.5307668
   3.4956823  41.9564830  57.2102629   3.0341976  44.6413961  61.5903305
   3.6614014  44.2591038  62.2040829   2.1769894  44.4228163  61.9558997
  13.4336084  55.0476936  63.1957040  13.9775988  55.6606894  62.7011995
  12.8522929  55.6056514  63.7124053  11.7193597  58.1697654  54.3272068
  11.5944737  57.3687394  53.8183013  12.3772688  58.6643847  53.8386038
   3.3401765  44.5246386  53.5049208   2.6188351  45.1382354  53.3656681
   4.1295021  45.0604151  53.4265854  13.7828505  55.9706674  55.9551618
  12.8358841  55.8512025  55.8829945  14.1311279  55.0829172  56.0377879
   6.1428079  41.8600813  59.7789860   6.6662481  42.1063110  60.5416169
   5.9240412  42.6920848  59.3592997   1.5395360  44.1304488  47.6460984
   1.2108066  43.2501866  47.4636090   1.8934731  44.0752156  48.5337374
  10.7874939  55.7659390  52.1555970  10.6399901  54.8376098  52.3363540
  11.6128432  55.7879481  51.6713045   4.6537183  44.4177457  48.0136462
   4.9933256  44.9463379  47.2915071   5.1009304  44.7557863  48.7895029
  14.3909061  56.5887949  53.2420843  15.3155608  56.3830810  53.1045294
  14.2224364  56.3404350  54.1510184   7.3480624  42.8014508  57.4639530
   7.0077444  42.0022321  57.8660210   6.6419630  43.1016219  56.8916363
   7.9997096  39.8863820  55.9166853   8.8223165  39.4124299  55.7945744
   8.2435159  40.6654304  56.4165540   6.6405330  42.9152079  46.2129755
   7.3613693  43.2933332  45.7093472   6.0170634  43.6340956  46.3164733
  10.7836453  43.6197228  47.1488087  11.0000067  44.5021866  46.8476915
  10.3030520  43.2283441  46.4193729   5.5235674  46.5782941  53.7258832
   5.3780255  46.8923244  54.6183113   5.0460878  47.1967841  53.1729731
   7.3832057  43.5685489  53.7739721   7.3693626  42.6726582  53.4372019
   8.1004485  43.5756153  54.4078007   9.2358188  44.0022829  55.8192849
   8.9775966  44.9239900  55.8177179   8.7043228  43.6053264  56.5093313
  14.1804377  57.1073616  48.5982934  14.3541254  56.5420039  47.8456787
  14.6733268  57.9074511  48.4162424   6.7868953  42.4499869  49.0427292
   6.9084864  41.5216516  49.2418179   6.4970996  42.4638555  48.1305607
   9.6560144  40.1354780  52.1794011   9.6781840  40.1994113  51.2245991
  10.0728203  39.2959288  52.3734518  20.0343768  49.8710039  50.2173234
  20.4774914  49.1217365  49.8192357  19.1570278  49.8620176  49.8346966
  15.1679549  56.4240381  45.6979833  15.8630454  57.0447074  45.9167147
  15.5102699  55.5735732  45.9732210  17.0670972  53.8740086  47.2267163
  17.5922297  54.2127359  46.5016483  16.9793325  52.9387102  47.0430298
   8.7291021  57.7874160  59.3557040   9.0378148  57.5423307  60.2279740
   9.5266503  57.9920798  58.8675910   8.7511633  59.9412070  51.5862416
   8.3116623  59.4488448  52.2795273   9.5019750  59.3985037  51.3454492
   1.2303972  56.1323611  51.5887045   2.0561992  55.8327382  51.2085688
   0.8798024  55.3631233  52.0376833   6.1985505  55.4850079  53.6584718
   5.5765515  54.8220784  53.3586946   6.8690372  55.5111211  52.9758366
   6.2710033  43.9631867  63.2517224   6.3198188  44.8393990  62.8694994
   6.8132547  43.4209260  62.6788867  16.7564878  54.5072990  62.5318361
  15.9660422  54.4897129  61.9922861  16.5198233  55.0461284  63.2867398
  16.8762754  51.3565456  59.8451090  16.9260758  51.1915464  60.7866613
  16.7676677  50.4892715  59.4548971   5.7599012  54.0354002  47.1343179
   5.9087133  54.7189466  46.4809851   6.5665456  54.0159092  47.6492634
  14.1666516  47.3396384  61.1610396  15.0676379  47.2002849  60.8694394
  14.2414490  47.5050839  62.1008574   8.5009321  44.7163239  60.0063583
   7.6312631  45.0096805  59.7346171   8.7368802  45.3003684  60.7270846
  18.3780950  53.7762398  60.0893111  18.0865759  54.1392378  60.9256572
  17.7653082  53.0629406  59.9106443  19.5776633  51.3415278  52.6095682
  20.4123524  51.7805082  52.7733242  19.7135761  50.8653931  51.7903927
  16.6268139  48.8995013  58.5573169  17.1022260  49.0922659  57.7492021
  15.7033704  48.9554198  58.3116553   3.5151645  50.0619180  48.1404248
   3.2697687  49.1581510  48.3384458   3.6847560  50.0636330  47.1983726
  11.2048355  40.9342856  57.5229003  11.7230299  41.6703883  57.1975492
  10.8503488  41.2406849  58.3575762   2.7847293  45.7947537  45.6390409
   2.0916538  45.8691892  44.9830445   2.5399045  45.0307881  46.1611926
  11.4560949  37.3543139  53.0429900  11.7362703  36.6866328  53.6690326
  12.2411556  37.5472234  52.5304564   9.2594418  56.5302133  44.6054926
   8.6868385  57.1492320  44.1525398   9.8327211  57.0801494  45.1394848
  15.3269808  45.7760773  56.7901475  16.2787231  45.8758870  56.8113699
  15.1573258  44.9839041  57.2999559  13.3484187  42.8616356  56.9760876
  12.7534119  43.1421369  56.2807364  13.0633884  43.3510257  57.7477617
  12.4791678  56.8139283  45.7363508  13.4122351  56.7484844  45.9396384
  12.3914890  57.6495550  45.2778041  15.1079694  56.1305153  42.6967456
  15.0293326  55.7965017  43.5903214  15.9289361  56.6226921  42.6958928
  17.8057885  48.9966892  55.9043775  17.7734206  48.0582893  56.0903458
  18.4158509  49.0750929  55.1709599   9.6441216  47.8662945  41.9470979
  10.5900321  47.7369153  42.0159397   9.2655461  47.1277607  42.4240407
  17.9552374  45.7877936  55.9502058  17.4391423  45.0036392  55.7631987
  18.8392322  45.4596652  56.1148577  15.6163101  39.5318951  51.9097870
  15.4187922  39.2234040  52.7941202  16.2262806  40.2580590  52.0395800
  23.6234435  50.0582899  55.0449811  24.3537824  49.7968187  55.6057515
  23.0141381  49.3211621  55.0851879  21.7049732  48.1990762  55.6424263
  20.9782896  48.0646727  55.0340754  21.2897019  48.5067590  56.4480981
   9.5279909  51.9180691  63.4071636  10.4482918  52.0959290  63.6011682
   9.4929492  50.9736737  63.2551335   7.8284133  45.7912922  41.8825864
   6.9215589  45.4946034  41.9588577   8.1060114  45.4942740  41.0160150
   2.5241981  49.8281726  56.0494417   2.7427991  50.7598834  56.0682451
   2.9367755  49.4689700  56.8349221   9.4446199  40.3349811  48.0370105
   8.6346927  39.9896896  48.4125351  10.1330616  40.0257355  48.6257717
  11.3736747  39.4127858  49.6594402  11.9267786  39.8323312  50.3184425
  11.6106834  38.4863606  49.7017358   7.3969847  45.4014932  65.4397166
   7.2966574  46.3509289  65.3709257   7.1791389  45.0733171  64.5673236
   6.5982918  42.6499857  42.0237843   7.4602082  42.9754755  42.2833660
   6.7833262  41.8631353  41.5110909  14.7515555  41.5228383  49.1673066
  14.1714224  42.1813187  48.7851118  14.4851487  40.7005728  48.7560484
  13.2019121  40.9233441  51.3694386  13.7018899  41.0349976  50.5608705
  13.8454729  40.6194494  52.0095195   7.2601117  48.8312071  64.2562227
   6.7768198  49.6312431  64.4626116   7.3462056  48.8420016  63.3029671
   0.5287076  50.6640450  52.1784047   0.5057764  50.7628138  51.2265930
   0.8387713  51.5105601  52.5001213   3.1874454  52.7216605  56.2930661
   4.1417708  52.6900548  56.2260593   2.9886978  52.2607229  57.1080887
   3.7773836  51.2917721  58.8601459   4.5966725  51.7861800  58.8836296
   4.0510644  50.3749690  58.8319026  13.5340433  43.6828474  48.2229414
  12.6466288  43.9678124  48.0049609  13.9494422  43.5222237  47.3756691
  16.8854969  43.7074995  51.9383754  17.6615359  44.1971447  52.2108370
  16.1603103  44.1333049  52.3955623  19.3227527  44.4202614  52.9957694
  19.9172018  44.1798350  52.2851002  19.3954111  43.7009745  53.6231230
   1.5424683  58.2636225  53.3100859   1.4079151  57.5036626  52.7438857
   1.1256745  58.9877125  52.8429648  12.6783646  53.4473148  42.3177434
  13.3819496  53.6523151  42.9335090  11.9546295  54.0149910  42.5826518
  13.5081456  49.1983010  48.4379704  13.4516658  49.6551561  47.5987337
  14.0609799  48.4373694  48.2602547  17.3186262  44.9872742  49.2629824
  17.0623196  44.5869377  50.0938032  16.6939130  45.7016535  49.1379963
  21.6298600  47.7268815  51.7701115  21.0698158  47.7962004  52.5432677
  21.0242103  47.5509799  51.0500612   4.6993809  59.1605542  53.5219302
   4.5826193  60.1050974  53.4197992   3.8786255  58.8579103  53.9105101
  14.5870343  53.8855678  44.3675894  15.4215947  53.4536876  44.1853369
  14.4254686  53.7137691  45.2952789  14.2416236  50.3887791  45.7332234
  14.1865039  50.2232062  44.7920678  13.6162291  51.0963824  45.8894423
  11.5562143  52.6936703  65.0585796  12.4253302  52.8677355  64.6972431
  11.0768894  53.5131120  64.9361526   7.5512361  39.8895900  45.3117552
   7.5391031  40.8337740  45.4685823   8.4435783  39.7066045  45.0177013
   5.7248323  59.8133804  56.7375230   6.6275570  59.8457414  57.0541725
   5.4985693  58.8834255  56.7521566   7.4801925  58.5664790  53.3985309
   6.5297556  58.5666652  53.2849681   7.7834411  57.8197525  52.8821343
  11.3664481  36.4838677  49.5663489  10.5996876  35.9297163  49.7120171
  11.7775185  36.5560545  50.4277640   3.3706242  42.7723472  63.6568670
   4.2337703  42.4160277  63.8671995   2.7971652  42.4337367  64.3444074
  23.2154618  64.4025329  54.4631071  23.8533028  64.2832076  53.7594411
  23.0975461  65.3506173  54.5219023  20.0244325  64.3552757  54.3992596
  19.6862836  64.2393822  53.5113131  20.8934093  63.9543922  54.3793602
  15.8831140  66.2088233  50.3889487  15.3196006  66.1178170  49.6205774
  15.7683536  65.3888138  50.8691979  20.5064108  65.5087609  60.3578801
  20.4952749  65.1140407  59.4859305  20.6684747  64.7753681  60.9512573
  13.4295572  67.7039425  53.2273707  14.2216864  67.3630249  52.8120006
  13.6692223  67.8134400  54.1475860  21.4630699  69.8759201  45.7003952
  20.8118679  70.4613281  45.3137965  22.2575062  70.4065396  45.7598989
  15.3886326  66.9648338  46.0991086  16.1617202  66.4177325  45.9603962
  15.7411725  67.8292587  46.3105547  17.2271369  68.2924720  59.3057985
  16.9361235  69.1970351  59.1904652  17.8628353  68.3341248  60.0202055
  18.1527576  65.6701569  55.8959345  18.7491148  65.4457591  55.1816308
  18.2102547  64.9286314  56.4984793  17.7252604  63.1241004  43.7309536
  17.9778125  62.6022525  42.9692999  16.7877163  62.9607150  43.8336219
  22.7695887  62.1276783  51.5384279  23.5558976  61.7096206  51.1874696
  23.0334591  63.0322875  51.7065927  22.9405964  67.5649633  46.2372936
  22.3051797  67.6384259  46.9493841  22.6103371  68.1543232  45.5592015
  28.1704314  62.0652016  52.4417258  28.9029486  61.4951233  52.6755087
  27.4143670  61.6773616  52.8823763  17.4448893  65.0269110  45.9333911
  17.3285151  64.3514014  46.6014995  17.5551153  64.5401484  45.1166064
  19.7880434  64.4879257  49.6380600  19.4238641  63.9609878  50.3493522
  20.6447550  64.0977726  49.4647085  25.6929734  55.7773590  56.9011866
  25.3613059  56.6469001  56.6773081  25.0975348  55.4609874  57.5805897
  19.4285921  59.5169157  44.6341949  19.5960323  60.3849393  45.0012420
  19.2383090  59.6796439  43.7103238  22.1861254  67.9786136  56.3007779
  21.8861977  68.8811175  56.1923586  21.8412314  67.7118319  57.1528932
  15.6373735  64.4299933  52.3344483  14.7124232  64.2976147  52.5422175
  15.8858149  65.2094152  52.8314426  25.5858398  60.4968676  53.9805216
  24.6775275  60.4284084  53.6863977  25.5345994  60.9740621  54.8087042
  19.4075142  61.9726814  45.6188615  19.2874767  62.4183865  46.4574096
  18.7127730  62.3212132  45.0602154  12.9982547  64.0733206  53.1688272
  13.1274928  64.3267685  54.0827684  12.3179998  64.6660914  52.8492928
  17.1682034  74.7430456  49.2678747  17.0906063  75.6938281  49.3467227
  16.5643677  74.3976329  49.9253673  19.6599264  61.9158322  61.9240114
  18.8832598  62.4752242  61.9142978  20.2989827  62.4015105  62.4454984
  27.4520044  58.6985114  55.7583090  26.8094424  58.9917648  55.1122885
  26.9474973  58.5838035  56.5636287  25.1060208  62.4448288  46.4468949
  26.0178064  62.6775674  46.2716647  24.5969855  63.0285332  45.8844028
  17.9145636  64.7243775  61.4858081  18.6560320  65.2628819  61.2092904
  17.2082621  65.3510064  61.6429632  23.3900976  66.8672915  60.0830242
  23.7984332  66.4255326  59.3384874  22.6678237  66.2925543  60.3364435
  19.7432046  61.8045522  57.4563799  20.5893241  62.2284936  57.5998448
  19.6830683  61.1479147  58.1502362  23.7129790  67.4274106  53.8382531
  23.0838653  67.5919820  53.1358599  23.3255452  67.8415716  54.6093495
  27.5919022  68.3628544  51.1926895  26.9070060  68.7427445  50.6423928
  27.6762871  68.9723871  51.9258842  22.8931491  59.4649891  59.1144973
  22.6492423  60.2191951  58.5779248  23.1691421  59.8435238  59.9492220
  24.8469954  66.0088503  57.7922238  25.0586849  66.6520263  57.1156619
  24.7999702  65.1750820  57.3244168  22.4496183  58.6206324  54.6958810
  21.5880662  58.9187577  54.9875548  22.4758617  58.8376723  53.7639843
  19.2657752  67.1648514  51.1032616  19.7296098  67.4436217  50.3137239
  19.0014550  66.2631959  50.9205707  16.1581833  66.7119996  54.0412379
  16.7283190  67.1407264  53.4029864  16.7489945  66.4302580  54.7396565
  18.2026638  63.2871667  47.9122181  18.9050681  63.7392710  48.3796108
  17.8707267  62.6455485  48.5402074  16.6507000  61.8783423  62.2873391
  16.0205660  62.5599704  62.5208787  16.5443088  61.7666505  61.3426529
  11.9451972  61.5455219  53.2139315  11.1551026  61.8012748  52.7379425
  12.4363219  62.3603557  53.3191355  25.9615782  68.8860458  55.9644596
  26.7833225  68.4840646  55.6827277  25.9578184  68.7828693  56.9160711
  13.8966717  61.9099798  50.1722791  13.0997881  62.0218493  50.6906287
  13.6692310  62.2486451  49.3063682  19.7272385  68.4344502  58.1205306
  19.7916818  68.8964909  58.9563478  19.0183309  67.8041867  58.2487616
  10.2289675  61.7985710  55.6454306  10.4797713  62.6832720  55.9111881
  10.7649223  61.6190311  54.8729397  34.0521775  65.2299207  52.3129567
  33.2985483  64.6606605  52.1573571  34.1869316  65.1961871  53.2600202
  19.4420403  70.1012609  47.9884286  19.3066077  70.9464145  48.4169134
  19.9830215  70.3031887  47.2250220  15.9287742  56.1804189  64.6498642
  15.5354688  55.6270388  65.3246286  16.7453883  56.4914767  65.0405159
  12.8949800  67.6188047  48.5612211  13.4074321  68.4131297  48.7117776
  13.5472513  66.9214338  48.4945813  14.7044685  70.7353803  50.6434965
  14.8811313  71.6571768  50.4555949  15.5001518  70.4212223  51.0729344
  18.8455703  57.5962068  62.2418898  19.5865417  58.1969221  62.1623361
  19.0773626  56.8539706  61.6836941  13.9897041  62.7818435  60.5197128
  13.8750556  61.8803693  60.8204227  13.1341559  63.0282132  60.1681944
  21.0688879  70.7236176  62.1184628  20.6252733  69.9372554  61.8005533
  21.7306093  70.9115326  61.4528519  15.8276000  72.2531977  56.6445307
  16.3783425  72.1249041  55.8722301  14.9887476  72.5526866  56.2940200
  23.1670117  71.0038976  60.1466030  23.1488593  71.8247857  59.6546299
  24.0890037  70.8793051  60.3716171  19.6243171  68.5183105  60.9889538
  20.1571508  67.7571393  60.7588846  19.0957252  68.2256757  61.7313693
  22.7912866  53.6243171  56.5183180  22.4477136  54.5144813  56.4422290
  23.1591829  53.4344829  55.6552765  10.8598717  65.9476702  49.3371782
  11.6973939  66.3573710  49.1205490  11.0376985  65.0076144  49.3071976
  22.7563149  63.6151782  45.0255615  22.2409772  64.3856387  45.2644002
  22.4840457  62.9416918  45.6488676  20.3410260  58.4601483  50.0840853
  19.4851856  58.0708333  49.9046492  20.7537212  58.5393444  49.2240639
  21.8709407  55.9947826  54.4832413  21.3674202  55.9577961  53.6700218
  22.1640014  56.9040569  54.5429070  18.1152293  56.0786556  53.4898595
  18.9805289  55.8829365  53.1304484  18.1829801  55.8496908  54.4167952
  27.7297423  66.3684137  46.9608788  26.9526866  66.0295296  46.5163951
  28.4088904  66.3736760  46.2863753  22.5449452  61.4878874  46.8515396
  22.2399588  61.8025023  47.7025539  23.4979894  61.5660294  46.8942729
  20.9895884  67.6469098  48.5008350  20.4617246  66.9121857  48.1881588
  20.4883387  68.4243774  48.2548318  25.9688730  65.8418118  53.6175396
  25.3112404  66.5317379  53.7055525  26.7729129  66.2314550  53.9609383
  15.7214612  58.3088764  50.8614962  16.2958364  58.0863945  50.1288155
  16.3085594  58.3777458  51.6143563  24.7794189  64.1962491  51.6679338
  25.2926071  64.8292483  52.1701048  25.4295413  63.5963686  51.3022698
  16.0484199  60.3393225  44.8810847  15.2121511  60.6767911  45.2020122
  15.9088968  60.2042205  43.9437984  18.0237279  55.1830013  49.5890031
  17.3701692  54.8679030  48.9646646  17.9817753  54.5605753  50.3149854
  19.1348484  65.4649308  41.5043323  18.2275546  65.2338561  41.7034472
  19.6319516  64.6686927  41.6917305  22.0416563  74.1746815  44.4240009
  21.3678262  74.4778512  45.0324967  22.4282385  74.9775895  44.0745466
  21.2575020  61.6711946  53.9137679  20.3397581  61.8926893  53.7559367
  21.6735163  61.7458257  53.0549386  22.0410067  63.0703362  49.0440359
  22.7881886  63.5824759  48.7347481  22.3101657  62.7487415  49.9044753
  20.3136718  65.5661903  46.0267313  19.4047937  65.2820936  46.1239783
  20.3431801  65.9860981  45.1670620  25.5455985  69.1768492  49.7958481
  25.0918312  68.3359402  49.8523671  24.9149952  69.8129891  50.1333261
  24.4888905  60.1060478  51.0259148  23.7511661  59.5937864  51.3569391
  24.7415678  59.6660860  50.2142425  23.9888924  71.0144989  50.7308299
  24.2811899  71.5750046  50.0120665  24.4987545  71.3073550  51.4861458
  24.5900532  52.8836730  51.6200918  24.8959409  52.0234094  51.3326833
  25.3153137  53.4754350  51.4199911  10.8824888  63.2867417  50.0082515
  10.6849288  62.6936778  49.2833582  10.3271552  62.9819627  50.7258454
  18.8621612  63.1790523  52.1277109  18.9170221  62.2264360  52.0519585
  18.0512814  63.3349962  52.6118407  20.0112805  67.1070646  43.3655392
  19.5732235  66.3906505  42.9061029  20.7523246  67.3346761  42.8040483
  16.8013972  61.7967583  49.8867487  15.9881837  62.0961754  50.2932680
  17.2972966  61.4023272  50.6041970  18.9522549  71.7925340  51.8201752
  18.9098728  72.0186186  50.8910284  19.8685248  71.5588715  51.9687553
  22.3988183  62.2609408  58.7182381  22.7537571  62.4880881  59.5776847
  23.0460315  62.5927784  58.0959637  28.1285920  65.3827843  49.4231710
  27.9903819  65.5729439  48.4952900  27.7722139  66.1447226  49.8799762
  16.2928046  59.3685939  55.5028722  16.9327426  59.2274698  54.8051686
  15.4605577  59.0820452  55.1267324  28.1555300  67.4504370  54.4342982
  28.5891806  67.3579660  55.2826036  28.8686881  67.4261871  53.7962998
  17.0688350  68.6688369  51.6163715  17.8628949  68.1738689  51.4146290
  16.3580043  68.1406232  51.2531420  21.8883195  71.0506465  55.9676082
  21.9420217  71.6197401  56.7353798  21.0197976  71.2208350  55.6030120
  13.3771114  62.8131451  47.6923468  12.4468702  62.7515906  47.9093430
  13.4728586  62.2907403  46.8960109  13.2956663  59.3386264  50.2801709
  13.5563480  60.2531597  50.1710870  14.1173835  58.8710706  50.4298322
  14.7681588  60.7524021  57.4500534  15.4404642  60.5441383  56.8013183
  13.9411375  60.5546107  57.0105766  29.0170849  67.4928071  56.9675867
  29.2106739  68.3973882  57.2135142  28.9171468  67.0335490  57.8014452
  20.6707160  57.3785962  59.4666195  20.0235075  58.0775911  59.3730671
  21.4408176  57.8122106  59.8342443  24.0785958  67.6434814  62.5416748
  23.9271464  67.4145366  61.6246832  24.0690638  68.6005415  62.5548093
  20.8471294  65.2166727  57.5263014  21.7763354  65.3677886  57.3531982
  20.4262324  65.3050747  56.6711661  19.6459626  69.2417391  55.2961552
  19.5070712  68.8736175  56.1687490  18.8574222  69.7565030  55.1245510
  20.2407778  74.3426487  46.6387088  20.4159534  73.8714531  47.4532711
  19.5540566  74.9692254  46.8668349  21.1964841  68.6198994  52.6850390
  20.8614674  68.5799764  53.5808040  20.6968787  67.9543710  52.2120800
  15.1709085  64.0266624  58.2102971  15.0328883  63.2946863  58.8114510
  16.0814009  63.9375524  57.9287159  24.1324033  65.9655028  42.9587449
  23.5153204  65.2401856  42.8620502  23.6640522  66.7264388  42.6154524
  17.7991386  63.7386583  57.6986651  18.5091005  63.0979775  57.6573269
  17.7560694  63.9899478  58.6212831  25.7878165  70.6753936  60.6193230
  25.7290711  69.9913157  59.9523813  26.1897683  71.4172926  60.1673856
  16.5120320  60.7251801  59.5182290  15.9757677  60.2742539  60.1703886
  15.9237028  60.8597710  58.7752754  14.8068864  77.4915850  53.4126949
  15.0465462  78.1234374  54.0905967  13.9638060  77.1403890  53.6992308
  15.9222579  60.1840452  42.0808754  15.0452045  60.0629253  41.7171000
  16.3980332  59.3926531  41.8287642  25.7895572  68.6393520  58.8507209
  24.9022351  68.3019442  58.9733608  26.3594123  67.9076552  59.0875975
   7.4424719  64.9717612  52.1750261   8.1295759  64.6579342  51.5871276
   7.2872848  65.8758977  51.9017512  12.2459441  59.8607809  56.6035285
  12.1617630  59.2533478  55.8685694  11.4242148  60.3516827  56.6044781
  19.3196725  73.2994973  55.8168453  19.2466897  74.1049944  56.3287757
  18.8774118  73.4986938  54.9916474  19.1086505  72.5366743  49.3271274
  18.3254027  73.0788423  49.4209499  19.8079250  73.0540722  49.7265515
  22.4183155  58.3461372  51.9705480  22.9151855  57.5931334  51.6506550
  21.6470137  58.3825689  51.4048689  30.2712913  64.0501738  53.6123771
  30.2602789  64.9326453  53.2417704  29.4030292  63.6973289  53.4178308
  21.7795409  73.1981807  57.9726611  22.4923381  73.8329272  57.9002513
  21.2885438  73.2945673  57.1566613  23.5012936  67.1033059  49.5443903
  22.5669215  67.2234522  49.3748607  23.6789604  66.2005526  49.2803913
  19.0018124  60.4878755  51.6977164  18.6315911  59.9349796  52.3858070
  19.4977216  59.8836889  51.1452164  26.8885487  62.9450379  50.0793937
  27.3545939  63.7778370  50.0054240  27.3392988  62.4795360  50.7839196
  16.8307322  70.9476250  58.7932182  17.5316782  71.5812733  58.9461576
  16.3602437  71.2890982  58.0327821  24.9561718  69.2894200  47.0780089
  25.2321562  69.1750795  47.9873963  24.0866217  68.8911685  47.0392262
  24.8602150  55.3130966  54.1184838  23.9465230  55.5435192  54.2867045
  25.2895251  55.3969410  54.9698871  24.6308608  63.5020858  56.6184732
  23.9780059  63.7496765  55.9637185  25.0088988  62.6884996  56.2847210
  21.5915782  73.5380551  50.7212903  21.7738177  72.7202207  51.1840655
  22.4148768  73.7548243  50.2837793  21.9257948  72.4648736  47.9827951
  22.4545714  71.9541190  47.3698113  22.1886167  72.1491266  48.8473484
  20.6796181  64.2440669  63.1050770  20.0036818  64.1434798  63.7753145
  21.5023815  64.0879882  63.5686767  12.4275040  70.4812605  55.7263285
  13.0128477  69.7356293  55.8591189  12.2299879  70.7916562  56.6099949
  15.2813696  73.5163853  50.7425727  14.6124071  74.0009980  50.2589767
  15.1426565  73.7633073  51.6569106   7.0192695  63.0518205  54.4467728
   7.0576795  62.5181796  55.2404846   6.5132988  62.5253411  53.8278705
  19.4218964  75.5507596  57.3408386  19.9737272  75.7139218  58.1057471
  19.7625158  76.1412034  56.6688410  14.3983458  57.8982746  57.9430270
  14.4624784  58.7597577  57.5307668  14.3350578  57.2856748  57.2102629
  13.8735730  59.9705878  61.5903305  14.5007769  59.5882956  62.2040829
  13.0163649  59.7520080  61.9558997  24.2729839  70.3768854  63.1957040
  24.8169743  70.9898812  62.7011995  23.6916683  70.9348432  63.7124053
  10.6501273  61.7782308  47.5221659  10.9454714  60.8692986  47.4688713
   9.7489309  61.7570047  47.2002662  22.5587352  73.4989572  54.3272068
  22.4338491  72.6979311  53.8183013  23.2166443  73.9935765  53.8386038
  14.1795520  59.8538304  53.5049208  13.4582106  60.4674272  53.3656681
  14.9688776  60.3896069  53.4265854  24.6222260  71.2998592  55.9551618
  23.6752595  71.1803943  55.8829945  24.9705033  70.4121090  56.0377879
  16.9821833  57.1892731  59.7789860  17.5056235  57.4355027  60.5416169
  16.7634167  58.0212765  59.3592997  12.3789114  59.4596405  47.6460984
  12.0501821  58.5793784  47.4636090  12.7328485  59.4044074  48.5337374
  21.6268693  71.0951308  52.1555970  21.4793656  70.1668015  52.3363540
  22.4522187  71.1171399  51.6713045  15.4930938  59.7469375  48.0136462
  15.8327010  60.2755296  47.2915071  15.9403058  60.0849781  48.7895029
  25.2302815  71.9179867  53.2420843  26.1549363  71.7122728  53.1045294
  25.0618118  71.6696268  54.1510184  18.1874378  58.1306426  57.4639530
  17.8471199  57.3314239  57.8660210  17.4813385  58.4308137  56.8916363
  18.8390850  55.2155738  55.9166853  19.6616920  54.7416216  55.7945744
  19.0828914  55.9946222  56.4165540  17.4799085  58.2443997  46.2129755
  18.2007447  58.6225249  45.7093472  16.8564389  58.9632873  46.3164733
  21.6230208  58.9489146  47.1488087  21.8393822  59.8313783  46.8476915
  21.1424275  58.5575359  46.4193729  16.3629429  61.9074859  53.7258832
  16.2174010  62.2215162  54.6183113  15.8854633  62.5259759  53.1729731
  18.2225812  58.8977407  53.7739721  18.2087381  58.0018500  53.4372019
  18.9398240  58.9048071  54.4078007  20.0751943  59.3314747  55.8192849
  19.8169720  60.2531818  55.8177179  19.5436983  58.9345182  56.5093313
  25.0198131  72.4365534  48.5982934  25.1935009  71.8711957  47.8456787
  25.5127023  73.2366429  48.4162424  10.8375091  64.4480203  56.6646493
  10.2928559  65.2240011  56.7966767  11.7154441  64.7951008  56.5065614
  17.6262708  57.7791787  49.0427292  17.7478619  56.8508433  49.2418179
  17.3364750  57.7930473  48.1305607  20.4953898  55.4646698  52.1794011
  20.5175595  55.5286031  51.2245991  20.9121957  54.6251206  52.3734518
  30.8737522  65.2001957  50.2173234  31.3168669  64.4509282  49.8192357
  29.9964033  65.1912093  49.8346966  26.0073304  71.7532299  45.6979833
  26.7024208  72.3738991  45.9167147  26.3496454  70.9027650  45.9732210
  11.6241113  63.5750099  59.5576650  10.8822849  63.7232735  60.1441280
  11.3033857  63.8358365  58.6943399  27.9064727  69.2032004  47.2267163
  28.4316051  69.5419277  46.5016483  27.8187079  68.2679019  47.0430298
  19.5684776  73.1166078  59.3557040  19.8771902  72.8715224  60.2279740
  20.3660258  73.3212716  58.8675910  19.5905388  75.2703987  51.5862416
  19.1510378  74.7780366  52.2795273  20.3413505  74.7276955  51.3454492
  12.0697727  71.4615528  51.5887045  12.8955747  71.1619300  51.2085688
  11.7191779  70.6923151  52.0376833  17.0379260  70.8141996  53.6584718
  16.4159269  70.1512701  53.3586946  17.7084127  70.8403128  52.9758366
  10.2706332  69.3801855  52.5475978   9.4338240  68.9524029  52.3659979
  10.2429977  69.5734298  53.4846769  17.1103787  59.2923784  63.2517224
  17.1591943  60.1685907  62.8694994  17.6526302  58.7501177  62.6788867
  27.5958633  69.8364908  62.5318361  26.8054177  69.8189047  61.9922861
  27.3591988  70.3753201  63.2867398  27.7156508  66.6857374  59.8451090
  27.7654513  66.5207382  60.7866613  27.6070431  65.8184633  59.4548971
  16.5992767  69.3645920  47.1343179  16.7480887  70.0481384  46.4809851
  17.4059210  69.3451010  47.6492634  25.0060270  62.6688302  61.1610396
  25.9070133  62.5294767  60.8694394  25.0808245  62.8342757  62.1008574
  19.3403076  60.0455157  60.0063583  18.4706385  60.3388723  59.7346171
  19.5762556  60.6295602  60.7270846  29.2174705  69.1054316  60.0893111
  28.9259513  69.4684296  60.9256572  28.6046836  68.3921324  59.9106443
  30.4170387  66.6707195  52.6095682  31.2517279  67.1096999  52.7733242
  30.5529516  66.1945849  51.7903927  27.4661893  64.2286930  58.5573169
  27.9416015  64.4214577  57.7492021  26.5427458  64.2846116  58.3116553
  14.3545400  65.3911097  48.1404248  14.1091442  64.4873427  48.3384458
  14.5241314  65.3928248  47.1983726  22.0442110  56.2634774  57.5229003
  22.5624053  56.9995801  57.1975492  21.6897242  56.5698767  58.3575762
  13.6241047  61.1239455  45.6390409  12.9310292  61.1983810  44.9830445
  13.3792799  60.3599799  46.1611926  22.2954704  52.6835056  53.0429900
  22.5756458  52.0158245  53.6690326  23.0805311  52.8764152  52.5304564
  20.0988172  71.8594050  44.6054926  19.5262139  72.4784237  44.1525398
  20.6720966  72.4093412  45.1394848  26.1663562  61.1052690  56.7901475
  27.1180985  61.2050788  56.8113699  25.9967013  60.3130959  57.2999559
  24.1877942  58.1908274  56.9760876  23.5927874  58.4713286  56.2807364
  23.9027638  58.6802174  57.7477617  23.3185432  72.1431200  45.7363508
  24.2516105  72.0776762  45.9396384  23.2308645  72.9787467  45.2778041
  25.9473449  71.4597071  42.6967456  25.8687080  71.1256934  43.5903214
  26.7683116  71.9518839  42.6958928  28.6451640  64.3258810  55.9043775
  28.6127960  63.3874811  56.0903458  29.2552264  64.4042847  55.1709599
  20.4834971  63.1954863  41.9470979  21.4294075  63.0661071  42.0159397
  20.1049216  62.4569525  42.4240407  28.7946128  61.1169853  55.9502058
  28.2785177  60.3328310  55.7631987  29.6786077  60.7888570  56.1148577
  26.4556855  54.8610869  51.9097870  26.2581676  54.5525957  52.7941202
  27.0656561  55.5872508  52.0395800  34.4628190  65.3874817  55.0449811
  35.1931578  65.1260105  55.6057515  33.8535135  64.6503539  55.0851879
  32.5443487  63.5282679  55.6424263  31.8176650  63.3938644  55.0340754
  32.1290774  63.8359508  56.4480981  20.3673663  67.2472609  63.4071636
  21.2876673  67.4251208  63.6011682  20.3323246  66.3028654  63.2551335
  18.6677888  61.1204839  41.8825864  17.7609343  60.8237952  41.9588577
  18.9453869  60.8234657  41.0160150   9.5855828  62.4411203  52.3324910
   9.2658613  61.5876511  52.0399284   9.0389256  62.6559781  53.0882878
  13.3635736  65.1573644  56.0494417  13.5821746  66.0890752  56.0682451
  13.7761510  64.7981618  56.8349221  20.2839954  55.6641729  48.0370105
  19.4740682  55.3188814  48.4125351  20.9724371  55.3549273  48.6257717
  22.2130502  54.7419776  49.6594402  22.7661541  55.1615229  50.3184425
  22.4500588  53.8155524  49.7017358  18.2363601  60.7306850  65.4397166
  18.1360328  61.6801206  65.3709257  18.0185143  60.4025088  64.5673236
  17.4376673  57.9791775  42.0237843  18.2995837  58.3046673  42.2833660
  17.6227017  57.1923270  41.5110909   9.4544088  66.0614114  54.3018032
   8.7607560  65.6468067  53.7887986  10.2017079  66.1034651  53.7051451
  25.5909309  56.8520301  49.1673066  25.0107978  57.5105105  48.7851118
  25.3245242  56.0297646  48.7560484  24.0412875  56.2525359  51.3694386
  24.5412654  56.3641893  50.5608705  24.6848483  55.9486412  52.0095195
  18.0994871  64.1603988  64.2562227  17.6161953  64.9604348  64.4626116
  18.1855810  64.1711933  63.3029671  11.3680831  65.9932368  52.1784047
  11.3451519  66.0920055  51.2265930  11.6781467  66.8397519  52.5001213
  14.0268209  68.0508523  56.2930661  14.9811462  68.0192465  56.2260593
  13.8280732  67.5899147  57.1080887  14.6167591  66.6209639  58.8601459
  15.4360480  67.1153718  58.8836296  14.8904399  65.7041607  58.8319026
  24.3734187  59.0120391  48.2229414  23.4860042  59.2970042  48.0049609
  24.7888176  58.8514155  47.3756691  27.7248723  59.0366912  51.9383754
  28.5009113  59.5263365  52.2108370  26.9996857  59.4624967  52.3955623
  30.1621282  59.7494532  52.9957694  30.7565773  59.5090268  52.2851002
  30.2347865  59.0301662  53.6231230  12.3818437  73.5928143  53.3100859
  12.2472905  72.8328543  52.7438857  11.9650500  74.3169042  52.8429648
  23.5177400  68.7765066  42.3177434  24.2213251  68.9815069  42.9335090
  22.7940049  69.3441828  42.5826518  24.3475211  64.5274927  48.4379704
  24.2910412  64.9843479  47.5987337  24.9003553  63.7665612  48.2602547
  28.1580017  60.3164659  49.2629824  27.9016951  59.9161295  50.0938032
  27.5332885  61.0308453  49.1379963  32.4692355  63.0560732  51.7701115
  31.9091913  63.1253922  52.5432677  31.8635858  62.8801717  51.0500612
  15.5387563  74.4897460  53.5219302  15.4219948  75.4342892  53.4197992
  14.7180010  74.1871021  53.9105101  25.4264098  69.2147595  44.3675894
  26.2609702  68.7828794  44.1853369  25.2648441  69.0429609  45.2952789
  25.0809990  65.7179709  45.7332234  25.0258794  65.5523980  44.7920678
  24.4556045  66.4255742  45.8894423   9.8702505  60.9547773  59.5593656
  10.5161369  60.4446727  60.0480881   9.6619656  61.6916455  60.1337081
  22.3955897  68.0228620  65.0585796  23.2647057  68.1969273  64.6972431
  21.9162649  68.8423037  64.9361526  18.3906116  55.2187818  45.3117552
  18.3784785  56.1629658  45.4685823  19.2829537  55.0357963  45.0177013
  16.5642077  75.1425721  56.7375230  17.4669324  75.1749332  57.0541725
  16.3379448  74.2126172  56.7521566  18.3195679  73.8956708  53.3985309
  17.3691311  73.8958570  53.2849681  18.6228166  73.1489443  52.8821343
  22.2058235  51.8130594  49.5663489  21.4390631  51.2589081  49.7120171
  22.6168940  51.8852463  50.4277640  14.2099996  58.1015390  63.6568670
  15.0731458  57.7452195  63.8671995  13.6365407  57.7629285  64.3444074
  34.0548373  79.7317246  54.4631071  34.6926783  79.6123994  53.7594411
  33.9369216  80.6798090  54.5219023  30.8638079  79.6844675  54.3992596
  30.5256591  79.5685739  53.5113131  31.7327847  79.2835840  54.3793602
  26.7224895  81.5380151  50.3889487  26.1589760  81.4470088  49.6205774
  26.6077290  80.7180055  50.8691979  31.3457862  80.8379526  60.3578801
  31.3346503  80.4432324  59.4859305  31.5078502  80.1045599  60.9512573
  24.2689327  83.0331343  53.2273707  25.0610619  82.6922167  52.8120006
  24.5085977  83.1426318  54.1475860  32.3024454  85.2051119  45.7003952
  31.6512433  85.7905199  45.3137965  33.0968816  85.7357314  45.7598989
  26.2280081  82.2940256  46.0991086  27.0010957  81.7469243  45.9603962
  26.5805480  83.1584505  46.3105547  28.0665123  83.6216638  59.3057985
  27.7754989  84.5262269  59.1904652  28.7022108  83.6633166  60.0202055
  28.9921330  80.9993487  55.8959345  29.5884903  80.7749509  55.1816308
  29.0496302  80.2578232  56.4984793  28.5646359  78.4532922  43.7309536
  28.8171879  77.9314443  42.9692999  27.6270918  78.2899067  43.8336219
  33.6089641  77.4568700  51.5384279  34.3952731  77.0388123  51.1874696
  33.8728346  78.3614792  51.7065927  33.7799719  82.8941551  46.2372936
  33.1445552  82.9676177  46.9493841  33.4497125  83.4835149  45.5592015
  39.0098069  77.3943933  52.4417258  39.7423241  76.8243150  52.6755087
  38.2537424  77.0065534  52.8823763  28.2842647  80.3561028  45.9333911
  28.1678905  79.6805931  46.6014995  28.3944907  79.8693402  45.1166064
  30.6274188  79.8171175  49.6380600  30.2632396  79.2901796  50.3493522
  31.4841304  79.4269644  49.4647085  36.5323489  71.1065508  56.9011866
  36.2006814  71.9760919  56.6773081  35.9369102  70.7901792  57.5805897
  30.2679675  74.8461075  44.6341949  30.4354078  75.7141311  45.0012420
  30.0776844  75.0088356  43.7103238  33.0255008  83.3078054  56.3007779
  32.7255732  84.2103092  56.1923586  32.6806068  83.0410237  57.1528932
  26.4767490  79.7591850  52.3344483  25.5517986  79.6268064  52.5422175
  26.7251903  80.5386070  52.8314426  36.4252152  75.8260594  53.9805216
  35.5169030  75.7576002  53.6863977  36.3739748  76.3032539  54.8087042
  30.2468896  77.3018732  45.6188615  30.1268521  77.7475783  46.4574096
  29.5521485  77.6504050  45.0602154  23.8376301  79.4025124  53.1688272
  23.9668682  79.6559603  54.0827684  23.1573752  79.9952832  52.8492928
  28.0075788  90.0722374  49.2678747  27.9299818  91.0230199  49.3467227
  27.4037432  89.7268246  49.9253673  30.4993018  77.2450239  61.9240114
  29.7226352  77.8044159  61.9142978  31.1383581  77.7307022  62.4454984
  38.2913799  74.0277032  55.7583090  37.6488179  74.3209565  55.1122885
  37.7868727  73.9129952  56.5636287  35.9453962  77.7740205  46.4468949
  36.8571818  78.0067592  46.2716647  35.4363609  78.3577250  45.8844028
  28.7539390  80.0535693  61.4858081  29.4954075  80.5920737  61.2092904
  28.0476376  80.6801981  61.6429632  34.2294730  82.1964833  60.0830242
  34.6378086  81.7547244  59.3384874  33.5071992  81.6217461  60.3364435
  30.5825800  77.1337440  57.4563799  31.4286995  77.5576853  57.5998448
  30.5224438  76.4771064  58.1502362  34.5523545  82.7566024  53.8382531
  33.9232407  82.9211738  53.1358599  34.1649207  83.1707633  54.6093495
  38.4312777  83.6920462  51.1926895  37.7463815  84.0719363  50.6423928
  38.5156626  84.3015788  51.9258842  33.7325245  74.7941808  59.1144973
  33.4886177  75.5483869  58.5779248  34.0085176  75.1727156  59.9492220
  35.6863708  81.3380421  57.7922238  35.8980603  81.9812181  57.1156619
  35.6393456  80.5042737  57.3244168  33.2889937  73.9498241  54.6958810
  32.4274416  74.2479495  54.9875548  33.3152372  74.1668640  53.7639843
  30.1051507  82.4940432  51.1032616  30.5689852  82.7728135  50.3137239
  29.8408305  81.5923876  50.9205707  26.9975588  82.0411913  54.0412379
  27.5676945  82.4699182  53.4029864  27.5883699  81.7594498  54.7396565
  29.0420393  78.6163584  47.9122181  29.7444436  79.0684628  48.3796108
  28.7101021  77.9747403  48.5402074  27.4900754  77.2075341  62.2873391
  26.8599415  77.8891622  62.5208787  27.3836842  77.0958422  61.3426529
  22.7845727  76.8747137  53.2139315  21.9944781  77.1304665  52.7379425
  23.2756974  77.6895475  53.3191355  36.8009536  84.2152376  55.9644596
  37.6226980  83.8132563  55.6827277  36.7971939  84.1120610  56.9160711
  24.7360472  77.2391716  50.1722791  23.9391635  77.3510410  50.6906287
  24.5086064  77.5778368  49.3063682  30.5666140  83.7636419  58.1205306
  30.6310572  84.2256827  58.9563478  29.8577063  83.1333784  58.2487616
  21.0683430  77.1277627  55.6454306  21.3191468  78.0124637  55.9111881
  21.6042978  76.9482229  54.8729397  44.8915529  80.5591125  52.3129567
  44.1379238  79.9898523  52.1573571  45.0263070  80.5253789  53.2600202
  30.2814157  85.4304527  47.9884286  30.1459832  86.2756063  48.4169134
  30.8223970  85.6323804  47.2250220  26.7681497  71.5096107  64.6498642
  26.3748442  70.9562305  65.3246286  27.5847637  71.8206685  65.0405159
  23.7343555  82.9479965  48.5612211  24.2468075  83.7423215  48.7117776
  24.3866267  82.2506255  48.4945813  25.5438439  86.0645721  50.6434965
  25.7205068  86.9863686  50.4555949  26.3395273  85.7504140  51.0729344
  29.6849458  72.9253986  62.2418898  30.4259171  73.5261139  62.1623361
  29.9167381  72.1831624  61.6836941  24.8290796  78.1110353  60.5197128
  24.7144311  77.2095610  60.8204227  23.9735314  78.3574050  60.1681944
  31.9082634  86.0528093  62.1184628  31.4646488  85.2664472  61.8005533
  32.5699847  86.2407244  61.4528519  26.6669755  87.5823895  56.6445307
  27.2177180  87.4540958  55.8722301  25.8281231  87.8818784  56.2940200
  34.0063872  86.3330893  60.1466030  33.9882347  87.1539774  59.6546299
  34.9283792  86.2084969  60.3716171  30.4636926  83.8475023  60.9889538
  30.9965263  83.0863311  60.7588846  29.9351007  83.5548675  61.7313693
  33.6306621  68.9535089  56.5183180  33.2870890  69.8436730  56.4422290
  33.9985583  68.7636746  55.6552765  21.6992471  81.2768619  49.3371782
  22.5367693  81.6865628  49.1205490  21.8770739  80.3368061  49.3071976
  33.5956903  78.9443700  45.0255615  33.0803527  79.7148304  45.2644002
  33.3234212  78.2708836  45.6488676  31.1804015  73.7893401  50.0840853
  30.3245611  73.4000251  49.9046492  31.5930966  73.8685361  49.2240639
  32.7103161  71.3239744  54.4832413  32.2067957  71.2869879  53.6700218
  33.0033768  72.2332487  54.5429070  28.9546047  71.4078474  53.4898595
  29.8199044  71.2121282  53.1304484  29.0223556  71.1788825  54.4167952
  38.5691178  81.6976054  46.9608788  37.7920620  81.3587214  46.5163951
  39.2482659  81.7028678  46.2863753  33.3843207  76.8170792  46.8515396
  33.0793342  77.1316941  47.7025539  34.3373649  76.8952212  46.8942729
  31.8289639  82.9761015  48.5008350  31.3011000  82.2413775  48.1881588
  31.3277141  83.7535692  48.2548318  36.8082485  81.1710036  53.6175396
  36.1506159  81.8609297  53.7055525  37.6122884  81.5606468  53.9609383
  26.5608366  73.6380682  50.8614962  27.1352118  73.4155863  50.1288155
  27.1479349  73.7069376  51.6143563  35.6187943  79.5254408  51.6679338
  36.1319825  80.1584400  52.1701048  36.2689167  78.9255604  51.3022698
  26.8877953  75.6685143  44.8810847  26.0515265  76.0059829  45.2020122
  26.7482723  75.5334122  43.9437984  28.8631034  70.5121930  49.5890031
  28.2095446  70.1970948  48.9646646  28.8211508  69.8897671  50.3149854
  29.9742239  80.7941226  41.5043323  29.0669300  80.5630479  41.7034472
  30.4713271  79.9978845  41.6917305  32.8810318  89.5038733  44.4240009
  32.2072016  89.8070429  45.0324967  33.2676140  90.3067813  44.0745466
  32.0968774  77.0003864  53.9137679  31.1791336  77.2218811  53.7559367
  32.5128918  77.0750174  53.0549386  32.8803822  78.3995280  49.0440359
  33.6275641  78.9116677  48.7347481  33.1495411  78.0779332  49.9044753
  31.1530472  80.8953820  46.0267313  30.2441691  80.6112853  46.1239783
  31.1825556  81.3152899  45.1670620  36.3849740  84.5060410  49.7958481
  35.9312067  83.6651320  49.8523671  35.7543706  85.1421808  50.1333261
  35.3282659  75.4352396  51.0259148  34.5905416  74.9229782  51.3569391
  35.5809433  74.9952778  50.2142425  34.8282679  86.3436907  50.7308299
  35.1205653  86.9041964  50.0120665  35.3381299  86.6365468  51.4861458
  35.4294286  68.2128648  51.6200918  35.7353163  67.3526011  51.3326833
  36.1546891  68.8046268  51.4199911  21.7218643  78.6159335  50.0082515
  21.5243042  78.0228695  49.2833582  21.1665307  78.3111545  50.7258454
  29.7015366  78.5082441  52.1277109  29.7563976  77.5556277  52.0519585
  28.8906568  78.6641880  52.6118407  30.8506560  82.4362564  43.3655392
  30.4125990  81.7198423  42.9061029  31.5917001  82.6638679  42.8040483
  27.6407726  77.1259501  49.8867487  26.8275592  77.4253671  50.2932680
  28.1366720  76.7315190  50.6041970  29.7916304  87.1217258  51.8201752
  29.7492483  87.3478104  50.8910284  30.7079003  86.8880632  51.9687553
  33.2381938  77.5901325  58.7182381  33.5931325  77.8172798  59.5776847
  33.8854069  77.9219702  58.0959637  38.9679675  80.7119761  49.4231710
  38.8297573  80.9021357  48.4952900  38.6115894  81.4739144  49.8799762
  27.1321801  74.6977856  55.5028722  27.7721180  74.5566615  54.8051686
  26.2999331  74.4112370  55.1267324  38.9949054  82.7796288  54.4342982
  39.4285561  82.6871577  55.2826036  39.7080635  82.7553789  53.7962998
  27.9082105  83.9980287  51.6163715  28.7022703  83.5030607  51.4146290
  27.1973797  83.4698150  51.2531420  32.7276949  86.3798382  55.9676082
  32.7813972  86.9489319  56.7353798  31.8591731  86.5500267  55.6030120
  24.2164868  78.1423368  47.6923468  23.2862456  78.0807824  47.9093430
  24.3122340  77.6199321  46.8960109  24.1350417  74.6678181  50.2801709
  24.3957235  75.5823514  50.1710870  24.9567590  74.2002624  50.4298322
  25.6075343  76.0815938  57.4500534  26.2798396  75.8733301  56.8013183
  24.7805129  75.8838024  57.0105766  39.8564604  82.8219989  56.9675867
  40.0500494  83.7265799  57.2135142  39.7565222  82.3627408  57.8014452
  31.5100915  72.7077879  59.4666195  30.8628830  73.4067829  59.3730671
  32.2801930  73.1414023  59.8342443  34.9179713  82.9726732  62.5416748
  34.7665219  82.7437283  61.6246832  34.9084392  83.9297333  62.5548093
  31.6865049  80.5458644  57.5263014  32.6157109  80.6969804  57.3531982
  31.2656079  80.6342665  56.6711661  30.4853381  84.5709309  55.2961552
  30.3464466  84.2028093  56.1687490  29.6967977  85.0856948  55.1245510
  31.0801533  89.6718405  46.6387088  31.2553288  89.2006448  47.4532711
  30.3934321  90.2984171  46.8668349  32.0358596  83.9490911  52.6850390
  31.7008429  83.9091681  53.5808040  31.5362542  83.2835627  52.2120800
  26.0102840  79.3558541  58.2102971  25.8722638  78.6238780  58.8114510
  26.9207763  79.2667441  57.9287159  34.9717788  81.2946946  42.9587449
  34.3546958  80.5693774  42.8620502  34.5034276  82.0556306  42.6154524
  28.6385141  79.0678501  57.6986651  29.3484759  78.4271693  57.6573269
  28.5954449  79.3191396  58.6212831  36.6271919  86.0045854  60.6193230
  36.5684465  85.3205074  59.9523813  37.0291438  86.7464844  60.1673856
  27.3514074  76.0543719  59.5182290  26.8151432  75.6034457  60.1703886
  26.7630783  76.1889627  58.7752754  25.6462618  92.8207768  53.4126949
  25.8859216  93.4526292  54.0905967  24.8031814  92.4695808  53.6992308
  26.7616333  75.5132370  42.0808754  25.8845800  75.3921171  41.7171000
  27.2374087  74.7218448  41.8287642  36.6289326  83.9685438  58.8507209
  35.7416105  83.6311360  58.9733608  37.1987878  83.2368469  59.0875975
  18.2818474  80.3009530  52.1750261  18.9689513  79.9871260  51.5871276
  18.1266602  81.2050894  51.9017512  23.0853196  75.1899726  56.6035285
  23.0011384  74.5825396  55.8685694  22.2635902  75.6808745  56.6044781
  30.1590480  88.6286890  55.8168453  30.0860651  89.4341862  56.3287757
  29.7167873  88.8278856  54.9916474  29.9480259  87.8658660  49.3271274
  29.1647781  88.4080341  49.4209499  30.6473005  88.3832640  49.7265515
  33.2576910  73.6753290  51.9705480  33.7545609  72.9223252  51.6506550
  32.4863891  73.7117606  51.4048689  41.1106667  79.3793655  53.6123771
  41.0996543  80.2618371  53.2417704  40.2424046  79.0265206  53.4178308
  32.6189163  88.5273724  57.9726611  33.3317136  89.1621189  57.9002513
  32.1279192  88.6237590  57.1566613  34.3406690  82.4324977  49.5443903
  33.4062969  82.5526440  49.3748607  34.5183359  81.5297444  49.2803913
  29.8411878  75.8170673  51.6977164  29.4709666  75.2641713  52.3858070
  30.3370971  75.2128806  51.1452164  37.7279242  78.2742296  50.0793937
  38.1939694  79.1070288  50.0054240  38.1786742  77.8087278  50.7839196
  27.6701077  86.2768168  58.7932182  28.3710536  86.9104651  58.9461576
  27.1996192  86.6182899  58.0327821  35.7955473  84.6186118  47.0780089
  36.0715317  84.5042712  47.9873963  34.9259971  84.2203602  47.0392262
  35.6995904  70.6422883  54.1184838  34.7858984  70.8727110  54.2867045
  36.1289006  70.7261327  54.9698871  35.4702363  78.8312775  56.6184732
  34.8173813  79.0788683  55.9637185  35.8482743  78.0176913  56.2847210
  32.4309537  88.8672468  50.7212903  32.6131931  88.0494124  51.1840655
  33.2542523  89.0840161  50.2837793  32.7651702  87.7940654  47.9827951
  33.2939469  87.2833108  47.3698113  33.0279922  87.4783184  48.8473484
  31.5189936  79.5732586  63.1050770  30.8430573  79.4726716  63.7753145
  32.3417570  79.4171800  63.5686767  23.2668795  85.8104523  55.7263285
  23.8522232  85.0648211  55.8591189  23.0693633  86.1208480  56.6099949
  26.1207450  88.8455770  50.7425727  25.4517825  89.3301898  50.2589767
  25.9820320  89.0924991  51.6569106  17.8586450  78.3810123  54.4467728
  17.8970549  77.8473714  55.2404846  17.3526743  77.8545329  53.8278705
  30.2612719  90.8799514  57.3408386  30.8131027  91.0431135  58.1057471
  30.6018912  91.4703952  56.6688410  25.2377212  73.2274664  57.9430270
  25.3018539  74.0889494  57.5307668  25.1744332  72.6148665  57.2102629
  24.7129485  75.2997796  61.5903305  25.3401523  74.9174873  62.2040829
  23.8557403  75.0811998  61.9558997  35.1123593  85.7060771  63.1957040
  35.6563497  86.3190730  62.7011995  34.5310438  86.2640350  63.7124053
  21.4895027  77.1074225  47.5221659  21.7848468  76.1984904  47.4688713
  20.5883063  77.0861965  47.2002662  33.3981106  88.8281489  54.3272068
  33.2732246  88.0271229  53.8183013  34.0560197  89.3227683  53.8386038
  25.0189274  75.1830222  53.5049208  24.2975860  75.7966190  53.3656681
  25.8082530  75.7187987  53.4265854  35.4616014  86.6290509  55.9551618
  34.5146350  86.5095861  55.8829945  35.8098788  85.7413007  56.0377879
  27.8215588  72.5184648  59.7789860  28.3449990  72.7646945  60.5416169
  27.6027921  73.3504683  59.3592997  23.2182869  74.7888323  47.6460984
  22.8895575  73.9085702  47.4636090  23.5722240  74.7335992  48.5337374
  32.4662448  86.4243226  52.1555970  32.3187410  85.4959933  52.3363540
  33.2915941  86.4463316  51.6713045  26.3324692  75.0761293  48.0136462
  26.6720765  75.6047214  47.2915071  26.7796813  75.4141699  48.7895029
  36.0696570  87.2471784  53.2420843  36.9943117  87.0414646  53.1045294
  35.9011873  86.9988186  54.1510184  29.0268133  73.4598343  57.4639530
  28.6864953  72.6606156  57.8660210  28.3207139  73.7600054  56.8916363
  29.6784605  70.5447656  55.9166853  30.5010674  70.0708134  55.7945744
  29.9222668  71.3238140  56.4165540  28.3192839  73.5735914  46.2129755
  29.0401202  73.9517167  45.7093472  27.6958143  74.2924791  46.3164733
  32.4623962  74.2781063  47.1488087  32.6787576  75.1605701  46.8476915
  31.9818029  73.8867277  46.4193729  27.2023183  77.2366776  53.7258832
  27.0567764  77.5507080  54.6183113  26.7248387  77.8551677  53.1729731
  29.0619566  74.2269324  53.7739721  29.0481135  73.3310418  53.4372019
  29.7791994  74.2339988  54.4078007  30.9145697  74.6606665  55.8192849
  30.6563475  75.5823735  55.8177179  30.3830737  74.2637099  56.5093313
  35.8591886  87.7657452  48.5982934  36.0328763  87.2003874  47.8456787
  36.3520777  88.5658347  48.4162424  21.6768846  79.7772121  56.6646493
  21.1322314  80.5531929  56.7966767  22.5548195  80.1242925  56.5065614
  28.4656462  73.1083705  49.0427292  28.5872373  72.1800351  49.2418179
  28.1758505  73.1222391  48.1305607  31.3347653  70.7938615  52.1794011
  31.3569349  70.8577948  51.2245991  31.7515712  69.9543124  52.3734518
  41.7131277  80.5293875  50.2173234  42.1562423  79.7801200  49.8192357
  40.8357787  80.5204011  49.8346966  36.8467058  87.0824216  45.6979833
  37.5417963  87.7030909  45.9167147  37.1890208  86.2319567  45.9732210
  22.4634867  78.9042017  59.5576650  21.7216604  79.0524653  60.1441280
  22.1427612  79.1650283  58.6943399  38.7458481  84.5323922  47.2267163
  39.2709805  84.8711194  46.5016483  38.6580834  83.5970937  47.0430298
  30.4078530  88.4457995  59.3557040  30.7165657  88.2007142  60.2279740
  31.2054012  88.6504634  58.8675910  30.4299142  90.5995905  51.5862416
  29.9904132  90.1072284  52.2795273  31.1807259  90.0568873  51.3454492
  22.9091481  86.7907446  51.5887045  23.7349501  86.4911218  51.2085688
  22.5585533  86.0215068  52.0376833  27.8773014  86.1433914  53.6584718
  27.2553024  85.4804619  53.3586946  28.5477881  86.1695046  52.9758366
  21.1100086  84.7093772  52.5475978  20.2731994  84.2815947  52.3659979
  21.0823732  84.9026216  53.4846769  27.9497542  74.6215702  63.2517224
  27.9985697  75.4977825  62.8694994  28.4920056  74.0793095  62.6788867
  38.4352387  85.1656825  62.5318361  37.6447931  85.1480964  61.9922861
  38.1985742  85.7045119  63.2867398  38.5550263  82.0149292  59.8451090
  38.6048267  81.8499299  60.7866613  38.4464186  81.1476551  59.4548971
  27.4386521  84.6937837  47.1343179  27.5874642  85.3773302  46.4809851
  28.2452965  84.6742927  47.6492634  35.8454025  77.9980220  61.1610396
  36.7463888  77.8586685  60.8694394  35.9201999  78.1634675  62.1008574
  30.1796830  75.3747075  60.0063583  29.3100140  75.6680641  59.7346171
  30.4156311  75.9587520  60.7270846  40.0568459  84.4346233  60.0893111
  39.7653268  84.7976214  60.9256572  39.4440591  83.7213242  59.9106443
  41.2564142  81.9999113  52.6095682  42.0911033  82.4388917  52.7733242
  41.3923270  81.5237766  51.7903927  38.3055648  79.5578848  58.5573169
  38.7809769  79.7506494  57.7492021  37.3821213  79.6138034  58.3116553
  25.1939154  80.7203015  48.1404248  24.9485196  79.8165345  48.3384458
  25.3635069  80.7220166  47.1983726  32.8835864  71.5926691  57.5229003
  33.4017808  72.3287718  57.1975492  32.5290997  71.8990685  58.3575762
  24.4634802  76.4531373  45.6390409  23.7704047  76.5275728  44.9830445
  24.2186554  75.6891716  46.1611926  33.1348458  68.0126974  53.0429900
  33.4150212  67.3450163  53.6690326  33.9199065  68.2056070  52.5304564
  30.9381927  87.1885968  44.6054926  30.3655894  87.8076155  44.1525398
  31.5114720  87.7385330  45.1394848  37.0057317  76.4344608  56.7901475
  37.9574739  76.5342706  56.8113699  36.8360767  75.6422877  57.2999559
  35.0271696  73.5200191  56.9760876  34.4321628  73.8005204  56.2807364
  34.7421393  74.0094092  57.7477617  34.1579187  87.4723118  45.7363508
  35.0909860  87.4068680  45.9396384  34.0702399  88.3079385  45.2778041
  36.7867203  86.7888988  42.6967456  36.7080835  86.4548852  43.5903214
  37.6076870  87.2810756  42.6958928  39.4845394  79.6550728  55.9043775
  39.4521714  78.7166728  56.0903458  40.0946018  79.7334764  55.1709599
  31.3228725  78.5246781  41.9470979  32.2687830  78.3952989  42.0159397
  30.9442970  77.7861443  42.4240407  39.6339883  76.4461771  55.9502058
  39.1178932  75.6620228  55.7631987  40.5179831  76.1180488  56.1148577
  37.2950610  70.1902787  51.9097870  37.0975431  69.8817875  52.7941202
  37.9050315  70.9164426  52.0395800  45.3021944  80.7166735  55.0449811
  46.0325333  80.4552023  55.6057515  44.6928890  79.9795456  55.0851879
  43.3837241  78.8574597  55.6424263  42.6570405  78.7230562  55.0340754
  42.9684528  79.1651426  56.4480981  31.2067418  82.5764527  63.4071636
  32.1270427  82.7543126  63.6011682  31.1717001  81.6320572  63.2551335
  29.5071642  76.4496757  41.8825864  28.6003098  76.1529870  41.9588577
  29.7847623  76.1526575  41.0160150  20.4249583  77.7703120  52.3324910
  20.1052367  76.9168429  52.0399284  19.8783011  77.9851699  53.0882878
  24.2029490  80.4865561  56.0494417  24.4215500  81.4182669  56.0682451
  24.6155264  80.1273536  56.8349221  31.1233708  70.9933647  48.0370105
  30.3134436  70.6480732  48.4125351  31.8118125  70.6841190  48.6257717
  33.0524256  70.0711694  49.6594402  33.6055295  70.4907147  50.3184425
  33.2894343  69.1447442  49.7017358  29.0757356  76.0598767  65.4397166
  28.9754083  77.0093124  65.3709257  28.8578898  75.7317006  64.5673236
  28.2770427  73.3083692  42.0237843  29.1389591  73.6338591  42.2833660
  28.4620771  72.5215188  41.5110909  20.2937843  81.3906032  54.3018032
  19.6001314  80.9759985  53.7887986  21.0410834  81.4326568  53.7051451
  36.4303063  72.1812219  49.1673066  35.8501733  72.8397023  48.7851118
  36.1638996  71.3589563  48.7560484  34.8806630  71.5817276  51.3694386
  35.3806408  71.6933811  50.5608705  35.5242238  71.2778329  52.0095195
  28.9388626  79.4895906  64.2562227  28.4555707  80.2896266  64.4626116
  29.0249565  79.5003851  63.3029671  22.2074585  81.3224286  52.1784047
  22.1845273  81.4211973  51.2265930  22.5175222  82.1689437  52.5001213
  24.8661963  83.3800441  56.2930661  25.8205217  83.3484383  56.2260593
  24.6674487  82.9191064  57.1080887  25.4561345  81.9501557  58.8601459
  26.2754234  82.4445635  58.8836296  25.7298153  81.0333525  58.8319026
  35.2127942  74.3412309  48.2229414  34.3253797  74.6261960  48.0049609
  35.6281931  74.1806072  47.3756691  38.5642478  74.3658830  51.9383754
  39.3402868  74.8555283  52.2108370  37.8390612  74.7916884  52.3955623
  41.0015036  75.0786449  52.9957694  41.5959527  74.8382185  52.2851002
  41.0741620  74.3593580  53.6231230  23.2212192  88.9220060  53.3100859
  23.0866660  88.1620461  52.7438857  22.8044254  89.6460960  52.8429648
  34.3571155  84.1056984  42.3177434  35.0607005  84.3106986  42.9335090
  33.6333804  84.6733746  42.5826518  35.1868965  79.8566845  48.4379704
  35.1304167  80.3135396  47.5987337  35.7397308  79.0957530  48.2602547
  38.9973771  75.6456577  49.2629824  38.7410705  75.2453213  50.0938032
  38.3726639  76.3600371  49.1379963  43.3086109  78.3852650  51.7701115
  42.7485667  78.4545839  52.5432677  42.7029612  78.2093635  51.0500612
  26.3781318  89.8189377  53.5219302  26.2613702  90.7634810  53.4197992
  25.5573764  89.5162939  53.9105101  36.2657852  84.5439513  44.3675894
  37.1003456  84.1120711  44.1853369  36.1042195  84.3721527  45.2952789
  35.9203745  81.0471626  45.7332234  35.8652548  80.8815898  44.7920678
  35.2949800  81.7547659  45.8894423  20.7096260  76.2839691  59.5593656
  21.3555123  75.7738645  60.0480881  20.5013411  77.0208372  60.1337081
  33.2349652  83.3520538  65.0585796  34.1040811  83.5261190  64.6972431
  32.7556403  84.1714955  64.9361526  29.2299870  70.5479735  45.3117552
  29.2178540  71.4921575  45.4685823  30.1223292  70.3649881  45.0177013
  27.4035832  90.4717639  56.7375230  28.3063079  90.5041249  57.0541725
  27.1773202  89.5418090  56.7521566  29.1589434  89.2248626  53.3985309
  28.2085065  89.2250487  53.2849681  29.4621920  88.4781360  52.8821343
  33.0451989  67.1422512  49.5663489  32.2784385  66.5880999  49.7120171
  33.4562694  67.2144381  50.4277640  25.0493751  73.4307308  63.6568670
  25.9125212  73.0744113  63.8671995  24.4759161  73.0921203  64.3444074
  44.8942127  95.0609164  54.4631071  45.5320537  94.9415911  53.7594411
  44.7762970  96.0090008  54.5219023  41.7031834  95.0136592  54.3992596
  41.3650345  94.8977657  53.5113131  42.5721602  94.6127757  54.3793602
  37.5618649  96.8672069  50.3889487  36.9983515  96.7762006  49.6205774
  37.4471044  96.0471973  50.8691979  42.1851617  96.1671444  60.3578801
  42.1740258  95.7724242  59.4859305  42.3472256  95.4337517  60.9512573
  35.1083081  98.3623260  53.2273707  35.9004373  98.0214085  52.8120006
  35.3479732  98.4718235  54.1475860  43.1418208 100.5343036  45.7003952
  42.4906188 101.1197117  45.3137965  43.9362571 101.0649231  45.7598989
  37.0673835  97.6232173  46.0991086  37.8404711  97.0761161  45.9603962
  37.4199234  98.4876423  46.3105547  38.9058878  98.9508556  59.3057985
  38.6148744  99.8554187  59.1904652  39.5415862  98.9925083  60.0202055
  39.8315085  96.3285404  55.8959345  40.4278657  96.1041427  55.1816308
  39.8890056  95.5870150  56.4984793  39.4040113  93.7824840  43.7309536
  39.6565634  93.2606361  42.9692999  38.4664672  93.6190985  43.8336219
  44.4483396  92.7860618  51.5384279  45.2346485  92.3680041  51.1874696
  44.7122100  93.6906710  51.7065927  44.6193473  98.2233468  46.2372936
  43.9839306  98.2968095  46.9493841  44.2890880  98.8127067  45.5592015
  49.8491823  92.7235851  52.4417258  50.5816995  92.1535068  52.6755087
  49.0931179  92.3357452  52.8823763  39.1236402  95.6852946  45.9333911
  39.0072660  95.0097849  46.6014995  39.2338662  95.1985319  45.1166064
  41.4667943  95.1463093  49.6380600  41.1026150  94.6193714  50.3493522
  42.3235059  94.7561562  49.4647085  47.3717243  86.4357425  56.9011866
  47.0400568  87.3052836  56.6773081  46.7762857  86.1193709  57.5805897
  41.1073430  90.1752992  44.6341949  41.2747832  91.0433229  45.0012420
  40.9170599  90.3380274  43.7103238  43.8648763  98.6369971  56.3007779
  43.5649486  99.5395010  56.1923586  43.5199822  98.3702154  57.1528932
  37.3161244  95.0883768  52.3344483  36.3911741  94.9559982  52.5422175
  37.5645658  95.8677987  52.8314426  47.2645907  91.1552511  53.9805216
  46.3562784  91.0867920  53.6863977  47.2133503  91.6324456  54.8087042
  41.0862651  92.6310650  45.6188615  40.9662276  93.0767701  46.4574096
  40.3915239  92.9795967  45.0602154  34.6770055  94.7317042  53.1688272
  34.8062437  94.9851521  54.0827684  33.9967507  95.3244750  52.8492928
  38.8469543 105.4014292  49.2678747  38.7693572 106.3522117  49.3467227
  38.2431186 105.0560164  49.9253673  41.3386773  92.5742157  61.9240114
  40.5620107  93.1336077  61.9142978  41.9777336  93.0598940  62.4454984
  49.1307553  89.3568950  55.7583090  48.4881933  89.6501483  55.1122885
  48.6262482  89.2421870  56.5636287  46.7847717  93.1032123  46.4468949
  47.6965573  93.3359510  46.2716647  46.2757364  93.6869167  45.8844028
  39.5933145  95.3827610  61.4858081  40.3347829  95.9212654  61.2092904
  38.8870130  96.0093899  61.6429632  45.0688484  97.5256751  60.0830242
  45.4771841  97.0839161  59.3384874  44.3465746  96.9509378  60.3364435
  41.4219555  92.4629358  57.4563799  42.2680750  92.8868771  57.5998448
  41.3618192  91.8062982  58.1502362  45.3917299  98.0857941  53.8382531
  44.7626162  98.2503656  53.1358599  45.0042961  98.4999551  54.6093495
  49.2706531  99.0212379  51.1926895  48.5857569  99.4011281  50.6423928
  49.3550380  99.6307706  51.9258842  44.5719000  90.1233726  59.1144973
  44.3279932  90.8775786  58.5779248  44.8478930  90.5019074  59.9492220
  46.5257463  96.6672338  57.7922238  46.7374358  97.3104098  57.1156619
  46.4787211  95.8334655  57.3244168  44.1283692  89.2790159  54.6958810
  43.2668171  89.5771413  54.9875548  44.1546126  89.4960558  53.7639843
  40.9445261  97.8232350  51.1032616  41.4083607  98.1020053  50.3137239
  40.6802059  96.9215794  50.9205707  37.8369342  97.3703831  54.0412379
  38.4070699  97.7991099  53.4029864  38.4277454  97.0886416  54.7396565
  39.8814147  93.9455502  47.9122181  40.5838190  94.3976546  48.3796108
  39.5494776  93.3039321  48.5402074  38.3294509  92.5367259  62.2873391
  37.6993169  93.2183539  62.5208787  38.2230596  92.4250340  61.3426529
  33.6239481  92.2039055  53.2139315  32.8338535  92.4596583  52.7379425
  34.1150728  93.0187392  53.3191355  47.6403291  99.5444294  55.9644596
  48.4620734  99.1424481  55.6827277  47.6365693  99.4412528  56.9160711
  35.5754226  92.5683634  50.1722791  34.7785390  92.6802328  50.6906287
  35.3479819  92.9070286  49.3063682  41.4059894  99.0928337  58.1205306
  41.4704327  99.5548744  58.9563478  40.6970818  98.4625702  58.2487616
  31.9077184  92.4569545  55.6454306  32.1585222  93.3416555  55.9111881
  32.4436732  92.2774147  54.8729397  55.7309284  95.8883042  52.3129567
  54.9772992  95.3190440  52.1573571  55.8656825  95.8545707  53.2600202
  41.1207912 100.7596445  47.9884286  40.9853586 101.6047980  48.4169134
  41.6617724 100.9615722  47.2250220  37.6075251  86.8388024  64.6498642
  37.2142197  86.2854223  65.3246286  38.4241392  87.1498603  65.0405159
  34.5737309  98.2771883  48.5612211  35.0861830  99.0715133  48.7117776
  35.2260022  97.5798173  48.4945813  36.3832194 101.3937639  50.6434965
  36.5598822 102.3155604  50.4555949  37.1789027 101.0796058  51.0729344
  40.5243212  88.2545903  62.2418898  41.2652926  88.8553057  62.1623361
  40.7561135  87.5123541  61.6836941  35.6684550  93.4402271  60.5197128
  35.5538065  92.5387528  60.8204227  34.8129068  93.6865967  60.1681944
  42.7476388 101.3820011  62.1184628  42.3040242 100.5956390  61.8005533
  43.4093602 101.5699162  61.4528519  37.5063509 102.9115813  56.6445307
  38.0570934 102.7832876  55.8722301  36.6674985 103.2110702  56.2940200
  44.8457626 101.6622811  60.1466030  44.8276101 102.4831692  59.6546299
  45.7677546 101.5376886  60.3716171  41.3030680  99.1766940  60.9889538
  41.8359017  98.4155229  60.7588846  40.7744761  98.8840592  61.7313693
  44.4700375  84.2827006  56.5183180  44.1264645  85.1728648  56.4422290
  44.8379338  84.0928664  55.6552765  32.5386226  96.6060537  49.3371782
  33.3761448  97.0157545  49.1205490  32.7164494  95.6659979  49.3071976
  44.4350658  94.2735618  45.0255615  43.9197281  95.0440222  45.2644002
  44.1627966  93.6000754  45.6488676  42.0197769  89.1185318  50.0840853
  41.1639365  88.7292169  49.9046492  42.4324721  89.1977279  49.2240639
  43.5496916  86.6531662  54.4832413  43.0461711  86.6161797  53.6700218
  43.8427523  87.5624404  54.5429070  39.7939802  86.7370391  53.4898595
  40.6592798  86.5413200  53.1304484  39.8617310  86.5080743  54.4167952
  49.4084932  97.0267972  46.9608788  48.6314375  96.6879132  46.5163951
  50.0876413  97.0320595  46.2863753  44.2236961  92.1462710  46.8515396
  43.9187097  92.4608859  47.7025539  45.1767403  92.2244130  46.8942729
  42.6683393  98.3052933  48.5008350  42.1404755  97.5705693  48.1881588
  42.1670896  99.0827609  48.2548318  47.6476239  96.5001953  53.6175396
  46.9899913  97.1901215  53.7055525  48.4516638  96.8898385  53.9609383
  37.4002121  88.9672599  50.8614962  37.9745873  88.7447781  50.1288155
  37.9873103  89.0361294  51.6143563  46.4581698  94.8546326  51.6679338
  46.9713580  95.4876318  52.1701048  47.1082922  94.2547522  51.3022698
  37.7271708  90.9977060  44.8810847  36.8909020  91.3351747  45.2020122
  37.5876477  90.8626040  43.9437984  39.7024788  85.8413848  49.5890031
  39.0489201  85.5262865  48.9646646  39.6605262  85.2189589  50.3149854
  40.8135993  96.1233143  41.5043323  39.9063055  95.8922397  41.7034472
  41.3107025  95.3270762  41.6917305  43.7204072 104.8330650  44.4240009
  43.0465771 105.1362347  45.0324967  44.1069894 105.6359731  44.0745466
  42.9362529  92.3295782  53.9137679  42.0185090  92.5510729  53.7559367
  43.3522672  92.4042092  53.0549386  43.7197576  93.7287197  49.0440359
  44.4669395  94.2408595  48.7347481  43.9889166  93.4071250  49.9044753
  41.9924227  96.2245738  46.0267313  41.0835446  95.9404771  46.1239783
  42.0219310  96.6444817  45.1670620  47.2243494  99.8352328  49.7958481
  46.7705821  98.9943237  49.8523671  46.5937461 100.4713726  50.1333261
  46.1676414  90.7644314  51.0259148  45.4299170  90.2521700  51.3569391
  46.4203187  90.3244695  50.2142425  45.6676433 101.6728824  50.7308299
  45.9599408 102.2333881  50.0120665  46.1775054 101.9657385  51.4861458
  46.2688041  83.5420566  51.6200918  46.5746918  82.6817929  51.3326833
  46.9940646  84.1338186  51.4199911  32.5612397  93.9451252  50.0082515
  32.3636797  93.3520613  49.2833582  32.0059061  93.6403462  50.7258454
  40.5409121  93.8374359  52.1277109  40.5957730  92.8848195  52.0519585
  39.7300323  93.9933798  52.6118407  41.6900314  97.7654482  43.3655392
  41.2519744  97.0490341  42.9061029  42.4310755  97.9930597  42.8040483
  38.4801481  92.4551418  49.8867487  37.6669346  92.7545589  50.2932680
  38.9760475  92.0607107  50.6041970  40.6310058 102.4509175  51.8201752
  40.5886237 102.6770022  50.8910284  41.5472757 102.2172550  51.9687553
  44.0775692  92.9193243  58.7182381  44.4325080  93.1464716  59.5776847
  44.7247823  93.2511620  58.0959637  49.8073429  96.0411679  49.4231710
  49.6691328  96.2313275  48.4952900  49.4509648  96.8031062  49.8799762
  37.9715555  90.0269774  55.5028722  38.6114935  89.8858533  54.8051686
  37.1393086  89.7404287  55.1267324  49.8342809  98.1088206  54.4342982
  50.2679315  98.0163495  55.2826036  50.5474390  98.0845706  53.7962998
  38.7475859  99.3272204  51.6163715  39.5416458  98.8322524  51.4146290
  38.0367552  98.7990067  51.2531420  43.5670704 101.7090300  55.9676082
  43.6207726 102.2781236  56.7353798  42.6985485 101.8792185  55.6030120
  35.0558623  93.4715286  47.6923468  34.1256211  93.4099742  47.9093430
  35.1516095  92.9491239  46.8960109  34.9744172  89.9970099  50.2801709
  35.2350989  90.9115432  50.1710870  35.7961344  89.5294541  50.4298322
  36.4469097  91.4107856  57.4500534  37.1192151  91.2025218  56.8013183
  35.6198884  91.2129942  57.0105766  50.6958358  98.1511906  56.9675867
  50.8894248  99.0557717  57.2135142  50.5958977  97.6919326  57.8014452
  42.3494669  88.0369797  59.4666195  41.7022584  88.7359747  59.3730671
  43.1195685  88.4705941  59.8342443  45.7573467  98.3018649  62.5416748
  45.6058973  98.0729201  61.6246832  45.7478147  99.2589251  62.5548093
  42.5258803  95.8750562  57.5263014  43.4550863  96.0261722  57.3531982
  42.1049833  95.9634583  56.6711661  41.3247135  99.9001226  55.2961552
  41.1858221  99.5320011  56.1687490  40.5361731 100.4148866  55.1245510
  41.9195287 105.0010323  46.6387088  42.0947043 104.5298366  47.4532711
  41.2328075 105.6276089  46.8668349  42.8752350  99.2782829  52.6850390
  42.5402183  99.2383599  53.5808040  42.3756296  98.6127545  52.2120800
  36.8496594  94.6850459  58.2102971  36.7116392  93.9530698  58.8114510
  37.7601518  94.5959359  57.9287159  45.8111542  96.6238863  42.9587449
  45.1940713  95.8985692  42.8620502  45.3428030  97.3848224  42.6154524
  39.4778895  94.3970418  57.6986651  40.1878514  93.7563611  57.6573269
  39.4348203  94.6483313  58.6212831  47.4665674 101.3337772  60.6193230
  47.4078220 100.6496992  59.9523813  47.8685192 102.0756762  60.1673856
  38.1907829  91.3835636  59.5182290  37.6545186  90.9326375  60.1703886
  37.6024537  91.5181545  58.7752754  36.4856372 108.1499686  53.4126949
  36.7252971 108.7818210  54.0905967  35.6425569 107.7987726  53.6992308
  37.6010088  90.8424288  42.0808754  36.7239554  90.7213088  41.7171000
  38.0767841  90.0510366  41.8287642  47.4683081  99.2977356  58.8507209
  46.5809860  98.9603277  58.9733608  48.0381632  98.5660387  59.0875975
  29.1212228  95.6301447  52.1750261  29.8083268  95.3163177  51.5871276
  28.9660357  96.5342812  51.9017512  33.9246950  90.5191644  56.6035285
  33.8405139  89.9117314  55.8685694  33.1029657  91.0100662  56.6044781
  40.9984234 103.9578808  55.8168453  40.9254406 104.7633780  56.3287757
  40.5561627 104.1570774  54.9916474  40.7874014 103.1950578  49.3271274
  40.0041536 103.7372258  49.4209499  41.4866759 103.7124558  49.7265515
  44.0970664  89.0045208  51.9705480  44.5939364  88.2515170  51.6506550
  43.3257646  89.0409524  51.4048689  51.9500421  94.7085573  53.6123771
  51.9390298  95.5910288  53.2417704  51.0817801  94.3557124  53.4178308
  43.4582918 103.8565642  57.9726611  44.1710890 104.4913107  57.9002513
  42.9672947 103.9529508  57.1566613  45.1800445  97.7616895  49.5443903
  44.2456724  97.8818357  49.3748607  45.3577113  96.8589361  49.2803913
  40.6805633  91.1462590  51.6977164  40.3103420  90.5933631  52.3858070
  41.1764725  90.5420724  51.1452164  48.5672996  93.6034214  50.0793937
  49.0333448  94.4362206  50.0054240  49.0180497  93.1379196  50.7839196
  38.5094831 101.6060086  58.7932182  39.2104291 102.2396568  58.9461576
  38.0389946 101.9474817  58.0327821  46.6349227  99.9478035  47.0780089
  46.9109071  99.8334630  47.9873963  45.7653726  99.5495520  47.0392262
  46.5389659  85.9714801  54.1184838  45.6252739  86.2019028  54.2867045
  46.9682760  86.0553245  54.9698871  46.3096117  94.1604693  56.6184732
  45.6567568  94.4080600  55.9637185  46.6876497  93.3468831  56.2847210
  43.2703291 104.1964386  50.7212903  43.4525686 103.3786042  51.1840655
  44.0936277 104.4132078  50.2837793  43.6045457 103.1232571  47.9827951
  44.1333223 102.6125026  47.3698113  43.8673676 102.8075101  48.8473484
  42.3583690  94.9024504  63.1050770  41.6824327  94.8018633  63.7753145
  43.1811324  94.7463718  63.5686767  34.1062549 101.1396441  55.7263285
  34.6915986 100.3940128  55.8591189  33.9087388 101.4500397  56.6099949
  36.9601205 104.1747688  50.7425727  36.2911580 104.6593816  50.2589767
  36.8214074 104.4216908  51.6569106  28.6980204  93.7102041  54.4467728
  28.7364304  93.1765631  55.2404846  28.1920497  93.1837246  53.8278705
  41.1006473 106.2091431  57.3408386  41.6524781 106.3723053  58.1057471
  41.4412667 106.7995869  56.6688410  36.0770967  88.5566581  57.9430270
  36.1412293  89.4181412  57.5307668  36.0138087  87.9440583  57.2102629
  35.5523239  90.6289714  61.5903305  36.1795278  90.2466791  62.2040829
  34.6951158  90.4103916  61.9558997  45.9517348 101.0352689  63.1957040
  46.4957252 101.6482647  62.7011995  45.3704192 101.5932267  63.7124053
  32.3288782  92.4366143  47.5221659  32.6242223  91.5276821  47.4688713
  31.4276818  92.4153882  47.2002662  44.2374861 104.1573407  54.3272068
  44.1126000 103.3563147  53.8183013  44.8953952 104.6519600  53.8386038
  35.8583029  90.5122139  53.5049208  35.1369615  91.1258107  53.3656681
  36.6476285  91.0479904  53.4265854  46.3009769 101.9582427  55.9551618
  45.3540104 101.8387778  55.8829945  46.6492542 101.0704925  56.0377879
  38.6609342  87.8476566  59.7789860  39.1843744  88.0938863  60.5416169
  38.4421676  88.6796601  59.3592997  34.0576623  90.1180241  47.6460984
  33.7289330  89.2377619  47.4636090  34.4115994  90.0627909  48.5337374
  43.3056202 101.7535143  52.1555970  43.1581165 100.8251851  52.3363540
  44.1309696 101.7755234  51.6713045  37.1718447  90.4053210  48.0136462
  37.5114519  90.9339132  47.2915071  37.6190567  90.7433616  48.7895029
  46.9090324 102.5763702  53.2420843  47.8336872 102.3706563  53.1045294
  46.7405627 102.3280103  54.1510184  39.8661887  88.7890261  57.4639530
  39.5258708  87.9898074  57.8660210  39.1600894  89.0891972  56.8916363
  40.5178359  85.8739574  55.9166853  41.3404428  85.4000052  55.7945744
  40.7616423  86.6530057  56.4165540  39.1586594  88.9027832  46.2129755
  39.8794956  89.2809085  45.7093472  38.5351898  89.6216709  46.3164733
  43.3017717  89.6072981  47.1488087  43.5181331  90.4897619  46.8476915
  42.8211784  89.2159194  46.4193729  38.0416938  92.5658694  53.7258832
  37.8961519  92.8798997  54.6183113  37.5642142  93.1843594  53.1729731
  39.9013321  89.5561242  53.7739721  39.8874890  88.6602335  53.4372019
  40.6185749  89.5631906  54.4078007  41.7539452  89.9898582  55.8192849
  41.4957229  90.9115653  55.8177179  41.2224492  89.5929017  56.5093313
  46.6985640 103.0949369  48.5982934  46.8722518 102.5295792  47.8456787
  47.1914532 103.8950264  48.4162424  32.5162600  95.1064039  56.6646493
  31.9716068  95.8823847  56.7966767  33.3941950  95.4534843  56.5065614
  39.3050217  88.4375622  49.0427292  39.4266128  87.5092269  49.2418179
  39.0152259  88.4514308  48.1305607  42.1741407  86.1230533  52.1794011
  42.1963104  86.1869866  51.2245991  42.5909466  85.2835042  52.3734518
  52.5525031  95.8585792  50.2173234  52.9956177  95.1093118  49.8192357
  51.6751542  95.8495929  49.8346966  47.6860813 102.4116134  45.6979833
  48.3811717 103.0322827  45.9167147  48.0283963 101.5611485  45.9732210
  33.3028622  94.2333935  59.5576650  32.5610358  94.3816570  60.1441280
  32.9821366  94.4942200  58.6943399  49.5852236  99.8615839  47.2267163
  50.1103560 100.2003112  46.5016483  49.4974588  98.9262855  47.0430298
  41.2472285 103.7749913  59.3557040  41.5559411 103.5299060  60.2279740
  42.0447767 103.9796552  58.8675910  41.2692897 105.9287823  51.5862416
  40.8297887 105.4364201  52.2795273  42.0201014 105.3860790  51.3454492
  33.7485236 102.1199364  51.5887045  34.5743256 101.8203135  51.2085688
  33.3979288 101.3506986  52.0376833  38.7166769 101.4725832  53.6584718
  38.0946778 100.8096537  53.3586946  39.3871636 101.4986964  52.9758366
  31.9493841 100.0385690  52.5475978  31.1125749  99.6107864  52.3659979
  31.9217486 100.2318133  53.4846769  38.7891296  89.9507620  63.2517224
  38.8379452  90.8269743  62.8694994  39.3313810  89.4085013  62.6788867
  49.2746142 100.4948743  62.5318361  48.4841686 100.4772882  61.9922861
  49.0379497 101.0337037  63.2867398  49.3944017  97.3441209  59.8451090
  49.4442022  97.1791217  60.7866613  49.2857940  96.4768468  59.4548971
  38.2780276 100.0229755  47.1343179  38.4268396 100.7065220  46.4809851
  39.0846719 100.0034845  47.6492634  46.6847779  93.3272137  61.1610396
  47.5857642  93.1878602  60.8694394  46.7595754  93.4926592  62.1008574
  41.0190585  90.7038992  60.0063583  40.1493894  90.9972558  59.7346171
  41.2550065  91.2879437  60.7270846  50.8962214  99.7638151  60.0893111
  50.6047022 100.1268131  60.9256572  50.2834345  99.0505159  59.9106443
  52.0957896  97.3291031  52.6095682  52.9304788  97.7680835  52.7733242
  52.2317025  96.8529684  51.7903927  49.1449402  94.8870766  58.5573169
  49.6203524  95.0798412  57.7492021  48.2214967  94.9429951  58.3116553
  36.0332909  96.0494933  48.1404248  35.7878951  95.1457263  48.3384458
  36.2028823  96.0512083  47.1983726  43.7229619  86.9218609  57.5229003
  44.2411562  87.6579636  57.1975492  43.3684751  87.2282602  58.3575762
  35.3028556  91.7823290  45.6390409  34.6097801  91.8567645  44.9830445
  35.0580308  91.0183634  46.1611926  43.9742213  83.3418892  53.0429900
  44.2543967  82.6742081  53.6690326  44.7592820  83.5347987  52.5304564
  41.7775681 102.5177886  44.6054926  41.2049648 103.1368073  44.1525398
  42.3508475 103.0677247  45.1394848  47.8451071  91.7636526  56.7901475
  48.7968494  91.8634623  56.8113699  47.6754522  90.9714794  57.2999559
  45.8665451  88.8492109  56.9760876  45.2715383  89.1297122  56.2807364
  45.5815147  89.3386010  57.7477617  44.9972941 102.8015036  45.7363508
  45.9303614 102.7360597  45.9396384  44.9096154 103.6371303  45.2778041
  47.6260958 102.1180906  42.6967456  47.5474589 101.7840770  43.5903214
  48.4470624 102.6102674  42.6958928  50.3239149  94.9842645  55.9043775
  50.2915469  94.0458646  56.0903458  50.9339773  95.0626682  55.1709599
  42.1622480  93.8538698  41.9470979  43.1081584  93.7244906  42.0159397
  41.7836725  93.1153360  42.4240407  50.4733637  91.7753689  55.9502058
  49.9572686  90.9912145  55.7631987  51.3573586  91.4472405  56.1148577
  48.1344364  85.5194704  51.9097870  47.9369185  85.2109793  52.7941202
  48.7444070  86.2456343  52.0395800  56.1415699  96.0458652  55.0449811
  56.8719087  95.7843940  55.6057515  55.5322644  95.3087374  55.0851879
  54.2230996  94.1866515  55.6424263  53.4964159  94.0522480  55.0340754
  53.8078283  94.4943343  56.4480981  42.0461172  97.9056444  63.4071636
  42.9664182  98.0835043  63.6011682  42.0110755  96.9612490  63.2551335
  40.3465397  91.7788675  41.8825864  39.4396852  91.4821787  41.9588577
  40.6241378  91.4818493  41.0160150  31.2643337  93.0995038  52.3324910
  30.9446122  92.2460346  52.0399284  30.7176765  93.3143616  53.0882878
  35.0423245  95.8157479  56.0494417  35.2609255  96.7474587  56.0682451
  35.4549019  95.4565454  56.8349221  41.9627463  86.3225564  48.0370105
  41.1528191  85.9772649  48.4125351  42.6511880  86.0133108  48.6257717
  43.8918011  85.4003611  49.6594402  44.4449050  85.8199065  50.3184425
  44.1288097  84.4739359  49.7017358  39.9151110  91.3890685  65.4397166
  39.8147837  92.3385042  65.3709257  39.6972652  91.0608924  64.5673236
  39.1164182  88.6375610  42.0237843  39.9783346  88.9630508  42.2833660
  39.3014526  87.8507106  41.5110909  31.1331597  96.7197950  54.3018032
  30.4395069  96.3051902  53.7887986  31.8804588  96.7618486  53.7051451
  47.2696818  87.5104136  49.1673066  46.6895487  88.1688940  48.7851118
  47.0032751  86.6881481  48.7560484  45.7200384  86.9109194  51.3694386
  46.2200163  87.0225729  50.5608705  46.3635992  86.6070247  52.0095195
  39.7782380  94.8187824  64.2562227  39.2949462  95.6188184  64.4626116
  39.8643319  94.8295769  63.3029671  33.0468340  96.6516203  52.1784047
  33.0239028  96.7503891  51.2265930  33.3568976  97.4981354  52.5001213
  35.7055718  98.7092358  56.2930661  36.6598971  98.6776301  56.2260593
  35.5068241  98.2482982  57.1080887  36.2955100  97.2793474  58.8601459
  37.1147989  97.7737553  58.8836296  36.5691908  96.3625443  58.8319026
  46.0521696  89.6704227  48.2229414  45.1647551  89.9553877  48.0049609
  46.4675685  89.5097990  47.3756691  49.4036232  89.6950748  51.9383754
  50.1796622  90.1847200  52.2108370  48.6784366  90.1208802  52.3955623
  51.8408791  90.4078367  52.9957694  52.4353282  90.1674103  52.2851002
  51.9135374  89.6885498  53.6231230  34.0605946 104.2511978  53.3100859
  33.9260414 103.4912379  52.7438857  33.6438009 104.9752878  52.8429648
  45.1964909  99.4348901  42.3177434  45.9000760  99.6398904  42.9335090
  44.4727558 100.0025663  42.5826518  46.0262720  95.1858763  48.4379704
  45.9697921  95.6427314  47.5987337  46.5791062  94.4249447  48.2602547
  49.8367526  90.9748495  49.2629824  49.5804460  90.5745130  50.0938032
  49.2120394  91.6892289  49.1379963  54.1479864  93.7144568  51.7701115
  53.5879421  93.7837757  52.5432677  53.5423367  93.5385552  51.0500612
  37.2175072 105.1481295  53.5219302  37.1007456 106.0926727  53.4197992
  36.3967519 104.8454856  53.9105101  47.1051607  99.8731431  44.3675894
  47.9397211  99.4412629  44.1853369  46.9435950  99.7013444  45.2952789
  46.7597499  96.3763544  45.7332234  46.7046303  96.2107815  44.7920678
  46.1343554  97.0839577  45.8894423  31.5490014  91.6131608  59.5593656
  32.1948878  91.1030562  60.0480881  31.3407165  92.3500290  60.1337081
  44.0743406  98.6812456  65.0585796  44.9434566  98.8553108  64.6972431
  43.5950158  99.5006873  64.9361526  40.0693625  85.8771653  45.3117552
  40.0572294  86.8213493  45.4685823  40.9617046  85.6941798  45.0177013
  38.2429586 105.8009557  56.7375230  39.1456833 105.8333167  57.0541725
  38.0166957 104.8710008  56.7521566  39.9983188 104.5540543  53.3985309
  39.0478819 104.5542405  53.2849681  40.3015675 103.8073278  52.8821343
  43.8845744  82.4714430  49.5663489  43.1178140  81.9172916  49.7120171
  44.2956449  82.5436298  50.4277640  35.8887505  88.7599225  63.6568670
  36.7518967  88.4036030  63.8671995  35.3152916  88.4213120  64.3444074
  55.7335882 110.3901082  54.4631071  56.3714292 110.2707829  53.7594411
  55.6156725 111.3381926  54.5219023  52.5425588 110.3428510  54.3992596
  52.2044100 110.2269575  53.5113131  53.4115356 109.9419675  54.3793602
  48.4012404 112.1963986  50.3889487  47.8377269 112.1053923  49.6205774
  48.2864799 111.3763891  50.8691979  53.0245371 111.4963362  60.3578801
  53.0134012 111.1016160  59.4859305  53.1866011 110.7629434  60.9512573
  45.9476836 113.6915178  53.2273707  46.7398128 113.3506003  52.8120006
  46.1873486 113.8010153  54.1475860  53.9811963 115.8634954  45.7003952
  53.3299942 116.4489034  45.3137965  54.7756325 116.3941149  45.7598989
  47.9067590 112.9524091  46.0991086  48.6798466 112.4053078  45.9603962
  48.2592989 113.8168340  46.3105547  49.7452632 114.2800473  59.3057985
  49.4542498 115.1846104  59.1904652  50.3809617 114.3217001  60.0202055
  50.6708839 111.6577322  55.8959345  51.2672411 111.4333344  55.1816308
  50.7283811 110.9162067  56.4984793  50.2433868 109.1116757  43.7309536
  50.4959388 108.5898279  42.9692999  49.3058427 108.9482903  43.8336219
  55.2877150 108.1152536  51.5384279  56.0740240 107.6971959  51.1874696
  55.5515855 109.0198628  51.7065927  55.4587228 113.5525386  46.2372936
  54.8233061 113.6260012  46.9493841  55.1284634 114.1418985  45.5592015
  60.6885578 108.0527769  52.4417258  61.4210750 107.4826986  52.6755087
  59.9324933 107.6649369  52.8823763  49.9630156 111.0144863  45.9333911
  49.8466414 110.3389767  46.6014995  50.0732416 110.5277237  45.1166064
  52.3061697 110.4755010  49.6380600  51.9419905 109.9485631  50.3493522
  53.1628813 110.0853479  49.4647085  58.2110998 101.7649343  56.9011866
  57.8794323 102.6344754  56.6773081  57.6156611 101.4485627  57.5805897
  51.9467184 105.5044910  44.6341949  52.1141587 106.3725146  45.0012420
  51.7564353 105.6672192  43.7103238  54.7042517 113.9661889  56.3007779
  54.4043241 114.8686928  56.1923586  54.3593577 113.6994072  57.1528932
  48.1554999 110.4175686  52.3344483  47.2305495 110.2851900  52.5422175
  48.4039412 111.1969905  52.8314426  58.1039661 106.4844429  53.9805216
  57.1956539 106.4159838  53.6863977  58.0527257 106.9616374  54.8087042
  51.9256405 107.9602567  45.6188615  51.8056030 108.4059618  46.4574096
  51.2308994 108.3087885  45.0602154  45.5163810 110.0608959  53.1688272
  45.6456191 110.3143438  54.0827684  44.8361261 110.6536667  52.8492928
  49.6863297 120.7306209  49.2678747  49.6087327 121.6814034  49.3467227
  49.0824941 120.3852082  49.9253673  52.1780527 107.9034075  61.9240114
  51.4013861 108.4627995  61.9142978  52.8171090 108.3890858  62.4454984
  59.9701308 104.6860867  55.7583090  59.3275688 104.9793401  55.1122885
  59.4656236 104.5713788  56.5636287  57.6241471 108.4324041  46.4468949
  58.5359327 108.6651427  46.2716647  57.1151118 109.0161085  45.8844028
  50.4326899 110.7119528  61.4858081  51.1741584 111.2504572  61.2092904
  49.7263885 111.3385817  61.6429632  55.9082239 112.8548669  60.0830242
  56.3165595 112.4131079  59.3384874  55.1859500 112.2801296  60.3364435
  52.2613309 107.7921275  57.4563799  53.1074504 108.2160689  57.5998448
  52.2011947 107.1354900  58.1502362  56.2311054 113.4149859  53.8382531
  55.6019916 113.5795573  53.1358599  55.8436716 113.8291469  54.6093495
  60.1100286 114.3504297  51.1926895  59.4251324 114.7303198  50.6423928
  60.1944135 114.9599624  51.9258842  55.4112754 105.4525644  59.1144973
  55.1673686 106.2067704  58.5779248  55.6872685 105.8310991  59.9492220
  57.3651217 111.9964256  57.7922238  57.5768112 112.6396016  57.1156619
  57.3180965 111.1626573  57.3244168  54.9677446 104.6082077  54.6958810
  54.1061925 104.9063330  54.9875548  54.9939881 104.8252476  53.7639843
  51.7839016 113.1524267  51.1032616  52.2477361 113.4311970  50.3137239
  51.5195814 112.2507712  50.9205707  48.6763097 112.6995749  54.0412379
  49.2464454 113.1283017  53.4029864  49.2671208 112.4178333  54.7396565
  50.7207902 109.2747420  47.9122181  51.4231945 109.7268463  48.3796108
  50.3888530 108.6331238  48.5402074  49.1688263 107.8659176  62.2873391
  48.5386924 108.5475457  62.5208787  49.0624351 107.7542258  61.3426529
  44.4633236 107.5330972  53.2139315  43.6732290 107.7888501  52.7379425
  44.9544483 108.3479310  53.3191355  58.4797045 114.8736211  55.9644596
  59.3014489 114.4716399  55.6827277  58.4759448 114.7704446  56.9160711
  46.4147981 107.8975551  50.1722791  45.6179144 108.0094246  50.6906287
  46.1873573 108.2362204  49.3063682  52.2453649 114.4220255  58.1205306
  52.3098081 114.8840662  58.9563478  51.5364572 113.7917620  58.2487616
  42.7470939 107.7861463  55.6454306  42.9978977 108.6708473  55.9111881
  43.2830487 107.6066064  54.8729397  66.5703038 111.2174960  52.3129567
  65.8166747 110.6482358  52.1573571  66.7050579 111.1837624  53.2600202
  51.9601666 116.0888362  47.9884286  51.8247341 116.9339898  48.4169134
  52.5011479 116.2907640  47.2250220  48.4469006 102.1679942  64.6498642
  48.0535951 101.6146141  65.3246286  49.2635146 102.4790521  65.0405159
  45.4131064 113.6063800  48.5612211  45.9255584 114.4007050  48.7117776
  46.0653776 112.9090091  48.4945813  47.2225948 116.7229557  50.6434965
  47.3992577 117.6447521  50.4555949  48.0182782 116.4087976  51.0729344
  51.3636967 103.5837821  62.2418898  52.1046680 104.1844974  62.1623361
  51.5954890 102.8415459  61.6836941  46.5078305 108.7694188  60.5197128
  46.3931820 107.8679446  60.8204227  45.6522823 109.0157885  60.1681944
  53.5870143 116.7111929  62.1184628  53.1433997 115.9248307  61.8005533
  54.2487356 116.8991079  61.4528519  48.3457264 118.2407730  56.6445307
  48.8964689 118.1124794  55.8722301  47.5068740 118.5402619  56.2940200
  55.6851381 116.9914729  60.1466030  55.6669856 117.8123610  59.6546299
  56.6071301 116.8668804  60.3716171  52.1424435 114.5058858  60.9889538
  52.6752772 113.7447146  60.7588846  51.6138516 114.2132510  61.7313693
  55.3094130  99.6118924  56.5183180  54.9658399 100.5020566  56.4422290
  55.6773092  99.4220582  55.6552765  43.3779980 111.9352455  49.3371782
  44.2155202 112.3449463  49.1205490  43.5558248 110.9951897  49.3071976
  55.2744412 109.6027535  45.0255615  54.7591036 110.3732140  45.2644002
  55.0021721 108.9292671  45.6488676  52.8591524 104.4477236  50.0840853
  52.0033120 104.0584086  49.9046492  53.2718475 104.5269197  49.2240639
  54.3890670 101.9823579  54.4832413  53.8855466 101.9453714  53.6700218
  54.6821277 102.8916322  54.5429070  50.6333556 102.0662309  53.4898595
  51.4986553 101.8705118  53.1304484  50.7011065 101.8372661  54.4167952
  60.2478687 112.3559890  46.9608788  59.4708129 112.0171049  46.5163951
  60.9270168 112.3612513  46.2863753  55.0630716 107.4754627  46.8515396
  54.7580851 107.7900776  47.7025539  56.0161158 107.5536047  46.8942729
  53.5077147 113.6344851  48.5008350  52.9798509 112.8997610  48.1881588
  53.0064650 114.4119527  48.2548318  58.4869994 111.8293871  53.6175396
  57.8293668 112.5193132  53.7055525  59.2910393 112.2190303  53.9609383
  48.2395875 104.2964517  50.8614962  48.8139627 104.0739698  50.1288155
  48.8266858 104.3653211  51.6143563  57.2975452 110.1838244  51.6679338
  57.8107334 110.8168236  52.1701048  57.9476676 109.5839439  51.3022698
  48.5665462 106.3268978  44.8810847  47.7302774 106.6643664  45.2020122
  48.4270232 106.1917958  43.9437984  50.5418543 101.1705766  49.5890031
  49.8882955 100.8554783  48.9646646  50.4999017 100.5481506  50.3149854
  51.6529748 111.4525061  41.5043323  50.7456809 111.2214314  41.7034472
  52.1500780 110.6562680  41.6917305  54.5597827 120.1622568  44.4240009
  53.8859525 120.4654265  45.0324967  54.9463649 120.9651648  44.0745466
  53.7756283 107.6587699  53.9137679  52.8578845 107.8802646  53.7559367
  54.1916427 107.7334010  53.0549386  54.5591331 109.0579115  49.0440359
  55.3063150 109.5700512  48.7347481  54.8282920 108.7363168  49.9044753
  52.8317981 111.5537656  46.0267313  51.9229200 111.2696689  46.1239783
  52.8613065 111.9736734  45.1670620  58.0637249 115.1644245  49.7958481
  57.6099576 114.3235155  49.8523671  57.4331215 115.8005644  50.1333261
  57.0070168 106.0936231  51.0259148  56.2692925 105.5813617  51.3569391
  57.2596942 105.6536613  50.2142425  56.5070188 117.0020742  50.7308299
  56.7993162 117.5625799  50.0120665  57.0168808 117.2949303  51.4861458
  57.1081795  98.8712483  51.6200918  57.4140672  98.0109847  51.3326833
  57.8334400  99.4630103  51.4199911  43.4006151 109.2743170  50.0082515
  43.2030551 108.6812531  49.2833582  42.8452815 108.9695380  50.7258454
  51.3802875 109.1666276  52.1277109  51.4351485 108.2140113  52.0519585
  50.5694077 109.3225715  52.6118407  52.5294069 113.0946399  43.3655392
  52.0913499 112.3782258  42.9061029  53.2704510 113.3222514  42.8040483
  49.3195235 107.7843336  49.8867487  48.5063101 108.0837507  50.2932680
  49.8154229 107.3899025  50.6041970  51.4703813 117.7801093  51.8201752
  51.4279992 118.0061939  50.8910284  52.3866512 117.5464468  51.9687553
  54.9169447 108.2485161  58.7182381  55.2718834 108.4756634  59.5776847
  55.5641578 108.5803537  58.0959637  60.6467184 111.3703596  49.4231710
  60.5085082 111.5605192  48.4952900  60.2903403 112.1322979  49.8799762
  48.8109310 105.3561692  55.5028722  49.4508689 105.2150451  54.8051686
  47.9786840 105.0696205  55.1267324  60.6736563 113.4380123  54.4342982
  61.1073070 113.3455413  55.2826036  61.3868144 113.4137624  53.7962998
  49.5869614 114.6564122  51.6163715  50.3810212 114.1614442  51.4146290
  48.8761306 114.1281985  51.2531420  54.4064458 117.0382218  55.9676082
  54.4601480 117.6073154  56.7353798  53.5379240 117.2084103  55.6030120
  45.8952377 108.8007204  47.6923468  44.9649965 108.7391659  47.9093430
  45.9909849 108.2783157  46.8960109  45.8137926 105.3262017  50.2801709
  46.0744744 106.2407350  50.1710870  46.6355099 104.8586459  50.4298322
  47.2862852 106.7399774  57.4500534  47.9585905 106.5317136  56.8013183
  46.4592638 106.5421860  57.0105766  61.5352113 113.4803824  56.9675867
  61.7288003 114.3849635  57.2135142  61.4352731 113.0211243  57.8014452
  53.1888424 103.3661715  59.4666195  52.5416339 104.0651664  59.3730671
  53.9589439 103.7997859  59.8342443  56.5967222 113.6310567  62.5416748
  56.4452728 113.4021119  61.6246832  56.5871901 114.5881168  62.5548093
  53.3652558 111.2042480  57.5263014  54.2944618 111.3553639  57.3531982
  52.9443588 111.2926500  56.6711661  52.1640890 115.2293144  55.2961552
  52.0251975 114.8611928  56.1687490  51.3755486 115.7440783  55.1245510
  52.7589042 120.3302240  46.6387088  52.9340797 119.8590284  47.4532711
  52.0721830 120.9568007  46.8668349  53.7146105 114.6074747  52.6850390
  53.3795937 114.5675517  53.5808040  53.2150051 113.9419463  52.2120800
  47.6890349 110.0142377  58.2102971  47.5510147 109.2822616  58.8114510
  48.5995272 109.9251277  57.9287159  56.6505297 111.9530781  42.9587449
  56.0334467 111.2277609  42.8620502  56.1821785 112.7140141  42.6154524
  50.3172650 109.7262336  57.6986651  51.0272268 109.0855528  57.6573269
  50.2741958 109.9775231  58.6212831  58.3059428 116.6629689  60.6193230
  58.2471974 115.9788910  59.9523813  58.7078947 117.4048679  60.1673856
  49.0301583 106.7127554  59.5182290  48.4938940 106.2618292  60.1703886
  48.4418292 106.8473463  58.7752754  47.3250127 123.4791603  53.4126949
  47.5646725 124.1110127  54.0905967  46.4819323 123.1279643  53.6992308
  48.4403842 106.1716205  42.0808754  47.5633309 106.0505006  41.7171000
  48.9161596 105.3802284  41.8287642  58.3076835 114.6269273  58.8507209
  57.4203614 114.2895195  58.9733608  58.8775387 113.8952305  59.0875975
  39.9605983 110.9593365  52.1750261  40.6477022 110.6455095  51.5871276
  39.8054111 111.8634730  51.9017512  44.7640705 105.8483562  56.6035285
  44.6798893 105.2409231  55.8685694  43.9423411 106.3392580  56.6044781
  51.8377989 119.2870726  55.8168453  51.7648160 120.0925697  56.3287757
  51.3955382 119.4862692  54.9916474  51.6267768 118.5242496  49.3271274
  50.8435290 119.0664176  49.4209499  52.3260514 119.0416475  49.7265515
  54.9364419 104.3337125  51.9705480  55.4333118 103.5807088  51.6506550
  54.1651400 104.3701442  51.4048689  62.7894176 110.0377491  53.6123771
  62.7784052 110.9202206  53.2417704  61.9211555 109.6849042  53.4178308
  54.2976672 119.1857560  57.9726611  55.0104645 119.8205025  57.9002513
  53.8066701 119.2821426  57.1566613  56.0194199 113.0908812  49.5443903
  55.0850478 113.2110275  49.3748607  56.1970868 112.1881279  49.2803913
  51.5199387 106.4754508  51.6977164  51.1497175 105.9225549  52.3858070
  52.0158480 105.8712642  51.1452164  59.4066751 108.9326132  50.0793937
  59.8727203 109.7654123  50.0054240  59.8574251 108.4671113  50.7839196
  49.3488586 116.9352003  58.7932182  50.0498045 117.5688486  58.9461576
  48.8783701 117.2766735  58.0327821  57.4742982 115.2769953  47.0780089
  57.7502826 115.1626548  47.9873963  56.6047480 114.8787438  47.0392262
  57.3783413 101.3006719  54.1184838  56.4646493 101.5310946  54.2867045
  57.8076515 101.3845163  54.9698871  57.1489872 109.4896611  56.6184732
  56.4961322 109.7372518  55.9637185  57.5270252 108.6760749  56.2847210
  54.1097046 119.5256304  50.7212903  54.2919440 118.7077960  51.1840655
  54.9330032 119.7423996  50.2837793  54.4439211 118.4524489  47.9827951
  54.9726978 117.9416944  47.3698113  54.7067431 118.1367019  48.8473484
  53.1977445 110.2316422  63.1050770  52.5218082 110.1310551  63.7753145
  54.0205079 110.0755635  63.5686767  44.9456304 116.4688358  55.7263285
  45.5309741 115.7232046  55.8591189  44.7481142 116.7792315  56.6099949
  47.7994959 119.5039606  50.7425727  47.1305334 119.9885733  50.2589767
  47.6607829 119.7508826  51.6569106  39.5373959 109.0393958  54.4467728
  39.5758058 108.5057549  55.2404846  39.0314252 108.5129164  53.8278705
  51.9400228 121.5383349  57.3408386  52.4918536 121.7014971  58.1057471
  52.2806421 122.1287787  56.6688410  46.9164721 103.8858499  57.9430270
  46.9806047 104.7473330  57.5307668  46.8531841 103.2732501  57.2102629
  46.3916994 105.9581631  61.5903305  47.0189032 105.5758709  62.2040829
  45.5344912 105.7395833  61.9558997  56.7911102 116.3644607  63.1957040
  57.3351006 116.9774565  62.7011995  56.2097947 116.9224185  63.7124053
  43.1682536 107.7658061  47.5221659  43.4635977 106.8568739  47.4688713
  42.2670572 107.7445800  47.2002662  55.0768615 119.4865325  54.3272068
  54.9519754 118.6855065  53.8183013  55.7347706 119.9811518  53.8386038
  46.6976783 105.8414057  53.5049208  45.9763369 106.4550025  53.3656681
  47.4870039 106.3771822  53.4265854  57.1403523 117.2874345  55.9551618
  56.1933859 117.1679696  55.8829945  57.4886297 116.3996843  56.0377879
  49.5003097 103.1768484  59.7789860  50.0237499 103.4230780  60.5416169
  49.2815430 104.0088518  59.3592997  44.8970378 105.4472158  47.6460984
  44.5683084 104.5669537  47.4636090  45.2509749 105.3919827  48.5337374
  54.1449957 117.0827061  52.1555970  53.9974919 116.1543768  52.3363540
  54.9703450 117.1047152  51.6713045  48.0112201 105.7345128  48.0136462
  48.3508274 106.2631049  47.2915071  48.4584321 106.0725534  48.7895029
  57.7484079 117.9055620  53.2420843  58.6730626 117.6998481  53.1045294
  57.5799382 117.6572021  54.1510184  50.7055642 104.1182179  57.4639530
  50.3652462 103.3189992  57.8660210  49.9994648 104.4183890  56.8916363
  51.3572114 101.2031491  55.9166853  52.1798183 100.7291969  55.7945744
  51.6010177 101.9821975  56.4165540  49.9980348 104.2319750  46.2129755
  50.7188711 104.6101002  45.7093472  49.3745652 104.9508626  46.3164733
  54.1411471 104.9364899  47.1488087  54.3575085 105.8189536  46.8476915
  53.6605538 104.5451112  46.4193729  48.8810692 107.8950612  53.7258832
  48.7355273 108.2090915  54.6183113  48.4035896 108.5135512  53.1729731
  50.7407075 104.8853160  53.7739721  50.7268644 103.9894253  53.4372019
  51.4579503 104.8923824  54.4078007  52.5933206 105.3190500  55.8192849
  52.3350984 106.2407571  55.8177179  52.0618246 104.9220935  56.5093313
  57.5379395 118.4241287  48.5982934  57.7116272 117.8587710  47.8456787
  58.0308286 119.2242182  48.4162424  43.3556355 110.4355956  56.6646493
  42.8109823 111.2115764  56.7966767  44.2335704 110.7826761  56.5065614
  50.1443971 103.7667540  49.0427292  50.2659882 102.8384186  49.2418179
  49.8546014 103.7806226  48.1305607  53.0135162 101.4522451  52.1794011
  53.0356858 101.5161784  51.2245991  53.4303221 100.6126959  52.3734518
  63.3918786 111.1877710  50.2173234  63.8349932 110.4385035  49.8192357
  62.5145296 111.1787846  49.8346966  58.5254567 117.7408052  45.6979833
  59.2205472 118.3614744  45.9167147  58.8677717 116.8903403  45.9732210
  44.1422376 109.5625853  59.5576650  43.4004112 109.7108488  60.1441280
  43.8215121 109.8234118  58.6943399  60.4245990 115.1907757  47.2267163
  60.9497314 115.5295030  46.5016483  60.3368343 114.2554772  47.0430298
  52.0866039 119.1041831  59.3557040  52.3953166 118.8590977  60.2279740
  52.8841521 119.3088469  58.8675910  52.1086651 121.2579740  51.5862416
  51.6691641 120.7656119  52.2795273  52.8594768 120.7152708  51.3454492
  44.5878990 117.4491281  51.5887045  45.4137010 117.1495053  51.2085688
  44.2373042 116.6798904  52.0376833  49.5560523 116.8017749  53.6584718
  48.9340533 116.1388454  53.3586946  50.2265390 116.8278881  52.9758366
  42.7887595 115.3677608  52.5475978  41.9519503 114.9399782  52.3659979
  42.7611241 115.5610051  53.4846769  49.6285051 105.2799537  63.2517224
  49.6773206 106.1561660  62.8694994  50.1707565 104.7376931  62.6788867
  60.1139896 115.8240661  62.5318361  59.3235440 115.8064800  61.9922861
  59.8773251 116.3628954  63.2867398  60.2337772 112.6733127  59.8451090
  60.2835776 112.5083135  60.7866613  60.1251695 111.8060386  59.4548971
  49.1174030 115.3521673  47.1343179  49.2662151 116.0357137  46.4809851
  49.9240474 115.3326763  47.6492634  57.5241534 108.6564055  61.1610396
  58.4251397 108.5170520  60.8694394  57.5989508 108.8218510  62.1008574
  51.8584339 106.0330910  60.0063583  50.9887649 106.3264476  59.7346171
  52.0943820 106.6171355  60.7270846  61.7355968 115.0930069  60.0893111
  61.4440777 115.4560049  60.9256572  61.1228100 114.3797077  59.9106443
  62.9351651 112.6582948  52.6095682  63.7698542 113.0972752  52.7733242
  63.0710779 112.1821602  51.7903927  59.9843157 110.2162683  58.5573169
  60.4597278 110.4090330  57.7492021  59.0608722 110.2721869  58.3116553
  46.8726663 111.3786850  48.1404248  46.6272705 110.4749180  48.3384458
  47.0422578 111.3804001  47.1983726  54.5623373 102.2510527  57.5229003
  55.0805317 102.9871554  57.1975492  54.2078506 102.5574520  58.3575762
  46.1422311 107.1115208  45.6390409  45.4491556 107.1859563  44.9830445
  45.8974063 106.3475552  46.1611926  54.8135967  98.6710809  53.0429900
  55.0937721  98.0033998  53.6690326  55.5986574  98.8639905  52.5304564
  52.6169436 117.8469803  44.6054926  52.0443403 118.4659990  44.1525398
  53.1902229 118.3969165  45.1394848  58.6844826 107.0928443  56.7901475
  59.6362248 107.1926541  56.8113699  58.5148276 106.3006712  57.2999559
  56.7059205 104.1784027  56.9760876  56.1109137 104.4589039  56.2807364
  56.4208902 104.6677927  57.7477617  55.8366696 118.1306953  45.7363508
  56.7697369 118.0652515  45.9396384  55.7489908 118.9663220  45.2778041
  58.4654712 117.4472824  42.6967456  58.3868344 117.1132687  43.5903214
  59.2864379 117.9394592  42.6958928  61.1632903 110.3134563  55.9043775
  61.1309223 109.3750564  56.0903458  61.7733527 110.3918600  55.1709599
  53.0016234 109.1830616  41.9470979  53.9475339 109.0536824  42.0159397
  52.6230479 108.4445278  42.4240407  61.3127392 107.1045606  55.9502058
  60.7966440 106.3204063  55.7631987  62.1967340 106.7764323  56.1148577
  58.9738119 100.8486622  51.9097870  58.7762940 100.5401710  52.7941202
  59.5837824 101.5748261  52.0395800  66.9809453 111.3750570  55.0449811
  67.7112842 111.1135858  55.6057515  66.3716399 110.6379292  55.0851879
  65.0624750 109.5158432  55.6424263  64.3357914 109.3814397  55.0340754
  64.6472037 109.8235261  56.4480981  52.8854927 113.2348362  63.4071636
  53.8057936 113.4126961  63.6011682  52.8504510 112.2904407  63.2551335
  51.1859151 107.1080592  41.8825864  50.2790607 106.8113705  41.9588577
  51.4635132 106.8110410  41.0160150  42.1037092 108.4286956  52.3324910
  41.7839876 107.5752264  52.0399284  41.5570520 108.6435534  53.0882878
  45.8816999 111.1449397  56.0494417  46.1003009 112.0766505  56.0682451
  46.2942773 110.7857371  56.8349221  52.8021217 101.6517482  48.0370105
  51.9921945 101.3064567  48.4125351  53.4905634 101.3425026  48.6257717
  54.7311765 100.7295529  49.6594402  55.2842804 101.1490982  50.3184425
  54.9681852  99.8031277  49.7017358  50.7544865 106.7182603  65.4397166
  50.6541592 107.6676960  65.3709257  50.5366407 106.3900841  64.5673236
  49.9557936 103.9667528  42.0237843  50.8177100 104.2922426  42.2833660
  50.1408280 103.1799023  41.5110909  41.9725352 112.0489867  54.3018032
  41.2788823 111.6343820  53.7887986  42.7198343 112.0910404  53.7051451
  58.1090572 102.8396054  49.1673066  57.5289242 103.4980858  48.7851118
  57.8426505 102.0173399  48.7560484  56.5594139 102.2401112  51.3694386
  57.0593917 102.3517646  50.5608705  57.2029747 101.9362165  52.0095195
  50.6176135 110.1479741  64.2562227  50.1343216 110.9480101  64.4626116
  50.7037074 110.1587686  63.3029671  43.8862094 111.9808121  52.1784047
  43.8632782 112.0795808  51.2265930  44.1962731 112.8273272  52.5001213
  46.5449472 114.0384276  56.2930661  47.4992726 114.0068218  56.2260593
  46.3461996 113.5774900  57.1080887  47.1348854 112.6085392  58.8601459
  47.9541743 113.1029471  58.8836296  47.4085662 111.6917360  58.8319026
  56.8915450 104.9996144  48.2229414  56.0041306 105.2845795  48.0049609
  57.3069440 104.8389908  47.3756691  60.2429987 105.0242665  51.9383754
  61.0190377 105.5139118  52.2108370  59.5178121 105.4500720  52.3955623
  62.6802545 105.7370285  52.9957694  63.2747036 105.4966021  52.2851002
  62.7529129 105.0177415  53.6231230  44.8999701 119.5803896  53.3100859
  44.7654169 118.8204296  52.7438857  44.4831763 120.3044795  52.8429648
  56.0358664 114.7640819  42.3177434  56.7394514 114.9690822  42.9335090
  55.3121313 115.3317581  42.5826518  56.8656474 110.5150680  48.4379704
  56.8091676 110.9719232  47.5987337  57.4184817 109.7541365  48.2602547
  60.6761280 106.3040412  49.2629824  60.4198214 105.9037048  50.0938032
  60.0514148 107.0184206  49.1379963  64.9873618 109.0436485  51.7701115
  64.4273176 109.1129675  52.5432677  64.3817121 108.8677470  51.0500612
  48.0568827 120.4773213  53.5219302  47.9401211 121.4218645  53.4197992
  47.2361273 120.1746774  53.9105101  57.9445361 115.2023348  44.3675894
  58.7790965 114.7704547  44.1853369  57.7829704 115.0305362  45.2952789
  57.5991254 111.7055462  45.7332234  57.5440057 111.5399733  44.7920678
  56.9737309 112.4131495  45.8894423  42.3883769 106.9423526  59.5593656
  43.0342632 106.4322480  60.0480881  42.1800920 107.6792208  60.1337081
  54.9137161 114.0104373  65.0585796  55.7828320 114.1845026  64.6972431
  54.4343912 114.8298790  64.9361526  50.9087379 101.2063571  45.3117552
  50.8966049 102.1505411  45.4685823  51.8010801 101.0233716  45.0177013
  49.0823341 121.1301474  56.7375230  49.9850588 121.1625085  57.0541725
  48.8560711 120.2001925  56.7521566  50.8376943 119.8832461  53.3985309
  49.8872574 119.8834323  53.2849681  51.1409429 119.1365196  52.8821343
  54.7239498  97.8006347  49.5663489  53.9571894  97.2464834  49.7120171
  55.1350203  97.8728216  50.4277640  46.7281260 104.0891143  63.6568670
  47.5912721 103.7327948  63.8671995  46.1546670 103.7505038  64.3444074
  66.5729636 125.7192999  54.4631071  67.2108046 125.5999747  53.7594411
  66.4550479 126.6673843  54.5219023  63.3819343 125.6720428  54.3992596
  63.0437854 125.5561492  53.5113131  64.2509111 125.2711593  54.3793602
  59.2406158 127.5255904  50.3889487  58.6771024 127.4345841  49.6205774
  59.1258553 126.7055808  50.8691979  63.8639126 126.8255279  60.3578801
  63.8527766 126.4308078  59.4859305  64.0259765 126.0921352  60.9512573
  56.7870590 129.0207096  53.2273707  57.5791882 128.6797920  52.8120006
  57.0267241 129.1302071  54.1475860  64.8205717 131.1926872  45.7003952
  64.1693697 131.7780952  45.3137965  65.6150080 131.7233067  45.7598989
  58.7461344 128.2816009  46.0991086  59.5192220 127.7344996  45.9603962
  59.0986743 129.1460258  46.3105547  60.5846387 129.6092391  59.3057985
  60.2936253 130.5138022  59.1904652  61.2203371 129.6508919  60.0202055
  61.5102594 126.9869240  55.8959345  62.1066166 126.7625262  55.1816308
  61.5677565 126.2453985  56.4984793  61.0827622 124.4408675  43.7309536
  61.3353143 123.9190196  42.9692999  60.1452181 124.2774820  43.8336219
  66.1270905 123.4444453  51.5384279  66.9133994 123.0263876  51.1874696
  66.3909609 124.3490545  51.7065927  66.2980982 128.8817304  46.2372936
  65.6626815 128.9551930  46.9493841  65.9678389 129.4710902  45.5592015
  71.5279332 123.3819686  52.4417258  72.2604504 122.8118903  52.6755087
  70.7718688 122.9941287  52.8823763  60.8023911 126.3436781  45.9333911
  60.6860169 125.6681684  46.6014995  60.9126171 125.8569155  45.1166064
  63.1455452 125.8046928  49.6380600  62.7813659 125.2777549  50.3493522
  64.0022568 125.4145397  49.4647085  69.0504752 117.0941261  56.9011866
  68.7188077 117.9636672  56.6773081  68.4550366 116.7777545  57.5805897
  62.7860939 120.8336828  44.6341949  62.9535341 121.7017064  45.0012420
  62.5958108 120.9964109  43.7103238  65.5436272 129.2953807  56.3007779
  65.2436995 130.1978845  56.1923586  65.1987331 129.0285990  57.1528932
  58.9948753 125.7467603  52.3344483  58.0699250 125.6143818  52.5422175
  59.2433167 126.5261823  52.8314426  68.9433416 121.8136347  53.9805216
  68.0350293 121.7451755  53.6863977  68.8921012 122.2908292  54.8087042
  62.7650160 123.2894485  45.6188615  62.6449785 123.7351536  46.4574096
  62.0702748 123.6379803  45.0602154  56.3557564 125.3900877  53.1688272
  56.4849946 125.6435356  54.0827684  55.6755016 125.9828585  52.8492928
  60.5257052 136.0598127  49.2678747  60.4481081 137.0105952  49.3467227
  59.9218695 135.7143999  49.9253673  63.0174282 123.2325992  61.9240114
  62.2407616 123.7919912  61.9142978  63.6564845 123.7182775  62.4454984
  70.8095062 120.0152785  55.7583090  70.1669442 120.3085318  55.1122885
  70.3049991 119.9005705  56.5636287  68.4635226 123.7615958  46.4468949
  69.3753082 123.9943345  46.2716647  67.9544873 124.3453003  45.8844028
  61.2720654 126.0411446  61.4858081  62.0135338 126.5796490  61.2092904
  60.5657639 126.6677734  61.6429632  66.7475993 128.1840586  60.0830242
  67.1559350 127.7422997  59.3384874  66.0253255 127.6093214  60.3364435
  63.1007064 123.1213193  57.4563799  63.9468259 123.5452606  57.5998448
  63.0405701 122.4646817  58.1502362  67.0704808 128.7441777  53.8382531
  66.4413671 128.9087491  53.1358599  66.6830470 129.1583386  54.6093495
  70.9494040 129.6796215  51.1926895  70.2645078 130.0595116  50.6423928
  71.0337889 130.2891541  51.9258842  66.2506509 120.7817561  59.1144973
  66.0067441 121.5359622  58.5779248  66.5266439 121.1602909  59.9492220
  68.2044972 127.3256174  57.7922238  68.4161867 127.9687934  57.1156619
  68.1574720 126.4918490  57.3244168  65.8071201 119.9373994  54.6958810
  64.9455680 120.2355248  54.9875548  65.8333635 120.1544393  53.7639843
  62.6232770 128.4816185  51.1032616  63.0871116 128.7603888  50.3137239
  62.3589568 127.5799629  50.9205707  59.5156851 128.0287666  54.0412379
  60.0858208 128.4574935  53.4029864  60.1064963 127.7470251  54.7396565
  61.5601656 124.6039337  47.9122181  62.2625699 125.0560381  48.3796108
  61.2282285 123.9623156  48.5402074  60.0082018 123.1951094  62.2873391
  59.3780678 123.8767375  62.5208787  59.9018105 123.0834175  61.3426529
  55.3026990 122.8622890  53.2139315  54.5126044 123.1180418  52.7379425
  55.7938237 123.6771228  53.3191355  69.3190800 130.2028129  55.9644596
  70.1408243 129.8008316  55.6827277  69.3153202 130.0996363  56.9160711
  57.2541735 123.2267469  50.1722791  56.4572899 123.3386163  50.6906287
  57.0267328 123.5654121  49.3063682  63.0847403 129.7512172  58.1205306
  63.1491836 130.2132580  58.9563478  62.3758327 129.1209537  58.2487616
  53.5864693 123.1153380  55.6454306  53.8372731 124.0000390  55.9111881
  54.1224241 122.9357982  54.8729397  77.4096793 126.5466878  52.3129567
  76.6560501 125.9774276  52.1573571  77.5444334 126.5129542  53.2600202
  62.7995421 131.4180280  47.9884286  62.6641095 132.2631816  48.4169134
  63.3405233 131.6199558  47.2250220  59.2862760 117.4971860  64.6498642
  58.8929706 116.9438058  65.3246286  60.1028901 117.8082438  65.0405159
  56.2524818 128.9355718  48.5612211  56.7649339 129.7298968  48.7117776
  56.9047531 128.2382008  48.4945813  58.0619703 132.0521474  50.6434965
  58.2386331 132.9739439  50.4555949  58.8576536 131.7379893  51.0729344
  62.2030721 118.9129739  62.2418898  62.9440435 119.5136892  62.1623361
  62.4348644 118.1707377  61.6836941  57.3472059 124.0986106  60.5197128
  57.2325574 123.1971363  60.8204227  56.4916577 124.3449803  60.1681944
  64.4263897 132.0403846  62.1184628  63.9827751 131.2540225  61.8005533
  65.0881111 132.2282997  61.4528519  59.1851018 133.5699648  56.6445307
  59.7358443 133.4416711  55.8722301  58.3462494 133.8694537  56.2940200
  66.5245135 132.3206646  60.1466030  66.5063610 133.1415527  59.6546299
  67.4465055 132.1960722  60.3716171  62.9818189 129.8350776  60.9889538
  63.5146526 129.0739064  60.7588846  62.4532270 129.5424428  61.7313693
  66.1487884 114.9410842  56.5183180  65.8052154 115.8312483  56.4422290
  66.5166847 114.7512499  55.6552765  54.2173735 127.2644372  49.3371782
  55.0548957 127.6741381  49.1205490  54.3952003 126.3243814  49.3071976
  66.1138167 124.9319453  45.0255615  65.5984790 125.7024058  45.2644002
  65.8415475 124.2584589  45.6488676  63.6985278 119.7769154  50.0840853
  62.8426874 119.3876004  49.9046492  64.1112230 119.8561114  49.2240639
  65.2284425 117.3115497  54.4832413  64.7249220 117.2745632  53.6700218
  65.5215031 118.2208240  54.5429070  61.4727311 117.3954227  53.4898595
  62.3380307 117.1997035  53.1304484  61.5404819 117.1664578  54.4167952
  71.0872441 127.6851808  46.9608788  70.3101884 127.3462967  46.5163951
  71.7663922 127.6904431  46.2863753  65.9024470 122.8046545  46.8515396
  65.5974606 123.1192694  47.7025539  66.8554912 122.8827965  46.8942729
  64.3470902 128.9636768  48.5008350  63.8192264 128.2289528  48.1881588
  63.8458405 129.7411445  48.2548318  69.3263748 127.1585789  53.6175396
  68.6687422 127.8485050  53.7055525  70.1304147 127.5482221  53.9609383
  59.0789630 119.6256435  50.8614962  59.6533381 119.4031616  50.1288155
  59.6660612 119.6945129  51.6143563  68.1369207 125.5130161  51.6679338
  68.6501089 126.1460153  52.1701048  68.7870431 124.9131357  51.3022698
  59.4059217 121.6560896  44.8810847  58.5696529 121.9935582  45.2020122
  59.2663986 121.5209875  43.9437984  61.3812297 116.4997683  49.5890031
  60.7276710 116.1846701  48.9646646  61.3392771 115.8773424  50.3149854
  62.4923502 126.7816979  41.5043323  61.5850564 126.5506232  41.7034472
  62.9894534 125.9854598  41.6917305  65.3991581 135.4914486  44.4240009
  64.7253280 135.7946182  45.0324967  65.7857403 136.2943566  44.0745466
  64.6150038 122.9879617  53.9137679  63.6972599 123.2094564  53.7559367
  65.0310181 123.0625927  53.0549386  65.3985085 124.3871033  49.0440359
  66.1456904 124.8992430  48.7347481  65.6676675 124.0655085  49.9044753
  63.6711736 126.8829573  46.0267313  62.7622955 126.5988606  46.1239783
  63.7006819 127.3028652  45.1670620  68.9031003 130.4936163  49.7958481
  68.4493330 129.6527073  49.8523671  68.2724970 131.1297561  50.1333261
  67.8463923 121.4228149  51.0259148  67.1086679 120.9105535  51.3569391
  68.0990696 120.9828531  50.2142425  67.3463942 132.3312660  50.7308299
  67.6386917 132.8917717  50.0120665  67.8562563 132.6241221  51.4861458
  67.9475550 114.2004401  51.6200918  68.2534427 113.3401764  51.3326833
  68.6728155 114.7922021  51.4199911  54.2399906 124.6035088  50.0082515
  54.0424306 124.0104448  49.2833582  53.6846570 124.2987298  50.7258454
  62.2196630 124.4958194  52.1277109  62.2745239 123.5432030  52.0519585
  61.4087832 124.6517633  52.6118407  63.3687823 128.4238317  43.3655392
  62.9307253 127.7074176  42.9061029  64.1098264 128.6514432  42.8040483
  60.1588990 123.1135254  49.8867487  59.3456855 123.4129424  50.2932680
  60.6547984 122.7190943  50.6041970  62.3097567 133.1093011  51.8201752
  62.2673746 133.3353857  50.8910284  63.2260266 132.8756385  51.9687553
  65.7563201 123.5777078  58.7182381  66.1112589 123.8048551  59.5776847
  66.4035332 123.9095455  58.0959637  71.4860938 126.6995514  49.4231710
  71.3478837 126.8897110  48.4952900  71.1297157 127.4614897  49.8799762
  59.6503064 120.6853609  55.5028722  60.2902444 120.5442368  54.8051686
  58.8180595 120.3988123  55.1267324  71.5130318 128.7672041  54.4342982
  71.9466824 128.6747330  55.2826036  72.2261898 128.7429542  53.7962998
  60.4263368 129.9856040  51.6163715  61.2203967 129.4906360  51.4146290
  59.7155061 129.4573903  51.2531420  65.2458213 132.3674135  55.9676082
  65.2995235 132.9365072  56.7353798  64.3772994 132.5376020  55.6030120
  56.7346132 124.1299121  47.6923468  55.8043720 124.0683577  47.9093430
  56.8303604 123.6075074  46.8960109  56.6531681 120.6553934  50.2801709
  56.9138498 121.5699268  50.1710870  57.4748853 120.1878377  50.4298322
  58.1256606 122.0691691  57.4500534  58.7979659 121.8609054  56.8013183
  57.2986393 121.8713777  57.0105766  72.3745867 128.8095742  56.9675867
  72.5681757 129.7141552  57.2135142  72.2746486 128.3503161  57.8014452
  64.0282178 118.6953632  59.4666195  63.3810093 119.3943582  59.3730671
  64.7983193 119.1289776  59.8342443  67.4360976 128.9602485  62.5416748
  67.2846482 128.7313036  61.6246832  67.4265655 129.9173086  62.5548093
  64.2046312 126.5334397  57.5263014  65.1338372 126.6845557  57.3531982
  63.7837342 126.6218418  56.6711661  63.0034644 130.5585062  55.2961552
  62.8645730 130.1903846  56.1687490  62.2149240 131.0732701  55.1245510
  63.5982796 135.6594158  46.6387088  63.7734552 135.1882201  47.4532711
  62.9115584 136.2859924  46.8668349  64.5539859 129.9366664  52.6850390
  64.2189692 129.8967434  53.5808040  64.0543805 129.2711380  52.2120800
  58.5284103 125.3434294  58.2102971  58.3903901 124.6114533  58.8114510
  59.4389027 125.2543195  57.9287159  67.4899051 127.2822699  42.9587449
  66.8728222 126.5569527  42.8620502  67.0215539 128.0432059  42.6154524
  61.1566404 125.0554254  57.6986651  61.8666023 124.4147446  57.6573269
  61.1135712 125.3067149  58.6212831  69.1453183 131.9921607  60.6193230
  69.0865729 131.3080827  59.9523813  69.5472701 132.7340597  60.1673856
  59.8695338 122.0419472  59.5182290  59.3332695 121.5910210  60.1703886
  59.2812046 122.1765380  58.7752754  58.1643881 138.8083521  53.4126949
  58.4040480 139.4402045  54.0905967  57.3213078 138.4571561  53.6992308
  59.2797597 121.5008123  42.0808754  58.4027063 121.3796924  41.7171000
  59.7555350 120.7094201  41.8287642  69.1470590 129.9561191  58.8507209
  68.2597369 129.6187113  58.9733608  69.7169141 129.2244222  59.0875975
  50.7999737 126.2885283  52.1750261  51.4870777 125.9747013  51.5871276
  50.6447866 127.1926647  51.9017512  55.6034459 121.1775479  56.6035285
  55.5192648 120.5701149  55.8685694  54.7817166 121.6684498  56.6044781
  62.6771743 134.6162643  55.8168453  62.6041915 135.4217615  56.3287757
  62.2349136 134.8154609  54.9916474  62.4661523 133.8534413  49.3271274
  61.6829045 134.3956094  49.4209499  63.1654268 134.3708393  49.7265515
  65.7758173 119.6629043  51.9705480  66.2726873 118.9099005  51.6506550
  65.0045155 119.6993360  51.4048689  73.6287930 125.3669408  53.6123771
  73.6177807 126.2494124  53.2417704  72.7605310 125.0140959  53.4178308
  65.1370427 134.5149477  57.9726611  65.8498399 135.1496942  57.9002513
  64.6460455 134.6113343  57.1566613  66.8587954 128.4200730  49.5443903
  65.9244232 128.5402193  49.3748607  67.0364622 127.5173197  49.2803913
  62.3593142 121.8046426  51.6977164  61.9890929 121.2517466  52.3858070
  62.8552234 121.2004559  51.1452164  70.2460505 124.2618049  50.0793937
  70.7120957 125.0946041  50.0054240  70.6968006 123.7963031  50.7839196
  60.1882340 132.2643921  58.7932182  60.8891800 132.8980404  58.9461576
  59.7177455 132.6058652  58.0327821  68.3136736 130.6061871  47.0780089
  68.5896580 130.4918465  47.9873963  67.4441235 130.2079355  47.0392262
  68.2177168 116.6298636  54.1184838  67.3040248 116.8602863  54.2867045
  68.6470269 116.7137080  54.9698871  67.9883626 124.8188528  56.6184732
  67.3355077 125.0664436  55.9637185  68.3664006 124.0052666  56.2847210
  64.9490800 134.8548221  50.7212903  65.1313195 134.0369877  51.1840655
  65.7723786 135.0715914  50.2837793  65.2832966 133.7816407  47.9827951
  65.8120732 133.2708861  47.3698113  65.5461185 133.4658937  48.8473484
  64.0371199 125.5608339  63.1050770  63.3611836 125.4602469  63.7753145
  64.8598833 125.4047553  63.5686767  55.7850058 131.7980276  55.7263285
  56.3703495 131.0523964  55.8591189  55.5874897 132.1084233  56.6099949
  58.6388714 134.8331523  50.7425727  57.9699089 135.3177651  50.2589767
  58.5001583 135.0800744  51.6569106  50.3767713 124.3685876  54.4467728
  50.4151813 123.8349467  55.2404846  49.8708006 123.8421082  53.8278705
  62.7793982 136.8675267  57.3408386  63.3312290 137.0306888  58.1057471
  63.1200176 137.4579705  56.6688410  57.7558475 119.2150417  57.9430270
  57.8199802 120.0765248  57.5307668  57.6925596 118.6024418  57.2102629
  57.2310748 121.2873549  61.5903305  57.8582787 120.9050626  62.2040829
  56.3738667 121.0687751  61.9558997  67.6304857 131.6936524  63.1957040
  68.1744761 132.3066483  62.7011995  67.0491701 132.2516103  63.7124053
  54.0076291 123.0949978  47.5221659  54.3029732 122.1860657  47.4688713
  53.1064327 123.0737718  47.2002662  65.9162370 134.8157242  54.3272068
  65.7913509 134.0146982  53.8183013  66.5741461 135.3103436  53.8386038
  57.5370538 121.1705975  53.5049208  56.8157124 121.7841943  53.3656681
  58.3263794 121.7063740  53.4265854  67.9797278 132.6166262  55.9551618
  67.0327613 132.4971614  55.8829945  68.3280051 131.7288760  56.0377879
  60.3396851 118.5060401  59.7789860  60.8631253 118.7522698  60.5416169
  60.1209185 119.3380436  59.3592997  55.7364132 120.7764076  47.6460984
  55.4076839 119.8961455  47.4636090  56.0903503 120.7211745  48.5337374
  64.9843711 132.4118979  52.1555970  64.8368674 131.4835686  52.3363540
  65.8097205 132.4339069  51.6713045  58.8505956 121.0637046  48.0136462
  59.1902028 121.5922967  47.2915071  59.2978076 121.4017452  48.7895029
  68.5877833 133.2347537  53.2420843  69.5124381 133.0290399  53.1045294
  68.4193136 132.9863939  54.1510184  61.5449396 119.4474096  57.4639530
  61.2046217 118.6481910  57.8660210  60.8388403 119.7475807  56.8916363
  62.1965868 116.5323409  55.9166853  63.0191937 116.0583887  55.7945744
  62.4403932 117.3113893  56.4165540  60.8374103 119.5611667  46.2129755
  61.5582465 119.9392920  45.7093472  60.2139407 120.2800544  46.3164733
  64.9805226 120.2656816  47.1488087  65.1968840 121.1481454  46.8476915
  64.4999293 119.8743030  46.4193729  59.7204447 123.2242530  53.7258832
  59.5749028 123.5382833  54.6183113  59.2429651 123.8427430  53.1729731
  61.5800830 120.2145078  53.7739721  61.5662399 119.3186171  53.4372019
  62.2973258 120.2215741  54.4078007  63.4326961 120.6482418  55.8192849
  63.1744738 121.5699488  55.8177179  62.9012001 120.2512852  56.5093313
  68.3773149 133.7533205  48.5982934  68.5510027 133.1879627  47.8456787
  68.8702041 134.5534100  48.4162424  54.1950109 125.7647874  56.6646493
  53.6503577 126.5407682  56.7966767  55.0729459 126.1118678  56.5065614
  60.9837726 119.0959458  49.0427292  61.1053637 118.1676104  49.2418179
  60.6939768 119.1098144  48.1305607  63.8528916 116.7814368  52.1794011
  63.8750613 116.8453701  51.2245991  64.2696975 115.9418877  52.3734518
  74.2312540 126.5169628  50.2173234  74.6743686 125.7676953  49.8192357
  73.3539051 126.5079764  49.8346966  69.3648322 133.0699969  45.6979833
  70.0599226 133.6906662  45.9167147  69.7071472 132.2195320  45.9732210
  54.9816131 124.8917770  59.5576650  54.2397867 125.0400406  60.1441280
  54.6608875 125.1526036  58.6943399  71.2639745 130.5199675  47.2267163
  71.7891069 130.8586948  46.5016483  71.1762097 129.5846690  47.0430298
  62.9259794 134.4333748  59.3557040  63.2346920 134.1882895  60.2279740
  63.7235276 134.6380387  58.8675910  62.9480406 136.5871658  51.5862416
  62.5085396 136.0948037  52.2795273  63.6988523 136.0444626  51.3454492
  55.4272745 132.7783199  51.5887045  56.2530765 132.4786971  51.2085688
  55.0766797 132.0090821  52.0376833  60.3954278 132.1309667  53.6584718
  59.7734287 131.4680372  53.3586946  61.0659145 132.1570799  52.9758366
  53.6281350 130.6969525  52.5475978  52.7913258 130.2691700  52.3659979
  53.6004995 130.8901969  53.4846769  60.4678805 120.6091455  63.2517224
  60.5166961 121.4853578  62.8694994  61.0101319 120.0668848  62.6788867
  70.9533651 131.1532578  62.5318361  70.1629195 131.1356717  61.9922861
  70.7167006 131.6920872  63.2867398  71.0731526 128.0025045  59.8451090
  71.1229531 127.8375052  60.7866613  70.9645449 127.1352304  59.4548971
  59.9567785 130.6813590  47.1343179  60.1055905 131.3649055  46.4809851
  60.7634228 130.6618681  47.6492634  68.3635288 123.9855973  61.1610396
  69.2645151 123.8462438  60.8694394  68.4383263 124.1510428  62.1008574
  62.6978094 121.3622828  60.0063583  61.8281403 121.6556394  59.7346171
  62.9337574 121.9463273  60.7270846  72.5749723 130.4221986  60.0893111
  72.2834531 130.7851967  60.9256572  71.9621854 129.7088995  59.9106443
  73.7745405 127.9874866  52.6095682  74.6092297 128.4264670  52.7733242
  73.9104534 127.5113519  51.7903927  70.8236911 125.5454601  58.5573169
  71.2991033 125.7382247  57.7492021  69.9002476 125.6013787  58.3116553
  57.7120418 126.7078768  48.1404248  57.4666460 125.8041098  48.3384458
  57.8816332 126.7095919  47.1983726  65.4017128 117.5802444  57.5229003
  65.9199071 118.3163471  57.1975492  65.0472260 117.8866438  58.3575762
  56.9816065 122.4407126  45.6390409  56.2885310 122.5151481  44.9830445
  56.7367817 121.6767469  46.1611926  65.6529722 114.0002727  53.0429900
  65.9331475 113.3325916  53.6690326  66.4380329 114.1931823  52.5304564
  63.4563190 133.1761721  44.6054926  62.8837157 133.7951908  44.1525398
  64.0295984 133.7261083  45.1394848  69.5238580 122.4220361  56.7901475
  70.4756003 122.5218459  56.8113699  69.3542030 121.6298630  57.2999559
  67.5452960 119.5075944  56.9760876  66.9502892 119.7880957  56.2807364
  67.2602656 119.9969845  57.7477617  66.6760450 133.4598871  45.7363508
  67.6091123 133.3944433  45.9396384  66.5883663 134.2955138  45.2778041
  69.3048467 132.7764741  42.6967456  69.2262098 132.4424605  43.5903214
  70.1258133 133.2686509  42.6958928  72.0026658 125.6426481  55.9043775
  71.9702978 124.7042481  56.0903458  72.6127282 125.7210517  55.1709599
  63.8409989 124.5122534  41.9470979  64.7869093 124.3828742  42.0159397
  63.4624234 123.7737196  42.4240407  72.1521146 122.4337524  55.9502058
  71.6360195 121.6495981  55.7631987  73.0361095 122.1056241  56.1148577
  69.8131873 116.1778540  51.9097870  69.6156694 115.8693628  52.7941202
  70.4231579 116.9040179  52.0395800  77.8203208 126.7042488  55.0449811
  78.5506596 126.4427776  55.6057515  77.2110153 125.9671209  55.0851879
  75.9018505 124.8450350  55.6424263  75.1751668 124.7106315  55.0340754
  75.4865792 125.1527179  56.4480981  63.7248681 128.5640280  63.4071636
  64.6451691 128.7418879  63.6011682  63.6898264 127.6196325  63.2551335
  62.0252906 122.4372510  41.8825864  61.1184361 122.1405623  41.9588577
  62.3028887 122.1402328  41.0160150  52.9430846 123.7578873  52.3324910
  52.6233631 122.9044182  52.0399284  52.3964274 123.9727452  53.0882878
  56.7210754 126.4741314  56.0494417  56.9396764 127.4058422  56.0682451
  57.1336528 126.1149289  56.8349221  63.6414972 116.9809400  48.0370105
  62.8315700 116.6356485  48.4125351  64.3299389 116.6716944  48.6257717
  65.5705520 116.0587447  49.6594402  66.1236558 116.4782900  50.3184425
  65.8075606 115.1323195  49.7017358  61.5938619 122.0474520  65.4397166
  61.4935346 122.9968877  65.3709257  61.3760161 121.7192759  64.5673236
  60.7951690 119.2959445  42.0237843  61.6570854 119.6214344  42.2833660
  60.9802035 118.5090941  41.5110909  52.8119106 127.3781785  54.3018032
  52.1182578 126.9635738  53.7887986  53.5592097 127.4202321  53.7051451
  68.9484327 118.1687972  49.1673066  68.3682996 118.8272776  48.7851118
  68.6820260 117.3465316  48.7560484  67.3987893 117.5693029  51.3694386
  67.8987672 117.6809564  50.5608705  68.0423501 117.2654082  52.0095195
  61.4569889 125.4771659  64.2562227  60.9736971 126.2772019  64.4626116
  61.5430828 125.4879604  63.3029671  54.7255849 127.3100039  52.1784047
  54.7026537 127.4087726  51.2265930  55.0356485 128.1565190  52.5001213
  57.3843227 129.3676194  56.2930661  58.3386480 129.3360136  56.2260593
  57.1855750 128.9066818  57.1080887  57.9742609 127.9377310  58.8601459
  58.7935498 128.4321388  58.8836296  58.2479416 127.0209278  58.8319026
  67.7309205 120.3288062  48.2229414  66.8435060 120.6137713  48.0049609
  68.1463194 120.1681825  47.3756691  71.0823741 120.3534583  51.9383754
  71.8584131 120.8431036  52.2108370  70.3571875 120.7792637  52.3955623
  73.5196300 121.0662202  52.9957694  74.1140791 120.8257938  52.2851002
  73.5922883 120.3469333  53.6231230  55.7393455 134.9095813  53.3100859
  55.6047923 134.1496214  52.7438857  55.3225518 135.6336713  52.8429648
  66.8752418 130.0932737  42.3177434  67.5788269 130.2982739  42.9335090
  66.1515067 130.6609499  42.5826518  67.7050229 125.8442598  48.4379704
  67.6485430 126.3011149  47.5987337  68.2578571 125.0833283  48.2602547
  71.5155035 121.6332330  49.2629824  71.2591969 121.2328966  50.0938032
  70.8907903 122.3476124  49.1379963  75.8267372 124.3728403  51.7701115
  75.2666930 124.4421592  52.5432677  75.2210876 124.1969388  51.0500612
  58.8962581 135.8065130  53.5219302  58.7794965 136.7510563  53.4197992
  58.0755028 135.5038692  53.9105101  68.7839116 130.5315266  44.3675894
  69.6184720 130.0996464  44.1853369  68.6223459 130.3597280  45.2952789
  68.4385008 127.0347379  45.7332234  68.3833812 126.8691651  44.7920678
  67.8131063 127.7423412  45.8894423  53.2277523 122.2715444  59.5593656
  53.8736387 121.7614398  60.0480881  53.0194674 123.0084125  60.1337081
  65.7530915 129.3396291  65.0585796  66.6222075 129.5136943  64.6972431
  65.2737667 130.1590708  64.9361526  61.7481134 116.5355488  45.3117552
  61.7359803 117.4797328  45.4685823  62.6404555 116.3525634  45.0177013
  59.9217095 136.4593392  56.7375230  60.8244342 136.4917002  57.0541725
  59.6954466 135.5293843  56.7521566  61.6770697 135.2124379  53.3985309
  60.7266328 135.2126240  53.2849681  61.9803184 134.4657113  52.8821343
  65.5633253 113.1298265  49.5663489  64.7965649 112.5756752  49.7120171
  65.9743958 113.2020134  50.4277640  57.5675014 119.4183061  63.6568670
  58.4306476 119.0619866  63.8671995  56.9940425 119.0796956  64.3444074
  77.4123391 141.0484917  54.4631071  78.0501801 140.9291664  53.7594411
  77.2944234 141.9965761  54.5219023  74.2213097 141.0012345  54.3992596
  73.8831609 140.8853410  53.5113131  75.0902865 140.6003510  54.3793602
  70.0799913 142.8547822  50.3889487  69.5164778 142.7637759  49.6205774
  69.9652308 142.0347726  50.8691979  74.7032880 142.1547197  60.3578801
  74.6921521 141.7599995  59.4859305  74.8653520 141.4213270  60.9512573
  67.6264345 144.3499013  53.2273707  68.4185637 144.0089838  52.8120006
  67.8660995 144.4593988  54.1475860  75.6599472 146.5218789  45.7003952
  75.0087451 147.1072870  45.3137965  76.4543834 147.0524984  45.7598989
  69.5855099 143.6107926  46.0991086  70.3585975 143.0636914  45.9603962
  69.9380498 144.4752176  46.3105547  71.4240141 144.9384309  59.3057985
  71.1330007 145.8429940  59.1904652  72.0597126 144.9800836  60.0202055
  72.3496348 142.3161157  55.8959345  72.9459920 142.0917180  55.1816308
  72.4071320 141.5745903  56.4984793  71.9221377 139.7700593  43.7309536
  72.1746897 139.2482114  42.9692999  70.9845936 139.6066738  43.8336219
  76.9664659 138.7736371  51.5384279  77.7527749 138.3555794  51.1874696
  77.2303364 139.6782463  51.7065927  77.1374737 144.2109221  46.2372936
  76.5020570 144.2843848  46.9493841  76.8072143 144.8002820  45.5592015
  82.3673087 138.7111604  52.4417258  83.0998259 138.1410821  52.6755087
  81.6112442 138.3233205  52.8823763  71.6417665 141.6728699  45.9333911
  71.5253923 140.9973602  46.6014995  71.7519925 141.1861072  45.1166064
  73.9849206 141.1338846  49.6380600  73.6207414 140.6069467  50.3493522
  74.8416322 140.7437315  49.4647085  79.8898507 132.4233178  56.9011866
  79.5581832 133.2928589  56.6773081  79.2944120 132.1069462  57.5805897
  73.6254693 136.1628745  44.6341949  73.7929096 137.0308982  45.0012420
  73.4351862 136.3256027  43.7103238  76.3830026 144.6245724  56.3007779
  76.0830750 145.5270763  56.1923586  76.0381086 144.3577907  57.1528932
  69.8342508 141.0759521  52.3344483  68.9093004 140.9435735  52.5422175
  70.0826921 141.8553740  52.8314426  79.7827170 137.1428264  53.9805216
  78.8744048 137.0743673  53.6863977  79.7314766 137.6200209  54.8087042
  73.6043914 138.6186403  45.6188615  73.4843539 139.0643454  46.4574096
  72.9096503 138.9671721  45.0602154  67.1951319 140.7192795  53.1688272
  67.3243700 140.9727274  54.0827684  66.5148770 141.3120503  52.8492928
  71.3650806 151.3890045  49.2678747  71.2874836 152.3397870  49.3467227
  70.7612450 151.0435917  49.9253673  73.8568036 138.5617910  61.9240114
  73.0801370 139.1211830  61.9142978  74.4958599 139.0474693  62.4454984
  81.6488817 135.3444703  55.7583090  81.0063197 135.6377236  55.1122885
  81.1443745 135.2297623  56.5636287  79.3028980 139.0907876  46.4468949
  80.2146836 139.3235263  46.2716647  78.7938627 139.6744920  45.8844028
  72.1114408 141.3703363  61.4858081  72.8529093 141.9088407  61.2092904
  71.4051394 141.9969652  61.6429632  77.5869748 143.5132504  60.0830242
  77.9953104 143.0714914  59.3384874  76.8647009 142.9385131  60.3364435
  73.9400818 138.4505111  57.4563799  74.7862013 138.8744524  57.5998448
  73.8799456 137.7938735  58.1502362  77.9098563 144.0733694  53.8382531
  77.2807425 144.2379409  53.1358599  77.5224225 144.4875304  54.6093495
  81.7887795 145.0088132  51.1926895  81.1038833 145.3887034  50.6423928
  81.8731644 145.6183459  51.9258842  77.0900263 136.1109479  59.1144973
  76.8461195 136.8651540  58.5779248  77.3660194 136.4894827  59.9492220
  79.0438726 142.6548091  57.7922238  79.2555621 143.2979851  57.1156619
  78.9968474 141.8210408  57.3244168  76.6464955 135.2665912  54.6958810
  75.7849434 135.5647166  54.9875548  76.6727390 135.4836311  53.7639843
  73.4626524 143.8108103  51.1032616  73.9264870 144.0895806  50.3137239
  73.1983323 142.9091547  50.9205707  70.3550606 143.3579584  54.0412379
  70.9251963 143.7866852  53.4029864  70.9458717 143.0762169  54.7396565
  72.3995411 139.9331255  47.9122181  73.1019454 140.3852299  48.3796108
  72.0676039 139.2915074  48.5402074  70.8475772 138.5243012  62.2873391
  70.2174433 139.2059292  62.5208787  70.7411860 138.4126093  61.3426529
  66.1420744 138.1914808  53.2139315  65.3519798 138.4472336  52.7379425
  66.6331992 139.0063145  53.3191355  80.1584554 145.5320047  55.9644596
  80.9801998 145.1300234  55.6827277  80.1546957 145.4288281  56.9160711
  68.0935490 138.5559387  50.1722791  67.2966653 138.6678081  50.6906287
  67.8661082 138.8946039  49.3063682  73.9241158 145.0804090  58.1205306
  73.9885590 145.5424497  58.9563478  73.2152081 144.4501455  58.2487616
  64.4258447 138.4445298  55.6454306  64.6766486 139.3292308  55.9111881
  64.9617996 138.2649900  54.8729397  88.2490547 141.8758795  52.3129567
  87.4954255 141.3066193  52.1573571  88.3838088 141.8421460  53.2600202
  73.6389175 146.7472198  47.9884286  73.5034850 147.5923733  48.4169134
  74.1798988 146.9491475  47.2250220  70.1256515 132.8263777  64.6498642
  69.7323460 132.2729976  65.3246286  70.9422655 133.1374356  65.0405159
  67.0918573 144.2647636  48.5612211  67.6043093 145.0590886  48.7117776
  67.7441285 143.5673926  48.4945813  68.9013457 147.3813392  50.6434965
  69.0780086 148.3031357  50.4555949  69.6970291 147.0671811  51.0729344
  73.0424476 134.2421656  62.2418898  73.7834189 134.8428810  62.1623361
  73.2742399 133.4999294  61.6836941  68.1865814 139.4278024  60.5197128
  68.0719329 138.5263281  60.8204227  67.3310332 139.6741721  60.1681944
  75.2657652 147.3695764  62.1184628  74.8221506 146.5832143  61.8005533
  75.9274865 147.5574915  61.4528519  70.0244773 148.8991566  56.6445307
  70.5752198 148.7708629  55.8722301  69.1856249 149.1986455  56.2940200
  77.3638890 147.6498564  60.1466030  77.3457365 148.4707445  59.6546299
  78.2858810 147.5252639  60.3716171  73.8211944 145.1642693  60.9889538
  74.3540281 144.4030982  60.7588846  73.2926025 144.8716345  61.7313693
  76.9881639 130.2702759  56.5183180  76.6445908 131.1604401  56.4422290
  77.3560601 130.0804417  55.6552765  65.0567489 142.5936290  49.3371782
  65.8942711 143.0033298  49.1205490  65.2345757 141.6535732  49.3071976
  76.9531921 140.2611371  45.0255615  76.4378545 141.0315975  45.2644002
  76.6809230 139.5876507  45.6488676  74.5379032 135.1061071  50.0840853
  73.6820629 134.7167922  49.9046492  74.9505984 135.1853032  49.2240639
  76.0678179 132.6407415  54.4832413  75.5642975 132.6037550  53.6700218
  76.3608786 133.5500157  54.5429070  72.3121065 132.7246144  53.4898595
  73.1774062 132.5288953  53.1304484  72.3798574 132.4956496  54.4167952
  81.9266196 143.0143725  46.9608788  81.1495638 142.6754885  46.5163951
  82.6057677 143.0196348  46.2863753  76.7418225 138.1338463  46.8515396
  76.4368360 138.4484612  47.7025539  77.6948667 138.2119883  46.8942729
  75.1864656 144.2928686  48.5008350  74.6586018 143.5581446  48.1881588
  74.6852159 145.0703362  48.2548318  80.1657502 142.4877706  53.6175396
  79.5081177 143.1776968  53.7055525  80.9697902 142.8774138  53.9609383
  69.9183384 134.9548352  50.8614962  70.4927136 134.7323534  50.1288155
  70.5054367 135.0237047  51.6143563  78.9762961 140.8422079  51.6679338
  79.4894843 141.4752071  52.1701048  79.6264185 140.2423275  51.3022698
  70.2452971 136.9852813  44.8810847  69.4090283 137.3227500  45.2020122
  70.1057741 136.8501793  43.9437984  72.2206052 131.8289601  49.5890031
  71.5670464 131.5138618  48.9646646  72.1786526 131.2065342  50.3149854
  73.3317257 142.1108896  41.5043323  72.4244318 141.8798150  41.7034472
  73.8288289 141.3146515  41.6917305  76.2385336 150.8206403  44.4240009
  75.5647034 151.1238100  45.0324967  76.6251158 151.6235484  44.0745466
  75.4543792 138.3171535  53.9137679  74.5366354 138.5386482  53.7559367
  75.8703936 138.3917845  53.0549386  76.2378840 139.7162950  49.0440359
  76.9850659 140.2284348  48.7347481  76.5070429 139.3947003  49.9044753
  74.5105490 142.2121491  46.0267313  73.6016709 141.9280524  46.1239783
  74.5400574 142.6320570  45.1670620  79.7424758 145.8228081  49.7958481
  79.2887085 144.9818990  49.8523671  79.1118724 146.4589479  50.1333261
  78.6857677 136.7520067  51.0259148  77.9480434 136.2397453  51.3569391
  78.9384451 136.3120448  50.2142425  78.1857697 147.6604577  50.7308299
  78.4780671 148.2209634  50.0120665  78.6956317 147.9533138  51.4861458
  78.7869304 129.5296319  51.6200918  79.0928181 128.6693682  51.3326833
  79.5121909 130.1213939  51.4199911  65.0793660 139.9327005  50.0082515
  64.8818060 139.3396366  49.2833582  64.5240324 139.6279215  50.7258454
  73.0590384 139.8250112  52.1277109  73.1138994 138.8723948  52.0519585
  72.2481586 139.9809551  52.6118407  74.2081578 143.7530235  43.3655392
  73.7701008 143.0366094  42.9061029  74.9492019 143.9806350  42.8040483
  70.9982744 138.4427171  49.8867487  70.1850610 138.7421342  50.2932680
  71.4941738 138.0482860  50.6041970  73.1491322 148.4384928  51.8201752
  73.1067501 148.6645775  50.8910284  74.0654021 148.2048303  51.9687553
  76.5956956 138.9068996  58.7182381  76.9506343 139.1340469  59.5776847
  77.2429087 139.2387373  58.0959637  82.3254693 142.0287432  49.4231710
  82.1872591 142.2189028  48.4952900  81.9690911 142.7906815  49.8799762
  70.4896819 136.0145527  55.5028722  71.1296198 135.8734286  54.8051686
  69.6574349 135.7280040  55.1267324  82.3524072 144.0963959  54.4342982
  82.7860579 144.0039248  55.2826036  83.0655653 144.0721459  53.7962998
  71.2657123 145.3147957  51.6163715  72.0597721 144.8198278  51.4146290
  70.5548815 144.7865821  51.2531420  76.0851967 147.6966053  55.9676082
  76.1388989 148.2656989  56.7353798  75.2166749 147.8667938  55.6030120
  67.5739886 139.4591039  47.6923468  66.6437474 139.3975495  47.9093430
  67.6697358 138.9366992  46.8960109  67.4925435 135.9845852  50.2801709
  67.7532253 136.8991185  50.1710870  68.3142608 135.5170295  50.4298322
  68.9650361 137.3983609  57.4500534  69.6373414 137.1900971  56.8013183
  68.1380147 137.2005695  57.0105766  83.2139622 144.1387659  56.9675867
  83.4075512 145.0433470  57.2135142  83.1140240 143.6795079  57.8014452
  74.8675933 134.0245550  59.4666195  74.2203848 134.7235500  59.3730671
  75.6376948 134.4581694  59.8342443  78.2754731 144.2894402  62.5416748
  78.1240237 144.0604954  61.6246832  78.2659410 145.2465004  62.5548093
  75.0440067 141.8626315  57.5263014  75.9732127 142.0137475  57.3531982
  74.6231097 141.9510336  56.6711661  73.8428399 145.8876979  55.2961552
  73.7039484 145.5195764  56.1687490  73.0542995 146.4024619  55.1245510
  74.4376551 150.9886076  46.6387088  74.6128306 150.5174119  47.4532711
  73.7509339 151.6151842  46.8668349  75.3933614 145.2658582  52.6850390
  75.0583446 145.2259352  53.5808040  74.8937560 144.6003298  52.2120800
  69.3677858 140.6726212  58.2102971  69.2297656 139.9406451  58.8114510
  70.2782781 140.5835112  57.9287159  78.3292806 142.6114616  42.9587449
  77.7121976 141.8861445  42.8620502  77.8609294 143.3723977  42.6154524
  71.9960158 140.3846171  57.6986651  72.7059777 139.7439364  57.6573269
  71.9529467 140.6359066  58.6212831  79.9846937 147.3213525  60.6193230
  79.9259483 146.6372745  59.9523813  80.3866456 148.0632515  60.1673856
  70.7089092 137.3711389  59.5182290  70.1726449 136.9202128  60.1703886
  70.1205801 137.5057298  58.7752754  69.0037636 154.1375439  53.4126949
  69.2434234 154.7693963  54.0905967  68.1606832 153.7863479  53.6992308
  70.1191351 136.8300041  42.0808754  69.2420818 136.7088841  41.7171000
  70.5949104 136.0386119  41.8287642  79.9864344 145.2853109  58.8507209
  79.0991123 144.9479030  58.9733608  80.5562895 144.5536140  59.0875975
  61.6393492 141.6177200  52.1750261  62.3264531 141.3038930  51.5871276
  61.4841620 142.5218565  51.9017512  66.4428214 136.5067397  56.6035285
  66.3586402 135.8993067  55.8685694  65.6210920 136.9976415  56.6044781
  73.5165498 149.9454561  55.8168453  73.4435669 150.7509533  56.3287757
  73.0742891 150.1446527  54.9916474  73.3055277 149.1826331  49.3271274
  72.5222799 149.7248011  49.4209499  74.0048023 149.7000311  49.7265515
  76.6151928 134.9920961  51.9705480  77.1120627 134.2390923  51.6506550
  75.8438909 135.0285277  51.4048689  84.4681685 140.6961326  53.6123771
  84.4571561 141.5786041  53.2417704  83.5999064 140.3432877  53.4178308
  75.9764181 149.8441395  57.9726611  76.6892154 150.4788860  57.9002513
  75.4854210 149.9405261  57.1566613  77.6981708 143.7492648  49.5443903
  76.7637987 143.8694110  49.3748607  77.8758377 142.8465115  49.2803913
  73.1986896 137.1338344  51.6977164  72.8284684 136.5809384  52.3858070
  73.6945989 136.5296477  51.1452164  81.0854260 139.5909967  50.0793937
  81.5514712 140.4237959  50.0054240  81.5361760 139.1254949  50.7839196
  71.0276095 147.5935839  58.7932182  71.7285554 148.2272322  58.9461576
  70.5571210 147.9350570  58.0327821  79.1530491 145.9353788  47.0780089
  79.4290335 145.8210383  47.9873963  78.2834989 145.5371273  47.0392262
  79.0570922 131.9590554  54.1184838  78.1434002 132.1894781  54.2867045
  79.4864024 132.0428998  54.9698871  78.8277381 140.1480446  56.6184732
  78.1748831 140.3956353  55.9637185  79.2057761 139.3344584  56.2847210
  75.7884555 150.1840139  50.7212903  75.9706949 149.3661795  51.1840655
  76.6117541 150.4007831  50.2837793  76.1226720 149.1108324  47.9827951
  76.6514487 148.6000779  47.3698113  76.3854940 148.7950855  48.8473484
  74.8764954 140.8900257  63.1050770  74.2005591 140.7894386  63.7753145
  75.6992588 140.7339471  63.5686767  66.6243813 147.1272194  55.7263285
  67.2097250 146.3815881  55.8591189  66.4268651 147.4376150  56.6099949
  69.4782468 150.1623441  50.7425727  68.8092843 150.6469569  50.2589767
  69.3395338 150.4092661  51.6569106  61.2161468 139.6977794  54.4467728
  61.2545567 139.1641384  55.2404846  60.7101760 139.1712999  53.8278705
  73.6187737 152.1967184  57.3408386  74.1706045 152.3598806  58.1057471
  73.9593930 152.7871622  56.6688410  68.5952230 134.5442334  57.9430270
  68.6593556 135.4057165  57.5307668  68.5319350 133.9316336  57.2102629
  68.0704503 136.6165467  61.5903305  68.6976541 136.2342544  62.2040829
  67.2132421 136.3979669  61.9558997  78.4698611 147.0228442  63.1957040
  79.0138515 147.6358400  62.7011995  77.8885456 147.5808020  63.7124053
  64.8470045 138.4241896  47.5221659  65.1423486 137.5152574  47.4688713
  63.9458081 138.4029635  47.2002662  76.7556124 150.1449160  54.3272068
  76.6307263 149.3438900  53.8183013  77.4135215 150.6395353  53.8386038
  68.3764292 136.4997893  53.5049208  67.6550878 137.1133860  53.3656681
  69.1657548 137.0355657  53.4265854  78.8191032 147.9458180  55.9551618
  77.8721368 147.8263531  55.8829945  79.1673806 147.0580678  56.0377879
  71.1790606 133.8352319  59.7789860  71.7025008 134.0814616  60.5416169
  70.9602939 134.6672354  59.3592997  66.5757887 136.1055994  47.6460984
  66.2470593 135.2253373  47.4636090  66.9297258 136.0503662  48.5337374
  75.8237466 147.7410896  52.1555970  75.6762428 146.8127604  52.3363540
  76.6490959 147.7630987  51.6713045  69.6899710 136.3928963  48.0136462
  70.0295783 136.9214885  47.2915071  70.1371830 136.7309370  48.7895029
  79.4271588 148.5639455  53.2420843  80.3518135 148.3582316  53.1045294
  79.2586891 148.3155856  54.1510184  72.3843151 134.7766014  57.4639530
  72.0439971 133.9773827  57.8660210  71.6782157 135.0767725  56.8916363
  73.0359623 131.8615327  55.9166853  73.8585692 131.3875805  55.7945744
  73.2797686 132.6405810  56.4165540  71.6767857 134.8903585  46.2129755
  72.3976220 135.2684838  45.7093472  71.0533161 135.6092462  46.3164733
  75.8198980 135.5948734  47.1488087  76.0362594 136.4773372  46.8476915
  75.3393047 135.2034947  46.4193729  70.5598201 138.5534447  53.7258832
  70.4142782 138.8674750  54.6183113  70.0823405 139.1719348  53.1729731
  72.4194584 135.5436995  53.7739721  72.4056153 134.6478088  53.4372019
  73.1367012 135.5507659  54.4078007  74.2720715 135.9774335  55.8192849
  74.0138493 136.8991406  55.8177179  73.7405755 135.5804770  56.5093313
  79.2166904 149.0825122  48.5982934  79.3903781 148.5171545  47.8456787
  79.7095795 149.8826017  48.4162424  65.0343864 141.0939792  56.6646493
  64.4897332 141.8699600  56.7966767  65.9123213 141.4410596  56.5065614
  71.8231480 134.4251375  49.0427292  71.9447391 133.4968022  49.2418179
  71.5333523 134.4390061  48.1305607  74.6922671 132.1106286  52.1794011
  74.7144367 132.1745619  51.2245991  75.1090730 131.2710795  52.3734518
  85.0706295 141.8461545  50.2173234  85.5137441 141.0968871  49.8192357
  84.1932805 141.8371682  49.8346966  80.2042076 148.3991887  45.6979833
  80.8992981 149.0198580  45.9167147  80.5465226 147.5487238  45.9732210
  65.8209885 140.2209688  59.5576650  65.0791621 140.3692323  60.1441280
  65.5002630 140.4817953  58.6943399  82.1033499 145.8491592  47.2267163
  82.6284823 146.1878865  46.5016483  82.0155852 144.9138608  47.0430298
  73.7653548 149.7625666  59.3557040  74.0740675 149.5174813  60.2279740
  74.5629030 149.9672305  58.8675910  73.7874160 151.9163576  51.5862416
  73.3479150 151.4239954  52.2795273  74.5382277 151.3736543  51.3454492
  66.2666499 148.1075117  51.5887045  67.0924519 147.8078888  51.2085688
  65.9160551 147.3382739  52.0376833  71.2348032 147.4601585  53.6584718
  70.6128042 146.7972290  53.3586946  71.9052899 147.4862717  52.9758366
  64.4675104 146.0261443  52.5475978  63.6307012 145.5983617  52.3659979
  64.4398750 146.2193886  53.4846769  71.3072560 135.9383373  63.2517224
  71.3560715 136.8145496  62.8694994  71.8495074 135.3960766  62.6788867
  81.7927405 146.4824496  62.5318361  81.0022949 146.4648635  61.9922861
  81.5560760 147.0212790  63.2867398  81.9125280 143.3316962  59.8451090
  81.9623285 143.1666970  60.7866613  81.8039204 142.4644221  59.4548971
  70.7961539 146.0105508  47.1343179  70.9449660 146.6940973  46.4809851
  71.6027983 145.9910598  47.6492634  79.2029043 139.3147890  61.1610396
  80.1038906 139.1754355  60.8694394  79.2777017 139.4802345  62.1008574
  73.5371848 136.6914745  60.0063583  72.6675158 136.9848311  59.7346171
  73.7731329 137.2755190  60.7270846  83.4143477 145.7513904  60.0893111
  83.1228286 146.1143885  60.9256572  82.8015609 145.0380912  59.9106443
  84.6139160 143.3166784  52.6095682  85.4486051 143.7556588  52.7733242
  84.7498288 142.8405437  51.7903927  81.6630666 140.8746519  58.5573169
  82.1384787 141.0674165  57.7492021  80.7396231 140.9305704  58.3116553
  68.5514172 142.0370686  48.1404248  68.3060214 141.1333016  48.3384458
  68.7210087 142.0387836  47.1983726  76.2410882 132.9094362  57.5229003
  76.7592826 133.6455389  57.1975492  75.8866015 133.2158355  58.3575762
  67.8209820 137.7699043  45.6390409  67.1279065 137.8443398  44.9830445
  67.5761572 137.0059387  46.1611926  76.4923476 129.3294645  53.0429900
  76.7725230 128.6617834  53.6690326  77.2774083 129.5223740  52.5304564
  74.2956945 148.5053639  44.6054926  73.7230912 149.1243826  44.1525398
  74.8689738 149.0553000  45.1394848  80.3632335 137.7512279  56.7901475
  81.3149757 137.8510376  56.8113699  80.1935785 136.9590547  57.2999559
  78.3846714 134.8367862  56.9760876  77.7896646 135.1172875  56.2807364
  78.0996411 135.3261763  57.7477617  77.5154204 148.7890789  45.7363508
  78.4484878 148.7236350  45.9396384  77.4277417 149.6247056  45.2778041
  80.1442221 148.1056659  42.6967456  80.0655853 147.7716523  43.5903214
  80.9651888 148.5978427  42.6958928  82.8420412 140.9718398  55.9043775
  82.8096732 140.0334399  56.0903458  83.4521036 141.0502435  55.1709599
  74.6803743 139.8414451  41.9470979  75.6262848 139.7120659  42.0159397
  74.3017988 139.1029113  42.4240407  82.9914901 137.7629442  55.9502058
  82.4753949 136.9787898  55.7631987  83.8754849 137.4348158  56.1148577
  80.6525628 131.5070457  51.9097870  80.4550449 131.1985546  52.7941202
  81.2625333 132.2332096  52.0395800  88.6596962 142.0334405  55.0449811
  89.3900351 141.7719693  55.6057515  88.0503908 141.2963127  55.0851879
  86.7412259 140.1742268  55.6424263  86.0145423 140.0398233  55.0340754
  86.3259546 140.4819096  56.4480981  74.5642436 143.8932197  63.4071636
  75.4845445 144.0710796  63.6011682  74.5292019 142.9488243  63.2551335
  72.8646660 137.7664428  41.8825864  71.9578116 137.4697540  41.9588577
  73.1422641 137.4694246  41.0160150  63.7824601 139.0870791  52.3324910
  63.4627385 138.2336099  52.0399284  63.2358029 139.3019369  53.0882878
  67.5604508 141.8033232  56.0494417  67.7790518 142.7350340  56.0682451
  67.9730282 141.4441207  56.8349221  74.4808726 132.3101317  48.0370105
  73.6709454 131.9648402  48.4125351  75.1693143 132.0008861  48.6257717
  76.4099274 131.3879364  49.6594402  76.9630313 131.8074818  50.3184425
  76.6469361 130.4615112  49.7017358  72.4332374 137.3766438  65.4397166
  72.3329100 138.3260795  65.3709257  72.2153916 137.0484677  64.5673236
  71.6345445 134.6251363  42.0237843  72.4964609 134.9506261  42.2833660
  71.8195789 133.8382859  41.5110909  63.6512861 142.7073703  54.3018032
  62.9576332 142.2927655  53.7887986  64.3985852 142.7494239  53.7051451
  79.7878081 133.4979889  49.1673066  79.2076751 134.1564693  48.7851118
  79.5214014 132.6757234  48.7560484  78.2381648 132.8984947  51.3694386
  78.7381426 133.0101482  50.5608705  78.8817256 132.5946000  52.0095195
  72.2963644 140.8063577  64.2562227  71.8130725 141.6063937  64.4626116
  72.3824583 140.8171522  63.3029671  65.5649603 142.6391956  52.1784047
  65.5420291 142.7379644  51.2265930  65.8750240 143.4857107  52.5001213
  68.2236981 144.6968111  56.2930661  69.1780235 144.6652054  56.2260593
  68.0249505 144.2358735  57.1080887  68.8136363 143.2669227  58.8601459
  69.6329252 143.7613306  58.8836296  69.0873171 142.3501196  58.8319026
  78.5702959 135.6579980  48.2229414  77.6828815 135.9429630  48.0049609
  78.9856949 135.4973743  47.3756691  81.9217496 135.6826501  51.9383754
  82.6977886 136.1722953  52.2108370  81.1965630 136.1084555  52.3955623
  84.3590054 136.3954120  52.9957694  84.9534545 136.1549856  52.2851002
  84.4316638 135.6761251  53.6231230  66.5787210 150.2387731  53.3100859
  66.4441678 149.4788132  52.7438857  66.1619272 150.9628631  52.8429648
  77.7146173 145.4224654  42.3177434  78.4182023 145.6274657  42.9335090
  76.9908822 145.9901416  42.5826518  78.5443983 141.1734516  48.4379704
  78.4879185 141.6303067  47.5987337  79.0972326 140.4125200  48.2602547
  82.3548789 136.9624248  49.2629824  82.0985723 136.5620883  50.0938032
  81.7301657 137.6768042  49.1379963  86.6661127 139.7020321  51.7701115
  86.1060685 139.7713510  52.5432677  86.0604630 139.5261305  51.0500612
  69.7356336 151.1357048  53.5219302  69.6188720 152.0802480  53.4197992
  68.9148782 150.8330610  53.9105101  79.6232870 145.8607184  44.3675894
  80.4578474 145.4288382  44.1853369  79.4617213 145.6889197  45.2952789
  79.2778763 142.3639297  45.7332234  79.2227566 142.1983568  44.7920678
  78.6524818 143.0715330  45.8894423  64.0671278 137.6007361  59.5593656
  64.7130141 137.0906315  60.0480881  63.8588429 138.3376043  60.1337081
  76.5924670 144.6688209  65.0585796  77.4615829 144.8428861  64.6972431
  76.1131421 145.4882626  64.9361526  72.5874888 131.8647406  45.3117552
  72.5753558 132.8089246  45.4685823  73.4798310 131.6817551  45.0177013
  70.7610850 151.7885310  56.7375230  71.6638097 151.8208920  57.0541725
  70.5348220 150.8585761  56.7521566  72.5164452 150.5416296  53.3985309
  71.5660083 150.5418158  53.2849681  72.8196938 149.7949031  52.8821343
  76.4027007 128.4590183  49.5663489  75.6359403 127.9048669  49.7120171
  76.8137712 128.5312051  50.4277640  68.4068769 134.7474978  63.6568670
  69.2700230 134.3911783  63.8671995  67.8334179 134.4088873  64.3444074
  88.2517145 156.3776835  54.4631071  88.8895555 156.2583582  53.7594411
  88.1337988 157.3257679  54.5219023  85.0606852 156.3304263  54.3992596
  84.7225363 156.2145328  53.5113131  85.9296620 155.9295428  54.3793602
  80.9193667 158.1839739  50.3889487  80.3558533 158.0929676  49.6205774
  80.8046062 157.3639644  50.8691979  85.5426635 157.4839115  60.3578801
  85.5315275 157.0891913  59.4859305  85.7047274 156.7505187  60.9512573
  78.4658099 159.6790931  53.2273707  79.2579391 159.3381756  52.8120006
  78.7054750 159.7885906  54.1475860  86.4993226 161.8510707  45.7003952
  85.8481206 162.4364787  45.3137965  87.2937589 162.3816902  45.7598989
  80.4248853 158.9399844  46.0991086  81.1979729 158.3928831  45.9603962
  80.7774252 159.8044093  46.3105547  82.2633896 160.2676226  59.3057985
  81.9723762 161.1721857  59.1904652  82.8990880 160.3092754  60.0202055
  83.1890103 157.6453075  55.8959345  83.7853675 157.4209097  55.1816308
  83.2465074 156.9037820  56.4984793  82.7615131 155.0992510  43.7309536
  83.0140652 154.5774032  42.9692999  81.8239690 154.9358656  43.8336219
  87.8058414 154.1028289  51.5384279  88.5921503 153.6847712  51.1874696
  88.0697118 155.0074381  51.7065927  87.9768491 159.5401139  46.2372936
  87.3414324 159.6135765  46.9493841  87.6465898 160.1294738  45.5592015
  93.2066841 154.0403522  52.4417258  93.9392013 153.4702739  52.6755087
  92.4506197 153.6525122  52.8823763  82.4811420 157.0020616  45.9333911
  82.3647678 156.3265520  46.6014995  82.5913680 156.5152990  45.1166064
  84.8242961 156.4630763  49.6380600  84.4601168 155.9361384  50.3493522
  85.6810077 156.0729232  49.4647085  90.7292261 147.7525096  56.9011866
  90.3975586 148.6220507  56.6773081  90.1337875 147.4361380  57.5805897
  84.4648448 151.4920663  44.6341949  84.6322850 152.3600899  45.0012420
  84.2745617 151.6547945  43.7103238  87.2223781 159.9537642  56.3007779
  86.9224504 160.8562681  56.1923586  86.8774840 159.6869825  57.1528932
  80.6736262 156.4051439  52.3344483  79.7486759 156.2727653  52.5422175
  80.9220676 157.1845658  52.8314426  90.6220925 152.4720182  53.9805216
  89.7137802 152.4035591  53.6863977  90.5708521 152.9492127  54.8087042
  84.4437669 153.9478321  45.6188615  84.3237294 154.3935371  46.4574096
  83.7490257 154.2963638  45.0602154  78.0345073 156.0484712  53.1688272
  78.1637455 156.3019191  54.0827684  77.3542525 156.6412420  52.8492928
  84.6961791 153.8909828  61.9240114  83.9195125 154.4503748  61.9142978
  85.3352354 154.3766611  62.4454984  92.4882571 150.6736621  55.7583090
  91.8456951 150.9669154  55.1122885  91.9837500 150.5589541  56.5636287
  90.1422735 154.4199794  46.4468949  91.0540591 154.6527180  46.2716647
  89.6332382 155.0036838  45.8844028  82.9508163 156.6995281  61.4858081
  83.6922847 157.2380325  61.2092904  82.2445148 157.3261570  61.6429632
  88.4263502 158.8424422  60.0830242  88.8346858 158.4006832  59.3384874
  87.7040764 158.2677049  60.3364435  84.7794573 153.7797028  57.4563799
  85.6255768 154.2036442  57.5998448  84.7193210 153.1230653  58.1502362
  88.7492317 159.4025612  53.8382531  88.1201180 159.5671326  53.1358599
  88.3617979 159.8167222  54.6093495  92.6281549 160.3380050  51.1926895
  91.9432587 160.7178951  50.6423928  92.7125398 160.9475377  51.9258842
  87.9294018 151.4401397  59.1144973  87.6854950 152.1943457  58.5779248
  88.2053948 151.8186744  59.9492220  89.8832481 157.9840009  57.7922238
  90.0949376 158.6271769  57.1156619  89.8362229 157.1502326  57.3244168
  87.4858710 150.5957830  54.6958810  86.6243189 150.8939083  54.9875548
  87.5121144 150.8128229  53.7639843  84.3020279 159.1400020  51.1032616
  84.7658625 159.4187723  50.3137239  84.0377077 158.2383465  50.9205707
  81.1944360 158.6871502  54.0412379  81.7645717 159.1158770  53.4029864
  81.7852472 158.4054086  54.7396565  83.2389165 155.2623173  47.9122181
  83.9413208 155.7144216  48.3796108  82.9069794 154.6206991  48.5402074
  81.6869527 153.8534929  62.2873391  81.0568187 154.5351210  62.5208787
  81.5805614 153.7418011  61.3426529  76.9814499 153.5206725  53.2139315
  76.1913553 153.7764254  52.7379425  77.4725746 154.3355063  53.3191355
  90.9978309 160.8611964  55.9644596  91.8195752 160.4592152  55.6827277
  90.9940711 160.7580199  56.9160711  78.9329244 153.8851305  50.1722791
  78.1360408 153.9969999  50.6906287  78.7054837 154.2237957  49.3063682
  84.7634912 160.4096008  58.1205306  84.8279345 160.8716415  58.9563478
  84.0545836 159.7793373  58.2487616  75.2652202 153.7737216  55.6454306
  75.5160240 154.6584226  55.9111881  75.8011750 153.5941817  54.8729397
  99.0884302 157.2050713  52.3129567  98.3348010 156.6358111  52.1573571
  99.2231843 157.1713377  53.2600202  84.4782930 162.0764115  47.9884286
  84.3428604 162.9215651  48.4169134  85.0192742 162.2783393  47.2250220
  80.9650269 148.1555695  64.6498642  80.5717215 147.6021894  65.3246286
  81.7816410 148.4666274  65.0405159  77.9312327 159.5939553  48.5612211
  78.4436848 160.3882804  48.7117776  78.5835040 158.8965844  48.4945813
  79.7407212 162.7105310  50.6434965  79.9173840 163.6323274  50.4555949
  80.5364045 162.3963729  51.0729344  83.8818230 149.5713574  62.2418898
  84.6227944 150.1720727  62.1623361  84.1136153 148.8291212  61.6836941
  79.0259568 154.7569941  60.5197128  78.9113083 153.8555199  60.8204227
  78.1704086 155.0033638  60.1681944  86.1051406 162.6987682  62.1184628
  85.6615260 161.9124060  61.8005533  86.7668620 162.8866832  61.4528519
  88.2032644 162.9790482  60.1466030  88.1851119 163.7999363  59.6546299
  89.1252564 162.8544557  60.3716171  84.6605698 160.4934611  60.9889538
  85.1934035 159.7322899  60.7588846  84.1319779 160.2008263  61.7313693
  87.8275393 145.5994677  56.5183180  87.4839663 146.4896319  56.4422290
  88.1954356 145.4096335  55.6552765  75.8961244 157.9228208  49.3371782
  76.7336466 158.3325216  49.1205490  76.0739512 156.9827650  49.3071976
  87.7925676 155.5903288  45.0255615  87.2772299 156.3607893  45.2644002
  87.5202984 154.9168424  45.6488676  85.3772787 150.4352989  50.0840853
  84.5214383 150.0459839  49.9046492  85.7899739 150.5144950  49.2240639
  86.9071934 147.9699332  54.4832413  86.4036729 147.9329467  53.6700218
  87.2002540 148.8792075  54.5429070  83.1514819 148.0538062  53.4898595
  84.0167816 147.8580871  53.1304484  83.2192328 147.8248414  54.4167952
  92.7659950 158.3435643  46.9608788  91.9889393 158.0046802  46.5163951
  93.4451431 158.3488266  46.2863753  87.5811979 153.4630380  46.8515396
  87.2762115 153.7776529  47.7025539  88.5342421 153.5411800  46.8942729
  86.0258411 159.6220604  48.5008350  85.4979773 158.8873363  48.1881588
  85.5245914 160.3995280  48.2548318  91.0051257 157.8169624  53.6175396
  90.3474931 158.5068886  53.7055525  91.8091656 158.2066056  53.9609383
  80.7577139 150.2840270  50.8614962  81.3320890 150.0615451  50.1288155
  81.3448121 150.3528964  51.6143563  89.8156716 156.1713997  51.6679338
  90.3288598 156.8043989  52.1701048  90.4657940 155.5715192  51.3022698
  81.0846726 152.3144731  44.8810847  80.2484038 152.6519417  45.2020122
  80.9451495 152.1793711  43.9437984  83.0599806 147.1581519  49.5890031
  82.4064219 146.8430536  48.9646646  83.0180280 146.5357259  50.3149854
  84.1711011 157.4400814  41.5043323  83.2638073 157.2090067  41.7034472
  84.6682043 156.6438433  41.6917305  86.2937547 153.6463452  53.9137679
  85.3760108 153.8678399  53.7559367  86.7097690 153.7209763  53.0549386
  87.0772594 155.0454868  49.0440359  87.8244413 155.5576265  48.7347481
  87.3464184 154.7238921  49.9044753  85.3499245 157.5413409  46.0267313
  84.4410464 157.2572442  46.1239783  85.3794328 157.9612487  45.1670620
  90.5818512 161.1519998  49.7958481  90.1280839 160.3110908  49.8523671
  89.9512479 161.7881397  50.1333261  89.5251432 152.0811984  51.0259148
  88.7874188 151.5689371  51.3569391  89.7778205 151.6412366  50.2142425
  89.0251451 162.9896495  50.7308299  89.3174426 163.5501552  50.0120665
  89.5350072 163.2825056  51.4861458  89.6263059 144.8588236  51.6200918
  89.9321936 143.9985600  51.3326833  90.3515664 145.4505856  51.4199911
  75.9187415 155.2618923  50.0082515  75.7211815 154.6688284  49.2833582
  75.3634079 154.9571133  50.7258454  83.8984139 155.1542029  52.1277109
  83.9532748 154.2015866  52.0519585  83.0875341 155.3101468  52.6118407
  85.0475332 159.0822152  43.3655392  84.6094762 158.3658011  42.9061029
  85.7885773 159.3098267  42.8040483  81.8376499 153.7719089  49.8867487
  81.0244364 154.0713260  50.2932680  82.3335493 153.3774778  50.6041970
  83.9885076 163.7676846  51.8201752  83.9461255 163.9937692  50.8910284
  84.9047775 163.5340221  51.9687553  87.4350710 154.2360914  58.7182381
  87.7900098 154.4632387  59.5776847  88.0822841 154.5679290  58.0959637
  93.1648447 157.3579349  49.4231710  93.0266346 157.5480945  48.4952900
  92.8084666 158.1198732  49.8799762  81.3290573 151.3437445  55.5028722
  81.9689953 151.2026204  54.8051686  80.4968104 151.0571958  55.1267324
  93.1917827 159.4255876  54.4342982  93.6254333 159.3331166  55.2826036
  93.9049407 159.4013377  53.7962998  82.1050877 160.6439875  51.6163715
  82.8991476 160.1490195  51.4146290  81.3942570 160.1157738  51.2531420
  86.9245722 163.0257971  55.9676082  86.9782744 163.5948907  56.7353798
  86.0560503 163.1959856  55.6030120  78.4133641 154.7882957  47.6923468
  77.4831229 154.7267412  47.9093430  78.5091113 154.2658910  46.8960109
  78.3319190 151.3137770  50.2801709  78.5926007 152.2283103  50.1710870
  79.1536362 150.8462212  50.4298322  79.8044115 152.7275527  57.4500534
  80.4767168 152.5192889  56.8013183  78.9773902 152.5297613  57.0105766
  94.0533376 159.4679577  56.9675867  94.2469266 160.3725388  57.2135142
  93.9533994 159.0086996  57.8014452  85.7069687 149.3537468  59.4666195
  85.0597602 150.0527417  59.3730671  86.4770702 149.7873612  59.8342443
  89.1148485 159.6186320  62.5416748  88.9633991 159.3896872  61.6246832
  89.1053164 160.5756921  62.5548093  85.8833821 157.1918233  57.5263014
  86.8125881 157.3429392  57.3531982  85.4624851 157.2802253  56.6711661
  84.6822153 161.2168897  55.2961552  84.5433239 160.8487681  56.1687490
  83.8936749 161.7316536  55.1245510  86.2327368 160.5950500  52.6850390
  85.8977201 160.5551270  53.5808040  85.7331314 159.9295216  52.2120800
  80.2071612 156.0018130  58.2102971  80.0691410 155.2698369  58.8114510
  81.1176536 155.9127030  57.9287159  89.1686560 157.9406534  42.9587449
  88.5515731 157.2153362  42.8620502  88.7003048 158.7015894  42.6154524
  82.8353913 155.7138089  57.6986651  83.5453532 155.0731281  57.6573269
  82.7923221 155.9650984  58.6212831  90.8240692 162.6505442  60.6193230
  90.7653238 161.9664663  59.9523813  91.2260210 163.3924432  60.1673856
  81.5482847 152.7003307  59.5182290  81.0120204 152.2494045  60.1703886
  80.9599555 152.8349216  58.7752754  80.9585106 152.1591958  42.0808754
  80.0814572 152.0380759  41.7171000  81.4342859 151.3678037  41.8287642
  90.8258099 160.6145026  58.8507209  89.9384878 160.2770948  58.9733608
  91.3956650 159.8828058  59.0875975  72.4787246 156.9469118  52.1750261
  73.1658286 156.6330848  51.5871276  72.3235375 157.8510483  51.9017512
  77.2821968 151.8359315  56.6035285  77.1980157 151.2284984  55.8685694
  76.4604675 152.3268333  56.6044781  84.1449032 164.5118249  49.3271274
  83.3616554 165.0539929  49.4209499  84.8441777 165.0292228  49.7265515
  87.4545682 150.3212878  51.9705480  87.9514382 149.5682841  51.6506550
  86.6832664 150.3577195  51.4048689  95.3075439 156.0253244  53.6123771
  95.2965316 156.9077959  53.2417704  94.4392819 155.6724795  53.4178308
  86.8157936 165.1733313  57.9726611  87.5285908 165.8080778  57.9002513
  86.3247964 165.2697179  57.1566613  88.5375463 159.0784565  49.5443903
  87.6031741 159.1986028  49.3748607  88.7152131 158.1757032  49.2803913
  84.0380651 152.4630261  51.6977164  83.6678438 151.9101302  52.3858070
  84.5339743 151.8588395  51.1452164  91.9248014 154.9201885  50.0793937
  92.3908466 155.7529876  50.0054240  92.3755515 154.4546866  50.7839196
  81.8669849 162.9227756  58.7932182  82.5679309 163.5564239  58.9461576
  81.3964964 163.2642488  58.0327821  89.9924245 161.2645706  47.0780089
  90.2684089 161.1502301  47.9873963  89.1228744 160.8663191  47.0392262
  89.8964677 147.2882472  54.1184838  88.9827757 147.5186699  54.2867045
  90.3257778 147.3720916  54.9698871  89.6671135 155.4772364  56.6184732
  89.0142586 155.7248271  55.9637185  90.0451515 154.6636502  56.2847210
  86.6278309 165.5132057  50.7212903  86.8100704 164.6953713  51.1840655
  87.4511295 165.7299749  50.2837793  86.9620475 164.4400242  47.9827951
  87.4908241 163.9292697  47.3698113  87.2248694 164.1242772  48.8473484
  85.7158708 156.2192175  63.1050770  85.0399345 156.1186304  63.7753145
  86.5386342 156.0631388  63.5686767  77.4637567 162.4564111  55.7263285
  78.0491004 161.7107799  55.8591189  77.2662406 162.7668068  56.6099949
  72.0555222 155.0269711  54.4467728  72.0939322 154.4933302  55.2404846
  71.5495515 154.5004917  53.8278705  79.4345984 149.8734252  57.9430270
  79.4987311 150.7349083  57.5307668  79.3713105 149.2608254  57.2102629
  78.9098257 151.9457385  61.5903305  79.5370296 151.5634462  62.2040829
  78.0526176 151.7271586  61.9558997  89.3092366 162.3520360  63.1957040
  89.8532270 162.9650318  62.7011995  88.7279210 162.9099938  63.7124053
  75.6863800 153.7533814  47.5221659  75.9817241 152.8444492  47.4688713
  74.7851836 153.7321553  47.2002662  87.5949879 165.4741078  54.3272068
  87.4701018 164.6730818  53.8183013  88.2528970 165.9687271  53.8386038
  79.2158047 151.8289810  53.5049208  78.4944633 152.4425778  53.3656681
  80.0051303 152.3647575  53.4265854  89.6584787 163.2750098  55.9551618
  88.7115122 163.1555449  55.8829945  90.0067560 162.3872596  56.0377879
  82.0184360 149.1644237  59.7789860  82.5418762 149.4106533  60.5416169
  81.7996694 149.9964272  59.3592997  77.4151641 151.4347911  47.6460984
  77.0864347 150.5545290  47.4636090  77.7691012 151.3795580  48.5337374
  86.6631220 163.0702814  52.1555970  86.5156183 162.1419521  52.3363540
  87.4884714 163.0922905  51.6713045  80.5293464 151.7220881  48.0136462
  80.8689537 152.2506802  47.2915071  80.9765585 152.0601287  48.7895029
  90.2665342 163.8931373  53.2420843  91.1911890 163.6874234  53.1045294
  90.0980645 163.6447774  54.1510184  83.2236905 150.1057932  57.4639530
  82.8833726 149.3065745  57.8660210  82.5175912 150.4059643  56.8916363
  83.8753377 147.1907244  55.9166853  84.6979446 146.7167722  55.7945744
  84.1191441 147.9697728  56.4165540  82.5161612 150.2195503  46.2129755
  83.2369974 150.5976755  45.7093472  81.8926916 150.9384379  46.3164733
  86.6592735 150.9240652  47.1488087  86.8756349 151.8065290  46.8476915
  86.1786802 150.5326865  46.4193729  81.3991956 153.8826365  53.7258832
  81.2536537 154.1966668  54.6183113  80.9217160 154.5011265  53.1729731
  83.2588339 150.8728913  53.7739721  83.2449908 149.9770006  53.4372019
  83.9760767 150.8799577  54.4078007  85.1114469 151.3066253  55.8192849
  84.8532247 152.2283324  55.8177179  84.5799510 150.9096688  56.5093313
  90.0560658 164.4117040  48.5982934  90.2297536 163.8463463  47.8456787
  90.5489549 165.2117935  48.4162424  75.8737618 156.4231709  56.6646493
  75.3291086 157.1991517  56.7966767  76.7516968 156.7702514  56.5065614
  82.6625235 149.7543293  49.0427292  82.7841146 148.8259939  49.2418179
  82.3727277 149.7681979  48.1305607  85.5316425 147.4398204  52.1794011
  85.5538122 147.5037537  51.2245991  85.9484484 146.6002712  52.3734518
  95.9100049 157.1753463  50.2173234  96.3531195 156.4260788  49.8192357
  95.0326560 157.1663599  49.8346966  91.0435831 163.7283805  45.6979833
  91.7386735 164.3490497  45.9167147  91.3858981 162.8779156  45.9732210
  76.6603640 155.5501606  59.5576650  75.9185376 155.6984241  60.1441280
  76.3396384 155.8109871  58.6943399  92.9427254 161.1783510  47.2267163
  93.4678578 161.5170783  46.5016483  92.8549606 160.2430525  47.0430298
  84.6047303 165.0917584  59.3557040  84.9134429 164.8466731  60.2279740
  85.4022785 165.2964222  58.8675910  82.0741787 162.7893502  53.6584718
  81.4521796 162.1264208  53.3586946  82.7446654 162.8154634  52.9758366
  75.3068859 161.3553361  52.5475978  74.4700767 160.9275535  52.3659979
  75.2792504 161.5485804  53.4846769  82.1466314 151.2675291  63.2517224
  82.1954470 152.1437413  62.8694994  82.6888828 150.7252684  62.6788867
  92.6321160 161.8116414  62.5318361  91.8416704 161.7940553  61.9922861
  92.3954515 162.3504707  63.2867398  92.7519035 158.6608880  59.8451090
  92.8017040 158.4958888  60.7866613  92.6432958 157.7936139  59.4548971
  81.6355294 161.3397426  47.1343179  81.7843414 162.0232890  46.4809851
  82.4421737 161.3202516  47.6492634  90.0422797 154.6439808  61.1610396
  90.9432660 154.5046273  60.8694394  90.1170772 154.8094263  62.1008574
  84.3765603 152.0206663  60.0063583  83.5068912 152.3140229  59.7346171
  84.6125083 152.6047108  60.7270846  94.2537232 161.0805822  60.0893111
  93.9622040 161.4435802  60.9256572  93.6409363 160.3672830  59.9106443
  95.4532914 158.6458701  52.6095682  96.2879806 159.0848505  52.7733242
  95.5892043 158.1697355  51.7903927  92.5024420 156.2038436  58.5573169
  92.9778542 156.3966083  57.7492021  91.5789985 156.2597622  58.3116553
  79.3907927 157.3662603  48.1404248  79.1453969 156.4624933  48.3384458
  79.5603841 157.3679754  47.1983726  87.0804637 148.2386280  57.5229003
  87.5986580 148.9747307  57.1975492  86.7259769 148.5450273  58.3575762
  78.6603574 153.0990961  45.6390409  77.9672819 153.1735316  44.9830445
  78.4155326 152.3351305  46.1611926  87.3317231 144.6586562  53.0429900
  87.6118984 143.9909751  53.6690326  88.1167838 144.8515658  52.5304564
  85.1350699 163.8345556  44.6054926  84.5624666 164.4535743  44.1525398
  85.7083493 164.3844918  45.1394848  91.2026089 153.0804196  56.7901475
  92.1543512 153.1802294  56.8113699  91.0329539 152.2882465  57.2999559
  89.2240469 150.1659780  56.9760876  88.6290401 150.4464792  56.2807364
  88.9390165 150.6553681  57.7477617  88.3547959 164.1182706  45.7363508
  89.2878632 164.0528268  45.9396384  88.2671172 164.9538973  45.2778041
  90.9835976 163.4348577  42.6967456  90.9049607 163.1008440  43.5903214
  91.8045642 163.9270345  42.6958928  93.6814167 156.3010316  55.9043775
  93.6490487 155.3626317  56.0903458  94.2914790 156.3794353  55.1709599
  85.5197498 155.1706369  41.9470979  86.4656602 155.0412577  42.0159397
  85.1411743 154.4321031  42.4240407  93.8308655 153.0921359  55.9502058
  93.3147704 152.3079816  55.7631987  94.7148604 152.7640076  56.1148577
  91.4919382 146.8362375  51.9097870  91.2944203 146.5277463  52.7941202
  92.1019088 147.5624014  52.0395800  99.4990717 157.3626323  55.0449811
 100.2294105 157.1011611  55.6057515  98.8897662 156.6255045  55.0851879
  97.5806014 155.5034185  55.6424263  96.8539177 155.3690150  55.0340754
  97.1653301 155.8111014  56.4480981  85.4036190 159.2224115  63.4071636
  86.3239200 159.4002714  63.6011682  85.3685773 158.2780161  63.2551335
  83.7040415 153.0956345  41.8825864  82.7971870 152.7989458  41.9588577
  83.9816396 152.7986163  41.0160150  74.6218355 154.4162709  52.3324910
  74.3021140 153.5628017  52.0399284  74.0751783 154.6311287  53.0882878
  78.3998263 157.1325150  56.0494417  78.6184273 158.0642258  56.0682451
  78.8124037 156.7733124  56.8349221  85.3202481 147.6393235  48.0370105
  84.5103209 147.2940320  48.4125351  86.0086898 147.3300779  48.6257717
  87.2493029 146.7171282  49.6594402  87.8024067 147.1366735  50.3184425
  87.4863115 145.7907030  49.7017358  83.2726128 152.7058356  65.4397166
  83.1722855 153.6552713  65.3709257  83.0547670 152.3776594  64.5673236
  82.4739199 149.9543281  42.0237843  83.3358363 150.2798179  42.2833660
  82.6589544 149.1674777  41.5110909  74.4906615 158.0365620  54.3018032
  73.7970087 157.6219573  53.7887986  75.2379606 158.0786157  53.7051451
  90.6271836 148.8271807  49.1673066  90.0470505 149.4856611  48.7851118
  90.3607769 148.0049152  48.7560484  89.0775402 148.2276865  51.3694386
  89.5775181 148.3393399  50.5608705  89.7211010 147.9237918  52.0095195
  83.1357398 156.1355494  64.2562227  82.6524480 156.9355855  64.4626116
  83.2218337 156.1463439  63.3029671  76.4043358 157.9683874  52.1784047
  76.3814046 158.0671561  51.2265930  76.7143994 158.8149025  52.5001213
  79.0630736 160.0260029  56.2930661  80.0173989 159.9943971  56.2260593
  78.8643259 159.5650653  57.1080887  79.6530118 158.5961145  58.8601459
  80.4723007 159.0905224  58.8836296  79.9266925 157.6793113  58.8319026
  89.4096714 150.9871897  48.2229414  88.5222569 151.2721548  48.0049609
  89.8250703 150.8265661  47.3756691  92.7611250 151.0118418  51.9383754
  93.5371640 151.5014871  52.2108370  92.0359384 151.4376473  52.3955623
  95.1983809 151.7246038  52.9957694  95.7928300 151.4841774  52.2851002
  95.2710392 151.0053168  53.6231230  88.5539927 160.7516572  42.3177434
  89.2575778 160.9566575  42.9335090  87.8302576 161.3193334  42.5826518
  89.3837738 156.5026433  48.4379704  89.3272939 156.9594985  47.5987337
  89.9366080 155.7417118  48.2602547  93.1942544 152.2916165  49.2629824
  92.9379478 151.8912801  50.0938032  92.5695412 153.0059959  49.1379963
  97.5054881 155.0312239  51.7701115  96.9454439 155.1005428  52.5432677
  96.8998385 154.8553223  51.0500612  90.4626625 161.1899101  44.3675894
  91.2972229 160.7580300  44.1853369  90.3010968 161.0181115  45.2952789
  90.1172517 157.6931215  45.7332234  90.0621321 157.5275486  44.7920678
  89.4918572 158.4007248  45.8894423  74.9065032 152.9299279  59.5593656
  75.5523896 152.4198233  60.0480881  74.6982183 153.6667961  60.1337081
  87.4318424 159.9980127  65.0585796  88.3009584 160.1720779  64.6972431
  86.9525176 160.8174543  64.9361526  83.4268642 147.1939324  45.3117552
  83.4147312 148.1381164  45.4685823  84.3192064 147.0109469  45.0177013
  87.2420762 143.7882100  49.5663489  86.4753158 143.2340587  49.7120171
  87.6531467 143.8603969  50.4277640  79.2462523 150.0766896  63.6568670
  80.1093985 149.7203701  63.8671995  78.6727934 149.7380791  64.3444074
  98.6452168 169.4320206  51.5384279  99.4315258 169.0139629  51.1874696
  98.9090873 170.3366298  51.7065927 104.0460596 169.3695440  52.4417258
 104.7785767 168.7994656  52.6755087 103.2899951 168.9817040  52.8823763
 101.5686016 163.0817014  56.9011866 101.2369341 163.9512425  56.6773081
 100.9731629 162.7653298  57.5805897  95.3042202 166.8212581  44.6341949
  95.4716605 167.6892817  45.0012420  95.1139371 166.9839862  43.7103238
 101.4614679 167.8012100  53.9805216 100.5531557 167.7327508  53.6863977
 101.4102275 168.2784045  54.8087042 103.3276326 166.0028538  55.7583090
 102.6850706 166.2961071  55.1122885 102.8231254 165.8881459  56.5636287
 100.9816489 169.7491711  46.4468949 101.8934345 169.9819098  46.2716647
 100.4726136 170.3328756  45.8844028  95.6188327 169.1088946  57.4563799
  96.4649522 169.5328360  57.5998448  95.5586965 168.4522570  58.1502362
  98.7687772 166.7693314  59.1144973  98.5248704 167.5235375  58.5779248
  99.0447703 167.1478662  59.9492220  98.3252464 165.9249747  54.6958810
  97.4636943 166.2231001  54.9875548  98.3514899 166.1420146  53.7639843
  91.8044024 163.4847613  64.6498642  91.4110969 162.9313811  65.3246286
  92.6210164 163.7958191  65.0405159  94.7211985 164.9005492  62.2418898
  95.4621698 165.5012645  62.1623361  94.9529908 164.1583130  61.6836941
  98.6669148 160.9286595  56.5183180  98.3233417 161.8188236  56.4422290
  99.0348110 160.7388252  55.6552765  96.2166541 165.7644907  50.0840853
  95.3608138 165.3751757  49.9046492  96.6293493 165.8436867  49.2240639
  97.7465688 163.2991250  54.4832413  97.2430484 163.2621385  53.6700218
  98.0396295 164.2083993  54.5429070  93.9908574 163.3829980  53.4898595
  94.8561571 163.1872788  53.1304484  94.0586083 163.1540331  54.4167952
  98.4205734 168.7922298  46.8515396  98.1155869 169.1068447  47.7025539
  99.3736176 168.8703718  46.8942729  91.5970893 165.6132188  50.8614962
  92.1714645 165.3907369  50.1288155  92.1841876 165.6820882  51.6143563
  91.9240480 167.6436649  44.8810847  91.0877792 167.9811335  45.2020122
  91.7845250 167.5085628  43.9437984  93.8993561 162.4873436  49.5890031
  93.2457973 162.1722454  48.9646646  93.8574035 161.8649177  50.3149854
  97.1331301 168.9755370  53.9137679  96.2153863 169.1970317  53.7559367
  97.5491445 169.0501681  53.0549386 100.3645186 167.4103902  51.0259148
  99.6267943 166.8981288  51.3569391 100.6171960 166.9704284  50.2142425
 100.4656813 160.1880154  51.6200918 100.7715690 159.3277517  51.3326833
 101.1909418 160.7797774  51.4199911  98.2744465 169.5652831  58.7182381
  98.6293852 169.7924304  59.5776847  98.9216596 169.8971208  58.0959637
  92.1684328 166.6729362  55.5028722  92.8083707 166.5318121  54.8051686
  91.3361858 166.3863876  55.1267324  96.5463442 164.6829385  59.4666195
  95.8991357 165.3819335  59.3730671  97.3164457 165.1165529  59.8342443
  92.3876601 168.0295225  59.5182290  91.8513958 167.5785963  60.1703886
  91.7993310 168.1641133  58.7752754  91.7978860 167.4883876  42.0808754
  90.9208327 167.3672677  41.7171000  92.2736613 166.6969954  41.8287642
  98.2939437 165.6504796  51.9705480  98.7908136 164.8974758  51.6506550
  97.5226418 165.6869113  51.4048689 106.1469194 171.3545161  53.6123771
 106.1359070 172.2369877  53.2417704 105.2786573 171.0016712  53.4178308
  94.8774405 167.7922179  51.6977164  94.5072193 167.2393219  52.3858070
  95.3733498 167.1880312  51.1452164 102.7641769 170.2493802  50.0793937
 103.2302221 171.0821794  50.0054240 103.2149269 169.7838784  50.7839196
 100.7358431 162.6174389  54.1184838  99.8221511 162.8478616  54.2867045
 101.1651533 162.7012833  54.9698871 100.5064890 170.8064281  56.6184732
  99.8536340 171.0540189  55.9637185 100.8845270 169.9928420  56.2847210
  90.2739739 165.2026170  57.9430270  90.3381065 166.0641001  57.5307668
  90.2106859 164.5900171  57.2102629  89.7492011 167.2749302  61.5903305
  90.3764050 166.8926380  62.2040829  88.8919930 167.0563504  61.9558997
  92.8578115 164.4936154  59.7789860  93.3812517 164.7398451  60.5416169
  92.6390448 165.3256189  59.3592997  88.2545396 166.7639829  47.6460984
  87.9258102 165.8837208  47.4636090  88.6084767 166.7087498  48.5337374
  91.3687219 167.0512799  48.0136462  91.7083291 167.5798720  47.2915071
  91.8159339 167.3893205  48.7895029  94.0630660 165.4349849  57.4639530
  93.7227480 164.6357663  57.8660210  93.3569666 165.7351560  56.8916363
  94.7147132 162.5199162  55.9166853  95.5373201 162.0459640  55.7945744
  94.9585195 163.2989646  56.4165540  93.3555366 165.5487420  46.2129755
  94.0763729 165.9268673  45.7093472  92.7320670 166.2676297  46.3164733
  97.4986489 166.2532569  47.1488087  97.7150103 167.1357207  46.8476915
  97.0180556 165.8618783  46.4193729  94.0982093 166.2020831  53.7739721
  94.0843662 165.3061924  53.4372019  94.8154521 166.2091494  54.4078007
  95.9508224 166.6358171  55.8192849  95.6926002 167.5575241  55.8177179
  95.4193264 166.2388605  56.5093313  93.5018989 165.0835211  49.0427292
  93.6234900 164.1551857  49.2418179  93.2121032 165.0973897  48.1305607
  96.3710180 162.7690121  52.1794011  96.3931876 162.8329454  51.2245991
  96.7878239 161.9294630  52.3734518 106.7493804 172.5045381  50.2173234
 107.1924950 171.7552706  49.8192357 105.8720314 172.4955517  49.8346966
  92.9860069 166.5967208  63.2517224  93.0348224 167.4729331  62.8694994
  93.5282583 166.0544601  62.6788867 100.8816552 169.9731726  61.1610396
 101.7826415 169.8338191  60.8694394 100.9564526 170.1386181  62.1008574
  95.2159357 167.3498581  60.0063583  94.3462667 167.6432147  59.7346171
  95.4518838 167.9339026  60.7270846 103.3418175 171.5330354  58.5573169
 103.8172296 171.7258000  57.7492021 102.4183740 171.5889540  58.3116553
  97.9198391 163.5678198  57.5229003  98.4380335 164.3039224  57.1975492
  97.5653524 163.8742191  58.3575762  98.1710985 159.9878480  53.0429900
  98.4512739 159.3201669  53.6690326  98.9561592 160.1807576  52.5304564
 102.0419844 168.4096114  56.7901475 102.9937266 168.5094212  56.8113699
 101.8723294 167.6174383  57.2999559 100.0634223 165.4951697  56.9760876
  99.4684155 165.7756710  56.2807364  99.7783920 165.9845598  57.7477617
 104.5207921 171.6302234  55.9043775 104.4884241 170.6918234  56.0903458
 105.1308545 171.7086270  55.1709599 104.6702410 168.4213277  55.9502058
 104.1541458 167.6371734  55.7631987 105.5542358 168.0931994  56.1148577
 102.3313137 162.1654293  51.9097870 102.1337958 161.8569381  52.7941202
 102.9412842 162.8915932  52.0395800 108.4199768 170.8326103  55.6424263
 107.6932932 170.6982068  55.0340754 108.0047055 171.1402932  56.4480981
  94.5434169 168.4248263  41.8825864  93.6365625 168.1281376  41.9588577
  94.8210150 168.1278081  41.0160150  96.1596235 162.9685153  48.0370105
  95.3496963 162.6232238  48.4125351  96.8480652 162.6592697  48.6257717
  98.0886783 162.0463200  49.6594402  98.6417822 162.4658653  50.3184425
  98.3256870 161.1198948  49.7017358  94.1119883 168.0350273  65.4397166
  94.0116609 168.9844630  65.3709257  93.8941425 167.7068512  64.5673236
  93.3132954 165.2835198  42.0237843  94.1752118 165.6090097  42.2833660
  93.4983298 164.4966694  41.5110909 101.4665590 164.1563725  49.1673066
 100.8864259 164.8148529  48.7851118 101.2001523 163.3341069  48.7560484
  99.9169157 163.5568782  51.3694386 100.4168935 163.6685317  50.5608705
 100.5604765 163.2529835  52.0095195 100.2490468 166.3163815  48.2229414
  99.3616323 166.6013466  48.0049609 100.6644458 166.1557579  47.3756691
 103.6005005 166.3410336  51.9383754 104.3765395 166.8306789  52.2108370
 102.8753139 166.7668390  52.3955623 106.0377563 167.0537955  52.9957694
 106.6322054 166.8133691  52.2851002 106.1104147 166.3345086  53.6231230
 104.0336298 167.6208083  49.2629824 103.7773232 167.2204719  50.0938032
 103.4089166 168.3351877  49.1379963 108.3448636 170.3604156  51.7701115
 107.7848194 170.4297346  52.5432677 107.7392139 170.1845141  51.0500612
  94.2662397 162.5231241  45.3117552  94.2541067 163.4673081  45.4685823
  95.1585819 162.3401387  45.0177013  98.0814516 159.1174018  49.5663489
  97.3146912 158.5632505  49.7120171  98.4925221 159.1895887  50.4277640
  90.0856277 165.4058814  63.6568670  90.9487739 165.0495619  63.8671995
  89.5121688 165.0672709  64.3444074   9.6670355  27.1857813  47.0824108
   9.6558995  26.7910612  46.2104612   9.8290994  26.4523886  47.6757879
   6.3877616  29.9694925  46.0303292   6.0967482  30.8740556  45.9149958
   7.0234600  30.0111453  46.7447361  11.3467501  29.6556341  43.0253086
  11.0468224  30.5581380  42.9168893  11.0018560  29.3888524  43.8774238
   8.8205510  23.5928527  48.6485420   8.0438844  24.1522447  48.6388285
   9.4596073  24.0785310  49.1700290   7.0751883  26.4013980  48.2103387
   7.8166567  26.9399024  47.9338211   6.3688868  27.0280269  48.3674939
  12.5507222  28.5443120  46.8075549  12.9590578  28.1025531  46.0630181
  11.8284484  27.9695748  47.0609742   8.9038292  23.4815727  44.1809106
   9.7499488  23.9055141  44.3243755   8.8436930  22.8249351  44.8747669
  12.8736037  29.1044311  40.5627838  12.2444899  29.2690025  39.8603905
  12.4861699  29.5185921  41.3338802  16.7525269  30.0398749  37.9172201
  16.0676307  30.4197650  37.3669235  16.8369118  30.6494076  38.6504149
  12.0537738  21.1420096  45.8390279  11.8098670  21.8962156  45.3024555
  12.3297668  21.5205443  46.6737526  14.0076200  27.6858708  44.5167545
  14.2193096  28.3290468  43.8401926  13.9605949  26.8521024  44.0489475
   5.8113246  23.5553628  49.0118697   5.1811907  24.2369909  49.2454094
   5.7049334  23.4436710  48.0671835  15.1222028  30.5630663  42.6889902
  15.9439472  30.1610851  42.4072584  15.1184431  30.4598897  43.6406018
   8.8878632  30.1114707  44.8450613   8.9523064  30.5735114  45.6808785
   8.1789556  29.4812072  44.9732923  23.2128021  26.9069412  39.0374874
  22.4591730  26.3376810  38.8818878  23.3475563  26.8732076  39.9845508
   8.0061950  19.2732273  48.9664205   8.7471663  19.8739426  48.8868667
   8.2379873  18.5309911  48.4082247   3.1503288  24.4588640  47.2442434
   3.0356803  23.5573898  47.5449533   2.2947806  24.7052337  46.8927251
  10.2295126  32.4006381  48.8429935   9.7858980  31.6142759  48.5250840
  10.8912339  32.5885531  48.1773826   4.9882247  33.9302182  43.3690614
   5.5389672  33.8019246  42.5967608   4.1493723  34.2297071  43.0185506
  12.3276364  32.6809181  46.8711336  12.3094839  33.5018062  46.3791606
  13.2496284  32.5563256  47.0961478   8.7849418  30.1953310  47.7134845
   9.3177755  29.4341598  47.4834153   8.2563499  29.9026962  48.4558999
  15.1294977  27.5188323  40.3420703  14.4718651  28.2087584  40.4300832
  15.9335376  27.9084755  40.6854689  13.1495171  32.6915194  37.4553606
  13.4418145  33.2520251  36.7365971  13.6593792  32.9843755  38.2106765
  11.5594430  23.9379612  45.4427688  11.9143818  24.1651086  46.3022154
  12.2066561  24.2697989  44.8204943  17.3161547  29.1274575  41.1588289
  17.7498053  29.0349864  42.0071343  18.0293127  29.1032076  40.5208305
  11.0489441  32.7276669  42.6921389  11.1026464  33.2967606  43.4599105
  10.1804223  32.8978554  42.3275426  18.1777096  29.1698276  43.6921174
  18.3712986  30.0744086  43.9380449  18.0777714  28.7105695  44.5259759
   9.8313407  19.0556167  46.1911501   9.1841322  19.7546116  46.0975978
  10.6014422  19.4892310  46.5587749  13.2392205  29.3205019  49.2662055
  13.0877711  29.0915570  48.3492138  13.2296884  30.2775620  49.2793400
  10.0077541  26.8936931  44.2508321  10.9369601  27.0448091  44.0777288
   9.5868571  26.9820952  43.3956967   8.8065873  30.9187596  42.0206859
   8.6676959  30.5506380  42.8932797   8.0180469  31.4335235  41.8490816
   4.3315332  25.7036829  44.9348278   4.1935130  24.9717067  45.5359817
   5.2420256  25.6145729  44.6532465   6.9597633  25.4156788  44.4231957
   7.6697251  24.7749980  44.3818576   6.9166941  25.6669683  45.3458138
  14.9484411  32.3524141  47.3438536  14.8896958  31.6683361  46.6769119
  15.3503930  33.0943131  46.8919162   3.9675110  39.1686055  40.1372255
   4.2071709  39.8004579  40.8151274   3.1244307  38.8174095  40.4237615
  14.9501819  30.3163725  45.5752516  14.0628598  29.9789647  45.6978915
  15.5200370  29.5846756  45.8121281   8.4802972  34.9765178  42.5413759
   8.4073144  35.7820149  43.0533064   8.0380365  35.1757143  41.7161781
  19.4319159  25.7271943  40.3369078  19.4209036  26.6096658  39.9663011
  18.5636539  25.3743493  40.1423615  10.9401656  34.8752012  44.6971918
  11.6529628  35.5099476  44.6247819  10.4491684  34.9715878  43.8811920
   5.9913569  32.6246455  45.5177489   6.6923029  33.2582938  45.6706883
   5.5208684  32.9661187  44.7573128  13.7914855  25.1791063  43.3430039
  13.1386305  25.4266970  42.6882492  14.1695235  24.3655201  43.0092516
  10.7522029  35.2150756  37.4458209  10.9344424  34.3972412  37.9085962
  11.5755015  35.4318448  37.0083099   9.8402428  25.9210874  49.8296076
   9.1643065  25.8205003  50.4998451  10.6630062  25.7650087  50.2932073
   1.5881287  32.1582810  42.4508591   2.1734724  31.4126498  42.5836496
   1.3906126  32.4686767  43.3345255   8.5825211  37.2277801  44.0653692
   9.1343519  37.3909423  44.8302777   8.9231405  37.8182239  43.3933717
  13.4336085  32.0539059  49.9202347  13.9775989  32.6669017  49.4257301
  12.8522930  32.6118637  50.4369360  11.7193598  35.1759777  41.0517374
  11.5944738  34.3749516  40.5428320  12.3772689  35.6705970  40.5631344
  13.7828507  32.9768797  42.6796924  12.8358842  32.8574148  42.6075251
  14.1311280  32.0891295  42.7623186  10.7874940  32.7721513  38.8801277
  10.6399902  31.8438220  39.0608847  11.6128434  32.7941604  38.3958352
  14.3909062  33.5950072  39.9666149  15.3155609  33.3892933  39.8290601
  14.2224365  33.3466473  40.8755491   8.7291022  34.7936283  46.0802347
   9.0378149  34.5485429  46.9525046   9.5266504  34.9982921  45.5921217
   8.7511634  36.9474192  38.3107723   8.3116625  36.4550571  39.0040580
   9.5019751  36.4047160  38.0699798   6.2710034  20.9693989  49.9762531
   6.3198190  21.8456112  49.5940300   6.8132548  20.4271382  49.4034174
  16.7564880  31.5135113  49.2563668  15.9660423  31.4959251  48.7168167
  16.5198234  32.0523406  50.0112704  16.8762755  28.3627579  46.5696396
  16.9260760  28.1977586  47.5111919  16.7676678  27.4954838  46.1794277
  14.1666517  24.3458507  47.8855703  15.0676380  24.2064972  47.5939701
  14.2414492  24.5112962  48.8253881   8.5009323  21.7225362  46.7308889
   7.6312632  22.0158928  46.4591478   8.7368803  22.3065807  47.4516153
  18.3780952  30.7824521  46.8138418  18.0865760  31.1454501  47.6501879
  17.7653083  30.0691529  46.6351750  19.5776634  28.3477400  39.3340988
  20.4123525  28.7867204  39.4978549  19.7135763  27.8716053  38.5149234
  16.6268140  25.9057135  45.2818476  17.1022261  26.0984781  44.4737327
  15.7033705  25.9616321  45.0361860  15.3269809  22.7822895  43.5146782
  16.2787232  22.8820993  43.5359006  15.1573259  21.9901164  44.0244866
  17.8057887  26.0029015  42.6289081  17.7734207  25.0645016  42.8148765
  18.4158510  26.0813052  41.8954906  17.9552375  22.7940058  42.6747364
  17.4391424  22.0098515  42.4877293  18.8392324  22.4658775  42.8393884
  23.6234437  27.0645022  41.7695118  24.3537825  26.8030310  42.3302821
  23.0141382  26.3273744  41.8097186  21.7049734  25.2052884  42.3669569
  20.9782897  25.0708849  41.7586061  21.2897021  25.5129713  43.1726287
   9.5279910  28.9242814  50.1316942  10.4482920  29.1021413  50.3256989
   9.4929493  27.9798859  49.9796641   7.3969848  22.4077054  52.1642472
   7.2966575  23.3571411  52.0954563   7.1791390  22.0795293  51.2918542
   7.2601118  25.8374193  50.9807534   6.7768200  26.6374553  51.1871423
   7.3462057  25.8482138  50.0274978   3.1874455  29.7278728  43.0175968
   4.1417709  29.6962670  42.9505899   2.9886979  29.2669352  43.8326194
   3.7773838  28.2979844  45.5846765   4.5966727  28.7923923  45.6081603
   4.0510645  27.3811812  45.5564333   4.6993810  36.1667664  40.2464608
   4.5826194  37.1113097  40.1443299   3.8786256  35.8641226  40.6350407
  11.5562144  29.6998825  51.7831103  12.4253304  29.8739478  51.4217738
  11.0768896  30.5193242  51.6606832   5.7248324  36.8195926  43.4620537
   6.6275571  36.8519537  43.7787032   5.4985694  35.8896377  43.4766872
   7.4801926  35.5726913  40.1230615   6.5297557  35.5728775  40.0094988
   7.7834412  34.8259647  39.6066650  23.2154620  41.4087451  41.1876378
  23.8533030  41.2894199  40.4839718  23.0975463  42.3568295  41.2464330
  20.0244326  41.3614879  41.1237902  19.6862838  41.2455944  40.2358437
  20.8934094  40.9606045  41.1038909  15.8831142  43.2150356  37.1134793
  15.3196007  43.1240293  36.3451081  15.7683537  42.3950260  37.5937286
  20.5064109  42.5149731  47.0824108  20.4952750  42.1202529  46.2104612
  20.6684749  41.7815804  47.6757879  13.4295574  44.7101547  39.9519014
  14.2216866  44.3692372  39.5365313  13.6692224  44.8196522  40.8721167
  21.4630700  46.8821324  32.4249258  20.8118680  47.4675404  32.0383272
  22.2575063  47.4127518  32.4844296  15.3886328  43.9710461  32.8236393
  16.1617204  43.4239448  32.6849268  15.7411726  44.8354710  33.0350854
  17.2271370  45.2986843  46.0303292  16.9361236  46.2032474  45.9149958
  17.8628355  45.3403371  46.7447361  18.1527577  42.6763691  42.6204652
  18.7491149  42.4519714  41.9061614  18.2102549  41.9348437  43.2230099
  22.7695888  39.1338905  38.2629586  23.5558977  38.7158328  37.9120003
  23.0334593  40.0384997  38.4311234  22.9405966  44.5711755  32.9618243
  22.3051799  44.6446382  33.6739147  22.6103372  45.1605354  32.2837322
  28.1704315  39.0714138  39.1662564  28.9029487  38.5013355  39.4000394
  27.4143671  38.6835739  39.6069070  17.4448894  42.0331233  32.6579217
  17.3285152  41.3576136  33.3260302  17.5551154  41.5463607  31.8411371
  19.7880435  41.4941380  36.3625907  19.4238642  40.9672001  37.0738828
  20.6447551  41.1039849  36.1892392  25.6929736  32.7835712  43.6257173
  25.3613061  33.6531123  43.4018388  25.0975349  32.4671996  44.3051203
  22.1861255  44.9848258  43.0253086  21.8861978  45.8873297  42.9168893
  21.8412315  44.7180442  43.8774238  15.6373737  41.4362055  39.0589790
  14.7124233  41.3038269  39.2667482  15.8858150  42.2156275  39.5559732
  25.5858399  37.5030799  40.7050523  24.6775276  37.4346207  40.4109284
  25.5345995  37.9802744  41.5332348  19.4075143  38.9788937  32.3433922
  19.2874768  39.4245988  33.1819402  18.7127731  39.3274255  31.7847460
  12.9982548  41.0795329  39.8933579  13.1274929  41.3329808  40.8072991
  12.3179999  41.6723037  39.5738234  17.1682035  51.7492579  35.9924053
  17.0906065  52.7000404  36.0712534  16.5643679  51.4038451  36.6498980
  19.6599265  38.9220444  48.6485420  18.8832599  39.4814364  48.6388285
  20.2989828  39.4077227  49.1700290  27.4520045  35.7047237  42.4828397
  26.8094426  35.9979770  41.8368191  26.9474974  35.5900157  43.2881593
  25.1060209  39.4510410  33.1714256  26.0178065  39.6837797  32.9961954
  24.5969856  40.0347454  32.6089335  17.9145637  41.7305898  48.2103387
  18.6560322  42.2690942  47.9338211  17.2082623  42.3572186  48.3674939
  23.3900977  43.8735038  46.8075549  23.7984333  43.4317449  46.0630181
  22.6678238  43.2987666  47.0609742  19.7432047  38.8107645  44.1809106
  20.5893242  39.2347058  44.3243755  19.6830684  38.1541269  44.8747669
  23.7129791  44.4336229  40.5627838  23.0838654  44.5981943  39.8603905
  23.3255453  44.8477838  41.3338802  27.5919023  45.3690667  37.9172201
  26.9070061  45.7489568  37.3669235  27.6762873  45.9785993  38.6504149
  22.8931492  36.4712013  45.8390279  22.6492424  37.2254074  45.3024555
  23.1691423  36.8497361  46.6737526  24.8469955  43.0150626  44.5167545
  25.0586850  43.6582385  43.8401926  24.7999703  42.1812942  44.0489475
  22.4496184  35.6268446  41.4204117  21.5880663  35.9249700  41.7120855
  22.4758619  35.8438845  40.4885150  19.2657753  44.1710637  37.8277923
  19.7296099  44.4498340  37.0382545  19.0014551  43.2694081  37.6451013
  16.1581834  43.7182118  40.7657686  16.7283191  44.1469387  40.1275170
  16.7489946  43.4364703  41.4641872  18.2026639  40.2933789  34.6367488
  18.9050683  40.7454833  35.1041414  17.8707268  39.6517608  35.2647381
  16.6507001  38.8845546  49.0118697  16.0205661  39.5661827  49.2454094
  16.5443089  38.7728627  48.0671835  11.9451973  38.5517342  39.9384621
  11.1551027  38.8074870  39.4624732  12.4363221  39.3665680  40.0436662
  25.9615783  45.8922581  42.6889902  26.7833227  45.4902768  42.4072584
  25.9578186  45.7890815  43.6406018  13.8966719  38.9161921  36.8968098
  13.0997882  39.0280615  37.4151594  13.6692311  39.2548573  36.0308989
  19.7272386  45.4406624  44.8450613  19.7916819  45.9027032  45.6808785
  19.0183310  44.8103989  44.9732923  10.2289676  38.8047832  42.3699612
  10.4797715  39.6894842  42.6357188  10.7649225  38.6252434  41.5974704
  34.0521776  42.2361329  39.0374874  33.2985484  41.6668728  38.8818878
  34.1869317  42.2023994  39.9845508  19.4420404  47.1074732  34.7129593
  19.3066079  47.9526267  35.1414441  19.9830216  47.3094009  33.9495527
  15.9287744  33.1866312  51.3743948  15.5354689  32.6332510  52.0491592
  16.7453884  33.4976890  51.7650466  12.8949801  44.6250170  35.2857518
  13.4074322  45.4193420  35.4363083  13.5472514  43.9276460  35.2191120
  14.7044686  47.7415926  37.3680271  14.8811314  48.6633891  37.1801255
  15.5001520  47.4274345  37.7974651  18.8455705  34.6024191  48.9664205
  19.5865418  35.2031344  48.8868667  19.0773627  33.8601829  48.4082247
  13.9897043  39.7880558  47.2442434  13.8750558  38.8865815  47.5449533
  13.1341560  40.0344255  46.8927251  21.0688880  47.7298298  48.8429935
  20.6252735  46.9434677  48.5250840  21.7306094  47.9177449  48.1773826
  15.8276002  49.2594100  43.3690614  16.3783427  49.1311163  42.5967608
  14.9887477  49.5588989  43.0185506  23.1670118  48.0101098  46.8711336
  23.1488594  48.8309979  46.3791606  24.0890038  47.8855173  47.0961478
  19.6243173  45.5245228  47.7134845  20.1571509  44.7633516  47.4834153
  19.0957254  45.2318880  48.4558999  22.7912868  30.6305294  43.2428486
  22.4477137  31.5206935  43.1667597  23.1591830  30.4406951  42.3798071
  10.8598718  42.9538824  36.0617089  11.6973940  43.3635832  35.8450796
  11.0376986  42.0138266  36.0317283  22.7563150  40.6213905  31.7500922
  22.2409774  41.3918509  31.9889309  22.4840459  39.9479041  32.3733983
  20.3410261  35.4663606  36.8086160  19.4851858  35.0770456  36.6291799
  20.7537213  35.5455566  35.9485945  21.8709408  33.0009949  41.2077720
  21.3674204  32.9640084  40.3945525  22.1640015  33.9102692  41.2674376
  18.1152294  33.0848679  40.2143901  18.9805291  32.8891487  39.8549791
  18.1829803  32.8559030  41.1413258  27.7297424  43.3746259  33.6854095
  26.9526867  43.0357419  33.2409257  28.4088905  43.3798883  33.0109060
  22.5449453  38.4940997  33.5760703  22.2399589  38.8087146  34.4270846
  23.4979896  38.5722417  33.6188036  20.9895885  44.6531220  35.2253657
  20.4617247  43.9183980  34.9126894  20.4883388  45.4305897  34.9793625
  25.9688731  42.8480241  40.3420703  25.3112406  43.5379502  40.4300832
  26.7729131  43.2376673  40.6854689  15.7214613  35.3150886  37.5860268
  16.2958365  35.0926068  36.8533461  16.3085595  35.3839581  38.3388870
  24.7794190  41.2024613  38.3924645  25.2926072  41.8354605  38.8946355
  25.4295414  40.6025809  38.0268005  18.0237281  32.1892135  36.3135338
  17.3701693  31.8741153  35.6891952  17.9817755  31.5667876  37.0395161
  22.0416564  51.1808938  31.1485316  21.3678263  51.4840634  31.7570274
  22.4282386  51.9838018  30.7990773  21.2575021  38.6774069  40.6382985
  20.3397582  38.8989016  40.4804673  21.6735165  38.7520379  39.7794693
  22.0410069  40.0765485  35.7685666  22.7881888  40.5886882  35.4592788
  22.3101658  39.7549537  36.6290059  20.3136719  42.5724025  32.7512620
  19.4047938  42.2883058  32.8485090  20.3431803  42.9923104  31.8915927
  25.5455986  46.1830615  36.5203787  25.0918313  45.3421525  36.5768978
  24.9149953  46.8192013  36.8578568  24.4888906  37.1122601  37.7504455
  23.7511663  36.5999987  38.0814697  24.7415679  36.6722982  36.9387732
  23.9888926  48.0207111  37.4553606  24.2811900  48.5812169  36.7365971
  24.4987546  48.3135672  38.2106765  24.5900533  29.8898853  38.3446224
  24.8959410  29.0296216  38.0572139  25.3153138  30.4816473  38.1445218
  10.8824889  40.2929539  36.7327822  10.6849289  39.6998900  36.0078889
  10.3271553  39.9881750  37.4503761  18.8621613  40.1852646  38.8522415
  18.9170223  39.2326482  38.7764892  18.0512815  40.3412085  39.3363714
  20.0112807  44.1132769  30.0900698  19.5732237  43.3968628  29.6306336
  20.7523248  44.3408884  29.5285790  16.8013973  38.8029706  36.6112794
  15.9881838  39.1023876  37.0177986  17.2972967  38.4085394  37.3287276
  18.9522551  48.7987463  38.5447059  18.9098730  49.0248309  37.6155591
  19.8685250  48.5650837  38.6932860  22.3988185  39.2671530  45.4427688
  22.7537572  39.4943003  46.3022154  23.0460316  39.5989907  44.8204943
  28.1285921  42.3889966  36.1477017  27.9903820  42.5791562  35.2198206
  27.7722140  43.1509349  36.6045068  16.2928048  36.3748061  42.2274029
  16.9327427  36.2336820  41.5296992  15.4605578  36.0882575  41.8512631
  28.1555301  44.4566493  41.1588289  28.5891808  44.3641782  42.0071343
  28.8686882  44.4323993  40.5208305  17.0688352  45.6750492  38.3409022
  17.8628950  45.1800812  38.1391596  16.3580044  45.1468355  37.9776727
  21.8883196  48.0568587  42.6921389  21.9420218  48.6259523  43.4599105
  21.0197977  48.2270472  42.3275426  13.3771115  39.8193573  34.4168774
  12.4468703  39.7578029  34.6338736  13.4728587  39.2969526  33.6205415
  13.2956664  36.3448386  37.0047016  13.5563481  37.2593719  36.8956176
  14.1173836  35.8772829  37.1543629  14.7681589  37.7586143  44.1745840
  15.4404643  37.5503505  43.5258489  13.9411376  37.5608229  43.7351073
  29.0170851  44.4990194  43.6921174  29.2106741  45.4036004  43.9380449
  28.9171469  44.0397613  44.5259759  20.6707161  34.3848084  46.1911501
  20.0235076  35.0838034  46.0975978  21.4408177  34.8184228  46.5587749
  24.0785959  44.6496936  49.2662055  23.9271466  44.4207488  48.3492138
  24.0690639  45.6067538  49.2793400  20.8471296  42.2228849  44.2508321
  21.7763356  42.3740009  44.0777288  20.4262326  42.3112870  43.3956967
  19.6459628  46.2479514  42.0206859  19.5070713  45.8798298  42.8932797
  18.8574224  46.7627153  41.8490816  20.2407779  51.3488610  33.3632395
  20.4159535  50.8776653  34.1778018  19.5540568  51.9754376  33.5913656
  21.1964843  45.6261116  39.4095696  20.8614675  45.5861886  40.3053346
  20.6968788  44.9605832  38.9366107  15.1709087  41.0328746  44.9348278
  15.0328885  40.3008985  45.5359817  16.0814010  40.9437646  44.6532465
  24.1324034  42.9717151  29.6832756  23.5153205  42.2463979  29.5865809
  23.6640523  43.7326511  29.3399830  17.7991387  40.7448706  44.4231957
  18.5091006  40.1041898  44.3818576  17.7560695  40.9961600  45.3458138
  25.7878166  47.6816059  47.3438536  25.7290712  46.9975279  46.6769119
  26.1897684  48.4235049  46.8919162  16.5120321  37.7313924  46.2427597
  15.9757678  37.2804662  46.8949193  15.9237030  37.8659832  45.4998061
  14.8068865  54.4977973  40.1372255  15.0465463  55.1296497  40.8151274
  13.9638061  54.1466013  40.4237615  25.7895573  45.6455643  45.5752516
  24.9022352  45.3081565  45.6978915  26.3594124  44.9138674  45.8121281
   7.4424720  41.9779735  38.8995567   8.1295760  41.6641465  38.3116583
   7.2872849  42.8821099  38.6262819  12.2459442  36.8669931  43.3280591
  12.1617631  36.2595601  42.5931001  11.4242149  37.3578950  43.3290087
  19.3196727  50.3057095  42.5413759  19.2466898  51.1112067  43.0533064
  18.8774120  50.5049061  41.7161781  19.1086506  49.5428865  36.0516581
  18.3254028  50.0850545  36.1454805  19.8079251  50.0602845  36.4510822
  22.4183156  35.3523495  38.6950786  22.9151856  34.5993457  38.3751856
  21.6470138  35.3887811  38.1293996  30.2712914  41.0563860  40.3369078
  30.2602790  41.9388576  39.9663011  29.4030293  40.7035411  40.1423615
  21.7795410  50.2043929  44.6971918  22.4923382  50.8391394  44.6247819
  21.2885439  50.3007795  43.8811920  23.5012937  44.1095182  36.2689210
  22.5669216  44.2296644  36.0993914  23.6789606  43.2067649  36.0049219
  19.0018125  37.4940878  38.4222471  18.6315913  36.9411918  39.1103376
  19.4977218  36.8899011  37.8697471  26.8885488  39.9512501  36.8039244
  27.3545941  40.7840493  36.7299546  27.3392989  39.4857483  37.5084502
  16.8307324  47.9538373  45.5177489  17.5316783  48.5874856  45.6706883
  16.3602439  48.2953104  44.7573128  24.9561720  46.2956323  33.8025396
  25.2321563  46.1812917  34.7119270  24.0866218  45.8973807  33.7637569
  24.8602151  32.3193088  40.8430145  23.9465231  32.5497315  41.0112352
  25.2895253  32.4031532  41.6944177  24.6308610  40.5082980  43.3430039
  23.9780060  40.7558888  42.6882492  25.0088990  39.6947118  43.0092516
  21.5915784  50.5442673  37.4458209  21.7738178  49.7264329  37.9085962
  22.4148770  50.7610366  37.0083099  21.9257949  49.4710859  34.7073258
  22.4545715  48.9603313  34.0943420  22.1886169  49.1553389  35.5718791
  20.6796183  41.2502791  49.8296076  20.0036820  41.1496921  50.4998451
  21.5023817  41.0942005  50.2932073  12.4275042  47.4874728  42.4508591
  13.0128479  46.7418416  42.5836496  12.2299880  47.7978685  43.3345255
  15.2813697  50.5225975  37.4671034  14.6124072  51.0072103  36.9835074
  15.1426567  50.7695196  38.3814412   7.0192696  40.0580328  41.1713035
   7.0576796  39.5243919  41.9650153   6.5132989  39.5315534  40.5524012
  19.4218966  52.5569719  44.0653692  19.9737274  52.7201340  44.8302777
  19.7625159  53.1474157  43.3933717  14.3983459  34.9044869  44.6675577
  14.4624785  35.7659699  44.2552975  14.3350579  34.2918870  43.9347935
  13.8735731  36.9768001  48.3148611  14.5007770  36.5945078  48.9286135
  13.0163650  36.7582203  48.6804304  24.2729840  47.3830976  49.9202347
  24.8169744  47.9960934  49.4257301  23.6916685  47.9410555  50.4369360
  22.5587353  50.5051694  41.0517374  22.4338492  49.7041434  40.5428320
  23.2166444  50.9997888  40.5631344  14.1795521  36.8600427  40.2294515
  13.4582107  37.4736394  40.0901988  14.9688777  37.3958192  40.1511161
  24.6222261  48.3060714  42.6796924  23.6752597  48.1866066  42.6075251
  24.9705034  47.4183212  42.7623186  16.9821835  34.1954853  46.5035166
  17.5056236  34.4417150  47.2661476  16.7634168  35.0274888  46.0838304
  21.6268695  48.1013431  38.8801277  21.4793657  47.1730138  39.0608847
  22.4522188  48.1233521  38.3958352  15.4930939  36.7531498  34.7381769
  15.8327011  37.2817419  34.0160377  15.9403059  37.0911904  35.5140335
  25.2302816  48.9241989  39.9666149  26.1549364  48.7184851  39.8290601
  25.0618120  48.6758390  40.8755491  18.1874380  35.1368548  44.1884837
  17.8471200  34.3376361  44.5905517  17.4813386  35.4370259  43.6161670
  18.8390851  32.2217861  42.6412160  19.6616921  31.7478339  42.5191050
  19.0828915  33.0008345  43.1410846  21.6230209  35.9551268  33.8733394
  21.8393823  36.8375906  33.5722222  21.1424276  35.5637482  33.1439036
  16.3629430  38.9136981  40.4504138  16.2174011  39.2277284  41.3428420
  15.8854634  39.5321882  39.8975037  18.2225813  35.9039529  40.4985028
  18.2087382  35.0080623  40.1617326  18.9398241  35.9110193  41.1323314
  20.0751944  36.3376870  42.5438155  19.8169722  37.2593940  42.5422486
  19.5436984  35.9407304  43.2338620  25.0198133  49.4427657  35.3228241
  25.1935010  48.8774079  34.5702093  25.5127024  50.2428552  35.1407731
  10.8375092  41.4542326  43.3891800  10.2928560  42.2302134  43.5212074
  11.7154442  41.8013130  43.2310921  17.6262709  34.7853910  35.7672598
  17.7478620  33.8570556  35.9663486  17.3364751  34.7992596  34.8550914
  20.4953899  32.4708820  38.9039318  20.5175596  32.5348153  37.9491298
  20.9121958  31.6313329  39.0979824  30.8737524  42.2064080  36.9418541
  31.3168670  41.4571405  36.5437664  29.9964034  42.1974216  36.5592273
  26.0073305  48.7594421  32.4225139  26.7024210  49.3801114  32.6412454
  26.3496455  47.9089772  32.6977517  11.6241114  40.5812222  46.2821957
  10.8822850  40.7294857  46.8686587  11.3033859  40.8420488  45.4188706
  27.9064728  46.2094127  33.9512470  28.4316052  46.5481399  33.2261790
  27.8187081  45.2741142  33.7675605  19.5684777  50.1228200  46.0802347
  19.8771903  49.8777347  46.9525046  20.3660259  50.3274839  45.5921217
  19.5905389  52.2766110  38.3107723  19.1510379  51.7842489  39.0040580
  20.3413506  51.7339078  38.0699798  12.0697728  48.4677651  38.3132351
  12.8955748  48.1681423  37.9330995  11.7191780  47.6985273  38.7622140
  17.0379261  47.8204119  40.3830025  16.4159270  47.1574824  40.0832253
  17.7084128  47.8465251  39.7003673  10.2706333  46.3863977  39.2721285
   9.4338241  45.9586152  39.0905286  10.2429978  46.5796421  40.2092076
  17.1103789  36.2985907  49.9762531  17.1591944  37.1748030  49.5940300
  17.6526303  35.7563300  49.4034174  27.5958634  46.8427030  49.2563668
  26.8054178  46.8251169  48.7168167  27.3591989  47.3815324  50.0112704
  27.7156509  43.6919497  46.5696396  27.7654514  43.5269504  47.5111919
  27.6070433  42.8246756  46.1794277  16.5992768  46.3708042  33.8588485
  16.7480888  47.0543507  33.2055158  17.4059211  46.3513132  34.3737941
  25.0060272  39.6750425  47.8855703  25.9070134  39.5356890  47.5939701
  25.0808246  39.8404880  48.8253881  19.3403077  37.0517279  46.7308889
  18.4706386  37.3450846  46.4591478  19.5762557  37.6357724  47.4516153
  29.2174706  46.1116438  46.8138418  28.9259514  46.4746419  47.6501879
  28.6046837  45.3983446  46.6351750  30.4170388  43.6769318  39.3340988
  31.2517280  44.1159122  39.4978549  30.5529517  43.2007971  38.5149234
  27.4661894  41.2349053  45.2818476  27.9416016  41.4276699  44.4737327
  26.5427460  41.2908239  45.0361860  14.3545401  42.3973220  34.8649554
  14.1091443  41.4935550  35.0629764  14.5241316  42.3990370  33.9229032
  22.0442111  33.2696896  44.2474310  22.5624055  34.0057923  43.9220798
  21.6897244  33.5760890  45.0821069  22.2954705  29.6897179  39.7675206
  22.5756459  29.0220368  40.3935633  23.0805312  29.8826275  39.2549870
  20.0988174  48.8656173  31.3300233  19.5262141  49.4846360  30.8770705
  20.6720967  49.4155534  31.8640155  26.1663563  38.1114813  43.5146782
  27.1180986  38.2112911  43.5359006  25.9967014  37.3193081  44.0244866
  24.1877943  35.1970396  43.7006182  23.5927875  35.4775409  43.0052671
  23.9027640  35.6864297  44.4722924  23.3185433  49.1493323  32.4608815
  24.2516106  49.0838885  32.6641691  23.2308646  49.9849590  32.0023348
  25.9473450  48.4659193  29.4212763  25.8687081  48.1319057  30.3148520
  26.7683117  48.9580961  29.4204235  28.6451641  41.3320933  42.6289081
  28.6127961  40.3936933  42.8148765  29.2552265  41.4104969  41.8954906
  28.7946130  38.1231976  42.6747364  28.2785178  37.3390433  42.4877293
  29.6786078  37.7950693  42.8393884  26.4556857  31.8672992  38.6343177
  26.2581678  31.5588080  39.5186509  27.0656562  32.5934630  38.7641107
  34.4628191  42.3936939  41.7695118  35.1931579  42.1322228  42.3302821
  33.8535136  41.6565661  41.8097186  32.5443488  40.5344802  42.3669569
  31.8176652  40.4000767  41.7586061  32.1290775  40.8421631  43.1726287
  20.3673665  44.2534732  50.1316942  21.2876674  44.4313331  50.3256989
  20.3323248  43.3090777  49.9796641   9.5855830  39.4473325  39.0570217
   9.2658614  38.5938634  38.7644591   9.0389258  39.6621904  39.8128184
  13.3635737  42.1635766  42.7739723  13.5821747  43.0952874  42.7927757
  13.7761511  41.8043741  43.5594527  20.2839955  32.6703852  34.7615412
  19.4740683  32.3250937  35.1370658  20.9724372  32.3611395  35.3503023
  22.2130503  31.7481898  36.3839708  22.7661542  32.1677352  37.0429731
  22.4500590  30.8217647  36.4262664  18.2363602  37.7368972  52.1642472
  18.1360329  38.6863329  52.0954563  18.0185144  37.4087211  51.2918542
   9.4544090  43.0676237  41.0263338   8.7607561  42.6530190  40.5133293
  10.2017081  43.1096773  40.4296757  25.5909310  33.8582424  35.8918373
  25.0107979  34.5167228  35.5096425  25.3245243  33.0359768  35.4805790
  24.0412877  33.2587481  38.0939693  24.5412655  33.3704016  37.2854012
  24.6848485  32.9548534  38.7340501  18.0994872  41.1666111  50.9807534
  17.6161954  41.9666471  51.1871423  18.1855812  41.1774056  50.0274978
  11.3680832  42.9994491  38.9029353  11.3451520  43.0982178  37.9511236
  11.6781469  43.8459641  39.2246519  14.0268210  45.0570646  43.0175968
  14.9811463  45.0254588  42.9505899  13.8280734  44.5961269  43.8326194
  14.6167592  43.6271762  45.5846765  15.4360481  44.1215840  45.6081603
  14.8904400  42.7103730  45.5564333  24.3734188  36.0182514  34.9474721
  23.4860043  36.3032165  34.7294916  24.7888177  35.8576277  34.1001998
  27.7248724  36.0429035  38.6629060  28.5009115  36.5325487  38.9353677
  26.9996859  36.4687089  39.1200930  30.1621283  36.7556654  39.7203001
  30.7565774  36.5152390  39.0096309  30.2347867  36.0363785  40.3476537
  12.3818439  50.5990265  40.0346166  12.2472907  49.8390666  39.4684164
  11.9650501  51.3231165  39.5674954  23.5177402  45.7827189  29.0422741
  24.2213252  45.9877191  29.6580397  22.7940051  46.3503951  29.3071824
  24.3475212  41.5337050  35.1625011  24.2910413  41.9905601  34.3232643
  24.9003554  40.7727735  34.9847854  28.1580018  37.3226782  35.9875131
  27.9016952  36.9223417  36.8183338  27.5332886  38.0370576  35.8625270
  32.4692356  40.0622855  38.4946422  31.9091914  40.1316044  39.2677984
  31.8635859  39.8863840  37.7745918  15.5387565  51.4959582  40.2464608
  15.4219949  52.4405015  40.1443299  14.7180011  51.1933144  40.6350407
  25.4264099  46.2209718  31.0921201  26.2609703  45.7890916  30.9098676
  25.2648442  46.0491732  32.0198095  25.0809991  42.7241831  32.4577540
  25.0258795  42.5586103  31.5165984  24.4556047  43.4317864  32.6139730
   9.8702506  37.9609896  46.2838962  10.5161370  37.4508850  46.7726188
   9.6619657  38.6978577  46.8582388  22.3955899  45.0290743  51.7831103
  23.2647058  45.2031395  51.4217738  21.9162650  45.8485160  51.6606832
  16.5642079  52.1487844  43.4620537  17.4669325  52.1811454  43.7787032
  16.3379449  51.2188295  43.4766872  18.3195681  50.9018831  40.1230615
  17.3691312  50.9020692  40.0094988  18.6228167  50.1551565  39.6066650
  22.2058236  28.8192717  36.2908795  21.4390632  28.2651204  36.4365478
  22.6168941  28.8914586  37.1522947  14.2099997  35.1077513  50.3813977
  15.0731459  34.7514317  50.5917301  13.6365408  34.7691407  51.0689381
  34.0548374  56.7379369  41.1876378  34.6926784  56.6186116  40.4839718
  33.9369217  57.6860213  41.2464330  30.8638081  56.6906797  41.1237902
  30.5256592  56.5747862  40.2358437  31.7327849  56.2897962  41.1038909
  26.7224896  58.5442274  37.1134793  26.1589761  58.4532210  36.3451081
  26.6077291  57.7242178  37.5937286  31.3457864  57.8441649  47.0824108
  31.3346504  57.4494447  46.2104612  31.5078503  57.1107721  47.6757879
  24.2689328  60.0393465  39.9519014  25.0610620  59.6984290  39.5365313
  24.5085978  60.1488440  40.8721167  32.3024455  62.2113241  32.4249258
  31.6512435  62.7967322  32.0383272  33.0968818  62.7419436  32.4844296
  26.2280082  59.3002378  32.8236393  27.0010958  58.7531365  32.6849268
  26.5805481  60.1646628  33.0350854  28.0665125  60.6278761  46.0303292
  27.7754991  61.5324391  45.9149958  28.7022109  60.6695288  46.7447361
  28.9921332  58.0055609  42.6204652  29.5884904  57.7811632  41.9061614
  29.0496303  57.2640355  43.2230099  28.5646360  55.4595044  30.4554843
  28.8171881  54.9376566  29.6938306  27.6270919  55.2961190  30.5581526
  33.6089643  54.4630823  38.2629586  34.3952732  54.0450246  37.9120003
  33.8728347  55.3676915  38.4311234  33.7799720  59.9003673  32.9618243
  33.1445553  59.9738300  33.6739147  33.4497127  60.4897272  32.2837322
  39.0098070  54.4006056  39.1662564  39.7423242  53.8305273  39.4000394
  38.2537426  54.0127656  39.6069070  28.2842649  57.3623150  32.6579217
  28.1678907  56.6868054  33.3260302  28.3944909  56.8755524  31.8411371
  30.6274190  56.8233298  36.3625907  30.2632397  56.2963919  37.0738828
  31.4841305  56.4331767  36.1892392  36.5323490  48.1127630  43.6257173
  36.2006815  48.9823041  43.4018388  35.9369104  47.7963914  44.3051203
  30.2679677  51.8523197  31.3587255  30.4354079  52.7203434  31.7257726
  30.0776846  52.0150479  30.4348544  33.0255010  60.3140176  43.0253086
  32.7255733  61.2165215  42.9168893  32.6806069  60.0472359  43.8774238
  26.4767491  56.7653973  39.0589790  25.5517988  56.6330187  39.2667482
  26.7251904  57.5448192  39.5559732  36.4252154  52.8322716  40.7050523
  35.5169031  52.7638125  40.4109284  36.3739749  53.3094661  41.5332348
  30.2468897  54.3080855  32.3433922  30.1268523  54.7537906  33.1819402
  29.5521486  54.6566172  31.7847460  23.8376302  56.4087247  39.8933579
  23.9668683  56.6621725  40.8072991  23.1573754  57.0014955  39.5738234
  28.0075790  67.0784496  35.9924053  27.9299819  68.0292322  36.0712534
  27.4037433  66.7330369  36.6498980  30.4993019  54.2512362  48.6485420
  29.7226353  54.8106282  48.6388285  31.1383582  54.7369145  49.1700290
  38.2913800  51.0339155  42.4828397  37.6488180  51.3271688  41.8368191
  37.7868728  50.9192075  43.2881593  35.9453964  54.7802328  33.1714256
  36.8571820  55.0129715  32.9961954  35.4363611  55.3639372  32.6089335
  28.7539392  57.0597815  48.2103387  29.4954076  57.5982859  47.9338211
  28.0476377  57.6864104  48.3674939  34.2294731  59.2026956  46.8075549
  34.6378087  58.7609366  46.0630181  33.5071993  58.6279583  47.0609742
  30.5825801  54.1399563  44.1809106  31.4286997  54.5638976  44.3243755
  30.5224439  53.4833187  44.8747669  34.5523546  59.7628146  40.5627838
  33.9232408  59.9273860  39.8603905  34.1649208  60.1769756  41.3338802
  38.4312778  60.6982584  37.9172201  37.7463816  61.0781486  37.3669235
  38.5156627  61.3077911  38.6504149  33.7325247  51.8003931  45.8390279
  33.4886179  52.5545991  45.3024555  34.0085177  52.1789278  46.6737526
  35.6863709  58.3442543  44.5167545  35.8980605  58.9874303  43.8401926
  35.6393458  57.5104860  44.0489475  33.2889938  50.9560364  41.4204117
  32.4274417  51.2541617  41.7120855  33.3152373  51.1730763  40.4885150
  30.1051508  59.5002554  37.8277923  30.5689853  59.7790257  37.0382545
  29.8408306  58.5985999  37.6451013  26.9975589  59.0474036  40.7657686
  27.5676946  59.4761304  40.1275170  27.5883701  58.7656621  41.4641872
  29.0420394  55.6225707  34.6367488  29.7444437  56.0746750  35.1041414
  28.7101022  54.9809526  35.2647381  27.4900755  54.2137463  49.0118697
  26.8599416  54.8953744  49.2454094  27.3836843  54.1020545  48.0671835
  22.7845728  53.8809259  39.9384621  21.9944782  54.1366788  39.4624732
  23.2756975  54.6957597  40.0436662  36.8009537  61.2214499  42.6889902
  37.6226981  60.8194686  42.4072584  36.7971940  61.1182733  43.6406018
  24.7360473  54.2453839  36.8968098  23.9391636  54.3572533  37.4151594
  24.5086065  54.5840491  36.0308989  30.5666141  60.7698542  44.8450613
  30.6310573  61.2318949  45.6808785  29.8577065  60.1395907  44.9732923
  21.0683431  54.1339750  42.3699612  21.3191469  55.0186760  42.6357188
  21.6042979  53.9544351  41.5974704  44.8915530  57.5653247  39.0374874
  44.1379239  56.9960645  38.8818878  45.0263072  57.5315912  39.9845508
  30.2814158  62.4366649  34.7129593  30.1459833  63.2818185  35.1414441
  30.8223971  62.6385927  33.9495527  26.7681498  48.5158229  51.3743948
  26.3748444  47.9624428  52.0491592  27.5847638  48.8268808  51.7650466
  23.7343556  59.9542087  35.2857518  24.2468076  60.7485338  35.4363083
  24.3866269  59.2568378  35.2191120  25.5438441  63.0707844  37.3680271
  25.7205069  63.9925808  37.1801255  26.3395274  62.7566263  37.7974651
  29.6849459  49.9316108  48.9664205  30.4259172  50.5323262  48.8868667
  29.9167382  49.1893746  48.4082247  24.8290797  55.1172476  47.2442434
  24.7144312  54.2157733  47.5449533  23.9735315  55.3636172  46.8927251
  31.9082635  63.0590216  48.8429935  31.4646489  62.2726595  48.5250840
  32.5699848  63.2469366  48.1773826  26.6669756  64.5886018  43.3690614
  27.2177181  64.4603081  42.5967608  25.8281232  64.8880907  43.0185506
  34.0063873  63.3393016  46.8711336  33.9882348  64.1601897  46.3791606
  34.9283793  63.2147091  47.0961478  30.4636927  60.8537145  47.7134845
  30.9965264  60.0925434  47.4834153  29.9351008  60.5610797  48.4558999
  33.6306622  45.9597211  43.2428486  33.2870891  46.8498853  43.1667597
  33.9985585  45.7698869  42.3798071  21.6992473  58.2830742  36.0617089
  22.5367695  58.6927750  35.8450796  21.8770740  57.3430184  36.0317283
  33.5956905  55.9505822  31.7500922  33.0803528  56.7210427  31.9889309
  33.3234213  55.2770959  32.3733983  31.1804016  50.7955523  36.8086160
  30.3245612  50.4062374  36.6291799  31.5930968  50.8747484  35.9485945
  32.7103162  48.3301866  41.2077720  32.2067958  48.2932002  40.3945525
  33.0033769  49.2394609  41.2674376  28.9546048  48.4140596  40.2143901
  29.8199045  48.2183405  39.8549791  29.0223557  48.1850948  41.1413258
  38.5691179  58.7038177  33.6854095  37.7920622  58.3649337  33.2409257
  39.2482660  58.7090800  33.0109060  33.3843208  53.8232915  33.5760703
  33.0793343  54.1379064  34.4270846  34.3373650  53.9014334  33.6188036
  31.8289640  59.9823138  35.2253657  31.3011001  59.2475897  34.9126894
  31.3277142  60.7597814  34.9793625  36.8082486  58.1772158  40.3420703
  36.1506160  58.8671420  40.4300832  37.6122885  58.5668590  40.6854689
  26.5608367  50.6442804  37.5860268  27.1352119  50.4217986  36.8533461
  27.1479350  50.7131499  38.3388870  35.6187945  56.5316531  38.3924645
  36.1319826  57.1646523  38.8946355  36.2689168  55.9317727  38.0268005
  26.8877954  52.6747265  31.6056154  26.0515267  53.0121952  31.9265428
  26.7482724  52.5396245  30.6683291  28.8631035  47.5184053  36.3135338
  28.2095447  47.2033070  35.6891952  28.8211509  46.8959793  37.0395161
  29.9742240  57.8003348  28.2288630  29.0669302  57.5692602  28.4279779
  30.4713272  57.0040967  28.4162611  32.8810319  66.5100855  31.1485316
  32.2072018  66.8132552  31.7570274  33.2676141  67.3129936  30.7990773
  32.0968775  54.0065987  40.6382985  31.1791337  54.2280934  40.4804673
  32.5128919  54.0812297  39.7794693  32.8803823  55.4057402  35.7685666
  33.6275642  55.9178799  35.4592788  33.1495413  55.0841455  36.6290059
  31.1530473  57.9015943  32.7512620  30.2441693  57.6174976  32.8485090
  31.1825557  58.3215022  31.8915927  36.3849741  61.5122532  36.5203787
  35.9312068  60.6713442  36.5768978  35.7543708  62.1483931  36.8578568
  35.3282660  52.4414519  37.7504455  34.5905417  51.9291905  38.0814697
  35.5809434  52.0014900  36.9387732  34.8282680  63.3499029  37.4553606
  35.1205654  63.9104086  36.7365971  35.3381301  63.6427590  38.2106765
  35.4294288  45.2190771  38.3446224  35.7353164  44.3588134  38.0572139
  36.1546892  45.8108391  38.1445218  21.7218644  55.6221457  36.7327822
  21.5243044  55.0290818  36.0078889  21.1665308  55.3173667  37.4503761
  29.7015367  55.5144564  38.8522415  29.7563977  54.5618400  38.7764892
  28.8906569  55.6704003  39.3363714  30.8506561  59.4424687  30.0900698
  30.4125991  58.7260546  29.6306336  31.5917002  59.6700801  29.5285790
  27.6407727  54.1321623  36.6112794  26.8275593  54.4315794  37.0177986
  28.1366722  53.7377312  37.3287276  29.7916305  64.1279380  38.5447059
  29.7492484  64.3540227  37.6155591  30.7079004  63.8942755  38.6932860
  33.2381939  54.5963448  45.4427688  33.5931327  54.8234921  46.3022154
  33.8854070  54.9281825  44.8204943  38.9679676  57.7181884  36.1477017
  38.8297575  57.9083480  35.2198206  38.6115895  58.4801267  36.6045068
  27.1321802  51.7039979  42.2274029  27.7721181  51.5628738  41.5296992
  26.2999333  51.4174492  41.8512631  38.9949056  59.7858411  41.1588289
  39.4285562  59.6933700  42.0071343  39.7080636  59.7615911  40.5208305
  27.9082106  61.0042409  38.3409022  28.7022705  60.5092729  38.1391596
  27.1973798  60.4760272  37.9776727  32.7276950  63.3860505  42.6921389
  32.7813973  63.9551441  43.4599105  31.8591732  63.5562390  42.3275426
  24.2164869  55.1485491  34.4168774  23.2862458  55.0869946  34.6338736
  24.3122341  54.6261444  33.6205415  24.1350419  51.6740304  37.0047016
  24.3957236  52.5885637  36.8956176  24.9567591  51.2064746  37.1543629
  25.6075344  53.0878061  44.1745840  26.2798397  52.8795423  43.5258489
  24.7805130  52.8900147  43.7351073  39.8564605  59.8282111  43.6921174
  40.0500495  60.7327922  43.9380449  39.7565223  59.3689530  44.5259759
  31.5100916  49.7140002  46.1911501  30.8628831  50.4129952  46.0975978
  32.2801931  50.1476146  46.5587749  34.9179714  59.9788854  49.2662055
  34.7665220  59.7499406  48.3492138  34.9084393  60.9359456  49.2793400
  31.6865050  57.5520767  44.2508321  32.6157110  57.7031926  44.0777288
  31.2656080  57.6404788  43.3956967  30.4853382  61.5771431  42.0206859
  30.3464468  61.2090216  42.8932797  29.6967978  62.0919071  41.8490816
  31.0801534  66.6780528  33.3632395  31.2553290  66.2068571  34.1778018
  30.3934322  67.3046294  33.5913656  32.0358597  60.9553034  39.4095696
  31.7008430  60.9153804  40.3053346  31.5362543  60.2897750  38.9366107
  26.0102841  56.3620664  44.9348278  25.8722639  55.6300903  45.5359817
  26.9207765  56.2729564  44.6532465  34.9717789  58.3009068  29.6832756
  34.3546959  57.5755896  29.5865809  34.5034277  59.0618429  29.3399830
  28.6385142  56.0740623  44.4231957  29.3484760  55.4333816  44.3818576
  28.5954450  56.3253518  45.3458138  36.6271920  63.0107977  47.3438536
  36.5684467  62.3267197  46.6769119  37.0291439  63.7526967  46.8919162
  27.3514076  53.0605841  46.2427597  26.8151433  52.6096580  46.8949193
  26.7630784  53.1951750  45.4998061  25.6462619  69.8269890  40.1372255
  25.8859217  70.4588415  40.8151274  24.8031816  69.4757931  40.4237615
  26.7616335  52.5194493  28.8054060  25.8845801  52.3983293  28.4416307
  27.2374088  51.7280571  28.5532949  36.6289328  60.9747561  45.5752516
  35.7416106  60.6373482  45.6978915  37.1987879  60.2430592  45.8121281
  18.2818475  57.3071652  38.8995567  18.9689515  56.9933382  38.3116583
  18.1266604  58.2113017  38.6262819  23.0853197  52.1961849  43.3280591
  23.0011386  51.5887518  42.5931001  22.2635903  52.6870867  43.3290087
  30.1590481  65.6349013  42.5413759  30.0860653  66.4403984  43.0533064
  29.7167874  65.8340979  41.7161781  29.9480261  64.8720783  36.0516581
  29.1647783  65.4142463  36.1454805  30.6473006  65.3894763  36.4510822
  33.2576911  50.6815412  38.6950786  33.7545610  49.9285375  38.3751856
  32.4863892  50.7179729  38.1293996  41.1106668  56.3855778  40.3369078
  41.0996545  57.2680493  39.9663011  40.2424048  56.0327329  40.1423615
  32.6189165  65.5335847  44.6971918  33.3317137  66.1683312  44.6247819
  32.1279193  65.6299713  43.8811920  34.3406692  59.4387100  36.2689210
  33.4062970  59.5588562  36.0993914  34.5183360  58.5359566  36.0049219
  29.8411880  52.8232795  38.4222471  29.4709667  52.2703836  39.1103376
  30.3370972  52.2190929  37.8697471  37.7279243  55.2804419  36.8039244
  38.1939695  56.1132411  36.7299546  38.1786743  54.8149400  37.5084502
  27.6701078  63.2830290  45.5177489  28.3710538  63.9166773  45.6706883
  27.1996193  63.6245022  44.7573128  35.7955474  61.6248240  33.8025396
  36.0715318  61.5104835  34.7119270  34.9259973  61.2265725  33.7637569
  35.6995906  47.6485006  40.8430145  34.7858985  47.8789233  41.0112352
  36.1289007  47.7323450  41.6944177  35.4702364  55.8374898  43.3430039
  34.8173814  56.0850805  42.6882492  35.8482744  55.0239036  43.0092516
  32.4309538  65.8734591  37.4458209  32.6131933  65.0556247  37.9085962
  33.2542524  66.0902283  37.0083099  32.7651704  64.8002776  34.7073258
  33.2939470  64.2895231  34.0943420  33.0279923  64.4845306  35.5718791
  31.5189937  56.5794709  49.8296076  30.8430574  56.4788838  50.4998451
  32.3417571  56.4233923  50.2932073  23.2668796  62.8166645  42.4508591
  23.8522233  62.0710333  42.5836496  23.0693635  63.1270602  43.3345255
  26.1207451  65.8517893  37.4671034  25.4517827  66.3364020  36.9835074
  25.9820321  66.0987113  38.3814412  17.8586451  55.3872246  41.1713035
  17.8970550  54.8535836  41.9650153  17.3526744  54.8607451  40.5524012
  30.2612720  67.8861636  44.0653692  30.8131028  68.0493258  44.8302777
  30.6018914  68.4766074  43.3933717  25.2377213  50.2336786  44.6675577
  25.3018540  51.0951617  44.2552975  25.1744334  49.6210788  43.9347935
  24.7129486  52.3059919  48.3148611  25.3401525  51.9236996  48.9286135
  23.8557405  52.0874121  48.6804304  35.1123594  62.7122894  49.9202347
  35.6563498  63.3252852  49.4257301  34.5310439  63.2702472  50.4369360
  21.4895029  54.1136348  34.2466966  21.7848470  53.2047026  34.1934020
  20.5883064  54.0924087  33.9247968  33.3981107  65.8343612  41.0517374
  33.2732247  65.0333352  40.5428320  34.0560198  66.3289805  40.5631344
  25.0189276  52.1892344  40.2294515  24.2975861  52.8028312  40.0901988
  25.8082531  52.7250109  40.1511161  35.4616016  63.6352632  42.6796924
  34.5146351  63.5157983  42.6075251  35.8098789  62.7475130  42.7623186
  27.8215589  49.5246771  46.5035166  28.3449991  49.7709067  47.2661476
  27.6027922  50.3566806  46.0838304  23.2182870  51.7950445  34.3706291
  22.8895576  50.9147824  34.1881397  23.5722241  51.7398114  35.2582680
  32.4662449  63.4305348  38.8801277  32.3187411  62.5022056  39.0608847
  33.2915943  63.4525439  38.3958352  26.3324693  52.0823415  34.7381769
  26.6720766  52.6109337  34.0160377  26.7796814  52.4203821  35.5140335
  36.0696571  64.2533907  39.9666149  36.9943118  64.0476768  39.8290601
  35.9011874  64.0050308  40.8755491  29.0268134  50.4660466  44.1884837
  28.6864954  49.6668279  44.5905517  28.3207140  50.7662177  43.6161670
  29.6784606  47.5509778  42.6412160  30.5010675  47.0770257  42.5191050
  29.9222669  48.3300262  43.1410846  28.3192840  50.5798037  32.9375062
  29.0401203  50.9579290  32.4338778  27.6958145  51.2986914  33.0410040
  32.4623963  51.2843186  33.8733394  32.6787578  52.1667824  33.5722222
  31.9818030  50.8929399  33.1439036  27.2023185  54.2428899  40.4504138
  27.0567765  54.5569202  41.3428420  26.7248388  54.8613799  39.8975037
  29.0619568  51.2331447  40.4985028  29.0481136  50.3372540  40.1617326
  29.7791996  51.2402111  41.1323314  30.9145698  51.6668787  42.5438155
  30.6563476  52.5885858  42.5422486  30.3830739  51.2699222  43.2338620
  35.8591887  64.7719574  35.3228241  36.0328765  64.2065997  34.5702093
  36.3520778  65.5720469  35.1407731  21.6768847  56.7834243  43.3891800
  21.1322315  57.5594051  43.5212074  22.5548197  57.1305048  43.2310921
  28.4656464  50.1145827  35.7672598  28.5872375  49.1862474  35.9663486
  28.1758506  50.1284513  34.8550914  31.3347654  47.8000738  38.9039318
  31.3569351  47.8640071  37.9491298  31.7515713  46.9605246  39.0979824
  41.7131278  57.5355997  36.9418541  42.1562424  56.7863323  36.5437664
  40.8357789  57.5266134  36.5592273  36.8467060  64.0886339  32.4225139
  37.5417964  64.7093031  32.6412454  37.1890210  63.2381690  32.6977517
  22.4634869  55.9104140  46.2821957  21.7216605  56.0586775  46.8686587
  22.1427613  56.1712405  45.4188706  38.7458483  61.5386044  33.9512470
  39.2709807  61.8773317  33.2261790  38.6580835  60.6033060  33.7675605
  30.4078531  65.4520118  46.0802347  30.7165658  65.2069265  46.9525046
  31.2054013  65.6566756  45.5921217  30.4299143  67.6058028  38.3107723
  29.9904134  67.1134406  39.0040580  31.1807260  67.0630995  38.0699798
  22.9091482  63.7969568  38.3132351  23.7349502  63.4973340  37.9330995
  22.5585534  63.0277191  38.7622140  27.8773016  63.1496037  40.3830025
  27.2553025  62.4866742  40.0832253  28.5477882  63.1757169  39.7003673
  21.1100087  61.7155895  39.2721285  20.2731996  61.2878069  39.0905286
  21.0823733  61.9088338  40.2092076  27.9497543  51.6277825  49.9762531
  27.9985699  52.5039948  49.5940300  28.4920057  51.0855218  49.4034174
  38.4352389  62.1718948  49.2563668  37.6447932  62.1543087  48.7168167
  38.1985743  62.7107242  50.0112704  38.5550264  59.0211414  46.5696396
  38.6048269  58.8561422  47.5111919  38.4464187  58.1538673  46.1794277
  27.4386522  61.6999960  33.8588485  27.5874643  62.3835424  33.2055158
  28.2452966  61.6805050  34.3737941  35.8454026  55.0042342  47.8855703
  36.7463889  54.8648807  47.5939701  35.9202001  55.1696797  48.8253881
  30.1796831  52.3809197  46.7308889  29.3100141  52.6742763  46.4591478
  30.4156312  52.9649642  47.4516153  40.0568461  61.4408356  46.8138418
  39.7653269  61.8038336  47.6501879  39.4440592  60.7275364  46.6351750
  41.2564143  59.0061236  39.3340988  42.0911034  59.4451040  39.4978549
  41.3923272  58.5299889  38.5149234  38.3055649  56.5640970  45.2818476
  38.7809770  56.7568617  44.4737327  37.3821214  56.6200156  45.0361860
  25.1939155  57.7265138  34.8649554  24.9485197  56.8227468  35.0629764
  25.3635070  57.7282288  33.9229032  32.8835865  48.5988814  44.2474310
  33.4017809  49.3349841  43.9220798  32.5290998  48.9052807  45.0821069
  24.4634803  53.4593495  32.3635716  23.7704048  53.5337850  31.7075752
  24.2186555  52.6953839  32.8857233  33.1348459  45.0189097  39.7675206
  33.4150213  44.3512286  40.3935633  33.9199066  45.2118192  39.2549870
  30.9381928  64.1948090  31.3300233  30.3655895  64.8138278  30.8770705
  31.5114722  64.7447452  31.8640155  37.0057318  53.4406731  43.5146782
  37.9574741  53.5404828  43.5359006  36.8360768  52.6484999  44.0244866
  35.0271697  50.5262314  43.7006182  34.4321629  50.8067327  43.0052671
  34.7421394  51.0156215  44.4722924  34.1579188  64.4785241  32.4608815
  35.0909861  64.4130802  32.6641691  34.0702401  65.3141507  32.0023348
  36.7867204  63.7951111  29.4212763  36.7080836  63.4610975  30.3148520
  37.6076871  64.2872879  29.4204235  39.4845396  56.6612850  42.6289081
  39.4521716  55.7228851  42.8148765  40.0946019  56.7396887  41.8954906
  31.3228726  55.5308903  28.6716285  32.2687831  55.4015111  28.7404703
  30.9442971  54.7923565  29.1485713  39.6339884  53.4523894  42.6747364
  39.1178933  52.6682350  42.4877293  40.5179833  53.1242610  42.8393884
  37.2950611  47.1964909  38.6343177  37.0975432  46.8879997  39.5186509
  37.9050317  47.9226548  38.7641107  45.3021945  57.7228857  41.7695118
  46.0325334  57.4614145  42.3302821  44.6928891  56.9857579  41.8097186
  43.3837243  55.8636720  42.3669569  42.6570406  55.7292685  41.7586061
  42.9684529  56.1713548  43.1726287  31.2067419  59.5826649  50.1316942
  32.1270428  59.7605248  50.3256989  31.1717002  58.6382695  49.9796641
  29.5071644  53.4558880  28.6071170  28.6003099  53.1591992  28.6833884
  29.7847625  53.1588698  27.7405457  20.4249584  54.7765243  39.0570217
  20.1052368  53.9230551  38.7644591  19.8783012  54.9913821  39.8128184
  24.2029492  57.4927684  42.7739723  24.4215501  58.4244792  42.7927757
  24.6155265  57.1335658  43.5594527  31.1233709  47.9995769  34.7615412
  30.3134438  47.6542854  35.1370658  31.8118126  47.6903313  35.3503023
  33.0524258  47.0773816  36.3839708  33.6055296  47.4969270  37.0429731
  33.2894344  46.1509564  36.4262664  29.0757357  53.0660890  52.1642472
  28.9754084  54.0155247  52.0954563  28.8578899  52.7379129  51.2918542
  28.2770428  50.3145815  28.7483150  29.1389592  50.6400713  29.0078967
  28.4620772  49.5277311  28.2356215  20.2937844  58.3968155  41.0263338
  19.6001315  57.9822107  40.5133293  21.0410835  58.4388691  40.4296757
  36.4303065  49.1874341  35.8918373  35.8501734  49.8459145  35.5096425
  36.1638997  48.3651686  35.4805790  34.8806631  48.5879399  38.0939693
  35.3806409  48.6995934  37.2854012  35.5242239  48.2840452  38.7340501
  28.9388627  56.4958029  50.9807534  28.4555709  57.2958389  51.1871423
  29.0249566  56.5065973  50.0274978  22.2074587  58.3286408  38.9029353
  22.1845275  58.4274096  37.9511236  22.5175223  59.1751559  39.2246519
  24.8661964  60.3862563  43.0175968  25.8205218  60.3546506  42.9505899
  24.6674488  59.9253187  43.8326194  25.4561347  58.9563679  45.5846765
  26.2754236  59.4507758  45.6081603  25.7298154  58.0395648  45.5564333
  35.2127943  51.3474432  34.9474721  34.3253798  51.6324082  34.7294916
  35.6281932  51.1868195  34.1001998  38.5642479  51.3720953  38.6629060
  39.3402869  51.8617405  38.9353677  37.8390613  51.7979007  39.1200930
  41.0015038  52.0848572  39.7203001  41.5959528  51.8444308  39.0096309
  41.0741621  51.3655702  40.3476537  23.2212193  65.9282183  40.0346166
  23.0866661  65.1682584  39.4684164  22.8044255  66.6523083  39.5674954
  34.3571156  61.1119106  29.0422741  35.0607006  61.3169109  29.6580397
  33.6333805  61.6795868  29.3071824  35.1868967  56.8628968  35.1625011
  35.1304168  57.3197519  34.3232643  35.7397309  56.1019652  34.9847854
  38.9973772  52.6518699  35.9875131  38.7410707  52.2515335  36.8183338
  38.3726640  53.3662493  35.8625270  43.3086110  55.3914773  38.4946422
  42.7485668  55.4607962  39.2677984  42.7029614  55.2155757  37.7745918
  26.3781319  66.8251500  40.2464608  26.2613703  67.7696932  40.1443299
  25.5573765  66.5225061  40.6350407  36.2657854  61.5501636  31.0921201
  37.1003458  61.1182834  30.9098676  36.1042197  61.3783649  32.0198095
  35.9203746  58.0533749  32.4577540  35.8652550  57.8878020  31.5165984
  35.2949801  58.7609782  32.6139730  20.7096261  53.2901813  46.2838962
  21.3555124  52.7800767  46.7726188  20.5013412  54.0270495  46.8582388
  33.2349653  60.3582661  51.7831103  34.1040813  60.5323313  51.4217738
  32.7556404  61.1777078  51.6606832  29.2299871  47.5541858  32.0362859
  29.2178541  48.4983698  32.1931130  30.1223293  47.3712003  31.7422320
  27.4035833  67.4779762  43.4620537  28.3063080  67.5103372  43.7787032
  27.1773203  66.5480213  43.4766872  29.1589435  66.2310748  40.1230615
  28.2085066  66.2312610  40.0094988  29.4621921  65.4843483  39.6066650
  33.0451991  44.1484635  36.2908795  32.2784387  43.5943121  36.4365478
  33.4562696  44.2206503  37.1522947  25.0493752  50.4369430  50.3813977
  25.9125213  50.0806235  50.5917301  24.4759162  50.0983325  51.0689381
  44.8942129  72.0671287  41.1876378  45.5320539  71.9478034  40.4839718
  44.7762972  73.0152131  41.2464330  41.7031835  72.0198715  41.1237902
  41.3650347  71.9039779  40.2358437  42.5721603  71.6189880  41.1038909
  37.5618651  73.8734191  37.1134793  36.9983516  73.7824128  36.3451081
  37.4471046  73.0534096  37.5937286  42.1851618  73.1733566  47.0824108
  42.1740259  72.7786365  46.2104612  42.3472257  72.4399639  47.6757879
  35.1083083  75.3685383  39.9519014  35.9004375  75.0276207  39.5365313
  35.3479733  75.4780358  40.8721167  43.1418209  77.5405159  32.4249258
  42.4906189  78.1259239  32.0383272  43.9362572  78.0711354  32.4844296
  37.0673837  74.6294296  32.8236393  37.8404713  74.0823283  32.6849268
  37.4199235  75.4938545  33.0350854  38.9058879  75.9570678  46.0303292
  38.6148745  76.8616309  45.9149958  39.5415864  75.9987206  46.7447361
  39.8315086  73.3347527  42.6204652  40.4278658  73.1103549  41.9061614
  39.8890058  72.5932272  43.2230099  39.4040114  70.7886962  30.4554843
  39.6565635  70.2668483  29.6938306  38.4664673  70.6253108  30.5581526
  44.4483397  69.7922741  38.2629586  45.2346486  69.3742164  37.9120003
  44.7122102  70.6968833  38.4311234  44.6193475  75.2295591  32.9618243
  43.9839308  75.3030217  33.6739147  44.2890881  75.8189190  32.2837322
  49.8491824  69.7297974  39.1662564  50.5816996  69.1597191  39.4000394
  49.0931180  69.3419574  39.6069070  39.1236403  72.6915068  32.6579217
  39.0072661  72.0159971  33.3260302  39.2338663  72.2047442  31.8411371
  41.4667944  72.1525215  36.3625907  41.1026151  71.6255836  37.0738828
  42.3235060  71.7623684  36.1892392  47.3717245  63.4419548  43.6257173
  47.0400569  64.3114959  43.4018388  46.7762858  63.1255832  44.3051203
  41.1073431  67.1815115  31.3587255  41.2747833  68.0495351  31.7257726
  40.9170600  67.3442397  30.4348544  43.8648764  75.6432094  43.0253086
  43.5649487  76.5457133  42.9168893  43.5199824  75.3764277  43.8774238
  37.3161246  72.0945891  39.0589790  36.3911742  71.9622105  39.2667482
  37.5645659  72.8740110  39.5559732  47.2645908  68.1614634  40.7050523
  46.3562785  68.0930042  40.4109284  47.2133504  68.6386579  41.5332348
  41.0862652  69.6372772  32.3433922  40.9662277  70.0829823  33.1819402
  40.3915240  69.9858090  31.7847460  34.6770057  71.7379164  39.8933579
  34.8062438  71.9913643  40.8072991  33.9967508  72.3306872  39.5738234
  38.8469544  82.4076414  35.9924053  38.7693574  83.3584239  36.0712534
  38.2431188  82.0622287  36.6498980  41.3386774  69.5804280  48.6485420
  40.5620108  70.1398200  48.6388285  41.9777337  70.0661063  49.1700290
  49.1307554  66.3631072  42.4828397  48.4881935  66.6563606  41.8368191
  48.6262483  66.2483993  43.2881593  46.7847718  70.1094246  33.1714256
  47.6965574  70.3421632  32.9961954  46.2757365  70.6931290  32.6089335
  39.5933146  72.3889733  48.2103387  40.3347830  72.9274777  47.9338211
  38.8870132  73.0156022  48.3674939  45.0688486  74.5318873  46.8075549
  45.4771842  74.0901284  46.0630181  44.3465747  73.9571501  47.0609742
  41.4219556  69.4691480  44.1809106  42.2680751  69.8930894  44.3243755
  41.3618193  68.8125105  44.8747669  45.3917300  75.0920064  40.5627838
  44.7626163  75.2565778  39.8603905  45.0042962  75.5061674  41.3338802
  49.2706532  76.0274502  37.9172201  48.5857570  76.4073403  37.3669235
  49.3550382  76.6369829  38.6504149  44.5719001  67.1295849  45.8390279
  44.3279933  67.8837909  45.3024555  44.8478932  67.5081196  46.6737526
  46.5257464  73.6734461  44.5167545  46.7374359  74.3166221  43.8401926
  46.4787212  72.8396777  44.0489475  44.1283693  66.2852282  41.4204117
  43.2668172  66.5833535  41.7120855  44.1546128  66.5022680  40.4885150
  40.9445262  74.8294472  37.8277923  41.4083608  75.1082175  37.0382545
  40.6802060  73.9277917  37.6451013  37.8369343  74.3765954  40.7657686
  38.4070700  74.8053222  40.1275170  38.4277455  74.0948538  41.4641872
  39.8814148  70.9517625  34.6367488  40.5838192  71.4038668  35.1041414
  39.5494777  70.3101443  35.2647381  38.3294510  69.5429381  49.0118697
  37.6993170  70.2245662  49.2454094  38.2230598  69.4312463  48.0671835
  33.6239482  69.2101177  39.9384621  32.8338536  69.4658706  39.4624732
  34.1150730  70.0249515  40.0436662  47.6403292  76.5506416  42.6889902
  48.4620736  76.1486604  42.4072584  47.6365695  76.4474651  43.6406018
  35.5754228  69.5745756  36.8968098  34.7785391  69.6864451  37.4151594
  35.3479820  69.9132409  36.0308989  41.4059895  76.0990460  44.8450613
  41.4704328  76.5610867  45.6808785  40.6970819  75.4687825  44.9732923
  31.9077185  69.4631668  42.3699612  32.1585224  70.3478678  42.6357188
  32.4436734  69.2836269  41.5974704  55.7309285  72.8945165  39.0374874
  54.9772993  72.3252563  38.8818878  55.8656826  72.8607829  39.9845508
  41.1207913  77.7658567  34.7129593  40.9853588  78.6110103  35.1414441
  41.6617725  77.9677845  33.9495527  37.6075253  63.8450147  51.3743948
  37.2142198  63.2916346  52.0491592  38.4241393  64.1560725  51.7650466
  34.5737310  75.2834005  35.2857518  35.0861831  76.0777255  35.4363083
  35.2260023  74.5860296  35.2191120  36.3832195  78.3999761  37.3680271
  36.5598823  79.3217726  37.1801255  37.1789029  78.0858181  37.7974651
  40.5243214  65.2608026  48.9664205  41.2652927  65.8615179  48.8868667
  40.7561136  64.5185664  48.4082247  35.6684552  70.4464393  47.2442434
  35.5538067  69.5449651  47.5449533  34.8129069  70.6928090  46.8927251
  42.7476389  78.3882134  48.8429935  42.3040244  77.6018512  48.5250840
  43.4093603  78.5761284  48.1773826  37.5063511  79.9177935  43.3690614
  38.0570936  79.7894999  42.5967608  36.6674986  80.2172824  43.0185506
  44.8457627  78.6684934  46.8711336  44.8276103  79.4893815  46.3791606
  45.7677547  78.5439009  47.0961478  41.3030682  76.1829063  47.7134845
  41.8359018  75.4217351  47.4834153  40.7744763  75.8902715  48.4558999
  44.4700377  61.2889129  43.2428486  44.1264646  62.1790771  43.1667597
  44.8379339  61.0990787  42.3798071  32.5386227  73.6122659  36.0617089
  33.3761449  74.0219668  35.8450796  32.7164495  72.6722102  36.0317283
  44.4350659  71.2797740  31.7500922  43.9197283  72.0502345  31.9889309
  44.1627968  70.6062876  32.3733983  42.0197770  66.1247441  36.8086160
  41.1639367  65.7354291  36.6291799  42.4324722  66.2039402  35.9485945
  43.5496917  63.6593784  41.2077720  43.0461712  63.6223919  40.3945525
  43.8427524  64.5686527  41.2674376  39.7939803  63.7432514  40.2143901
  40.6592800  63.5475323  39.8549791  39.8617312  63.5142866  41.1413258
  49.4084933  74.0330095  33.6854095  48.6314376  73.6941254  33.2409257
  50.0876414  74.0382718  33.0109060  44.2236962  69.1524832  33.5760703
  43.9187098  69.4670981  34.4270846  45.1767405  69.2306252  33.6188036
  42.6683394  75.3115056  35.2253657  42.1404756  74.5767815  34.9126894
  42.1670897  76.0889732  34.9793625  47.6476240  73.5064076  40.3420703
  46.9899915  74.1963337  40.4300832  48.4516639  73.8960508  40.6854689
  37.4002122  65.9734722  37.5860268  37.9745874  65.7509903  36.8533461
  37.9873104  66.0423416  38.3388870  46.4581699  71.8608449  38.3924645
  46.9713581  72.4938441  38.8946355  47.1082923  71.2609644  38.0268005
  37.7271709  68.0039183  31.6056154  36.8909021  68.3413869  31.9265428
  37.5876479  67.8688163  30.6683291  39.7024790  62.8475971  36.3135338
  39.0489202  62.5324988  35.6891952  39.6605264  62.2251711  37.0395161
  40.8135994  73.1295266  28.2288630  39.9063056  72.8984519  28.4279779
  41.3107026  72.3332885  28.4162611  43.7204073  81.8392773  31.1485316
  43.0465772  82.1424470  31.7570274  44.1069895  82.6421853  30.7990773
  42.9362530  69.3357904  40.6382985  42.0185091  69.5572851  40.4804673
  43.3522674  69.4104215  39.7794693  43.7197578  70.7349320  35.7685666
  44.4669397  71.2470717  35.4592788  43.9889167  70.4133373  36.6290059
  41.9924228  73.2307861  32.7512620  41.0835447  72.9466893  32.8485090
  42.0219312  73.6506939  31.8915927  47.2243495  76.8414450  36.5203787
  46.7705822  76.0005360  36.5768978  46.5937462  77.4775849  36.8578568
  46.1676415  67.7706436  37.7504455  45.4299172  67.2583822  38.0814697
  46.4203188  67.3306818  36.9387732  45.6676435  78.6790947  37.4553606
  45.9599409  79.2396004  36.7365971  46.1775055  78.9719508  38.2106765
  46.2688042  60.5482688  38.3446224  46.5746919  59.6880052  38.0572139
  46.9940647  61.1400308  38.1445218  32.5612398  70.9513375  36.7327822
  32.3636798  70.3582735  36.0078889  32.0059062  70.6465585  37.4503761
  40.5409122  70.8436481  38.8522415  40.5957732  69.8910318  38.7764892
  39.7300324  70.9995920  39.3363714  41.6900316  74.7716604  30.0900698
  41.2519746  74.0552463  29.6306336  42.4310757  74.9992719  29.5285790
  38.4801482  69.4613541  36.6112794  37.6669347  69.7607712  37.0177986
  38.9760476  69.0669230  37.3287276  40.6310060  79.4571298  38.5447059
  40.5886239  79.6832144  37.6155591  41.5472759  79.2234673  38.6932860
  44.0775694  69.9255365  45.4427688  44.4325081  70.1526839  46.3022154
  44.7247825  70.2573742  44.8204943  49.8073430  73.0473801  36.1477017
  49.6691329  73.2375397  35.2198206  49.4509649  73.8093184  36.6045068
  37.9715557  67.0331897  42.2274029  38.6114936  66.8920656  41.5296992
  37.1393087  66.7466410  41.8512631  49.8342810  75.1150328  41.1588289
  50.2679317  75.0225617  42.0071343  50.5474391  75.0907829  40.5208305
  38.7475860  76.3334327  38.3409022  39.5416459  75.8384647  38.1391596
  38.0367553  75.8052190  37.9776727  43.5670705  78.7152422  42.6921389
  43.6207727  79.2843359  43.4599105  42.6985486  78.8854308  42.3275426
  35.0558624  70.4777409  34.4168774  34.1256212  70.4161864  34.6338736
  35.1516096  69.9553361  33.6205415  34.9744173  67.0032222  37.0047016
  35.2350990  67.9177555  36.8956176  35.7961345  66.5356664  37.1543629
  36.4469098  68.4169979  44.1745840  37.1192152  68.2087341  43.5258489
  35.6198885  68.2192065  43.7351073  50.6958360  75.1574029  43.6921174
  50.8894250  76.0619840  43.9380449  50.5958978  74.6981448  44.5259759
  42.3494670  65.0431920  46.1911501  41.7022585  65.7421869  46.0975978
  43.1195686  65.4768064  46.5587749  45.7573468  75.3080772  49.2662055
  45.6058975  75.0791323  48.3492138  45.7478148  76.2651373  49.2793400
  42.5258805  72.8812685  44.2508321  43.4550865  73.0323844  44.0777288
  42.1049835  72.9696705  43.3956967  41.3247136  76.9063349  42.0206859
  41.1858222  76.5382133  42.8932797  40.5361733  77.4210988  41.8490816
  41.9195288  82.0072445  33.3632395  42.0947044  81.5360489  34.1778018
  41.2328076  82.6338212  33.5913656  42.8752352  76.2844952  39.4095696
  42.5402184  76.2445722  40.3053346  42.3756297  75.6189668  38.9366107
  36.8496596  71.6912582  44.9348278  36.7116394  70.9592820  45.5359817
  37.7601519  71.6021482  44.6532465  45.8111543  73.6300986  29.6832756
  45.1940714  72.9047814  29.5865809  45.3428032  74.3910346  29.3399830
  39.4778896  71.4032541  44.4231957  40.1878515  70.7625733  44.3818576
  39.4348204  71.6545436  45.3458138  47.4665675  78.3399894  47.3438536
  47.4078221  77.6559114  46.6769119  47.8685193  79.0818884  46.8919162
  38.1907830  68.3897759  46.2427597  37.6545187  67.9388497  46.8949193
  37.6024539  68.5243668  45.4998061  36.4856374  85.1561808  40.1372255
  36.7252972  85.7880332  40.8151274  35.6425570  84.8049848  40.4237615
  37.6010089  67.8486410  28.8054060  36.7239556  67.7275211  28.4416307
  38.0767842  67.0572489  28.5532949  47.4683082  76.3039478  45.5752516
  46.5809861  75.9665400  45.6978915  48.0381633  75.5722509  45.8121281
  29.1212229  72.6363570  38.8995567  29.8083269  72.3225300  38.3116583
  28.9660358  73.5404935  38.6262819  33.9246951  67.5253767  43.3280591
  33.8405140  66.9179436  42.5931001  33.1029658  68.0162785  43.3290087
  40.9984236  80.9640931  42.5413759  40.9254407  81.7695902  43.0533064
  40.5561629  81.1632896  41.7161781  40.7874015  80.2012701  36.0516581
  40.0041537  80.7434381  36.1454805  41.4866760  80.7186680  36.4510822
  44.0970665  66.0107330  38.6950786  44.5939365  65.2577292  38.3751856
  43.3257647  66.0471647  38.1293996  51.9500423  71.7147696  40.3369078
  51.9390299  72.5972411  39.9663011  51.0817802  71.3619246  40.1423615
  43.4582919  80.8627765  44.6971918  44.1710891  81.4975229  44.6247819
  42.9672948  80.9591631  43.8811920  45.1800446  74.7679017  36.2689210
  44.2456725  74.8880480  36.0993914  45.3577115  73.8651484  36.0049219
  40.6805634  68.1524713  38.4222471  40.3103422  67.5995753  39.1103376
  41.1764727  67.5482847  37.8697471  48.5672997  70.6096337  36.8039244
  49.0333450  71.4424328  36.7299546  49.0180498  70.1441318  37.5084502
  38.5094833  78.6122208  45.5177489  39.2104292  79.2458691  45.6706883
  38.0389948  78.9536940  44.7573128  46.6349229  76.9540158  33.8025396
  46.9109072  76.8396752  34.7119270  45.7653727  76.5557643  33.7637569
  46.5389660  62.9776924  40.8430145  45.6252740  63.2081150  41.0112352
  46.9682762  63.0615368  41.6944177  46.3096119  71.1666816  43.3430039
  45.6567569  71.4142723  42.6882492  46.6876499  70.3530954  43.0092516
  43.2703293  81.2026509  37.4458209  43.4525687  80.3848165  37.9085962
  44.0936279  81.4194201  37.0083099  43.6045458  80.1294694  34.7073258
  44.1333224  79.6187148  34.0943420  43.8673678  79.8137224  35.5718791
  42.3583692  71.9086627  49.8296076  41.6824329  71.8080756  50.4998451
  43.1811326  71.7525840  50.2932073  34.1062551  78.1458563  42.4508591
  34.6915988  77.4002251  42.5836496  33.9087389  78.4562520  43.3345255
  36.9601206  81.1809811  37.4671034  36.2911581  81.6655938  36.9835074
  36.8214076  81.4279031  38.3814412  28.6980205  70.7164163  41.1713035
  28.7364305  70.1827754  41.9650153  28.1920498  70.1899369  40.5524012
  41.1006475  83.2153554  44.0653692  41.6524783  83.3785176  44.8302777
  41.4412668  83.8057992  43.3933717  36.0770968  65.5628704  44.6675577
  36.1412294  66.4243535  44.2552975  36.0138088  64.9502706  43.9347935
  35.5523240  67.6351836  48.3148611  36.1795279  67.2528914  48.9286135
  34.6951159  67.4166038  48.6804304  45.9517349  78.0414812  49.9202347
  46.4957253  78.6544770  49.4257301  45.3704194  78.5994390  50.4369360
  32.3288783  69.4428266  34.2466966  32.6242224  68.5338944  34.1934020
  31.4276819  69.4216005  33.9247968  44.2374862  81.1635530  41.0517374
  44.1126001  80.3625269  40.5428320  44.8953953  81.6581723  40.5631344
  35.8583030  67.5184262  40.2294515  35.1369616  68.1320230  40.0901988
  36.6476286  68.0542027  40.1511161  46.3009770  78.9644550  42.6796924
  45.3540106  78.8449901  42.6075251  46.6492543  78.0767048  42.7623186
  38.6609344  64.8538689  46.5035166  39.1843745  65.1000985  47.2661476
  38.4421677  65.6858723  46.0838304  34.0576625  67.1242363  34.3706291
  33.7289331  66.2439742  34.1881397  34.4115995  67.0690032  35.2582680
  43.3056204  78.7597266  38.8801277  43.1581166  77.8313973  39.0608847
  44.1309697  78.7817357  38.3958352  37.1718448  67.4115333  34.7381769
  37.5114520  67.9401254  34.0160377  37.6190568  67.7495739  35.5140335
  46.9090325  79.5825825  39.9666149  47.8336873  79.3768686  39.8290601
  46.7405629  79.3342226  40.8755491  39.8661889  65.7952384  44.1884837
  39.5258709  64.9960197  44.5905517  39.1600895  66.0954095  43.6161670
  40.5178360  62.8801696  42.6412160  41.3404430  62.4062174  42.5191050
  40.7616424  63.6592180  43.1410846  39.1586595  65.9089955  32.9375062
  39.8794957  66.2871207  32.4338778  38.5351899  66.6278831  33.0410040
  43.3017718  66.6135104  33.8733394  43.5181332  67.4959741  33.5722222
  42.8211785  66.2221317  33.1439036  38.0416939  69.5720817  40.4504138
  37.8961520  69.8861120  41.3428420  37.5642143  70.1905717  39.8975037
  39.9013322  66.5623365  40.4985028  39.8874891  65.6664458  40.1617326
  40.6185750  66.5694028  41.1323314  41.7539453  66.9960705  42.5438155
  41.4957231  67.9177776  42.5422486  41.2224493  66.5991139  43.2338620
  46.6985642  80.1011492  35.3228241  46.8722519  79.5357915  34.5702093
  47.1914533  80.9012387  35.1407731  32.5162601  72.1126161  43.3891800
  31.9716069  72.8885969  43.5212074  33.3941951  72.4596966  43.2310921
  39.3050218  65.4437745  35.7672598  39.4266129  64.5154391  35.9663486
  39.0152260  65.4576431  34.8550914  42.1741408  63.1292655  38.9039318
  42.1963105  63.1931989  37.9491298  42.5909467  62.2897164  39.0979824
  52.5525033  72.8647915  36.9418541  52.9956179  72.1155240  36.5437664
  51.6751543  72.8558051  36.5592273  47.6860814  79.4178256  32.4225139
  48.3811719  80.0384949  32.6412454  48.0283964  78.5673608  32.6977517
  33.3028623  71.2396057  46.2821957  32.5610359  71.3878693  46.8686587
  32.9821367  71.5004323  45.4188706  49.5852237  76.8677962  33.9512470
  50.1103561  77.2065235  33.2261790  49.4974590  75.9324977  33.7675605
  41.2472286  80.7812036  46.0802347  41.5559412  80.5361182  46.9525046
  42.0447768  80.9858674  45.5921217  41.2692898  82.9349945  38.3107723
  40.8297888  82.4426324  39.0040580  42.0201015  82.3922913  38.0699798
  33.7485237  79.1261486  38.3132351  34.5743257  78.8265258  37.9330995
  33.3979289  78.3569109  38.7622140  38.7166770  78.4787954  40.3830025
  38.0946779  77.8158659  40.0832253  39.3871637  78.5049086  39.7003673
  31.9493842  77.0447813  39.2721285  31.1125750  76.6169987  39.0905286
  31.9217487  77.2380256  40.2092076  38.7891298  66.9569742  49.9762531
  38.8379453  67.8331865  49.5940300  39.3313812  66.4147135  49.4034174
  49.2746143  77.5010866  49.2563668  48.4841687  77.4835004  48.7168167
  49.0379498  78.0399159  50.0112704  49.3944018  74.3503332  46.5696396
  49.4442023  74.1853339  47.5111919  49.2857942  73.4830591  46.1794277
  38.2780277  77.0291878  33.8588485  38.4268397  77.7127342  33.2055158
  39.0846720  77.0096968  34.3737941  46.6847781  70.3334260  47.8855703
  47.5857643  70.1940725  47.5939701  46.7595755  70.4988715  48.8253881
  41.0190586  67.7101115  46.7308889  40.1493895  68.0034681  46.4591478
  41.2550066  68.2941560  47.4516153  50.8962215  76.7700274  46.8138418
  50.6047023  77.1330254  47.6501879  50.2834346  76.0567282  46.6351750
  52.0957897  74.3353153  39.3340988  52.9304789  74.7742957  39.4978549
  52.2317026  73.8591807  38.5149234  49.1449403  71.8932888  45.2818476
  49.6203525  72.0860534  44.4737327  48.2214969  71.9492074  45.0361860
  36.0332910  73.0557055  34.8649554  35.7878952  72.1519385  35.0629764
  36.2028824  73.0574206  33.9229032  43.7229620  63.9280732  44.2474310
  44.2411564  64.6641759  43.9220798  43.3684753  64.2344725  45.0821069
  35.3028557  68.7885413  32.3635716  34.6097802  68.8629768  31.7075752
  35.0580309  68.0245757  32.8857233  43.9742214  60.3481014  39.7675206
  44.2543968  59.6804203  40.3935633  44.7592821  60.5410110  39.2549870
  41.7775682  79.5240008  31.3300233  41.2049650  80.1430195  30.8770705
  42.3508476  80.0739370  31.8640155  47.8451072  68.7698648  43.5146782
  48.7968495  68.8696746  43.5359006  47.6754523  67.9776917  44.0244866
  45.8665452  65.8554231  43.7006182  45.2715384  66.1359244  43.0052671
  45.5815149  66.3448132  44.4722924  44.9972942  79.8077158  32.4608815
  45.9303615  79.7422720  32.6641691  44.9096155  80.6433425  32.0023348
  47.6260959  79.1243029  29.4212763  47.5474590  78.7902892  30.3148520
  48.4470626  79.6164797  29.4204235  50.3239150  71.9904768  42.6289081
  50.2915470  71.0520769  42.8148765  50.9339774  72.0688805  41.8954906
  42.1622481  70.8600821  28.6716285  43.1081586  70.7307029  28.7404703
  41.7836726  70.1215483  29.1485713  50.4733639  68.7815811  42.6747364
  49.9572687  67.9974268  42.4877293  51.3573587  68.4534528  42.8393884
  48.1344366  62.5256827  38.6343177  47.9369187  62.2171915  39.5186509
  48.7444071  63.2518466  38.7641107  56.1415700  73.0520775  41.7695118
  56.8719088  72.7906063  42.3302821  55.5322645  72.3149497  41.8097186
  54.2230997  71.1928637  42.3669569  53.4964161  71.0584602  41.7586061
  53.8078284  71.5005466  43.1726287  42.0461174  74.9118567  50.1316942
  42.9664183  75.0897166  50.3256989  42.0110757  73.9674612  49.9796641
  40.3465398  68.7850797  28.6071170  39.4396854  68.4883910  28.6833884
  40.6241379  68.4880615  27.7405457  31.2643339  70.1057161  39.0570217
  30.9446123  69.2522469  38.7644591  30.7176767  70.3205739  39.8128184
  35.0423246  72.8219602  42.7739723  35.2609256  73.7536710  42.7927757
  35.4549020  72.4627576  43.5594527  41.9627464  63.3287687  34.7615412
  41.1528192  62.9834772  35.1370658  42.6511881  63.0195231  35.3503023
  43.8918012  62.4065734  36.3839708  44.4449051  62.8261187  37.0429731
  44.1288099  61.4801482  36.4262664  39.9151111  68.3952807  52.1642472
  39.8147838  69.3447164  52.0954563  39.6972653  68.0671046  51.2918542
  39.1164183  65.6437733  28.7483150  39.9783347  65.9692631  29.0078967
  39.3014527  64.8569228  28.2356215  31.1331599  73.7260072  41.0263338
  30.4395070  73.3114025  40.5133293  31.8804590  73.7680609  40.4296757
  47.2696819  64.5166259  35.8918373  46.6895488  65.1751063  35.5096425
  47.0032752  63.6943604  35.4805790  45.7200386  63.9171317  38.0939693
  46.2200164  64.0287851  37.2854012  46.3635994  63.6132370  38.7340501
  39.7782381  71.8249946  50.9807534  39.2949463  72.6250306  51.1871423
  39.8643320  71.8357891  50.0274978  33.0468341  73.6578326  38.9029353
  33.0239029  73.7566013  37.9511236  33.3568978  74.5043477  39.2246519
  35.7055719  75.7154481  43.0175968  36.6598972  75.6838423  42.9505899
  35.5068243  75.2545105  43.8326194  36.2955101  74.2855597  45.5846765
  37.1147990  74.7799676  45.6081603  36.5691909  73.3687565  45.5564333
  46.0521697  66.6766349  34.9474721  45.1647552  66.9616000  34.7294916
  46.4675686  66.5160113  34.1001998  49.4036233  66.7012870  38.6629060
  50.1796624  67.1909323  38.9353677  48.6784368  67.1270925  39.1200930
  51.8408792  67.4140490  39.7203001  52.4353283  67.1736226  39.0096309
  51.9135376  66.6947620  40.3476537  34.0605948  81.2574101  40.0346166
  33.9260416  80.4974501  39.4684164  33.6438010  81.9815000  39.5674954
  45.1964911  76.4411024  29.0422741  45.9000761  76.6461027  29.6580397
  44.4727559  77.0087786  29.3071824  46.0262721  72.1920885  35.1625011
  45.9697922  72.6489437  34.3232643  46.5791063  71.4311570  34.9847854
  49.8367527  67.9810617  35.9875131  49.5804461  67.5807253  36.8183338
  49.2120395  68.6954411  35.8625270  54.1479865  70.7206690  38.4946422
  53.5879423  70.7899880  39.2677984  53.5423368  70.5447675  37.7745918
  37.2175074  82.1543418  40.2464608  37.1007458  83.0988850  40.1443299
  36.3967520  81.8516979  40.6350407  47.1051608  76.8793553  31.0921201
  47.9397212  76.4474752  30.9098676  46.9435951  76.7075567  32.0198095
  46.7597500  73.3825667  32.4577540  46.7046304  73.2169938  31.5165984
  46.1343556  74.0901699  32.6139730  31.5490015  68.6193731  46.2838962
  32.1948879  68.1092685  46.7726188  31.3407166  69.3562413  46.8582388
  44.0743407  75.6874578  51.7831103  44.9434567  75.8615231  51.4217738
  43.5950159  76.5068995  51.6606832  40.0693626  62.8833776  32.0362859
  40.0572296  63.8275615  32.1931130  40.9617048  62.7003921  31.7422320
  38.2429588  82.8071679  43.4620537  39.1456834  82.8395290  43.7787032
  38.0166958  81.8772130  43.4766872  39.9983190  81.5602666  40.1230615
  39.0478821  81.5604528  40.0094988  40.3015676  80.8135401  39.6066650
  43.8845745  59.4776552  36.2908795  43.1178141  58.9235039  36.4365478
  44.2956450  59.5498421  37.1522947  35.8887506  65.7661348  50.3813977
  36.7518968  65.4098153  50.5917301  35.3152917  65.4275243  51.0689381
  55.7335883  87.3963204  41.1876378  56.3714293  87.2769952  40.4839718
  55.6156726  88.3444048  41.2464330  52.5425590  87.3490632  41.1237902
  52.2044101  87.2331697  40.2358437  53.4115358  86.9481798  41.1038909
  48.4012405  89.2026109  37.1134793  47.8377270  89.1116046  36.3451081
  48.2864800  88.3826013  37.5937286  53.0245373  88.5025484  47.0824108
  53.0134013  88.1078282  46.2104612  53.1866012  87.7691557  47.6757879
  45.9476837  90.6977300  39.9519014  46.7398129  90.3568125  39.5365313
  46.1873487  90.8072276  40.8721167  53.9811964  92.8697077  32.4249258
  53.3299944  93.4551157  32.0383272  54.7756327  93.4003271  32.4844296
  47.9067591  89.9586214  32.8236393  48.6798467  89.4115201  32.6849268
  48.2592990  90.8230463  33.0350854  49.7452634  91.2862596  46.0303292
  49.4542500  92.1908227  45.9149958  50.3809618  91.3279124  46.7447361
  50.6708840  88.6639445  42.6204652  51.2672413  88.4395467  41.9061614
  50.7283812  87.9224190  43.2230099  50.2433869  86.1178880  30.4554843
  50.4959390  85.5960401  29.6938306  49.3058428  85.9545025  30.5581526
  55.2877152  85.1214658  38.2629586  56.0740241  84.7034081  37.9120003
  55.5515856  86.0260750  38.4311234  55.4587229  90.5587509  32.9618243
  54.8233062  90.6322135  33.6739147  55.1284635  91.1481107  32.2837322
  60.6885579  85.0589891  39.1662564  61.4210751  84.4889108  39.4000394
  59.9324935  84.6711492  39.6069070  49.9630158  88.0206986  32.6579217
  49.8466416  87.3451889  33.3260302  50.0732418  87.5339360  31.8411371
  52.3061699  87.4817133  36.3625907  51.9419906  86.9547754  37.0738828
  53.1628814  87.0915602  36.1892392  58.2110999  78.7711466  43.6257173
  57.8794324  79.6406876  43.4018388  57.6156613  78.4547750  44.3051203
  51.9467186  82.5107033  31.3587255  52.1141588  83.3787269  31.7257726
  51.7564355  82.6734314  30.4348544  54.7042519  90.9724011  43.0253086
  54.4043242  91.8749050  42.9168893  54.3593578  90.7056195  43.8774238
  48.1555000  87.4237808  39.0589790  47.2305497  87.2914022  39.2667482
  48.4039413  88.2032028  39.5559732  58.1039663  83.4906552  40.7050523
  57.1956540  83.4221960  40.4109284  58.0527258  83.9678497  41.5332348
  51.9256406  84.9664690  32.3433922  51.8056032  85.4121741  33.1819402
  51.2308995  85.3150008  31.7847460  45.5163811  87.0671082  39.8933579
  45.6456192  87.3205561  40.8072991  44.8361263  87.6598790  39.5738234
  49.6863299  97.7368332  35.9924053  49.6087328  98.6876157  36.0712534
  49.0824942  97.3914204  36.6498980  52.1780528  84.9096197  48.6485420
  51.4013862  85.4690117  48.6388285  52.8171091  85.3952980  49.1700290
  59.9701309  81.6922990  42.4828397  59.3275689  81.9855523  41.8368191
  59.4656237  81.5775910  43.2881593  57.6241473  85.4386163  33.1714256
  58.5359329  85.6713550  32.9961954  57.1151120  86.0223207  32.6089335
  50.4326901  87.7181651  48.2103387  51.1741585  88.2566695  47.9338211
  49.7263886  88.3447939  48.3674939  55.9082240  89.8610791  46.8075549
  56.3165596  89.4193202  46.0630181  55.1859502  89.2863419  47.0609742
  52.2613310  84.7983398  44.1809106  53.1074505  85.2222811  44.3243755
  52.2011948  84.1417022  44.8747669  56.2311055  90.4211982  40.5627838
  55.6019917  90.5857696  39.8603905  55.8436717  90.8353591  41.3338802
  60.1100287  91.3566420  37.9172201  59.4251325  91.7365321  37.3669235
  60.1944136  91.9661746  38.6504149  55.4112756  82.4587766  45.8390279
  55.1673687  83.2129827  45.3024555  55.6872686  82.8373114  46.6737526
  57.3651218  89.0026379  44.5167545  57.5768114  89.6458138  43.8401926
  57.3180967  88.1688695  44.0489475  54.9677447  81.6144199  41.4204117
  54.1061926  81.9125453  41.7120855  54.9939882  81.8314598  40.4885150
  51.7839017  90.1586390  37.8277923  52.2477362  90.4374093  37.0382545
  51.5195815  89.2569834  37.6451013  48.6763098  89.7057871  40.7657686
  49.2464455  90.1345140  40.1275170  49.2671210  89.4240456  41.4641872
  50.7207903  86.2809542  34.6367488  51.4231946  86.7330586  35.1041414
  50.3888531  85.6393361  35.2647381  49.1688264  84.8721299  49.0118697
  48.5386925  85.5537580  49.2454094  49.0624352  84.7604380  48.0671835
  44.4633237  84.5393095  39.9384621  43.6732291  84.7950623  39.4624732
  44.9544484  85.3541433  40.0436662  58.4797046  91.8798334  42.6889902
  59.3014490  91.4778521  42.4072584  58.4759449  91.7766568  43.6406018
  46.4147982  84.9037674  36.8968098  45.6179145  85.0156368  37.4151594
  46.1873574  85.2424326  36.0308989  52.2453650  91.4282377  44.8450613
  52.3098082  91.8902785  45.6808785  51.5364574  90.7979742  44.9732923
  42.7470940  84.7923585  42.3699612  42.9978978  85.6770595  42.6357188
  43.2830488  84.6128187  41.5974704  66.5703039  88.2237082  39.0374874
  65.8166748  87.6544481  38.8818878  66.7050581  88.1899747  39.9845508
  51.9601667  93.0950485  34.7129593  51.8247342  93.9402021  35.1414441
  52.5011480  93.2969762  33.9495527  48.4469007  79.1742065  51.3743948
  48.0535953  78.6208263  52.0491592  49.2635147  79.4852643  51.7650466
  45.4131065  90.6125923  35.2857518  45.9255585  91.4069173  35.4363083
  46.0653778  89.9152213  35.2191120  47.2225950  93.7291679  37.3680271
  47.3992578  94.6509644  37.1801255  48.0182783  93.4150098  37.7974651
  51.3636968  80.5899944  48.9664205  52.1046681  81.1907097  48.8868667
  51.5954891  79.8477582  48.4082247  46.5078306  85.7756311  47.2442434
  46.3931821  84.8741568  47.5449533  45.6522824  86.0220008  46.8927251
  53.5870144  93.7174051  48.8429935  53.1433998  92.9310430  48.5250840
  54.2487357  93.9053202  48.1773826  48.3457265  95.2469853  43.3690614
  48.8964690  95.1186916  42.5967608  47.5068741  95.5464742  43.0185506
  55.6851382  93.9976851  46.8711336  55.6669857  94.8185732  46.3791606
  56.6071302  93.8730926  47.0961478  52.1424436  91.5120981  47.7134845
  52.6752773  90.7509269  47.4834153  51.6138517  91.2194633  48.4558999
  55.3094131  76.6181047  43.2428486  54.9658400  77.5082688  43.1667597
  55.6773094  76.4282704  42.3798071  43.3779982  88.9414577  36.0617089
  44.2155204  89.3511586  35.8450796  43.5558249  88.0014019  36.0317283
  55.2744414  86.6089658  31.7500922  54.7591037  87.3794262  31.9889309
  55.0021722  85.9354794  32.3733983  52.8591525  81.4539359  36.8086160
  52.0033121  81.0646209  36.6291799  53.2718477  81.5331319  35.9485945
  54.3890671  78.9885702  41.2077720  53.8855467  78.9515837  40.3945525
  54.6821278  79.8978445  41.2674376  50.6333557  79.0724432  40.2143901
  51.4986554  78.8767240  39.8549791  50.7011066  78.8434783  41.1413258
  60.2478688  89.3622012  33.6854095  59.4708131  89.0233172  33.2409257
  60.9270169  89.3674636  33.0109060  55.0630717  84.4816750  33.5760703
  54.7580852  84.7962899  34.4270846  56.0161159  84.5598170  33.6188036
  53.5077149  90.6406973  35.2253657  52.9798510  89.9059733  34.9126894
  53.0064651  91.4181650  34.9793625  58.4869995  88.8355994  40.3420703
  57.8293669  89.5255255  40.4300832  59.2910394  89.2252426  40.6854689
  48.2395876  81.3026639  37.5860268  48.8139628  81.0801821  36.8533461
  48.8266859  81.3715334  38.3388870  57.2975454  87.1900366  38.3924645
  57.8107335  87.8230358  38.8946355  57.9476677  86.5901562  38.0268005
  48.5665463  83.3331101  31.6056154  47.7302776  83.6705787  31.9265428
  48.4270233  83.1980080  30.6683291  50.5418544  78.1767888  36.3135338
  49.8882956  77.8616906  35.6891952  50.4999018  77.5543629  37.0395161
  51.6529749  88.4587183  28.2288630  50.7456811  88.2276437  28.4279779
  52.1500781  87.6624803  28.4162611  54.5597828  97.1684691  31.1485316
  53.8859527  97.4716387  31.7570274  54.9463650  97.9713771  30.7990773
  53.7756284  84.6649822  40.6382985  52.8578846  84.8864769  40.4804673
  54.1916428  84.7396132  39.7794693  54.5591332  86.0641238  35.7685666
  55.3063151  86.5762635  35.4592788  54.8282922  85.7425290  36.6290059
  52.8317982  88.5599778  32.7512620  51.9229202  88.2758811  32.8485090
  52.8613066  88.9798857  31.8915927  58.0637250  92.1706368  36.5203787
  57.6099577  91.3297278  36.5768978  57.4331216  92.8067766  36.8578568
  57.0070169  83.0998354  37.7504455  56.2692926  82.5875740  38.0814697
  57.2596943  82.6598735  36.9387732  56.5070189  94.0082865  37.4553606
  56.7993163  94.5687922  36.7365971  57.0168810  94.3011426  38.2106765
  57.1081797  75.8774606  38.3446224  57.4140673  75.0171969  38.0572139
  57.8334401  76.4692226  38.1445218  43.4006153  86.2805292  36.7327822
  43.2030553  85.6874653  36.0078889  42.8452817  85.9757503  37.4503761
  51.3802876  86.1728399  38.8522415  51.4351486  85.2202235  38.7764892
  50.5694078  86.3287838  39.3363714  52.5294070  90.1008522  30.0900698
  52.0913500  89.3844381  29.6306336  53.2704511  90.3284637  29.5285790
  49.3195236  84.7905459  36.6112794  48.5063102  85.0899629  37.0177986
  49.8154231  84.3961147  37.3287276  51.4703814  94.7863216  38.5447059
  51.4279993  95.0124062  37.6155591  52.3866513  94.5526590  38.6932860
  54.9169448  85.2547283  45.4427688  55.2718836  85.4818756  46.3022154
  55.5641579  85.5865660  44.8204943  60.6467185  88.3765719  36.1477017
  60.5085084  88.5667315  35.2198206  60.2903404  89.1385102  36.6045068
  48.8109311  82.3623814  42.2274029  49.4508690  82.2212573  41.5296992
  47.9786842  82.0758328  41.8512631  60.6736565  90.4442246  41.1588289
  61.1073071  90.3517535  42.0071343  61.3868145  90.4199747  40.5208305
  49.5869615  91.6626245  38.3409022  50.3810213  91.1676565  38.1391596
  48.8761307  91.1344108  37.9776727  54.4064459  94.0444340  42.6921389
  54.4601482  94.6135276  43.4599105  53.5379241  94.2146225  42.3275426
  45.8952378  85.8069326  34.4168774  44.9649967  85.7453782  34.6338736
  45.9909850  85.2845279  33.6205415  45.8137928  82.3324139  37.0047016
  46.0744745  83.2469472  36.8956176  46.6355100  81.8648582  37.1543629
  47.2862853  83.7461896  44.1745840  47.9585906  83.5379258  43.5258489
  46.4592639  83.5483982  43.7351073  61.5352114  90.4865947  43.6921174
  61.7288004  91.3911757  43.9380449  61.4352732  90.0273366  44.5259759
  53.1888425  80.3723837  46.1911501  52.5416340  81.0713787  46.0975978
  53.9589440  80.8059981  46.5587749  56.5967223  90.6372689  49.2662055
  56.4452729  90.4083241  48.3492138  56.5871902  91.5943291  49.2793400
  53.3652559  88.2104602  44.2508321  54.2944619  88.3615762  44.0777288
  52.9443589  88.2988623  43.3956967  52.1640891  92.2355267  42.0206859
  52.0251977  91.8674051  42.8932797  51.3755487  92.7502906  41.8490816
  52.7589043  97.3364363  33.3632395  52.9340799  96.8652406  34.1778018
  52.0721831  97.9630129  33.5913656  53.7146106  91.6136869  39.4095696
  53.3795939  91.5737639  40.3053346  53.2150052  90.9481585  38.9366107
  47.6890350  87.0204499  44.9348278  47.5510148  86.2884738  45.5359817
  48.5995274  86.9313399  44.6532465  56.6505298  88.9592904  29.6832756
  56.0334468  88.2339732  29.5865809  56.1821786  89.7202264  29.3399830
  50.3172651  86.7324459  44.4231957  51.0272269  86.0917651  44.3818576
  50.2741959  86.9837354  45.3458138  58.3059429  93.6691812  47.3438536
  58.2471976  92.9851032  46.6769119  58.7078948  94.4110802  46.8919162
  49.0301585  83.7189677  46.2427597  48.4938942  83.2680415  46.8949193
  48.4418293  83.8535585  45.4998061  47.3250128 100.4853726  40.1372255
  47.5646726 101.1172250  40.8151274  46.4819325 100.1341766  40.4237615
  48.4403844  83.1778328  28.8054060  47.5633310  83.0567129  28.4416307
  48.9161597  82.3864406  28.5532949  58.3076837  91.6331396  45.5752516
  57.4203615  91.2957318  45.6978915  58.8775388  90.9014427  45.8121281
  39.9605984  87.9655488  38.8995567  40.6477024  87.6517218  38.3116583
  39.8054113  88.8696852  38.6262819  44.7640706  82.8545684  43.3280591
  44.6798895  82.2471354  42.5931001  43.9423412  83.3454703  43.3290087
  51.8377990  96.2932848  42.5413759  51.7648162  97.0987820  43.0533064
  51.3955383  96.4924814  41.7161781  51.6267770  95.5304618  36.0516581
  50.8435292  96.0726298  36.1454805  52.3260515  96.0478598  36.4510822
  54.9364420  81.3399248  38.6950786  55.4333119  80.5869210  38.3751856
  54.1651401  81.3763564  38.1293996  62.7894177  87.0439613  40.3369078
  62.7784053  87.9264329  39.9663011  61.9211557  86.6911164  40.1423615
  54.2976674  96.1919682  44.6971918  55.0104646  96.8267147  44.6247819
  53.8066702  96.2883548  43.8811920  56.0194201  90.0970935  36.2689210
  55.0850479  90.2172397  36.0993914  56.1970869  89.1943402  36.0049219
  51.5199389  83.4816631  38.4222471  51.1497176  82.9287671  39.1103376
  52.0158481  82.8774764  37.8697471  59.4066752  85.9388254  36.8039244
  59.8727204  86.7716246  36.7299546  59.8574252  85.4733236  37.5084502
  49.3488587  93.9414126  45.5177489  50.0498047  94.5750609  45.6706883
  48.8783702  94.2828857  44.7573128  57.4742983  92.2832076  33.8025396
  57.7502827  92.1688670  34.7119270  56.6047482  91.8849560  33.7637569
  57.3783415  78.3068841  40.8430145  56.4646494  78.5373068  41.0112352
  57.8076516  78.3907285  41.6944177  57.1489873  86.4958733  43.3430039
  56.4961323  86.7434641  42.6882492  57.5270253  85.6822871  43.0092516
  54.1097047  96.5318426  37.4458209  54.2919442  95.7140082  37.9085962
  54.9330033  96.7486119  37.0083099  54.4439213  95.4586612  34.7073258
  54.9726979  94.9479066  34.0943420  54.7067432  95.1429142  35.5718791
  53.1977446  87.2378544  49.8296076  52.5218083  87.1372674  50.4998451
  54.0205080  87.0817758  50.2932073  44.9456305  93.4750481  42.4508591
  45.5309742  92.7294169  42.5836496  44.7481144  93.7854438  43.3345255
  47.7994960  96.5101728  37.4671034  47.1305336  96.9947856  36.9835074
  47.6607830  96.7570949  38.3814412  39.5373960  86.0456081  41.1713035
  39.5758059  85.5119672  41.9650153  39.0314253  85.5191287  40.5524012
  51.9400229  98.5445472  44.0653692  52.4918537  98.7077093  44.8302777
  52.2806422  99.1349910  43.3933717  46.9164722  80.8920622  44.6675577
  46.9806049  81.7535452  44.2552975  46.8531842  80.2794623  43.9347935
  46.3916995  82.9643754  48.3148611  47.0189034  82.5820831  48.9286135
  45.5344914  82.7457956  48.6804304  56.7911103  93.3706729  49.9202347
  57.3351007  93.9836688  49.4257301  56.2097948  93.9286308  50.4369360
  43.1682538  84.7720183  34.2466966  43.4635979  83.8630862  34.1934020
  42.2670573  84.7507923  33.9247968  55.0768616  96.4927447  41.0517374
  54.9519756  95.6917187  40.5428320  55.7347707  96.9873641  40.5631344
  46.6976785  82.8476180  40.2294515  45.9763370  83.4612147  40.0901988
  47.4870040  83.3833945  40.1511161  57.1403525  94.2936467  42.6796924
  56.1933860  94.1741819  42.6075251  57.4886298  93.4058965  42.7623186
  49.5003098  80.1830606  46.5035166  50.0237500  80.4292903  47.2661476
  49.2815431  81.0150641  46.0838304  44.8970379  82.4534281  34.3706291
  44.5683085  81.5731660  34.1881397  45.2509750  82.3981950  35.2582680
  54.1449958  94.0889184  38.8801277  53.9974920  93.1605891  39.0608847
  54.9703451  94.1109274  38.3958352  48.0112202  82.7407251  34.7381769
  48.3508275  83.2693172  34.0160377  48.4584323  83.0787657  35.5140335
  57.7484080  94.9117742  39.9666149  58.6730627  94.7060604  39.8290601
  57.5799383  94.6634143  40.8755491  50.7055643  81.1244301  44.1884837
  50.3652463  80.3252114  44.5905517  49.9994649  81.4246012  43.6161670
  51.3572115  78.2093614  42.6412160  52.1798184  77.7354092  42.5191050
  51.6010178  78.9884098  43.1410846  49.9980349  81.2381872  32.9375062
  50.7188712  81.6163125  32.4338778  49.3745654  81.9570749  33.0410040
  54.1411472  81.9427021  33.8733394  54.3575087  82.8251659  33.5722222
  53.6605539  81.5513235  33.1439036  48.8810694  84.9012734  40.4504138
  48.7355274  85.2153038  41.3428420  48.4035897  85.5197635  39.8975037
  50.7407077  81.8915282  40.4985028  50.7268645  80.9956376  40.1617326
  51.4579505  81.8985946  41.1323314  52.5933207  82.3252623  42.5438155
  52.3350985  83.2469693  42.5422486  52.0618248  81.9283057  43.2338620
  57.5379396  95.4303410  35.3228241  57.7116274  94.8649832  34.5702093
  58.0308287  96.2304305  35.1407731  43.3556356  87.4418079  43.3891800
  42.8109824  88.2177887  43.5212074  44.2335706  87.7888883  43.2310921
  50.1443972  80.7729663  35.7672598  50.2659884  79.8446309  35.9663486
  49.8546015  80.7868349  34.8550914  53.0135163  78.4584573  38.9039318
  53.0356860  78.5223906  37.9491298  53.4303222  77.6189082  39.0979824
  63.3918787  88.1939833  36.9418541  63.8349933  87.4447158  36.5437664
  62.5145298  88.1849969  36.5592273  58.5254569  94.7470174  32.4225139
  59.2205473  95.3676867  32.6412454  58.8677719  93.8965525  32.6977517
  44.1422378  86.5687975  46.2821957  43.4004114  86.7170610  46.8686587
  43.8215122  86.8296241  45.4188706  60.4245992  92.1969880  33.9512470
  60.9497316  92.5357152  33.2261790  60.3368344  91.2616895  33.7675605
  52.0866040  96.1103953  46.0802347  52.3953167  95.8653100  46.9525046
  52.8841522  96.3150592  45.5921217  52.1086652  98.2641863  38.3107723
  51.6691643  97.7718242  39.0040580  52.8594769  97.7214831  38.0699798
  44.5878991  94.4553404  38.3132351  45.4137011  94.1557176  37.9330995
  44.2373043  93.6861026  38.7622140  49.5560525  93.8079872  40.3830025
  48.9340534  93.1450577  40.0832253  50.2265391  93.8341004  39.7003673
  42.7887596  92.3739730  39.2721285  41.9519505  91.9461905  39.0905286
  42.7611242  92.5672174  40.2092076  49.6285052  82.2861660  49.9762531
  49.6773208  83.1623783  49.5940300  50.1707566  81.7439053  49.4034174
  60.1139898  92.8302783  49.2563668  59.3235441  92.8126922  48.7168167
  59.8773252  93.3691077  50.0112704  60.2337773  89.6795250  46.5696396
  60.2835778  89.5145257  47.5111919  60.1251696  88.8122509  46.1794277
  49.1174031  92.3583795  33.8588485  49.2662152  93.0419260  33.2055158
  49.9240475  92.3388885  34.3737941  57.5241535  85.6626178  47.8855703
  58.4251398  85.5232643  47.5939701  57.5989510  85.8280633  48.8253881
  51.8584340  83.0393032  46.7308889  50.9887650  83.3326599  46.4591478
  52.0943821  83.6233477  47.4516153  61.7355970  92.0992191  46.8138418
  61.4440778  92.4622172  47.6501879  61.1228101  91.3859199  46.6351750
  62.9351652  89.6645071  39.3340988  63.7698543  90.1034875  39.4978549
  63.0710781  89.1883724  38.5149234  59.9843158  87.2224806  45.2818476
  60.4597279  87.4152452  44.4737327  59.0608723  87.2783992  45.0361860
  46.8726664  88.3848973  34.8649554  46.6272706  87.4811303  35.0629764
  47.0422579  88.3866123  33.9229032  54.5623374  79.2572649  44.2474310
  55.0805318  79.9933676  43.9220798  54.2078507  79.5636643  45.0821069
  46.1422312  84.1177331  32.3635716  45.4491557  84.1921686  31.7075752
  45.8974064  83.3537674  32.8857233  54.8135968  75.6772932  39.7675206
  55.0937722  75.0096121  40.3935633  55.5986575  75.8702028  39.2549870
  52.6169437  94.8531926  31.3300233  52.0443404  95.4722113  30.8770705
  53.1902231  95.4031288  31.8640155  58.6844827  84.0990566  43.5146782
  59.6362250  84.1988664  43.5359006  58.5148277  83.3068834  44.0244866
  56.7059206  81.1846149  43.7006182  56.1109138  81.4651162  43.0052671
  56.4208903  81.6740050  44.4722924  55.8366697  95.1369076  32.4608815
  56.7697370  95.0714638  32.6641691  55.7489910  95.9725343  32.0023348
  58.4654713  94.4534946  29.4212763  58.3868345  94.1194810  30.3148520
  59.2864380  94.9456714  29.4204235  61.1632905  87.3196686  42.6289081
  61.1309225  86.3812686  42.8148765  61.7733528  87.3980722  41.8954906
  53.0016235  86.1892739  28.6716285  53.9475340  86.0598947  28.7404703
  52.6230480  85.4507400  29.1485713  61.3127393  84.1107729  42.6747364
  60.7966442  83.3266186  42.4877293  62.1967342  83.7826446  42.8393884
  58.9738120  77.8548745  38.6343177  58.7762941  77.5463833  39.5186509
  59.5837826  78.5810384  38.7641107  66.9809454  88.3812692  41.7695118
  67.7112843  88.1197981  42.3302821  66.3716400  87.6441414  41.8097186
  65.0624752  86.5220555  42.3669569  64.3357915  86.3876520  41.7586061
  64.6472038  86.8297384  43.1726287  52.8854928  90.2410485  50.1316942
  53.8057937  90.4189084  50.3256989  52.8504511  89.2966530  49.9796641
  51.1859153  84.1142715  28.6071170  50.2790608  83.8175828  28.6833884
  51.4635134  83.8172533  27.7405457  42.1037093  85.4349078  39.0570217
  41.7839877  84.5814387  38.7644591  41.5570521  85.6497657  39.8128184
  45.8817001  88.1511519  42.7739723  46.1003010  89.0828627  42.7927757
  46.2942774  87.7919494  43.5594527  52.8021218  78.6579605  34.7615412
  51.9921947  78.3126690  35.1370658  53.4905635  78.3487148  35.3503023
  54.7311767  77.7357652  36.3839708  55.2842805  78.1553105  37.0429731
  54.9681853  76.8093400  36.4262664  50.7544866  83.7244725  52.1642472
  50.6541593  84.6739082  52.0954563  50.5366408  83.3962964  51.2918542
  49.9557937  80.9729650  28.7483150  50.8177101  81.2984549  29.0078967
  50.1408281  80.1861146  28.2356215  41.9725353  89.0551990  41.0263338
  41.2788824  88.6405943  40.5133293  42.7198344  89.0972526  40.4296757
  58.1090574  79.8458177  35.8918373  57.5289243  80.5042981  35.5096425
  57.8426506  79.0235521  35.4805790  56.5594140  79.2463234  38.0939693
  57.0593918  79.3579769  37.2854012  57.2029748  78.9424287  38.7340501
  50.6176136  87.1541864  50.9807534  50.1343218  87.9542224  51.1871423
  50.7037075  87.1649809  50.0274978  43.8862096  88.9870244  38.9029353
  43.8632784  89.0857931  37.9511236  44.1962732  89.8335394  39.2246519
  46.5449473  91.0446399  43.0175968  47.4992727  91.0130341  42.9505899
  46.3461997  90.5837022  43.8326194  47.1348856  89.6147515  45.5846765
  47.9541745  90.1091593  45.6081603  47.4085663  88.6979483  45.5564333
  56.8915452  82.0058267  34.9474721  56.0041307  82.2907918  34.7294916
  57.3069441  81.8452030  34.1001998  60.2429988  82.0304788  38.6629060
  61.0190378  82.5201240  38.9353677  59.5178122  82.4562842  39.1200930
  62.6802547  82.7432407  39.7203001  63.2747037  82.5028143  39.0096309
  62.7529130  82.0239538  40.3476537  44.8999702  96.5866018  40.0346166
  44.7654170  95.8266419  39.4684164  44.4831764  97.3106918  39.5674954
  56.0358665  91.7702942  29.0422741  56.7394515  91.9752944  29.6580397
  55.3121314  92.3379704  29.3071824  56.8656475  87.5212803  35.1625011
  56.8091677  87.9781354  34.3232643  57.4184818  86.7603488  34.9847854
  60.6761281  83.3102535  35.9875131  60.4198216  82.9099171  36.8183338
  60.0514149  84.0246329  35.8625270  64.9873619  86.0498608  38.4946422
  64.4273177  86.1191797  39.2677984  64.3817123  85.8739593  37.7745918
  48.0568828  97.4835335  40.2464608  47.9401212  98.4280768  40.1443299
  47.2361274  97.1808897  40.6350407  57.9445363  92.2085471  31.0921201
  58.7790967  91.7766669  30.9098676  57.7829706  92.0367485  32.0198095
  57.5991255  88.7117584  32.4577540  57.5440059  88.5461856  31.5165984
  56.9737310  89.4193617  32.6139730  42.3883770  83.9485649  46.2838962
  43.0342633  83.4384603  46.7726188  42.1800921  84.6854330  46.8582388
  54.9137162  91.0166496  51.7831103  55.7828322  91.1907148  51.4217738
  54.4343913  91.8360913  51.6606832  50.9087380  78.2125693  32.0362859
  50.8966050  79.1567533  32.1931130  51.8010802  78.0295839  31.7422320
  49.0823342  98.1363597  43.4620537  49.9850589  98.1687207  43.7787032
  48.8560712  97.2064048  43.4766872  50.8376944  96.8894584  40.1230615
  49.8872575  96.8896445  40.0094988  51.1409430  96.1427318  39.6066650
  54.7239500  74.8068470  36.2908795  53.9571896  74.2526957  36.4365478
  55.1350205  74.8790339  37.1522947  46.7281261  81.0953266  50.3813977
  47.5912722  80.7390071  50.5917301  46.1546671  80.7567160  51.0689381
  66.5729638 102.7255122  41.1876378  67.2108048 102.6061869  40.4839718
  66.4550481 103.6735966  41.2464330  63.3819344 102.6782550  41.1237902
  63.0437856 102.5623615  40.2358437  64.2509112 102.2773715  41.1038909
  59.2406160 104.5318027  37.1134793  58.6771025 104.4407963  36.3451081
  59.1258555 103.7117931  37.5937286  63.8639127 103.8317402  47.0824108
  63.8527768 103.4370200  46.2104612  64.0259766 103.0983474  47.6757879
  56.7870592 106.0269218  39.9519014  57.5791884 105.6860043  39.5365313
  57.0267242 106.1364193  40.8721167  64.8205718 108.1988994  32.4249258
  64.1693698 108.7843075  32.0383272  65.6150081 108.7295189  32.4844296
  58.7461346 105.2878131  32.8236393  59.5192222 104.7407118  32.6849268
  59.0986744 106.1522381  33.0350854  60.5846388 106.6154514  46.0303292
  60.2936254 107.5200145  45.9149958  61.2203372 106.6571041  46.7447361
  61.5102595 103.9931362  42.6204652  62.1066167 103.7687385  41.9061614
  61.5677567 103.2516108  43.2230099  61.0827623 101.4470798  30.4554843
  61.3353144 100.9252319  29.6938306  60.1452182 101.2836943  30.5581526
  66.1270906 100.4506576  38.2629586  66.9133995 100.0325999  37.9120003
  66.3909611 101.3552668  38.4311234  66.2980984 105.8879426  32.9618243
  65.6626817 105.9614053  33.6739147  65.9678390 106.4773025  32.2837322
  71.5279333 100.3881809  39.1662564  72.2604505  99.8181026  39.4000394
  70.7718689 100.0003410  39.6069070  60.8023912 103.3498903  32.6579217
  60.6860170 102.6743807  33.3260302  60.9126172 102.8631277  31.8411371
  63.1455453 102.8109051  36.3625907  62.7813660 102.2839672  37.0738828
  64.0022569 102.4207520  36.1892392  69.0504754  94.1003383  43.6257173
  68.7188078  94.9698794  43.4018388  68.4550367  93.7839667  44.3051203
  62.7860940  97.8398950  31.3587255  62.9535342  98.7079187  31.7257726
  62.5958109  98.0026232  30.4348544  65.5436273 106.3015929  43.0253086
  65.2436996 107.2040968  42.9168893  65.1987333 106.0348112  43.8774238
  58.9948755 102.7529726  39.0589790  58.0699251 102.6205940  39.2667482
  59.2433168 103.5323945  39.5559732  68.9433417  98.8198469  40.7050523
  68.0350294  98.7513878  40.4109284  68.8921013  99.2970414  41.5332348
  62.7650161 100.2956608  32.3433922  62.6449786 100.7413659  33.1819402
  62.0702749 100.6441925  31.7847460  56.3557566 102.3963000  39.8933579
  56.4849947 102.6497478  40.8072991  55.6755017 102.9890708  39.5738234
  60.5257053 113.0660250  35.9924053  60.4481083 114.0168075  36.0712534
  59.9218697 112.7206122  36.6498980  63.0174283 100.2388115  48.6485420
  62.2407617 100.7982035  48.6388285  63.6564846 100.7244898  49.1700290
  70.8095063  97.0214908  42.4828397  70.1669444  97.3147441  41.8368191
  70.3049992  96.9067828  43.2881593  68.4635227 100.7678081  33.1714256
  69.3753083 101.0005468  32.9961954  67.9544874 101.3515125  32.6089335
  61.2720655 103.0473568  48.2103387  62.0135339 103.5858612  47.9338211
  60.5657641 103.6739857  48.3674939  66.7475995 105.1902709  46.8075549
  67.1559351 104.7485119  46.0630181  66.0253256 104.6155336  47.0609742
  63.1007065 100.1275316  44.1809106  63.9468260 100.5514729  44.3243755
  63.0405702  99.4708940  44.8747669  67.0704809 105.7503899  40.5627838
  66.4413672 105.9149614  39.8603905  66.6830471 106.1645509  41.3338802
  70.9494041 106.6858337  37.9172201  70.2645079 107.0657239  37.3669235
  71.0337891 107.2953664  38.6504149  66.2506510  97.7879684  45.8390279
  66.0067442  98.5421744  45.3024555  66.5266441  98.1665032  46.6737526
  68.2044973 104.3318296  44.5167545  68.4161868 104.9750056  43.8401926
  68.1574721 103.4980613  44.0489475  65.8071202  96.9436117  41.4204117
  64.9455681  97.2417370  41.7120855  65.8333636  97.1606516  40.4885150
  62.6232771 105.4878307  37.8277923  63.0871117 105.7666010  37.0382545
  62.3589569 104.5861752  37.6451013  59.5156852 105.0349789  40.7657686
  60.0858209 105.4637057  40.1275170  60.1064964 104.7532374  41.4641872
  61.5601657 101.6101460  34.6367488  62.2625701 102.0622504  35.1041414
  61.2282286 100.9685279  35.2647381  60.0082019 100.2013216  49.0118697
  59.3780679 100.8829497  49.2454094  59.9018107 100.0896298  48.0671835
  55.3026991  99.8685013  39.9384621  54.5126045 100.1242541  39.4624732
  55.7938239 100.6833350  40.0436662  69.3190801 107.2090252  42.6889902
  70.1408245 106.8070439  42.4072584  69.3153204 107.1058486  43.6406018
  57.2541737 100.2329592  36.8968098  56.4572900 100.3448286  37.4151594
  57.0267329 100.5716244  36.0308989  63.0847404 106.7574295  44.8450613
  63.1491837 107.2194702  45.6808785  62.3758328 106.1271660  44.9732923
  53.5864694 100.1215503  42.3699612  53.8372733 101.0062513  42.6357188
  54.1224243  99.9420104  41.5974704  77.4096794 103.5529000  39.0374874
  76.6560502 102.9836398  38.8818878  77.5444335 103.5191665  39.9845508
  62.7995422 108.4242402  34.7129593  62.6641097 109.2693938  35.1414441
  63.3405234 108.6261680  33.9495527  59.2862762  94.5033982  51.3743948
  58.8929707  93.9500181  52.0491592  60.1028902  94.8144561  51.7650466
  56.2524819 105.9417841  35.2857518  56.7649340 106.7361091  35.4363083
  56.9047532 105.2444131  35.2191120  58.0619704 109.0583597  37.3680271
  58.2386332 109.9801561  37.1801255  58.8576538 108.7442016  37.7974651
  62.2030723  95.9191861  48.9664205  62.9440436  96.5199015  48.8868667
  62.4348645  95.1769499  48.4082247  57.3472061 101.1048229  47.2442434
  57.2325576 100.2033486  47.5449533  56.4916578 101.3511925  46.8927251
  64.4263898 109.0465969  48.8429935  63.9827752 108.2602348  48.5250840
  65.0881112 109.2345119  48.1773826  59.1851019 110.5761771  43.3690614
  59.7358445 110.4478834  42.5967608  58.3462495 110.8756660  43.0185506
  66.5245136 109.3268769  46.8711336  66.5063612 110.1477650  46.3791606
  67.4465056 109.2022844  47.0961478  62.9818191 106.8412898  47.7134845
  63.5146527 106.0801187  47.4834153  62.4532272 106.5486550  48.4558999
  66.1487886  91.9472964  43.2428486  65.8052155  92.8374606  43.1667597
  66.5166848  91.7574622  42.3798071  54.2173736 104.2706495  36.0617089
  55.0548958 104.6803503  35.8450796  54.3952004 103.3305937  36.0317283
  66.1138168 101.9381575  31.7500922  65.5984792 102.7086180  31.9889309
  65.8415477 101.2646712  32.3733983  63.6985279  96.7831276  36.8086160
  62.8426876  96.3938127  36.6291799  64.1112231  96.8623237  35.9485945
  65.2284426  94.3177620  41.2077720  64.7249221  94.2807755  40.3945525
  65.5215033  95.2270362  41.2674376  61.4727312  94.4016349  40.2143901
  62.3380309  94.2059158  39.8549791  61.5404821  94.1726701  41.1413258
  71.0872442 104.6913930  33.6854095  70.3101885 104.3525090  33.2409257
  71.7663923 104.6966553  33.0109060  65.9024471  99.8108668  33.5760703
  65.5974607 100.1254817  34.4270846  66.8554914  99.8890087  33.6188036
  64.3470903 105.9698891  35.2253657  63.8192265 105.2351650  34.9126894
  63.8458406 106.7473567  34.9793625  69.3263749 104.1647911  40.3420703
  68.6687424 104.8547173  40.4300832  70.1304148 104.5544343  40.6854689
  59.0789631  96.6318557  37.5860268  59.6533383  96.4093739  36.8533461
  59.6660613  96.7007252  38.3388870  68.1369208 102.5192284  38.3924645
  68.6501090 103.1522276  38.8946355  68.7870432 101.9193480  38.0268005
  59.4059218  98.6623018  31.6056154  58.5696530  98.9997705  31.9265428
  59.2663988  98.5271998  30.6683291  61.3812299  93.5059806  36.3135338
  60.7276711  93.1908823  35.6891952  61.3392773  92.8835547  37.0395161
  62.4923503 103.7879101  28.2288630  61.5850565 103.5568355  28.4279779
  62.9894535 102.9916720  28.4162611  65.3991582 112.4976608  31.1485316
  64.7253281 112.8008305  31.7570274  65.7857404 113.3005689  30.7990773
  64.6150039  99.9941740  40.6382985  63.6972600 100.2156687  40.4804673
  65.0310183 100.0688050  39.7794693  65.3985087 101.3933155  35.7685666
  66.1456906 101.9054552  35.4592788  65.6676676 101.0717208  36.6290059
  63.6711737 103.8891696  32.7512620  62.7622956 103.6050729  32.8485090
  63.7006821 104.3090775  31.8915927  68.9031004 107.4998286  36.5203787
  68.4493331 106.6589195  36.5768978  68.2724971 108.1359684  36.8578568
  67.8463924  98.4290272  37.7504455  67.1086681  97.9167658  38.0814697
  68.0990697  97.9890653  36.9387732  67.3463944 109.3374782  37.4553606
  67.6386918 109.8979839  36.7365971  67.8562564 109.6303343  38.2106765
  67.9475551  91.2066524  38.3446224  68.2534428  90.3463887  38.0572139
  68.6728156  91.7984144  38.1445218  54.2399907 101.6097210  36.7327822
  54.0424307 101.0166571  36.0078889  53.6846571 101.3049420  37.4503761
  62.2196631 101.5020317  38.8522415  62.2745241 100.5494153  38.7764892
  61.4087833 101.6579756  39.3363714  63.3687825 105.4300440  30.0900698
  62.9307255 104.7136299  29.6306336  64.1098266 105.6576554  29.5285790
  60.1588991 100.1197376  36.6112794  59.3456856 100.4191547  37.0177986
  60.6547985  99.7253065  37.3287276  62.3097569 110.1155133  38.5447059
  62.2673748 110.3415980  37.6155591  63.2260268 109.8818508  38.6932860
  65.7563203 100.5839201  45.4427688  66.1112590 100.8110674  46.3022154
  66.4035334 100.9157578  44.8204943  71.4860939 103.7057637  36.1477017
  71.3478838 103.8959233  35.2198206  71.1297158 104.4677020  36.6045068
  59.6503066  97.6915732  42.2274029  60.2902445  97.5504491  41.5296992
  58.8180596  97.4050245  41.8512631  60.4263369 106.9918162  38.3409022
  61.2203968 106.4968482  38.1391596  59.7155062 106.4636025  37.9776727
  65.2458214 109.3736258  42.6921389  65.2995236 109.9427194  43.4599105
  64.3772995 109.5438143  42.3275426  56.7346133 101.1361244  34.4168774
  55.8043721 101.0745700  34.6338736  56.8303605 100.6137197  33.6205415
  56.6531682  97.6616057  37.0047016  56.9138499  98.5761390  36.8956176
  57.4748854  97.1940499  37.1543629  58.1256607  99.0753814  44.1745840
  58.7979661  98.8671176  43.5258489  57.2986394  98.8775900  43.7351073
  64.0282179  95.7015755  46.1911501  63.3810094  96.4005705  46.0975978
  64.7983195  96.1351899  46.5587749  64.2046314 103.5396520  44.2508321
  65.1338374 103.6907679  44.0777288  63.7837344 103.6280541  43.3956967
  63.0034645 107.5647184  42.0206859  62.8645731 107.1965969  42.8932797
  62.2149242 108.0794824  41.8490816  63.5982797 112.6656281  33.3632395
  63.7734553 112.1944324  34.1778018  62.9115585 113.2922047  33.5913656
  64.5539861 106.9428787  39.4095696  64.2189693 106.9029557  40.3053346
  64.0543806 106.2773503  38.9366107  58.5284105 102.3496417  44.9348278
  58.3903903 101.6176656  45.5359817  59.4389028 102.2605317  44.6532465
  67.4899052 104.2884821  29.6832756  66.8728223 103.5631649  29.5865809
  67.0215541 105.0494182  29.3399830  61.1566405 102.0616376  44.4231957
  61.8666024 101.4209569  44.3818576  61.1135713 102.3129271  45.3458138
  59.8695339  99.0481594  46.2427597  59.3332696  98.5972333  46.8949193
  59.2812048  99.1827503  45.4998061  58.1643883 115.8145644  40.1372255
  58.4040481 116.4464168  40.8151274  57.3213079 115.4633684  40.4237615
  59.2797598  98.5070246  28.8054060  58.4027065  98.3859046  28.4416307
  59.7555351  97.7156324  28.5532949  69.1470591 106.9623314  45.5752516
  68.2597370 106.6249235  45.6978915  69.7169142 106.2306345  45.8121281
  50.7999738 103.2947405  38.8995567  51.4870778 102.9809135  38.3116583
  50.6447867 104.1988770  38.6262819  55.6034460  98.1837602  43.3280591
  55.5192649  97.5763271  42.5931001  54.7817167  98.6746620  43.3290087
  62.6771745 111.6224766  42.5413759  62.6041916 112.4279737  43.0533064
  62.2349138 111.8216732  41.7161781  62.4661524 110.8596536  36.0516581
  61.6829046 111.4018216  36.1454805  63.1654269 111.3770516  36.4510822
  65.7758174  96.6691165  38.6950786  66.2726874  95.9161128  38.3751856
  65.0045156  96.7055482  38.1293996  73.6287932 102.3731531  40.3369078
  73.6177808 103.2556246  39.9663011  72.7605311 102.0203082  40.1423615
  65.1370428 111.5211600  44.6971918  65.8498400 112.1559065  44.6247819
  64.6460457 111.6175466  43.8811920  66.8587955 105.4262853  36.2689210
  65.9244234 105.5464315  36.0993914  67.0364623 104.5235319  36.0049219
  62.3593143  98.8108548  38.4222471  61.9890931  98.2579589  39.1103376
  62.8552236  98.2066682  37.8697471  70.2460506 101.2680172  36.8039244
  70.7120959 102.1008164  36.7299546  70.6968007 100.8025154  37.5084502
  60.1882342 109.2706043  45.5177489  60.8891801 109.9042526  45.6706883
  59.7177457 109.6120775  44.7573128  68.3136737 107.6123993  33.8025396
  68.5896581 107.4980588  34.7119270  67.4441236 107.2141478  33.7637569
  68.2177169  93.6360759  40.8430145  67.3040249  93.8664986  41.0112352
  68.6470271  93.7199203  41.6944177  67.9883628 101.8250651  43.3430039
  67.3355078 102.0726558  42.6882492  68.3664008 101.0114789  43.0092516
  64.9490801 111.8610344  37.4458209  65.1313196 111.0432000  37.9085962
  65.7723788 112.0778036  37.0083099  65.2832967 110.7878529  34.7073258
  65.8120733 110.2770984  34.0943420  65.5461187 110.4721059  35.5718791
  64.0371201 102.5670462  49.8296076  63.3611838 102.4664591  50.4998451
  64.8598835 102.4109676  50.2932073  55.7850060 108.8042398  42.4508591
  56.3703497 108.0586086  42.5836496  55.5874898 109.1146355  43.3345255
  58.6388715 111.8393646  37.4671034  57.9699090 112.3239774  36.9835074
  58.5001585 112.0862866  38.3814412  50.3767714 101.3747999  41.1713035
  50.4151814 100.8411589  41.9650153  49.8708007 100.8483204  40.5524012
  62.7793984 113.8737389  44.0653692  63.3312292 114.0369011  44.8302777
  63.1200177 114.4641827  43.3933717  57.7558477  96.2212539  44.6675577
  57.8199803  97.0827370  44.2552975  57.6925597  95.6086541  43.9347935
  57.2310749  98.2935672  48.3148611  57.8582788  97.9112749  48.9286135
  56.3738668  98.0749874  48.6804304  67.6304858 108.6998647  49.9202347
  68.1744762 109.3128605  49.4257301  67.0491703 109.2578225  50.4369360
  54.0076292 100.1012101  34.2466966  54.3029733  99.1922779  34.1934020
  53.1064328 100.0799840  33.9247968  65.9162371 111.8219365  41.0517374
  65.7913510 111.0209105  40.5428320  66.5741462 112.3165558  40.5631344
  57.5370539  98.1768097  40.2294515  56.8157125  98.7904065  40.0901988
  58.3263795  98.7125862  40.1511161  67.9797279 109.6228385  42.6796924
  67.0327615 109.5033736  42.6075251  68.3280052 108.7350883  42.7623186
  60.3396853  95.5122524  46.5035166  60.8631254  95.7584820  47.2661476
  60.1209186  96.3442559  46.0838304  55.7364134  97.7826199  34.3706291
  55.4076840  96.9023577  34.1881397  56.0903504  97.7273867  35.2582680
  64.9843712 109.4181101  38.8801277  64.8368675 108.4897809  39.0608847
  65.8097206 109.4401192  38.3958352  58.8505957  98.0699168  34.7381769
  59.1902029  98.5985090  34.0160377  59.2978077  98.4079574  35.5140335
  68.5877834 110.2409660  39.9666149  69.5124382 110.0352521  39.8290601
  68.4193138 109.9926061  40.8755491  61.5449398  96.4536219  44.1884837
  61.2046218  95.6544032  44.5905517  60.8388404  96.7537930  43.6161670
  62.1965869  93.5385531  42.6412160  63.0191939  93.0646010  42.5191050
  62.4403933  94.3176015  43.1410846  60.8374104  96.5673790  32.9375062
  61.5582466  96.9455043  32.4338778  60.2139408  97.2862667  33.0410040
  64.9805227  97.2718939  33.8733394  65.1968841  98.1543577  33.5722222
  64.4999294  96.8805152  33.1439036  59.7204448 100.2304652  40.4504138
  59.5749029 100.5444955  41.3428420  59.2429652 100.8489552  39.8975037
  61.5800831  97.2207200  40.4985028  61.5662400  96.3248293  40.1617326
  62.2973259  97.2277864  41.1323314  63.4326962  97.6544540  42.5438155
  63.1744740  98.5761611  42.5422486  62.9012002  97.2574975  43.2338620
  68.3773151 110.7595327  35.3228241  68.5510028 110.1941750  34.5702093
  68.8702042 111.5596222  35.1407731  54.1950110 102.7709997  43.3891800
  53.6503578 103.5469804  43.5212074  55.0729460 103.1180801  43.2310921
  60.9837727  96.1021580  35.7672598  61.1053638  95.1738227  35.9663486
  60.6939769  96.1160266  34.8550914  63.8528917  93.7876491  38.9039318
  63.8750614  93.8515824  37.9491298  64.2696976  92.9480999  39.0979824
  74.2312542 103.5231750  36.9418541  74.6743688 102.7739076  36.5437664
  73.3539052 103.5141887  36.5592273  69.3648323 110.0762092  32.4225139
  70.0599228 110.6968785  32.6412454  69.7071473 109.2257443  32.6977517
  54.9816132 101.8979893  46.2821957  54.2397868 102.0462528  46.8686587
  54.6608876 102.1588158  45.4188706  71.2639746 107.5261797  33.9512470
  71.7891070 107.8649070  33.2261790  71.1762099 106.5908813  33.7675605
  62.9259795 111.4395871  46.0802347  63.2346921 111.1945018  46.9525046
  63.7235277 111.6442509  45.5921217  62.9480407 113.5933781  38.3107723
  62.5085397 113.1010159  39.0040580  63.6988524 113.0506748  38.0699798
  55.4272746 109.7845321  38.3132351  56.2530766 109.4849093  37.9330995
  55.0766798 109.0152944  38.7622140  60.3954279 109.1371790  40.3830025
  59.7734288 108.4742495  40.0832253  61.0659146 109.1632922  39.7003673
  53.6281351 107.7031648  39.2721285  52.7913259 107.2753822  39.0905286
  53.6004996 107.8964091  40.2092076  60.4678807  97.6153578  49.9762531
  60.5166962  98.4915701  49.5940300  61.0101321  97.0730971  49.4034174
  59.9567786 107.6875713  33.8588485  60.1055906 108.3711177  33.2055158
  60.7634229 107.6680803  34.3737941  62.6978095  98.3684950  46.7308889
  61.8281404  98.6618516  46.4591478  62.9337575  98.9525395  47.4516153
  73.7745406 104.9936989  39.3340988  74.6092298 105.4326793  39.4978549
  73.9104535 104.5175642  38.5149234  57.7120419 103.7140891  34.8649554
  57.4666461 102.8103221  35.0629764  57.8816333 103.7158041  33.9229032
  65.4017129  94.5864567  44.2474310  65.9199073  95.3225594  43.9220798
  65.0472262  94.8928560  45.0821069  56.9816066  99.4469248  32.3635716
  56.2885311  99.5213603  31.7075752  56.7367818  98.6829592  32.8857233
  65.6529723  91.0064850  39.7675206  65.9331477  90.3388039  40.3935633
  66.4380330  91.1993945  39.2549870  63.4563191 110.1823843  31.3300233
  62.8837159 110.8014031  30.8770705  64.0295985 110.7323205  31.8640155
  69.5238581  99.4282484  43.5146782  70.4756004  99.5280581  43.5359006
  69.3542032  98.6360752  44.0244866  67.5452961  96.5138067  43.7006182
  66.9502893  96.7943080  43.0052671  67.2602657  97.0031968  44.4722924
  66.6760451 110.4660994  32.4608815  67.6091124 110.4006555  32.6641691
  66.5883664 111.3017260  32.0023348  69.3048468 109.7826864  29.4212763
  69.2262099 109.4486728  30.3148520  70.1258135 110.2748632  29.4204235
  63.8409990 101.5184656  28.6716285  64.7869095 101.3890864  28.7404703
  63.4624235 100.7799318  29.1485713  72.1521148  99.4399647  42.6747364
  71.6360196  98.6558103  42.4877293  73.0361096  99.1118363  42.8393884
  69.8131875  93.1840662  38.6343177  69.6156696  92.8755750  39.5186509
  70.4231580  93.9102301  38.7641107  77.8203209 103.7104610  41.7695118
  78.5506597 103.4489898  42.3302821  77.2110154 102.9733332  41.8097186
  63.7248683 105.5702402  50.1316942  64.6451692 105.7481001  50.3256989
  63.6898266 104.6258448  49.9796641  62.0252907  99.4434633  28.6071170
  61.1184363  99.1467745  28.6833884  62.3028888  99.1464451  27.7405457
  52.9430848 100.7640996  39.0570217  52.6233632  99.9106304  38.7644591
  52.3964276 100.9789574  39.8128184  56.7210755 103.4803437  42.7739723
  56.9396765 104.4120545  42.7927757  57.1336529 103.1211411  43.5594527
  63.6414973  93.9871522  34.7615412  62.8315701  93.6418607  35.1370658
  64.3299390  93.6779066  35.3503023  65.5705521  93.0649569  36.3839708
  66.1236560  93.4845023  37.0429731  65.8075607  92.1385317  36.4262664
  61.5938620  99.0536643  52.1642472  61.4935347 100.0031000  52.0954563
  61.3760162  98.7254882  51.2918542  60.7951692  96.3021568  28.7483150
  61.6570856  96.6276466  29.0078967  60.9802036  95.5153064  28.2356215
  52.8119108 104.3843908  41.0263338  52.1182579 103.9697860  40.5133293
  53.5592099 104.4264444  40.4296757  68.9484328  95.1750094  35.8918373
  68.3682997  95.8334898  35.5096425  68.6820261  94.3527439  35.4805790
  67.3987895  94.5755152  38.0939693  67.8987673  94.6871687  37.2854012
  68.0423503  94.2716205  38.7340501  61.4569890 102.4833782  50.9807534
  60.9736972 103.2834142  51.1871423  61.5430829 102.4941727  50.0274978
  54.7255850 104.3162161  38.9029353  54.7026538 104.4149849  37.9511236
  55.0356487 105.1627312  39.2246519  57.3843228 106.3738316  43.0175968
  58.3386481 106.3422259  42.9505899  57.1855751 105.9128940  43.8326194
  57.9742610 104.9439432  45.5846765  58.7935499 105.4383511  45.6081603
  58.2479418 104.0271401  45.5564333  67.7309206  97.3350185  34.9474721
  66.8435061  97.6199835  34.7294916  68.1463195  97.1743948  34.1001998
  71.0823742  97.3596706  38.6629060  71.8584132  97.8493158  38.9353677
  70.3571877  97.7854760  39.1200930  73.5196301  98.0724325  39.7203001
  74.1140792  97.8320061  39.0096309  73.5922885  97.3531455  40.3476537
  55.7393457 111.9157936  40.0346166  55.6047925 111.1558337  39.4684164
  55.3225519 112.6398836  39.5674954  66.8752420 107.0994859  29.0422741
  67.5788270 107.3044862  29.6580397  66.1515068 107.6671621  29.3071824
  67.7050230 102.8504721  35.1625011  67.6485431 103.3073272  34.3232643
  68.2578572 102.0895405  34.9847854  71.5155036  98.6394453  35.9875131
  71.2591970  98.2391088  36.8183338  70.8907904  99.3538246  35.8625270
  75.8267374 101.3790526  38.4946422  75.2666932 101.4483715  39.2677984
  75.2210877 101.2031510  37.7745918  58.8962583 112.8127253  40.2464608
  58.7794967 113.7572685  40.1443299  58.0755029 112.5100814  40.6350407
  68.7839117 107.5377389  31.0921201  69.6184721 107.1058587  30.9098676
  68.6223460 107.3659402  32.0198095  68.4385009 104.0409502  32.4577540
  68.3833813 103.8753773  31.5165984  67.8131065 104.7485535  32.6139730
  53.2277524  99.2777566  46.2838962  53.8736388  98.7676520  46.7726188
  53.0194675 100.0146248  46.8582388  65.7530916 106.3458414  51.7831103
  66.6222076 106.5199066  51.4217738  65.2737668 107.1652831  51.6606832
  61.7481135  93.5417611  32.0362859  61.7359805  94.4859451  32.1931130
  62.6404557  93.3587756  31.7422320  59.9217097 113.4655515  43.4620537
  60.8244343 113.4979125  43.7787032  59.6954467 112.5355966  43.4766872
  61.6770699 112.2186501  40.1230615  60.7266330 112.2188363  40.0094988
  61.9803185 111.4719236  39.6066650  65.5633254  90.1360388  36.2908795
  64.7965650  89.5818874  36.4365478  65.9743959  90.2082256  37.1522947
  57.5675015  96.4245183  50.3813977  58.4306477  96.0681988  50.5917301
  56.9940426  96.0859078  51.0689381  77.4123392 118.0547040  41.1876378
  78.0501802 117.9353787  40.4839718  77.2944235 119.0027884  41.2464330
  74.2213098 118.0074468  41.1237902  73.8831610 117.8915532  40.2358437
  75.0902867 117.6065633  41.1038909  70.0799914 119.8609944  37.1134793
  69.5164779 119.7699881  36.3451081  69.9652309 119.0409849  37.5937286
  74.7032881 119.1609320  47.0824108  74.6921522 118.7662118  46.2104612
  74.8653521 118.4275392  47.6757879  67.6264346 121.3561136  39.9519014
  68.4185638 121.0151960  39.5365313  67.8660996 121.4656111  40.8721167
  75.6599473 123.5280912  32.4249258  75.0087453 124.1134992  32.0383272
  76.4543836 124.0587107  32.4844296  69.5855100 120.6170049  32.8236393
  70.3585976 120.0699036  32.6849268  69.9380499 121.4814298  33.0350854
  71.4240143 121.9446431  46.0303292  71.1330009 122.8492062  45.9149958
  72.0597127 121.9862959  46.7447361  72.3496349 119.3223280  42.6204652
  72.9459922 119.0979302  41.9061614  72.4071321 118.5808025  43.2230099
  71.9221378 116.7762715  30.4554843  72.1746899 116.2544236  29.6938306
  70.9845937 116.6128861  30.5581526  76.9664661 115.7798494  38.2629586
  77.7527750 115.3617917  37.9120003  77.2303365 116.6844586  38.4311234
  77.1374738 121.2171344  32.9618243  76.5020571 121.2905970  33.6739147
  76.8072144 121.8064943  32.2837322  82.3673088 115.7173727  39.1662564
  83.0998260 115.1472944  39.4000394  81.6112444 115.3295327  39.6069070
  71.6417667 118.6790821  32.6579217  71.5253925 118.0035725  33.3260302
  71.7519927 118.1923195  31.8411371  73.9849208 118.1400968  36.3625907
  73.6207415 117.6131589  37.0738828  74.8416323 117.7499437  36.1892392
  79.8898508 109.4295301  43.6257173  79.5581833 110.2990712  43.4018388
  79.2944122 109.1131585  44.3051203  73.6254695 113.1690868  31.3587255
  73.7929097 114.0371104  31.7257726  73.4351864 113.3318150  30.4348544
  76.3830028 121.6307847  43.0253086  76.0830751 122.5332886  42.9168893
  76.0381087 121.3640030  43.8774238  69.8342509 118.0821644  39.0589790
  68.9093006 117.9497858  39.2667482  70.0826922 118.8615863  39.5559732
  79.7827172 114.1490387  40.7050523  78.8744049 114.0805795  40.4109284
  79.7314767 114.6262332  41.5332348  73.6043915 115.6248525  32.3433922
  73.4843541 116.0705576  33.1819402  72.9096504 115.9733843  31.7847460
  67.1951320 117.7254917  39.8933579  67.3243701 117.9789396  40.8072991
  66.5148772 118.3182625  39.5738234  71.3650808 128.3952167  35.9924053
  71.2874837 129.3459992  36.0712534  70.7612451 128.0498040  36.6498980
  73.8568037 115.5680033  48.6485420  73.0801371 116.1273953  48.6388285
  74.4958600 116.0536816  49.1700290  81.6488818 112.3506825  42.4828397
  81.0063198 112.6439359  41.8368191  81.1443746 112.2359746  43.2881593
  79.3028982 116.0969999  33.1714256  80.2146838 116.3297385  32.9961954
  78.7938629 116.6807043  32.6089335  72.1114410 118.3765486  48.2103387
  72.8529094 118.9150530  47.9338211  71.4051395 119.0031775  48.3674939
  77.5869749 120.5194626  46.8075549  77.9953105 120.0777037  46.0630181
  76.8647011 119.9447254  47.0609742  73.9400819 115.4567233  44.1809106
  74.7862014 115.8806647  44.3243755  73.8799457 114.8000858  44.8747669
  77.9098564 121.0795817  40.5627838  77.2807426 121.2441531  39.8603905
  77.5224226 121.4937427  41.3338802  81.7887796 122.0150255  37.9172201
  81.1038834 122.3949156  37.3669235  81.8731645 122.6245582  38.6504149
  77.0900265 113.1171602  45.8390279  76.8461196 113.8713662  45.3024555
  77.3660195 113.4956949  46.6737526  79.0438727 119.6610214  44.5167545
  79.2555623 120.3041974  43.8401926  78.9968476 118.8272531  44.0489475
  76.6464956 112.2728035  41.4204117  75.7849435 112.5709288  41.7120855
  76.6727391 112.4898433  40.4885150  73.4626526 120.8170225  37.8277923
  73.9264871 121.0957928  37.0382545  73.1983324 119.9153670  37.6451013
  70.3550607 120.3641707  40.7657686  70.9251964 120.7928975  40.1275170
  70.9458719 120.0824291  41.4641872  72.3995412 116.9393378  34.6367488
  73.1019455 117.3914421  35.1041414  72.0676040 116.2977196  35.2647381
  70.8475773 115.5305134  49.0118697  70.2174434 116.2121415  49.2454094
  70.7411861 115.4188216  48.0671835  66.1420746 115.1976930  39.9384621
  65.3519800 115.4534459  39.4624732  66.6331993 116.0125268  40.0436662
  80.1584555 122.5382169  42.6889902  80.9801999 122.1362357  42.4072584
  80.1546958 122.4350404  43.6406018  68.0935491 115.5621509  36.8968098
  67.2966654 115.6740204  37.4151594  67.8661083 115.9008162  36.0308989
  73.9241159 122.0866213  44.8450613  73.9885591 122.5486620  45.6808785
  73.2152083 121.4563578  44.9732923  64.4258449 115.4507421  42.3699612
  64.6766487 116.3354431  42.6357188  64.9617997 115.2712022  41.5974704
  88.2490548 118.8820918  39.0374874  87.4954257 118.3128316  38.8818878
  88.3838090 118.8483582  39.9845508  73.6389176 123.7534320  34.7129593
  73.5034851 124.5985856  35.1414441  74.1798989 123.9553598  33.9495527
  67.0918574 121.2709758  35.2857518  67.6043094 122.0653008  35.4363083
  67.7441287 120.5736049  35.2191120  68.9013459 124.3875514  37.3680271
  69.0780087 125.3093479  37.1801255  69.6970292 124.0733934  37.7974651
  68.1865815 116.4340146  47.2442434  68.0719330 115.5325404  47.5449533
  67.3310333 116.6803843  46.8927251  75.2657653 124.3757887  48.8429935
  74.8221507 123.5894265  48.5250840  75.9274866 124.5637037  48.1773826
  70.0244774 125.9053688  43.3690614  70.5752199 125.7770752  42.5967608
  69.1856250 126.2048577  43.0185506  77.3638891 124.6560687  46.8711336
  77.3457366 125.4769568  46.3791606  78.2858811 124.5314762  47.0961478
  73.8211945 122.1704816  47.7134845  74.3540282 121.4093104  47.4834153
  73.2926026 121.8778468  48.4558999  65.0567491 119.5998412  36.0617089
  65.8942713 120.0095421  35.8450796  65.2345758 118.6597855  36.0317283
  76.9531923 117.2673493  31.7500922  76.4378546 118.0378098  31.9889309
  76.6809231 116.5938629  32.3733983  74.5379034 112.1123194  36.8086160
  73.6820630 111.7230044  36.6291799  74.9505986 112.1915155  35.9485945
  76.0678180 109.6469537  41.2077720  75.5642976 109.6099672  40.3945525
  76.3608787 110.5562280  41.2674376  72.3121066 109.7308267  40.2143901
  73.1774063 109.5351076  39.8549791  72.3798575 109.5018619  41.1413258
  81.9266197 120.0205848  33.6854095  81.1495640 119.6817007  33.2409257
  82.6057678 120.0258471  33.0109060  76.7418226 115.1400585  33.5760703
  76.4368361 115.4546734  34.4270846  77.6948668 115.2182005  33.6188036
  75.1864658 121.2990809  35.2253657  74.6586019 120.5643568  34.9126894
  74.6852160 122.0765485  34.9793625  80.1657504 119.4939829  40.3420703
  79.5081178 120.1839090  40.4300832  80.9697903 119.8836261  40.6854689
  69.9183385 111.9610475  37.5860268  70.4927137 111.7385656  36.8533461
  70.5054368 112.0299169  38.3388870  78.9762963 117.8484202  38.3924645
  79.4894844 118.4814194  38.8946355  79.6264186 117.2485397  38.0268005
  70.2452972 113.9914936  31.6056154  69.4090285 114.3289622  31.9265428
  70.1057742 113.8563916  30.6683291  72.2206053 108.8351724  36.3135338
  71.5670465 108.5200741  35.6891952  72.1786527 108.2127464  37.0395161
  73.3317258 119.1171019  28.2288630  72.4244320 118.8860272  28.4279779
  73.8288290 118.3208638  28.4162611  76.2385337 127.8268526  31.1485316
  75.5647036 128.1300223  31.7570274  76.6251159 128.6297606  30.7990773
  75.4543793 115.3233657  40.6382985  74.5366355 115.5448604  40.4804673
  75.8703937 115.3979968  39.7794693  76.2378841 116.7225073  35.7685666
  76.9850660 117.2346470  35.4592788  76.5070431 116.4009126  36.6290059
  74.5105491 119.2183614  32.7512620  73.6016711 118.9342646  32.8485090
  74.5400575 119.6382692  31.8915927  79.7424759 122.8290203  36.5203787
  79.2887086 121.9881113  36.5768978  79.1118725 123.4651602  36.8578568
  78.6857678 113.7582189  37.7504455  77.9480435 113.2459575  38.0814697
  78.9384452 113.3182571  36.9387732  78.1857698 124.6666700  37.4553606
  78.4780672 125.2271757  36.7365971  78.6956319 124.9595261  38.2106765
  78.7869306 106.5358441  38.3446224  79.0928182 105.6755805  38.0572139
  79.5121910 107.1276061  38.1445218  65.0793662 116.9389128  36.7327822
  64.8818062 116.3458489  36.0078889  64.5240326 116.6341338  37.4503761
  73.0590385 116.8312234  38.8522415  73.1138995 115.8786071  38.7764892
  72.2481587 116.9871673  39.3363714  74.2081579 120.7592357  30.0900698
  73.7701009 120.0428216  29.6306336  74.9492020 120.9868472  29.5285790
  70.9982745 115.4489294  36.6112794  70.1850611 115.7483465  37.0177986
  71.4941739 115.0544983  37.3287276  73.1491323 125.4447051  38.5447059
  73.1067502 125.6707897  37.6155591  74.0654022 125.2110426  38.6932860
  76.5956957 115.9131119  45.4427688  76.9506345 116.1402592  46.3022154
  77.2429088 116.2449495  44.8204943  82.3254694 119.0349554  36.1477017
  82.1872593 119.2251150  35.2198206  81.9690913 119.7968937  36.6045068
  70.4896820 113.0207650  42.2274029  71.1296199 112.8796409  41.5296992
  69.6574351 112.7342163  41.8512631  82.3524074 121.1026081  41.1588289
  82.7860580 121.0101370  42.0071343  83.0655654 121.0783582  40.5208305
  71.2657124 122.3210080  38.3409022  72.0597722 121.8260400  38.1391596
  70.5548816 121.7927943  37.9776727  76.0851968 124.7028176  42.6921389
  76.1388991 125.2719112  43.4599105  75.2166750 124.8730061  42.3275426
  67.5739887 116.4653162  34.4168774  66.6437476 116.4037617  34.6338736
  67.6697359 115.9429114  33.6205415  67.4925436 112.9907975  37.0047016
  67.7532254 113.9053308  36.8956176  68.3142609 112.5232417  37.1543629
  68.9650362 114.4045732  44.1745840  69.6373415 114.1963094  43.5258489
  68.1380148 114.2067818  43.7351073  83.2139623 121.1449782  43.6921174
  83.4075513 122.0495593  43.9380449  83.1140241 120.6857201  44.5259759
  74.8675934 111.0307673  46.1911501  74.2203849 111.7297622  46.0975978
  75.6376949 111.4643817  46.5587749  78.2754732 121.2956525  49.2662055
  78.1240238 121.0667076  48.3492138  78.2659411 122.2527126  49.2793400
  75.0440068 118.8688438  44.2508321  75.9732128 119.0199597  44.0777288
  74.6231098 118.9572458  43.3956967  73.8428400 122.8939102  42.0206859
  73.7039486 122.5257886  42.8932797  73.0542996 123.4086741  41.8490816
  74.4376552 127.9948198  33.3632395  74.6128308 127.5236242  34.1778018
  73.7509340 128.6213965  33.5913656  75.3933615 122.2720705  39.4095696
  75.0583448 122.2321475  40.3053346  74.8937561 121.6065421  38.9366107
  69.3677859 117.6788335  44.9348278  69.2297657 116.9468574  45.5359817
  70.2782783 117.5897235  44.6532465  78.3292807 119.6176739  29.6832756
  77.7121977 118.8923567  29.5865809  77.8609295 120.3786099  29.3399830
  71.9960160 117.3908294  44.4231957  72.7059778 116.7501486  44.3818576
  71.9529468 117.6421189  45.3458138  79.9846938 124.3275647  47.3438536
  79.9259485 123.6434867  46.6769119  80.3866457 125.0694637  46.8919162
  70.7089094 114.3773512  46.2427597  70.1726451 113.9264250  46.8949193
  70.1205802 114.5119421  45.4998061  69.0037637 131.1437561  40.1372255
  69.2434235 131.7756085  40.8151274  68.1606834 130.7925601  40.4237615
  70.1191353 113.8362163  28.8054060  69.2420819 113.7150964  28.4416307
  70.5949106 113.0448242  28.5532949  79.9864346 122.2915231  45.5752516
  79.0991124 121.9541153  45.6978915  80.5562897 121.5598263  45.8121281
  61.6393493 118.6239323  38.8995567  62.3264533 118.3101053  38.3116583
  61.4841621 119.5280688  38.6262819  66.4428215 113.5129520  43.3280591
  66.3586404 112.9055189  42.5931001  65.6210921 114.0038538  43.3290087
  73.5165499 126.9516684  42.5413759  73.4435671 127.7571655  43.0533064
  73.0742892 127.1508649  41.7161781  73.3055279 126.1888454  36.0516581
  72.5222801 126.7310134  36.1454805  74.0048024 126.7062433  36.4510822
  76.6151929 111.9983083  38.6950786  77.1120628 111.2453045  38.3751856
  75.8438910 112.0347400  38.1293996  84.4681686 117.7023449  40.3369078
  84.4571562 118.5848164  39.9663011  83.5999066 117.3494999  40.1423615
  75.9764183 126.8503518  44.6971918  76.6892155 127.4850982  44.6247819
  75.4854211 126.9467384  43.8811920  77.6981710 120.7554770  36.2689210
  76.7637988 120.8756233  36.0993914  77.8758378 119.8527237  36.0049219
  73.1986898 114.1400466  38.4222471  72.8284685 113.5871506  39.1103376
  73.6945990 113.5358600  37.8697471  81.0854261 116.5972090  36.8039244
  81.5514713 117.4300081  36.7299546  81.5361761 116.1317071  37.5084502
  71.0276096 124.5997961  45.5177489  71.7285556 125.2334444  45.6706883
  70.5571211 124.9412693  44.7573128  79.1530492 122.9415911  33.8025396
  79.4290336 122.8272505  34.7119270  78.2834991 122.5433396  33.7637569
  79.0570924 108.9652677  40.8430145  78.1434003 109.1956903  41.0112352
  79.4864025 109.0491121  41.6944177  78.8277382 117.1542569  43.3430039
  78.1748832 117.4018476  42.6882492  79.2057762 116.3406707  43.0092516
  75.7884556 127.1902262  37.4458209  75.9706951 126.3723918  37.9085962
  76.6117542 127.4069954  37.0083099  76.1226721 126.1170447  34.7073258
  76.6514488 125.6062901  34.0943420  76.3854941 125.8012977  35.5718791
  74.8764955 117.8962380  49.8296076  74.2005592 117.7956509  50.4998451
  75.6992589 117.7401593  50.2932073  66.6243814 124.1334316  42.4508591
  67.2097251 123.3878004  42.5836496  66.4268653 124.4438273  43.3345255
  69.4782469 127.1685564  37.4671034  68.8092845 127.6531691  36.9835074
  69.3395339 127.4154784  38.3814412  61.2161469 116.7039916  41.1713035
  61.2545568 116.1703507  41.9650153  60.7101762 116.1775122  40.5524012
  73.6187738 129.2029307  44.0653692  74.1706046 129.3660929  44.8302777
  73.9593931 129.7933745  43.3933717  68.5952231 111.5504457  44.6675577
  68.6593558 112.4119288  44.2552975  68.5319351 110.9378459  43.9347935
  68.0704504 113.6227589  48.3148611  68.6976543 113.2404667  48.9286135
  67.2132423 113.4041791  48.6804304  78.4698612 124.0290565  49.9202347
  79.0138516 124.6420523  49.4257301  77.8885457 124.5870143  50.4369360
  64.8470047 115.4304019  34.2466966  65.1423488 114.5214697  34.1934020
  63.9458082 115.4091758  33.9247968  76.7556125 127.1511283  41.0517374
  76.6307265 126.3501022  40.5428320  77.4135216 127.6457476  40.5631344
  68.3764294 113.5060015  40.2294515  67.6550879 114.1195983  40.0901988
  69.1657549 114.0417780  40.1511161  78.8191034 124.9520303  42.6796924
  77.8721369 124.8325654  42.6075251  79.1673807 124.0642801  42.7623186
  71.1790607 110.8414442  46.5035166  71.7025009 111.0876738  47.2661476
  70.9602940 111.6734476  46.0838304  66.5757888 113.1118116  34.3706291
  66.2470594 112.2315495  34.1881397  66.9297259 113.0565785  35.2582680
  75.8237467 124.7473019  38.8801277  75.6762429 123.8189726  39.0608847
  76.6490960 124.7693110  38.3958352  69.6899711 113.3991086  34.7381769
  70.0295784 113.9277007  34.0160377  70.1371832 113.7371492  35.5140335
  79.4271589 125.5701578  39.9666149  80.3518136 125.3644439  39.8290601
  79.2586892 125.3217979  40.8755491  72.3843152 111.7828137  44.1884837
  72.0439972 110.9835950  44.5905517  71.6782158 112.0829848  43.6161670
  71.6767858 111.8965708  32.9375062  72.3976221 112.2746960  32.4338778
  71.0533163 112.6154584  33.0410040  75.8198981 112.6010857  33.8733394
  76.0362596 113.4835494  33.5722222  75.3393048 112.2097070  33.1439036
  70.5598203 115.5596570  40.4504138  70.4142783 115.8736873  41.3428420
  70.0823406 116.1781470  39.8975037  72.4194586 112.5499118  40.4985028
  72.4056154 111.6540211  40.1617326  73.1367014 112.5569782  41.1323314
  74.2720716 112.9836458  42.5438155  74.0138494 113.9053529  42.5422486
  73.7405757 112.5866893  43.2338620  79.2166905 126.0887245  35.3228241
  79.3903783 125.5233668  34.5702093  79.7095796 126.8888140  35.1407731
  65.0343865 118.1001914  43.3891800  64.4897333 118.8761722  43.5212074
  65.9123215 118.4472719  43.2310921  71.8231481 111.4313498  35.7672598
  71.9447393 110.5030144  35.9663486  71.5333524 111.4452184  34.8550914
  74.6922672 109.1168408  38.9039318  74.7144369 109.1807742  37.9491298
  75.1090731 108.2772917  39.0979824  85.0706296 118.8523668  36.9418541
  85.5137442 118.1030993  36.5437664  84.1932806 118.8433804  36.5592273
  80.2042078 125.4054010  32.4225139  80.8992982 126.0260702  32.6412454
  80.5465228 124.5549361  32.6977517  65.8209887 117.2271810  46.2821957
  65.0791623 117.3754446  46.8686587  65.5002631 117.4880076  45.4188706
  82.1033501 122.8553715  33.9512470  82.6284825 123.1940988  33.2261790
  82.0155853 121.9200730  33.7675605  73.7653549 126.7687789  46.0802347
  74.0740676 126.5236935  46.9525046  74.5629031 126.9734427  45.5921217
  73.7874161 128.9225698  38.3107723  73.3479152 128.4302077  39.0040580
  74.5382278 128.3798666  38.0699798  66.2666500 125.1137239  38.3132351
  67.0924520 124.8141011  37.9330995  65.9160552 124.3444862  38.7622140
  71.2348034 124.4663707  40.3830025  70.6128043 123.8034412  40.0832253
  71.9052900 124.4924839  39.7003673  64.4675105 123.0323566  39.2721285
  63.6307014 122.6045740  39.0905286  64.4398751 123.2256009  40.2092076
  81.7927407 123.4886619  49.2563668  81.0022950 123.4710758  48.7168167
  81.5560761 124.0274912  50.0112704  81.9125282 120.3379085  46.5696396
  81.9623287 120.1729092  47.5111919  81.8039205 119.4706344  46.1794277
  70.7961540 123.0167631  33.8588485  70.9449661 123.7003095  33.2055158
  71.6027984 122.9972721  34.3737941  79.2029044 116.3210013  47.8855703
  80.1038907 116.1816478  47.5939701  79.2777019 116.4864468  48.8253881
  73.5371849 113.6976868  46.7308889  72.6675159 113.9910434  46.4591478
  73.7731330 114.2817313  47.4516153  83.4143479 122.7576027  46.8138418
  83.1228287 123.1206007  47.6501879  82.8015610 122.0443035  46.6351750
  84.6139161 120.3228906  39.3340988  85.4486052 120.7618710  39.4978549
  84.7498290 119.8467560  38.5149234  81.6630667 117.8808641  45.2818476
  82.1384788 118.0736287  44.4737327  80.7396232 117.9367827  45.0361860
  68.5514173 119.0432808  34.8649554  68.3060215 118.1395138  35.0629764
  68.7210088 119.0449959  33.9229032  76.2410883 109.9156485  44.2474310
  76.7592827 110.6517512  43.9220798  75.8866016 110.2220478  45.0821069
  67.8209821 114.7761166  32.3635716  67.1279066 114.8505521  31.7075752
  67.5761573 114.0121510  32.8857233  76.4923477 106.3356767  39.7675206
  76.7725231 105.6679956  40.3935633  77.2774084 106.5285863  39.2549870
  74.2956946 125.5115761  31.3300233  73.7230913 126.1305948  30.8770705
  74.8689740 126.0615123  31.8640155  80.3632336 114.7574401  43.5146782
  81.3149759 114.8572499  43.5359006  80.1935786 113.9652670  44.0244866
  78.3846715 111.8429984  43.7006182  77.7896647 112.1234997  43.0052671
  78.0996412 112.3323885  44.4722924  77.5154206 125.7952911  32.4608815
  78.4484879 125.7298473  32.6641691  77.4277419 126.6309178  32.0023348
  80.1442222 125.1118782  29.4212763  80.0655854 124.7778645  30.3148520
  80.9651889 125.6040550  29.4204235  82.8420414 117.9780521  42.6289081
  82.8096734 117.0396522  42.8148765  83.4521037 118.0564558  41.8954906
  74.6803744 116.8476574  28.6716285  75.6262849 116.7182782  28.7404703
  74.3017989 116.1091236  29.1485713  82.9914902 114.7691564  42.6747364
  82.4753951 113.9850021  42.4877293  83.8754851 114.4410281  42.8393884
  80.6525629 108.5132580  38.6343177  80.4550450 108.2047668  39.5186509
  81.2625335 109.2394219  38.7641107  88.6596963 119.0396528  41.7695118
  89.3900352 118.7781816  42.3302821  88.0503909 118.3025250  41.8097186
  86.7412261 117.1804390  42.3669569  86.0145424 117.0460355  41.7586061
  86.3259547 117.4881219  43.1726287  74.5642437 120.8994320  50.1316942
  75.4845446 121.0772919  50.3256989  74.5292020 119.9550365  49.9796641
  72.8646662 114.7726550  28.6071170  71.9578117 114.4759663  28.6833884
  73.1422643 114.4756368  27.7405457  63.7824602 116.0932914  39.0570217
  63.4627386 115.2398222  38.7644591  63.2358030 116.3081492  39.8128184
  67.5604510 118.8095355  42.7739723  67.7790519 119.7412463  42.7927757
  67.9730283 118.4503329  43.5594527  74.4808727 109.3163440  34.7615412
  73.6709456 108.9710525  35.1370658  75.1693144 109.0070984  35.3503023
  76.4099276 108.3941487  36.3839708  76.9630314 108.8136940  37.0429731
  76.6469362 107.4677235  36.4262664  72.4332375 114.3828560  52.1642472
  72.3329102 115.3322917  52.0954563  72.2153917 114.0546799  51.2918542
  71.6345446 111.6313486  28.7483150  72.4964610 111.9568384  29.0078967
  71.8195790 110.8444981  28.2356215  63.6512862 119.7135825  41.0263338
  62.9576333 119.2989778  40.5133293  64.3985853 119.7556362  40.4296757
  79.7878083 110.5042012  35.8918373  79.2076752 111.1626816  35.5096425
  79.5214015 109.6819357  35.4805790  78.2381649 109.9047070  38.0939693
  78.7381427 110.0163604  37.2854012  78.8817257 109.6008123  38.7340501
  72.2963645 117.8125699  50.9807534  71.8130727 118.6126059  51.1871423
  72.3824584 117.8233644  50.0274978  65.5649605 119.6454079  38.9029353
  65.5420293 119.7441766  37.9511236  65.8750241 120.4919230  39.2246519
  68.2236982 121.7030234  43.0175968  69.1780236 121.6714176  42.9505899
  68.0249506 121.2420858  43.8326194  68.8136365 120.2731350  45.5846765
  69.6329254 120.7675429  45.6081603  69.0873172 119.3563318  45.5564333
  78.5702961 112.6642102  34.9474721  77.6828816 112.9491753  34.7294916
  78.9856950 112.5035866  34.1001998  81.9217497 112.6888623  38.6629060
  82.6977887 113.1785076  38.9353677  81.1965631 113.1146678  39.1200930
  84.3590055 113.4016243  39.7203001  84.9534546 113.1611979  39.0096309
  84.4316639 112.6823373  40.3476537  66.5787211 127.2449854  40.0346166
  66.4441679 126.4850254  39.4684164  66.1619273 127.9690753  39.5674954
  77.7146174 122.4286777  29.0422741  78.4182024 122.6336780  29.6580397
  76.9908823 122.9963539  29.3071824  78.5443984 118.1796638  35.1625011
  78.4879186 118.6365190  34.3232643  79.0972327 117.4187323  34.9847854
  82.3548790 113.9686370  35.9875131  82.0985725 113.5683006  36.8183338
  81.7301658 114.6830164  35.8625270  86.6661128 116.7082443  38.4946422
  86.1060686 116.7775633  39.2677984  86.0604632 116.5323428  37.7745918
  69.7356337 128.1419171  40.2464608  69.6188721 129.0864603  40.1443299
  68.9148783 127.8392732  40.6350407  79.6232872 122.8669306  31.0921201
  80.4578476 122.4350505  30.9098676  79.4617215 122.6951320  32.0198095
  79.2778764 119.3701420  32.4577540  79.2227568 119.2045691  31.5165984
  78.6524819 120.0777452  32.6139730  64.0671279 114.6069484  46.2838962
  64.7130142 114.0968438  46.7726188  63.8588430 115.3438166  46.8582388
  76.5924671 121.6750331  51.7831103  77.4615831 121.8490984  51.4217738
  76.1131422 122.4944748  51.6606832  72.5874889 108.8709529  32.0362859
  72.5753559 109.8151368  32.1931130  73.4798311 108.6879674  31.7422320
  70.7610851 128.7947432  43.4620537  71.6638098 128.8271043  43.7787032
  70.5348221 127.8647883  43.4766872  72.5164453 127.5478419  40.1230615
  71.5660084 127.5480281  40.0094988  72.8196939 126.8011154  39.6066650
  76.4027009 105.4652305  36.2908795  75.6359405 104.9110792  36.4365478
  76.8137714 105.5374174  37.1522947  88.2517147 133.3838957  41.1876378
  88.8895557 133.2645705  40.4839718  88.1337990 134.3319801  41.2464330
  85.0606853 133.3366385  41.1237902  84.7225365 133.2207450  40.2358437
  85.9296621 132.9357551  41.1038909  80.9193669 135.1901862  37.1134793
  80.3558534 135.0991799  36.3451081  80.8046064 134.3701766  37.5937286
  85.5426636 134.4901237  47.0824108  85.5315277 134.0954035  46.2104612
  85.7047275 133.7567310  47.6757879  78.4658101 136.6853053  39.9519014
  79.2579393 136.3443878  39.5365313  78.7054751 136.7948029  40.8721167
  86.4993227 138.8572830  32.4249258  85.8481207 139.4426910  32.0383272
  87.2937590 139.3879025  32.4844296  80.4248855 135.9461967  32.8236393
  81.1979731 135.3990954  32.6849268  80.7774253 136.8106216  33.0350854
  82.2633897 137.2738349  46.0303292  81.9723763 138.1783980  45.9149958
  82.8990881 137.3154877  46.7447361  83.1890104 134.6515198  42.6204652
  83.7853676 134.4271220  41.9061614  83.2465075 133.9099943  43.2230099
  82.7615132 132.1054633  30.4554843  83.0140653 131.5836154  29.6938306
  81.8239691 131.9420778  30.5581526  87.8058415 131.1090411  38.2629586
  88.5921504 130.6909834  37.9120003  88.0697120 132.0136503  38.4311234
  87.9768493 136.5463262  32.9618243  87.3414326 136.6197888  33.6739147
  87.6465899 137.1356860  32.2837322  93.2066842 131.0465644  39.1662564
  93.9392014 130.4764861  39.4000394  92.4506198 130.6587245  39.6069070
  82.4811421 134.0082739  32.6579217  82.3647679 133.3327642  33.3260302
  82.5913681 133.5215113  31.8411371  84.8242962 133.4692886  36.3625907
  84.4601169 132.9423507  37.0738828  85.6810078 133.0791355  36.1892392
  90.7292263 124.7587219  43.6257173  90.3975587 125.6282629  43.4018388
  90.1337876 124.4423503  44.3051203  84.4648449 128.4982786  31.3587255
  84.6322851 129.3663022  31.7257726  84.2745618 128.6610067  30.4348544
  87.2223782 136.9599765  43.0253086  86.9224505 137.8624803  42.9168893
  86.8774842 136.6931948  43.8774238  80.6736264 133.4113561  39.0589790
  79.7486760 133.2789775  39.2667482  80.9220677 134.1907781  39.5559732
  90.6220926 129.4782305  40.7050523  89.7137803 129.4097713  40.4109284
  90.5708522 129.9554250  41.5332348  84.4437670 130.9540443  32.3433922
  84.3237295 131.3997494  33.1819402  83.7490258 131.3025761  31.7847460
  78.0345075 133.0546835  39.8933579  78.1637456 133.3081314  40.8072991
  77.3542526 133.6474543  39.5738234  82.2044562 143.7244085  35.9924053
  82.1268592 144.6751910  36.0712534  81.6006206 143.3789957  36.6498980
  84.6961792 130.8971950  48.6485420  83.9195126 131.4565870  48.6388285
  85.3352355 131.3828733  49.1700290  92.4882572 127.6798743  42.4828397
  91.8456953 127.9731276  41.8368191  91.9837501 127.5651663  43.2881593
  90.1422736 131.4261916  33.1714256  91.0540592 131.6589303  32.9961954
  89.6332383 132.0098961  32.6089335  82.9508164 133.7057404  48.2103387
  83.6922848 134.2442448  47.9338211  82.2445150 134.3323692  48.3674939
  88.4263504 135.8486544  46.8075549  88.8346860 135.4068955  46.0630181
  87.7040765 135.2739172  47.0609742  84.7794574 130.7859151  44.1809106
  85.6255769 131.2098564  44.3243755  84.7193211 130.1292775  44.8747669
  88.7492318 136.4087735  40.5627838  88.1201181 136.5733449  39.8603905
  88.3617980 136.8229344  41.3338802  92.6281550 137.3442173  37.9172201
  91.9432588 137.7241074  37.3669235  92.7125400 137.9537499  38.6504149
  87.9294019 128.4463519  45.8390279  87.6854951 129.2005580  45.3024555
  88.2053950 128.8248867  46.6737526  89.8832482 134.9902132  44.5167545
  90.0949377 135.6333892  43.8401926  89.8362230 134.1564448  44.0489475
  87.4858711 127.6019952  41.4204117  86.6243190 127.9001206  41.7120855
  87.5121145 127.8190351  40.4885150  84.3020280 136.1462143  37.8277923
  84.7658626 136.4249846  37.0382545  84.0377078 135.2445587  37.6451013
  81.1944361 135.6933624  40.7657686  81.7645718 136.1220893  40.1275170
  81.7852473 135.4116209  41.4641872  83.2389166 132.2685295  34.6367488
  83.9413210 132.7206339  35.1041414  82.9069795 131.6269114  35.2647381
  81.6869528 130.8597052  49.0118697  81.0568188 131.5413333  49.2454094
  81.5805616 130.7480133  48.0671835  76.9814500 130.5268848  39.9384621
  76.1913554 130.7826376  39.4624732  77.4725748 131.3417186  40.0436662
  90.9978310 137.8674087  42.6889902  91.8195754 137.4654274  42.4072584
  90.9940713 137.7642321  43.6406018  78.9329246 130.8913427  36.8968098
  78.1360409 131.0032121  37.4151594  78.7054838 131.2300079  36.0308989
  84.7634913 137.4158130  44.8450613  84.8279346 137.8778538  45.6808785
  84.0545837 136.7855495  44.9732923  75.2652203 130.7799338  42.3699612
  75.5160242 131.6646348  42.6357188  75.8011752 130.6003940  41.5974704
  99.0884303 134.2112836  39.0374874  98.3348011 133.6420234  38.8818878
  99.2231844 134.1775500  39.9845508  84.4782931 139.0826238  34.7129593
  84.3428606 139.9277774  35.1414441  85.0192743 139.2845515  33.9495527
  80.9650271 125.1617818  51.3743948  80.5717216 124.6084016  52.0491592
  81.7816411 125.4728396  51.7650466  77.9312328 136.6001676  35.2857518
  78.4436849 137.3944926  35.4363083  78.5835041 135.9027966  35.2191120
  79.7407213 139.7167432  37.3680271  79.9173841 140.6385397  37.1801255
  80.5364047 139.4025851  37.7974651  83.8818232 126.5775697  48.9664205
  84.6227945 127.1782850  48.8868667  84.1136154 125.8353335  48.4082247
  79.0259570 131.7632064  47.2442434  78.9113085 130.8617321  47.5449533
  78.1704087 132.0095761  46.8927251  86.1051407 139.7049804  48.8429935
  85.6615261 138.9186183  48.5250840  86.7668621 139.8928955  48.1773826
  80.8638528 141.2345606  43.3690614  81.4145954 141.1062669  42.5967608
  80.0250004 141.5340495  43.0185506  88.2032645 139.9852604  46.8711336
  88.1851121 140.8061485  46.3791606  89.1252565 139.8606679  47.0961478
  84.6605700 137.4996734  47.7134845  85.1934036 136.7385022  47.4834153
  84.1319781 137.2070386  48.4558999  87.8275394 122.6056800  43.2428486
  87.4839664 123.4958441  43.1667597  88.1954357 122.4158457  42.3798071
  75.8961245 134.9290330  36.0617089  76.7336467 135.3387339  35.8450796
  76.0739513 133.9889772  36.0317283  87.7925677 132.5965411  31.7500922
  87.2772301 133.3670015  31.9889309  87.5202986 131.9230547  32.3733983
  85.3772788 127.4415112  36.8086160  84.5214385 127.0521962  36.6291799
  85.7899740 127.5207072  35.9485945  86.9071935 124.9761455  41.2077720
  86.4036730 124.9391590  40.3945525  87.2002542 125.8854198  41.2674376
  83.1514821 125.0600185  40.2143901  84.0167818 124.8642993  39.8549791
  83.2192330 124.8310536  41.1413258  92.7659951 135.3497765  33.6854095
  91.9889394 135.0108925  33.2409257  93.4451432 135.3550389  33.0109060
  87.5811980 130.4692503  33.5760703  87.2762116 130.7838652  34.4270846
  88.5342422 130.5473923  33.6188036  86.0258412 136.6282726  35.2253657
  85.4979774 135.8935486  34.9126894  85.5245915 137.4057403  34.9793625
  91.0051258 134.8231747  40.3420703  90.3474933 135.5131008  40.4300832
  91.8091657 135.2128179  40.6854689  80.7577140 127.2902393  37.5860268
  81.3320892 127.0677574  36.8533461  81.3448122 127.3591087  38.3388870
  89.8156717 133.1776119  38.3924645  90.3288599 133.8106111  38.8946355
  90.4657941 132.5777315  38.0268005  81.0846727 129.3206854  31.6056154
  80.2484039 129.6581540  31.9265428  80.9451497 129.1855833  30.6683291
  83.0599808 124.1643641  36.3135338  82.4064220 123.8492659  35.6891952
  83.0180282 123.5419382  37.0395161  84.1711012 134.4462936  28.2288630
  83.2638074 134.2152190  28.4279779  84.6682044 133.6500556  28.4162611
  87.0779091 143.1560444  31.1485316  86.4040790 143.4592140  31.7570274
  87.4644913 143.9589524  30.7990773  86.2937548 130.6525575  40.6382985
  85.3760109 130.8740522  40.4804673  86.7097692 130.7271885  39.7794693
  87.0772596 132.0516991  35.7685666  87.8244415 132.5638388  35.4592788
  87.3464185 131.7301043  36.6290059  85.3499246 134.5475531  32.7512620
  84.4410465 134.2634564  32.8485090  85.3794330 134.9674610  31.8915927
  90.5818513 138.1582121  36.5203787  90.1280840 137.3173031  36.5768978
  89.9512480 138.7943519  36.8578568  89.5251433 129.0874107  37.7504455
  88.7874190 128.5751493  38.0814697  89.7778206 128.6474488  36.9387732
  89.0251452 139.9958618  37.4553606  89.3174427 140.5563675  36.7365971
  89.5350073 140.2887179  38.2106765  89.6263060 121.8650359  38.3446224
  89.9321937 121.0047722  38.0572139  90.3515665 122.4567979  38.1445218
  75.9187416 132.2681045  36.7327822  75.7211816 131.6750406  36.0078889
  75.3634080 131.9633256  37.4503761  83.8984140 132.1604152  38.8522415
  83.9532750 131.2077988  38.7764892  83.0875342 132.3163591  39.3363714
  85.0475334 136.0884275  30.0900698  84.6094764 135.3720134  29.6306336
  85.7885775 136.3160390  29.5285790  81.8376500 130.7781212  36.6112794
  81.0244365 131.0775382  37.0177986  82.3335494 130.3836900  37.3287276
  83.9885078 140.7738969  38.5447059  83.9461256 140.9999815  37.6155591
  84.9047777 140.5402343  38.6932860  87.4350711 131.2423036  45.4427688
  87.7900099 131.4694509  46.3022154  88.0822843 131.5741413  44.8204943
  93.1648448 134.3641472  36.1477017  93.0266347 134.5543068  35.2198206
  92.8084667 135.1260855  36.6045068  81.3290575 128.3499567  42.2274029
  81.9689954 128.2088326  41.5296992  80.4968105 128.0634081  41.8512631
  93.1917828 136.4317999  41.1588289  93.6254335 136.3393288  42.0071343
  93.9049409 136.4075500  40.5208305  82.1050878 137.6501998  38.3409022
  82.8991477 137.1552318  38.1391596  81.3942571 137.1219861  37.9776727
  86.9245723 140.0320093  42.6921389  86.9782745 140.6011029  43.4599105
  86.0560504 140.2021978  42.3275426  78.4133642 131.7945079  34.4168774
  77.4831230 131.7329535  34.6338736  78.5091114 131.2721032  33.6205415
  78.3319191 128.3199892  37.0047016  78.5926008 129.2345225  36.8956176
  79.1536363 127.8524335  37.1543629  79.8044116 129.7337649  44.1745840
  80.4767170 129.5255012  43.5258489  78.9773903 129.5359735  43.7351073
  94.0533378 136.4741700  43.6921174  94.2469268 137.3787510  43.9380449
  93.9533996 136.0149119  44.5259759  85.7069688 126.3599590  46.1911501
  85.0597603 127.0589540  46.0975978  86.4770704 126.7935734  46.5587749
  89.1148486 136.6248442  49.2662055  88.9633993 136.3958994  48.3492138
  89.1053166 137.5819044  49.2793400  85.8833823 134.1980355  44.2508321
  86.8125883 134.3491515  44.0777288  85.4624853 134.2864376  43.3956967
  84.6822154 138.2231020  42.0206859  84.5433240 137.8549804  42.8932797
  83.8936751 138.7378659  41.8490816  85.2770306 143.3240116  33.3632395
  85.4522062 142.8528159  34.1778018  84.5903094 143.9505882  33.5913656
  86.2327370 137.6012622  39.4095696  85.8977202 137.5613392  40.3053346
  85.7331315 136.9357338  38.9366107  80.2071614 133.0080252  44.9348278
  80.0691412 132.2760491  45.5359817  81.1176537 132.9189152  44.6532465
  89.1686561 134.9468657  29.6832756  88.5515732 134.2215485  29.5865809
  88.7003050 135.7078017  29.3399830  82.8353914 132.7200212  44.4231957
  83.5453533 132.0793404  44.3818576  82.7923222 132.9713107  45.3458138
  90.8240693 139.6567565  47.3438536  90.7653239 138.9726785  46.6769119
  91.2260211 140.3986555  46.8919162  81.5482848 129.7065430  46.2427597
  81.0120205 129.2556168  46.8949193  80.9599557 129.8411338  45.4998061
  79.8431392 146.4729479  40.1372255  80.0827990 147.1048003  40.8151274
  79.0000588 146.1217519  40.4237615  80.9585107 129.1654081  28.8054060
  80.0814573 129.0442882  28.4416307  81.4342860 128.3740159  28.5532949
  90.8258100 137.6207149  45.5752516  89.9384879 137.2833071  45.6978915
  91.3956651 136.8890180  45.8121281  72.4787247 133.9531241  38.8995567
  73.1658287 133.6392971  38.3116583  72.3235376 134.8572605  38.6262819
  77.2821969 128.8421437  43.3280591  77.1980158 128.2347107  42.5931001
  76.4604676 129.3330456  43.3290087  84.3559254 142.2808601  42.5413759
  84.2829425 143.0863573  43.0533064  83.9136647 142.4800567  41.7161781
  84.1449033 141.5180371  36.0516581  83.3616555 142.0602052  36.1454805
  84.8441778 142.0354351  36.4510822  87.4545683 127.3275001  38.6950786
  87.9514383 126.5744963  38.3751856  86.6832665 127.3639317  38.1293996
  95.3075441 133.0315366  40.3369078  95.2965317 133.9140082  39.9663011
  94.4392820 132.6786917  40.1423615  86.8157937 142.1795435  44.6971918
  87.5285909 142.8142900  44.6247819  86.3247966 142.2759301  43.8811920
  88.5375464 136.0846688  36.2689210  87.6031743 136.2048150  36.0993914
  88.7152132 135.1819155  36.0049219  84.0380652 129.4692384  38.4222471
  83.6678440 128.9163424  39.1103376  84.5339745 128.8650517  37.8697471
  91.9248015 131.9264007  36.8039244  92.3908468 132.7591999  36.7299546
  92.3755516 131.4608989  37.5084502  81.8669851 139.9289879  45.5177489
  82.5679310 140.5626362  45.6706883  81.3964966 140.2704610  44.7573128
  89.9924246 138.2707829  33.8025396  90.2684090 138.1564423  34.7119270
  89.1228745 137.8725313  33.7637569  89.8964678 124.2944594  40.8430145
  88.9827758 124.5248821  41.0112352  90.3257780 124.3783038  41.6944177
  89.6671137 132.4834486  43.3430039  89.0142587 132.7310394  42.6882492
  90.0451516 131.6698624  43.0092516  86.6278310 142.5194179  37.4458209
  86.8100705 141.7015835  37.9085962  87.4511296 142.7361872  37.0083099
  86.9620476 141.4462365  34.7073258  87.4908242 140.9354819  34.0943420
  87.2248696 141.1304895  35.5718791  85.7158710 133.2254297  49.8296076
  85.0399347 133.1248427  50.4998451  86.5386344 133.0693511  50.2932073
  77.4637569 139.4626234  42.4508591  78.0491006 138.7169922  42.5836496
  77.2662407 139.7730191  43.3345255  80.3176224 142.4977481  37.4671034
  79.6486599 142.9823609  36.9835074  80.1789094 142.7446702  38.3814412
  72.0555223 132.0331834  41.1713035  72.0939323 131.4995425  41.9650153
  71.5495516 131.5067040  40.5524012  84.4581493 144.5321225  44.0653692
  85.0099801 144.6952846  44.8302777  84.7987686 145.1225663  43.3933717
  79.4345986 126.8796375  44.6675577  79.4987312 127.7411205  44.2552975
  79.3713106 126.2670376  43.9347935  78.9098258 128.9519507  48.3148611
  79.5370297 128.5696584  48.9286135  78.0526177 128.7333709  48.6804304
  89.3092367 139.3582482  49.9202347  89.8532271 139.9712441  49.4257301
  88.7279212 139.9162061  50.4369360  75.6863801 130.7595936  34.2466966
  75.9817242 129.8506615  34.1934020  74.7851837 130.7383676  33.9247968
  87.5949880 142.4803200  41.0517374  87.4701019 141.6792940  40.5428320
  88.2528971 142.9749394  40.5631344  79.2158048 128.8351933  40.2294515
  78.4944634 129.4487901  40.0901988  80.0051304 129.3709698  40.1511161
  89.6584788 140.2812220  42.6796924  88.7115124 140.1617572  42.6075251
  90.0067561 139.3934718  42.7623186  82.0184362 126.1706359  46.5035166
  82.5418763 126.4168656  47.2661476  81.7996695 127.0026394  46.0838304
  77.4151643 128.4410034  34.3706291  77.0864349 127.5607413  34.1881397
  77.7691013 128.3857703  35.2582680  86.6631221 140.0764937  38.8801277
  86.5156184 139.1481644  39.0608847  87.4884715 140.0985027  38.3958352
  80.5293466 128.7283004  34.7381769  80.8689538 129.2568925  34.0160377
  80.9765586 129.0663410  35.5140335  90.2665343 140.8993495  39.9666149
  91.1911891 140.6936357  39.8290601  90.0980647 140.6509896  40.8755491
  83.2236907 127.1120054  44.1884837  82.8833727 126.3127867  44.5905517
  82.5175913 127.4121765  43.6161670  83.8753378 124.1969367  42.6412160
  84.6979448 123.7229845  42.5191050  84.1191442 124.9759851  43.1410846
  82.5161613 127.2257625  32.9375062  83.2369975 127.6038878  32.4338778
  81.8926917 127.9446502  33.0410040  86.6592736 127.9302774  33.8733394
  86.8756350 128.8127412  33.5722222  86.1786803 127.5388988  33.1439036
  81.3991957 130.8888487  40.4504138  81.2536538 131.2028791  41.3428420
  80.9217161 131.5073388  39.8975037  83.2588340 127.8791035  40.4985028
  83.2449909 126.9832129  40.1617326  83.9760768 127.8861699  41.1323314
  85.1114471 128.3128376  42.5438155  84.8532249 129.2345446  42.5422486
  84.5799511 127.9158810  43.2338620  90.0560660 141.4179163  35.3228241
  90.2297537 140.8525585  34.5702093  90.5489551 142.2180058  35.1407731
  75.8737619 133.4293832  43.3891800  75.3291087 134.2053640  43.5212074
  76.7516969 133.7764636  43.2310921  82.6625236 126.7605416  35.7672598
  82.7841147 125.8322062  35.9663486  82.3727278 126.7744102  34.8550914
  85.5316426 124.4460326  38.9039318  85.5538123 124.5099659  37.9491298
  85.9484485 123.6064835  39.0979824  95.9100051 134.1815586  36.9418541
  96.3531197 133.4322911  36.5437664  95.0326561 134.1725722  36.5592273
  91.0435832 140.7345927  32.4225139  91.7386737 141.3552620  32.6412454
  91.3858982 139.8841278  32.6977517  76.6603641 132.5563728  46.2821957
  75.9185377 132.7046363  46.8686587  76.3396385 132.8171994  45.4188706
  92.9427255 138.1845633  33.9512470  93.4678579 138.5232905  33.2261790
  92.8549608 137.2492648  33.7675605  84.6047304 142.0979706  46.0802347
  84.9134430 141.8528853  46.9525046  85.4022786 142.3026345  45.5921217
  84.6267916 144.2517616  38.3107723  84.1872906 143.7593995  39.0040580
  85.3776033 143.7090584  38.0699798  77.1060255 140.4429157  38.3132351
  77.9318275 140.1432929  37.9330995  76.7554307 139.6736779  38.7622140
  82.0741788 139.7955625  40.3830025  81.4521797 139.1326330  40.0832253
  82.7446655 139.8216757  39.7003673  75.3068860 138.3615483  39.2721285
  74.4700768 137.9337658  39.0905286  75.2792505 138.5547927  40.2092076
  82.1466316 128.2737413  49.9762531  82.1954471 129.1499536  49.5940300
  82.6888830 127.7314806  49.4034174  92.6321161 138.8178536  49.2563668
  91.8416705 138.8002675  48.7168167  92.3954516 139.3566830  50.0112704
  92.7519036 135.6671003  46.5696396  92.8017041 135.5021010  47.5111919
  92.6432960 134.7998262  46.1794277  81.6355295 138.3459548  33.8588485
  81.7843415 139.0295013  33.2055158  82.4421738 138.3264638  34.3737941
  90.0422799 131.6501931  47.8855703  90.9432661 131.5108396  47.5939701
  90.1170773 131.8156386  48.8253881  84.3765604 129.0268786  46.7308889
  83.5068913 129.3202352  46.4591478  84.6125084 129.6109231  47.4516153
  94.2537233 138.0867944  46.8138418  93.9622041 138.4497925  47.6501879
  93.6409364 137.3734953  46.6351750  95.4532915 135.6520824  39.3340988
  96.2879807 136.0910628  39.4978549  95.5892044 135.1759477  38.5149234
  92.5024421 133.2100559  45.2818476  92.9778543 133.4028205  44.4737327
  91.5789987 133.2659745  45.0361860  79.3907928 134.3724726  34.8649554
  79.1453970 133.4687056  35.0629764  79.5603842 134.3741876  33.9229032
  87.0804638 125.2448402  44.2474310  87.5986582 125.9809429  43.9220798
  86.7259771 125.5512396  45.0821069  78.6603575 130.1053084  32.3635716
  77.9672820 130.1797439  31.7075752  78.4155327 129.3413427  32.8857233
  87.3317232 121.6648685  39.7675206  87.6118986 120.9971874  40.3935633
  88.1167839 121.8577781  39.2549870  85.1350700 140.8407679  31.3300233
  84.5624668 141.4597866  30.8770705  85.7083494 141.3907041  31.8640155
  91.2026090 130.0866319  43.5146782  92.1543513 130.1864417  43.5359006
  91.0329541 129.2944588  44.0244866  89.2240470 127.1721902  43.7006182
  88.6290402 127.4526915  43.0052671  88.9390166 127.6615803  44.4722924
  88.3547960 141.1244829  32.4608815  89.2878633 141.0590391  32.6641691
  88.2671173 141.9601096  32.0023348  90.9835977 140.4410699  29.4212763
  90.9049608 140.1070563  30.3148520  91.8045644 140.9332467  29.4204235
  93.6814168 133.3072439  42.6289081  93.6490488 132.3688439  42.8148765
  94.2914792 133.3856475  41.8954906  85.5197499 132.1768492  28.6716285
  86.4656604 132.0474700  28.7404703  85.1411744 131.4383154  29.1485713
  93.8308657 130.0983482  42.6747364  93.3147705 129.3141939  42.4877293
  94.7148605 129.7702199  42.8393884  91.4919383 123.8424498  38.6343177
  91.2944205 123.5339586  39.5186509  92.1019089 124.5686137  38.7641107
  99.4990718 134.3688445  41.7695118 100.2294106 134.1073734  42.3302821
  98.8897663 133.6317167  41.8097186  97.5806015 132.5096308  42.3669569
  96.8539179 132.3752273  41.7586061  97.1653302 132.8173137  43.1726287
  85.4036191 136.2286238  50.1316942  86.3239201 136.4064837  50.3256989
  85.3685775 135.2842283  49.9796641  83.7040416 130.1018468  28.6071170
  82.7971871 129.8051581  28.6833884  83.9816397 129.8048286  27.7405457
  74.6218356 131.4224831  39.0570217  74.3021141 130.5690140  38.7644591
  74.0751785 131.6373410  39.8128184  78.3998264 134.1387272  42.7739723
  78.6184274 135.0704380  42.7927757  78.8124038 133.7795247  43.5594527
  85.3202482 124.6455358  34.7615412  84.5103210 124.3002443  35.1370658
  86.0086899 124.3362901  35.3503023  87.2493030 123.7233405  36.3839708
  87.8024069 124.1428858  37.0429731  87.4863116 122.7969153  36.4262664
  83.2726129 129.7120478  52.1642472  83.1722856 130.6614835  52.0954563
  83.0547671 129.3838717  51.2918542  82.4739201 126.9605403  28.7483150
  83.3358365 127.2860302  29.0078967  82.6589545 126.1736899  28.2356215
  74.4906616 135.0427743  41.0263338  73.7970088 134.6281696  40.5133293
  75.2379607 135.0848279  40.4296757  90.6271837 125.8333930  35.8918373
  90.0470506 126.4918734  35.5096425  90.3607770 125.0111274  35.4805790
  89.0775404 125.2338987  38.0939693  89.5775182 125.3455522  37.2854012
  89.7211011 124.9300040  38.7340501  83.1357399 133.1417617  50.9807534
  82.6524481 133.9417977  51.1871423  83.2218338 133.1525562  50.0274978
  76.4043359 134.9745997  38.9029353  76.3814047 135.0733684  37.9511236
  76.7143996 135.8211147  39.2246519  79.0630737 137.0322152  43.0175968
  80.0173990 137.0006094  42.9505899  78.8643260 136.5712775  43.8326194
  79.6530119 135.6023268  45.5846765  80.4723008 136.0967346  45.6081603
  79.9266927 134.6855236  45.5564333  89.4096715 127.9934020  34.9474721
  88.5222570 128.2783671  34.7294916  89.8250704 127.8327783  34.1001998
  92.7611251 128.0180541  38.6629060  93.5371641 128.5076993  38.9353677
  92.0359386 128.4438595  39.1200930  95.1983810 128.7308160  39.7203001
  95.7928301 128.4903896  39.0096309  95.2710394 128.0115291  40.3476537
  77.4180966 142.5741771  40.0346166  77.2835434 141.8142172  39.4684164
  77.0013028 143.2982671  39.5674954  88.5539929 137.7578695  29.0422741
  89.2575779 137.9628697  29.6580397  87.8302577 138.3255457  29.3071824
  89.3837739 133.5088556  35.1625011  89.3272940 133.9657107  34.3232643
  89.9366081 132.7479241  34.9847854  93.1942545 129.2978288  35.9875131
  92.9379479 128.8974924  36.8183338  92.5695413 130.0122082  35.8625270
  97.5054883 132.0374361  38.4946422  96.9454441 132.1067550  39.2677984
  96.8998386 131.8615346  37.7745918  80.5750092 143.4711088  40.2464608
  80.4582476 144.4156521  40.1443299  79.7542538 143.1684650  40.6350407
  90.4626626 138.1961224  31.0921201  91.2972230 137.7642422  30.9098676
  90.3010969 138.0243238  32.0198095  90.1172518 134.6993337  32.4577540
  90.0621322 134.5337609  31.5165984  89.4918574 135.4069370  32.6139730
  74.9065033 129.9361402  46.2838962  75.5523897 129.4260356  46.7726188
  74.6982184 130.6730083  46.8582388  87.4318425 137.0042249  51.7831103
  88.3009585 137.1782901  51.4217738  86.9525177 137.8236666  51.6606832
  83.4268644 124.2001446  32.0362859  83.4147314 125.1443286  32.1931130
  84.3192066 124.0171592  31.7422320  81.6004606 144.1239350  43.4620537
  82.5031852 144.1562960  43.7787032  81.3741976 143.1939801  43.4766872
  83.3558208 142.8770337  40.1230615  82.4053839 142.8772198  40.0094988
  83.6590694 142.1303071  39.6066650  87.2420763 120.7944223  36.2908795
  86.4753159 120.2402710  36.4365478  87.6531468 120.8666092  37.1522947
  79.2462524 127.0829019  50.3813977  80.1093986 126.7265824  50.5917301
  78.6727935 126.7442914  51.0689381  99.0910901 148.7130875  41.1876378
  99.7289311 148.5937622  40.4839718  98.9731744 149.6611719  41.2464330
  95.9000607 148.6658303  41.1237902  95.5619119 148.5499368  40.2358437
  96.7690376 148.2649468  41.1038909  91.7587423 150.5193780  37.1134793
  91.1952288 150.4283717  36.3451081  91.6439818 149.6993684  37.5937286
  96.3820390 149.8193155  47.0824108  96.3709031 149.4245953  46.2104612
  96.5441030 149.0859227  47.6757879  89.3051855 152.0144971  39.9519014
  90.0973147 151.6735796  39.5365313  89.5448505 152.1239946  40.8721167
  91.2642609 151.2753884  32.8236393  92.0373485 150.7282872  32.6849268
  91.6168008 152.1398134  33.0350854  93.1027652 152.6030267  46.0303292
  92.8117518 153.5075898  45.9149958  93.7384636 152.6446794  46.7447361
  94.0283858 149.9807115  42.6204652  94.6247431 149.7563138  41.9061614
  94.0858830 149.2391861  43.2230099  93.6008887 147.4346551  30.4554843
  93.8534408 146.9128072  29.6938306  92.6633446 147.2712696  30.5581526
  98.6452170 146.4382329  38.2629586  99.4315259 146.0201752  37.9120003
  98.9090874 147.3428421  38.4311234  98.8162247 151.8755179  32.9618243
  98.1808080 151.9489806  33.6739147  98.4859653 152.4648778  32.2837322
 104.0460597 146.3757562  39.1662564 104.7785769 145.8056779  39.4000394
 103.2899953 145.9879163  39.6069070  93.3205176 149.3374656  32.6579217
  93.2041434 148.6619560  33.3260302  93.4307435 148.8507030  31.8411371
  95.6636717 148.7984804  36.3625907  95.2994924 148.2715425  37.0738828
  96.5203832 148.4083273  36.1892392 101.5686017 140.0879136  43.6257173
 101.2369342 140.9574547  43.4018388 100.9731631 139.7715420  44.3051203
  95.3042204 143.8274703  31.3587255  95.4716606 144.6954940  31.7257726
  95.1139373 143.9901985  30.4348544  98.0617537 152.2891682  43.0253086
  97.7618260 153.1916721  42.9168893  97.7168596 152.0223865  43.8774238
  91.5130018 148.7405479  39.0589790  90.5880515 148.6081693  39.2667482
  91.7614431 149.5199698  39.5559732 101.4614680 144.8074222  40.7050523
 100.5531558 144.7389631  40.4109284 101.4102276 145.2846167  41.5332348
  95.2831424 146.2832361  32.3433922  95.1631050 146.7289412  33.1819402
  94.5884013 146.6317678  31.7847460  88.8738829 148.3838753  39.8933579
  89.0031210 148.6373232  40.8072991  88.1936281 148.9766461  39.5738234
  93.0438316 159.0536003  35.9924053  92.9662346 160.0043828  36.0712534
  92.4399960 158.7081875  36.6498980  95.5355546 146.2263868  48.6485420
  94.7588880 146.7857788  48.6388285  96.1746109 146.7120651  49.1700290
 103.3276327 143.0090661  42.4828397 102.6850707 143.3023194  41.8368191
 102.8231255 142.8943581  43.2881593 100.9816491 146.7553834  33.1714256
 101.8934347 146.9881221  32.9961954 100.4726138 147.3390878  32.6089335
  93.7901919 149.0349321  48.2103387  94.5316603 149.5734365  47.9338211
  93.0838904 149.6615610  48.3674939  99.2657258 151.1778462  46.8075549
  99.6740614 150.7360872  46.0630181  98.5434520 150.6031089  47.0609742
  95.6188328 146.1151069  44.1809106  96.4649523 146.5390482  44.3243755
  95.5586966 145.4584693  44.8747669  99.5886073 151.7379652  40.5627838
  98.9594935 151.9025367  39.8603905  99.2011735 152.1521262  41.3338802
 103.4675305 152.6734090  37.9172201 102.7826343 153.0532992  37.3669235
 103.5519154 153.2829417  38.6504149  98.7687774 143.7755437  45.8390279
  98.5248705 144.5297497  45.3024555  99.0447704 144.1540785  46.6737526
 100.7226236 150.3194049  44.5167545 100.9343132 150.9625809  43.8401926
 100.6755985 149.4856366  44.0489475  98.3252465 142.9311870  41.4204117
  97.4636944 143.2293124  41.7120855  98.3514900 143.1482269  40.4885150
  95.1414035 151.4754061  37.8277923  95.6052380 151.7541764  37.0382545
  94.8770833 150.5737505  37.6451013  92.0338116 151.0225542  40.7657686
  92.6039473 151.4512810  40.1275170  92.6246228 150.7408127  41.4641872
  94.0782921 147.5977213  34.6367488  94.7806964 148.0498257  35.1041414
  93.7463549 146.9561032  35.2647381  92.5263282 146.1888970  49.0118697
  91.8961943 146.8705250  49.2454094  92.4199370 146.0772051  48.0671835
  87.8208255 145.8560766  39.9384621  87.0307309 146.1118294  39.4624732
  88.3119502 146.6709103  40.0436662 101.8372064 153.1966005  42.6889902
 102.6589508 152.7946192  42.4072584 101.8334467 153.0934239  43.6406018
  89.7723000 146.2205345  36.8968098  88.9754163 146.3324039  37.4151594
  89.5448592 146.5591997  36.0308989  95.6028668 152.7450048  44.8450613
  95.6673100 153.2070455  45.6808785  94.8939592 152.1147413  44.9732923
  86.1045958 146.1091256  42.3699612  86.3553996 146.9938266  42.6357188
  86.6405506 145.9295858  41.5974704 109.9278057 149.5404753  39.0374874
 109.1741766 148.9712151  38.8818878 110.0625599 149.5067418  39.9845508
  95.3176685 154.4118156  34.7129593  95.1822360 155.2569691  35.1414441
  95.8586498 154.6137433  33.9495527  91.8044025 140.4909735  51.3743948
  91.4110971 139.9375934  52.0491592  92.6210165 140.8020314  51.7650466
  88.7706083 151.9293594  35.2857518  89.2830603 152.7236844  35.4363083
  89.4228796 151.2319884  35.2191120  90.5800967 155.0459350  37.3680271
  90.7567596 155.9677315  37.1801255  91.3757801 154.7317769  37.7974651
  94.7211986 141.9067614  48.9664205  95.4621699 142.5074768  48.8868667
  94.9529909 141.1645252  48.4082247  89.8653324 147.0923982  47.2442434
  89.7506839 146.1909239  47.5449533  89.0097842 147.3387678  46.8927251
  96.9445162 155.0341722  48.8429935  96.5009016 154.2478101  48.5250840
  97.6062375 155.2220873  48.1773826  91.7032283 156.5637524  43.3690614
  92.2539708 156.4354587  42.5967608  90.8643759 156.8632413  43.0185506
  99.0426400 155.3144522  46.8711336  99.0244875 156.1353403  46.3791606
  99.9646320 155.1898597  47.0961478  95.4999454 152.8288651  47.7134845
  96.0327791 152.0676940  47.4834153  94.9713535 152.5362303  48.4558999
  98.6669149 137.9348717  43.2428486  98.3233418 138.8250359  43.1667597
  99.0348112 137.7450375  42.3798071  86.7355000 150.2582248  36.0617089
  87.5730222 150.6679256  35.8450796  86.9133267 149.3181690  36.0317283
  98.6319432 147.9257328  31.7500922  98.1166055 148.6961933  31.9889309
  98.3596740 147.2522465  32.3733983  96.2166543 142.7707029  36.8086160
  95.3608139 142.3813880  36.6291799  96.6293494 142.8498990  35.9485945
  97.7465689 140.3053373  41.2077720  97.2430485 140.2683508  40.3945525
  98.0396296 141.2146115  41.2674376  93.9908575 140.3892102  40.2143901
  94.8561572 140.1934911  39.8549791  94.0586084 140.1602454  41.1413258
  98.4205735 145.7984421  33.5760703  98.1155870 146.1130570  34.4270846
  99.3736177 145.8765840  33.6188036  96.8652167 151.9574644  35.2253657
  96.3373528 151.2227403  34.9126894  96.3639669 152.7349320  34.9793625
 101.8445013 150.1523664  40.3420703 101.1868687 150.8422926  40.4300832
 102.6485412 150.5420096  40.6854689  91.5970894 142.6194310  37.5860268
  92.1714646 142.3969492  36.8533461  92.1841877 142.6883005  38.3388870
 100.6550472 148.5068037  38.3924645 101.1682353 149.1398029  38.8946355
 101.3051695 147.9069233  38.0268005  91.9240481 144.6498771  31.6056154
  91.0877794 144.9873458  31.9265428  91.7845251 144.5147751  30.6683291
  93.8993562 139.4935559  36.3135338  93.2457974 139.1784576  35.6891952
  93.8574036 138.8711300  37.0395161  97.1331302 145.9817493  40.6382985
  96.2153864 146.2032440  40.4804673  97.5491446 146.0563803  39.7794693
  97.9166350 147.3808908  35.7685666  98.6638169 147.8930306  35.4592788
  98.1857940 147.0592961  36.6290059  96.1893000 149.8767449  32.7512620
  95.2804220 149.5926482  32.8485090  96.2188084 150.2966528  31.8915927
 101.4212268 153.4874039  36.5203787 100.9674595 152.6464948  36.5768978
 100.7906234 154.1235437  36.8578568 100.3645187 144.4166025  37.7504455
  99.6267944 143.9043411  38.0814697 100.6171961 143.9766406  36.9387732
  99.8645207 155.3250535  37.4553606 100.1568181 155.8855592  36.7365971
 100.3743828 155.6179096  38.2106765 100.4656815 137.1942277  38.3446224
 100.7715691 136.3339640  38.0572139 101.1909419 137.7859897  38.1445218
  86.7581171 147.5972963  36.7327822  86.5605571 147.0042324  36.0078889
  86.2027835 147.2925173  37.4503761  94.7377894 147.4896070  38.8522415
  94.7926504 146.5369906  38.7764892  93.9269096 147.6455509  39.3363714
  92.6770254 146.1073129  36.6112794  91.8638120 146.4067300  37.0177986
  93.1729248 145.7128818  37.3287276  94.8278832 156.1030886  38.5447059
  94.7855011 156.3291733  37.6155591  95.7441531 155.8694261  38.6932860
  98.2744466 146.5714954  45.4427688  98.6293854 146.7986427  46.3022154
  98.9216597 146.9033331  44.8204943 104.0042203 149.6933390  36.1477017
 103.8660102 149.8834986  35.2198206 103.6478422 150.4552773  36.6045068
  92.1684329 143.6791485  42.2274029  92.8083708 143.5380244  41.5296992
  91.3361860 143.3925998  41.8512631 104.0311583 151.7609917  41.1588289
 104.4648089 151.6685206  42.0071343 104.7443163 151.7367417  40.5208305
  92.9444633 152.9793915  38.3409022  93.7385231 152.4844235  38.1391596
  92.2336325 152.4511778  37.9776727  97.7639477 155.3612011  42.6921389
  97.8176500 155.9302947  43.4599105  96.8954259 155.5313896  42.3275426
  89.2527396 147.1236997  34.4168774  88.3224985 147.0621453  34.6338736
  89.3484868 146.6012950  33.6205415  89.1712945 143.6491810  37.0047016
  89.4319763 144.5637143  36.8956176  89.9930118 143.1816252  37.1543629
  90.6437871 145.0629567  44.1745840  91.3160924 144.8546929  43.5258489
  89.8167657 144.8651653  43.7351073 104.8927132 151.8033617  43.6921174
 105.0863022 152.7079428  43.9380449 104.7927750 151.3441036  44.5259759
  96.5463443 141.6891508  46.1911501  95.8991358 142.3881458  46.0975978
  97.3164458 142.1227652  46.5587749  99.9542241 151.9540360  49.2662055
  99.8027747 151.7250912  48.3492138  99.9446920 152.9110962  49.2793400
  96.7227577 149.5272273  44.2508321  97.6519637 149.6783433  44.0777288
  96.3018607 149.6156294  43.3956967  95.5215909 153.5522937  42.0206859
  95.3826995 153.1841722  42.8932797  94.7330505 154.0670577  41.8490816
  97.0721124 152.9304540  39.4095696  96.7370957 152.8905310  40.3053346
  96.5725070 152.2649256  38.9366107  91.0465368 148.3372170  44.9348278
  90.9085166 147.6052409  45.5359817  91.9570292 148.2481070  44.6532465
  93.6747669 148.0492129  44.4231957  94.3847287 147.4085322  44.3818576
  93.6316977 148.3005024  45.3458138 101.6634447 154.9859483  47.3438536
 101.6046994 154.3018703  46.6769119 102.0653966 155.7278473  46.8919162
  92.3876603 145.0357347  46.2427597  91.8513960 144.5848086  46.8949193
  91.7993311 145.1703256  45.4998061  90.6825146 161.8021397  40.1372255
  90.9221744 162.4339921  40.8151274  89.8394343 161.4509437  40.4237615
  91.7978862 144.4945999  28.8054060  90.9208328 144.3734799  28.4416307
  92.2736615 143.7032077  28.5532949 101.6651855 152.9499067  45.5752516
 100.7778633 152.6124988  45.6978915 102.2350406 152.2182098  45.8121281
  83.3181002 149.2823158  38.8995567  84.0052042 148.9684888  38.3116583
  83.1629130 150.1864523  38.6262819  88.1215724 144.1713355  43.3280591
  88.0373913 143.5639025  42.5931001  87.2998430 144.6622373  43.3290087
  95.1953008 157.6100519  42.5413759  95.1223180 158.4155490  43.0533064
  94.7530401 157.8092485  41.7161781  94.9842788 156.8472289  36.0516581
  94.2010310 157.3893969  36.1454805  95.6835533 157.3646269  36.4510822
  98.2939438 142.6566918  38.6950786  98.7908137 141.9036881  38.3751856
  97.5226419 142.6931235  38.1293996 106.1469195 148.3607284  40.3369078
 106.1359071 149.2431999  39.9663011 105.2786575 148.0078835  40.1423615
  97.6551692 157.5087353  44.6971918  98.3679664 158.1434818  44.6247819
  97.1641720 157.6051219  43.8811920  99.3769218 151.4138606  36.2689210
  98.4425497 151.5340068  36.0993914  99.5545887 150.5111072  36.0049219
  94.8774407 144.7984301  38.4222471  94.5072194 144.2455342  39.1103376
  95.3733499 144.1942435  37.8697471 102.7641770 147.2555925  36.8039244
 103.2302222 148.0883917  36.7299546 103.2149270 146.7900907  37.5084502
  92.7063605 155.2581796  45.5177489  93.4073065 155.8918279  45.6706883
  92.2358720 155.5996528  44.7573128 100.8318001 153.5999746  33.8025396
 101.1077845 153.4856341  34.7119270  99.9622500 153.2017231  33.7637569
 100.7358433 139.6236512  40.8430145  99.8221512 139.8540739  41.0112352
 101.1651534 139.7074956  41.6944177 100.5064891 147.8126404  43.3430039
  99.8536341 148.0602311  42.6882492 100.8845271 146.9990542  43.0092516
  97.4672065 157.8486097  37.4458209  97.6494459 157.0307753  37.9085962
  98.2905051 158.0653789  37.0083099  96.5552464 148.5546215  49.8296076
  95.8793101 148.4540344  50.4998451  97.3780098 148.3985429  50.2932073
  88.3031323 154.7918152  42.4508591  88.8884760 154.0461839  42.5836496
  88.1056162 155.1022108  43.3345255  91.1569978 157.8269399  37.4671034
  90.4880354 158.3115527  36.9835074  91.0182848 158.0738619  38.3814412
  82.8948978 147.3623752  41.1713035  82.9333077 146.8287342  41.9650153
  82.3889271 146.8358957  40.5524012  95.2975247 159.8613142  44.0653692
  95.8493555 160.0244764  44.8302777  95.6381440 160.4517580  43.3933717
  90.2739740 142.2088292  44.6675577  90.3381067 143.0703123  44.2552975
  90.2106860 141.5962294  43.9347935  89.7492013 144.2811425  48.3148611
  90.3764052 143.8988502  48.9286135  88.8919932 144.0625627  48.6804304
 100.1486121 154.6874400  49.9202347 100.6926025 155.3004358  49.4257301
  99.5672966 155.2453978  50.4369360  86.5257556 146.0887854  34.2466966
  86.8210997 145.1798532  34.1934020  85.6245591 146.0675593  33.9247968
  98.4343634 157.8095118  41.0517374  98.3094774 157.0084858  40.5428320
  99.0922725 158.3041311  40.5631344  90.0551803 144.1643850  40.2294515
  89.3338388 144.7779818  40.0901988  90.8445058 144.7001615  40.1511161
 100.4978543 155.6104138  42.6796924  99.5508878 155.4909489  42.6075251
 100.8461316 154.7226636  42.7623186  92.8578116 141.4998277  46.5035166
  93.3812518 141.7460574  47.2661476  92.6390449 142.3318312  46.0838304
  88.2545397 143.7701952  34.3706291  87.9258103 142.8899330  34.1881397
  88.6084768 143.7149620  35.2582680  97.5024976 155.4056854  38.8801277
  97.3549938 154.4773562  39.0608847  98.3278469 155.4276945  38.3958352
  91.3687220 144.0574921  34.7381769  91.7083293 144.5860843  34.0160377
  91.8159341 144.3955327  35.5140335 101.1059098 156.2285413  39.9666149
 102.0305645 156.0228274  39.8290601 100.9374401 155.9801814  40.8755491
  94.0630661 142.4411972  44.1884837  93.7227481 141.6419785  44.5905517
  93.3569667 142.7413683  43.6161670  94.7147133 139.5261284  42.6412160
  95.5373202 139.0521763  42.5191050  94.9585196 140.3051768  43.1410846
  93.3555367 142.5549543  32.9375062  94.0763730 142.9330796  32.4338778
  92.7320672 143.2738420  33.0410040  97.4986490 143.2594692  33.8733394
  97.7150105 144.1419330  33.5722222  97.0180557 142.8680905  33.1439036
  92.2385712 146.2180405  40.4504138  92.0930292 146.5320708  41.3428420
  91.7610915 146.8365305  39.8975037  94.0982095 143.2082953  40.4985028
  94.0843663 142.3124046  40.1617326  94.8154523 143.2153617  41.1323314
  95.9508225 143.6420293  42.5438155  95.6926003 144.5637364  42.5422486
  95.4193266 143.2450728  43.2338620  86.7131374 148.7585750  43.3891800
  86.1684842 149.5345557  43.5212074  87.5910724 149.1056554  43.2310921
  93.5018990 142.0897333  35.7672598  93.6234902 141.1613980  35.9663486
  93.2121033 142.1036019  34.8550914  96.3710181 139.7752244  38.9039318
  96.3931878 139.8391577  37.9491298  96.7878240 138.9356752  39.0979824
 106.7493805 149.5107503  36.9418541 107.1924951 148.7614829  36.5437664
 105.8720315 149.5017640  36.5592273  87.4997396 147.8855646  46.2821957
  86.7579132 148.0338281  46.8686587  87.1790140 148.1463911  45.4188706
  95.4441058 157.4271624  46.0802347  95.7528185 157.1820771  46.9525046
  96.2416540 157.6318262  45.5921217  95.4661670 159.5809534  38.3107723
  95.0266661 159.0885912  39.0040580  96.2169787 159.0382501  38.0699798
  87.9454009 155.7721075  38.3132351  88.7712029 155.4724846  37.9330995
  87.5948061 155.0028697  38.7622140  92.9135543 155.1247543  40.3830025
  92.2915552 154.4618248  40.0832253  93.5840409 155.1508675  39.7003673
  86.1462614 153.6907401  39.2721285  85.3094523 153.2629575  39.0905286
  86.1186260 153.8839844  40.2092076  92.9860070 143.6029331  49.9762531
  93.0348225 144.4791454  49.5940300  93.5282584 143.0606724  49.4034174
 103.4714916 154.1470454  49.2563668 102.6810459 154.1294593  48.7168167
 103.2348270 154.6858748  50.0112704 103.5912791 150.9962920  46.5696396
 103.6410796 150.8312928  47.5111919 103.4826714 150.1290179  46.1794277
  92.4749049 153.6751466  33.8588485  92.6237170 154.3586930  33.2055158
  93.2815493 153.6556556  34.3737941 100.8816553 146.9793848  47.8855703
 101.7826416 146.8400313  47.5939701 100.9564528 147.1448303  48.8253881
  95.2159358 144.3560703  46.7308889  94.3462668 144.6494269  46.4591478
  95.4518839 144.9401148  47.4516153 105.0930988 153.4159862  46.8138418
 104.8015796 153.7789842  47.6501879 104.4803119 152.7026870  46.6351750
 106.2926670 150.9812742  39.3340988 107.1273561 151.4202546  39.4978549
 106.4285799 150.5051395  38.5149234 103.3418176 148.5392477  45.2818476
 103.8172297 148.7320123  44.4737327 102.4183741 148.5951662  45.0361860
  90.2301682 149.7016644  34.8649554  89.9847724 148.7978974  35.0629764
  90.3997597 149.7033794  33.9229032  97.9198392 140.5740320  44.2474310
  98.4380336 141.3101347  43.9220798  97.5653525 140.8804313  45.0821069
  89.4997330 145.4345001  32.3635716  88.8066575 145.5089356  31.7075752
  89.2549082 144.6705345  32.8857233  98.1710986 136.9940603  39.7675206
  98.4512740 136.3263792  40.3935633  98.9561593 137.1869698  39.2549870
 102.0419845 145.4158237  43.5146782 102.9937268 145.5156334  43.5359006
 101.8723295 144.6236505  44.0244866 100.0634224 142.5013820  43.7006182
  99.4684156 142.7818833  43.0052671  99.7783921 142.9907721  44.4722924
 104.5207923 148.6364356  42.6289081 104.4884243 147.6980357  42.8148765
 105.1308546 148.7148393  41.8954906  96.3591253 147.5060409  28.6716285
  97.3050358 147.3766617  28.7404703  95.9805498 146.7675071  29.1485713
 104.6702411 145.4275400  42.6747364 104.1541460 144.6433856  42.4877293
 105.5542360 145.0994116  42.8393884 102.3313138 139.1716415  38.6343177
 102.1337959 138.8631504  39.5186509 102.9412844 139.8978054  38.7641107
 110.3384472 149.6980363  41.7695118 111.0687861 149.4365651  42.3302821
 109.7291418 148.9609085  41.8097186 108.4199770 147.8388226  42.3669569
 107.6932933 147.7044191  41.7586061 108.0047056 148.1465054  43.1726287
  96.2429946 151.5578155  50.1316942  97.1632955 151.7356754  50.3256989
  96.2079529 150.6134201  49.9796641  94.5434171 145.4310386  28.6071170
  93.6365626 145.1343498  28.6833884  94.8210152 145.1340204  27.7405457
  85.4612111 146.7516749  39.0570217  85.1414895 145.8982057  38.7644591
  84.9145539 146.9665327  39.8128184  89.2392019 149.4679190  42.7739723
  89.4578028 150.3996298  42.7927757  89.6517792 149.1087164  43.5594527
  96.1596236 139.9747275  34.7615412  95.3496965 139.6294360  35.1370658
  96.8480653 139.6654819  35.3503023  98.0886785 139.0525322  36.3839708
  98.6417823 139.4720776  37.0429731  98.3256871 138.1261070  36.4262664
  94.1119884 145.0412396  52.1642472  94.0116611 145.9906753  52.0954563
  93.8941426 144.7130635  51.2918542  93.3132955 142.2897321  28.7483150
  94.1752119 142.6152219  29.0078967  93.4983299 141.5028817  28.2356215
  85.3300371 150.3719661  41.0263338  84.6363842 149.9573613  40.5133293
  86.0773362 150.4140197  40.4296757 101.4665592 141.1625847  35.8918373
 100.8864261 141.8210651  35.5096425 101.2001524 140.3403192  35.4805790
  99.9169158 140.5630905  38.0939693 100.4168936 140.6747440  37.2854012
 100.5604766 140.2591958  38.7340501  93.9751154 148.4709535  50.9807534
  93.4918236 149.2709895  51.1871423  94.0612093 148.4817480  50.0274978
  87.2437114 150.3037914  38.9029353  87.2207802 150.4025602  37.9511236
  87.5537750 151.1503065  39.2246519  89.9024491 152.3614069  43.0175968
  90.8567745 152.3298012  42.9505899  89.7037015 151.9004693  43.8326194
  90.4923874 150.9315185  45.5846765  91.3116763 151.4259264  45.6081603
  90.7660681 150.0147154  45.5564333 100.2490470 143.3225938  34.9474721
  99.3616325 143.6075588  34.7294916 100.6644459 143.1619701  34.1001998
 103.6005006 143.3472459  38.6629060 104.3765396 143.8368911  38.9353677
 102.8753140 143.7730513  39.1200930 106.0377564 144.0600078  39.7203001
 106.6322055 143.8195814  39.0096309 106.1104148 143.3407209  40.3476537
  88.2574720 157.9033689  40.0346166  88.1229188 157.1434090  39.4684164
  87.8406782 158.6274589  39.5674954 100.2231493 148.8380474  35.1625011
 100.1666695 149.2949025  34.3232643 100.7759836 148.0771158  34.9847854
 104.0336299 144.6270206  35.9875131 103.7773234 144.2266841  36.8183338
 103.4089167 145.3413999  35.8625270 108.3448637 147.3666279  38.4946422
 107.7848195 147.4359468  39.2677984 107.7392141 147.1907263  37.7745918
  91.4143846 158.8003006  40.2464608  91.2976230 159.7448438  40.1443299
  90.5936292 158.4976567  40.6350407 100.9566273 150.0285255  32.4577540
 100.9015077 149.8629526  31.5165984 100.3312328 150.7361288  32.6139730
  85.7458788 145.2653319  46.2838962  86.3917651 144.7552273  46.7726188
  85.5375939 146.0022001  46.8582388  98.2712180 152.3334167  51.7831103
  99.1403340 152.5074819  51.4217738  97.7918931 153.1528584  51.6606832
  94.2662398 139.5293364  32.0362859  94.2541068 140.4735204  32.1931130
  95.1585820 139.3463509  31.7422320  92.4398360 159.4531268  43.4620537
  93.3425607 159.4854878  43.7787032  92.2135730 158.5231719  43.4766872
  94.1951962 158.2062254  40.1230615  93.2447593 158.2064116  40.0094988
  94.4984448 157.4594989  39.6066650  98.0814518 136.1236141  36.2908795
  97.3146913 135.5694627  36.4365478  98.4925223 136.1958009  37.1522947
  90.0856279 142.4120936  50.3813977  90.9487740 142.0557741  50.5917301
  89.5121689 142.0734831  51.0689381 107.2214145 165.1485073  47.0824108
 107.2102786 164.7537871  46.2104612 107.3834784 164.4151145  47.6757879
 103.9421406 167.9322184  46.0303292 103.6511272 168.8367815  45.9149958
 104.5778390 167.9738712  46.7447361 112.4079772 155.4171054  43.6257173
 112.0763096 156.2866465  43.4018388 111.8125385 155.1007338  44.3051203
  99.7132584 163.7130670  39.8933579  99.8424965 163.9665149  40.8072991
  99.0330035 164.3058378  39.5738234 106.3749301 161.5555786  48.6485420
 105.5982635 162.1149706  48.6388285 107.0139864 162.0412569  49.1700290
 114.1670081 158.3382578  42.4828397 113.5244462 158.6315112  41.8368191
 113.6625010 158.2235499  43.2881593 104.6295673 164.3641239  48.2103387
 105.3710357 164.9026283  47.9338211 103.9232659 164.9907528  48.3674939
 110.1051013 166.5070379  46.8075549 110.5134369 166.0652790  46.0630181
 109.3828274 165.9323007  47.0609742 106.4582083 161.4442986  44.1809106
 107.3043278 161.8682400  44.3243755 106.3980720 160.7876611  44.8747669
 109.6081528 159.1047355  45.8390279 109.3642460 159.8589415  45.3024555
 109.8841459 159.4832702  46.6737526 109.1646220 158.2603788  41.4204117
 108.3030699 158.5585041  41.7120855 109.1908654 158.4774187  40.4885150
 103.3657037 161.5180887  49.0118697 102.7355697 162.1997168  49.2454094
 103.2593125 161.4063969  48.0671835  98.6602009 161.1852683  39.9384621
  97.8701063 161.4410212  39.4624732  99.1513257 162.0001021  40.0436662
 106.4422422 168.0741966  44.8450613 106.5066855 168.5362373  45.6808785
 105.7333346 167.4439331  44.9732923  96.9439712 161.4383174  42.3699612
  97.1947751 162.3230184  42.6357188  97.4799261 161.2587775  41.5974704
 102.6437780 155.8201653  51.3743948 102.2504725 155.2667852  52.0491592
 103.4603920 156.1312232  51.7650466 105.5605741 157.2359532  48.9664205
 106.3015454 157.8366685  48.8868667 105.7923663 156.4937170  48.4082247
 100.7047079 162.4215899  47.2442434 100.5900594 161.5201157  47.5449533
  99.8491596 162.6679596  46.8927251 107.7838916 170.3633640  48.8429935
 107.3402770 169.5770018  48.5250840 108.4456130 170.5512790  48.1773826
 106.3393209 168.1580569  47.7134845 106.8721545 167.3968857  47.4834153
 105.8107290 167.8654221  48.4558999 109.5062903 153.2640635  43.2428486
 109.1627173 154.1542277  43.1667597 109.8741866 153.0742293  42.3798071
 108.5859444 155.6345290  41.2077720 108.0824239 155.5975425  40.3945525
 108.8790051 156.5438033  41.2674376 104.8302330 155.7184020  40.2143901
 105.6955327 155.5226829  39.8549791 104.8979839 155.4894372  41.1413258
 102.4364649 157.9486228  37.5860268 103.0108401 157.7261409  36.8533461
 103.0235631 158.0174922  38.3388870 104.7387317 154.8227477  36.3135338
 104.0851729 154.5076494  35.6891952 104.6967791 154.2003217  37.0395161
 111.3050569 152.5234194  38.3446224 111.6109446 151.6631558  38.0572139
 112.0303174 153.1151814  38.1445218 109.1138220 161.9006872  45.4427688
 109.4687608 162.1278345  46.3022154 109.7610352 162.2325248  44.8204943
 103.0078084 159.0083403  42.2274029 103.6477463 158.8672162  41.5296992
 102.1755614 158.7217916  41.8512631 101.4831625 160.3921485  44.1745840
 102.1554679 160.1838847  43.5258489 100.6561412 160.1943571  43.7351073
 107.3857197 157.0183426  46.1911501 106.7385112 157.7173375  46.0975978
 108.1558213 157.4519570  46.5587749 110.7935995 167.2832278  49.2662055
 110.6421502 167.0542830  48.3492138 110.7840675 168.2402879  49.2793400
 107.5621332 164.8564191  44.2508321 108.4913392 165.0075350  44.0777288
 107.1412362 164.9448211  43.3956967 101.8859123 163.6664088  44.9348278
 101.7478920 162.9344327  45.5359817 102.7964046 163.5772988  44.6532465
 104.5141423 163.3784047  44.4231957 105.2241042 162.7377239  44.3818576
 104.4710731 163.6296942  45.3458138 103.2270357 160.3649265  46.2427597
 102.6907714 159.9140003  46.8949193 102.6387066 160.4995174  45.4998061
  94.1574756 164.6115076  38.8995567  94.8445796 164.2976806  38.3116583
  94.0022885 165.5156441  38.6262819  98.9609478 159.5005273  43.3280591
  98.8767667 158.8930942  42.5931001  98.1392185 159.9914291  43.3290087
 103.5457360 170.5873714  45.5177489 104.2466819 171.2210197  45.6706883
 103.0752475 170.9288446  44.7573128 111.5752187 154.9528430  40.8430145
 110.6615267 155.1832656  41.0112352 112.0045289 155.0366874  41.6944177
 107.3946219 163.8838133  49.8296076 106.7186856 163.7832262  50.4998451
 108.2173852 163.7277346  50.2932073  99.1425078 170.1210069  42.4508591
  99.7278514 169.3753757  42.5836496  98.9449916 170.4314026  43.3345255
  93.7342732 162.6915669  41.1713035  93.7726832 162.1579260  41.9650153
  93.2283025 162.1650875  40.5524012 101.1133495 157.5380210  44.6675577
 101.1774821 158.3995041  44.2552975 101.0500615 156.9254212  43.9347935
 100.5885767 159.6103342  48.3148611 101.2157806 159.2280420  48.9286135
  99.7313686 159.3917544  48.6804304 100.8945557 159.4935768  40.2294515
 100.1732143 160.1071736  40.0901988 101.6838813 160.0293533  40.1511161
 103.6971871 156.8290195  46.5035166 104.2206272 157.0752491  47.2661476
 103.4784204 157.6610229  46.0838304 104.9024416 157.7703890  44.1884837
 104.5621236 156.9711703  44.5905517 104.1963422 158.0705601  43.6161670
 105.5540887 154.8553202  42.6412160 106.3766957 154.3813680  42.5191050
 105.7978951 155.6343686  43.1410846 103.0779466 161.5472323  40.4504138
 102.9324047 161.8612626  41.3428420 102.6004670 162.1657223  39.8975037
 104.9375849 158.5374871  40.4985028 104.9237418 157.6415964  40.1617326
 105.6548277 158.5445535  41.1323314 106.7901980 158.9712211  42.5438155
 106.5319758 159.8929282  42.5422486 106.2587020 158.5742646  43.2338620
  97.5525128 164.0877667  43.3891800  97.0078596 164.8637475  43.5212074
  98.4304478 164.4348472  43.2310921 107.2103935 155.1044162  38.9039318
 107.2325632 155.1683495  37.9491298 107.6271994 154.2648670  39.0979824
  98.3391150 163.2147563  46.2821957  97.5972886 163.3630199  46.8686587
  98.0183894 163.4755829  45.4188706 103.8253824 158.9321248  49.9762531
 103.8741980 159.8083371  49.5940300 104.3676339 158.3898642  49.4034174
 114.4306545 166.3254838  46.5696396 114.4804550 166.1604846  47.5111919
 114.3220469 165.4582097  46.1794277 111.7210308 162.3085766  47.8855703
 112.6220170 162.1692231  47.5939701 111.7958282 162.4740221  48.8253881
 106.0553113 159.6852621  46.7308889 105.1856422 159.9786187  46.4591478
 106.2912593 160.2693066  47.4516153 108.7592147 155.9032238  44.2474310
 109.2774091 156.6393265  43.9220798 108.4047280 156.2096231  45.0821069
 109.0104741 152.3232520  39.7675206 109.2906495 151.6555709  40.3935633
 109.7955348 152.5161616  39.2549870 112.8813599 160.7450154  43.5146782
 113.8331022 160.8448252  43.5359006 112.7117050 159.9528423  44.0244866
 110.9027979 157.8305738  43.7006182 110.3077911 158.1110750  43.0052671
 110.6177675 158.3199638  44.4722924 107.0823700 166.8870073  50.1316942
 108.0026710 167.0648672  50.3256989 107.0473284 165.9426118  49.9796641
  96.3005865 162.0808667  39.0570217  95.9808650 161.2273975  38.7644591
  95.7539294 162.2957245  39.8128184 100.0785773 164.7971108  42.7739723
 100.2971783 165.7288216  42.7927757 100.4911547 164.4379082  43.5594527
 104.9513638 160.3704314  52.1642472 104.8510365 161.3198670  52.0954563
 104.7335180 160.0422552  51.2918542  96.1694125 165.7011578  41.0263338
  95.4757597 165.2865531  40.5133293  96.9167116 165.7432115  40.4296757
 104.8144908 163.8001452  50.9807534 104.3311990 164.6001812  51.1871423
 104.9005847 163.8109397  50.0274978 100.7418246 167.6905987  43.0175968
 101.6961499 167.6589929  42.9505899 100.5430769 167.2296611  43.8326194
 101.3317628 166.2607103  45.5846765 102.1510517 166.7551182  45.6081603
 101.6054436 165.3439071  45.5564333  96.5852542 160.5945237  46.2838962
  97.2311406 160.0844191  46.7726188  96.3769693 161.3313919  46.8582388
 109.1105934 167.6626084  51.7831103 109.9797094 167.8366737  51.4217738
 108.6312686 168.4820501  51.6606832 108.9208272 151.4528058  36.2908795
 108.1540668 150.8986545  36.4365478 109.3318977 151.5249927  37.1522947
 100.9250033 157.7412854  50.3813977 101.7881495 157.3849659  50.5917301
 100.3515444 157.4026749  51.0689381  31.3457865  34.8503771  33.8069415
  31.3346506  34.4556570  32.9349918  31.5078504  34.1169844  34.4003186
  28.0665126  37.6340883  32.7548599  27.7754992  38.5386514  32.6395265
  28.7022110  37.6757411  33.4692668  33.0255011  37.3202299  29.7498392
  32.7255734  38.2227338  29.6414199  32.6806071  37.0534482  30.6019545
  30.4993021  31.2574485  35.3730727  29.7226355  31.8168405  35.3633591
  31.1383584  31.7431267  35.8945597  28.7539393  34.0659938  34.9348694
  29.4954077  34.6044982  34.6583517  28.0476378  34.6926227  35.0920246
  34.2294733  36.2089078  33.5320855  34.6378089  35.7671489  32.7875488
  33.5071994  35.6341706  33.7855048  30.5825803  31.1461685  30.9054412
  31.4286998  31.5701099  31.0489061  30.5224440  30.4895309  31.5992975
  34.5523547  36.7690269  27.2873144  33.9232410  36.9335983  26.5849212
  34.1649209  37.1831879  28.0584108  38.4312779  37.7044707  24.6417508
  37.7463817  38.0843608  24.0914541  38.5156628  38.3140033  25.3749456
  33.7325248  28.8066053  32.5635586  33.4886180  29.5608114  32.0269862
  34.0085178  29.1851401  33.3982833  35.6863711  35.3504666  31.2412851
  35.8980606  35.9936426  30.5647233  35.6393459  34.5166982  30.7734782
  27.4900757  31.2199586  35.7364004  26.8599417  31.9015867  35.9699401
  27.3836845  31.1082668  34.7917142  36.8009539  38.2276621  29.4135209
  37.6226982  37.8256809  29.1317890  36.7971941  38.1244855  30.3651325
  30.5666142  37.7760665  31.5695919  30.6310575  38.2381072  32.4054091
  29.8577066  37.1458029  31.6978229  44.8915532  34.5715370  25.7620180
  44.1379240  34.0022768  25.6064185  45.0263073  34.5378034  26.7090815
  26.7681499  25.5220352  38.0989255  26.3748445  24.9686550  38.7736899
  27.5847640  25.8330930  38.4895772  29.6849460  26.9378231  35.6909511
  30.4259174  27.5385384  35.6113974  29.9167383  26.1955869  35.1327554
  24.8290798  32.1234598  33.9687741  24.7144313  31.2219855  34.2694840
  23.9735316  32.3698295  33.6172558  31.9082636  40.0652339  35.5675242
  31.4646490  39.2788717  35.2496146  32.5699850  40.2531489  34.9019133
  26.6669757  41.5948140  30.0935920  27.2177182  41.4665204  29.3212914
  25.8281233  41.8943029  29.7430813  34.0063874  40.3455138  33.5956643
  33.9882350  41.1664020  33.1036912  34.9283794  40.2209214  33.8206784
  30.4636928  37.8599268  34.4380151  30.9965265  37.0987556  34.2079459
  29.9351009  37.5672920  35.1804306  36.8082487  35.1834281  27.0666010
  36.1506161  35.8733542  27.1546138  37.6122886  35.5730713  27.4099996
  34.8282681  40.3561152  24.1798912  35.1205656  40.9166209  23.4611278
  35.3381302  40.6489713  24.9352071  33.2381940  31.6025570  32.1672995
  33.5931328  31.8297044  33.0267460  33.8854072  31.9343947  31.5450250
  38.9949057  36.7920533  27.8833595  39.4285563  36.6995822  28.7316649
  39.7080638  36.7678034  27.2453611  32.7276952  40.3922627  29.4166696
  32.7813974  40.9613564  30.1844412  31.8591733  40.5624512  29.0520733
  39.8564606  36.8344234  30.4166481  40.0500496  37.7390044  30.6625755
  39.7565225  36.3751653  31.2505066  31.5100917  26.7202125  32.9156808
  30.8628832  27.4192074  32.8221284  32.2801933  27.1538268  33.2833056
  34.9179715  36.9850977  35.9907361  34.7665221  36.7561528  35.0737445
  34.9084395  37.9421578  36.0038706  31.6865051  34.5582889  30.9753628
  32.6157111  34.7094049  30.8022595  31.2656081  34.6466910  30.1202274
  30.4853383  38.5833554  28.7452165  30.3464469  38.2152338  29.6178103
  29.6967979  39.0981193  28.5736123  26.0102842  33.3682787  31.6593584
  25.8722640  32.6363025  32.2605123  26.9207766  33.2791687  31.3777772
  28.6385143  33.0802746  31.1477264  29.3484762  32.4395938  31.1063882
  28.5954451  33.3315641  32.0703445  36.6271922  40.0170099  34.0683843
  36.5684468  39.3329319  33.4014426  37.0291440  40.7589089  33.6164469
  25.6462621  46.8332013  26.8617562  25.8859219  47.4650537  27.5396580
  24.8031817  46.4820053  27.1482921  36.6289329  37.9809683  32.2997823
  35.7416108  37.6435605  32.4224222  37.1987880  37.2492714  32.5366588
  30.1590482  42.6411136  29.2659066  30.0860654  43.4466107  29.7778370
  29.7167875  42.8403101  28.4407087  41.1106670  33.3917901  27.0614384
  41.0996546  34.2742616  26.6908317  40.2424049  33.0389451  26.8668921
  32.6189166  42.5397970  31.4217225  33.3317138  43.1745434  31.3493126
  32.1279195  42.6361836  30.6057226  27.6701079  40.2892413  32.2422795
  28.3710539  40.9228896  32.3952190  27.1996194  40.6307145  31.4818435
  35.4702365  32.8437020  30.0675346  34.8173816  33.0912928  29.4127799
  35.8482745  32.0301159  29.7337823  32.4309539  42.8796714  24.1703516
  32.6131934  42.0618370  24.6331268  33.2542525  43.0964406  23.7328406
  31.5189938  33.5856832  36.5541383  30.8430575  33.4850961  37.2243758
  32.3417572  33.4296045  37.0177380  23.2668797  39.8228768  29.1753898
  23.8522234  39.0772456  29.3081802  23.0693636  40.1332725  30.0590562
  30.2612721  44.8923759  30.7898999  30.8131029  45.0555380  31.5548084
  30.6018915  45.4828197  30.1179024  24.7129487  29.3122041  35.0393918
  25.3401526  28.9299119  35.6531442  23.8557406  29.0936243  35.4049610
  35.1123596  39.7185016  36.6447653  35.6563500  40.3314975  36.1502608
  34.5310440  40.2764595  37.1614666  33.3981109  42.8405735  27.7762681
  33.2732248  42.0395474  27.2673626  34.0560200  43.3351928  27.2876651
  35.4616017  40.6414755  29.4042231  34.5146352  40.5220106  29.3320558
  35.8098790  39.7537253  29.4868493  32.4662450  40.4367471  25.6046583
  32.3187413  39.5084178  25.7854153  33.2915944  40.4587562  25.1203659
  36.0696572  41.2596030  26.6911456  36.9943120  41.0538891  26.5535907
  35.9011875  41.0112431  27.6000798  30.4078533  42.4582241  32.8047653
  30.7165659  42.2131387  33.6770353  31.2054015  42.6628879  32.3166523
  30.4299145  44.6120150  25.0353030  29.9904135  44.1196529  25.7285886
  31.1807262  44.0693118  24.7945105  27.9497544  28.6339947  36.7007837
  27.9985700  29.5102070  36.3185607  28.4920059  28.0917340  36.1279481
  38.4352390  39.1781071  35.9808975  37.6447934  39.1605209  35.4413474
  38.1985745  39.7169364  36.7358011  38.5550265  36.0273537  33.2941703
  38.6048270  35.8623544  34.2357226  38.4464188  35.1600796  32.9039584
  35.8454027  32.0104465  34.6101010  36.7463890  31.8710930  34.3185008
  35.9202002  32.1758920  35.5499187  30.1796833  29.3871320  33.4554196
  29.3100142  29.6804886  33.1836785  30.4156313  29.9711765  34.1761460
  40.0568462  38.4470478  33.5383725  39.7653270  38.8100459  34.3747186
  39.4440593  37.7337487  33.3597057  41.2564144  36.0123358  26.0586295
  42.0911036  36.4513162  26.2223855  41.3923273  35.5362011  25.2394541
  38.3055650  33.5703093  32.0063783  38.7809772  33.7630739  31.1982634
  37.3821215  33.6262279  31.7607166  37.0057319  30.4468853  30.2392088
  37.9574742  30.5466951  30.2604312  36.8360770  29.6547122  30.7490173
  39.4845397  33.6674973  29.3534388  39.4521717  32.7290974  29.5394072
  40.0946021  33.7459010  28.6200213  39.6339885  30.4586016  29.3992671
  39.1178934  29.6744473  29.2122600  40.5179834  30.1304733  29.5639190
  45.3021947  34.7290980  28.4940425  46.0325335  34.4676268  29.0548128
  44.6928892  33.9919702  28.5342493  43.3837244  32.8698842  29.0914876
  42.6570407  32.7354807  28.4831367  42.9684531  33.1775671  29.8971594
  31.2067420  36.5888772  36.8562249  32.1270430  36.7667371  37.0502295
  31.1717003  35.6444817  36.7041948  29.0757358  30.0723012  38.8887779
  28.9754085  31.0217369  38.8199870  28.8578900  29.7441251  38.0163849
  28.9388628  33.5020151  37.7052841  28.4555710  34.3020511  37.9116730
  29.0249567  33.5128096  36.7520285  24.8661966  37.3924686  29.7421274
  25.8205219  37.3608628  29.6751206  24.6674489  36.9315310  30.5571500
  25.4561348  35.9625802  32.3092072  26.2754237  36.4569881  32.3326909
  25.7298156  35.0457770  32.2809640  26.3781320  43.8313622  26.9709915
  26.2613705  44.7759055  26.8688605  25.5573767  43.5287184  27.3595714
  33.2349654  37.3644783  38.5076410  34.1040814  37.5385436  38.1463045
  32.7556406  38.1839200  38.3852139  27.4035834  44.4841884  30.1865843
  28.3063081  44.5165495  30.5032338  27.1773205  43.5542335  30.2012179
  29.1589437  43.2372871  26.8475922  28.2085068  43.2374732  26.7340294
  29.4621923  42.4905605  26.3311957  25.0493753  27.4431553  37.1059283
  25.9125215  27.0868358  37.3162608  24.4759164  27.1045448  37.7934688
  44.8942130  49.0733409  27.9121684  45.5320540  48.9540157  27.2085024
  44.7762973  50.0214253  27.9709636  41.7031836  49.0260837  27.8483209
  41.3650348  48.9101902  26.9603744  42.5721604  48.6252002  27.8284215
  37.5618652  50.8796314  23.8380100  36.9983517  50.7886251  23.0696388
  37.4471047  50.0596218  24.3182593  42.1851619  50.1795689  33.8069415
  42.1740260  49.7848487  32.9349918  42.3472259  49.4461762  34.4003186
  35.1083084  52.3747505  26.6764320  35.9004376  52.0338330  26.2610620
  35.3479734  52.4842480  27.5966474  43.1418211  54.5467281  19.1494565
  42.4906190  55.1321362  18.7628579  43.9362573  55.0773476  19.2089602
  37.0673838  51.6356419  19.5481699  37.8404714  51.0885406  19.4094575
  37.4199237  52.5000668  19.7596161  38.9058880  52.9632801  32.7548599
  38.6148746  53.8678432  32.6395265  39.5415865  53.0049329  33.4692668
  39.8315087  50.3409649  29.3449958  40.4278660  50.1165672  28.6306921
  39.8890059  49.5994395  29.9475406  44.4483398  46.7984863  24.9874892
  45.2346488  46.3804286  24.6365309  44.7122103  47.7030955  25.1556541
  44.6193476  52.2357713  19.6863549  43.9839309  52.3092340  20.3984454
  44.2890882  52.8251312  19.0082628  49.8491826  46.7360096  25.8907871
  50.5816998  46.1659313  26.1245700  49.0931181  46.3481697  26.3314376
  39.1236404  49.6977191  19.3824524  39.0072662  49.0222094  20.0505608
  39.2338664  49.2109565  18.5656677  41.4667945  49.1587338  23.0871213
  41.1026153  48.6317959  23.7984135  42.3235061  48.7685807  22.9137699
  47.3717246  40.4481670  30.3502479  47.0400571  41.3177081  30.1263694
  46.7762859  40.1317954  31.0296510  43.8648765  52.6494216  29.7498392
  43.5649489  53.5519255  29.6414199  43.5199825  52.3826400  30.6019545
  37.3161247  49.1008013  25.7835097  36.3911743  48.9684227  25.9912788
  37.5645660  49.8802232  26.2805039  47.2645909  45.1676757  27.4295830
  46.3562787  45.0992165  27.1354591  47.2133505  45.6448702  28.2577655
  41.0862653  46.6434895  19.0679229  40.9662278  47.0891946  19.9064709
  40.3915242  46.9920213  18.5092767  34.6770058  48.7441287  26.6178886
  34.8062439  48.9975766  27.5318297  33.9967509  49.3368995  26.2983541
  38.8469545  59.4138537  22.7169360  38.7693575  60.3646362  22.7957840
  38.2431189  59.0684409  23.3744286  41.3386775  46.5866402  35.3730727
  40.5620109  47.1460322  35.3633591  41.9777338  47.0723185  35.8945597
  49.1307556  43.3693195  29.2073703  48.4881936  43.6625728  28.5613498
  48.6262484  43.2546115  30.0126900  46.7847719  47.1156368  19.8959563
  47.6965575  47.3483755  19.7207260  46.2757366  47.6993412  19.3334641
  39.5933147  49.3951856  34.9348694  40.3347832  49.9336900  34.6583517
  38.8870133  50.0218144  35.0920246  45.0688487  51.5380996  33.5320855
  45.4771843  51.0963407  32.7875488  44.3465749  50.9633624  33.7855048
  41.4219557  46.4753603  30.9054412  42.2680752  46.8993016  31.0489061
  41.3618195  45.8187227  31.5992975  45.3917302  52.0982187  27.2873144
  44.7626164  52.2627901  26.5849212  45.0042964  52.5123796  28.0584108
  49.2706534  53.0336624  24.6417508  48.5857572  53.4135526  24.0914541
  49.3550383  53.6431951  25.3749456  44.5719002  44.1357971  32.5635586
  44.3279934  44.8900032  32.0269862  44.8478933  44.5143319  33.3982833
  46.5257465  50.6796584  31.2412851  46.7374360  51.3228343  30.5647233
  46.4787213  49.8458900  30.7734782  44.1283694  43.2914404  28.1449424
  43.2668173  43.5895658  28.4366161  44.1546129  43.5084803  27.2130456
  40.9445264  51.8356595  24.5523229  41.4083609  52.1144298  23.7627852
  40.6802062  50.9340039  24.3696320  37.8369345  51.3828076  27.4902993
  38.4070702  51.8115345  26.8520477  38.4277456  51.1010661  28.1887178
  39.8814150  47.9579747  21.3612794  40.5838193  48.4100791  21.8286721
  39.5494778  47.3163566  21.9892688  38.3294511  46.5491504  35.7364004
  37.6993172  47.2307785  35.9699401  38.2230599  46.4374585  34.7917142
  33.6239484  46.2163300  26.6629928  32.8338538  46.4720828  26.1870039
  34.1150731  47.0311638  26.7681969  47.6403293  53.5568539  29.4135209
  48.4620737  53.1548726  29.1317890  47.6365696  53.4536773  30.3651325
  35.5754229  46.5807879  23.6213405  34.7785392  46.6926573  24.1396900
  35.3479821  46.9194531  22.7554295  41.4059897  53.1052582  31.5695919
  41.4704329  53.5672989  32.4054091  40.6970820  52.4749947  31.6978229
  31.9077187  46.4693790  29.0944919  32.1585225  47.3540800  29.3602495
  32.4436735  46.2898392  28.3220011  55.7309286  49.9007287  25.7620180
  54.9772995  49.3314685  25.6064185  55.8656827  49.8669952  26.7090815
  41.1207914  54.7720690  21.4374900  40.9853589  55.6172225  21.8659747
  41.6617727  54.9739967  20.6740833  37.6075254  40.8512270  38.0989255
  37.2142199  40.2978468  38.7736899  38.4241394  41.1622848  38.4895772
  34.5737312  52.2896128  22.0102825  35.0861832  53.0839378  22.1608389
  35.2260024  51.5922418  21.9436426  36.3832196  55.4061884  24.0925578
  36.5598825  56.3279849  23.9046562  37.1789030  55.0920303  24.5219958
  40.5243215  42.2670149  35.6909511  41.2652928  42.8677302  35.6113974
  40.7561138  41.5247786  35.1327554  35.6684553  47.4526516  33.9687741
  35.5538068  46.5511773  34.2694840  34.8129071  47.6990213  33.6172558
  42.7476391  55.3944256  35.5675242  42.3040245  54.6080635  35.2496146
  43.4093604  55.5823407  34.9019133  37.5063512  56.9240058  30.0935920
  38.0570937  56.7957121  29.3212914  36.6674988  57.2234947  29.7430813
  44.8457629  55.6747056  33.5956643  44.8276104  56.4955937  33.1036912
  45.7677549  55.5501131  33.8206784  41.3030683  53.1891186  34.4380151
  41.8359020  52.4279474  34.2079459  40.7744764  52.8964837  35.1804306
  44.4700378  38.2951252  29.9673793  44.1264647  39.1852893  29.8912904
  44.8379340  38.1052909  29.1043378  32.5386228  50.6184782  22.7862395
  33.3761450  51.0281790  22.5696103  32.7164496  49.6784224  22.7562589
  44.4350660  48.2859863  18.4746228  43.9197284  49.0564467  18.7134616
  44.1627969  47.6124999  19.0979290  42.0197772  43.1309563  23.5331467
  41.1639368  42.7416414  23.3537105  42.4324723  43.2101524  22.6731252
  43.5496918  40.6655907  27.9323026  43.0461714  40.6286042  27.1190832
  43.8427525  41.5748649  27.9919683  39.7939804  40.7494636  26.9389208
  40.6592801  40.5537445  26.5795098  39.8617313  40.5204988  27.8658565
  49.4084935  51.0392217  20.4099402  48.6314377  50.7003377  19.9654564
  50.0876416  51.0444841  19.7354367  44.2236964  46.1586955  20.3006009
  43.9187099  46.4733104  21.1516153  45.1767406  46.2368375  20.3433342
  42.6683396  52.3177178  21.9498963  42.1404757  51.5829938  21.6372201
  42.1670898  53.0951854  21.7038932  47.6476242  50.5126199  27.0666010
  46.9899916  51.2025460  27.1546138  48.4516641  50.9022631  27.4099996
  37.4002123  42.9796844  24.3105575  37.9745875  42.7572026  23.5778768
  37.9873106  43.0485539  25.0634176  46.4581700  48.8670571  25.1169951
  46.9713582  49.5000563  25.6191661  47.1082924  48.2671767  24.7513311
  39.7024791  39.8538093  23.0380644  39.0489203  39.5387110  22.4137259
  39.6605265  39.2313834  23.7640467  43.7204075  58.8454896  17.8730623
  43.0465773  59.1486592  18.4815580  44.1069897  59.6483976  17.5236080
  42.9362531  46.3420027  27.3628292  42.0185093  46.5634974  27.2049980
  43.3522675  46.4166337  26.5039999  43.7197579  47.7411443  22.4930972
  44.4669398  48.2532840  22.1838094  43.9889169  47.4195495  23.3535366
  41.9924229  50.2369983  19.4757927  41.0835448  49.9529016  19.5730396
  42.0219313  50.6569062  18.6161233  47.2243497  53.8476573  23.2449094
  46.7705824  53.0067483  23.3014285  46.5937463  54.4837971  23.5823874
  46.1676416  44.7768559  24.4749762  45.4299173  44.2645945  24.8060004
  46.4203190  44.3368940  23.6633038  45.6676436  55.6853069  24.1798912
  45.9599410  56.2458127  23.4611278  46.1775056  55.9781630  24.9352071
  46.2688043  37.5544811  25.0691531  46.5746920  36.6942174  24.7817446
  46.9940648  38.1462431  24.8690525  32.5612400  47.9575497  23.4573129
  32.3636799  47.3644858  22.7324195  32.0059064  47.6527708  24.1749068
  40.5409123  47.8498604  25.5767722  40.5957733  46.8972440  25.5010198
  39.7300325  48.0058043  26.0609020  41.6900317  51.7778727  16.8146005
  41.2519747  51.0614586  16.3551642  42.4310758  52.0054842  16.2531096
  38.4801483  46.4675664  23.3358101  37.6669349  46.7669834  23.7423293
  38.9760477  46.0731352  24.0532583  40.6310061  56.4633421  25.2692365
  40.5886240  56.6894267  24.3400897  41.5472760  56.2296795  25.4178167
  44.0775695  46.9317488  32.1672995  44.4325082  47.1588961  33.0267460
  44.7247826  47.2635865  31.5450250  49.8073432  50.0535924  22.8722324
  49.6691330  50.2437520  21.9443513  49.4509651  50.8155307  23.3290375
  37.9715558  44.0394019  28.9519336  38.6114937  43.8982778  28.2542299
  37.1393088  43.7528533  28.5757938  49.8342811  52.1212451  27.8833595
  50.2679318  52.0287740  28.7316649  50.5474392  52.0969951  27.2453611
  38.7475862  53.3396450  25.0654328  39.5416460  52.8446770  24.8636903
  38.0367554  52.8114313  24.7022034  43.5670706  55.7214545  29.4166696
  43.6207729  56.2905481  30.1844412  42.6985488  55.8916430  29.0520733
  35.0558625  47.4839531  21.1414081  34.1256213  47.4223987  21.3584043
  35.1516097  46.9615484  20.3450722  34.9744174  44.0094344  23.7292322
  35.2350992  44.9239677  23.6201483  35.7961347  43.5418787  23.8788935
  36.4469100  45.4232101  30.8991147  37.1192153  45.2149463  30.2503796
  35.6198886  45.2254187  30.4596379  50.6958361  52.1636152  30.4166481
  50.8894251  53.0681962  30.6625755  50.5958979  51.7043571  31.2505066
  42.3494672  42.0494042  32.9156808  41.7022587  42.7483992  32.8221284
  43.1195687  42.4830186  33.2833056  45.7573470  52.3142894  35.9907361
  45.6058976  52.0853446  35.0737445  45.7478149  53.2713496  36.0038706
  42.5258806  49.8874807  30.9753628  43.4550866  50.0385967  30.8022595
  42.1049836  49.9758828  30.1202274  41.3247138  53.9125472  28.7452165
  41.1858223  53.5444256  29.6178103  40.5361734  54.4273111  28.5736123
  41.9195290  59.0134568  20.0877702  42.0947045  58.5422611  20.9023324
  41.2328078  59.6400334  20.3158962  42.8752353  53.2907074  26.1341003
  42.5402186  53.2507844  27.0298653  42.3756299  52.6251790  25.6611413
  36.8496597  48.6974704  31.6593584  36.7116395  47.9654943  32.2605123
  37.7601520  48.6083604  31.3777772  45.8111545  50.6363109  16.4078063
  45.1940715  49.9109937  16.3111115  45.3428033  51.3972469  16.0645137
  39.4778898  48.4094664  31.1477264  40.1878516  47.7687856  31.1063882
  39.4348206  48.6607558  32.0703445  47.4665676  55.3462017  34.0683843
  47.4078222  54.6621237  33.4014426  47.8685195  56.0881007  33.6164469
  38.1907832  45.3959881  32.9672903  37.6545189  44.9450620  33.6194500
  37.6024540  45.5305790  32.2243368  36.4856375  62.1623931  26.8617562
  36.7252973  62.7942455  27.5396580  35.6425571  61.8111971  27.1482921
  47.4683083  53.3101601  32.2997823  46.5809862  52.9727523  32.4224222
  48.0381635  52.5784632  32.5366588  29.1212231  49.6425693  25.6240874
  29.8083270  49.3287423  25.0361889  28.9660359  50.5467057  25.3508126
  33.9246953  44.5315889  30.0525898  33.8405141  43.9241559  29.3176308
  33.1029659  45.0224907  30.0535394  40.9984237  57.9703053  29.2659066
  40.9254408  58.7758025  29.7778370  40.5561630  58.1695019  28.4407087
  40.7874016  57.2074823  22.7761887  40.0041538  57.7496503  22.8700112
  41.4866762  57.7248803  23.1756129  44.0970667  43.0169453  25.4196093
  44.5939366  42.2639415  25.0997163  43.3257648  43.0533769  24.8539302
  51.9500424  48.7209818  27.0614384  51.9390300  49.6034534  26.6908317
  51.0817803  48.3681369  26.8668921  43.4582920  57.8689887  31.4217225
  44.1710893  58.5037352  31.3493126  42.9672949  57.9653753  30.6057226
  45.1800447  51.7741140  22.9934516  44.2456726  51.8942602  22.8239221
  45.3577116  50.8713607  22.7294526  40.6805635  45.1586836  25.1467777
  40.3103423  44.6057876  25.8348683  41.1764728  44.5544969  24.5942777
  48.5672999  47.6158459  23.5284550  49.0333451  48.4486451  23.4544853
  49.0180499  47.1503441  24.2329809  38.5094834  55.6184331  32.2422795
  39.2104293  56.2520814  32.3952190  38.0389949  55.9599062  31.4818435
  46.6349230  53.9602280  20.5270702  46.9109074  53.8458875  21.4364576
  45.7653728  53.5619765  20.4882876  46.5389661  39.9839046  27.5675452
  45.6252741  40.2143273  27.7357659  46.9682763  40.0677490  28.4189484
  46.3096120  48.1728938  30.0675346  45.6567570  48.4204846  29.4127799
  46.6876500  47.3593076  29.7337823  43.2703294  58.2088631  24.1703516
  43.4525688  57.3910287  24.6331268  44.0936280  58.4256324  23.7328406
  43.6045459  57.1356816  21.4318565  44.1333226  56.6249271  20.8188727
  43.8673679  56.8199347  22.2964098  42.3583693  48.9148749  36.5541383
  41.6824330  48.8142879  37.2243758  43.1811327  48.7587963  37.0177380
  34.1062552  55.1520686  29.1753898  34.6915989  54.4064374  29.3081802
  33.9087390  55.4624642  30.0590562  36.9601207  58.1871933  24.1916340
  36.2911582  58.6718061  23.7080381  36.8214077  58.4341154  25.1059719
  28.6980207  47.7226286  27.8958341  28.7364306  47.1889877  28.6895459
  28.1920500  47.1961491  27.2769318  41.1006476  60.2215677  30.7898999
  41.6524784  60.3847298  31.5548084  41.4412669  60.8120114  30.1179024
  36.0770969  42.5690826  31.3920884  36.1412296  43.4305657  30.9798281
  36.0138089  41.9564828  30.6593242  35.5523242  44.6413959  35.0393918
  36.1795280  44.2591036  35.6531442  34.6951160  44.4228161  35.4049610
  45.9517350  55.0476934  36.6447653  46.4957254  55.6606892  36.1502608
  45.3704195  55.6056513  37.1614666  44.2374863  58.1697652  27.7762681
  44.1126003  57.3687392  27.2673626  44.8953954  58.6643846  27.2876651
  35.8583031  44.5246385  26.9539821  35.1369617  45.1382352  26.8147295
  36.6476287  45.0604150  26.8756467  46.3009771  55.9706672  29.4042231
  45.3540107  55.8512023  29.3320558  46.6492545  55.0829170  29.4868493
  38.6609345  41.8600811  33.2280473  39.1843747  42.1063108  33.9906782
  38.4421678  42.6920846  32.8083610  43.3056205  55.7659388  25.6046583
  43.1581167  54.8376096  25.7854153  44.1309698  55.7879479  25.1203659
  37.1718449  44.4177456  21.4627075  37.5114522  44.9463377  20.7405684
  37.6190570  44.7557862  22.2385642  46.9090327  56.5887947  26.6911456
  47.8336874  56.3830809  26.5535907  46.7405630  56.3404348  27.6000798
  39.8661890  42.8014506  30.9130143  39.5258710  42.0022319  31.3150823
  39.1600896  43.1016217  30.3406977  40.5178362  39.8863819  29.3657467
  41.3404431  39.4124297  29.2436357  40.7616425  40.6654302  29.8656153
  43.3017719  43.6197226  20.5978701  43.5181333  44.5021864  20.2967529
  42.8211786  43.2283440  19.8684343  38.0416940  46.5782939  27.1749445
  37.8961521  46.8923242  28.0673727  37.5642144  47.1967840  26.6220344
  39.9013323  43.5685487  27.2230335  39.8874892  42.6726581  26.8862633
  40.6185751  43.5756151  27.8568621  41.7539454  44.0022828  29.2683462
  41.4957232  44.9239898  29.2667793  41.2224494  43.6053262  29.9583926
  46.6985643  57.1073615  22.0473548  46.8722520  56.5420037  21.2947400
  47.1914534  57.9074510  21.8653037  32.5162603  49.1188284  30.1137106
  31.9716071  49.8948092  30.2457381  33.3941952  49.4659088  29.9556228
  39.3050219  42.4499868  22.4917905  39.4266130  41.5216514  22.6908792
  39.0152262  42.4638554  21.5796220  42.1741410  40.1354778  25.6284625
  42.1963106  40.1994111  24.6736604  42.5909469  39.2959287  25.8225131
  52.5525034  49.8710038  23.6663847  52.9956180  49.1217363  23.2682971
  51.6751544  49.8620174  23.2837579  47.6860815  56.4240379  19.1470446
  48.3811720  57.0447072  19.3657760  48.0283965  55.5735730  19.4222824
  33.3028624  48.2458180  33.0067263  32.5610361  48.3940815  33.5931894
  32.9821369  48.5066446  32.1434013  49.5852238  53.8740085  20.6757777
  50.1103563  54.2127357  19.9507097  49.4974591  52.9387100  20.4920911
  41.2472287  57.7874158  32.8047653  41.5559414  57.5423305  33.6770353
  42.0447769  57.9920797  32.3166523  41.2692899  59.9412068  25.0353030
  40.8297889  59.4488447  25.7285886  42.0201016  59.3985036  24.7945105
  33.7485238  56.1323609  25.0377658  34.5743258  55.8327381  24.6576301
  33.3979290  55.3631231  25.4867446  38.7166771  55.4850077  27.1075331
  38.0946781  54.8220782  26.8077559  39.3871638  55.5111209  26.4248979
  31.9493843  54.0509935  25.9966591  31.1125752  53.6232110  25.8150593
  31.9217489  54.2442379  26.9337383  38.7891299  43.9631865  36.7007837
  38.8379454  44.8393988  36.3185607  39.3313813  43.4209258  36.1279481
  49.2746144  54.5072988  35.9808975  48.4841688  54.4897127  35.4413474
  49.0379499  55.0461282  36.7358011  49.3944020  51.3565455  33.2941703
  49.4442024  51.1915462  34.2357226  49.2857943  50.4892714  32.9039584
  38.2780278  54.0354000  20.5833792  38.4268399  54.7189465  19.9300465
  39.0846722  54.0159090  21.0983248  46.6847782  47.3396383  34.6101010
  47.5857645  47.2002847  34.3185008  46.7595756  47.5050837  35.5499187
  41.0190587  44.7163237  33.4554196  40.1493897  45.0096803  33.1836785
  41.2550068  45.3003682  34.1761460  50.8962216  53.7762396  33.5383725
  50.6047025  54.1392377  34.3747186  50.2834348  53.0629404  33.3597057
  52.0957899  51.3415276  26.0586295  52.9304790  51.7805080  26.2223855
  52.2317027  50.8653929  25.2394541  49.1449405  48.8995011  32.0063783
  49.6203526  49.0922657  31.1982634  48.2214970  48.9554197  31.7607166
  36.0332911  50.0619178  21.5894861  35.7878953  49.1581508  21.7875071
  36.2028826  50.0636328  20.6474339  43.7229621  40.9342854  30.9719616
  44.2411565  41.6703881  30.6466105  43.3684754  41.2406848  31.8066376
  43.9742215  37.3543137  26.4920513  44.2543969  36.6866326  27.1180940
  44.7592822  37.5472232  25.9795177  41.7775684  56.5302131  18.0545539
  41.2049651  57.1492318  17.6016011  42.3508477  57.0801492  18.5885461
  47.8451074  45.7760771  30.2392088  48.7968496  45.8758869  30.2604312
  47.6754524  44.9839039  30.7490173  45.8665453  42.8616354  30.4251489
  45.2715385  43.1421367  29.7297978  45.5815150  43.3510255  31.1968230
  44.9972944  56.8139281  19.1854122  45.9303617  56.7484843  19.3886997
  44.9096156  57.6495548  18.7268654  47.6260960  56.1305151  16.1458069
  47.5474592  55.7965015  17.0393827  48.4470627  56.6226919  16.1449542
  50.3239151  48.9966891  29.3534388  50.2915471  48.0582891  29.5394072
  50.9339775  49.0750927  28.6200213  50.4733640  45.7877934  29.3992671
  49.9572689  45.0036391  29.2122600  51.3573588  45.4596651  29.5639190
  48.1344367  39.5318950  25.3588484  47.9369188  39.2234038  26.2431816
  48.7444072  40.2580588  25.4886414  56.1415701  50.0582897  28.4940425
  56.8719090  49.7968186  29.0548128  55.5322647  49.3211619  28.5342493
  54.2230998  48.1990760  29.0914876  53.4964162  48.0646725  28.4831367
  53.8078285  48.5067589  29.8971594  42.0461175  51.9180690  36.8562249
  42.9664184  52.0959289  37.0502295  42.0110758  50.9736735  36.7041948
  31.2643340  47.1119283  25.7815523  30.9446124  46.2584591  25.4889897
  30.7176768  47.3267861  26.5373491  35.0423247  49.8281724  29.4985030
  35.2609257  50.7598832  29.5173064  35.4549021  49.4689699  30.2839834
  41.9627465  40.3349810  21.4860718  41.1528193  39.9896895  21.8615964
  42.6511882  40.0257353  22.0748330  43.8918013  39.4127856  23.1085015
  44.4449052  39.8323310  23.7675038  44.1288100  38.4863605  23.1507971
  39.9151113  45.4014930  38.8887779  39.8147840  46.3509287  38.8199870
  39.6972655  45.0733169  38.0163849  31.1331600  50.7322195  27.7508645
  30.4395071  50.3176148  27.2378599  31.8804591  50.7742731  27.1542064
  47.2696820  41.5228382  22.6163679  46.6895490  42.1813186  22.2341732
  47.0032753  40.7005726  22.2051097  45.7200387  40.9233439  24.8185000
  46.2200165  41.0349974  24.0099318  46.3635995  40.6194492  25.4585808
  39.7782383  48.8312069  37.7052841  39.2949464  49.6312429  37.9116730
  39.8643322  48.8420014  36.7520285  33.0468342  50.6640449  25.6274660
  33.0239030  50.7628136  24.6756543  33.3568979  51.5105599  25.9491826
  35.7055720  52.7216604  29.7421274  36.6598974  52.6900546  29.6751206
  35.5068244  52.2607227  30.5571500  36.2955102  51.2917720  32.3092072
  37.1147991  51.7861798  32.3326909  36.5691910  50.3749688  32.2809640
  46.0521699  43.6828472  21.6720028  45.1647554  43.9678123  21.4540222
  46.4675688  43.5222235  20.8247304  49.4036235  43.7074993  25.3874367
  50.1796625  44.1971445  25.6598984  48.6784369  44.1333047  25.8446236
  51.8408793  44.4202612  26.4448307  52.4353284  44.1798348  25.7341616
  51.9135377  43.7009743  27.0721844  34.0605949  58.2636223  26.7591472
  33.9260417  57.5036624  26.1929470  33.6438011  58.9877123  26.2920261
  45.1964912  53.4473147  15.7668048  45.9000762  53.6523149  16.3825703
  44.4727561  54.0149909  16.0317131  46.0262722  49.1983008  21.8870318
  45.9697924  49.6551559  21.0477950  46.5791065  48.4373692  21.7093160
  49.8367528  44.9872740  22.7120437  49.5804462  44.5869375  23.5428645
  49.2120396  45.7016534  22.5870576  54.1479866  47.7268813  25.2191729
  53.5879424  47.7962002  25.9923291  53.5423369  47.5509798  24.4991225
  37.2175075  59.1605540  26.9709915  37.1007459  60.1050973  26.8688605
  36.3967521  58.8579102  27.3595714  47.1051609  53.8855676  17.8166508
  47.9397213  53.4536874  17.6343982  46.9435952  53.7137690  18.7443402
  46.7597502  50.3887789  19.1822847  46.7046305  50.2232061  18.2411291
  46.1343557  51.0963822  19.3385037  31.5490017  45.6255854  33.0084269
  32.1948880  45.1154807  33.4971494  31.3407168  46.3624535  33.5827694
  44.0743409  52.6936701  38.5076410  44.9434568  52.8677353  38.1463045
  43.5950160  53.5131118  38.3852139  38.2429589  59.8133802  30.1865843
  39.1456836  59.8457412  30.5032338  38.0166959  58.8834253  30.2012179
  39.9983191  58.5664789  26.8475922  39.0478822  58.5666650  26.7340294
  40.3015677  57.8197523  26.3311957  43.8845746  36.4838675  23.0154102
  43.1178142  35.9297161  23.1610784  44.2956451  36.5560544  23.8768254
  35.8887508  42.7723471  37.1059283  36.7518969  42.4160275  37.3162608
  35.3152918  42.4337365  37.7934688  55.7335884  64.4025327  27.9121684
  56.3714294  64.2832074  27.2085024  55.6156727  65.3506171  27.9709636
  52.5425591  64.3552755  27.8483209  52.2044102  64.2393820  26.9603744
  53.4115359  63.9543920  27.8284215  48.4012406  66.2088231  23.8380100
  47.8377272  66.1178168  23.0696388  48.2864802  65.3888136  24.3182593
  53.0245374  65.5087607  33.8069415  53.0134015  65.1140405  32.9349918
  53.1866013  64.7753679  34.4003186  45.9476838  67.7039423  26.6764320
  46.7398130  67.3630248  26.2610620  46.1873489  67.8134398  27.5966474
  53.9811965  69.8759199  19.1494565  53.3299945  70.4613280  18.7628579
  54.7756328  70.4065394  19.2089602  47.9067592  66.9648336  19.5481699
  48.6798468  66.4177323  19.4094575  48.2592991  67.8292586  19.7596161
  49.7452635  68.2924719  32.7548599  49.4542501  69.1970349  32.6395265
  50.3809619  68.3341246  33.4692668  50.6708842  65.6701567  29.3449958
  51.2672414  65.4457589  28.6306921  50.7283813  64.9286313  29.9475406
  50.2433870  63.1241002  17.1800149  50.4959391  62.6022524  16.4183612
  49.3058429  62.9607148  17.2826833  55.2877153  62.1276781  24.9874892
  56.0740242  61.7096204  24.6365309  55.5515857  63.0322873  25.1556541
  55.4587230  67.5649631  19.6863549  54.8233063  67.6384258  20.3984454
  55.1284637  68.1543230  19.0082628  60.6885580  62.0652014  25.8907871
  61.4210752  61.4951231  26.1245700  59.9324936  61.6773614  26.3314376
  49.9630159  65.0269108  19.3824524  49.8466417  64.3514012  20.0505608
  50.0732419  64.5401482  18.5656677  52.3061700  64.4879255  23.0871213
  51.9419907  63.9609876  23.7984135  53.1628816  64.0977725  22.9137699
  58.2111000  55.7773588  30.3502479  57.8794325  56.6468999  30.1263694
  57.6156614  55.4609872  31.0296510  51.9467187  59.5169155  18.0832562
  52.1141589  60.3849392  18.4503033  51.7564356  59.6796437  17.1593851
  54.7042520  67.9786134  29.7498392  54.4043243  68.8811173  29.6414199
  54.3593579  67.7118317  30.6019545  48.1555001  64.4299931  25.7835097
  47.2305498  64.2976145  25.9912788  48.4039415  65.2094150  26.2805039
  58.1039664  60.4968674  27.4295830  57.1956541  60.4284083  27.1354591
  58.0527260  60.9740619  28.2577655  51.9256408  61.9726813  19.0679229
  51.8056033  62.4183863  19.9064709  51.2308996  62.3212130  18.5092767
  45.5163812  64.0733204  26.6178886  45.6456194  64.3267683  27.5318297
  44.8361264  64.6660912  26.2983541  49.6863300  74.7430454  22.7169360
  49.6087329  75.6938280  22.7957840  49.0824943  74.3976327  23.3744286
  52.1780530  61.9158320  35.3730727  51.4013864  62.4752240  35.3633591
  52.8171093  62.4015103  35.8945597  59.9701310  58.6985113  29.2073703
  59.3275690  58.9917646  28.5613498  59.4656239  58.5838033  30.0126900
  57.6241474  62.4448286  19.8959563  58.5359330  62.6775673  19.7207260
  57.1151121  63.0285330  19.3334641  50.4326902  64.7243773  34.9348694
  51.1741586  65.2628817  34.6583517  49.7263887  65.3510062  35.0920246
  55.9082241  66.8672914  33.5320855  56.3165598  66.4255324  32.7875488
  55.1859503  66.2925541  33.7855048  52.2613312  61.8045520  30.9054412
  53.1074507  62.2284934  31.0489061  52.2011949  61.1479145  31.5992975
  56.2311056  67.4274104  27.2873144  55.6019919  67.5919818  26.5849212
  55.8436718  67.8415714  28.0584108  60.1100288  68.3628542  24.6417508
  59.4251326  68.7427444  24.0914541  60.1944137  68.9723869  25.3749456
  55.4112757  59.4649889  32.5635586  55.1673689  60.2191949  32.0269862
  55.6872687  59.8435236  33.3982833  57.3651220  66.0088501  31.2412851
  57.5768115  66.6520261  30.5647233  57.3180968  65.1750818  30.7734782
  54.9677449  58.6206322  28.1449424  54.1061928  58.9187575  28.4366161
  54.9939883  58.8376721  27.2130456  51.7839018  67.1648512  24.5523229
  52.2477364  67.4436215  23.7627852  51.5195816  66.2631957  24.3696320
  48.6763099  66.7119994  27.4902993  49.2464456  67.1407262  26.8520477
  49.2671211  66.4302579  28.1887178  50.7207904  63.2871665  21.3612794
  51.4231947  63.7392708  21.8286721  50.3888533  62.6455484  21.9892688
  49.1688266  61.8783421  35.7364004  48.5386926  62.5599702  35.9699401
  49.0624353  61.7666503  34.7917142  44.4633238  61.5455217  26.6629928
  43.6732292  61.8012746  26.1870039  44.9544485  62.3603555  26.7681969
  58.4797048  68.8860457  29.4135209  59.3014491  68.4840644  29.1317890
  58.4759450  68.7828691  30.3651325  46.4147983  61.9099797  23.6213405
  45.6179147  62.0218491  24.1396900  46.1873576  62.2486449  22.7554295
  52.2453651  68.4344500  31.5695919  52.3098084  68.8964907  32.4054091
  51.5364575  67.8041865  31.6978229  42.7470941  61.7985708  29.0944919
  42.9978979  62.6832718  29.3602495  43.2830489  61.6190309  28.3220011
  66.5703041  65.2299205  25.7620180  65.8166749  64.6606603  25.6064185
  66.7050582  65.1961870  26.7090815  51.9601669  70.1012607  21.4374900
  51.8247343  70.9464143  21.8659747  52.5011481  70.3031885  20.6740833
  48.4469008  56.1804187  38.0989255  48.0535954  55.6270386  38.7736899
  49.2635149  56.4914766  38.4895772  45.4131066  67.6188045  22.0102825
  45.9255587  68.4131296  22.1608389  46.0653779  66.9214336  21.9436426
  47.2225951  70.7353802  24.0925578  47.3992579  71.6571766  23.9046562
  48.0182784  70.4212221  24.5219958  51.3636969  57.5962066  35.6909511
  52.1046683  58.1969219  35.6113974  51.5954892  56.8539704  35.1327554
  46.5078307  62.7818434  33.9687741  46.3931822  61.8803691  34.2694840
  45.6522825  63.0282130  33.6172558  53.5870145  70.7236174  35.5675242
  53.1433999  69.9372552  35.2496146  54.2487359  70.9115324  34.9019133
  48.3457266  72.2531975  30.0935920  48.8964691  72.1249039  29.3212914
  47.5068742  72.5526865  29.7430813  55.6851383  71.0038974  33.5956643
  55.6669858  71.8247855  33.1036912  56.6071303  70.8793049  33.8206784
  52.1424437  68.5183103  34.4380151  52.6752774  67.7571391  34.2079459
  51.6138518  68.2256755  35.1804306  55.3094132  53.6243169  29.9673793
  54.9658402  54.5144811  29.8912904  55.6773095  53.4344827  29.1043378
  43.3779983  65.9476700  22.7862395  44.2155205  66.3573708  22.5696103
  43.5558251  65.0076142  22.7562589  55.2744415  63.6151780  18.4746228
  54.7591038  64.3856385  18.7134616  55.0021723  62.9416917  19.0979290
  52.8591526  58.4601481  23.5331467  52.0033122  58.0708332  23.3537105
  53.2718478  58.5393442  22.6731252  54.3890673  55.9947824  27.9323026
  53.8855468  55.9577960  27.1190832  54.6821280  56.9040567  27.9919683
  50.6333559  56.0786554  26.9389208  51.4986555  55.8829363  26.5795098
  50.7011067  55.8496906  27.8658565  60.2478689  66.3684135  20.4099402
  59.4708132  66.0295295  19.9654564  60.9270170  66.3736758  19.7354367
  55.0630718  61.4878872  20.3006009  54.7580854  61.8025022  21.1516153
  56.0161160  61.5660292  20.3433342  53.5077150  67.6469096  21.9498963
  52.9798512  66.9121855  21.6372201  53.0064653  68.4243772  21.7038932
  58.4869996  65.8418116  27.0666010  57.8293670  66.5317378  27.1546138
  59.2910395  66.2314548  27.4099996  48.2395878  58.3088762  24.3105575
  48.8139630  58.0863944  23.5778768  48.8266860  58.3777457  25.0634176
  57.2975455  64.1962489  25.1169951  57.8107337  64.8292481  25.6191661
  57.9476679  63.5963684  24.7513311  48.5665465  60.3393223  18.3301460
  47.7302777  60.6767910  18.6510735  48.4270234  60.2042203  17.3928597
  50.5418545  55.1830011  23.0380644  49.8882958  54.8679028  22.4137259
  50.4999019  54.5605751  23.7640467  51.6529750  65.4649306  14.9533936
  50.7456812  65.2338560  15.1525085  52.1500782  64.6686925  15.1407918
  54.5597829  74.1746813  17.8730623  53.8859528  74.4778510  18.4815580
  54.9463651  74.9775894  17.5236080  53.7756286  61.6711945  27.3628292
  52.8578847  61.8926892  27.2049980  54.1916429  61.7458255  26.5039999
  54.5591333  63.0703360  22.4930972  55.3063152  63.5824757  22.1838094
  54.8282923  62.7487413  23.3535366  52.8317984  65.5661901  19.4757927
  51.9229203  65.2820934  19.5730396  52.8613067  65.9860979  18.6161233
  58.0637251  69.1768490  23.2449094  57.6099578  68.3359400  23.3014285
  57.4331218  69.8129889  23.5823874  57.0070171  60.1060476  24.4749762
  56.2692927  59.5937863  24.8060004  57.2596944  59.6660858  23.6633038
  56.5070190  71.0144987  24.1798912  56.7993165  71.5750044  23.4611278
  57.0168811  71.3073548  24.9352071  57.1081798  52.8836728  25.0691531
  57.4140675  52.0234092  24.7817446  57.8334403  53.4754349  24.8690525
  43.4006154  63.2867415  23.4573129  43.2030554  62.6936776  22.7324195
  42.8452818  62.9819625  24.1749068  51.3802878  63.1790522  25.5767722
  51.4351487  62.2264358  25.5010198  50.5694080  63.3349961  26.0609020
  52.5294071  67.1070645  16.8146005  52.0913501  66.3906504  16.3551642
  53.2704512  67.3346759  16.2531096  49.3195238  61.7967581  23.3358101
  48.5063103  62.0961752  23.7423293  49.8154232  61.4023270  24.0532583
  51.4703815  71.7925338  25.2692365  51.4279994  72.0186185  24.3400897
  52.3866514  71.5588713  25.4178167  54.9169449  62.2609406  32.1672995
  55.2718837  62.4880879  33.0267460  55.5641580  62.5927783  31.5450250
  60.6467186  65.3827842  22.8722324  60.5085085  65.5729438  21.9443513
  60.2903405  66.1447224  23.3290375  48.8109312  59.3685937  28.9519336
  49.4508692  59.2274696  28.2542299  47.9786843  59.0820450  28.5757938
  60.6736566  67.4504369  27.8833595  61.1073072  67.3579658  28.7316649
  61.3868147  67.4261869  27.2453611  49.5869616  68.6688367  25.0654328
  50.3810215  68.1738687  24.8636903  48.8761309  68.1406230  24.7022034
  54.4064461  71.0506463  29.4166696  54.4601483  71.6197399  30.1844412
  53.5379242  71.2208348  29.0520733  45.8952380  62.8131449  21.1414081
  44.9649968  62.7515904  21.3584043  45.9909852  62.2907402  20.3450722
  45.8137929  59.3386262  23.7292322  46.0744746  60.2531595  23.6201483
  46.6355101  58.8710704  23.8788935  47.2862854  60.7524019  30.8991147
  47.9585908  60.5441381  30.2503796  46.4592641  60.5546105  30.4596379
  61.5352115  67.4928069  30.4166481  61.7288005  68.3973880  30.6625755
  61.4352734  67.0335488  31.2505066  53.1888426  57.3785960  32.9156808
  52.5416341  58.0775910  32.8221284  53.9589442  57.8122104  33.2833056
  56.5967224  67.6434812  35.9907361  56.4452730  67.4145364  35.0737445
  56.5871904  68.6005413  36.0038706  53.3652560  65.2166725  30.9753628
  54.2944620  65.3677884  30.8022595  52.9443590  65.3050746  30.1202274
  52.1640892  69.2417389  28.7452165  52.0251978  68.8736174  29.6178103
  51.3755488  69.7565029  28.5736123  52.7589044  74.3426486  20.0877702
  52.9340800  73.8714529  20.9023324  52.0721832  74.9692252  20.3158962
  53.7146107  68.6198992  26.1341003  53.3795940  68.5799762  27.0298653
  53.2150053  67.9543708  25.6611413  47.6890351  64.0266622  31.6593584
  47.5510149  63.2946861  32.2605123  48.5995275  63.9375522  31.3777772
  56.6505299  65.9655026  16.4078063  56.0334470  65.2401854  16.3111115
  56.1821787  66.7264387  16.0645137  50.3172652  63.7386581  31.1477264
  51.0272271  63.0979773  31.1063882  50.2741960  63.9899476  32.0703445
  58.3059431  70.6753935  34.0683843  58.2471977  69.9913155  33.4014426
  58.7078949  71.4172925  33.6164469  49.0301586  60.7251799  32.9672903
  48.4938943  60.2742538  33.6194500  48.4418294  60.8597708  32.2243368
  47.3250129  77.4915848  26.8617562  47.5646728  78.1234373  27.5396580
  46.4819326  77.1403888  27.1482921  48.4403845  60.1840451  15.5299367
  47.5633311  60.0629251  15.1661614  48.9161598  59.3926529  15.2778256
  58.3076838  68.6393519  32.2997823  57.4203617  68.3019440  32.4224222
  58.8775389  67.9076550  32.5366588  39.9605985  64.9717610  25.6240874
  40.6477025  64.6579340  25.0361889  39.8054114  65.8758975  25.3508126
  44.7640707  59.8607807  30.0525898  44.6798896  59.2533476  29.3176308
  43.9423414  60.3516825  30.0535394  51.8377991  73.2994971  29.2659066
  51.7648163  74.1049942  29.7778370  51.3955384  73.4986937  28.4407087
  51.6267771  72.5366741  22.7761887  50.8435293  73.0788421  22.8700112
  52.3260516  73.0540721  23.1756129  54.9364421  58.3461370  25.4196093
  55.4333121  57.5931333  25.0997163  54.1651403  58.3825687  24.8539302
  62.7894179  64.0501736  27.0614384  62.7784055  64.9326451  26.6908317
  61.9211558  63.6973287  26.8668921  54.2976675  73.1981805  31.4217225
  55.0104647  73.8329270  31.3493126  53.8066704  73.2945671  30.6057226
  56.0194202  67.1033058  22.9934516  55.0850481  67.2234520  22.8239221
  56.1970870  66.2005524  22.7294526  51.5199390  60.4878753  25.1467777
  51.1497177  59.9349794  25.8348683  52.0158482  59.8836887  24.5942777
  59.4066753  62.9450377  23.5284550  59.8727205  63.7778368  23.4544853
  59.8574254  62.4795358  24.2329809  49.3488588  70.9476248  32.2422795
  50.0498048  71.5812731  32.3952190  48.8783703  71.2890980  31.4818435
  57.4742984  69.2894198  20.5270702  57.7502828  69.1750793  21.4364576
  56.6047483  68.8911683  20.4882876  57.3783416  55.3130964  27.5675452
  56.4646496  55.5435191  27.7357659  57.8076517  55.3969408  28.4189484
  57.1489874  63.5020856  30.0675346  56.4961325  63.7496763  29.4127799
  57.5270254  62.6884994  29.7337823  54.1097048  73.5380549  24.1703516
  54.2919443  72.7202205  24.6331268  54.9330034  73.7548241  23.7328406
  54.4439214  72.4648734  21.4318565  54.9726980  71.9541189  20.8188727
  54.7067433  72.1491264  22.2964098  53.1977447  64.2440667  36.5541383
  52.5218084  64.1434796  37.2243758  54.0205081  64.0879881  37.0177380
  44.9456306  70.4812603  29.1753898  45.5309743  69.7356291  29.3081802
  44.7481145  70.7916560  30.0590562  47.7994962  73.5163851  24.1916340
  47.1305337  74.0009978  23.7080381  47.6607831  73.7633071  25.1059719
  39.5373961  63.0518204  27.8958341  39.5758061  62.5181794  28.6895459
  39.0314254  62.5253409  27.2769318  51.9400230  75.5507594  30.7898999
  52.4918538  75.7139216  31.5548084  52.2806424  76.1412032  30.1179024
  46.9164724  57.8982744  31.3920884  46.9806050  58.7597575  30.9798281
  46.8531844  57.2856746  30.6593242  46.3916996  59.9705877  35.0393918
  47.0189035  59.5882954  35.6531442  45.5344915  59.7520079  35.4049610
  56.7911105  70.3768852  36.6447653  57.3351009  70.9898810  36.1502608
  56.2097949  70.9348430  37.1614666  43.1682539  61.7782306  20.9712273
  43.4635980  60.8692984  20.9179326  42.2670575  61.7570045  20.6493275
  55.0768618  73.4989570  27.7762681  54.9519757  72.6979310  27.2673626
  55.7347709  73.9935763  27.2876651  46.6976786  59.8538302  26.9539821
  45.9763372  60.4674270  26.8147295  47.4870042  60.3896067  26.8756467
  57.1403526  71.2998590  29.4042231  56.1933861  71.1803941  29.3320558
  57.4886299  70.4121088  29.4868493  49.5003099  57.1892729  33.2280473
  50.0237501  57.4355025  33.9906782  49.2815433  58.0212764  32.8083610
  44.8970380  59.4596403  21.0951598  44.5683087  58.5793782  20.9126704
  45.2509751  59.4044072  21.9827987  54.1449959  71.0951306  25.6046583
  53.9974922  70.1668014  25.7854153  54.9703453  71.1171397  25.1203659
  48.0112204  59.7469373  21.4627075  48.3508276  60.2755294  20.7405684
  48.4584324  60.0849779  22.2385642  57.7484081  71.9179865  26.6911456
  58.6730629  71.7122726  26.5535907  57.5799384  71.6696266  27.6000798
  50.7055644  58.1306424  30.9130143  50.3652465  57.3314237  31.3150823
  49.9994651  58.4308135  30.3406977  51.3572116  55.2155736  29.3657467
  52.1798186  54.7416215  29.2436357  51.6010180  55.9946220  29.8656153
  49.9980351  58.2443995  19.6620368  50.7188713  58.6225248  19.1584085
  49.3745655  58.9632872  19.7655346  54.1411474  58.9489144  20.5978701
  54.3575088  59.8313782  20.2967529  53.6605541  58.5575357  19.8684343
  48.8810695  61.9074857  27.1749445  48.7355276  62.2215160  28.0673727
  48.4035899  62.5259757  26.6220344  50.7407078  58.8977405  27.2230335
  50.7268647  58.0018498  26.8862633  51.4579506  58.9048069  27.8568621
  52.5933209  59.3314745  29.2683462  52.3350986  60.2531816  29.2667793
  52.0618249  58.9345180  29.9583926  57.5379397  72.4365532  22.0473548
  57.7116275  71.8711955  21.2947400  58.0308289  73.2366427  21.8653037
  43.3556357  64.4480201  30.1137106  42.8109825  65.2240009  30.2457381
  44.2335707  64.7951006  29.9556228  50.1443974  57.7791785  22.4917905
  50.2659885  56.8508431  22.6908792  49.8546016  57.7930471  21.5796220
  53.0135164  55.4646696  25.6284625  53.0356861  55.5286029  24.6736604
  53.4303223  54.6251204  25.8225131  63.3918788  65.2001955  23.6663847
  63.8349935  64.4509280  23.2682971  62.5145299  65.1912092  23.2837579
  58.5254570  71.7532297  19.1470446  59.2205474  72.3738989  19.3657760
  58.8677720  70.9027648  19.4222824  44.1422379  63.5750098  33.0067263
  43.4004115  63.7232733  33.5931894  43.8215123  63.8358363  32.1434013
  60.4245993  69.2032002  20.6757777  60.9497317  69.5419275  19.9507097
  60.3368345  68.2679018  20.4920911  52.0866042  73.1166076  32.8047653
  52.3953168  72.8715223  33.6770353  52.8841524  73.3212714  32.3166523
  52.1086654  75.2703986  25.0353030  51.6691644  74.7780364  25.7285886
  52.8594771  74.7276953  24.7945105  44.5878993  71.4615526  25.0377658
  45.4137013  71.1619298  24.6576301  44.2373045  70.6923149  25.4867446
  49.5560526  70.8141995  27.1075331  48.9340535  70.1512700  26.8077559
  50.2265393  70.8403127  26.4248979  42.7887598  69.3801853  25.9966591
  41.9519506  68.9524027  25.8150593  42.7611243  69.5734296  26.9337383
  49.6285053  59.2923783  36.7007837  49.6773209  60.1685905  36.3185607
  50.1707568  58.7501176  36.1279481  60.1139899  69.8364906  35.9808975
  59.3235443  69.8189045  35.4413474  59.8773254  70.3753200  36.7358011
  60.2337774  66.6857372  33.2941703  60.2835779  66.5207380  34.2357226
  60.1251697  65.8184631  32.9039584  49.1174033  69.3645918  20.5833792
  49.2662153  70.0481382  19.9300465  49.9240476  69.3451008  21.0983248
  57.5241536  62.6688300  34.6101010  58.4251399  62.5294765  34.3185008
  57.5989511  62.8342755  35.5499187  51.8584342  60.0455155  33.4554196
  50.9887651  60.3388721  33.1836785  52.0943822  60.6295600  34.1761460
  61.7355971  69.1054314  33.5383725  61.4440779  69.4684294  34.3747186
  61.1228102  68.3921322  33.3597057  62.9351653  66.6707194  26.0586295
  63.7698545  67.1096998  26.2223855  63.0710782  66.1945847  25.2394541
  59.9843159  64.2286928  32.0063783  60.4597281  64.4214575  31.1982634
  59.0608724  64.2846114  31.7607166  46.8726666  65.3911096  21.5894861
  46.6272708  64.4873426  21.7875071  47.0422580  65.3928246  20.6474339
  54.5623376  56.2634772  30.9719616  55.0805319  56.9995799  30.6466105
  54.2078508  56.5698765  31.8066376  46.1422313  61.1239453  19.0881022
  45.4491558  61.1983808  18.4321058  45.8974065  60.3599797  19.6102539
  54.8135970  52.6835055  26.4920513  55.0937724  52.0158244  27.1180940
  55.5986577  52.8764150  25.9795177  52.6169438  71.8594048  18.0545539
  52.0443405  72.4784236  17.6016011  53.1902232  72.4093410  18.5885461
  58.6844828  61.1052689  30.2392088  59.6362251  61.2050786  30.2604312
  58.5148279  60.3130957  30.7490173  56.7059208  58.1908272  30.4251489
  56.1109140  58.4713284  29.7297978  56.4208904  58.6802173  31.1968230
  55.8366698  72.1431199  19.1854122  56.7697371  72.0776760  19.3886997
  55.7489911  72.9787465  18.7268654  58.4654715  71.4597069  16.1458069
  58.3868346  71.1256933  17.0393827  59.2864381  71.9518837  16.1449542
  61.1632906  64.3258808  29.3534388  61.1309226  63.3874809  29.5394072
  61.7733530  64.4042845  28.6200213  53.0016237  63.1954861  15.3961592
  53.9475341  63.0661069  15.4650010  52.6230482  62.4569523  15.8731020
  61.3127394  61.1169852  29.3992671  60.7966443  60.3328308  29.2122600
  62.1967343  60.7888568  29.5639190  58.9738121  54.8610867  25.3588484
  58.7762942  54.5525955  26.2431816  59.5837827  55.5872506  25.4886414
  66.9809456  65.3874815  28.4940425  67.7112844  65.1260103  29.0548128
  66.3716401  64.6503537  28.5342493  65.0624753  63.5282678  29.0914876
  64.3357916  63.3938643  28.4831367  64.6472040  63.8359506  29.8971594
  52.8854929  67.2472607  36.8562249  53.8057939  67.4251206  37.0502295
  52.8504512  66.3028653  36.7041948  51.1859154  61.1204838  15.3316477
  50.2790609  60.8237950  15.4079191  51.4635135  60.8234656  14.4650763
  42.1037094  62.4411201  25.7815523  41.7839879  61.5876509  25.4889897
  41.5570522  62.6559779  26.5373491  45.8817002  65.1573642  29.4985030
  46.1003012  66.0890750  29.5173064  46.2942776  64.7981616  30.2839834
  52.8021220  55.6641727  21.4860718  51.9921948  55.3188812  21.8615964
  53.4905637  55.3549271  22.0748330  54.7311768  54.7419774  23.1085015
  55.2842807  55.1615228  23.7675038  54.9681854  53.8155522  23.1507971
  50.7544867  60.7306848  38.8887779  50.6541594  61.6801205  38.8199870
  50.5366409  60.4025087  38.0163849  49.9557939  57.9791773  15.4728456
  50.8177103  58.3046671  15.7324274  50.1408283  57.1923269  14.9601522
  41.9725354  66.0614112  27.7508645  41.2788826  65.6468065  27.2378599
  42.7198345  66.1034649  27.1542064  58.1090575  56.8520299  22.6163679
  57.5289244  57.5105103  22.2341732  57.8426508  56.0297644  22.2051097
  56.5594141  56.2525357  24.8185000  57.0593920  56.3641891  24.0099318
  57.2029749  55.9486410  25.4585808  50.6176137  64.1603987  37.7052841
  50.1343219  64.9604347  37.9116730  50.7037076  64.1711931  36.7520285
  43.8862097  65.9932366  25.6274660  43.8632785  66.0920054  24.6756543
  44.1962733  66.8397517  25.9491826  46.5449475  68.0508521  29.7421274
  47.4992728  68.0192464  29.6751206  46.3461998  67.5899145  30.5571500
  47.1348857  66.6209637  32.3092072  47.9541746  67.1153716  32.3326909
  47.4085665  65.7041605  32.2809640  56.8915453  59.0120390  21.6720028
  56.0041308  59.2970040  21.4540222  57.3069442  58.8514153  20.8247304
  60.2429989  59.0366911  25.3874367  61.0190379  59.5263363  25.6598984
  59.5178123  59.4624965  25.8446236  62.6802548  59.7494530  26.4448307
  63.2747039  59.5090266  25.7341616  62.7529131  59.0301660  27.0721844
  44.8999703  73.5928141  26.7591472  44.7654171  72.8328542  26.1929470
  44.4831766  74.3169041  26.2920261  56.0358666  68.7765064  15.7668048
  56.7394517  68.9815067  16.3825703  55.3121315  69.3441826  16.0317131
  56.8656477  64.5274926  21.8870318  56.8091678  64.9843477  21.0477950
  57.4184819  63.7665610  21.7093160  60.6761283  60.3164657  22.7120437
  60.4198217  59.9161293  23.5428645  60.0514151  61.0308451  22.5870576
  64.9873621  63.0560731  25.2191729  64.4273179  63.1253920  25.9923291
  64.3817124  62.8801715  24.4991225  48.0568829  74.4897458  26.9709915
  47.9401213  75.4342890  26.8688605  47.2361276  74.1871019  27.3595714
  57.9445364  69.2147594  17.8166508  58.7790968  68.7828792  17.6343982
  57.7829707  69.0429607  18.7443402  57.5991256  65.7179707  19.1822847
  57.5440060  65.5523978  18.2411291  56.9737311  66.4255740  19.3385037
  42.3883771  60.9547771  33.0084269  43.0342635  60.4446725  33.4971494
  42.1800922  61.6916453  33.5827694  54.9137163  68.0228619  38.5076410
  55.7828323  68.1969271  38.1463045  54.4343915  68.8423036  38.3852139
  50.9087382  55.2187816  18.7608165  50.8966051  56.1629656  18.9176436
  51.8010803  55.0357961  18.4667626  49.0823343  75.1425720  30.1865843
  49.9850590  75.1749330  30.5032338  48.8560714  74.2126171  30.2012179
  50.8376945  73.8956706  26.8475922  49.8872576  73.8958568  26.7340294
  51.1409432  73.1489441  26.3311957  54.7239501  51.8130592  23.0154102
  53.9571897  51.2589079  23.1610784  55.1350206  51.8852461  23.8768254
  46.7281262  58.1015388  37.1059283  47.5912724  57.7452193  37.3162608
  46.1546673  57.7629283  37.7934688  66.5729639  79.7317245  27.9121684
  67.2108049  79.6123992  27.2085024  66.4550482  80.6798089  27.9709636
  63.3819345  79.6844673  27.8483209  63.0437857  79.5685737  26.9603744
  64.2509113  79.2835838  27.8284215  59.2406161  81.5380149  23.8380100
  58.6771026  81.4470086  23.0696388  59.1258556  80.7180054  24.3182593
  63.8639128  80.8379524  33.8069415  63.8527769  80.4432323  32.9349918
  64.0259768  80.1045597  34.4003186  56.7870593  83.0331341  26.6764320
  57.5791885  82.6922165  26.2610620  57.0267243  83.1426316  27.5966474
  64.8205720  85.2051117  19.1494565  64.1693699  85.7905197  18.7628579
  65.6150082  85.7357312  19.2089602  58.7461347  82.2940254  19.5481699
  59.5192223  81.7469241  19.4094575  59.0986746  83.1584503  19.7596161
  60.5846389  83.6216636  32.7548599  60.2936255  84.5262267  32.6395265
  61.2203374  83.6633164  33.4692668  61.5102596  80.9993485  29.3449958
  62.1066168  80.7749507  28.6306921  61.5677568  80.2578230  29.9475406
  61.0827625  78.4532920  17.1800149  61.3353145  77.9314441  16.4183612
  60.1452184  78.2899066  17.2826833  66.1270907  77.4568698  24.9874892
  66.9133997  77.0388122  24.6365309  66.3909612  78.3614791  25.1556541
  66.2980985  82.8941549  19.6863549  65.6626818  82.9676175  20.3984454
  65.9678391  83.4835148  19.0082628  71.5279335  77.3943932  25.8907871
  72.2604507  76.8243148  26.1245700  70.7718690  77.0065532  26.3314376
  60.8023913  80.3561026  19.3824524  60.6860171  79.6805929  20.0505608
  60.9126173  79.8693400  18.5656677  63.1455454  79.8171173  23.0871213
  62.7813662  79.2901794  23.7984135  64.0022570  79.4269642  22.9137699
  69.0504755  71.1065506  30.3502479  68.7188080  71.9760917  30.1263694
  68.4550368  70.7901790  31.0296510  62.7860941  74.8461073  18.0832562
  62.9535344  75.7141309  18.4503033  62.5958110  75.0088355  17.1593851
  65.5436274  83.3078052  29.7498392  65.2436998  84.2103091  29.6414199
  65.1987334  83.0410235  30.6019545  58.9948756  79.7591849  25.7835097
  58.0699252  79.6268063  25.9912788  59.2433169  80.5386068  26.2805039
  68.9433418  75.8260592  27.4295830  68.0350296  75.7576000  27.1354591
  68.8921014  76.3032537  28.2577655  62.7650162  77.3018730  19.0679229
  62.6449787  77.7475781  19.9064709  62.0702751  77.6504048  18.5092767
  56.3557567  79.4025122  26.6178886  56.4849948  79.6559601  27.5318297
  55.6755018  79.9952830  26.2983541  60.5257054  90.0722372  22.7169360
  60.4481084  91.0230197  22.7957840  59.9218698  89.7268245  23.3744286
  63.0174284  77.2450238  35.3730727  62.2407618  77.8044158  35.3633591
  63.6564847  77.7307021  35.8945597  70.8095065  74.0277030  29.2073703
  70.1669445  74.3209564  28.5613498  70.3049993  73.9129951  30.0126900
  68.4635228  77.7740204  19.8959563  69.3753084  78.0067590  19.7207260
  67.9544875  78.3577248  19.3334641  61.2720656  80.0535691  34.9348694
  62.0135341  80.5920735  34.6583517  60.5657642  80.6801980  35.0920246
  66.7475996  82.1964831  33.5320855  67.1559352  81.7547242  32.7875488
  66.0253257  81.6217459  33.7855048  63.1007066  77.1337438  30.9054412
  63.9468261  77.5576852  31.0489061  63.0405704  76.4771062  31.5992975
  67.0704811  82.7566022  27.2873144  66.4413673  82.9211736  26.5849212
  66.6830473  83.1707632  28.0584108  70.9494043  83.6920460  24.6417508
  70.2645081  84.0719361  24.0914541  71.0337892  84.3015786  25.3749456
  66.2506511  74.7941806  32.5635586  66.0067443  75.5483867  32.0269862
  66.5266442  75.1727154  33.3982833  68.2044974  81.3380419  31.2412851
  68.4161869  81.9812179  30.5647233  68.1574722  80.5042735  30.7734782
  65.8071203  73.9498240  28.1449424  64.9455682  74.2479493  28.4366161
  65.8333638  74.1668638  27.2130456  62.6232773  82.4940430  24.5523229
  63.0871118  82.7728133  23.7627852  62.3589571  81.5923875  24.3696320
  59.5156854  82.0411912  27.4902993  60.0858211  82.4699180  26.8520477
  60.1064965  81.7594496  28.1887178  61.5601659  78.6163582  21.3612794
  62.2625702  79.0684626  21.8286721  61.2282287  77.9747401  21.9892688
  60.0082020  77.2075339  35.7364004  59.3780681  77.8891620  35.9699401
  59.9018108  77.0958421  34.7917142  55.3026993  76.8747135  26.6629928
  54.5126047  77.1304664  26.1870039  55.7938240  77.6895473  26.7681969
  69.3190802  84.2152374  29.4135209  70.1408246  83.8132562  29.1317890
  69.3153205  84.1120608  30.3651325  57.2541738  77.2391714  23.6213405
  56.4572901  77.3510409  24.1396900  57.0267330  77.5778367  22.7554295
  63.0847406  83.7636418  31.5695919  63.1491838  84.2256825  32.4054091
  62.3758329  83.1333783  31.6978229  53.5864696  77.1277626  29.0944919
  53.8372734  78.0124635  29.3602495  54.1224244  76.9482227  28.3220011
  77.4096795  80.5591123  25.7620180  76.6560504  79.9898521  25.6064185
  77.5444336  80.5253787  26.7090815  62.7995423  85.4304525  21.4374900
  62.6641098  86.2756061  21.8659747  63.3405236  85.6323803  20.6740833
  59.2862763  71.5096105  38.0989255  58.8929708  70.9562303  38.7736899
  60.1028903  71.8206683  38.4895772  56.2524821  82.9479963  22.0102825
  56.7649341  83.7423213  22.1608389  56.9047533  82.2506254  21.9436426
  58.0619705  86.0645719  24.0925578  58.2386334  86.9863684  23.9046562
  58.8576539  85.7504139  24.5219958  62.2030724  72.9253984  35.6909511
  62.9440437  73.5261137  35.6113974  62.4348647  72.1831622  35.1327554
  57.3472062  78.1110351  33.9687741  57.2325577  77.2095609  34.2694840
  56.4916580  78.3574048  33.6172558  64.4263900  86.0528092  35.5675242
  63.9827754  85.2664470  35.2496146  65.0881113  86.2407242  34.9019133
  59.1851021  87.5823893  30.0935920  59.7358446  87.4540957  29.3212914
  58.3462497  87.8818782  29.7430813  66.5245138  86.3330892  33.5956643
  66.5063613  87.1539773  33.1036912  67.4465058  86.2084967  33.8206784
  62.9818192  83.8475021  34.4380151  63.5146529  83.0863309  34.2079459
  62.4532273  83.5548673  35.1804306  66.1487887  68.9535087  29.9673793
  65.8052156  69.8436729  29.8912904  66.5166849  68.7636745  29.1043378
  54.2173737  81.2768617  22.7862395  55.0548959  81.6865626  22.5696103
  54.3952005  80.3368060  22.7562589  66.1138169  78.9443698  18.4746228
  65.5984793  79.7148303  18.7134616  65.8415478  78.2708834  19.0979290
  63.6985281  73.7893399  23.5331467  62.8426877  73.4000249  23.3537105
  64.1112232  73.8685360  22.6731252  65.2284427  71.3239742  27.9323026
  64.7249223  71.2869877  27.1190832  65.5215034  72.2332485  27.9919683
  61.4727313  71.4078472  26.9389208  62.3380310  71.2121281  26.5795098
  61.5404822  71.1788824  27.8658565  71.0872444  81.6976053  20.4099402
  70.3101886  81.3587212  19.9654564  71.7663925  81.7028676  19.7354367
  65.9024473  76.8170790  20.3006009  65.5974608  77.1316939  21.1516153
  66.8554915  76.8952210  20.3433342  64.3470904  82.9761013  21.9498963
  63.8192266  82.2413773  21.6372201  63.8458407  83.7535690  21.7038932
  69.3263751  81.1710034  27.0666010  68.6687425  81.8609295  27.1546138
  70.1304150  81.5606466  27.4099996  59.0789632  73.6380680  24.3105575
  59.6533384  73.4155861  23.5778768  59.6660615  73.7069374  25.0634176
  68.1369209  79.5254407  25.1169951  68.6501091  80.1584398  25.6191661
  68.7870433  78.9255602  24.7513311  59.4059219  75.6685141  18.3301460
  58.5696531  76.0059827  18.6510735  59.2663989  75.5334121  17.3928597
  61.3812300  70.5121929  23.0380644  60.7276712  70.1970946  22.4137259
  61.3392774  69.8897669  23.7640467  62.4923505  80.7941224  14.9533936
  61.5850566  80.5630477  15.1525085  62.9894537  79.9978843  15.1407918
  65.3991584  89.5038731  17.8730623  64.7253282  89.8070428  18.4815580
  65.7857406  90.3067811  17.5236080  64.6150040  77.0003862  27.3628292
  63.6972602  77.2218809  27.2049980  65.0310184  77.0750173  26.5039999
  65.3985088  78.3995278  22.4930972  66.1456907  78.9116675  22.1838094
  65.6676677  78.0779331  23.3535366  63.6711738  80.8953819  19.4757927
  62.7622957  80.6112851  19.5730396  63.7006822  81.3152897  18.6161233
  68.9031006  84.5060408  23.2449094  68.4493333  83.6651318  23.3014285
  68.2724972  85.1421806  23.5823874  67.8463925  75.4352394  24.4749762
  67.1086682  74.9229780  24.8060004  68.0990699  74.9952776  23.6633038
  67.3463945  86.3436905  24.1798912  67.6386919  86.9041962  23.4611278
  67.8562565  86.6365466  24.9352071  67.9475552  68.2128646  25.0691531
  68.2534429  67.3526010  24.7817446  68.6728157  68.8046266  24.8690525
  54.2399908  78.6159333  23.4573129  54.0424308  78.0228693  22.7324195
  53.6846572  78.3111543  24.1749068  62.2196632  78.5082439  25.5767722
  62.2745242  77.5556276  25.5010198  61.4087834  78.6641878  26.0609020
  63.3687826  82.4362562  16.8146005  62.9307256  81.7198421  16.3551642
  64.1098267  82.6638677  16.2531096  60.1588992  77.1259499  23.3358101
  59.3456858  77.4253670  23.7423293  60.6547986  76.7315188  24.0532583
  62.3097570  87.1217256  25.2692365  62.2673749  87.3478102  24.3400897
  63.2260269  86.8880630  25.4178167  65.7563204  77.5901323  32.1672995
  66.1112591  77.8172797  33.0267460  66.4035335  77.9219700  31.5450250
  71.4860941  80.7119759  22.8722324  71.3478839  80.9021355  21.9443513
  71.1297160  81.4739142  23.3290375  59.6503067  74.6977854  28.9519336
  60.2902446  74.5566614  28.2542299  58.8180597  74.4112368  28.5757938
  71.5130320  82.7796286  27.8833595  71.9466827  82.6871575  28.7316649
  72.2261901  82.7553787  27.2453611  60.4263371  83.9980285  25.0654328
  61.2203969  83.5030605  24.8636903  59.7155063  83.4698148  24.7022034
  65.2458215  86.3798380  29.4166696  65.2995237  86.9489317  30.1844412
  64.3772997  86.5500265  29.0520733  56.7346134  78.1423367  21.1414081
  55.8043722  78.0807822  21.3584043  56.8303606  77.6199319  20.3450722
  56.6531683  74.6678179  23.7292322  56.9138501  75.5823513  23.6201483
  57.4748856  74.2002622  23.8788935  58.1256609  76.0815937  30.8991147
  58.7979662  75.8733299  30.2503796  57.2986395  75.8838023  30.4596379
  72.3745870  82.8219987  30.4166481  72.5681760  83.7265797  30.6625755
  72.2746488  82.3627406  31.2505066  64.0282181  72.7077878  32.9156808
  63.3810096  73.4067827  32.8221284  64.7983196  73.1414021  33.2833056
  67.4360979  82.9726730  35.9907361  67.2846485  82.7437281  35.0737445
  67.4265658  83.9297331  36.0038706  64.2046315  80.5458642  30.9753628
  65.1338375  80.6969802  30.8022595  63.7837345  80.6342663  30.1202274
  63.0034647  84.5709307  28.7452165  62.8645732  84.2028091  29.6178103
  62.2149243  85.0856946  28.5736123  63.5982799  89.6718403  20.0877702
  63.7734554  89.2006447  20.9023324  62.9115587  90.2984170  20.3158962
  64.5539862  83.9490910  26.1341003  64.2189694  83.9091680  27.0298653
  64.0543808  83.2835625  25.6611413  58.5284106  79.3558540  31.6593584
  58.3903904  78.6238778  32.2605123  59.4389029  79.2667440  31.3777772
  67.4899054  81.2946944  16.4078063  66.8728224  80.5693772  16.3111115
  67.0215542  82.0556304  16.0645137  61.1566407  79.0678499  31.1477264
  61.8666025  78.4271691  31.1063882  61.1135715  79.3191394  32.0703445
  69.1453185  86.0045852  34.0683843  69.0865731  85.3205072  33.4014426
  69.5472704  86.7464842  33.6164469  59.8695340  76.0543717  32.9672903
  59.3332698  75.6034455  33.6194500  59.2812049  76.1889626  32.2243368
  58.1643884  92.8207766  26.8617562  58.4040482  93.4526290  27.5396580
  57.3213080  92.4695806  27.1482921  59.2797599  75.5132368  15.5299367
  58.4027066  75.3921169  15.1661614  59.7555353  74.7218447  15.2778256
  69.1470592  83.9685436  32.2997823  68.2597371  83.6311358  32.4224222
  69.7169144  83.2368467  32.5366588  50.7999740  80.3009528  25.6240874
  51.4870779  79.9871258  25.0361889  50.6447868  81.2050893  25.3508126
  55.6034462  75.1899725  30.0525898  55.5192650  74.5825394  29.3176308
  54.7817168  75.6808743  30.0535394  62.6771746  88.6286889  29.2659066
  62.6041917  89.4341860  29.7778370  62.2349139  88.8278854  28.4407087
  62.4661525  87.8658659  22.7761887  61.6829047  88.4080339  22.8700112
  63.1654271  88.3832638  23.1756129  65.7758176  73.6753288  25.4196093
  66.2726875  72.9223250  25.0997163  65.0045157  73.7117605  24.8539302
  73.6287933  79.3793654  27.0614384  73.6177809  80.2618369  26.6908317
  72.7605312  79.0265204  26.8668921  65.1370429  88.5273723  31.4217225
  65.8498402  89.1621187  31.3493126  64.6460458  88.6237589  30.6057226
  66.8587956  82.4324975  22.9934516  65.9244235  82.5526438  22.8239221
  67.0364625  81.5297442  22.7294526  62.3593144  75.8170671  25.1467777
  61.9890932  75.2641711  25.8348683  62.8552237  75.2128805  24.5942777
  70.2460508  78.2742295  23.5284550  70.7120960  79.1070286  23.4544853
  70.6968008  77.8087276  24.2329809  60.1882343  86.2768166  32.2422795
  60.8891802  86.9104649  32.3952190  59.7177458  86.6182898  31.4818435
  68.3136739  84.6186116  20.5270702  68.5896583  84.5042710  21.4364576
  67.4441237  84.2203601  20.4882876  68.2177170  70.6422882  27.5675452
  67.3040250  70.8727108  27.7357659  68.6470272  70.7261326  28.4189484
  67.9883629  78.8312774  30.0675346  67.3355079  79.0788681  29.4127799
  68.3664009  78.0176912  29.7337823  64.9490803  88.8672467  24.1703516
  65.1313197  88.0494123  24.6331268  65.7723789  89.0840159  23.7328406
  65.2832968  87.7940652  21.4318565  65.8120735  87.2833106  20.8188727
  65.5461188  87.4783182  22.2964098  64.0371202  79.5732585  36.5541383
  63.3611839  79.4726714  37.2243758  64.8598836  79.4171798  37.0177380
  55.7850061  85.8104521  29.1753898  56.3703498  85.0648209  29.3081802
  55.5874899  86.1208478  30.0590562  58.6388716  88.8455768  24.1916340
  57.9699091  89.3301896  23.7080381  58.5001586  89.0924989  25.1059719
  50.3767716  78.3810121  27.8958341  50.4151815  77.8473712  28.6895459
  49.8708009  77.8545327  27.2769318  62.7793985  90.8799512  30.7898999
  63.3312293  91.0431134  31.5548084  63.1200178  91.4703950  30.1179024
  57.7558478  73.2274662  31.3920884  57.8199804  74.0889493  30.9798281
  57.6925598  72.6148663  30.6593242  57.2310751  75.2997794  35.0393918
  57.8582789  74.9174872  35.6531442  56.3738669  75.0811996  35.4049610
  67.6304859  85.7060770  36.6447653  68.1744763  86.3190728  36.1502608
  67.0491704  86.2640348  37.1614666  54.0076293  77.1074223  20.9712273
  54.3029734  76.1984902  20.9179326  53.1064329  77.0861963  20.6493275
  65.9162372  88.8281488  27.7762681  65.7913512  88.0271227  27.2673626
  66.5741463  89.3227681  27.2876651  57.5370540  75.1830220  26.9539821
  56.8157126  75.7966188  26.8147295  58.3263796  75.7187985  26.8756467
  67.9797280  86.6290508  29.4042231  67.0327616  86.5095859  29.3320558
  68.3280054  85.7413006  29.4868493  60.3396854  72.5184647  33.2280473
  60.8631256  72.7646943  33.9906782  60.1209187  73.3504681  32.8083610
  55.7364135  74.7888321  21.0951598  55.4076841  73.9085700  20.9126704
  56.0903506  74.7335990  21.9827987  64.9843714  86.4243224  25.6046583
  64.8368676  85.4959931  25.7854153  65.8097207  86.4463315  25.1203659
  58.8505958  75.0761291  21.4627075  59.1902031  75.6047212  20.7405684
  59.2978078  75.4141697  22.2385642  68.5877836  87.2471783  26.6911456
  69.5124383  87.0414644  26.5535907  68.4193139  86.9988184  27.6000798
  61.5449399  73.4598342  30.9130143  61.2046219  72.6606155  31.3150823
  60.8388405  73.7600052  30.3406977  62.1965871  70.5447654  29.3657467
  63.0191940  70.0708132  29.2436357  62.4403934  71.3238138  29.8656153
  60.8374105  73.5735913  19.6620368  61.5582468  73.9517165  19.1584085
  60.2139409  74.2924789  19.7655346  64.9805228  74.2781061  20.5978701
  65.1968842  75.1605699  20.2967529  64.4999295  73.8867275  19.8684343
  59.7204449  77.2366775  27.1749445  59.5749030  77.5507078  28.0673727
  59.2429653  77.8551675  26.6220344  61.5800832  74.2269323  27.2230335
  61.5662401  73.3310416  26.8862633  62.2973260  74.2339986  27.8568621
  63.4326963  74.6606663  29.2683462  63.1744741  75.5823734  29.2667793
  62.9012003  74.2637097  29.9583926  68.3773152  87.7657450  22.0473548
  68.5510029  87.2003873  21.2947400  68.8702043  88.5658345  21.8653037
  54.1950112  79.7772119  30.1137106  53.6503580  80.5531927  30.2457381
  55.0729461  80.1242924  29.9556228  60.9837728  73.1083703  22.4917905
  61.1053639  72.1800349  22.6908792  60.6939771  73.1222389  21.5796220
  63.8528919  70.7938613  25.6284625  63.8750615  70.8577946  24.6736604
  64.2696978  69.9543122  25.8225131  74.2312543  80.5293873  23.6663847
  74.6743689  79.7801198  23.2682971  73.3539053  80.5204009  23.2837579
  69.3648324  87.0824214  19.1470446  70.0599229  87.7030907  19.3657760
  69.7071474  86.2319566  19.4222824  54.9816133  78.9042015  33.0067263
  54.2397869  79.0524651  33.5931894  54.6608878  79.1650281  32.1434013
  71.2639747  84.5323920  20.6757777  71.7891071  84.8711193  19.9507097
  71.1762100  83.5970935  20.4920911  62.9259796  88.4457994  32.8047653
  63.2346923  88.2007140  33.6770353  63.7235278  88.6504632  32.3166523
  62.9480408  90.5995903  25.0353030  62.5085398  90.1072282  25.7285886
  63.6988525  90.0568871  24.7945105  55.4272747  86.7907444  25.0377658
  56.2530767  86.4911216  24.6576301  55.0766799  86.0215067  25.4867446
  60.3954280  86.1433912  27.1075331  59.7734290  85.4804617  26.8077559
  61.0659147  86.1695044  26.4248979  53.6281352  84.7093771  25.9966591
  52.7913260  84.2815945  25.8150593  53.6004998  84.9026214  26.9337383
  60.4678808  74.6215700  36.7007837  60.5166963  75.4977823  36.3185607
  61.0101322  74.0793093  36.1279481  70.9533653  85.1656824  35.9808975
  70.1629197  85.1480962  35.4413474  70.7167008  85.7045117  36.7358011
  71.0731529  82.0149290  33.2941703  71.1229533  81.8499297  34.2357226
  70.9645452  81.1476549  32.9039584  59.9567787  84.6937836  20.5833792
  60.1055908  85.3773300  19.9300465  60.7634231  84.6742926  21.0983248
  68.3635291  77.9980218  34.6101010  69.2645154  77.8586683  34.3185008
  68.4383265  78.1634673  35.5499187  62.6978096  75.3747073  33.4554196
  61.8281406  75.6680639  33.1836785  62.9337577  75.9587518  34.1761460
  72.5749725  84.4346231  33.5383725  72.2834534  84.7976212  34.3747186
  71.9621857  83.7213240  33.3597057  73.7745408  81.9999111  26.0586295
  74.6092299  82.4388915  26.2223855  73.9104536  81.5237764  25.2394541
  70.8236914  79.5578846  32.0063783  71.2991035  79.7506492  31.1982634
  69.9002479  79.6138032  31.7607166  57.7120420  80.7203013  21.5894861
  57.4666462  79.8165343  21.7875071  57.8816335  80.7220164  20.6474339
  65.4017130  71.5926690  30.9719616  65.9199074  72.3287717  30.6466105
  65.0472263  71.8990683  31.8066376  56.9816068  76.4531371  19.0881022
  56.2885313  76.5275726  18.4321058  56.7367820  75.6891715  19.6102539
  65.6529724  68.0126972  26.4920513  65.9331478  67.3450161  27.1180940
  66.4380331  68.2056068  25.9795177  63.4563193  87.1885966  18.0545539
  62.8837160  87.8076153  17.6016011  64.0295986  87.7385328  18.5885461
  69.5238583  76.4344606  30.2392088  70.4756005  76.5342704  30.2604312
  69.3542033  75.6422875  30.7490173  67.5452962  73.5200189  30.4251489
  66.9502894  73.8005202  29.7297978  67.2602659  74.0094090  31.1968230
  66.6760453  87.4723116  19.1854122  67.6091126  87.4068678  19.3886997
  66.5883665  88.3079383  18.7268654  69.3048469  86.7888987  16.1458069
  69.2262101  86.4548850  17.0393827  70.1258136  87.2810754  16.1449542
  72.0026660  79.6550726  29.3534388  71.9702980  78.7166727  29.5394072
  72.6127284  79.7334763  28.6200213  63.8409991  78.5246779  15.3961592
  64.7869096  78.3952987  15.4650010  63.4624236  77.7861441  15.8731020
  72.1521149  76.4461769  29.3992671  71.6360197  75.6620226  29.2122600
  73.0361097  76.1180486  29.5639190  69.8131876  70.1902785  25.3588484
  69.6156697  69.8817873  26.2431816  70.4231581  70.9164424  25.4886414
  77.8203210  80.7166733  28.4940425  78.5506599  80.4552021  29.0548128
  77.2110156  79.9795455  28.5342493  75.9018507  78.8574595  29.0914876
  75.1751671  78.7230560  28.4831367  75.4865794  79.1651424  29.8971594
  63.7248684  82.5764525  36.8562249  64.6451693  82.7543124  37.0502295
  63.6898267  81.6320570  36.7041948  62.0252908  76.4496755  15.3316477
  61.1184364  76.1529868  15.4079191  62.3028889  76.1526573  14.4650763
  52.9430849  77.7703119  25.7815523  52.6233633  76.9168427  25.4889897
  52.3964277  77.9851697  26.5373491  56.7210756  80.4865560  29.4985030
  56.9396766  81.4182667  29.5173064  57.1336530  80.1273534  30.2839834
  63.6414974  70.9933645  21.4860718  62.8315702  70.6480730  21.8615964
  64.3299391  70.6841189  22.0748330  65.5705522  70.0711692  23.1085015
  66.1236561  70.4907145  23.7675038  65.8075609  69.1447440  23.1507971
  61.5938622  76.0598765  38.8887779  61.4935349  77.0093122  38.8199870
  61.3760164  75.7317004  38.0163849  60.7951693  73.3083690  15.4728456
  61.6570857  73.6338589  15.7324274  60.9802037  72.5215186  14.9601522
  52.8119109  81.3906030  27.7508645  52.1182580  80.9759983  27.2378599
  53.5592100  81.4326567  27.1542064  68.9484329  72.1812217  22.6163679
  68.3682999  72.8397021  22.2341732  68.6820262  71.3589562  22.2051097
  67.3987896  71.5817275  24.8185000  67.8987674  71.6933809  24.0099318
  68.0423504  71.2778327  25.4585808  61.4569892  79.4895904  37.7052841
  60.9736973  80.2896264  37.9116730  61.5430831  79.5003849  36.7520285
  54.7255851  81.3224284  25.6274660  54.7026539  81.4211971  24.6756543
  55.0356488  82.1689435  25.9491826  57.3843229  83.3800439  29.7421274
  58.3386483  83.3484381  29.6751206  57.1855753  82.9191063  30.5571500
  57.9742611  81.9501555  32.3092072  58.7935500  82.4445634  32.3326909
  58.2479419  81.0333523  32.2809640  67.7309208  74.3412307  21.6720028
  66.8435063  74.6261958  21.4540222  68.1463197  74.1806071  20.8247304
  71.0823744  74.3658828  25.3874367  71.8584134  74.8555281  25.6598984
  70.3571878  74.7916882  25.8446236  73.5196302  75.0786448  26.4448307
  74.1140793  74.8382183  25.7341616  73.5922886  74.3593578  27.0721844
  55.7393458  88.9220058  26.7591472  55.6047926  88.1620459  26.1929470
  55.3225520  89.6460958  26.2920261  66.8752421  84.1056982  15.7668048
  67.5788271  84.3106984  16.3825703  66.1515070  84.6733744  16.0317131
  67.7050231  79.8566843  21.8870318  67.6485433  80.3135395  21.0477950
  68.2578574  79.0957528  21.7093160  71.5155037  75.6456575  22.7120437
  71.2591971  75.2453211  23.5428645  70.8907905  76.3600369  22.5870576
  75.8267375  78.3852648  25.2191729  75.2666933  78.4545838  25.9923291
  75.2210878  78.2093633  24.4991225  58.8962584  89.8189375  26.9709915
  58.7794968  90.7634808  26.8688605  58.0755030  89.5162937  27.3595714
  68.7839118  84.5439511  17.8166508  69.6184722  84.1120710  17.6343982
  68.6223461  84.3721525  18.7443402  68.4385011  81.0471624  19.1822847
  68.3833814  80.8815896  18.2411291  67.8131066  81.7547657  19.3385037
  53.2277526  76.2839689  33.0084269  53.8736389  75.7738643  33.4971494
  53.0194677  77.0208371  33.5827694  65.7530918  83.3520536  38.5076410
  66.6222077  83.5261189  38.1463045  65.2737669  84.1714953  38.3852139
  61.7481136  70.5479733  18.7608165  61.7359806  71.4921573  18.9176436
  62.6404558  70.3649879  18.4667626  59.9217098  90.4717637  30.1865843
  60.8244345  90.5041248  30.5032338  59.6954468  89.5418088  30.2012179
  61.6770700  89.2248624  26.8475922  60.7266331  89.2250486  26.7340294
  61.9803186  88.4781358  26.3311957  65.5633255  67.1422510  23.0154102
  64.7965651  66.5880997  23.1610784  65.9743960  67.2144379  23.8768254
  57.5675017  73.4307306  37.1059283  58.4306478  73.0744111  37.3162608
  56.9940427  73.0921201  37.7934688  77.4123393  95.0609162  27.9121684
  78.0501803  94.9415910  27.2085024  77.2944236  96.0090006  27.9709636
  74.2213100  95.0136590  27.8483209  73.8831611  94.8977655  26.9603744
  75.0902868  94.6127755  27.8284215  70.0799915  96.8672067  23.8380100
  69.5164781  96.7762004  23.0696388  69.9652310  96.0471971  24.3182593
  74.7032883  96.1671442  33.8069415  74.6921524  95.7724240  32.9349918
  74.8653522  95.4337515  34.4003186  67.6264347  98.3623258  26.6764320
  68.4185639  98.0214083  26.2610620  67.8660998  98.4718233  27.5966474
  75.6599474 100.5343035  19.1494565  75.0087454 101.1197115  18.7628579
  76.4543837 101.0649229  19.2089602  69.5855101  97.6232172  19.5481699
  70.3585977  97.0761159  19.4094575  69.9380500  98.4876421  19.7596161
  71.4240144  98.9508554  32.7548599  71.1330010  99.8554185  32.6395265
  72.0597128  98.9925082  33.4692668  72.3496351  96.3285402  29.3449958
  72.9459923  96.1041425  28.6306921  72.4071322  95.5870148  29.9475406
  71.9221379  93.7824838  17.1800149  72.1746900  93.2606359  16.4183612
  70.9845938  93.6190983  17.2826833  76.9664662  92.7860616  24.9874892
  77.7527751  92.3680039  24.6365309  77.2303366  93.6906708  25.1556541
  77.1374739  98.2233466  19.6863549  76.5020572  98.2968093  20.3984454
  76.8072146  98.8127065  19.0082628  82.3673089  92.7235849  25.8907871
  83.0998261  92.1535066  26.1245700  81.6112445  92.3357450  26.3314376
  71.6417668  95.6852944  19.3824524  71.5253926  95.0097847  20.0505608
  71.7519928  95.1985318  18.5656677  73.9849209  95.1463091  23.0871213
  73.6207416  94.6193712  23.7984135  74.8416325  94.7561560  22.9137699
  79.8898509  86.4357423  30.3502479  79.5581834  87.3052834  30.1263694
  79.2944123  86.1193707  31.0296510  73.6254696  90.1752991  18.0832562
  73.7929098  91.0433227  18.4503033  73.4351865  90.3380272  17.1593851
  76.3830029  98.6369969  29.7498392  76.0830752  99.5395008  29.6414199
  76.0381088  98.3702153  30.6019545  69.8342510  95.0883766  25.7835097
  68.9093007  94.9559980  25.9912788  70.0826924  95.8677986  26.2805039
  79.7827173  91.1552510  27.4295830  78.8744050  91.0867918  27.1354591
  79.7314769  91.6324455  28.2577655  73.6043917  92.6310648  19.0679229
  73.4843542  93.0767699  19.9064709  72.9096505  92.9795966  18.5092767
  67.1951321  94.7317040  26.6178886  67.3243703  94.9851519  27.5318297
  66.5148773  95.3244748  26.2983541  71.3650809 105.4014290  22.7169360
  71.2874838 106.3522115  22.7957840  70.7612452 105.0560162  23.3744286
  73.8568039  92.5742155  35.3730727  73.0801373  93.1336075  35.3633591
  74.4958602  93.0598938  35.8945597  81.6488819  89.3568948  29.2073703
  81.0063199  89.6501481  28.5613498  81.1443748  89.2421868  30.0126900
  79.3028983  93.1032121  19.8959563  80.2146839  93.3359508  19.7207260
  78.7938630  93.6869165  19.3334641  72.1114411  95.3827609  34.9348694
  72.8529095  95.9212653  34.6583517  71.4051396  96.0093897  35.0920246
  77.5869750  97.5256749  33.5320855  77.9953107  97.0839160  32.7875488
  76.8647012  96.9509377  33.7855048  73.9400821  92.4629356  30.9054412
  74.7862016  92.8868769  31.0489061  73.8799458  91.8062980  31.5992975
  77.9098565  98.0857940  27.2873144  77.2807428  98.2503654  26.5849212
  77.5224227  98.4999549  28.0584108  81.7887797  99.0212378  24.6417508
  81.1038835  99.4011279  24.0914541  81.8731646  99.6307704  25.3749456
  77.0900266  90.1233724  32.5635586  76.8461198  90.8775785  32.0269862
  77.3660196  90.5019072  33.3982833  79.0438729  96.6672337  31.2412851
  79.2555624  97.3104096  30.5647233  78.9968477  95.8334653  30.7734782
  76.6464958  89.2790157  28.1449424  75.7849437  89.5771411  28.4366161
  76.6727392  89.4960556  27.2130456  73.4626527  97.8232348  24.5523229
  73.9264873  98.1020051  23.7627852  73.1983325  96.9215792  24.3696320
  70.3550608  97.3703829  27.4902993  70.9251965  97.7991098  26.8520477
  70.9458720  97.0886414  28.1887178  72.3995413  93.9455500  21.3612794
  73.1019456  94.3976544  21.8286721  72.0676042  93.3039319  21.9892688
  70.8475775  92.5367257  35.7364004  70.2174435  93.2183538  35.9699401
  70.7411862  92.4250338  34.7917142  66.1420747  92.2039053  26.6629928
  65.3519801  92.4596581  26.1870039  66.6331994  93.0187391  26.7681969
  80.1584557  99.5444292  29.4135209  80.9802000  99.1424479  29.1317890
  80.1546959  99.4412526  30.3651325  68.0935492  92.5683632  23.6213405
  67.2966656  92.6802326  24.1396900  67.8661085  92.9070284  22.7554295
  73.9241160  99.0928335  31.5695919  73.9885593  99.5548742  32.4054091
  73.2152084  98.4625700  31.6978229  64.4258450  92.4569543  29.0944919
  64.6766488  93.3416553  29.3602495  64.9617998  92.2774145  28.3220011
  88.2490550  95.8883040  25.7620180  87.4954258  95.3190439  25.6064185
  88.3838091  95.8545705  26.7090815  73.6389178 100.7596443  21.4374900
  73.5034852 101.6047978  21.8659747  74.1798990 100.9615720  20.6740833
  70.1256517  86.8388023  38.0989255  69.7323463  86.2854221  38.7736899
  70.9422658  87.1498601  38.4895772  67.0918575  98.2771881  22.0102825
  67.6043096  99.0715131  22.1608389  67.7441288  97.5798171  21.9436426
  68.9013460 101.3937637  24.0925578  69.0780088 102.3155602  23.9046562
  69.6970293 101.0796056  24.5219958  73.0424478  88.2545902  35.6909511
  73.7834192  88.8553055  35.6113974  73.2742401  87.5123539  35.1327554
  68.1865816  93.4402269  33.9687741  68.0719331  92.5387526  34.2694840
  67.3310334  93.6865966  33.6172558  75.2657654 101.3820009  35.5675242
  74.8221508 100.5956388  35.2496146  75.9274868 101.5699160  34.9019133
  70.0244775 102.9115811  30.0935920  70.5752200 102.7832874  29.3212914
  69.1856251 103.2110700  29.7430813  77.3638892 101.6622809  33.5956643
  77.3457367 102.4831690  33.1036912  78.2858812 101.5376884  33.8206784
  73.8211946  99.1766939  34.4380151  74.3540283  98.4155227  34.2079459
  73.2926027  98.8840590  35.1804306  76.9881641  84.2827005  29.9673793
  76.6445911  85.1728646  29.8912904  77.3560604  84.0928662  29.1043378
  65.0567492  96.6060535  22.7862395  65.8942714  97.0157543  22.5696103
  65.2345760  95.6659977  22.7562589  76.9531924  94.2735616  18.4746228
  76.4378547  95.0440220  18.7134616  76.6809232  93.6000752  19.0979290
  74.5379035  89.1185317  23.5331467  73.6820631  88.7292167  23.3537105
  74.9505987  89.1977277  22.6731252  76.0678182  86.6531660  27.9323026
  75.5642977  86.6161795  27.1190832  76.3608789  87.5624403  27.9919683
  72.3121068  86.7370390  26.9389208  73.1774064  86.5413198  26.5795098
  72.3798576  86.5080741  27.8658565  81.9266198  97.0267970  20.4099402
  81.1495641  96.6879130  19.9654564  82.6057679  97.0320594  19.7354367
  76.7418227  92.1462708  20.3006009  76.4368363  92.4608857  21.1516153
  77.6948669  92.2244128  20.3433342  75.1864659  98.3052931  21.9498963
  74.6586021  97.5705691  21.6372201  74.6852162  99.0827607  21.7038932
  80.1657505  96.5001952  27.0666010  79.5081179  97.1901213  27.1546138
  80.9697904  96.8898384  27.4099996  69.9183387  88.9672597  24.3105575
  70.4927138  88.7447779  23.5778768  70.5054369  89.0361292  25.0634176
  78.9762964  94.8546324  25.1169951  79.4894846  95.4876316  25.6191661
  79.6264188  94.2547520  24.7513311  70.2452974  90.9977058  18.3301460
  69.4090286  91.3351745  18.6510735  70.1057743  90.8626038  17.3928597
  72.2206054  85.8413846  23.0380644  71.5670467  85.5262864  22.4137259
  72.1786528  85.2189587  23.7640467  73.3317259  96.1233141  14.9533936
  72.4244321  95.8922395  15.1525085  73.8288291  95.3270761  15.1407918
  76.2385338 104.8330649  17.8730623  75.5647037 105.1362345  18.4815580
  76.6251160 105.6359729  17.5236080  75.4543795  92.3295780  27.3628292
  74.5366356  92.5510727  27.2049980  75.8703938  92.4042090  26.5039999
  76.2378842  93.7287196  22.4930972  76.9850661  94.2408593  22.1838094
  76.5070432  93.4071248  23.3535366  74.5105493  96.2245736  19.4757927
  73.6016712  95.9404769  19.5730396  74.5400576  96.6444815  18.6161233
  79.7424760  99.8352326  23.2449094  79.2887087  98.9943236  23.3014285
  79.1118727 100.4713724  23.5823874  78.6857680  90.7644312  24.4749762
  77.9480436  90.2521698  24.8060004  78.9384453  90.3244693  23.6633038
  78.1857699 101.6728822  24.1798912  78.4780674 102.2333880  23.4611278
  78.6956320 101.9657383  24.9352071  78.7869307  83.5420564  25.0691531
  79.0928184  82.6817927  24.7817446  79.5121912  84.1338184  24.8690525
  65.0793663  93.9451250  23.4573129  64.8818063  93.3520611  22.7324195
  64.5240327  93.6403461  24.1749068  73.0590387  93.8374357  25.5767722
  73.1138996  92.8848193  25.5010198  72.2481589  93.9933796  26.0609020
  74.2081580  97.7654480  16.8146005  73.7701010  97.0490339  16.3551642
  74.9492021  97.9930595  16.2531096  70.9982747  92.4551417  23.3358101
  70.1850612  92.7545587  23.7423293  71.4941741  92.0607105  24.0532583
  73.1491324 102.4509174  25.2692365  73.1067503 102.6770020  24.3400897
  74.0654023 102.2172548  25.4178167  76.5956958  92.9193241  32.1672995
  76.9506346  93.1464714  33.0267460  77.2429089  93.2511618  31.5450250
  82.3254695  96.0411677  22.8722324  82.1872594  96.2313273  21.9443513
  81.9690914  96.8031060  23.3290375  70.4896821  90.0269772  28.9519336
  71.1296201  89.8858531  28.2542299  69.6574352  89.7404286  28.5757938
  82.3524075  98.1088204  27.8833595  82.7860581  98.0163493  28.7316649
  83.0655655  98.0845704  27.2453611  71.2657125  99.3272203  25.0654328
  72.0597724  98.8322523  24.8636903  70.5548818  98.7990066  24.7022034
  76.0851970 101.7090298  29.4166696  76.1388992 102.2781234  30.1844412
  75.2166751 101.8792183  29.0520733  67.5739889  93.4715284  21.1414081
  66.6437477  93.4099740  21.3584043  67.6697361  92.9491237  20.3450722
  67.4925438  89.9970097  23.7292322  67.7532255  90.9115430  23.6201483
  68.3142610  89.5294540  23.8788935  68.9650363  91.4107854  30.8991147
  69.6373416  91.2025216  30.2503796  68.1380150  91.2129940  30.4596379
  83.2139624  98.1511905  30.4166481  83.4075514  99.0557715  30.6625755
  83.1140243  97.6919324  31.2505066  74.8675935  88.0369795  32.9156808
  74.2203850  88.7359745  32.8221284  75.6376950  88.4705939  33.2833056
  78.2754733  98.3018647  35.9907361  78.1240239  98.0729199  35.0737445
  78.2659413  99.2589249  36.0038706  75.0440069  95.8750560  30.9753628
  75.9732129  96.0261720  30.8022595  74.6231099  95.9634581  30.1202274
  73.8428401  99.9001225  28.7452165  73.7039487  99.5320009  29.6178103
  73.0542997 100.4148864  28.5736123  74.4376553 105.0010321  20.0877702
  74.6128309 104.5298364  20.9023324  73.7509341 105.6276087  20.3158962
  75.3933616  99.2782827  26.1341003  75.0583449  99.2383597  27.0298653
  74.8937562  98.6127543  25.6611413  69.3677860  94.6850457  31.6593584
  69.2297658  93.9530696  32.2605123  70.2782784  94.5959357  31.3777772
  78.3292808  96.6238862  16.4078063  77.7121979  95.8985690  16.3111115
  77.8609296  97.3848222  16.0645137  71.9960161  94.3970417  31.1477264
  72.7059780  93.7563609  31.1063882  71.9529469  94.6483311  32.0703445
  79.9846940 101.3337770  34.0683843  79.9259486 100.6496990  33.4014426
  80.3866458 102.0756760  33.6164469  70.7089095  91.3835634  32.9672903
  70.1726452  90.9326373  33.6194500  70.1205803  91.5181543  32.2243368
  69.0037638 108.1499684  26.8617562  69.2434237 108.7818208  27.5396580
  68.1606835 107.7987724  27.1482921  70.1191354  90.8424286  15.5299367
  69.2420820  90.7213087  15.1661614  70.5949107  90.0510364  15.2778256
  79.9864347  99.2977354  32.2997823  79.0991126  98.9603276  32.4224222
  80.5562898  98.5660385  32.5366588  61.6393494  95.6301446  25.6240874
  62.3264534  95.3163176  25.0361889  61.4841623  96.5342810  25.3508126
  66.4428216  90.5191642  30.0525898  66.3586405  89.9117312  29.3176308
  65.6210923  91.0100661  30.0535394  73.5165500 103.9578806  29.2659066
  73.4435672 104.7633778  29.7778370  73.0742893 104.1570772  28.4407087
  73.3055280 103.1950576  22.7761887  72.5222802 103.7372256  22.8700112
  74.0048025 103.7124556  23.1756129  76.6151930  89.0045206  25.4196093
  77.1120630  88.2515168  25.0997163  75.8438912  89.0409522  24.8539302
  84.4681687  94.7085571  27.0614384  84.4571564  95.5910287  26.6908317
  83.5999067  94.3557122  26.8668921  75.9764184 103.8565640  31.4217225
  76.6892156 104.4913105  31.3493126  75.4854213 103.9529506  30.6057226
  77.6981711  97.7616893  22.9934516  76.7637990  97.8818355  22.8239221
  77.8758379  96.8589360  22.7294526  73.1986899  91.1462589  25.1467777
  72.8284686  90.5933629  25.8348683  73.6945991  90.5420722  24.5942777
  81.0854262  93.6034212  23.5284550  81.5514714  94.4362204  23.4544853
  81.5361763  93.1379194  24.2329809  71.0276097 101.6060084  32.2422795
  71.7285557 102.2396567  32.3952190  70.5571212 101.9474815  31.4818435
  79.1530493  99.9478034  20.5270702  79.4290337  99.8334628  21.4364576
  78.2834992  99.5495518  20.4882876  79.0570925  85.9714799  27.5675452
  78.1434005  86.2019026  27.7357659  79.4864026  86.0553243  28.4189484
  78.8277383  94.1604691  30.0675346  78.1748834  94.4080599  29.4127799
  79.2057763  93.3468829  29.7337823  75.7884557 104.1964384  24.1703516
  75.9706952 103.3786040  24.6331268  76.6117543 104.4132077  23.7328406
  76.1226723 103.1232569  21.4318565  76.6514489 102.6125024  20.8188727
  76.3854942 102.8075100  22.2964098  74.8764956  94.9024502  36.5541383
  74.2005593  94.8018632  37.2243758  75.6992590  94.7463716  37.0177380
  66.6243815 101.1396439  29.1753898  67.2097252 100.3940127  29.3081802
  66.4268654 101.4500395  30.0590562  69.4782471 104.1747686  24.1916340
  68.8092846 104.6593814  23.7080381  69.3395340 104.4216907  25.1059719
  61.2161470  93.7102039  27.8958341  61.2545570  93.1765630  28.6895459
  60.7101763  93.1837244  27.2769318  73.6187739 106.2091430  30.7898999
  74.1706047 106.3723051  31.5548084  73.9593933 106.7995868  30.1179024
  68.5952232  88.5566579  31.3920884  68.6593559  89.4181410  30.9798281
  68.5319353  87.9440581  30.6593242  68.0704505  90.6289712  35.0393918
  68.6976544  90.2466789  35.6531442  67.2132424  90.4103914  35.4049610
  78.4698614 101.0352687  36.6447653  79.0138518 101.6482645  36.1502608
  77.8885458 101.5932266  37.1614666  64.8470048  92.4366141  20.9712273
  65.1423489  91.5276820  20.9179326  63.9458084  92.4153881  20.6493275
  76.7556127 104.1573405  27.7762681  76.6307266 103.3563145  27.2673626
  77.4135218 104.6519599  27.2876651  68.3764295  90.5122138  26.9539821
  67.6550881  91.1258105  26.8147295  69.1657551  91.0479903  26.8756467
  78.8191035 101.9582425  29.4042231  77.8721370 101.8387776  29.3320558
  79.1673808 101.0704923  29.4868493  71.1790608  87.8476564  33.2280473
  71.7025010  88.0938861  33.9906782  70.9602942  88.6796599  32.8083610
  66.5757889  90.1180239  21.0951598  66.2470596  89.2377618  20.9126704
  66.9297260  90.0627907  21.9827987  75.8237468 101.7535142  25.6046583
  75.6762431 100.8251849  25.7854153  76.6490962 101.7755232  25.1203659
  69.6899713  90.4053209  21.4627075  70.0295785  90.9339130  20.7405684
  70.1371833  90.7433615  22.2385642  79.4271590 102.5763700  26.6911456
  80.3518138 102.3706562  26.5535907  79.2586893 102.3280101  27.6000798
  72.3843153  88.7890259  30.9130143  72.0439974  87.9898072  31.3150823
  71.6782160  89.0891970  30.3406977  73.0359625  85.8739572  29.3657467
  73.8585694  85.4000050  29.2436357  73.2797689  86.6530056  29.8656153
  71.6767860  88.9027830  19.6620368  72.3976222  89.2809083  19.1584085
  71.0533164  89.6216707  19.7655346  75.8198983  89.6072979  20.5978701
  76.0362597  90.4897617  20.2967529  75.3393050  89.2159193  19.8684343
  70.5598204  92.5658692  27.1749445  70.4142785  92.8798995  28.0673727
  70.0823408  93.1843593  26.6220344  72.4194587  89.5561240  27.2230335
  72.4056156  88.6602334  26.8862633  73.1367015  89.5631904  27.8568621
  74.2720718  89.9898581  29.2683462  74.0138495  90.9115651  29.2667793
  73.7405758  89.5929015  29.9583926  79.2166906 103.0949368  22.0473548
  79.3903784 102.5295790  21.2947400  79.7095798 103.8950263  21.8653037
  65.0343866  95.1064037  30.1137106  64.4897334  95.8823845  30.2457381
  65.9123216  95.4534841  29.9556228  71.8231483  88.4375621  22.4917905
  71.9447394  87.5092267  22.6908792  71.5333525  88.4514307  21.5796220
  74.6922673  86.1230531  25.6284625  74.7144370  86.1869864  24.6736604
  75.1090732  85.2835040  25.8225131  85.0706297  95.8585791  23.6663847
  85.5137443  95.1093116  23.2682971  84.1932808  95.8495927  23.2837579
  80.2042079 102.4116132  19.1470446  80.8992983 103.0322825  19.3657760
  80.5465229 101.5611483  19.4222824  65.8209888  94.2333933  33.0067263
  65.0791624  94.3816568  33.5931894  65.5002632  94.4942199  32.1434013
  82.1033502  99.8615838  20.6757777  82.6284826 100.2003110  19.9507097
  82.0155854  98.9262853  20.4920911  73.7653551 103.7749911  32.8047653
  74.0740677 103.5299058  33.6770353  74.5629033 103.9796550  32.3166523
  73.7874163 105.9287821  25.0353030  73.3479153 105.4364200  25.7285886
  74.5382280 105.3860789  24.7945105  66.2666502 102.1199362  25.0377658
  67.0924522 101.8203134  24.6576301  65.9160554 101.3506984  25.4867446
  71.2348035 101.4725830  27.1075331  70.6128044 100.8096535  26.8077559
  71.9052902 101.4986962  26.4248979  64.4675107 100.0385688  25.9966591
  63.6307015  99.6107863  25.8150593  64.4398752 100.2318132  26.9337383
  71.3072562  89.9507618  36.7007837  71.3560718  90.8269741  36.3185607
  71.8495076  89.4085011  36.1279481  81.7927408 100.4948741  35.9808975
  81.0022952 100.4772880  35.4413474  81.5560763 101.0337035  36.7358011
  81.9125283  97.3441208  33.2941703  81.9623288  97.1791215  34.2357226
  81.8039206  96.4768467  32.9039584  70.7961542 100.0229753  20.5833792
  70.9449662 100.7065218  19.9300465  71.6027985 100.0034843  21.0983248
  79.2029045  93.3272136  34.6101010  80.1038908  93.1878601  34.3185008
  79.2777020  93.4926591  35.5499187  73.5371851  90.7038990  33.4554196
  72.6675160  90.9972556  33.1836785  73.7731331  91.2879435  34.1761460
  83.4143480  99.7638149  33.5383725  83.1228288 100.1268130  34.3747186
  82.8015611  99.0505157  33.3597057  84.6139162  97.3291029  26.0586295
  85.4486054  97.7680833  26.2223855  84.7498291  96.8529682  25.2394541
  81.6630668  94.8870764  32.0063783  82.1384790  95.0798410  31.1982634
  80.7396233  94.9429950  31.7607166  68.5514175  96.0494931  21.5894861
  68.3060217  95.1457261  21.7875071  68.7210089  96.0512081  20.6474339
  76.2410885  86.9218607  30.9719616  76.7592828  87.6579634  30.6466105
  75.8866017  87.2282601  31.8066376  67.8209822  91.7823289  19.0881022
  67.1279067  91.8567644  18.4321058  67.5761574  91.0183632  19.6102539
  76.4923479  83.3418890  26.4920513  76.7725232  82.6742079  27.1180940
  77.2774086  83.5347985  25.9795177  74.2956947 102.5177884  18.0545539
  73.7230914 103.1368071  17.6016011  74.8689741 103.0677245  18.5885461
  80.3632337  91.7636524  30.2392088  81.3149760  91.8634622  30.2604312
  80.1935787  90.9714792  30.7490173  78.3846717  88.8492107  30.4251489
  77.7896649  89.1297120  29.7297978  78.0996413  89.3386008  31.1968230
  77.5154207 102.8015034  19.1854122  78.4484880 102.7360596  19.3886997
  77.4277420 103.6371301  18.7268654  80.1442224 102.1180904  16.1458069
  80.0655855 101.7840768  17.0393827  80.9651890 102.6102672  16.1449542
  82.8420415  94.9842644  29.3534388  82.8096735  94.0458644  29.5394072
  83.4521039  95.0626680  28.6200213  74.6803746  93.8538697  15.3961592
  75.6262850  93.7244905  15.4650010  74.3017991  93.1153358  15.8731020
  82.9914903  91.7753687  29.3992671  82.4753952  90.9912144  29.2122600
  83.8754852  91.4472404  29.5639190  80.6525630  85.5194703  25.3588484
  80.4550451  85.2109791  26.2431816  81.2625336  86.2456341  25.4886414
  88.6596965  96.0458650  28.4940425  89.3900353  95.7843939  29.0548128
  88.0503910  95.3087372  28.5342493  86.7412262  94.1866513  29.0914876
  86.0145425  94.0522478  28.4831367  86.3259549  94.4943342  29.8971594
  74.5642438  97.9056443  36.8562249  75.4845448  98.0835042  37.0502295
  74.5292021  96.9612488  36.7041948  72.8646663  91.7788673  15.3316477
  71.9578118  91.4821786  15.4079191  73.1422644  91.4818491  14.4650763
  63.7824603  93.0995036  25.7815523  63.4627388  92.2460345  25.4889897
  63.2358031  93.3143614  26.5373491  67.5604511  95.8157477  29.4985030
  67.7790521  96.7474585  29.5173064  67.9730285  95.4565452  30.2839834
  74.4808729  86.3225563  21.4860718  73.6709457  85.9772648  21.8615964
  75.1693146  86.0133106  22.0748330  76.4099277  85.4003609  23.1085015
  76.9630315  85.8199063  23.7675038  76.6469363  84.4739358  23.1507971
  72.4332376  91.3890683  38.8887779  72.3329103  92.3385040  38.8199870
  72.2153918  91.0608922  38.0163849  71.6345448  88.6375608  15.4728456
  72.4964611  88.9630506  15.7324274  71.8195792  87.8507104  14.9601522
  63.6512863  96.7197948  27.7508645  62.9576335  96.3051901  27.2378599
  64.3985854  96.7618484  27.1542064  79.7878084  87.5104135  22.6163679
  79.2076753  88.1688939  22.2341732  79.5214017  86.6881479  22.2051097
  78.2381650  86.9109192  24.8185000  78.7381429  87.0225727  24.0099318
  78.8817258  86.6070245  25.4585808  72.2963646  94.8187822  37.7052841
  71.8130728  95.6188182  37.9116730  72.3824585  94.8295767  36.7520285
  65.5649606  96.6516202  25.6274660  65.5420294  96.7503889  24.6756543
  65.8750242  97.4981352  25.9491826  68.2236984  98.7092357  29.7421274
  69.1780237  98.6776299  29.6751206  68.0249507  98.2482980  30.5571500
  68.8136366  97.2793473  32.3092072  69.6329255  97.7737551  32.3326909
  69.0873173  96.3625441  32.2809640  78.5702962  89.6704225  21.6720028
  77.6828817  89.9553876  21.4540222  78.9856951  89.5097988  20.8247304
  81.9217498  89.6950746  25.3874367  82.6977888  90.1847198  25.6598984
  81.1965632  90.1208800  25.8446236  84.3590057  90.4078365  26.4448307
  84.9534548  90.1674101  25.7341616  84.4316640  89.6885496  27.0721844
  66.5787212 104.2511976  26.7591472  66.4441680 103.4912377  26.1929470
  66.1619275 104.9752876  26.2920261  77.7146175  99.4348900  15.7668048
  78.4182026  99.6398902  16.3825703  76.9908824 100.0025662  16.0317131
  78.5443986  95.1858761  21.8870318  78.4879187  95.6427312  21.0477950
  79.0972328  94.4249446  21.7093160  82.3548792  90.9748493  22.7120437
  82.0985726  90.5745128  23.5428645  81.7301660  91.6892287  22.5870576
  86.6661130  93.7144566  25.2191729  86.1060687  93.7837755  25.9923291
  86.0604633  93.5385551  24.4991225  69.7356338 105.1481293  26.9709915
  69.6188722 106.0926726  26.8688605  68.9148785 104.8454855  27.3595714
  79.6232873  99.8731429  17.8166508  80.4578477  99.4412627  17.6343982
  79.4617216  99.7013443  18.7443402  79.2778765  96.3763542  19.1822847
  79.2227569  96.2107814  18.2411291  78.6524820  97.0839575  19.3385037
  64.0671280  91.6131607  33.0084269  64.7130144  91.1030561  33.4971494
  63.8588431  92.3500288  33.5827694  76.5924672  98.6812454  38.5076410
  77.4615832  98.8553106  38.1463045  76.1131424  99.5006871  38.3852139
  72.5874891  85.8771651  18.7608165  72.5753560  86.8213491  18.9176436
  73.4798312  85.6941797  18.4667626  70.7610852 105.8009555  30.1865843
  71.6638099 105.8333165  30.5032338  70.5348223 104.8710006  30.2012179
  72.5164454 104.5540542  26.8475922  71.5660085 104.5542403  26.7340294
  72.8196941 103.8073276  26.3311957  76.4027010  82.4714428  23.0154102
  75.6359406  81.9172915  23.1610784  76.8137715  82.5436297  23.8768254
  68.4068771  88.7599224  37.1059283  69.2700233  88.4036028  37.3162608
  67.8334182  88.4213118  37.7934688  88.2517148 110.3901080  27.9121684
  88.8895558 110.2707827  27.2085024  88.1337991 111.3381924  27.9709636
  85.0606854 110.3428508  27.8483209  84.7225366 110.2269573  26.9603744
  85.9296622 109.9419673  27.8284215  80.9193670 112.1963984  23.8380100
  80.3558535 112.1053921  23.0696388  80.8046065 111.3763889  24.3182593
  85.5426637 111.4963360  33.8069415  85.5315278 111.1016158  32.9349918
  85.7047277 110.7629432  34.4003186  78.4658102 113.6915176  26.6764320
  79.2579394 113.3506001  26.2610620  78.7054752 113.8010151  27.5966474
  86.4993229 115.8634952  19.1494565  85.8481208 116.4489033  18.7628579
  87.2937591 116.3941147  19.2089602  80.4248856 112.9524089  19.5481699
  81.1979732 112.4053076  19.4094575  80.7774255 113.8168339  19.7596161
  82.2633898 114.2800472  32.7548599  81.9723764 115.1846102  32.6395265
  82.8990883 114.3216999  33.4692668  83.1890105 111.6577320  29.3449958
  83.7853677 111.4333343  28.6306921  83.2465077 110.9162066  29.9475406
  82.7615134 109.1116755  17.1800149  83.0140654 108.5898277  16.4183612
  81.8239693 108.9482901  17.2826833  87.8058416 108.1152534  24.9874892
  88.5921506 107.6971957  24.6365309  88.0697121 109.0198626  25.1556541
  87.9768494 113.5525384  19.6863549  87.3414327 113.6260011  20.3984454
  87.6465900 114.1418983  19.0082628  93.2066844 108.0527767  25.8907871
  93.9392016 107.4826984  26.1245700  92.4506199 107.6649367  26.3314376
  82.4811422 111.0144861  19.3824524  82.3647680 110.3389765  20.0505608
  82.5913682 110.5277235  18.5656677  84.8242963 110.4755009  23.0871213
  84.4601171 109.9485629  23.7984135  85.6810079 110.0853478  22.9137699
  90.7292264 101.7649341  30.3502479  90.3975589 102.6344752  30.1263694
  90.1337877 101.4485625  31.0296510  84.4648450 105.5044908  18.0832562
  84.6322853 106.3725145  18.4503033  84.2745619 105.6672190  17.1593851
  87.2223783 113.9661887  29.7498392  86.9224507 114.8686926  29.6414199
  86.8774843 113.6994070  30.6019545  80.6736265 110.4175684  25.7835097
  79.7486761 110.2851898  25.9912788  80.9220678 111.1969903  26.2805039
  90.6220927 106.4844427  27.4295830  89.7137805 106.4159836  27.1354591
  90.5708523 106.9616372  28.2577655  84.4437671 107.9602566  19.0679229
  84.3237296 108.4059616  19.9064709  83.7490260 108.3087883  18.5092767
  78.0345076 110.0608958  26.6178886  78.1637457 110.3143436  27.5318297
  77.3542527 110.6536666  26.2983541  82.2044563 120.7306207  22.7169360
  82.1268593 121.6814033  22.7957840  81.6006207 120.3852080  23.3744286
  84.6961793 107.9034073  35.3730727  83.9195127 108.4627993  35.3633591
  85.3352356 108.3890856  35.8945597  92.4882574 104.6860866  29.2073703
  91.8456954 104.9793399  28.5613498  91.9837502 104.5713786  30.0126900
  90.1422737 108.4324039  19.8959563  91.0540593 108.6651426  19.7207260
  89.6332384 109.0161083  19.3334641  82.9508165 110.7119526  34.9348694
  83.6922850 111.2504570  34.6583517  82.2445151 111.3385815  35.0920246
  88.4263505 112.8548667  33.5320855  88.8346861 112.4131077  32.7875488
  87.7040766 112.2801294  33.7855048  84.7794575 107.7921273  30.9054412
  85.6255770 108.2160687  31.0489061  84.7193213 107.1354898  31.5992975
  88.7492320 113.4149857  27.2873144  88.1201182 113.5795571  26.5849212
  88.3617982 113.8291467  28.0584108  92.6281552 114.3504295  24.6417508
  91.9432590 114.7303197  24.0914541  92.7125401 114.9599622  25.3749456
  87.9294020 105.4525642  32.5635586  87.6854952 106.2067702  32.0269862
  88.2053951 105.8310989  33.3982833  89.8832483 111.9964254  31.2412851
  90.0949378 112.6396014  30.5647233  89.8362231 111.1626571  30.7734782
  87.4858712 104.6082075  28.1449424  86.6243191 104.9063328  28.4366161
  87.5121147 104.8252474  27.2130456  84.3020281 113.1524265  24.5523229
  84.7658627 113.4311968  23.7627852  84.0377080 112.2507710  24.3696320
  81.1944363 112.6995747  27.4902993  81.7645720 113.1283015  26.8520477
  81.7852474 112.4178332  28.1887178  83.2389168 109.2747418  21.3612794
  83.9413211 109.7268461  21.8286721  82.9069796 108.6331237  21.9892688
  81.6869529 107.8659174  35.7364004  81.0568190 108.5475455  35.9699401
  81.5805617 107.7542256  34.7917142  76.9814502 107.5330970  26.6629928
  76.1913555 107.7888499  26.1870039  77.4725749 108.3479308  26.7681969
  90.9978311 114.8736210  29.4135209  91.8195755 114.4716397  29.1317890
  90.9940714 114.7704444  30.3651325  78.9329247 107.8975550  23.6213405
  78.1360410 108.0094244  24.1396900  78.7054839 108.2362202  22.7554295
  84.7634915 114.4220253  31.5695919  84.8279347 114.8840660  32.4054091
  84.0545838 113.7917618  31.6978229  75.2652204 107.7861461  29.0944919
  75.5160243 108.6708471  29.3602495  75.8011753 107.6066062  28.3220011
  99.0884304 111.2174958  25.7620180  98.3348013 110.6482356  25.6064185
  99.2231845 111.1837623  26.7090815  84.4782932 116.0888360  21.4374900
  84.3428607 116.9339896  21.8659747  85.0192745 116.2907638  20.6740833
  80.9650272 102.1679940  38.0989255  80.5717217 101.6146139  38.7736899
  81.7816412 102.4790519  38.4895772  77.9312330 113.6063798  22.0102825
  78.4436850 114.4007049  22.1608389  78.5835042 112.9090089  21.9436426
  79.7407214 116.7229555  24.0925578  79.9173843 117.6447519  23.9046562
  80.5364048 116.4087974  24.5219958  83.8818233 103.5837819  35.6909511
  84.6227946 104.1844972  35.6113974  84.1136156 102.8415457  35.1327554
  79.0259571 108.7694187  33.9687741  78.9113086 107.8679444  34.2694840
  78.1704089 109.0157883  33.6172558  86.1051409 116.7111927  35.5675242
  85.6615263 115.9248305  35.2496146  86.7668622 116.8991077  34.9019133
  80.8638530 118.2407729  30.0935920  81.4145955 118.1124792  29.3212914
  80.0250006 118.5402618  29.7430813  88.2032647 116.9914727  33.5956643
  88.1851122 117.8123608  33.1036912  89.1252567 116.8668802  33.8206784
  84.6605701 114.5058856  34.4380151  85.1934038 113.7447145  34.2079459
  84.1319782 114.2132508  35.1804306  87.8275396  99.6118922  29.9673793
  87.4839665 100.5020564  29.8912904  88.1954358  99.4220580  29.1043378
  75.8961246 111.9352453  22.7862395  76.7336468 112.3449461  22.5696103
  76.0739514 110.9951895  22.7562589  87.7925678 109.6027533  18.4746228
  87.2772302 110.3732138  18.7134616  87.5202987 108.9292670  19.0979290
  85.3772789 104.4477234  23.5331467  84.5214386 104.0584085  23.3537105
  85.7899741 104.5269195  22.6731252  86.9071936 101.9823577  27.9323026
  86.4036732 101.9453713  27.1190832  87.2002543 102.8916320  27.9919683
  83.1514822 102.0662307  26.9389208  84.0167819 101.8705116  26.5795098
  83.2192331 101.8372659  27.8658565  92.7659953 112.3559888  20.4099402
  91.9889395 112.0171048  19.9654564  93.4451434 112.3612511  19.7354367
  87.5811982 107.4754626  20.3006009  87.2762117 107.7900775  21.1516153
  88.5342424 107.5536045  20.3433342  86.0258413 113.6344849  21.9498963
  85.4979775 112.8997608  21.6372201  85.5245916 114.4119525  21.7038932
  91.0051259 111.8293869  27.0666010  90.3474934 112.5193131  27.1546138
  91.8091659 112.2190301  27.4099996  80.7577141 104.2964515  24.3105575
  81.3320893 104.0739697  23.5778768  81.3448124 104.3653210  25.0634176
  89.8156718 110.1838242  25.1169951  90.3288600 110.8168234  25.6191661
  90.4657942 109.5839438  24.7513311  81.0846728 106.3268976  18.3301460
  80.2484040 106.6643663  18.6510735  80.9451498 106.1917956  17.3928597
  83.0599809 101.1705764  23.0380644  82.4064221 100.8554781  22.4137259
  83.0180283 100.5481504  23.7640467  84.1711014 111.4525059  14.9533936
  83.2638075 111.2214313  15.1525085  84.6682046 110.6562678  15.1407918
  87.0779093 120.1622566  17.8730623  86.4040791 120.4654263  18.4815580
  87.4644915 120.9651647  17.5236080  86.2937549 107.6587698  27.3628292
  85.3760111 107.8802645  27.2049980  86.7097693 107.7334008  26.5039999
  87.0772597 109.0579113  22.4930972  87.8244416 109.5700510  22.1838094
  87.3464186 108.7363166  23.3535366  85.3499247 111.5537654  19.4757927
  84.4410466 111.2696687  19.5730396  85.3794331 111.9736733  18.6161233
  90.5818515 115.1644243  23.2449094  90.1280842 114.3235153  23.3014285
  89.9512481 115.8005642  23.5823874  89.5251434 106.0936229  24.4749762
  88.7874191 105.5813616  24.8060004  89.7778208 105.6536611  23.6633038
  89.0251454 117.0020740  24.1798912  89.3174428 117.5625797  23.4611278
  89.5350074 117.2949301  24.9352071  89.6263061  98.8712481  25.0691531
  89.9321938  98.0109845  24.7817446  90.3515666  99.4630102  24.8690525
  75.9187417 109.2743168  23.4573129  75.7211817 108.6812529  22.7324195
  75.3634081 108.9695378  24.1749068  83.8984141 109.1666275  25.5767722
  83.9532751 108.2140111  25.5010198  83.0875343 109.3225714  26.0609020
  85.0475335 113.0946398  16.8146005  84.6094765 112.3782257  16.3551642
  85.7885776 113.3222512  16.2531096  81.8376501 107.7843334  23.3358101
  81.0244367 108.0837505  23.7423293  82.3335495 107.3899023  24.0532583
  83.9885079 117.7801091  25.2692365  83.9461258 118.0061938  24.3400897
  84.9047778 117.5464466  25.4178167  87.4350713 108.2485159  32.1672995
  87.7900100 108.4756632  33.0267460  88.0822844 108.5803536  31.5450250
  93.1648450 111.3703595  22.8722324  93.0266348 111.5605191  21.9443513
  92.8084668 112.1322977  23.3290375  81.3290576 105.3561690  28.9519336
  81.9689955 105.2150449  28.2542299  80.4968106 105.0696203  28.5757938
  93.1917829 113.4380122  27.8833595  93.6254336 113.3455411  28.7316649
  93.9049410 113.4137622  27.2453611  82.1050880 114.6564120  25.0654328
  82.8991478 114.1614440  24.8636903  81.3942572 114.1281983  24.7022034
  86.9245724 117.0382216  29.4166696  86.9782746 117.6073152  30.1844412
  86.0560506 117.2084101  29.0520733  78.4133643 108.8007202  21.1414081
  77.4831231 108.7391657  21.3584043  78.5091115 108.2783155  20.3450722
  78.3319192 105.3262015  23.7292322  78.5926010 106.2407348  23.6201483
  79.1536365 104.8586457  23.8788935  79.8044118 106.7399772  30.8991147
  80.4767171 106.5317134  30.2503796  78.9773904 106.5421858  30.4596379
  94.0533379 113.4803822  30.4166481  94.2469269 114.3849633  30.6625755
  93.9533997 113.0211241  31.2505066  85.7069690 103.3661713  32.9156808
  85.0597605 104.0651663  32.8221284  86.4770705 103.7997857  33.2833056
  89.1148488 113.6310565  35.9907361  88.9633994 113.4021117  35.0737445
  89.1053167 114.5881166  36.0038706  85.8833824 111.2042478  30.9753628
  86.8125884 111.3553637  30.8022595  85.4624854 111.2926499  30.1202274
  84.6822156 115.2293142  28.7452165  84.5433241 114.8611927  29.6178103
  83.8936752 115.7440782  28.5736123  85.2770308 120.3302239  20.0877702
  85.4522063 119.8590282  20.9023324  84.5903096 120.9568005  20.3158962
  86.2327371 114.6074745  26.1341003  85.8977203 114.5675515  27.0298653
  85.7331317 113.9419461  25.6611413  80.2071615 110.0142375  31.6593584
  80.0691413 109.2822614  32.2605123  81.1176538 109.9251275  31.3777772
  89.1686563 111.9530779  16.4078063  88.5515733 111.2277607  16.3111115
  88.7003051 112.7140140  16.0645137  82.8353915 109.7262334  31.1477264
  83.5453534 109.0855526  31.1063882  82.7923224 109.9775229  32.0703445
  90.8240694 116.6629688  34.0683843  90.7653240 115.9788908  33.4014426
  91.2260213 117.4048678  33.6164469  81.5482849 106.7127552  32.9672903
  81.0120206 106.2618291  33.6194500  80.9599558 106.8473461  32.2243368
  79.8431393 123.4791601  26.8617562  80.0827991 124.1110126  27.5396580
  79.0000589 123.1279641  27.1482921  80.9585108 106.1716204  15.5299367
  80.0814575 106.0505004  15.1661614  81.4342861 105.3802282  15.2778256
  90.8258101 114.6269272  32.2997823  89.9384880 114.2895193  32.4224222
  91.3956652 113.8952303  32.5366588  72.4787249 110.9593363  25.6240874
  73.1658288 110.6455093  25.0361889  72.3235377 111.8634728  25.3508126
  77.2821971 105.8483560  30.0525898  77.1980159 105.2409229  29.3176308
  76.4604677 106.3392578  30.0535394  84.3559255 119.2870724  29.2659066
  84.2829426 120.0925695  29.7778370  83.9136648 119.4862690  28.4407087
  84.1449034 118.5242494  22.7761887  83.3616556 119.0664174  22.8700112
  84.8441780 119.0416474  23.1756129  87.4545685 104.3337123  25.4196093
  87.9514384 103.5807086  25.0997163  86.6832666 104.3701440  24.8539302
  95.3075442 110.0377489  27.0614384  95.2965318 110.9202204  26.6908317
  94.4392821 109.6849040  26.8668921  86.8157938 119.1857558  31.4217225
  87.5285911 119.8205023  31.3493126  86.3247967 119.2821424  30.6057226
  88.5375465 113.0908811  22.9934516  87.6031744 113.2110273  22.8239221
  88.7152134 112.1881277  22.7294526  84.0380653 106.4754506  25.1467777
  83.6678441 105.9225547  25.8348683  84.5339746 105.8712640  24.5942777
  91.9248017 108.9326130  23.5284550  92.3908469 109.7654121  23.4544853
  92.3755517 108.4671111  24.2329809  81.8669852 116.9352001  32.2422795
  82.5679311 117.5688484  32.3952190  81.3964967 117.2766733  31.4818435
  89.9924248 115.2769951  20.5270702  90.2684092 115.1626546  21.4364576
  89.1228746 114.8787436  20.4882876  89.8964679 101.3006717  27.5675452
  88.9827759 101.5310944  27.7357659  90.3257781 101.3845161  28.4189484
  89.6671138 109.4896609  30.0675346  89.0142588 109.7372516  29.4127799
  90.0451518 108.6760747  29.7337823  86.6278312 119.5256302  24.1703516
  86.8100706 118.7077958  24.6331268  87.4511298 119.7423994  23.7328406
  86.9620477 118.4524487  21.4318565  87.4908244 117.9416942  20.8188727
  87.2248697 118.1367017  22.2964098  85.7158711 110.2316420  36.5541383
  85.0399348 110.1310549  37.2243758  86.5386345 110.0755634  37.0177380
  77.4637570 116.4688356  29.1753898  78.0491007 115.7232044  29.3081802
  77.2662408 116.7792313  30.0590562  80.3176225 119.5039604  24.1916340
  79.6486600 119.9885731  23.7080381  80.1789095 119.7508824  25.1059719
  72.0555225 109.0393957  27.8958341  72.0939324 108.5057547  28.6895459
  71.5495518 108.5129162  27.2769318  84.4581494 121.5383347  30.7898999
  85.0099802 121.7014969  31.5548084  84.7987687 122.1287785  30.1179024
  79.4345987 103.8858497  31.3920884  79.4987313 104.7473328  30.9798281
  79.3713107 103.2732499  30.6593242  78.9098260 105.9581630  35.0393918
  79.5370298 105.5758707  35.6531442  78.0526178 105.7395832  35.4049610
  89.3092368 116.3644605  36.6447653  89.8532272 116.9774563  36.1502608
  88.7279213 116.9224183  37.1614666  75.6863802 107.7658059  20.9712273
  75.9817243 106.8568737  20.9179326  74.7851838 107.7445798  20.6493275
  87.5949881 119.4865323  27.7762681  87.4701020 118.6855063  27.2673626
  88.2528972 119.9811516  27.2876651  79.2158049 105.8414055  26.9539821
  78.4944635 106.4550023  26.8147295  80.0051305 106.3771820  26.8756467
  89.6584789 117.2874343  29.4042231  88.7115125 117.1679694  29.3320558
  90.0067563 116.3996841  29.4868493  82.0184363 103.1768482  33.2280473
  82.5418765 103.4230778  33.9906782  81.7996696 104.0088517  32.8083610
  77.4151644 105.4472156  21.0951598  77.0864350 104.5669535  20.9126704
  77.7691015 105.3919825  21.9827987  86.6631223 117.0827059  25.6046583
  86.5156185 116.1543767  25.7854153  87.4884716 117.1047150  25.1203659
  80.5293467 105.7345126  21.4627075  80.8689540 106.2631048  20.7405684
  80.9765587 106.0725532  22.2385642  90.2665345 117.9055618  26.6911456
  91.1911892 117.6998479  26.5535907  90.0980648 117.6572019  27.6000798
  83.2236908 104.1182177  30.9130143  82.8833728 103.3189990  31.3150823
  82.5175914 104.4183888  30.3406977  83.8753380 101.2031489  29.3657467
  84.6979449 100.7291968  29.2436357  84.1191443 101.9821973  29.8656153
  82.5161614 104.2319748  19.6620368  83.2369977 104.6101001  19.1584085
  81.8926918 104.9508625  19.7655346  86.6592737 104.9364897  20.5978701
  86.8756351 105.8189535  20.2967529  86.1786804 104.5451110  19.8684343
  81.3991958 107.8950610  27.1749445  81.2536539 108.2090913  28.0673727
  80.9217162 108.5135510  26.6220344  83.2588341 104.8853158  27.2230335
  83.2449910 103.9894251  26.8862633  83.9760769 104.8923822  27.8568621
  85.1114472 105.3190498  29.2683462  84.8532250 106.2407569  29.2667793
  84.5799512 104.9220933  29.9583926  90.0560661 118.4241285  22.0473548
  90.2297538 117.8587708  21.2947400  90.5489552 119.2242180  21.8653037
  75.8737621 110.4355954  30.1137106  75.3291089 111.2115762  30.2457381
  76.7516970 110.7826759  29.9556228  82.6625237 103.7667538  22.4917905
  82.7841148 102.8384185  22.6908792  82.3727280 103.7806224  21.5796220
  85.5316428 101.4522449  25.6284625  85.5538124 101.5161782  24.6736604
  85.9484487 100.6126957  25.8225131  95.9100052 111.1877708  23.6663847
  96.3531198 110.4385034  23.2682971  95.0326562 111.1787845  23.2837579
  91.0435833 117.7408050  19.1470446  91.7386738 118.3614742  19.3657760
  91.3858983 116.8903401  19.4222824  76.6603642 109.5625851  33.0067263
  75.9185378 109.7108486  33.5931894  76.3396387 109.8234116  32.1434013
  92.9427256 115.1907755  20.6757777  93.4678580 115.5295028  19.9507097
  92.8549609 114.2554771  20.4920911  84.6047305 119.1041829  32.8047653
  84.9134432 118.8590976  33.6770353  85.4022787 119.3088467  32.3166523
  84.6267917 121.2579739  25.0353030  84.1872907 120.7656117  25.7285886
  85.3776034 120.7152706  24.7945105  77.1060256 117.4491279  25.0377658
  77.9318276 117.1495051  24.6576301  76.7554308 116.6798902  25.4867446
  82.0741789 116.8017748  27.1075331  81.4521799 116.1388453  26.8077559
  82.7446656 116.8278880  26.4248979  75.3068861 115.3677606  25.9966591
  74.4700769 114.9399780  25.8150593  75.2792507 115.5610049  26.9337383
  82.1466317 105.2799536  36.7007837  82.1954472 106.1561658  36.3185607
  82.6888831 104.7376929  36.1279481  92.6321162 115.8240659  35.9808975
  91.8416706 115.8064798  35.4413474  92.3954517 116.3628953  36.7358011
  92.7519037 112.6733125  33.2941703  92.8017042 112.5083133  34.2357226
  92.6432961 111.8060384  32.9039584  81.6355296 115.3521671  20.5833792
  81.7843417 116.0357135  19.9300465  82.4421740 115.3326761  21.0983248
  90.0422800 108.6564053  34.6101010  90.9432663 108.5170518  34.3185008
  90.1170774 108.8218508  35.5499187  84.3765605 106.0330908  33.4554196
  83.5068915 106.3264474  33.1836785  84.6125086 106.6171353  34.1761460
  94.2537234 115.0930067  33.5383725  93.9622043 115.4560047  34.3747186
  93.6409366 114.3797075  33.3597057  95.4532917 112.6582947  26.0586295
  96.2879808 113.0972751  26.2223855  95.5892045 112.1821600  25.2394541
  92.5024423 110.2162681  32.0063783  92.9778544 110.4090328  31.1982634
  91.5789988 110.2721867  31.7607166  79.3907929 111.3786849  21.5894861
  79.1453971 110.4749179  21.7875071  79.5603844 111.3803999  20.6474339
  87.0804639 102.2510525  30.9719616  87.5986583 102.9871552  30.6466105
  86.7259772 102.5574518  31.8066376  78.6603577 107.1115206  19.0881022
  77.9672822 107.1859561  18.4321058  78.4155329 106.3475550  19.6102539
  87.3317233  98.6710808  26.4920513  87.6118987  98.0033997  27.1180940
  88.1167840  98.8639903  25.9795177  85.1350702 117.8469801  18.0545539
  84.5624669 118.4659989  17.6016011  85.7083495 118.3969163  18.5885461
  91.2026092 107.0928442  30.2392088  92.1543514 107.1926539  30.2604312
  91.0329542 106.3006710  30.7490173  89.2240471 104.1784025  30.4251489
  88.6290403 104.4589037  29.7297978  88.9390168 104.6677926  31.1968230
  88.3547961 118.1306952  19.1854122  89.2878635 118.0652513  19.3886997
  88.2671174 118.9663218  18.7268654  90.9835978 117.4472822  16.1458069
  90.9049610 117.1132686  17.0393827  91.8045645 117.9394590  16.1449542
  93.6814169 110.3134561  29.3534388  93.6490489 109.3750562  29.5394072
  94.2914793 110.3918598  28.6200213  85.5197500 109.1830614  15.3961592
  86.4656605 109.0536822  15.4650010  85.1411745 108.4445276  15.8731020
  93.8308658 107.1045605  29.3992671  93.3147706 106.3204061  29.2122600
  94.7148606 106.7764321  29.5639190  91.4919385 100.8486620  25.3588484
  91.2944206 100.5401708  26.2431816  92.1019090 101.5748259  25.4886414
  99.4990719 111.3750568  28.4940425 100.2294108 111.1135856  29.0548128
  98.8897665 110.6379290  28.5342493  97.5806016 109.5158431  29.0914876
  96.8539180 109.3814396  28.4831367  97.1653303 109.8235259  29.8971594
  85.4036193 113.2348360  36.8562249  86.3239202 113.4126959  37.0502295
  85.3685776 112.2904406  36.7041948  83.7040417 107.1080591  15.3316477
  82.7971873 106.8113703  15.4079191  83.9816398 106.8110409  14.4650763
  74.6218358 108.4286954  25.7815523  74.3021142 107.5752262  25.4889897
  74.0751786 108.6435532  26.5373491  78.3998265 111.1449395  29.4985030
  78.6184275 112.0766503  29.5173064  78.8124039 110.7857369  30.2839834
  85.3202483 101.6517480  21.4860718  84.5103211 101.3064565  21.8615964
  86.0086900 101.3425024  22.0748330  87.2493031 100.7295527  23.1085015
  87.8024070 101.1490981  23.7675038  87.4863118  99.8031275  23.1507971
  83.2726131 106.7182601  38.8887779  83.1722858 107.6676958  38.8199870
  83.0547673 106.3900840  38.0163849  82.4739202 103.9667526  15.4728456
  83.3358366 104.2922424  15.7324274  82.6589546 103.1799022  14.9601522
  74.4906618 112.0489865  27.7508645  73.7970089 111.6343818  27.2378599
  75.2379609 112.0910402  27.1542064  90.6271838 102.8396052  22.6163679
  90.0470508 103.4980856  22.2341732  90.3607771 102.0173397  22.2051097
  89.0775405 102.2401110  24.8185000  89.5775183 102.3517645  24.0099318
  89.7211013 101.9362163  25.4585808  83.1357401 110.1479740  37.7052841
  82.6524482 110.9480100  37.9116730  83.2218340 110.1587684  36.7520285
  76.4043360 111.9808119  25.6274660  76.3814048 112.0795807  24.6756543
  76.7143997 112.8273270  25.9491826  79.0630738 114.0384274  29.7421274
  80.0173992 114.0068217  29.6751206  78.8643262 113.5774898  30.5571500
  79.6530120 112.6085390  32.3092072  80.4723009 113.1029469  32.3326909
  79.9266928 111.6917358  32.2809640  89.4096716 104.9996143  21.6720028
  88.5222572 105.2845793  21.4540222  89.8250706 104.8389906  20.8247304
  92.7611253 105.0242664  25.3874367  93.5371643 105.5139116  25.6598984
  92.0359387 105.4500718  25.8446236  95.1983811 105.7370283  26.4448307
  95.7928302 105.4966019  25.7341616  95.2710395 105.0177413  27.0721844
  77.4180967 119.5803894  26.7591472  77.2835435 118.8204295  26.1929470
  77.0013029 120.3044794  26.2920261  88.5539930 114.7640817  15.7668048
  89.2575780 114.9690820  16.3825703  87.8302579 115.3317579  16.0317131
  89.3837740 110.5150679  21.8870318  89.3272942 110.9719230  21.0477950
  89.9366083 109.7541363  21.7093160  93.1942546 106.3040410  22.7120437
  92.9379480 105.9037046  23.5428645  92.5695414 107.0184204  22.5870576
  97.5054884 109.0436484  25.2191729  96.9454442 109.1129673  25.9923291
  96.8998387 108.8677468  24.4991225  80.5750093 120.4773211  26.9709915
  80.4582477 121.4218643  26.8688605  79.7542539 120.1746772  27.3595714
  90.4626627 115.2023347  17.8166508  91.2972231 114.7704545  17.6343982
  90.3010970 115.0305360  18.7443402  90.1172520 111.7055460  19.1822847
  90.0621323 111.5399731  18.2411291  89.4918575 112.4131493  19.3385037
  74.9065035 106.9423524  33.0084269  75.5523898 106.4322478  33.4971494
  74.6982186 107.6792206  33.5827694  87.4318427 114.0104372  38.5076410
  88.3009586 114.1845024  38.1463045  86.9525178 114.8298789  38.3852139
  83.4268645 101.2063569  18.7608165  83.4147315 102.1505409  18.9176436
  84.3192067 101.0233714  18.4667626  81.6004607 121.1301473  30.1865843
  82.5031854 121.1625083  30.5032338  81.3741977 120.2001924  30.2012179
  83.3558209 119.8832459  26.8475922  82.4053840 119.8834321  26.7340294
  83.6590695 119.1365194  26.3311957  87.2420764  97.8006345  23.0154102
  86.4753160  97.2464832  23.1610784  87.6531469  97.8728214  23.8768254
  79.2462526 104.0891141  37.1059283  80.1093987 103.7327946  37.3162608
  78.6727936 103.7505036  37.7934688  99.0910902 125.7192998  27.9121684
  99.7289312 125.5999745  27.2085024  98.9731745 126.6673842  27.9709636
  95.9000609 125.6720426  27.8483209  95.5619120 125.5561490  26.9603744
  96.7690377 125.2711591  27.8284215  91.7587424 127.5255902  23.8380100
  91.1952290 127.4345839  23.0696388  91.6439819 126.7055807  24.3182593
  96.3820392 126.8255277  33.8069415  96.3709032 126.4308076  32.9349918
  96.5441031 126.0921350  34.4003186  89.3051856 129.0207094  26.6764320
  90.0973148 128.6797918  26.2610620  89.5448507 129.1302069  27.5966474
  91.2642610 128.2816007  19.5481699  92.0373486 127.7344994  19.4094575
  91.6168009 129.1460256  19.7596161  93.1027653 129.6092389  32.7548599
  92.8117519 130.5138020  32.6395265  93.7384637 129.6508917  33.4692668
  94.0283860 126.9869238  29.3449958  94.6247432 126.7625260  28.6306921
  94.0858831 126.2453983  29.9475406  93.6008888 124.4408673  17.1800149
  93.8534409 123.9190194  16.4183612  92.6633447 124.2774819  17.2826833
  98.6452171 123.4444451  24.9874892  99.4315260 123.0263875  24.6365309
  98.9090875 124.3490544  25.1556541  98.8162248 128.8817302  19.6863549
  98.1808081 128.9551928  20.3984454  98.4859655 129.4710901  19.0082628
 104.0460598 123.3819685  25.8907871 104.7785770 122.8118902  26.1245700
 103.2899954 122.9941285  26.3314376  93.3205177 126.3436779  19.3824524
  93.2041435 125.6681682  20.0505608  93.4307437 125.8569153  18.5656677
  95.6636718 125.8046926  23.0871213  95.2994925 125.2777547  23.7984135
  96.5203834 125.4145395  22.9137699 101.5686018 117.0941259  30.3502479
 101.2369343 117.9636670  30.1263694 100.9731632 116.7777543  31.0296510
  95.3042205 120.8336826  18.0832562  95.4716607 121.7017062  18.4503033
  95.1139374 120.9964108  17.1593851  98.0617538 129.2953805  29.7498392
  97.7618261 130.1978844  29.6414199  97.7168597 129.0285988  30.6019545
  91.5130019 125.7467602  25.7835097  90.5880516 125.6143816  25.9912788
  91.7614433 126.5261821  26.2805039 101.4614682 121.8136345  27.4295830
 100.5531559 121.7451753  27.1354591 101.4102278 122.2908290  28.2577655
  95.2831426 123.2894483  19.0679229  95.1631051 123.7351534  19.9064709
  94.5884014 123.6379801  18.5092767  88.8738830 125.3900875  26.6178886
  89.0031212 125.6435354  27.5318297  88.1936282 125.9828583  26.2983541
  93.0438318 136.0598125  22.7169360  92.9662347 137.0105950  22.7957840
  92.4399961 135.7143998  23.3744286  95.5355548 123.2325991  35.3730727
  94.7588882 123.7919911  35.3633591  96.1746111 123.7182774  35.8945597
 103.3276328 120.0152783  29.2073703 102.6850708 120.3085317  28.5613498
 102.8231257 119.9005704  30.0126900 100.9816492 123.7615957  19.8959563
 101.8934348 123.9943343  19.7207260 100.4726139 124.3453001  19.3334641
  93.7901920 126.0411444  34.9348694  94.5316604 126.5796488  34.6583517
  93.0838905 126.6677733  35.0920246  99.2657259 128.1840584  33.5320855
  99.6740615 127.7422995  32.7875488  98.5434521 127.6093212  33.7855048
  95.6188330 123.1213191  30.9054412  96.4649525 123.5452605  31.0489061
  95.5586967 122.4646815  31.5992975  99.5886074 128.7441775  27.2873144
  98.9594937 128.9087489  26.5849212  99.2011736 129.1583385  28.0584108
 103.4675306 129.6796213  24.6417508 102.7826344 130.0595114  24.0914541
 103.5519155 130.2891540  25.3749456  98.7687775 120.7817560  32.5635586
  98.5248707 121.5359620  32.0269862  99.0447705 121.1602907  33.3982833
 100.7226238 127.3256172  31.2412851 100.9343133 127.9687932  30.5647233
 100.6755986 126.4918488  30.7734782  98.3252467 119.9373993  28.1449424
  97.4636946 120.2355246  28.4366161  98.3514901 120.1544391  27.2130456
  95.1414036 128.4816183  24.5523229  95.6052382 128.7603886  23.7627852
  94.8770834 127.5799628  24.3696320  92.0338117 128.0287665  27.4902993
  92.6039474 128.4574933  26.8520477  92.6246229 127.7470249  28.1887178
  94.0782922 124.6039335  21.3612794  94.7806965 125.0560379  21.8286721
  93.7463551 123.9623154  21.9892688  92.5263284 123.1951092  35.7364004
  91.8961944 123.8767373  35.9699401  92.4199371 123.0834174  34.7917142
  87.8208256 122.8622888  26.6629928  87.0307310 123.1180417  26.1870039
  88.3119503 123.6771226  26.7681969 101.8372066 130.2028127  29.4135209
 102.6589509 129.8008315  29.1317890 101.8334468 130.0996361  30.3651325
  89.7723001 123.2267467  23.6213405  88.9754165 123.3386162  24.1396900
  89.5448594 123.5654120  22.7554295  95.6028669 129.7512171  31.5695919
  95.6673102 130.2132578  32.4054091  94.8939593 129.1209536  31.6978229
  86.1045959 123.1153379  29.0944919  86.3553997 124.0000389  29.3602495
  86.6405507 122.9357980  28.3220011 109.9278059 126.5466876  25.7620180
 109.1741767 125.9774274  25.6064185 110.0625600 126.5129540  26.7090815
  95.3176687 131.4180278  21.4374900  95.1822361 132.2631814  21.8659747
  95.8586499 131.6199556  20.6740833  91.8044026 117.4971858  38.0989255
  91.4110972 116.9438057  38.7736899  92.6210167 117.8082436  38.4895772
  88.7706084 128.9355716  22.0102825  89.2830605 129.7298966  22.1608389
  89.4228797 128.2382007  21.9436426  90.5800969 132.0521472  24.0925578
  90.7567597 132.9739437  23.9046562  91.3757802 131.7379892  24.5219958
  94.7211987 118.9129737  35.6909511  95.4621701 119.5136890  35.6113974
  94.9529910 118.1707375  35.1327554  89.8653325 124.0986104  33.9687741
  89.7506840 123.1971362  34.2694840  89.0097843 124.3449801  33.6172558
  96.9445163 132.0403845  35.5675242  96.5009017 131.2540223  35.2496146
  97.6062377 132.2282995  34.9019133  91.7032284 133.5699646  30.0935920
  92.2539709 133.4416710  29.3212914  90.8643760 133.8694535  29.7430813
  99.0426401 132.3206645  33.5956643  99.0244876 133.1415526  33.1036912
  99.9646321 132.1960720  33.8206784  95.4999455 129.8350774  34.4380151
  96.0327792 129.0739062  34.2079459  94.9713536 129.5424426  35.1804306
  98.6669150 114.9410840  29.9673793  98.3233420 115.8312482  29.8912904
  99.0348113 114.7512498  29.1043378  86.7355001 127.2644370  22.7862395
  87.5730223 127.6741379  22.5696103  86.9133269 126.3243813  22.7562589
  98.6319433 124.9319451  18.4746228  98.1166056 125.7024056  18.7134616
  98.3596741 124.2584587  19.0979290  96.2166544 119.7769152  23.5331467
  95.3608140 119.3876002  23.3537105  96.6293496 119.8561113  22.6731252
  97.7465691 117.3115495  27.9323026  97.2430486 117.2745630  27.1190832
  98.0396297 118.2208238  27.9919683  93.9908576 117.3954225  26.9389208
  94.8561573 117.1997034  26.5795098  94.0586085 117.1664577  27.8658565
  98.4205736 122.8046543  20.3006009  98.1155872 123.1192692  21.1516153
  99.3736178 122.8827963  20.3433342  96.8652168 128.9636767  21.9498963
  96.3373530 128.2289526  21.6372201  96.3639671 129.7411443  21.7038932
 101.8445014 127.1585787  27.0666010 101.1868688 127.8485048  27.1546138
 102.6485413 127.5482219  27.4099996  91.5970896 119.6256433  24.3105575
  92.1714647 119.4031614  23.5778768  92.1841878 119.6945127  25.0634176
 100.6550473 125.5130160  25.1169951 101.1682355 126.1460152  25.6191661
 101.3051697 124.9131355  24.7513311  91.9240483 121.6560894  18.3301460
  91.0877795 121.9935580  18.6510735  91.7845252 121.5209874  17.3928597
  93.8993563 116.4997682  23.0380644  93.2457976 116.1846699  22.4137259
  93.8574037 115.8773422  23.7640467  97.1331304 122.9879615  27.3628292
  96.2153865 123.2094562  27.2049980  97.5491447 123.0625926  26.5039999
  97.9166351 124.3871031  22.4930972  98.6638170 124.8992428  22.1838094
  98.1857941 124.0655084  23.3535366  96.1893002 126.8829572  19.4757927
  95.2804221 126.5988604  19.5730396  96.2188085 127.3028650  18.6161233
 101.4212269 130.4936161  23.2449094 100.9674596 129.6527071  23.3014285
 100.7906236 131.1297560  23.5823874 100.3645189 121.4228147  24.4749762
  99.6267945 120.9105533  24.8060004 100.6171962 120.9828529  23.6633038
  99.8645208 132.3312658  24.1798912 100.1568183 132.8917715  23.4611278
 100.3743829 132.6241219  24.9352071 100.4656816 114.2004399  25.0691531
 100.7715693 113.3401763  24.7817446 101.1909421 114.7922019  24.8690525
  86.7581172 124.6035086  23.4573129  86.5605572 124.0104446  22.7324195
  86.2027836 124.2987296  24.1749068  94.7377896 124.4958192  25.5767722
  94.7926505 123.5432029  25.5010198  93.9269098 124.6517631  26.0609020
  92.6770256 123.1135252  23.3358101  91.8638121 123.4129423  23.7423293
  93.1729250 122.7190941  24.0532583  94.8278833 133.1093009  25.2692365
  94.7855012 133.3353855  24.3400897  95.7441532 132.8756383  25.4178167
  98.2744467 123.5777076  32.1672995  98.6293855 123.8048550  33.0267460
  98.9216598 123.9095453  31.5450250 104.0042204 126.6995512  22.8722324
 103.8660103 126.8897108  21.9443513 103.6478423 127.4614895  23.3290375
  92.1684330 120.6853608  28.9519336  92.8083710 120.5442367  28.2542299
  91.3361861 120.3988121  28.5757938 104.0311584 128.7672039  27.8833595
 104.4648090 128.6747328  28.7316649 104.7443164 128.7429540  27.2453611
  92.9444634 129.9856038  25.0654328  93.7385233 129.4906358  24.8636903
  92.2336327 129.4573901  24.7022034  97.7639479 132.3674133  29.4166696
  97.8176501 132.9365070  30.1844412  96.8954260 132.5376018  29.0520733
  89.2527398 124.1299120  21.1414081  88.3224986 124.0683575  21.3584043
  89.3484870 123.6075072  20.3450722  89.1712947 120.6553932  23.7292322
  89.4319764 121.5699266  23.6201483  89.9930119 120.1878375  23.8788935
  90.6437872 122.0691690  30.8991147  91.3160925 121.8609052  30.2503796
  89.8167659 121.8713776  30.4596379 104.8927133 128.8095740  30.4166481
 105.0863023 129.7141551  30.6625755 104.7927751 128.3503159  31.2505066
  96.5463444 118.6953631  32.9156808  95.8991359 119.3943580  32.8221284
  97.3164459 119.1289775  33.2833056  99.9542242 128.9602483  35.9907361
  99.8027748 128.7313034  35.0737445  99.9446921 129.9173084  36.0038706
  96.7227578 126.5334395  30.9753628  97.6519638 126.6845555  30.8022595
  96.3018608 126.6218416  30.1202274  95.5215910 130.5585060  28.7452165
  95.3826996 130.1903844  29.6178103  94.7330506 131.0732699  28.5736123
  97.0721125 129.9366663  26.1341003  96.7370958 129.8967433  27.0298653
  96.5725071 129.2711379  25.6611413  91.0465369 125.3434293  31.6593584
  90.9085167 124.6114531  32.2605123  91.9570293 125.2543193  31.3777772
  93.6747670 125.0554252  31.1477264  94.3847289 124.4147444  31.1063882
  93.6316978 125.3067147  32.0703445 101.6634449 131.9921605  34.0683843
 101.6046995 131.3080825  33.4014426 102.0653967 132.7340595  33.6164469
  92.3876604 122.0419470  32.9672903  91.8513961 121.5910208  33.6194500
  91.7993312 122.1765379  32.2243368  90.6825147 138.8083519  26.8617562
  90.9221746 139.4402043  27.5396580  89.8394344 138.4571559  27.1482921
  91.7978863 121.5008121  15.5299367  90.9208329 121.3796922  15.1661614
  92.2736616 120.7094200  15.2778256 101.6651856 129.9561189  32.2997823
 100.7778635 129.6187111  32.4224222 102.2350407 129.2244220  32.5366588
  83.3181003 126.2885281  25.6240874  84.0052043 125.9747011  25.0361889
  83.1629132 127.1926646  25.3508126  88.1215725 121.1775478  30.0525898
  88.0373914 120.5701147  29.3176308  87.2998432 121.6684496  30.0535394
  95.1953009 134.6162642  29.2659066  95.1223181 135.4217613  29.7778370
  94.7530402 134.8154607  28.4407087  94.9842789 133.8534412  22.7761887
  94.2010311 134.3956092  22.8700112  95.6835534 134.3708391  23.1756129
  98.2939439 119.6629041  25.4196093  98.7908139 118.9099003  25.0997163
  97.5226421 119.6993358  24.8539302 106.1469196 125.3669407  27.0614384
 106.1359073 126.2494122  26.6908317 105.2786576 125.0140957  26.8668921
  97.6551693 134.5149476  31.4217225  98.3679665 135.1496940  31.3493126
  97.1641721 134.6113342  30.6057226  99.3769220 128.4200728  22.9934516
  98.4425498 128.5402191  22.8239221  99.5545888 127.5173195  22.7294526
  94.8774408 121.8046424  25.1467777  94.5072195 121.2517464  25.8348683
  95.3733500 121.2004558  24.5942777 102.7641771 124.2618048  23.5284550
 103.2302223 125.0946039  23.4544853 103.2149272 123.7963029  24.2329809
  92.7063606 132.2643919  32.2422795  93.4073066 132.8980402  32.3952190
  92.2358721 132.6058651  31.4818435 100.8318002 130.6061869  20.5270702
 101.1077846 130.4918463  21.4364576  99.9622501 130.2079354  20.4882876
 100.7358434 116.6298635  27.5675452  99.8221514 116.8602861  27.7357659
 101.1651535 116.7137079  28.4189484 100.5064892 124.8188527  30.0675346
  99.8536343 125.0664434  29.4127799 100.8845272 124.0052665  29.7337823
  97.4672066 134.8548220  24.1703516  97.6494461 134.0369876  24.6331268
  98.2905052 135.0715912  23.7328406  96.5552465 125.5608338  36.5541383
  95.8793102 125.4602467  37.2243758  97.3780099 125.4047551  37.0177380
  88.3031324 131.7980274  29.1753898  88.8884761 131.0523962  29.3081802
  88.1056163 132.1084231  30.0590562  91.1569980 134.8331522  24.1916340
  90.4880355 135.3177649  23.7080381  91.0182849 135.0800742  25.1059719
  82.8948979 124.3685874  27.8958341  82.9333079 123.8349465  28.6895459
  82.3889272 123.8421080  27.2769318  95.2975248 136.8675265  30.7898999
  95.8493556 137.0306887  31.5548084  95.6381442 137.4579703  30.1179024
  90.2739741 119.2150415  31.3920884  90.3381068 120.0765246  30.9798281
  90.2106862 118.6024416  30.6593242  89.7492014 121.2873547  35.0393918
  90.3764053 120.9050625  35.6531442  88.8919933 121.0687749  35.4049610
 100.1486123 131.6936523  36.6447653 100.6926027 132.3066481  36.1502608
  99.5672967 132.2516101  37.1614666  86.5257557 123.0949976  20.9712273
  86.8210998 122.1860655  20.9179326  85.6245593 123.0737716  20.6493275
  98.4343636 134.8157241  27.7762681  98.3094775 134.0146980  27.2673626
  99.0922727 135.3103434  27.2876651  90.0551804 121.1705973  26.9539821
  89.3338390 121.7841941  26.8147295  90.8445060 121.7063738  26.8756467
 100.4978544 132.6166261  29.4042231  99.5508879 132.4971612  29.3320558
 100.8461317 131.7288759  29.4868493  92.8578117 118.5060400  33.2280473
  93.3812519 118.7522696  33.9906782  92.6390451 119.3380434  32.8083610
  88.2545398 120.7764074  21.0951598  87.9258104 119.8961453  20.9126704
  88.6084769 120.7211743  21.9827987  97.5024977 132.4118977  25.6046583
  97.3549940 131.4835684  25.7854153  98.3278471 132.4339068  25.1203659
  91.3687221 121.0637044  21.4627075  91.7083294 121.5922965  20.7405684
  91.8159342 121.4017450  22.2385642 101.1059099 133.2347536  26.6911456
 102.0305647 133.0290397  26.5535907 100.9374402 132.9863937  27.6000798
  94.0630662 119.4474095  30.9130143  93.7227483 118.6481908  31.3150823
  93.3569669 119.7475806  30.3406977  94.7147134 116.5323407  29.3657467
  95.5373203 116.0583885  29.2436357  94.9585198 117.3113891  29.8656153
  93.3555369 119.5611666  19.6620368  94.0763731 119.9392918  19.1584085
  92.7320673 120.2800542  19.7655346  97.4986492 120.2656815  20.5978701
  97.7150106 121.1481452  20.2967529  97.0180559 119.8743028  19.8684343
  92.2385713 123.2242528  27.1749445  92.0930294 123.5382831  28.0673727
  91.7610917 123.8427428  26.6220344  94.0982096 120.2145076  27.2230335
  94.0843665 119.3186169  26.8862633  94.8154524 120.2215739  27.8568621
  95.9508227 120.6482416  29.2683462  95.6926004 121.5699487  29.2667793
  95.4193267 120.2512850  29.9583926  86.7131375 125.7647872  30.1137106
  86.1684843 126.5407680  30.2457381  87.5910725 126.1118677  29.9556228
  93.5018992 119.0959456  22.4917905  93.6234903 118.1676102  22.6908792
  93.2121034 119.1098142  21.5796220  96.3710182 116.7814366  25.6284625
  96.3931879 116.8453700  24.6736604  96.7878241 115.9418875  25.8225131
 106.7493806 126.5169626  23.6663847 107.1924952 125.7676951  23.2682971
 105.8720317 126.5079762  23.2837579  87.4997397 124.8917768  33.0067263
  86.7579133 125.0400404  33.5931894  87.1790141 125.1526034  32.1434013
  95.4441060 134.4333747  32.8047653  95.7528186 134.1882893  33.6770353
  96.2416542 134.6380385  32.3166523  95.4661672 136.5871656  25.0353030
  95.0266662 136.0948035  25.7285886  96.2169789 136.0444624  24.7945105
  87.9454011 132.7783197  25.0377658  88.7712031 132.4786969  24.6576301
  87.5948063 132.0090820  25.4867446  92.9135544 132.1309665  27.1075331
  92.2915553 131.4680370  26.8077559  93.5840411 132.1570797  26.4248979
  86.1462616 130.6969524  25.9966591  85.3094524 130.2691698  25.8150593
  86.1186261 130.8901967  26.9337383  92.9860071 120.6091453  36.7007837
  93.0348227 121.4853576  36.3185607  93.5282585 120.0668846  36.1279481
 103.4714917 131.1532577  35.9808975 102.6810461 131.1356715  35.4413474
 103.2348272 131.6920870  36.7358011 103.5912792 128.0025043  33.2941703
 103.6410797 127.8375050  34.2357226 103.4826715 127.1352302  32.9039584
  92.4749051 130.6813589  20.5833792  92.6237171 131.3649053  19.9300465
  93.2815494 130.6618679  21.0983248 100.8816554 123.9855971  34.6101010
 101.7826417 123.8462436  34.3185008 100.9564529 124.1510426  35.5499187
  95.2159360 121.3622826  33.4554196  94.3462669 121.6556392  33.1836785
  95.4518840 121.9463271  34.1761460 105.0930989 130.4221985  33.5383725
 104.8015797 130.7851965  34.3747186 104.4803120 129.7088993  33.3597057
 106.2926671 127.9874864  26.0586295 107.1273563 128.4264668  26.2223855
 106.4285800 127.5113518  25.2394541 103.3418177 125.5454599  32.0063783
 103.8172299 125.7382245  31.1982634 102.4183742 125.6013785  31.7607166
  90.2301684 126.7078766  21.5894861  89.9847726 125.8041096  21.7875071
  90.3997598 126.7095917  20.6474339  97.9198394 117.5802443  30.9719616
  98.4380337 118.3163470  30.6466105  97.5653526 117.8866436  31.8066376
  89.4997331 122.4407124  19.0881022  88.8066576 122.5151479  18.4321058
  89.2549083 121.6767468  19.6102539  98.1710988 114.0002725  26.4920513
  98.4512741 113.3325914  27.1180940  98.9561595 114.1931821  25.9795177
 102.0419846 122.4220359  30.2392088 102.9937269 122.5218457  30.2604312
 101.8723296 121.6298628  30.7490173 100.0634226 119.5075942  30.4251489
  99.4684158 119.7880955  29.7297978  99.7783922 119.9969843  31.1968230
 104.5207924 125.6426479  29.3534388 104.4884244 124.7042480  29.5394072
 105.1308547 125.7210516  28.6200213  96.3591255 124.5122532  15.3961592
  97.3050359 124.3828740  15.4650010  95.9805500 123.7737194  15.8731020
 104.6702412 122.4337522  29.3992671 104.1541461 121.6495979  29.2122600
 105.5542361 122.1056239  29.5639190 102.3313139 116.1778538  25.3588484
 102.1337960 115.8693626  26.2431816 102.9412845 116.9040177  25.4886414
 110.3384474 126.7042486  28.4940425 111.0687862 126.4427774  29.0548128
 109.7291419 125.9671208  28.5342493 108.4199771 124.8450348  29.0914876
 107.6932934 124.7106313  28.4831367 108.0047058 125.1527177  29.8971594
  96.2429947 128.5640278  36.8562249  97.1632957 128.7418877  37.0502295
  96.2079530 127.6196323  36.7041948  94.5434172 122.4372508  15.3316477
  93.6365627 122.1405621  15.4079191  94.8210153 122.1402326  14.4650763
  85.4612112 123.7578872  25.7815523  85.1414897 122.9044180  25.4889897
  84.9145540 123.9727450  26.5373491  89.2392020 126.4741313  29.4985030
  89.4578030 127.4058420  29.5173064  89.6517794 126.1149287  30.2839834
  96.1596238 116.9809398  21.4860718  95.3496966 116.6356483  21.8615964
  96.8480655 116.6716942  22.0748330  98.0886786 116.0587445  23.1085015
  98.6417824 116.4782898  23.7675038  98.3256872 115.1323193  23.1507971
  94.1119885 122.0474518  38.8887779  94.0116612 122.9968875  38.8199870
  93.8941427 121.7192757  38.0163849  93.3132956 119.2959443  15.4728456
  94.1752120 119.6214342  15.7324274  93.4983301 118.5090939  14.9601522
  85.3300372 127.3781783  27.7508645  84.6363844 126.9635736  27.2378599
  86.0773363 127.4202320  27.1542064 101.4665593 118.1687970  22.6163679
 100.8864262 118.8272774  22.2341732 101.2001526 117.3465315  22.2051097
  99.9169159 117.5693028  24.8185000 100.4168938 117.6809562  24.0099318
 100.5604767 117.2654081  25.4585808  93.9751155 125.4771657  37.7052841
  93.4918237 126.2772017  37.9116730  94.0612094 125.4879602  36.7520285
  87.2437115 127.3100037  25.6274660  87.2207803 127.4087724  24.6756543
  87.5537751 128.1565188  25.9491826  89.9024493 129.3676192  29.7421274
  90.8567746 129.3360134  29.6751206  89.7037016 128.9066816  30.5571500
  90.4923875 127.9377308  32.3092072  91.3116764 128.4321387  32.3326909
  90.7660682 127.0209276  32.2809640 100.2490471 120.3288060  21.6720028
  99.3616326 120.6137711  21.4540222 100.6644460 120.1681824  20.8247304
 103.6005007 120.3534581  25.3874367 104.3765397 120.8431034  25.6598984
 102.8753141 120.7792636  25.8446236 106.0377566 121.0662201  26.4448307
 106.6322057 120.8257936  25.7341616 106.1104149 120.3469331  27.0721844
  88.2574721 134.9095811  26.7591472  88.1229189 134.1496212  26.1929470
  87.8406784 135.6336711  26.2920261 100.2231495 125.8442596  21.8870318
 100.1666696 126.3011148  21.0477950 100.7759837 125.0833281  21.7093160
 104.0336301 121.6332328  22.7120437 103.7773235 121.2328964  23.5428645
 103.4089169 122.3476122  22.5870576 108.3448638 124.3728401  25.2191729
 107.7848196 124.4421591  25.9923291 107.7392142 124.1969386  24.4991225
  91.4143847 135.8065128  26.9709915  91.2976231 136.7510561  26.8688605
  90.5936294 135.5038690  27.3595714 100.9566274 127.0347378  19.1822847
 100.9015078 126.8691649  18.2411291 100.3312329 127.7423410  19.3385037
  85.7458789 122.2715442  33.0084269  86.3917653 121.7614396  33.4971494
  85.5375940 123.0084124  33.5827694  98.2712181 129.3396289  38.5076410
  99.1403341 129.5136942  38.1463045  97.7918933 130.1590706  38.3852139
  94.2662399 116.5355487  18.7608165  94.2541069 117.4797326  18.9176436
  95.1585821 116.3525632  18.4667626  92.4398361 136.4593390  30.1865843
  93.3425608 136.4917001  30.5032338  92.2135731 135.5293841  30.2012179
  94.1951963 135.2124377  26.8475922  93.2447594 135.2126239  26.7340294
  94.4984450 134.4657112  26.3311957  98.0814519 113.1298263  23.0154102
  97.3146915 112.5756750  23.1610784  98.4925224 113.2020132  23.8768254
  90.0856280 119.4183059  37.1059283  90.9487742 119.0619864  37.3162608
  89.5121691 119.0796954  37.7934688 107.2214146 142.1547195  33.8069415
 107.2102787 141.7599993  32.9349918 107.3834786 141.4213268  34.4003186
 103.9421407 144.9384307  32.7548599 103.6511273 145.8429938  32.6395265
 104.5778392 144.9800835  33.4692668 112.4079773 132.4233176  30.3502479
 112.0763098 133.2928587  30.1263694 111.8125386 132.1069460  31.0296510
  99.7132585 140.7192793  26.6178886  99.8424966 140.9727272  27.5318297
  99.0330036 141.3120501  26.2983541 106.3749302 138.5617908  35.3730727
 105.5982636 139.1211828  35.3633591 107.0139865 139.0474691  35.8945597
 114.1670083 135.3444701  29.2073703 113.5244463 135.6377234  28.5613498
 113.6625011 135.2297621  30.0126900 104.6295674 141.3703362  34.9348694
 105.3710359 141.9088406  34.6583517 103.9232660 141.9969650  35.0920246
 110.1051014 143.5132502  33.5320855 110.5134370 143.0714913  32.7875488
 109.3828275 142.9385130  33.7855048 106.4582084 138.4505109  30.9054412
 107.3043279 138.8744522  31.0489061 106.3980722 137.7938733  31.5992975
 109.6081529 136.1109477  32.5635586 109.3642461 136.8651538  32.0269862
 109.8841460 136.4894825  33.3982833 109.1646221 135.2665910  28.1449424
 108.3030700 135.5647164  28.4366161 109.1908656 135.4836309  27.2130456
 103.3657038 138.5243010  35.7364004 102.7355699 139.2059291  35.9699401
 103.2593126 138.4126091  34.7917142  98.6602010 138.1914806  26.6629928
  97.8701064 138.4472334  26.1870039  99.1513258 139.0063144  26.7681969
 106.4422423 145.0804088  31.5695919 106.5066856 145.5424496  32.4054091
 105.7333347 144.4501453  31.6978229  96.9439713 138.4445296  29.0944919
  97.1947752 139.3292306  29.3602495  97.4799262 138.2649898  28.3220011
 102.6437781 132.8263776  38.0989255 102.2504726 132.2729974  38.7736899
 103.4603921 133.1374354  38.4895772 105.5605742 134.2421655  35.6909511
 106.3015455 134.8428808  35.6113974 105.7923665 133.4999293  35.1327554
 100.7047080 139.4278022  33.9687741 100.5900595 138.5263279  34.2694840
  99.8491598 139.6741719  33.6172558 107.7838918 147.3695762  35.5675242
 107.3402772 146.5832141  35.2496146 108.4456131 147.5574913  34.9019133
 106.3393210 145.1642692  34.4380151 106.8721547 144.4030980  34.2079459
 105.8107291 144.8716344  35.1804306 109.5062905 130.2702758  29.9673793
 109.1627174 131.1604399  29.8912904 109.8741867 130.0804415  29.1043378
 108.5859445 132.6407413  27.9323026 108.0824241 132.6037548  27.1190832
 108.8790052 133.5500156  27.9919683 104.8302331 132.7246143  26.9389208
 105.6955328 132.5288951  26.5795098 104.8979840 132.4956494  27.8658565
 102.4364650 134.9548350  24.3105575 103.0108402 134.7323532  23.5778768
 103.0235633 135.0237045  25.0634176 104.7387318 131.8289599  23.0380644
 104.0851730 131.5138617  22.4137259 104.6967792 131.2065340  23.7640467
 111.3050570 129.5296317  25.0691531 111.6109447 128.6693680  24.7817446
 112.0303175 130.1213937  24.8690525 109.1138222 138.9068994  32.1672995
 109.4687609 139.1340467  33.0267460 109.7610353 139.2387371  31.5450250
 103.0078085 136.0145525  28.9519336 103.6477464 135.8734284  28.2542299
 102.1755615 135.7280039  28.5757938 101.4831627 137.3983607  30.8991147
 102.1554680 137.1900969  30.2503796 100.6561413 137.2005693  30.4596379
 107.3857199 134.0245548  32.9156808 106.7385114 134.7235498  32.8221284
 108.1558214 134.4581692  33.2833056 110.7935997 144.2894400  35.9907361
 110.6421503 144.0604952  35.0737445 110.7840676 145.2465002  36.0038706
 107.5621333 141.8626313  30.9753628 108.4913393 142.0137473  30.8022595
 107.1412363 141.9510334  30.1202274 101.8859124 140.6726210  31.6593584
 101.7478922 139.9406449  32.2605123 102.7964047 140.5835110  31.3777772
 104.5141424 140.3846170  31.1477264 105.2241043 139.7439362  31.1063882
 104.4710733 140.6359064  32.0703445 103.2270358 137.3711388  32.9672903
 102.6907715 136.9202126  33.6194500 102.6387067 137.5057296  32.2243368
  94.1574758 141.6177199  25.6240874  94.8445797 141.3038929  25.0361889
  94.0022886 142.5218563  25.3508126  98.9609480 136.5067395  30.0525898
  98.8767668 135.8993065  29.3176308  98.1392186 136.9976414  30.0535394
 103.5457361 147.5935837  32.2422795 104.2466820 148.2272320  32.3952190
 103.0752476 147.9350568  31.4818435 111.5752188 131.9590552  27.5675452
 110.6615268 132.1894779  27.7357659 112.0045290 132.0428996  28.4189484
 107.3946220 140.8900255  36.5541383 106.7186857 140.7894385  37.2243758
 108.2173854 140.7339469  37.0177380  99.1425079 147.1272192  29.1753898
  99.7278516 146.3815880  29.3081802  98.9449917 147.4376149  30.0590562
  93.7342734 139.6977792  27.8958341  93.7726833 139.1641383  28.6895459
  93.2283026 139.1712998  27.2769318 101.1133496 134.5442333  31.3920884
 101.1774822 135.4057163  30.9798281 101.0500616 133.9316334  30.6593242
 100.5885768 136.6165465  35.0393918 101.2157807 136.2342542  35.6531442
  99.7313687 136.3979667  35.4049610 110.9879877 147.0228440  36.6447653
 111.5319781 147.6358398  36.1502608 110.4066722 147.5808019  37.1614666
 100.8945558 136.4997891  26.9539821 100.1732144 137.1133858  26.8147295
 101.6838814 137.0355656  26.8756467 103.6971872 133.8352317  33.2280473
 104.2206274 134.0814614  33.9906782 103.4784205 134.6672352  32.8083610
 104.9024417 134.7766012  30.9130143 104.5621237 133.9773825  31.3150823
 104.1963423 135.0767723  30.3406977 105.5540889 131.8615325  29.3657467
 106.3766958 131.3875803  29.2436357 105.7978952 132.6405809  29.8656153
 103.0779467 138.5534445  27.1749445 102.9324048 138.8674748  28.0673727
 102.6004671 139.1719346  26.6220344 104.9375850 135.5436993  27.2230335
 104.9237419 134.6478087  26.8862633 105.6548278 135.5507657  27.8568621
 106.7901981 135.9774334  29.2683462 106.5319759 136.8991404  29.2667793
 106.2587021 135.5804768  29.9583926  97.5525130 141.0939790  30.1137106
  97.0078598 141.8699598  30.2457381  98.4304479 141.4410594  29.9556228
 107.2103937 132.1106284  25.6284625 107.2325633 132.1745617  24.6736604
 107.6271996 131.2710793  25.8225131  98.3391151 140.2209686  33.0067263
  97.5972887 140.3692321  33.5931894  98.0183896 140.4817952  32.1434013
 103.8253826 135.9383371  36.7007837 103.8741981 136.8145494  36.3185607
 104.3676340 135.3960764  36.1279481 114.3108671 146.4824494  35.9808975
 113.5204215 146.4648633  35.4413474 114.0742026 147.0212788  36.7358011
 114.4306546 143.3316961  33.2941703 114.4804551 143.1666968  34.2357226
 114.3220470 142.4644220  32.9039584 111.7210309 139.3147889  34.6101010
 112.6220172 139.1754354  34.3185008 111.7958283 139.4802344  35.5499187
 106.0553114 136.6914743  33.4554196 105.1856424 136.9848310  33.1836785
 106.2912595 137.2755188  34.1761460 108.7592148 132.9094360  30.9719616
 109.2774092 133.6455387  30.6466105 108.4047281 133.2158354  31.8066376
 109.0104742 129.3294643  26.4920513 109.2906496 128.6617832  27.1180940
 109.7955349 129.5223739  25.9795177 112.8813601 137.7512277  30.2392088
 113.8331023 137.8510375  30.2604312 112.7117051 136.9590545  30.7490173
 110.9027980 134.8367860  30.4251489 110.3077912 135.1172873  29.7297978
 110.6177677 135.3261761  31.1968230 107.0823702 143.8932196  36.8562249
 108.0026711 144.0710795  37.0502295 107.0473285 142.9488241  36.7041948
  96.3005867 139.0870789  25.7815523  95.9808651 138.2336098  25.4889897
  95.7539295 139.3019368  26.5373491 100.0785774 141.8033230  29.4985030
 100.2971784 142.7350338  29.5173064 100.4911548 141.4441205  30.2839834
 104.9513640 137.3766436  38.8887779 104.8510366 138.3260793  38.8199870
 104.7335182 137.0484675  38.0163849  96.1694127 142.7073701  27.7508645
  95.4757598 142.2927654  27.2378599  96.9167118 142.7494237  27.1542064
 104.8144910 140.8063575  37.7052841 104.3311991 141.6063935  37.9116730
 104.9005849 140.8171520  36.7520285 100.7418247 144.6968110  29.7421274
 101.6961501 144.6652052  29.6751206 100.5430771 144.2358733  30.5571500
 101.3317629 143.2669226  32.3092072 102.1510518 143.7613304  32.3326909
 101.6054437 142.3501194  32.2809640  96.5852544 137.6007360  33.0084269
  97.2311407 137.0906314  33.4971494  96.3769695 138.3376041  33.5827694
 109.1105936 144.6688207  38.5076410 109.9797095 144.8428859  38.1463045
 108.6312687 145.4882624  38.3852139 108.9208273 128.4590181  23.0154102
 108.1540669 127.9048668  23.1610784 109.3318978 128.5312050  23.8768254
 100.9250034 134.7474977  37.1059283 101.7881496 134.3911781  37.3162608
 100.3515445 134.4088871  37.7934688 113.4831535 148.1555693  38.0989255
 113.0898481 147.6021892  38.7736899 114.2997676 148.4666272  38.4895772
 111.7643789 150.0766894  37.1059283 112.6275251 149.7203699  37.3162608
 111.1909200 149.7380789  37.7934688  53.0245375  42.5149729  20.5314721
  53.0134016  42.1202528  19.6595225  53.1866014  41.7815802  21.1248493
  49.7452636  45.2986841  19.4793905  49.4542502  46.2032472  19.3640571
  50.3809621  45.3403369  20.1937975  54.7042521  44.9848257  16.4743699
  54.4043244  45.8873295  16.3659506  54.3593581  44.7180440  17.3264852
  52.1780531  38.9220442  22.0976033  51.4013865  39.4814363  22.0878898
  52.8171094  39.4077225  22.6190904  50.4326903  41.7305896  21.6594000
  51.1741587  42.2690940  21.3828824  49.7263889  42.3572185  21.8165552
  55.9082243  43.8735036  20.2566162  56.3165599  43.4317447  19.5120794
  55.1859504  43.2987664  20.5100355  52.2613313  38.8107643  17.6299719
  53.1074508  39.2347057  17.7734368  52.2011950  38.1541267  18.3238282
  56.2311057  44.4336227  14.0118451  55.6019920  44.5981941  13.3094519
  55.8436719  44.8477836  14.7829415  60.1100289  45.3690665  11.3662815
  59.4251327  45.7489566  10.8159848  60.1944139  45.9785991  12.0994762
  55.4112758  36.4712011  19.2880893  55.1673690  37.2254072  18.7515168
  55.6872689  36.8497359  20.1228140  57.3651221  43.0150624  17.9658158
  57.5768116  43.6582384  17.2892539  57.3180969  42.1812940  17.4980088
  49.1688267  38.8845544  22.4609310  48.5386927  39.5661825  22.6944707
  49.0624355  38.7728626  21.5162449  58.4797049  45.8922579  16.1380515
  59.3014493  45.4902766  15.8563197  58.4759452  45.7890813  17.0896631
  52.2453652  45.4406622  18.2941226  52.3098085  45.9027030  19.1299398
  51.5364576  44.8103987  18.4223536  66.5703042  42.2361328  12.4865487
  65.8166750  41.6668726  12.3309491  66.7050583  42.2023992  13.4336122
  48.4469010  33.1866310  24.8234562  48.0535955  32.6332508  25.4982206
  49.2635150  33.4976888  25.2141079  51.3636971  34.6024189  22.4154818
  52.1046684  35.2031342  22.3359281  51.5954893  33.8601827  21.8572861
  46.5078309  39.7880556  20.6933048  46.3931824  38.8865813  20.9940147
  45.6522826  40.0344253  20.3417864  53.5870146  47.7298296  22.2920548
  53.1434001  46.9434675  21.9741453  54.2487360  47.9177447  21.6264439
  48.3457268  49.2594098  16.8181227  48.8964693  49.1311161  16.0458221
  47.5068743  49.5588987  16.4676120  55.6851384  48.0101096  20.3201950
  55.6669860  48.8309977  19.8282219  56.6071304  47.8855172  20.5452091
  52.1424439  45.5245226  21.1625458  52.6752775  44.7633514  20.9324766
  51.6138520  45.2318878  21.9049612  58.4869997  42.8480239  13.7911316
  57.8293672  43.5379500  13.8791445  59.2910396  43.2376671  14.1345303
  56.5070192  48.0207110  10.9044219  56.7993166  48.5812167  10.1856584
  57.0168812  48.3135671  11.6597378  54.9169451  39.2671528  18.8918301
  55.2718838  39.4943001  19.7512767  55.5641582  39.5989905  18.2695557
  60.6736567  44.4566491  14.6078902  61.1073074  44.3641780  15.4561956
  61.3868148  44.4323992  13.9698918  54.4064462  48.0568585  16.1412002
  54.4601484  48.6259522  16.9089718  53.5379243  48.2270470  15.7766040
  61.5352117  44.4990192  17.1411787  61.7288007  45.4036002  17.3871062
  61.4352735  44.0397611  17.9750372  53.1888427  34.3848082  19.6402115
  52.5416342  35.0838032  19.5466591  53.9589443  34.8184226  20.0078363
  56.5967225  44.6496935  22.7152668  56.4452732  44.4207486  21.7982752
  56.5871905  45.6067536  22.7284013  53.3652562  42.2228847  17.6998934
  54.2944622  42.3740007  17.5267902  52.9443592  42.3112868  16.8447581
  52.1640893  46.2479512  15.4697472  52.0251979  45.8798296  16.3423410
  51.3755490  46.7627151  15.2981430  47.6890353  41.0328745  18.3838891
  47.5510151  40.3008983  18.9850430  48.5995276  40.9437645  18.1023079
  50.3172653  40.7448704  17.8722570  51.0272272  40.1041896  17.8309189
  50.2741961  40.9961599  18.7948751  58.3059432  47.6816057  20.7929150
  58.2471978  46.9975277  20.1259733  58.7078950  48.4235047  20.3409776
  47.3250131  54.4977971  13.5862869  47.5646729  55.1296495  14.2641887
  46.4819327  54.1466011  13.8728228  58.3076839  45.6455641  19.0243129
  57.4203618  45.3081563  19.1469528  58.8775390  44.9138672  19.2611895
  51.8377993  50.3057093  15.9904373  51.7648164  51.1112065  16.5023677
  51.3955386  50.5049059  15.1652394  62.7894180  41.0563858  13.7859691
  62.7784056  41.9388574  13.4153624  61.9211559  40.7035409  13.5914228
  54.2976676  50.2043928  18.1462531  55.0104648  50.8391392  18.0738433
  53.8066705  50.3007793  17.3302533  49.3488590  47.9538371  18.9668102
  50.0498049  48.5874854  19.1197496  48.8783705  48.2953103  18.2063741
  57.1489876  40.5082978  16.7920652  56.4961326  40.7558886  16.1373105
  57.5270256  39.6947117  16.4583130  54.1097050  50.5442672  10.8948823
  54.2919444  49.7264328  11.3576575  54.9330036  50.7610364  10.4573713
  53.1977449  41.2502789  23.2786689  52.5218086  41.1496919  23.9489065
  54.0205083  41.0942003  23.7422687  44.9456308  47.4874726  15.8999205
  45.5309745  46.7418414  16.0327109  44.7481146  47.7978683  16.7835869
  51.9400232  52.5569717  17.5144305  52.4918540  52.7201338  18.2793391
  52.2806425  53.1474155  16.8424330  46.3916997  36.9767999  21.7639224
  47.0189036  36.5945077  22.3776749  45.5344916  36.7582201  22.1294917
  56.7911106  47.3830974  23.3692960  57.3351010  47.9960933  22.8747915
  56.2097951  47.9410553  23.8859973  55.0768619  50.5051692  14.5007988
  54.9519758  49.7041432  13.9918933  55.7347710  50.9997886  14.0121958
  57.1403527  48.3060713  16.1287538  56.1933863  48.1866064  16.0565864
  57.4886300  47.4183211  16.2113799  54.1449961  48.1013429  12.3291890
  53.9974923  47.1730136  12.5099460  54.9703454  48.1233519  11.8448965
  57.7484082  48.9241987  13.4156763  58.6730630  48.7184849  13.2781214
  57.5799386  48.6758389  14.3246104  52.0866043  50.1228199  19.5292960
  52.3953169  49.8777345  20.4015659  52.8841525  50.3274837  19.0411830
  52.1086655  52.2766108  11.7598336  51.6691645  51.7842487  12.4531193
  52.8594772  51.7339076  11.5190412  49.6285055  36.2985905  23.4253144
  49.6773210  37.1748028  23.0430914  50.1707569  35.7563298  22.8524787
  60.1139900  46.8427029  22.7054281  59.3235444  46.8251167  22.1658781
  59.8773255  47.3815322  23.4603318  60.2337775  43.6919495  20.0187010
  60.2835780  43.5269502  20.9602532  60.1251699  42.8246754  19.6284890
  57.5241538  39.6750423  21.3346316  58.4251400  39.5356888  21.0430314
  57.5989512  39.8404878  22.2744494  51.8584343  37.0517278  20.1799503
  50.9887652  37.3450844  19.9082091  52.0943823  37.6357723  20.9006766
  61.7355972  46.1116436  20.2629031  61.4440780  46.4746417  21.0992492
  61.1228103  45.3983445  20.0842363  62.9351654  43.6769316  12.7831601
  63.7698546  44.1159120  12.9469162  63.0710783  43.2007969  11.9639847
  59.9843160  41.2349051  18.7309089  60.4597282  41.4276697  17.9227941
  59.0608726  41.2908237  18.4852473  58.6844829  38.1114811  16.9637395
  59.6362252  38.2112909  16.9849619  58.5148280  37.3193080  17.4735479
  61.1632907  41.3320931  16.0779694  61.1309227  40.3936932  16.2639378
  61.7733531  41.4104968  15.3445519  61.3127396  38.1231974  16.1237978
  60.7966444  37.3390431  15.9367907  62.1967344  37.7950691  16.2884497
  66.9809457  42.3936938  15.2185731  67.7112845  42.1322226  15.7793435
  66.3716402  41.6565660  15.2587799  65.0624754  40.5344800  15.8160182
  64.3357918  40.4000765  15.2076674  64.6472041  40.8421629  16.6216900
  52.8854931  44.2534730  23.5807555  53.8057940  44.4313329  23.7747602
  52.8504514  43.3090775  23.4287255  50.7544868  37.7368970  25.6133086
  50.6541595  38.6863327  25.5445177  50.5366410  37.4087209  24.7409156
  50.6176138  41.1666109  24.4298147  50.1343220  41.9666469  24.6362036
  50.7037077  41.1774054  23.4765591  46.5449476  45.0570644  16.4666581
  47.4992729  45.0254586  16.3996513  46.3462000  44.5961268  17.2816807
  47.1348858  43.6271760  19.0337379  47.9541747  44.1215839  19.0572216
  47.4085666  42.7103728  19.0054946  48.0568831  51.4959580  13.6955222
  47.9401215  52.4405013  13.5933912  47.2361277  51.1933142  14.0841021
  54.9137165  45.0290741  25.2321716  55.7828324  45.2031394  24.8708351
  54.4343916  45.8485158  25.1097446  49.0823345  52.1487842  16.9111150
  49.9850591  52.1811453  17.2277645  48.8560715  51.2188293  16.9257486
  50.8376947  50.9018829  13.5721229  49.8872578  50.9020690  13.4585601
  51.1409433  50.1551563  13.0557263  46.7281263  35.1077511  23.8304590
  47.5912725  34.7514316  24.0407915  46.1546674  34.7691406  24.5179994
  66.5729640  56.7379367  14.6366991  67.2108050  56.6186115  13.9330331
  66.4550483  57.6860211  14.6954943  63.3819347  56.6906795  14.5728516
  63.0437858  56.5747860  13.6849051  64.2509115  56.2897960  14.5529522
  59.2406162  58.5442272  10.5625407  58.6771027  58.4532209   9.7941694
  59.1258557  57.7242176  11.0427899  63.8639130  57.8441647  20.5314721
  63.8527770  57.4494445  19.6595225  64.0259769  57.1107720  21.1248493
  56.7870594  60.0393463  13.4009627  57.5791886  59.6984288  12.9855926
  57.0267244  60.1488438  14.3211780  64.8205721  62.2113239   5.8739872
  64.1693701  62.7967320   5.4873885  65.6150084  62.7419434   5.9334909
  58.7461348  59.3002377   6.2727006  59.5192224  58.7531364   6.1339882
  59.0986747  60.1646626   6.4841467  60.5846391  60.6278759  19.4793905
  60.2936257  61.5324390  19.3640571  61.2203375  60.6695286  20.1937975
  61.5102598  58.0055607  16.0695265  62.1066170  57.7811630  15.3552228
  61.5677569  57.2640353  16.6720713  66.1270909  54.4630821  11.7120199
  66.9133998  54.0450244  11.3610616  66.3909613  55.3676913  11.8801847
  66.2980986  59.9003671   6.4108856  65.6626819  59.9738298   7.1229760
  65.9678392  60.4897270   5.7327935  71.5279336  54.4006054  12.6153178
  72.2604508  53.8305271  12.8491007  70.7718692  54.0127655  13.0559683
  60.8023915  57.3623149   6.1069831  60.6860173  56.6868052   6.7750915
  60.9126175  56.8755523   5.2901984  63.1455456  56.8233296   9.8116520
  62.7813663  56.2963917  10.5229441  64.0022571  56.4331765   9.6383005
  69.0504756  48.1127628  17.0747786  68.7188081  48.9823039  16.8509001
  68.4550370  47.7963912  17.7541817  65.5436276  60.3140174  16.4743699
  65.2436999  61.2165213  16.3659506  65.1987335  60.0472358  17.3264852
  58.9948757  56.7653971  12.5080403  58.0699254  56.6330185  12.7158095
  59.2433170  57.5448190  13.0050346  68.9433420  52.8322715  14.1541136
  68.0350297  52.7638123  13.8599897  68.8921015  53.3094659  14.9822962
  62.7650163  54.3080853   5.7924535  62.6449789  54.7537904   6.6310016
  62.0702752  54.6566171   5.2338073  56.3557568  56.4087245  13.3424192
  56.4849949  56.6621724  14.2563604  55.6755020  57.0014953  13.0228847
  60.5257056  67.0784495   9.4414667  60.4481085  68.0292320   9.5203147
  59.9218699  66.7330367  10.0989593  63.0174285  54.2512360  22.0976033
  62.2407619  54.8106280  22.0878898  63.6564848  54.7369143  22.6190904
  70.8095066  51.0339153  15.9319010  70.1669446  51.3271686  15.2858805
  70.3049994  50.9192073  16.7372207  68.4635230  54.7802326   6.6204869
  69.3753086  55.0129713   6.4452567  67.9544877  55.3639370   6.0579948
  61.2720658  57.0597813  21.6594000  62.0135342  57.5982857  21.3828824
  60.5657643  57.6864102  21.8165552  66.7475997  59.2026954  20.2566162
  67.1559353  58.7609364  19.5120794  66.0253259  58.6279581  20.5100355
  63.1007067  54.1399561  17.6299719  63.9468262  54.5638974  17.7734368
  63.0405705  53.4833185  18.3238282  67.0704812  59.7628145  14.0118451
  66.4413674  59.9273859  13.3094519  66.6830474  60.1769754  14.7829415
  70.9494044  60.6982582  11.3662815  70.2645082  61.0781484  10.8159848
  71.0337893  61.3077909  12.0994762  66.2506513  51.8003929  19.2880893
  66.0067445  52.5545990  18.7515168  66.5266443  52.1789277  20.1228140
  68.2044975  58.3442541  17.9658158  68.4161871  58.9874301  17.2892539
  68.1574724  57.5104858  17.4980088  65.8071204  50.9560362  14.8694730
  64.9455683  51.2541616  15.1611468  65.8333639  51.1730761  13.9375763
  62.6232774  59.5002553  11.2768536  63.0871119  59.7790256  10.4873158
  62.3589572  58.5985997  11.0941627  59.5156855  59.0474034  14.2148299
  60.0858212  59.4761303  13.5765784  60.1064967  58.7656619  14.9132485
  61.5601660  55.6225705   8.0858101  62.2625703  56.0746749   8.5532027
  61.2282288  54.9809524   8.7137994  60.0082021  54.2137462  22.4609310
  59.3780682  54.8953743  22.6944707  59.9018109  54.1020543  21.5162449
  55.3026994  53.8809258  13.3875235  54.5126048  54.1366786  12.9115345
  55.7938241  54.6957596  13.4927275  69.3190803  61.2214497  16.1380515
  70.1408247  60.8194684  15.8563197  69.3153206  61.1182731  17.0896631
  57.2541739  54.2453837  10.3458711  56.4572902  54.3572531  10.8642207
  57.0267331  54.5840489   9.4799602  63.0847407  60.7698540  18.2941226
  63.1491839  61.2318947  19.1299398  62.3758331  60.1395905  18.4223536
  53.5864697  54.1339748  15.8190225  53.8372735  55.0186758  16.0847801
  54.1224245  53.9544350  15.0465317  77.4096796  57.5653245  12.4865487
  76.6560505  56.9960643  12.3309491  77.5444338  57.5315910  13.4336122
  62.7995424  62.4366648   8.1620206  62.6641099  63.2818183   8.5905054
  63.3405237  62.6385925   7.3986140  59.2862764  48.5158228  24.8234562
  58.8929710  47.9624426  25.4982206  60.1028904  48.8268806  25.2141079
  56.2524822  59.9542086   8.7348131  56.7649342  60.7485336   8.8853696
  56.9047535  59.2568376   8.6681733  58.0619707  63.0707842  10.8170885
  58.2386335  63.9925807  10.6291868  58.8576540  62.7566261  11.2465264
  62.2030725  49.9316107  22.4154818  62.9440438  50.5323260  22.3359281
  62.4348648  49.1893744  21.8572861  57.3472063  55.1172474  20.6933048
  57.2325578  54.2157731  20.9940147  56.4916581  55.3636171  20.3417864
  64.4263901  63.0590214  22.2920548  63.9827755  62.2726593  21.9741453
  65.0881114  63.2469365  21.6264439  59.1851022  64.5886016  16.8181227
  59.7358447  64.4603079  16.0458221  58.3462498  64.8880905  16.4676120
  66.5245139  63.3393014  20.3201950  66.5063614  64.1601895  19.8282219
  67.4465059  63.2147089  20.5452091  62.9818193  60.8537144  21.1625458
  63.5146530  60.0925432  20.9324766  62.4532274  60.5610795  21.9049612
  66.1487888  45.9597210  16.6919100  65.8052157  46.8498851  16.6158210
  66.5166851  45.7698867  15.8288685  54.2173739  58.2830740   9.5107702
  55.0548961  58.6927748   9.2941410  54.3952006  57.3430182   9.4807896
  66.1138171  55.9505821   5.1991535  65.5984794  56.7210425   5.4379922
  65.8415479  55.2770957   5.8224596  63.6985282  50.7955521  10.2576773
  62.8426878  50.4062372  10.0782412  64.1112234  50.8747482   9.3976559
  65.2284428  48.3301865  14.6568333  64.7249224  48.2932000  13.8436138
  65.5215035  49.2394607  14.7164990  61.4727314  48.4140594  13.6634515
  62.3380311  48.2183403  13.3040404  61.5404823  48.1850946  14.5903871
  71.0872445  58.7038175   7.1344708  70.3101888  58.3649335   6.6899870
  71.7663926  58.7090798   6.4599673  65.9024474  53.8232913   7.0251316
  65.5974609  54.1379062   7.8761459  66.8554916  53.9014333   7.0678649
  64.3470906  59.9823136   8.6744270  63.8192267  59.2475896   8.3617507
  63.8458408  60.7597812   8.4284238  69.3263752  58.1772157  13.7911316
  68.6687426  58.8671418  13.8791445  70.1304151  58.5668588  14.1345303
  59.0789633  50.6442802  11.0350882  59.6533385  50.4217984  10.3024074
  59.6660616  50.7131497  11.7879483  68.1369211  56.5316529  11.8415258
  68.6501092  57.1646521  12.3436968  68.7870434  55.9317725  11.4758618
  61.3812301  47.5184051   9.7625951  60.7276713  47.2033068   9.1382566
  61.3392775  46.8959792  10.4885774  65.3991585  66.5100854   4.5975929
  64.7253284  66.8132550   5.2060887  65.7857407  67.3129934   4.2481386
  64.6150041  54.0065985  14.0873599  63.6972603  54.2280932  13.9295287
  65.0310185  54.0812295  13.2285306  65.3985089  55.4057400   9.2176279
  66.1456908  55.9178798   8.9083401  65.6676679  55.0841453  10.0780672
  63.6711739  57.9015941   6.2003233  62.7622959  57.6174974   6.2975703
  63.7006823  58.3215020   5.3406540  68.9031007  61.5122531   9.9694401
  68.4493334  60.6713441  10.0259591  68.2724973  62.1483929  10.3069181
  67.8463926  52.4414517  11.1995068  67.1086683  51.9291903  11.5305311
  68.0990700  52.0014898  10.3878345  67.3463946  63.3499027  10.9044219
  67.6386920  63.9104084  10.1856584  67.8562567  63.6427588  11.6597378
  67.9475554  45.2190769  11.7936837  68.2534430  44.3588132  11.5062753
  68.6728158  45.8108389  11.5935831  54.2399910  55.6221455  10.1818435
  54.0424310  55.0290816   9.4569502  53.6846574  55.3173666  10.8994374
  62.2196633  55.5144562  12.3013029  62.2745243  54.5618398  12.2255505
  61.4087835  55.6704001  12.7854327  63.3687827  59.4424685   3.5391312
  62.9307257  58.7260544   3.0796949  64.1098268  59.6700800   2.9776403
  60.1588993  54.1321622  10.0603407  59.3456859  54.4315792  10.4668600
  60.6547988  53.7377310  10.7777890  62.3097571  64.1279378  11.9937672
  62.2673750  64.3540225  11.0646204  63.2260270  63.8942753  12.1423473
  65.7563205  54.5963446  18.8918301  66.1112593  54.8234919  19.7512767
  66.4035336  54.9281823  18.2695557  71.4860942  57.7181882   9.5967630
  71.3478841  57.9083478   8.6688820  71.1297161  58.4801265  10.0535681
  59.6503068  51.7039977  15.6764642  60.2902447  51.5628736  14.9787606
  58.8180599  51.4174490  15.3003244  71.5130322  59.7858409  14.6078902
  71.9466828  59.6933698  15.4561956  72.2261902  59.7615909  13.9698918
  60.4263372  61.0042407  11.7899635  61.2203970  60.5092728  11.5882210
  59.7155064  60.4760271  11.4267340  65.2458216  63.3860503  16.1412002
  65.2995239  63.9551439  16.9089718  64.3772998  63.5562388  15.7766040
  56.7346135  55.1485489   7.8659387  55.8043724  55.0869945   8.0829350
  56.8303607  54.6261442   7.0696029  56.6531685  51.6740302  10.4537629
  56.9138502  52.5885635  10.3446790  57.4748857  51.2064745  10.6034242
  58.1256610  53.0878059  17.6236454  58.7979663  52.8795421  16.9749103
  57.2986396  52.8900145  17.1841686  72.3745871  59.8282110  17.1411787
  72.5681761  60.7327920  17.3871062  72.2746489  59.3689529  17.9750372
  64.0282182  49.7140000  19.6402115  63.3810097  50.4129950  19.5466591
  64.7983197  50.1476144  20.0078363  67.4360980  59.9788852  22.7152668
  67.2846486  59.7499404  21.7982752  67.4265659  60.9359454  22.7284013
  64.2046316  57.5520765  17.6998934  65.1338376  57.7031925  17.5267902
  63.7837346  57.6404786  16.8447581  63.0034648  61.5771429  15.4697472
  62.8645734  61.2090214  16.3423410  62.2149244  62.0919069  15.2981430
  63.5982800  66.6780526   6.8123008  63.7734556  66.2068569   7.6268631
  62.9115588  67.3046292   7.0404269  64.5539863  60.9553032  12.8586310
  64.2189696  60.9153802  13.7543960  64.0543809  60.2897748  12.3856720
  58.5284107  56.3620662  18.3838891  58.3903905  55.6300901  18.9850430
  59.4389031  56.2729562  18.1023079  67.4899055  58.3009067   3.1323369
  66.8728225  57.5755895   3.0356422  67.0215543  59.0618427   2.7890444
  61.1566408  56.0740622  17.8722570  61.8666026  55.4333814  17.8309189
  61.1135716  56.3253516  18.7948751  69.1453186  63.0107975  20.7929150
  69.0865733  62.3267195  20.1259733  69.5472705  63.7526965  20.3409776
  59.8695342  53.0605839  19.6918210  59.3332699  52.6096578  20.3439806
  59.2812050  53.1951748  18.9488674  58.1643885  69.8269889  13.5862869
  58.4040483  70.4588413  14.2641887  57.3213082  69.4757929  13.8728228
  69.1470594  60.9747559  19.0243129  68.2597372  60.6373481  19.1469528
  69.7169145  60.2430590  19.2611895  50.7999741  57.3071651  12.3486181
  51.4870781  56.9933381  11.7607196  50.6447870  58.2113015  12.0753432
  55.6034463  52.1961847  16.7771204  55.5192652  51.5887517  16.0421614
  54.7817169  52.6870865  16.7780701  62.6771747  65.6349011  15.9904373
  62.6041919  66.4403983  16.5023677  62.2349140  65.8340977  15.1652394
  62.4661527  64.8720781   9.5007194  61.6829049  65.4142461   9.5945419
  63.1654272  65.3894761   9.9001435  65.7758177  50.6815411  12.1441399
  66.2726876  49.9285373  11.8242470  65.0045158  50.7179727  11.5784609
  73.6287934  56.3855776  13.7859691  73.6177810  57.2680492  13.4153624
  72.7605314  56.0327327  13.5914228  65.1370431  65.5335845  18.1462531
  65.8498403  66.1683310  18.0738433  64.6460459  65.6299711  17.3302533
  66.8587958  59.4387098   9.7179823  65.9244236  59.5588560   9.5484527
  67.0364626  58.5359565   9.4539833  62.3593146  52.8232794  11.8713084
  61.9890933  52.2703834  12.5593990  62.8552238  52.2190927  11.3188084
  70.2460509  55.2804417  10.2529857  70.7120961  56.1132409  10.1790160
  70.6968009  54.8149399  10.9575116  60.1882344  63.2830289  18.9668102
  60.8891804  63.9166772  19.1197496  59.7177459  63.6245020  18.2063741
  68.3136740  61.6248238   7.2516009  68.5896584  61.5104833   8.1609883
  67.4441239  61.2265723   7.2128182  68.2177172  47.6485004  14.2920758
  67.3040251  47.8789231  14.4602965  68.6470273  47.7323448  15.1434791
  67.9883630  55.8374896  16.7920652  67.3355080  56.0850804  16.1373105
  68.3664010  55.0239034  16.4583130  64.9490804  65.8734589  10.8948823
  65.1313199  65.0556245  11.3576575  65.7723790  66.0902282  10.4573713
  65.2832970  64.8002774   8.1563871  65.8120736  64.2895229   7.5434033
  65.5461189  64.4845305   9.0209404  64.0371203  56.5794707  23.2786689
  63.3611840  56.4788836  23.9489065  64.8598837  56.4233921  23.7422687
  55.7850062  62.8166644  15.8999205  56.3703499  62.0710332  16.0327109
  55.5874901  63.1270600  16.7835869  58.6388717  65.8517891  10.9161647
  57.9699093  66.3364019  10.4325687  58.5001587  66.0987112  11.8305026
  50.3767717  55.3872244  14.6203648  50.4151816  54.8535835  15.4140766
  49.8708010  54.8607449  14.0014625  62.7793986  67.8861635  17.5144305
  63.3312294  68.0493256  18.2793391  63.1200179  68.4766072  16.8424330
  57.7558479  50.2336784  18.1166190  57.8199806  51.0951615  17.7043588
  57.6925600  49.6210786  17.3838549  57.2310752  52.3059917  21.7639224
  57.8582791  51.9236994  22.3776749  56.3738671  52.0874119  22.1294917
  67.6304860  62.7122892  23.3692960  68.1744764  63.3252850  22.8747915
  67.0491705  63.2702471  23.8859973  65.9162373  65.8343610  14.5007988
  65.7913513  65.0333350  13.9918933  66.5741464  66.3289803  14.0121958
  57.5370542  52.1892343  13.6785128  56.8157127  52.8028310  13.5392601
  58.3263797  52.7250107  13.6001774  67.9797282  63.6352630  16.1287538
  67.0327617  63.5157981  16.0565864  68.3280055  62.7475128  16.2113799
  60.3396855  49.5246769  19.9525780  60.8631257  49.7709066  20.7152089
  60.1209188  50.3566804  19.5328917  64.9843715  63.4305346  12.3291890
  64.8368677  62.5022054  12.5099460  65.8097208  63.4525437  11.8448965
  58.8505959  52.0823414   8.1872382  59.1902032  52.6109335   7.4650990
  59.2978080  52.4203820   8.9630949  68.5877837  64.2533905  13.4156763
  69.5124384  64.0476767  13.2781214  68.4193140  64.0050306  14.3246104
  61.5449400  50.4660464  17.6375450  61.2046220  49.6668277  18.0396130
  60.8388406  50.7662175  17.0652283  62.1965872  47.5509777  16.0902773
  63.0191941  47.0770255  15.9681663  62.4403935  48.3300260  16.5901459
  64.9805229  51.2843184   7.3224007  65.1968844  52.1667822   7.0212835
  64.4999296  50.8929397   6.5929649  59.7204451  54.2428897  13.8994752
  59.5749031  54.5569200  14.7919033  59.2429654  54.8613798  13.3465650
  61.5800834  51.2331445  13.9475641  61.5662402  50.3372539  13.6107939
  62.2973262  51.2402109  14.5813927  63.4326964  51.6668785  15.9928769
  63.1744742  52.5885856  15.9913099  62.9012005  51.2699220  16.6829233
  68.3773153  64.7719573   8.7718854  68.5510031  64.2065995   8.0192707
  68.8702044  65.5720467   8.5898344  54.1950113  56.7834242  16.8382413
  53.6503581  57.5594050  16.9702687  55.0729463  57.1305046  16.6801534
  60.9837730  50.1145826   9.2163211  61.1053641  49.1862472   9.4154099
  60.6939772  50.1284512   8.3041527  63.8528920  47.8000736  12.3529931
  63.8750617  47.8640069  11.3981911  64.2696979  46.9605245  12.5470437
  74.2312544  57.5355996  10.3909154  74.6743690  56.7863321   9.9928277
  73.3539055  57.5266132  10.0082886  69.3648326  64.0886337   5.8715752
  70.0599230  64.7093030   6.0903067  69.7071476  63.2381688   6.1468130
  54.9816135  55.9104138  19.7312570  54.2397871  56.0586773  20.3177200
  54.6608879  56.1712404  18.8679319  71.2639749  61.5386043   7.4003083
  71.7891073  61.8773315   6.6752403  71.1762101  60.6033058   7.2166218
  62.9259797  65.4520116  19.5292960  63.2346924  65.2069263  20.4015659
  63.7235279  65.6566755  19.0411830  62.9480409  67.6058026  11.7598336
  62.5085400  67.1134405  12.4531193  63.6988526  67.0630993  11.5190412
  55.4272748  63.7969567  11.7622964  56.2530768  63.4973339  11.3821608
  55.0766800  63.0277189  12.2112753  60.3954282  63.1496035  13.8320638
  59.7734291  62.4866740  13.5322866  61.0659148  63.1757167  13.1494286
  53.6281353  61.7155893  12.7211898  52.7913262  61.2878068  12.5395899
  53.6004999  61.9088336  13.6582689  60.4678809  51.6277823  23.4253144
  60.5166965  52.5039946  23.0430914  61.0101323  51.0855216  22.8524787
  70.9533655  62.1718946  22.7054281  70.1629198  62.1543085  22.1658781
  70.7167009  62.7107240  23.4603318  71.0731530  59.0211413  20.0187010
  71.1229535  58.8561420  20.9602532  70.9645453  58.1538672  19.6284890
  59.9567788  61.6999958   7.3079099  60.1055909  62.3835423   6.6545771
  60.7634232  61.6805048   7.8228554  68.3635292  55.0042341  21.3346316
  69.2645155  54.8648805  21.0430314  68.4383267  55.1696795  22.2744494
  62.6978097  52.3809195  20.1799503  61.8281407  52.6742761  19.9082091
  62.9337578  52.9649640  20.9006766  72.5749727  61.4408354  20.2629031
  72.2834535  61.8038335  21.0992492  71.9621858  60.7275362  20.0842363
  73.7745409  59.0061234  12.7831601  74.6092300  59.4451038  12.9469162
  73.9104538  58.5299887  11.9639847  70.8236915  56.5640969  18.7309089
  71.2991036  56.7568615  17.9227941  69.9002480  56.6200155  18.4852473
  57.7120421  57.7265136   8.3140167  57.4666463  56.8227466   8.5120378
  57.8816336  57.7282286   7.3719645  65.4017131  48.5988812  17.6964923
  65.9199075  49.3349839  17.3711412  65.0472264  48.9052806  18.5311682
  65.6529725  45.0189095  13.2165820  65.9331479  44.3512284  13.8426246
  66.4380332  45.2118190  12.7040484  63.4563194  64.1948089   4.7790846
  62.8837161  64.8138276   4.3261318  64.0295988  64.7447450   5.3130768
  69.5238584  53.4406729  16.9637395  70.4756007  53.5404826  16.9849619
  69.3542034  52.6484997  17.4735479  67.5452963  50.5262312  17.1496796
  66.9502895  50.8067325  16.4543284  67.2602660  51.0156213  17.9213537
  66.6760454  64.4785239   5.9099428  67.6091127  64.4130801   6.1132304
  66.5883667  65.3141506   5.4513961  69.3048470  63.7951109   2.8703376
  69.2262102  63.4610973   3.7639134  70.1258137  64.2872877   2.8694848
  72.0026662  56.6612848  16.0779694  71.9702982  55.7228849  16.2639378
  72.6127285  56.7396885  15.3445519  72.1521150  53.4523892  16.1237978
  71.6360199  52.6682349  15.9367907  73.0361099  53.1242609  16.2884497
  69.8131877  47.1964907  12.0833790  69.6156698  46.8879996  12.9677122
  70.4231583  47.9226546  12.2131720  77.8203211  57.7228855  15.2185731
  78.5506600  57.4614143  15.7793435  77.2110157  56.9857577  15.2587799
  75.9018509  55.8636718  15.8160182  75.1751672  55.7292683  15.2076674
  75.4865795  56.1713547  16.6216900  63.7248685  59.5826648  23.5807555
  64.6451694  59.7605247  23.7747602  63.6898268  58.6382693  23.4287255
  52.9430850  54.7765241  12.5060830  52.6233634  53.9230549  12.2135204
  52.3964278  54.9913819  13.2618797  56.7210758  57.4927682  16.2230337
  56.9396767  58.4244790  16.2418370  57.1336531  57.1335657  17.0085140
  63.6414975  47.9995768   8.2106025  62.8315704  47.6542853   8.5861271
  64.3299392  47.6903311   8.7993637  65.5705524  47.0773814   9.8330322
  66.1236562  47.4969268  10.4920345  65.8075610  46.1509562   9.8753278
  61.5938623  53.0660888  25.6133086  61.4935350  54.0155245  25.5445177
  61.3760165  52.7379127  24.7409156  52.8119110  58.3968153  14.4753952
  52.1182581  57.9822106  13.9623906  53.5592101  58.4388689  13.8787371
  68.9484331  49.1874340   9.3408986  68.3683000  49.8459144   8.9587038
  68.6820263  48.3651684   8.9296403  67.3987897  48.5879397  11.5430306
  67.8987675  48.6995932  10.7344625  68.0423505  48.2840450  12.1831115
  61.4569893  56.4958027  24.4298147  60.9736975  57.2958387  24.6362036
  61.5430832  56.5065972  23.4765591  54.7255853  58.3286407  12.3519967
  54.7026541  58.4274094  11.4001850  55.0356489  59.1751557  12.6737133
  57.3843230  60.3862562  16.4666581  58.3386484  60.3546504  16.3996513
  57.1855754  59.9253185  17.2816807  57.9742613  58.9563678  19.0337379
  58.7935502  59.4507756  19.0572216  58.2479420  58.0395646  19.0054946
  67.7309209  51.3474430   8.3965334  66.8435064  51.6324081   8.1785529
  68.1463198  51.1868193   7.5492611  71.0823745  51.3720951  12.1119673
  71.8584135  51.8617403  12.3844290  70.3571879  51.7979005  12.5691543
  73.5196304  52.0848570  13.1693614  74.1140794  51.8444306  12.4586922
  73.5922887  51.3655701  13.7967150  55.7393459  65.9282181  13.4836779
  55.6047927  65.1682582  12.9174777  55.3225521  66.6523081  13.0165568
  66.8752422  61.1119105   2.4913354  67.5788272  61.3169107   3.1071010
  66.1515071  61.6795866   2.7562438  67.7050233  56.8628966   8.6115624
  67.6485434  57.3197517   7.7723257  68.2578575  56.1019650   8.4338467
  71.5155038  52.6518698   9.4365744  71.2591973  52.2515333  10.2673952
  70.8907906  53.3662492   9.3115883  75.8267376  55.3914771  11.9437035
  75.2666934  55.4607960  12.7168597  75.2210880  55.2155756  11.2236531
  58.8962585  66.8251498  13.6955222  58.7794969  67.7696931  13.5933912
  58.0755031  66.5225060  14.0841021  68.7839120  61.5501634   4.5411814
  69.6184724  61.1182832   4.3589289  68.6223463  61.3783647   5.4688709
  68.4385012  58.0533747   5.9068154  68.3833816  57.8878019   4.9656598
  67.8131067  58.7609780   6.0630343  53.2277527  53.2901811  19.7329576
  53.8736390  52.7800765  20.2216801  53.0194678  54.0270493  20.3073001
  65.7530919  60.3582659  25.2321716  66.6222079  60.5323311  24.8708351
  65.2737670  61.1777076  25.1097446  59.9217099  67.4779760  16.9111150
  60.8244346  67.5103370  17.2277645  59.6954469  66.5480211  16.9257486
  61.6770701  66.2310747  13.5721229  60.7266332  66.2312608  13.4585601
  61.9803187  65.4843481  13.0557263  65.5633257  44.1484633   9.7399409
  64.7965653  43.5943119   9.8856091  65.9743962  44.2206501  10.6013560
  57.5675018  50.4369429  23.8304590  58.4306479  50.0806233  24.0407915
  56.9940428  50.0983323  24.5179994  77.4123395  72.0671285  14.6366991
  78.0501805  71.9478032  13.9330331  77.2944238  73.0152129  14.6954943
  74.2213101  72.0198713  14.5728516  73.8831613  71.9039778  13.6849051
  75.0902869  71.6189878  14.5529522  70.0799917  73.8734189  10.5625407
  69.5164782  73.7824126   9.7941694  69.9652312  73.0534094  11.0427899
  74.7032884  73.1733565  20.5314721  74.6921525  72.7786363  19.6595225
  74.8653523  72.4399637  21.1248493  67.6264349  75.3685381  13.4009627
  68.4185641  75.0276206  12.9855926  67.8660999  75.4780356  14.3211780
  75.6599475  77.5405157   5.8739872  75.0087455  78.1259238   5.4873885
  76.4543838  78.0711352   5.9334909  69.5855103  74.6294294   6.2727006
  70.3585979  74.0823281   6.1339882  69.9380501  75.4938544   6.4841467
  71.4240145  75.9570677  19.4793905  71.1330011  76.8616307  19.3640571
  72.0597129  75.9987204  20.1937975  72.3496352  73.3347525  16.0695265
  72.9459924  73.1103547  15.3552228  72.4071324  72.5932271  16.6720713
  71.9221380  70.7886960   3.9045456  72.1746901  70.2668482   3.1428919
  70.9845939  70.6253106   4.0072139  76.9664663  69.7922739  11.7120199
  77.7527752  69.3742162  11.3610616  77.2303368  70.6968831  11.8801847
  77.1374741  75.2295589   6.4108856  76.5020574  75.3030216   7.1229760
  76.8072147  75.8189188   5.7327935  82.3673090  69.7297972  12.6153178
  83.0998262  69.1597189  12.8491007  81.6112446  69.3419572  13.0559683
  71.6417669  72.6915066   6.1069831  71.5253927  72.0159970   6.7750915
  71.7519929  72.2047440   5.2901984  73.9849210  72.1525213   9.8116520
  73.6207417  71.6255834  10.5229441  74.8416326  71.7623682   9.6383005
  79.8898511  63.4419546  17.0747786  79.5581835  64.3114957  16.8509001
  79.2944124  63.1255830  17.7541817  73.6254697  67.1815113   4.8077869
  73.7929099  68.0495350   5.1748340  73.4351866  67.3442395   3.8839158
  76.3830030  75.6432092  16.4743699  76.0830753  76.5457131  16.3659506
  76.0381090  75.3764275  17.3264852  69.8342512  72.0945889  12.5080403
  68.9093008  71.9622103  12.7158095  70.0826925  72.8740108  13.0050346
  79.7827174  68.1614632  14.1541136  78.8744051  68.0930041  13.8599897
  79.7314770  68.6386577  14.9822962  73.6043918  69.6372771   5.7924535
  73.4843543  70.0829821   6.6310016  72.9096506  69.9858088   5.2338073
  67.1951323  71.7379162  13.3424192  67.3243704  71.9913641  14.2563604
  66.5148774  72.3306870  13.0228847  71.3650810  82.4076412   9.4414667
  71.2874840  83.3584237   9.5203147  70.7612454  82.0622285  10.0989593
  73.8568040  69.5804278  22.0976033  73.0801374  70.1398198  22.0878898
  74.4958603  70.0661061  22.6190904  81.6488820  66.3631071  15.9319010
  81.0063201  66.6563604  15.2858805  81.1443749  66.2483991  16.7372207
  79.3028984  70.1094244   6.6204869  80.2146840  70.3421631   6.4452567
  78.7938631  70.6931288   6.0579948  72.1114412  72.3889731  21.6594000
  72.8529096  72.9274775  21.3828824  71.4051398  73.0156020  21.8165552
  77.5869752  74.5318872  20.2566162  77.9953108  74.0901282  19.5120794
  76.8647013  73.9571499  20.5100355  73.9400822  69.4691478  17.6299719
  74.7862017  69.8930892  17.7734368  73.8799459  68.8125103  18.3238282
  77.9098566  75.0920062  14.0118451  77.2807429  75.2565776  13.3094519
  77.5224228  75.5061672  14.7829415  81.7887798  76.0274500  11.3662815
  81.1038836  76.4073401  10.8159848  81.8731648  76.6369827  12.0994762
  77.0900267  67.1295847  19.2880893  76.8461199  67.8837907  18.7515168
  77.3660198  67.5081194  20.1228140  79.0438730  73.6734459  17.9658158
  79.2555625  74.3166219  17.2892539  78.9968478  72.8396776  17.4980088
  76.6464959  66.2852280  14.8694730  75.7849438  66.5833533  15.1611468
  76.6727393  66.5022679  13.9375763  73.4626528  74.8294470  11.2768536
  73.9264874  75.1082173  10.4873158  73.1983326  73.9277915  11.0941627
  70.3550609  74.3765952  14.2148299  70.9251966  74.8053220  13.5765784
  70.9458721  74.0948537  14.9132485  72.3995414  70.9517623   8.0858101
  73.1019458  71.4038666   8.5532027  72.0676043  70.3101442   8.7137994
  70.8475776  69.5429379  22.4609310  70.2174436  70.2245660  22.6944707
  70.7411864  69.4312461  21.5162449  66.1420748  69.2101175  13.3875235
  65.3519802  69.4658704  12.9115345  66.6331996  70.0249513  13.4927275
  80.1584558  76.5506415  16.1380515  80.9802002  76.1486602  15.8563197
  80.1546961  76.4474649  17.0896631  68.0935494  69.5745755  10.3458711
  67.2966657  69.6864449  10.8642207  67.8661086  69.9132407   9.4799602
  73.9241161  76.0990458  18.2941226  73.9885594  76.5610865  19.1299398
  73.2152085  75.4687823  18.4223536  64.4258451  69.4631666  15.8190225
  64.6766490  70.3478676  16.0847801  64.9618000  69.2836267  15.0465317
  88.2490551  72.8945163  12.4865487  87.4954259  72.3252561  12.3309491
  88.3838092  72.8607828  13.4336122  73.6389179  77.7658565   8.1620206
  73.5034854  78.6110101   8.5905054  74.1798991  77.9677843   7.3986140
  70.1256519  63.8450145  24.8234562  69.7323464  63.2916344  25.4982206
  70.9422659  64.1560724  25.2141079  67.0918576  75.2834003   8.7348131
  67.6043097  76.0777254   8.8853696  67.7441289  74.5860294   8.6681733
  68.9013461  78.3999760  10.8170885  69.0780089  79.3217724  10.6291868
  69.6970295  78.0858179  11.2465264  73.0424480  65.2608024  22.4154818
  73.7834193  65.8615177  22.3359281  73.2742402  64.5185662  21.8572861
  68.1865818  70.4464392  20.6933048  68.0719333  69.5449649  20.9940147
  67.3310335  70.6928088  20.3417864  75.2657655  78.3882132  22.2920548
  74.8221510  77.6018510  21.9741453  75.9274869  78.5761282  21.6264439
  70.0244776  79.9177933  16.8181227  70.5752202  79.7894997  16.0458221
  69.1856252  80.2172822  16.4676120  77.3638893  78.6684932  20.3201950
  77.3457369  79.4893813  19.8282219  78.2858813  78.5439007  20.5452091
  73.8211948  76.1829061  21.1625458  74.3540284  75.4217349  20.9324766
  73.2926029  75.8902713  21.9049612  76.9881643  61.2889127  16.6919100
  76.6445912  62.1790769  16.6158210  77.3560605  61.0990785  15.8288685
  65.0567493  73.6122658   9.5107702  65.8942715  74.0219666   9.2941410
  65.2345761  72.6722100   9.4807896  76.9531925  71.2797738   5.1991535
  76.4378549  72.0502343   5.4379922  76.6809234  70.6062874   5.8224596
  74.5379036  66.1247439  10.2576773  73.6820633  65.7354290  10.0782412
  74.9505988  66.2039400   9.3976559  76.0678183  63.6593782  14.6568333
  75.5642978  63.6223918  13.8436138  76.3608790  64.5686525  14.7164990
  72.3121069  63.7432512  13.6634515  73.1774066  63.5475321  13.3040404
  72.3798578  63.5142864  14.5903871  81.9266199  74.0330093   7.1344708
  81.1495642  73.6941252   6.6899870  82.6057680  74.0382716   6.4599673
  76.7418228  69.1524830   7.0251316  76.4368364  69.4670980   7.8761459
  77.6948671  69.2306250   7.0678649  75.1864660  75.3115054   8.6744270
  74.6586022  74.5767813   8.3617507  74.6852163  76.0889730   8.4284238
  80.1657506  73.5064074  13.7911316  79.5081181  74.1963336  13.8791445
  80.9697905  73.8960506  14.1345303  69.9183388  65.9734720  11.0350882
  70.4927140  65.7509902  10.3024074  70.5054370  66.0423415  11.7879483
  78.9762965  71.8608447  11.8415258  79.4894847  72.4938439  12.3436968
  79.6264189  71.2609642  11.4758618  70.2452975  68.0039181   5.0546767
  69.4090287  68.3413868   5.3756042  70.1057745  67.8688161   4.1173904
  72.2206056  62.8475969   9.7625951  71.5670468  62.5324986   9.1382566
  72.1786530  62.2251709  10.4885774  73.3317260  73.1295264   1.6779243
  72.4244322  72.8984517   1.8770392  73.8288292  72.3332883   1.8653225
  76.2385339  81.8392771   4.5975929  75.5647038  82.1424468   5.2060887
  76.6251161  82.6421852   4.2481386  75.4543796  69.3357902  14.0873599
  74.5366357  69.5572849  13.9295287  75.8703940  69.4104213  13.2285306
  76.2378844  70.7349318   9.2176279  76.9850663  71.2470715   8.9083401
  76.5070433  70.4133371  10.0780672  74.5105494  73.2307859   6.2003233
  73.6016713  72.9466892   6.2975703  74.5400578  73.6506937   5.3406540
  79.7424761  76.8414448   9.9694401  79.2887088  76.0005358  10.0259591
  79.1118728  77.4775847  10.3069181  78.6857681  67.7706434  11.1995068
  77.9480438  67.2583821  11.5305311  78.9384454  67.3306816  10.3878345
  78.1857701  78.6790945  10.9044219  78.4780675  79.2396002  10.1856584
  78.6956321  78.9719506  11.6597378  78.7869308  60.5482686  11.7936837
  79.0928185  59.6880050  11.5062753  79.5121913  61.1400307  11.5935831
  65.0793664  70.9513373  10.1818435  64.8818064  70.3582734   9.4569502
  64.5240328  70.6465583  10.8994374  73.0590388  70.8436479  12.3013029
  73.1138998  69.8910316  12.2255505  72.2481590  70.9995919  12.7854327
  74.2081582  74.7716603   3.5391312  73.7701012  74.0552461   3.0796949
  74.9492023  74.9992717   2.9776403  70.9982748  69.4613539  10.0603407
  70.1850613  69.7607710  10.4668600  71.4941742  69.0669228  10.7777890
  73.1491326  79.4571296  11.9937672  73.1067505  79.6832142  11.0646204
  74.0654025  79.2234671  12.1423473  76.5956960  69.9255364  18.8918301
  76.9506347  70.1526837  19.7512767  77.2429091  70.2573740  18.2695557
  82.3254696  73.0473800   9.5967630  82.1872595  73.2375396   8.6688820
  81.9690915  73.8093182  10.0535681  70.4896823  67.0331895  15.6764642
  71.1296202  66.8920654  14.9787606  69.6574353  66.7466408  15.3003244
  82.3524076  75.1150327  14.6078902  82.7860583  75.0225616  15.4561956
  83.0655657  75.0907827  13.9698918  71.2657126  76.3334325  11.7899635
  72.0597725  75.8384645  11.5882210  70.5548819  75.8052188  11.4267340
  76.0851971  78.7152421  16.1412002  76.1388993  79.2843357  16.9089718
  75.2166752  78.8854306  15.7766040  67.5739890  70.4777407   7.8659387
  66.6437478  70.4161862   8.0829350  67.6697362  69.9553360   7.0696029
  67.4925439  67.0032220  10.4537629  67.7532256  67.9177553  10.3446790
  68.3142611  66.5356662  10.6034242  68.9650364  68.4169977  17.6236454
  69.6373418  68.2087339  16.9749103  68.1380151  68.2192063  17.1841686
  83.2139626  75.1574027  17.1411787  83.4075516  76.0619838  17.3871062
  83.1140244  74.6981446  17.9750372  74.8675936  65.0431918  19.6402115
  74.2203851  65.7421867  19.5466591  75.6376952  65.4768062  20.0078363
  78.2754734  75.3080770  22.7152668  78.1240241  75.0791322  21.7982752
  78.2659414  76.2651371  22.7284013  75.0440071  72.8812683  17.6998934
  75.9732131  73.0323842  17.5267902  74.6231101  72.9696704  16.8447581
  73.8428402  76.9063347  15.4697472  73.7039488  76.5382132  16.3423410
  73.0542999  77.4210987  15.2981430  74.4376554  82.0072444   6.8123008
  74.6128310  81.5360487   7.6268631  73.7509342  82.6338210   7.0404269
  75.3933618  76.2844950  12.8586310  75.0583450  76.2445720  13.7543960
  74.8937563  75.6189666  12.3856720  69.3677862  71.6912580  18.3838891
  69.2297660  70.9592819  18.9850430  70.2782785  71.6021480  18.1023079
  78.3292809  73.6300984   3.1323369  77.7121980  72.9047812   3.0356422
  77.8609298  74.3910344   2.7890444  71.9960162  71.4032539  17.8722570
  72.7059781  70.7625731  17.8309189  71.9529470  71.6545434  18.7948751
  79.9846941  78.3399893  20.7929150  79.9259487  77.6559113  20.1259733
  80.3866459  79.0818883  20.3409776  70.7089096  68.3897757  19.6918210
  70.1726453  67.9388496  20.3439806  70.1205805  68.5243666  18.9488674
  69.0037640  85.1561806  13.5862869  69.2434238  85.7880331  14.2641887
  68.1606836  84.8049846  13.8728228  70.1191355  67.8486408   2.2544674
  69.2420822  67.7275209   1.8906920  70.5949108  67.0572487   2.0023562
  79.9864348  76.3039476  19.0243129  79.0991127  75.9665398  19.1469528
  80.5562899  75.5722508  19.2611895  61.6393495  72.6363568  12.3486181
  62.3264535  72.3225298  11.7607196  61.4841624  73.5404933  12.0753432
  66.4428217  67.5253765  16.7771204  66.3586406  66.9179434  16.0421614
  65.6210924  68.0162783  16.7780701  73.5165502  80.9640929  15.9904373
  73.4435673  81.7695900  16.5023677  73.0742895  81.1632895  15.1652394
  73.3055281  80.2012699   9.5007194  72.5222803  80.7434379   9.5945419
  74.0048026  80.7186678   9.9001435  76.6151931  66.0107328  12.1441399
  77.1120631  65.2577291  11.8242470  75.8438913  66.0471645  11.5784609
  84.4681689  71.7147694  13.7859691  84.4571565  72.5972409  13.4153624
  83.5999068  71.3619245  13.5914228  75.9764185  80.8627763  18.1462531
  76.6892157  81.4975228  18.0738433  75.4854214  80.9591629  17.3302533
  77.6981712  74.7679016   9.7179823  76.7637991  74.8880478   9.5484527
  77.8758380  73.8651482   9.4539833  73.1986900  68.1524711  11.8713084
  72.8284688  67.5995752  12.5593990  73.6945993  67.5482845  11.3188084
  81.0854263  70.6096335  10.2529857  81.5514716  71.4424326  10.1790160
  81.5361764  70.1441316  10.9575116  71.0276099  78.6122206  18.9668102
  71.7285558  79.2458689  19.1197496  70.5571214  78.9536938  18.2063741
  79.1530494  76.9540156   7.2516009  79.4290338  76.8396751   8.1609883
  78.2834993  76.5557641   7.2128182  79.0570926  62.9776922  14.2920758
  78.1434006  63.2081149  14.4602965  79.4864028  63.0615366  15.1434791
  78.8277385  71.1666814  16.7920652  78.1748835  71.4142721  16.1373105
  79.2057765  70.3530952  16.4583130  75.7884559  81.2026507  10.8948823
  75.9706953  80.3848163  11.3576575  76.6117545  81.4194199  10.4573713
  76.1226724  80.1294692   8.1563871  76.6514490  79.6187147   7.5434033
  76.3854944  79.8137222   9.0209404  74.8764958  71.9086625  23.2786689
  74.2005595  71.8080754  23.9489065  75.6992592  71.7525839  23.7422687
  66.6243817  78.1458561  15.8999205  67.2097254  77.4002249  16.0327109
  66.4268655  78.4562518  16.7835869  69.4782472  81.1809809  10.9161647
  68.8092847  81.6655936  10.4325687  69.3395342  81.4279029  11.8305026
  61.2161471  70.7164162  14.6203648  61.2545571  70.1827752  15.4140766
  60.7101764  70.1899367  14.0014625  73.6187741  83.2153552  17.5144305
  74.1706049  83.3785174  18.2793391  73.9593934  83.8057990  16.8424330
  68.5952234  65.5628702  18.1166190  68.6593560  66.4243533  17.7043588
  68.5319354  64.9502704  17.3838549  68.0704506  67.6351835  21.7639224
  68.6976545  67.2528912  22.3776749  67.2132425  67.4166037  22.1294917
  78.4698615  78.0414810  23.3692960  79.0138519  78.6544768  22.8747915
  77.8885460  78.5994388  23.8859973  64.8470049  69.4428264   7.6957579
  65.1423490  68.5338942   7.6424633  63.9458085  69.4216003   7.3738582
  76.7556128  81.1635528  14.5007988  76.6307267  80.3625268  13.9918933
  77.4135219  81.6581721  14.0121958  68.3764296  67.5184260  13.6785128
  67.6550882  68.1320228  13.5392601  69.1657552  68.0542025  13.6001774
  78.8191036  78.9644548  16.1287538  77.8721372  78.8449899  16.0565864
  79.1673809  78.0767046  16.2113799  71.1790610  64.8538687  19.9525780
  71.7025011  65.1000983  20.7152089  70.9602943  65.6858722  19.5328917
  66.5757891  67.1242361   7.8196904  66.2470597  66.2439740   7.6372010
  66.9297261  67.0690030   8.7073294  75.8237469  78.7597264  12.3291890
  75.6762432  77.8313972  12.5099460  76.6490963  78.7817355  11.8448965
  69.6899714  67.4115331   8.1872382  70.0295786  67.9401252   7.4650990
  70.1371834  67.7495737   8.9630949  79.4271591  79.5825823  13.4156763
  80.3518139  79.3768684  13.2781214  79.2586895  79.3342224  14.3246104
  72.3843155  65.7952382  17.6375450  72.0439975  64.9960195  18.0396130
  71.6782161  66.0954093  17.0652283  73.0359626  62.8801694  16.0902773
  73.8585696  62.4062173  15.9681663  73.2797690  63.6592178  16.5901459
  71.6767861  65.9089953   6.3865675  72.3976223  66.2871206   5.8829392
  71.0533165  66.6278830   6.4900653  75.8198984  66.6135102   7.3224007
  76.0362598  67.4959740   7.0212835  75.3393051  66.2221315   6.5929649
  70.5598205  69.5720815  13.8994752  70.4142786  69.8861118  14.7919033
  70.0823409  70.1905715  13.3465650  72.4194588  66.5623363  13.9475641
  72.4056157  65.6664456  13.6107939  73.1367016  66.5694027  14.5813927
  74.2720719  66.9960703  15.9928769  74.0138497  67.9177774  15.9913099
  73.7405759  66.5991138  16.6829233  79.2166908  80.1011490   8.7718854
  79.3903785  79.5357913   8.0192707  79.7095799  80.9012385   8.5898344
  65.0343867  72.1126159  16.8382413  64.4897335  72.8885967  16.9702687
  65.9123217  72.4596964  16.6801534  71.8231484  65.4437743   9.2163211
  71.9447395  64.5154389   9.4154099  71.5333526  65.4576429   8.3041527
  74.6922674  63.1292654  12.3529931  74.7144371  63.1931987  11.3981911
  75.1090733  62.2897162  12.5470437  85.0706299  72.8647913  10.3909154
  85.5137445  72.1155238   9.9928277  84.1932809  72.8558050  10.0082886
  80.2042080  79.4178255   5.8715752  80.8992985  80.0384947   6.0903067
  80.5465230  78.5673606   6.1468130  65.8209889  71.2396056  19.7312570
  65.0791625  71.3878691  20.3177200  65.5002633  71.5004321  18.8679319
  82.1033503  76.8677960   7.4003083  82.6284827  77.2065233   6.6752403
  82.0155856  75.9324976   7.2166218  73.7653552  80.7812034  19.5292960
  74.0740678  80.5361181  20.4015659  74.5629034  80.9858672  19.0411830
  73.7874164  82.9349944  11.7598336  73.3479154  82.4426322  12.4531193
  74.5382281  82.3922911  11.5190412  66.2666503  79.1261484  11.7622964
  67.0924523  78.8265256  11.3821608  65.9160555  78.3569107  12.2112753
  71.2348036  78.4787953  13.8320638  70.6128045  77.8158658  13.5322866
  71.9052903  78.5049084  13.1494286  64.4675108  77.0447811  12.7211898
  63.6307016  76.6169985  12.5395899  64.4398753  77.2380254  13.6582689
  71.3072564  66.9569741  23.4253144  71.3560719  67.8331863  23.0430914
  71.8495078  66.4147134  22.8524787  81.7927409  77.5010864  22.7054281
  81.0022953  77.4835003  22.1658781  81.5560764  78.0399158  23.4603318
  81.9125284  74.3503330  20.0187010  81.9623289  74.1853338  20.9602532
  81.8039208  73.4830589  19.6284890  70.7961543  77.0291876   7.3079099
  70.9449663  77.7127340   6.6545771  71.6027986  77.0096966   7.8228554
  79.2029047  70.3334258  21.3346316  80.1038909  70.1940723  21.0430314
  79.2777021  70.4988713  22.2744494  73.5371852  67.7101113  20.1799503
  72.6675161  68.0034679  19.9082091  73.7731332  68.2941558  20.9006766
  83.4143481  76.7700272  20.2629031  83.1228289  77.1330252  21.0992492
  82.8015612  76.0567280  20.0842363  84.6139163  74.3353152  12.7831601
  85.4486055  74.7742956  12.9469162  84.7498292  73.8591805  11.9639847
  81.6630669  71.8932886  18.7309089  82.1384791  72.0860533  17.9227941
  80.7396235  71.9492072  18.4852473  68.5514176  73.0557054   8.3140167
  68.3060218  72.1519384   8.5120378  68.7210090  73.0574204   7.3719645
  76.2410886  63.9280730  17.6964923  76.7592830  64.6641757  17.3711412
  75.8866019  64.2344723  18.5311682  67.8209823  68.7885411   5.8126329
  67.1279068  68.8629766   5.1566365  67.5761575  68.0245755   6.3347846
  76.4923480  60.3481012  13.2165820  76.7725234  59.6804202  13.8426246
  77.2774087  60.5410108  12.7040484  74.2956948  79.5240006   4.7790846
  73.7230916  80.1430194   4.3261318  74.8689742  80.0739368   5.3130768
  80.3632338  68.7698646  16.9637395  81.3149761  68.8696744  16.9849619
  80.1935789  67.9776915  17.4735479  78.3846718  65.8554230  17.1496796
  77.7896650  66.1359242  16.4543284  78.0996414  66.3448131  17.9213537
  77.5154208  79.8077157   5.9099428  78.4484881  79.7422718   6.1132304
  77.4277421  80.6433423   5.4513961  80.1442225  79.1243027   2.8703376
  80.0655856  78.7902890   3.7639134  80.9651892  79.6164795   2.8694848
  82.8420416  71.9904766  16.0779694  82.8096736  71.0520767  16.2639378
  83.4521040  72.0688803  15.3445519  74.6803747  70.8600819   2.1206899
  75.6262852  70.7307027   2.1895317  74.3017992  70.1215481   2.5976327
  82.9914905  68.7815810  16.1237978  82.4753953  67.9974266  15.9367907
  83.8754853  68.4534526  16.2884497  80.6525632  62.5256825  12.0833790
  80.4550453  62.2171913  12.9677122  81.2625337  63.2518464  12.2131720
  88.6596966  73.0520773  15.2185731  89.3900354  72.7906061  15.7793435
  88.0503911  72.3149495  15.2587799  86.7412263  71.1928636  15.8160182
  86.0145427  71.0584601  15.2076674  86.3259550  71.5005464  16.6216900
  74.5642440  74.9118565  23.5807555  75.4845449  75.0897164  23.7747602
  74.5292023  73.9674611  23.4287255  72.8646664  68.7850796   2.0561784
  71.9578120  68.4883908   2.1324497  73.1422645  68.4880614   1.1896070
  63.7824605  70.1057159  12.5060830  63.4627389  69.2522467  12.2135204
  63.2358033  70.3205737  13.2618797  67.5604512  72.8219600  16.2230337
  67.7790522  73.7536708  16.2418370  67.9730286  72.4627574  17.0085140
  74.4808730  63.3287685   8.2106025  73.6709458  62.9834770   8.5861271
  75.1693147  63.0195229   8.7993637  76.4099278  62.4065732   9.8330322
  76.9630317  62.8261185  10.4920345  76.6469365  61.4801480   9.8753278
  72.4332377  68.3952806  25.6133086  72.3329104  69.3447163  25.5445177
  72.2153919  68.0671045  24.7409156  71.6345449  65.6437731   2.1973763
  72.4964613  65.9692629   2.4569580  71.8195793  64.8569227   1.6846829
  63.6512865  73.7260070  14.4753952  62.9576336  73.3114023  13.9623906
  64.3985856  73.7680607  13.8787371  79.7878085  64.5166257   9.3408986
  79.2076754  65.1751061   8.9587038  79.5214018  63.6943602   8.9296403
  78.2381652  63.9171315  11.5430306  78.7381430  64.0287849  10.7344625
  78.8817260  63.6132368  12.1831115  72.2963647  71.8249945  24.4298147
  71.8130729  72.6250305  24.6362036  72.3824586  71.8357889  23.4765591
  65.5649607  73.6578324  12.3519967  65.5420295  73.7566011  11.4001850
  65.8750244  74.5043475  12.6737133  68.2236985  75.7154479  16.4666581
  69.1780238  75.6838422  16.3996513  68.0249509  75.2545103  17.2816807
  68.8136367  74.2855595  19.0337379  69.6329256  74.7799674  19.0572216
  69.0873175  73.3687563  19.0054946  78.5702963  66.6766348   8.3965334
  77.6828818  66.9615998   8.1785529  78.9856952  66.5160111   7.5492611
  81.9217499  66.7012869  12.1119673  82.6977889  67.1909321  12.3844290
  81.1965634  67.1270923  12.5691543  84.3590058  67.4140488  13.1693614
  84.9534549  67.1736224  12.4586922  84.4316642  66.6947618  13.7967150
  66.5787214  81.2574099  13.4836779  66.4441682  80.4974500  12.9174777
  66.1619276  81.9814999  13.0165568  77.7146177  76.4411022   2.4913354
  78.4182027  76.6461025   3.1071010  76.9908825  77.0087784   2.7562438
  78.5443987  72.1920884   8.6115624  78.4879188  72.6489435   7.7723257
  79.0972329  71.4311568   8.4338467  82.3548793  67.9810615   9.4365744
  82.0985727  67.5807251  10.2673952  81.7301661  68.6954409   9.3115883
  86.6661131  70.7206689  11.9437035  86.1060689  70.7899878  12.7168597
  86.0604634  70.5447673  11.2236531  69.7356340  82.1543416  13.6955222
  69.6188724  83.0988848  13.5933912  68.9148786  81.8516977  14.0841021
  79.6232874  76.8793551   4.5411814  80.4578478  76.4474750   4.3589289
  79.4617217  76.7075565   5.4688709  79.2778766  73.3825665   5.9068154
  79.2227570  73.2169936   4.9656598  78.6524822  74.0901698   6.0630343
  64.0671281  68.6193729  19.7329576  64.7130145  68.1092683  20.2216801
  63.8588432  69.3562411  20.3073001  76.5924673  75.6874577  25.2321716
  77.4615833  75.8615229  24.8708351  76.1131425  76.5068993  25.1097446
  72.5874892  62.8833774   5.4853472  72.5753562  63.8275614   5.6421743
  73.4798314  62.7003919   5.1912933  70.7610854  82.8071678  16.9111150
  71.6638100  82.8395288  17.2277645  70.5348224  81.8772129  16.9257486
  72.5164456  81.5602664  13.5721229  71.5660087  81.5604526  13.4585601
  72.8196942  80.8135399  13.0557263  76.4027011  59.4776550   9.7399409
  75.6359407  58.9235037   9.8856091  76.8137716  59.5498419  10.6013560
  68.4068772  65.7661346  23.8304590  69.2700234  65.4098151  24.0407915
  67.8334183  65.4275241  24.5179994  88.2517149  87.3963203  14.6366991
  88.8895559  87.2769950  13.9330331  88.1337992  88.3444047  14.6954943
  85.0606855  87.3490631  14.5728516  84.7225367  87.2331695  13.6849051
  85.9296624  86.9481796  14.5529522  80.9193671  89.2026107  10.5625407
  80.3558536  89.1116044   9.7941694  80.8046066  88.3826012  11.0427899
  85.5426638  88.5025482  20.5314721  85.5315279  88.1078281  19.6595225
  85.7047278  87.7691555  21.1248493  78.4658103  90.6977299  13.4009627
  79.2579395  90.3568123  12.9855926  78.7054753  90.8072274  14.3211780
  86.4993230  92.8697075   5.8739872  85.8481210  93.4551155   5.4873885
  87.2937593  93.4003270   5.9334909  80.4248857  89.9586212   6.2727006
  81.1979733  89.4115199   6.1339882  80.7774256  90.8230461   6.4841467
  82.2633900  91.2862594  19.4793905  81.9723766  92.1908225  19.3640571
  82.8990884  91.3279122  20.1937975  83.1890106  88.6639443  16.0695265
  83.7853679  88.4395465  15.3552228  83.2465078  87.9224188  16.6720713
  82.7615135  86.1178878   3.9045456  83.0140656  85.5960399   3.1428919
  81.8239694  85.9545023   4.0072139  87.8058418  85.1214656  11.7120199
  88.5921507  84.7034080  11.3610616  88.0697122  86.0260749  11.8801847
  87.9768495  90.5587507   6.4108856  87.3414328  90.6322133   7.1229760
  87.6465901  91.1481106   5.7327935  93.2066845  85.0589890  12.6153178
  93.9392017  84.4889106  12.8491007  92.4506201  84.6711490  13.0559683
  82.4811424  88.0206984   6.1069831  82.3647682  87.3451887   6.7750915
  82.5913684  87.5339358   5.2901984  84.8242965  87.4817131   9.8116520
  84.4601172  86.9547752  10.5229441  85.6810080  87.0915600   9.6383005
  90.7292265  78.7711464  17.0747786  90.3975590  79.6406875  16.8509001
  90.1337879  78.4547748  17.7541817  84.4648452  82.5107031   4.8077869
  84.6322854  83.3787267   5.1748340  84.2745621  82.6734313   3.8839158
  87.2223785  90.9724010  16.4743699  86.9224508  91.8749049  16.3659506
  86.8774844  90.7056193  17.3264852  80.6736266  87.4237807  12.5080403
  79.7486763  87.2914021  12.7158095  80.9220679  88.2032026  13.0050346
  90.6220929  83.4906550  14.1541136  89.7137806  83.4221958  13.8599897
  90.5708524  83.9678495  14.9822962  84.4437672  84.9664688   5.7924535
  84.3237298  85.4121739   6.6310016  83.7490261  85.3150006   5.2338073
  78.0345077  87.0671080  13.3424192  78.1637458  87.3205559  14.2563604
  77.3542529  87.6598788  13.0228847  82.2044565  97.7368330   9.4414667
  82.1268594  98.6876155   9.5203147  81.6006208  97.3914203  10.0989593
  84.6961794  84.9096195  22.0976033  83.9195128  85.4690116  22.0878898
  85.3352357  85.3952978  22.6190904  92.4882575  81.6922988  15.9319010
  91.8456955  81.9855521  15.2858805  91.9837503  81.5775909  16.7372207
  90.1422739  85.4386161   6.6204869  91.0540595  85.6713548   6.4452567
  89.6332386  86.0223206   6.0579948  82.9508167  87.7181649  21.6594000
  83.6922851  88.2566693  21.3828824  82.2445152  88.3447938  21.8165552
  88.4263506  89.8610789  20.2566162  88.8346862  89.4193200  19.5120794
  87.7040768  89.2863417  20.5100355  84.7794576  84.7983396  17.6299719
  85.6255771  85.2222810  17.7734368  84.7193214  84.1417020  18.3238282
  88.7492321  90.4211980  14.0118451  88.1201183  90.5857694  13.3094519
  88.3617983  90.8353589  14.7829415  92.6281553  91.3566418  11.3662815
  91.9432591  91.7365319  10.8159848  92.7125402  91.9661744  12.0994762
  87.9294022  82.4587764  19.2880893  87.6854953  83.2129825  18.7515168
  88.2053952  82.8373112  20.1228140  89.8832484  89.0026377  17.9658158
  90.0949380  89.6458137  17.2892539  89.8362233  88.1688693  17.4980088
  87.4858713  81.6144197  14.8694730  86.6243192  81.9125451  15.1611468
  87.5121148  81.8314596  13.9375763  84.3020283  90.1586388  11.2768536
  84.7658628  90.4374091  10.4873158  84.0377081  89.2569833  11.0941627
  81.1944364  89.7057870  14.2148299  81.7645721  90.1345138  13.5765784
  81.7852476  89.4240454  14.9132485  83.2389169  86.2809540   8.0858101
  83.9413212  86.7330584   8.5532027  82.9069797  85.6393359   8.7137994
  81.6869530  84.8721297  22.4609310  81.0568191  85.5537578  22.6944707
  81.5805618  84.7604379  21.5162449  76.9814503  84.5393093  13.3875235
  76.1913557  84.7950622  12.9115345  77.4725750  85.3541431  13.4927275
  90.9978312  91.8798332  16.1380515  91.8195756  91.4778520  15.8563197
  90.9940715  91.7766566  17.0896631  78.9329248  84.9037672  10.3458711
  78.1360411  85.0156367  10.8642207  78.7054840  85.2424325   9.4799602
  84.7634916  91.4282376  18.2941226  84.8279348  91.8902783  19.1299398
  84.0545840  90.7979740  18.4223536  75.2652206  84.7923584  15.8190225
  75.5160244  85.6770593  16.0847801  75.8011754  84.6128185  15.0465317
  99.0884305  88.2237081  12.4865487  98.3348014  87.6544479  12.3309491
  99.2231847  88.1899745  13.4336122  84.4782933  93.0950483   8.1620206
  84.3428608  93.9402019   8.5905054  85.0192746  93.2969761   7.3986140
  80.9650273  79.1742063  24.8234562  80.5717219  78.6208261  25.4982206
  81.7816413  79.4852641  25.2141079  77.9312331  90.6125921   8.7348131
  78.4436851  91.4069171   8.8853696  78.5835044  89.9152212   8.6681733
  79.7407216  93.7291677  10.8170885  79.9173844  94.6509642  10.6291868
  80.5364049  93.4150097  11.2465264  83.8818234  80.5899942  22.4154818
  84.6227947  81.1907095  22.3359281  84.1136157  79.8477580  21.8572861
  79.0259572  85.7756309  20.6933048  78.9113087  84.8741566  20.9940147
  78.1704090  86.0220006  20.3417864  86.1051410  93.7174050  22.2920548
  85.6615264  92.9310428  21.9741453  86.7668623  93.9053200  21.6264439
  80.8638531  95.2469851  16.8181227  81.4145956  95.1186914  16.0458221
  80.0250007  95.5464740  16.4676120  88.2032648  93.9976849  20.3201950
  88.1851123  94.8185731  19.8282219  89.1252568  93.8730925  20.5452091
  84.6605702  91.5120979  21.1625458  85.1934039  90.7509267  20.9324766
  84.1319783  91.2194631  21.9049612  87.8275397  76.6181045  16.6919100
  87.4839666  77.5082687  16.6158210  88.1954360  76.4282703  15.8288685
  75.8961248  88.9414575   9.5107702  76.7336470  89.3511584   9.2941410
  76.0739515  88.0014018   9.4807896  87.7925680  86.6089656   5.1991535
  87.2772303  87.3794261   5.4379922  87.5202988  85.9354792   5.8224596
  85.3772791  81.4539357  10.2576773  84.5214387  81.0646207  10.0782412
  85.7899743  81.5331318   9.3976559  86.9071937  78.9885700  14.6568333
  86.4036733  78.9515835  13.8436138  87.2002544  79.8978443  14.7164990
  83.1514823  79.0724430  13.6634515  84.0167820  78.8767238  13.3040404
  83.2192332  78.8434782  14.5903871  92.7659954  89.3622011   7.1344708
  91.9889397  89.0233170   6.6899870  93.4451435  89.3674634   6.4599673
  87.5811983  84.4816748   7.0251316  87.2762118  84.7962897   7.8761459
  88.5342425  84.5598168   7.0678649  86.0258415  90.6406971   8.6744270
  85.4979776  89.9059731   8.3617507  85.5245917  91.4181648   8.4284238
  91.0051261  88.8355992  13.7911316  90.3474935  89.5255253  13.8791445
  91.8091660  89.2252424  14.1345303  80.7577142  81.3026638  11.0350882
  81.3320894  81.0801819  10.3024074  81.3448125  81.3715332  11.7879483
  89.8156720  87.1900365  11.8415258  90.3288601  87.8230356  12.3436968
  90.4657943  86.5901560  11.4758618  81.0846729  83.3331099   5.0546767
  80.2484042  83.6705785   5.3756042  80.9451499  83.1980079   4.1173904
  83.0599810  78.1767887   9.7625951  82.4064222  77.8616904   9.1382566
  83.0180284  77.5543627  10.4885774  84.1711015  88.4587182   1.6779243
  83.2638077  88.2276435   1.8770392  84.6682047  87.6624801   1.8653225
  87.0779094  97.1684689   4.5975929  86.4040793  97.4716386   5.2060887
  87.4644916  97.9713769   4.2481386  86.2937550  84.6649820  14.0873599
  85.3760112  84.8864767  13.9295287  86.7097694  84.7396131  13.2285306
  87.0772598  86.0641236   9.2176279  87.8244417  86.5762633   8.9083401
  87.3464188  85.7425289  10.0780672  85.3499248  88.5599777   6.2003233
  84.4410468  88.2758809   6.2975703  85.3794332  88.9798855   5.3406540
  90.5818516  92.1706366   9.9694401  90.1280843  91.3297276  10.0259591
  89.9512482  92.8067764  10.3069181  89.5251435  83.0998352  11.1995068
  88.7874192  82.5875738  11.5305311  89.7778209  82.6598734  10.3878345
  89.0251455  94.0082863  10.9044219  89.3174429  94.5687920  10.1856584
  89.5350076  94.3011424  11.6597378  89.6263063  75.8774604  11.7936837
  89.9321939  75.0171968  11.5062753  90.3515667  76.4692224  11.5935831
  75.9187419  86.2805291  10.1818435  75.7211819  85.6874651   9.4569502
  75.3634083  85.9757501  10.8994374  83.8984142  86.1728397  12.3013029
  83.9532752  85.2202234  12.2255505  83.0875344  86.3287836  12.7854327
  85.0475336  90.1008520   3.5391312  84.6094766  89.3844379   3.0796949
  85.7885777  90.3284635   2.9776403  81.8376502  84.7905457  10.0603407
  81.0244368  85.0899627  10.4668600  82.3335497  84.3961146  10.7777890
  83.9885080  94.7863214  11.9937672  83.9461259  95.0124060  11.0646204
  84.9047779  94.5526588  12.1423473  87.4350714  85.2547281  18.8918301
  87.7900102  85.4818755  19.7512767  88.0822845  85.5865658  18.2695557
  93.1648451  88.3765717   9.5967630  93.0266350  88.5667313   8.6688820
  92.8084670  89.1385100  10.0535681  81.3290577  82.3623812  15.6764642
  81.9689956  82.2212572  14.9787606  80.4968108  82.0758326  15.3003244
  93.1917831  90.4442244  14.6078902  93.6254337  90.3517533  15.4561956
  93.9049411  90.4199745  13.9698918  82.1050881  91.6626243  11.7899635
  82.8991479  91.1676563  11.5882210  81.3942573  91.1344106  11.4267340
  86.9245725  94.0444338  16.1412002  86.9782748  94.6135275  16.9089718
  86.0560507  94.2146223  15.7766040  78.4133644  85.8069325   7.8659387
  77.4831233  85.7453780   8.0829350  78.5091116  85.2845277   7.0696029
  78.3319193  82.3324137  10.4537629  78.5926011  83.2469471  10.3446790
  79.1536366  81.8648580  10.6034242  79.8044119  83.7461895  17.6236454
  80.4767172  83.5379257  16.9749103  78.9773905  83.5483981  17.1841686
  94.0533380  90.4865945  17.1411787  94.2469270  91.3911755  17.3871062
  93.9533998  90.0273364  17.9750372  85.7069691  80.3723835  19.6402115
  85.0597606  81.0713785  19.5466591  86.4770706  80.8059979  20.0078363
  89.1148489  90.6372688  22.7152668  88.9633995  90.4083239  21.7982752
  89.1053168  91.5943289  22.7284013  85.8833825  88.2104600  17.6998934
  86.8125885  88.3615760  17.5267902  85.4624855  88.2988621  16.8447581
  84.6822157  92.2355265  15.4697472  84.5433243  91.8674049  16.3423410
  83.8936753  92.7502904  15.2981430  85.2770309  97.3364361   6.8123008
  85.4522065  96.8652404   7.6268631  84.5903097  97.9630127   7.0404269
  86.2327372  91.6136868  12.8586310  85.8977205  91.5737637  13.7543960
  85.7331318  90.9481583  12.3856720  80.2071616  87.0204498  18.3838891
  80.0691414  86.2884736  18.9850430  81.1176540  86.9313398  18.1023079
  89.1686564  88.9592902   3.1323369  88.5515734  88.2339730   3.0356422
  88.7003052  89.7202262   2.7890444  82.8353917  86.7324457  17.8722570
  83.5453535  86.0917649  17.8309189  82.7923225  86.9837352  18.7948751
  90.8240695  93.6691810  20.7929150  90.7653242  92.9851030  20.1259733
  91.2260214  94.4110800  20.3409776  81.5482851  83.7189675  19.6918210
  81.0120208  83.2680413  20.3439806  80.9599559  83.8535584  18.9488674
  79.8431394 100.4853724  13.5862869  80.0827992 101.1172248  14.2641887
  79.0000591 100.1341764  13.8728228  80.9585110  83.1778326   2.2544674
  80.0814576  83.0567127   1.8906920  81.4342863  82.3864404   2.0023562
  90.8258103  91.6331394  19.0243129  89.9384881  91.2957316  19.1469528
  91.3956654  90.9014425  19.2611895  72.4787250  87.9655486  12.3486181
  73.1658290  87.6517216  11.7607196  72.3235379  88.8696851  12.0753432
  77.2821972  82.8545682  16.7771204  77.1980161  82.2471352  16.0421614
  76.4604678  83.3454701  16.7780701  84.3559256  96.2932846  15.9904373
  84.2829428  97.0987818  16.5023677  83.9136649  96.4924812  15.1652394
  84.1449036  95.5304617   9.5007194  83.3616558  96.0726297   9.5945419
  84.8441781  96.0478596   9.9001435  87.4545686  81.3399246  12.1441399
  87.9514385  80.5869208  11.8242470  86.6832667  81.3763563  11.5784609
  95.3075443  87.0439612  13.7859691  95.2965319  87.9264327  13.4153624
  94.4392823  86.6911162  13.5914228  86.8157940  96.1919681  18.1462531
  87.5285912  96.8267145  18.0738433  86.3247968  96.2883547  17.3302533
  88.5375467  90.0970933   9.7179823  87.6031745  90.2172396   9.5484527
  88.7152135  89.1943400   9.4539833  84.0380655  83.4816629  11.8713084
  83.6678442  82.9287669  12.5593990  84.5339747  82.8774762  11.3188084
  91.9248018  85.9388252  10.2529857  92.3908470  86.7716244  10.1790160
  92.3755518  85.4733234  10.9575116  81.8669853  93.9414124  18.9668102
  82.5679313  94.5750607  19.1197496  81.3964968  94.2828856  18.2063741
  89.9924249  92.2832074   7.2516009  90.2684093  92.1688668   8.1609883
  89.1228748  91.8849559   7.2128182  89.8964681  78.3068839  14.2920758
  88.9827760  78.5373066  14.4602965  90.3257782  78.3907284  15.1434791
  89.6671139  86.4958731  16.7920652  89.0142589  86.7434639  16.1373105
  90.0451519  85.6822870  16.4583130  86.6278313  96.5318425  10.8948823
  86.8100708  95.7140081  11.3576575  87.4511299  96.7486117  10.4573713
  86.9620478  95.4586610   8.1563871  87.4908245  94.9479064   7.5434033
  87.2248698  95.1429140   9.0209404  85.7158712  87.2378543  23.2786689
  85.0399349  87.1372672  23.9489065  86.5386346  87.0817756  23.7422687
  77.4637571  93.4750479  15.8999205  78.0491008  92.7294167  16.0327109
  77.2662410  93.7854436  16.7835869  80.3176226  96.5101726  10.9161647
  79.6486602  96.9947854  10.4325687  80.1789096  96.7570947  11.8305026
  72.0555226  86.0456079  14.6203648  72.0939325  85.5119670  15.4140766
  71.5495519  85.5191285  14.0014625  84.4581495  98.5445470  17.5144305
  85.0099803  98.7077091  18.2793391  84.7987688  99.1349908  16.8424330
  79.4345988  80.8920620  18.1166190  79.4987315  81.7535451  17.7043588
  79.3713108  80.2794621  17.3838549  78.9098261  82.9643752  21.7639224
  79.5370300  82.5820830  22.3776749  78.0526180  82.7457954  22.1294917
  89.3092369  93.3706727  23.3692960  89.8532273  93.9836686  22.8747915
  88.7279214  93.9286306  23.8859973  75.6863804  84.7720181   7.6957579
  75.9817245  83.8630860   7.6424633  74.7851839  84.7507921   7.3738582
  87.5949882  96.4927445  14.5007988  87.4701022  95.6917185  13.9918933
  88.2528973  96.9873639  14.0121958  79.2158051  82.8476178  13.6785128
  78.4944636  83.4612146  13.5392601  80.0051306  83.3833943  13.6001774
  89.6584791  94.2936466  16.1287538  88.7115126  94.1741817  16.0565864
  90.0067564  93.4058964  16.2113799  82.0184364  80.1830604  19.9525780
  82.5418766  80.4292901  20.7152089  81.7996697  81.0150639  19.5328917
  77.4151645  82.4534279   7.8196904  77.0864351  81.5731658   7.6372010
  77.7691016  82.3981948   8.7073294  86.6631224  94.0889182  12.3291890
  86.5156186  93.1605889  12.5099460  87.4884717  94.1109272  11.8448965
  80.5293468  82.7407249   8.1872382  80.8689541  83.2693170   7.4650990
  80.9765589  83.0787655   8.9630949  90.2665346  94.9117741  13.4156763
  91.1911893  94.7060602  13.2781214  90.0980649  94.6634142  14.3246104
  83.2236909  81.1244300  17.6375450  82.8833729  80.3252113  18.0396130
  82.5175915  81.4246010  17.0652283  83.8753381  78.2093612  16.0902773
  84.6979450  77.7354090  15.9681663  84.1191444  78.9884096  16.5901459
  82.5161615  81.2381870   6.3865675  83.2369978  81.6163123   5.8829392
  81.8926920  81.9570747   6.4900653  86.6592738  81.9427019   7.3224007
  86.8756353  82.8251657   7.0212835  86.1786805  81.5513233   6.5929649
  81.3991960  84.9012733  13.8994752  81.2536540  85.2153036  14.7919033
  80.9217163  85.5197633  13.3465650  83.2588343  81.8915281  13.9475641
  83.2449911  80.9956374  13.6107939  83.9760771  81.8985944  14.5813927
  85.1114473  82.3252621  15.9928769  84.8532251  83.2469691  15.9913099
  84.5799514  81.9283055  16.6829233  90.0560662  95.4303408   8.7718854
  90.2297540  94.8649830   8.0192707  90.5489553  96.2304303   8.5898344
  75.8737622  87.4418077  16.8382413  75.3291090  88.2177885  16.9702687
  76.7516972  87.7888882  16.6801534  82.6625238  80.7729661   9.2163211
  82.7841150  79.8446307   9.4154099  82.3727281  80.7868347   8.3041527
  85.5316429  78.4584571  12.3529931  85.5538126  78.5223904  11.3981911
  85.9484488  77.6189080  12.5470437  95.9100053  88.1939831  10.3909154
  96.3531199  87.4447156   9.9928277  95.0326563  88.1849967  10.0082886
  91.0435835  94.7470172   5.8715752  91.7386739  95.3676865   6.0903067
  91.3858985  93.8965524   6.1468130  76.6603644  86.5687973  19.7312570
  75.9185380  86.7170609  20.3177200  76.3396388  86.8296239  18.8679319
  92.9427258  92.1969878   7.4003083  93.4678582  92.5357151   6.6752403
  92.8549610  91.2616893   7.2166218  84.6047306  96.1103952  19.5292960
  84.9134433  95.8653098  20.4015659  85.4022788  96.3150590  19.0411830
  84.6267918  98.2641861  11.7598336  84.1872909  97.7718240  12.4531193
  85.3776035  97.7214829  11.5190412  77.1060257  94.4553402  11.7622964
  77.9318277  94.1557174  11.3821608  76.7554309  93.6861024  12.2112753
  82.0741791  93.8079870  13.8320638  81.4521800  93.1450575  13.5322866
  82.7446657  93.8341002  13.1494286  75.3068862  92.3739728  12.7211898
  74.4700771  91.9461903  12.5395899  75.2792508  92.5672172  13.6582689
  82.1466318  82.2861658  23.4253144  82.1954473  83.1623781  23.0430914
  82.6888832  81.7439051  22.8524787  92.6321164  92.8302782  22.7054281
  91.8416707  92.8126920  22.1658781  92.3954518  93.3691075  23.4603318
  92.7519039  89.6795248  20.0187010  92.8017044  89.5145255  20.9602532
  92.6432962  88.8122507  19.6284890  81.6355297  92.3583794   7.3079099
  81.7843418  93.0419258   6.6545771  82.4421741  92.3388884   7.8228554
  90.0422801  85.6626176  21.3346316  90.9432664  85.5232641  21.0430314
  90.1170776  85.8280631  22.2744494  84.3765606  83.0393031  20.1799503
  83.5068916  83.3326597  19.9082091  84.6125087  83.6233476  20.9006766
  94.2537236  92.0992189  20.2629031  93.9622044  92.4622170  21.0992492
  93.6409367  91.3859198  20.0842363  95.4532918  89.6645069  12.7831601
  96.2879809  90.1034873  12.9469162  95.5892047  89.1883722  11.9639847
  92.5024424  87.2224804  18.7309089  92.9778545  87.4152450  17.9227941
  91.5789989  87.2783990  18.4852473  79.3907930  88.3848971   8.3140167
  79.1453972  87.4811301   8.5120378  79.5603845  88.3866122   7.3719645
  87.0804640  79.2572648  17.6964923  87.5986584  79.9933675  17.3711412
  86.7259773  79.5636641  18.5311682  78.6603578  84.1177329   5.8126329
  77.9672823  84.1921684   5.1566365  78.4155330  83.3537672   6.3347846
  87.3317234  75.6772930  13.2165820  87.6118988  75.0096119  13.8426246
  88.1167841  75.8702026  12.7040484  85.1350703  94.8531924   4.7790846
  84.5624670  95.4722111   4.3261318  85.7083497  95.4031286   5.3130768
  91.2026093  84.0990564  16.9637395  92.1543516  84.1988662  16.9849619
  91.0329543  83.3068833  17.4735479  89.2240472  81.1846147  17.1496796
  88.6290404  81.4651160  16.4543284  88.9390169  81.6740048  17.9213537
  88.3547963  95.1369074   5.9099428  89.2878636  95.0714636   6.1132304
  88.2671176  95.9725341   5.4513961  90.9835979  94.4534945   2.8703376
  90.9049611  94.1194808   3.7639134  91.8045646  94.9456712   2.8694848
  93.6814171  87.3196684  16.0779694  93.6490491  86.3812685  16.2639378
  94.2914794  87.3980721  15.3445519  85.5197501  86.1892737   2.1206899
  86.4656606  86.0598945   2.1895317  85.1411746  85.4507399   2.5976327
  93.8308659  84.1107727  16.1237978  93.3147708  83.3266184  15.9367907
  94.7148608  83.7826444  16.2884497  91.4919386  77.8548743  12.0833790
  91.2944207  77.5463831  12.9677122  92.1019092  78.5810382  12.2131720
  99.4990720  88.3812691  15.2185731 100.2294109  88.1197979  15.7793435
  98.8897666  87.6441413  15.2587799  97.5806018  86.5220553  15.8160182
  96.8539181  86.3876518  15.2076674  97.1653304  86.8297382  16.6216900
  85.4036194  90.2410483  23.5807555  86.3239203  90.4189082  23.7747602
  85.3685777  89.2966528  23.4287255  83.7040419  84.1142713   2.0561784
  82.7971874  83.8175826   2.1324497  83.9816400  83.8172531   1.1896070
  74.6218359  85.4349077  12.5060830  74.3021143  84.5814385  12.2135204
  74.0751787  85.6497655  13.2618797  78.3998267  88.1511518  16.2230337
  78.6184276  89.0828625  16.2418370  78.8124040  87.7919492  17.0085140
  85.3202484  78.6579603   8.2106025  84.5103213  78.3126688   8.5861271
  86.0086901  78.3487147   8.7993637  87.2493033  77.7357650   9.8330322
  87.8024071  78.1553103  10.4920345  87.4863119  76.8093398   9.8753278
  83.2726132  83.7244723  25.6133086  83.1722859  84.6739080  25.5445177
  83.0547674  83.3962962  24.7409156  82.4739203  80.9729648   2.1973763
  83.3358367  81.2984547   2.4569580  82.6589547  80.1861144   1.6846829
  74.4906619  89.0551988  14.4753952  73.7970090  88.6405941  13.9623906
  75.2379610  89.0972525  13.8787371  90.6271840  79.8458175   9.3408986
  90.0470509  80.5042979   8.9587038  90.3607772  79.0235519   8.9296403
  89.0775406  79.2463233  11.5430306  89.5775184  79.3579767  10.7344625
  89.7211014  78.9424285  12.1831115  83.1357402  87.1541862  24.4298147
  82.6524484  87.9542222  24.6362036  83.2218341  87.1649807  23.4765591
  76.4043362  88.9870242  12.3519967  76.3814050  89.0857929  11.4001850
  76.7143998  89.8335393  12.6737133  79.0630739  91.0446397  16.4666581
  80.0173993  91.0130339  16.3996513  78.8643263  90.5837021  17.2816807
  79.6530122  89.6147513  19.0337379  80.4723011  90.1091592  19.0572216
  79.9266929  88.6979481  19.0054946  89.4096718  82.0058265   8.3965334
  88.5222573  82.2907916   8.1785529  89.8250707  81.8452029   7.5492611
  92.7611254  82.0304786  12.1119673  93.5371644  82.5201239  12.3844290
  92.0359388  82.4562840  12.5691543  95.1983812  82.7432405  13.1693614
  95.7928303  82.5028141  12.4586922  95.2710396  82.0239536  13.7967150
  77.4180968  96.5866016  13.4836779  77.2835436  95.8266417  12.9174777
  77.0013030  97.3106916  13.0165568  88.5539931  91.7702940   2.4913354
  89.2575781  91.9752942   3.1071010  87.8302580  92.3379702   2.7562438
  89.3837741  87.5212801   8.6115624  89.3272943  87.9781353   7.7723257
  89.9366084  86.7603486   8.4338467  93.1942547  83.3102533   9.4365744
  92.9379482  82.9099169  10.2673952  92.5695415  84.0246327   9.3115883
  97.5054885  86.0498606  11.9437035  96.9454443  86.1191796  12.7168597
  96.8998389  85.8739591  11.2236531  80.5750094  97.4835333  13.6955222
  80.4582478  98.4280766  13.5933912  79.7542540  97.1808895  14.0841021
  90.4626629  92.2085469   4.5411814  91.2972233  91.7766668   4.3589289
  90.3010972  92.0367483   5.4688709  90.1172521  88.7117582   5.9068154
  90.0621325  88.5461854   4.9656598  89.4918576  89.4193615   6.0630343
  74.9065036  83.9485647  19.7329576  75.5523899  83.4384601  20.2216801
  74.6982187  84.6854328  20.3073001  87.4318428  91.0166494  25.2321716
  88.3009588  91.1907147  24.8708351  86.9525179  91.8360911  25.1097446
  83.4268646  78.2125691   5.4853472  83.4147316  79.1567531   5.6421743
  84.3192068  78.0295837   5.1912933  81.6004608  98.1363595  16.9111150
  82.5031855  98.1687206  17.2277645  81.3741978  97.2064046  16.9257486
  83.3558210  96.8894582  13.5721229  82.4053841  96.8896443  13.4585601
  83.6590696  96.1427316  13.0557263  87.2420766  74.8068468   9.7399409
  86.4753162  74.2526955   9.8856091  87.6531471  74.8790337  10.6013560
  79.2462527  81.0953264  23.8304590  80.1093988  80.7390069  24.0407915
  78.6727937  80.7567159  24.5179994  99.0910904 102.7255120  14.6366991
  99.7289314 102.6061868  13.9330331  98.9731747 103.6735964  14.6954943
  95.9000610 102.6782548  14.5728516  95.5619122 102.5623613  13.6849051
  96.7690378 102.2773713  14.5529522  91.7587426 104.5318025  10.5625407
  91.1952291 104.4407962   9.7941694  91.6439821 103.7117929  11.0427899
  96.3820393 103.8317400  20.5314721  96.3709034 103.4370198  19.6595225
  96.5441032 103.0983473  21.1248493  89.3051858 106.0269216  13.4009627
  90.0973150 105.6860041  12.9855926  89.5448508 106.1364191  14.3211780
  91.2642612 105.2878130   6.2727006  92.0373488 104.7407117   6.1339882
  91.6168010 106.1522379   6.4841467  93.1027654 106.6154512  19.4793905
  92.8117520 107.5200143  19.3640571  93.7384638 106.6571039  20.1937975
  94.0283861 103.9931360  16.0695265  94.6247433 103.7687383  15.3552228
  94.0858833 103.2516106  16.6720713  93.6008889 101.4470796   3.9045456
  93.8534410 100.9252317   3.1428919  92.6633448 101.2836941   4.0072139
  98.6452172 100.4506574  11.7120199  99.4315261 100.0325997  11.3610616
  98.9090877 101.3552666  11.8801847  98.8162250 105.8879424   6.4108856
  98.1808083 105.9614051   7.1229760  98.4859656 106.4773023   5.7327935
 104.0460599 100.3881807  12.6153178 104.7785771  99.8181024  12.8491007
 103.2899955 100.0003408  13.0559683  93.3205178 103.3498902   6.1069831
  93.2041436 102.6743805   6.7750915  93.4307438 102.8631276   5.2901984
  95.6636719 102.8109049   9.8116520  95.2994926 102.2839670  10.5229441
  96.5203835 102.4207518   9.6383005 101.5686020  94.1003381  17.0747786
 101.2369344  94.9698792  16.8509001 100.9731633  93.7839665  17.7541817
  95.3042206  97.8398948   4.8077869  95.4716608  98.7079185   5.1748340
  95.1139375  98.0026230   3.8839158  98.0617539 106.3015927  16.4743699
  97.7618262 107.2040966  16.3659506  97.7168599 106.0348111  17.3264852
  91.5130021 102.7529724  12.5080403  90.5880517 102.6205938  12.7158095
  91.7614434 103.5323943  13.0050346 101.4614683  98.8198468  14.1541136
 100.5531560  98.7513876  13.8599897 101.4102279  99.2970413  14.9822962
  95.2831427 100.2956606   5.7924535  95.1631052 100.7413657   6.6310016
  94.5884015 100.6441924   5.2338073  88.8738832 102.3962998  13.3424192
  89.0031213 102.6497477  14.2563604  88.1936283 102.9890706  13.0228847
  93.0438319 113.0660248   9.4414667  92.9662349 114.0168073   9.5203147
  92.4399963 112.7206120  10.0989593  95.5355549 100.2388113  22.0976033
  94.7588883 100.7982033  22.0878898  96.1746112 100.7244896  22.6190904
 103.3276329  97.0214906  15.9319010 102.6850710  97.3147439  15.2858805
 102.8231258  96.9067826  16.7372207 100.9816493 100.7678079   6.6204869
 101.8934349 101.0005466   6.4452567 100.4726140 101.3515123   6.0579948
  93.7901921 103.0473567  21.6594000  94.5316605 103.5858610  21.3828824
  93.0838907 103.6739855  21.8165552  99.2657261 105.1902707  20.2566162
  99.6740617 104.7485118  19.5120794  98.5434522 104.6155335  20.5100355
  95.6188331 100.1275314  17.6299719  96.4649526 100.5514727  17.7734368
  95.5586968  99.4708938  18.3238282  99.5886075 105.7503898  14.0118451
  98.9594938 105.9149612  13.3094519  99.2011737 106.1645507  14.7829415
 103.4675307 106.6858335  11.3662815 102.7826345 107.0657237  10.8159848
 103.5519157 107.2953662  12.0994762  98.7687776  97.7879682  19.2880893
  98.5248708  98.5421743  18.7515168  99.0447707  98.1665030  20.1228140
 100.7226239 104.3318294  17.9658158 100.9343134 104.9750054  17.2892539
 100.6755987 103.4980611  17.4980088  98.3252468  96.9436115  14.8694730
  97.4636947  97.2417369  15.1611468  98.3514902  97.1606514  13.9375763
  95.1414037 105.4878306  11.2768536  95.6052383 105.7666009  10.4873158
  94.8770835 104.5861750  11.0941627  92.0338118 105.0349787  14.2148299
  92.6039475 105.4637056  13.5765784  92.6246230 104.7532372  14.9132485
  94.0782923 101.6101458   8.0858101  94.7806967 102.0622502   8.5532027
  93.7463552 100.9685277   8.7137994  92.5263285 100.2013215  22.4609310
  91.8961945 100.8829496  22.6944707  92.4199373 100.0896296  21.5162449
  87.8208257  99.8685011  13.3875235  87.0307311 100.1242539  12.9115345
  88.3119505 100.6833349  13.4927275 101.8372067 107.2090250  16.1380515
 102.6589511 106.8070437  15.8563197 101.8334470 107.1058484  17.0896631
  89.7723003 100.2329590  10.3458711  88.9754166 100.3448284  10.8642207
  89.5448595 100.5716242   9.4799602  95.6028670 106.7574293  18.2941226
  95.6673103 107.2194700  19.1299398  94.8939594 106.1271658  18.4223536
  86.1045960 100.1215501  15.8190225  86.3553999 101.0062511  16.0847801
  86.6405509  99.9420103  15.0465317 109.9278060 103.5528998  12.4865487
 109.1741768 102.9836396  12.3309491 110.0625601 103.5191663  13.4336122
  95.3176688 108.4242401   8.1620206  95.1822363 109.2693936   8.5905054
  95.8586500 108.6261678   7.3986140  91.8044028  94.5033981  24.8234562
  91.4110973  93.9500179  25.4982206  92.6210168  94.8144559  25.2141079
  88.7706085 105.9417839   8.7348131  89.2830606 106.7361089   8.8853696
  89.4228798 105.2444129   8.6681733  90.5800970 109.0583595  10.8170885
  90.7567598 109.9801560  10.6291868  91.3757804 108.7442014  11.2465264
  94.7211989  95.9191860  22.4154818  95.4621702  96.5199013  22.3359281
  94.9529911  95.1769497  21.8572861  89.8653327 101.1048227  20.6933048
  89.7506842 100.2033484  20.9940147  89.0097844 101.3511924  20.3417864
  96.9445164 109.0465967  22.2920548  96.5009018 108.2602346  21.9741453
  97.6062378 109.2345118  21.6264439  91.7032285 110.5761769  16.8181227
  92.2539711 110.4478832  16.0458221  90.8643761 110.8756658  16.4676120
  99.0426402 109.3268767  20.3201950  99.0244878 110.1477648  19.8282219
  99.9646322 109.2022842  20.5452091  95.4999457 106.8412897  21.1625458
  96.0327793 106.0801185  20.9324766  94.9713538 106.5486548  21.9049612
  98.6669151  91.9472963  16.6919100  98.3233421  92.8374604  16.6158210
  99.0348114  91.7574620  15.8288685  86.7355002 104.2706493   9.5107702
  87.5730224 104.6803501   9.2941410  86.9133270 103.3305935   9.4807896
  98.6319434 101.9381574   5.1991535  98.1166058 102.7086178   5.4379922
  98.3596743 101.2646710   5.8224596  96.2166545  96.7831274  10.2576773
  95.3608142  96.3938125  10.0782412  96.6293497  96.8623235   9.3976559
  97.7465692  94.3177618  14.6568333  97.2430487  94.2807753  13.8436138
  98.0396299  95.2270360  14.7164990  93.9908578  94.4016347  13.6634515
  94.8561575  94.2059156  13.3040404  94.0586087  94.1726699  14.5903871
  98.4205737  99.8108666   7.0251316  98.1155873 100.1254815   7.8761459
  99.3736180  99.8890086   7.0678649  96.8652169 105.9698889   8.6744270
  96.3373531 105.2351649   8.3617507  96.3639672 106.7473565   8.4284238
 101.8445015 104.1647910  13.7911316 101.1868690 104.8547171  13.8791445
 102.6485414 104.5544342  14.1345303  91.5970897  96.6318555  11.0350882
  92.1714649  96.4093737  10.3024074  92.1841879  96.7007250  11.7879483
 100.6550474 102.5192282  11.8415258 101.1682356 103.1522274  12.3436968
 101.3051698 101.9193478  11.4758618  91.9240484  98.6623016   5.0546767
  91.0877796  98.9997703   5.3756042  91.7845254  98.5271996   4.1173904
  93.8993565  93.5059804   9.7625951  93.2457977  93.1908821   9.1382566
  93.8574039  92.8835545  10.4885774  97.1331305  99.9941738  14.0873599
  96.2153866 100.2156685  13.9295287  97.5491449 100.0688048  13.2285306
  97.9166353 101.3933154   9.2176279  98.6638172 101.9054551   8.9083401
  98.1857942 101.0717206  10.0780672  96.1893003 103.8891694   6.2003233
  95.2804222 103.6050727   6.2975703  96.2188087 104.3090773   5.3406540
 101.4212270 107.4998284   9.9694401 100.9674597 106.6589194  10.0259591
 100.7906237 108.1359682  10.3069181 100.3645190  98.4290270  11.1995068
  99.6267947  97.9167656  11.5305311 100.6171963  97.9890651  10.3878345
  99.8645210 109.3374780  10.9044219 100.1568184 109.8979838  10.1856584
 100.3743830 109.6303341  11.6597378 100.4656817  91.2066522  11.7936837
 100.7715694  90.3463885  11.5062753 101.1909422  91.7984142  11.5935831
  86.7581173 101.6097208  10.1818435  86.5605573 101.0166569   9.4569502
  86.2027837 101.3049419  10.8994374  94.7377897 101.5020315  12.3013029
  94.7926507 100.5494151  12.2255505  93.9269099 101.6579754  12.7854327
  92.6770257 100.1197375  10.0603407  91.8638122 100.4191545  10.4668600
  93.1729251  99.7253063  10.7777890  94.8278835 110.1155132  11.9937672
  94.7855013 110.3415978  11.0646204  95.7441534 109.8818506  12.1423473
  98.2744468 100.5839199  18.8918301  98.6293856 100.8110672  19.7512767
  98.9216600 100.9157576  18.2695557 104.0042205 103.7057635   9.5967630
 103.8660104 103.8959231   8.6688820 103.6478424 104.4677018  10.0535681
  92.1684332  97.6915730  15.6764642  92.8083711  97.5504489  14.9787606
  91.3361862  97.4050243  15.3003244 104.0311585 105.7734162  14.6078902
 104.4648092 105.6809451  15.4561956 104.7443166 105.7491662  13.9698918
  92.9444635 106.9918161  11.7899635  93.7385234 106.4968481  11.5882210
  92.2336328 106.4636024  11.4267340  97.7639480 109.3736256  16.1412002
  97.8176502 109.9427192  16.9089718  96.8954261 109.5438141  15.7766040
  89.2527399 101.1361242   7.8659387  88.3224987 101.0745698   8.0829350
  89.3484871 100.6137195   7.0696029  89.1712948  97.6616055  10.4537629
  89.4319765  98.5761388  10.3446790  89.9930120  97.1940498  10.6034242
  90.6437873  99.0753812  17.6236454  91.3160927  98.8671174  16.9749103
  89.8167660  98.8775898  17.1841686 104.8927135 105.8157863  17.1411787
 105.0863025 106.7203673  17.3871062 104.7927753 105.3565282  17.9750372
  96.5463445  95.7015753  19.6402115  95.8991360  96.4005703  19.5466591
  97.3164461  96.1351897  20.0078363  99.9542243 105.9664605  22.7152668
  99.8027750 105.7375157  21.7982752  99.9446923 106.9235207  22.7284013
  96.7227580 103.5396518  17.6998934  97.6519640 103.6907678  17.5267902
  96.3018610 103.6280539  16.8447581  95.5215911 107.5647183  15.4697472
  95.3826997 107.1965967  16.3423410  94.7330508 108.0794822  15.2981430
  97.0721127 106.9428785  12.8586310  96.7370959 106.9029555  13.7543960
  96.5725072 106.2773501  12.3856720  91.0465371 102.3496415  18.3838891
  90.9085169 101.6176654  18.9850430  91.9570294 102.2605315  18.1023079
  93.6747671 102.0616375  17.8722570  94.3847290 101.4209567  17.8309189
  93.6316979 102.3129269  18.7948751 101.6634450 108.9983728  20.7929150
 101.6046996 108.3142948  20.1259733 102.0653968 109.7402718  20.3409776
  92.3876605  99.0481592  19.6918210  91.8513962  98.5972331  20.3439806
  91.7993314  99.1827501  18.9488674  90.6825149 115.8145642  13.5862869
  90.9221747 116.4464166  14.2641887  89.8394345 115.4633682  13.8728228
  91.7978864  98.5070244   2.2544674  90.9208330  98.3859045   1.8906920
  92.2736617  97.7156322   2.0023562 101.6651857 106.9623312  19.0243129
 100.7778636 106.6249234  19.1469528 102.2350408 106.2306343  19.2611895
  83.3181004 103.2947404  12.3486181  84.0052044 102.9809134  11.7607196
  83.1629133 104.1988768  12.0753432  88.1215726  98.1837600  16.7771204
  88.0373915  97.5763270  16.0421614  87.2998433  98.6746618  16.7780701
  95.1953011 111.6224764  15.9904373  95.1223182 112.4279736  16.5023677
  94.7530404 111.8216730  15.1652394  94.9842790 110.8596534   9.5007194
  94.2010312 111.4018214   9.5945419  95.6835535 111.3770514   9.9001435
  98.2939440  96.6691164  12.1441399  98.7908140  95.9161126  11.8242470
  97.5226422  96.7055480  11.5784609 106.1469198 102.3731529  13.7859691
 106.1359074 103.2556245  13.4153624 105.2786577 102.0203080  13.5914228
  97.6551694 111.5211598  18.1462531  98.3679666 112.1559063  18.0738433
  97.1641723 111.6175464  17.3302533  99.3769221 105.4262851   9.7179823
  98.4425500 105.5464313   9.5484527  99.5545889 104.5235318   9.4539833
  94.8774409  98.8108547  11.8713084  94.5072197  98.2579587  12.5593990
  95.3733502  98.2066680  11.3188084 102.7641772 101.2680170  10.2529857
 103.2302225 102.1008162  10.1790160 103.2149273 100.8025152  10.9575116
  92.7063608 109.2706042  18.9668102  93.4073067 109.9042525  19.1197496
  92.2358723 109.6120773  18.2063741 100.8318003 107.6123991   7.2516009
 101.1077847 107.4980586   8.1609883  99.9622502 107.2141476   7.2128182
 100.7358435  93.6360757  14.2920758  99.8221515  93.8664984  14.4602965
 101.1651537  93.7199201  15.1434791 100.5064894 101.8250649  16.7920652
  99.8536344 102.0726557  16.1373105 100.8845274 101.0114787  16.4583130
  97.4672067 111.8610342  10.8948823  97.6494462 111.0431998  11.3576575
  98.2905053 112.0778035  10.4573713  96.5552467 102.5670460  23.2786689
  95.8793104 102.4664590  23.9489065  97.3780101 102.4109674  23.7422687
  88.3031326 108.8042397  15.8999205  88.8884763 108.0586085  16.0327109
  88.1056164 109.1146353  16.7835869  91.1569981 111.8393644  10.9161647
  90.4880356 112.3239772  10.4325687  91.0182851 112.0862865  11.8305026
  82.8948980 101.3747997  14.6203648  82.9333080 100.8411588  15.4140766
  82.3889273 100.8483202  14.0014625  95.2975250 113.8737388  17.5144305
  95.8493558 114.0369009  18.2793391  95.6381443 114.4641825  16.8424330
  90.2739743  96.2212537  18.1166190  90.3381069  97.0827368  17.7043588
  90.2106863  95.6086539  17.3838549  89.7492015  98.2935670  21.7639224
  90.3764054  97.9112747  22.3776749  88.8919934  98.0749872  22.1294917
 100.1486124 108.6998645  23.3692960 100.6926028 109.3128603  22.8747915
  99.5672969 109.2578224  23.8859973  86.5257558 100.1012099   7.6957579
  86.8210999  99.1922777   7.6424633  85.6245594 100.0799839   7.3738582
  98.4343637 111.8219363  14.5007988  98.3094776 111.0209103  13.9918933
  99.0922728 112.3165557  14.0121958  90.0551805  98.1768096  13.6785128
  89.3338391  98.7904063  13.5392601  90.8445061  98.7125860  13.6001774
 100.4978545 109.6228383  16.1287538  99.5508881 109.5033734  16.0565864
 100.8461318 108.7350881  16.2113799  92.8578119  95.5122522  19.9525780
  93.3812520  95.7584819  20.7152089  92.6390452  96.3442557  19.5328917
  88.2545400  97.7826197   7.8196904  87.9258106  96.9023576   7.6372010
  88.6084770  97.7273865   8.7073294  97.5024978 109.4181099  12.3291890
  97.3549941 108.4897807  12.5099460  98.3278472 109.4401190  11.8448965
  91.3687223  98.0699167   8.1872382  91.7083295  98.5985088   7.4650990
  91.8159343  98.4079573   8.9630949 101.1059100 110.2409658  13.4156763
 102.0305648 110.0352520  13.2781214 100.9374404 109.9926059  14.3246104
  94.0630664  96.4536217  17.6375450  93.7227484  95.6544030  18.0396130
  93.3569670  96.7537928  17.0652283  94.7147135  93.5385530  16.0902773
  95.5373205  93.0646008  15.9681663  94.9585199  94.3176013  16.5901459
  93.3555370  96.5673788   6.3865675  94.0763732  96.9455041   5.8829392
  92.7320674  97.2862665   6.4900653  97.4986493  97.2718937   7.3224007
  97.7150107  98.1543575   7.0212835  97.0180560  96.8805151   6.5929649
  92.2385714 100.2304650  13.8994752  92.0930295 100.5444953  14.7919033
  91.7610918 100.8489551  13.3465650  94.0982097  97.2207198  13.9475641
  94.0843666  96.3248292  13.6107939  94.8154525  97.2277862  14.5813927
  95.9508228  97.6544539  15.9928769  95.6926006  98.5761609  15.9913099
  95.4193268  97.2574973  16.6829233  86.7131376 102.7709995  16.8382413
  86.1684844 103.5469803  16.9702687  87.5910726 103.1180799  16.6801534
  93.5018993  96.1021579   9.2163211  93.6234904  95.1738225   9.4154099
  93.2121035  96.1160265   8.3041527  96.3710183  93.7876489  12.3529931
  96.3931880  93.8515822  11.3981911  96.7878242  92.9480998  12.5470437
 106.7493808 103.5231749  10.3909154 107.1924954 102.7739074   9.9928277
 105.8720318 103.5141885  10.0082886  87.4997398 101.8979891  19.7312570
  86.7579134 102.0462526  20.3177200  87.1790142 102.1588157  18.8679319
  95.4441061 111.4395869  19.5292960  95.7528187 111.1945016  20.4015659
  96.2416543 111.6442508  19.0411830  95.4661673 113.5933779  11.7598336
  95.0266663 113.1010158  12.4531193  96.2169790 113.0506747  11.5190412
  87.9454012 109.7845320  11.7622964  88.7712032 109.4849092  11.3821608
  87.5948064 109.0152942  12.2112753  92.9135545 109.1371788  13.8320638
  92.2915554 108.4742493  13.5322866  93.5840412 109.1632920  13.1494286
  86.1462617 107.7031646  12.7211898  85.3094525 107.2753821  12.5395899
  86.1186262 107.8964090  13.6582689  92.9860073  97.6153576  23.4253144
  93.0348228  98.4915699  23.0430914  93.5282587  97.0730969  22.8524787
 103.4714918 108.1594699  22.7054281 102.6810462 108.1418838  22.1658781
 103.2348273 108.6982993  23.4603318 103.5912793 105.0087166  20.0187010
 103.6410798 104.8437173  20.9602532 103.4826717 104.1414425  19.6284890
  92.4749052 107.6875711   7.3079099  92.6237172 108.3711176   6.6545771
  93.2815495 107.6680801   7.8228554 100.8816556 100.9918094  21.3346316
 101.7826418 100.8524558  21.0430314 100.9564530 101.1572548  22.2744494
  95.2159361  98.3684948  20.1799503  94.3462670  98.6618514  19.9082091
  95.4518841  98.9525393  20.9006766 105.0930990 107.4284107  20.2629031
 104.8015798 107.7914088  21.0992492 104.4803121 106.7151115  20.0842363
 106.2926672 104.9936987  12.7831601 107.1273564 105.4326791  12.9469162
 106.4285801 104.5175640  11.9639847 103.3418178 102.5516722  18.7309089
 103.8172300 102.7444368  17.9227941 102.4183744 102.6075908  18.4852473
  90.2301685 103.7140889   8.3140167  89.9847727 102.8103219   8.5120378
  90.3997599 103.7158039   7.3719645  97.9198395  94.5864565  17.6964923
  98.4380339  95.3225592  17.3711412  97.5653528  94.8928559  18.5311682
  89.4997332  99.4469247   5.8126329  88.8066577  99.5213601   5.1566365
  89.2549084  98.6829590   6.3347846  98.1710989  91.0064848  13.2165820
  98.4512743  90.3388037  13.8426246  98.9561596  91.1993943  12.7040484
 102.0419847  99.4282482  16.9637395 102.9937270  99.5280579  16.9849619
 101.8723298  98.6360750  17.4735479 100.0634227  96.5138065  17.1496796
  99.4684159  96.7943078  16.4543284  99.7783923  97.0031966  17.9213537
 104.5207925 102.6488602  16.0779694 104.4884245 101.7104602  16.2639378
 105.1308549 102.7272638  15.3445519  96.3591256 101.5184654   2.1206899
  97.3050361 101.3890863   2.1895317  95.9805501 100.7799316   2.5976327
 104.6702414  99.4399645  16.1237978 104.1541462  98.6558102  15.9367907
 105.5542362  99.1118362  16.2884497 102.3313141  93.1840661  12.0833790
 102.1337962  92.8755749  12.9677122 102.9412846  93.9102299  12.2131720
 110.3384475 103.7104608  15.2185731 111.0687863 103.4489896  15.7793435
 109.7291420 102.9733330  15.2587799 108.4199772 101.8512471  15.8160182
 107.6932936 101.7168436  15.2076674 108.0047059 102.1589300  16.6216900
  96.2429948 105.5702401  23.5807555  97.1632958 105.7481000  23.7747602
  96.2079532 104.6258446  23.4287255  94.5434173  99.4434631   2.0561784
  93.6365629  99.1467744   2.1324497  94.8210154  99.1464449   1.1896070
  85.4612113 100.7640994  12.5060830  85.1414898  99.9106302  12.2135204
  84.9145542 100.9789572  13.2618797  89.2392021 103.4803435  16.2230337
  89.4578031 104.4120543  16.2418370  89.6517795 103.1211410  17.0085140
  96.1596239  93.9871521   8.2106025  95.3496967  93.6418606   8.5861271
  96.8480656  93.6779064   8.7993637  98.0886787  93.0649567   9.8330322
  98.6417826  93.4845021  10.4920345  98.3256873  92.1385316   9.8753278
  94.1119886  99.0536641  25.6133086  94.0116613 100.0030998  25.5445177
  93.8941428  98.7254880  24.7409156  93.3132958  96.3021566   2.1973763
  94.1752122  96.6276464   2.4569580  93.4983302  95.5153062   1.6846829
  85.3300373 104.3843906  14.4753952  84.6363845 103.9697859  13.9623906
  86.0773364 104.4264442  13.8787371 101.4665594  95.1750093   9.3408986
 100.8864263  95.8334897   8.9587038 101.2001527  94.3527437   8.9296403
  99.9169161  94.5755150  11.5430306 100.4168939  94.6871685  10.7344625
 100.5604769  94.2716203  12.1831115  93.9751156 102.4833780  24.4298147
  93.4918238 103.2834140  24.6362036  94.0612095 102.4941725  23.4765591
  87.2437116 104.3162160  12.3519967  87.2207804 104.4149847  11.4001850
  87.5537753 105.1627310  12.6737133  89.9024494 106.3738315  16.4666581
  90.8567747 106.3422257  16.3996513  89.7037017 105.9128938  17.2816807
  90.4923876 104.9439431  19.0337379  91.3116765 105.4383509  19.0572216
  90.7660684 104.0271399  19.0054946 100.2490472  97.3350183   8.3965334
  99.3616327  97.6199834   8.1785529 100.6644461  97.1743946   7.5492611
 103.6005008  97.3596704  12.1119673 104.3765398  97.8493156  12.3844290
 102.8753143  97.7854758  12.5691543 106.0377567  98.0724323  13.1693614
 106.6322058  97.8320059  12.4586922 106.1104151  97.3531454  13.7967150
  88.2574723 111.9157934  13.4836779  88.1229191 111.1558335  12.9174777
  87.8406785 112.6398834  13.0165568 100.2231496 102.8504719   8.6115624
 100.1666697 103.3073270   7.7723257 100.7759838 102.0895403   8.4338467
 104.0336302  98.6394451   9.4365744 103.7773236  98.2391086  10.2673952
 103.4089170  99.3538245   9.3115883 108.3448640 101.3790524  11.9437035
 107.7848198 101.4483713  12.7168597 107.7392143 101.2031509  11.2236531
  91.4143849 112.8127251  13.6955222  91.2976233 113.7572684  13.5933912
  90.5936295 112.5100813  14.0841021 100.9566275 104.0409500   5.9068154
 100.9015079 103.8753772   4.9656598 100.3312331 104.7485533   6.0630343
  85.7458790  99.2777564  19.7329576  86.3917654  98.7676518  20.2216801
  85.5375941 100.0146246  20.3073001  98.2712182 106.3458412  25.2321716
  99.1403342 106.5199064  24.8708351  97.7918934 107.1652829  25.1097446
  94.2662401  93.5417609   5.4853472  94.2541071  94.4859449   5.6421743
  95.1585823  93.3587755   5.1912933  92.4398363 113.4655513  16.9111150
  93.3425609 113.4979123  17.2277645  92.2135733 112.5355964  16.9257486
  94.1951965 112.2186500  13.5721229  93.2447596 112.2188361  13.4585601
  94.4984451 111.4719234  13.0557263  98.0814520  90.1360386   9.7399409
  97.3146916  89.5818872   9.8856091  98.4925225  90.2082255  10.6013560
  90.0856281  96.4245182  23.8304590  90.9487743  96.0681986  24.0407915
  89.5121692  96.0859076  24.5179994 107.2214147 119.1609318  20.5314721
 107.2102788 118.7662116  19.6595225 107.3834787 118.4275390  21.1248493
 103.9421409 121.9446430  19.4793905 103.6511275 122.8492060  19.3640571
 104.5778393 121.9862957  20.1937975 112.4079774 109.4295299  17.0747786
 112.0763099 110.2990710  16.8509001 111.8125388 109.1131583  17.7541817
  99.7132586 117.7254915  13.3424192  99.8424967 117.9789394  14.2563604
  99.0330038 118.3182623  13.0228847 106.3749303 115.5680031  22.0976033
 105.5982637 116.1273951  22.0878898 107.0139866 116.0536814  22.6190904
 114.1670084 112.3506824  15.9319010 113.5244464 112.6439357  15.2858805
 113.6625012 112.2359744  16.7372207 104.6295676 118.3765484  21.6594000
 105.3710360 118.9150528  21.3828824 103.9232661 119.0031773  21.8165552
 110.1051015 120.5194625  20.2566162 110.5134371 120.0777035  19.5120794
 109.3828277 119.9447252  20.5100355 106.4582085 115.4567231  17.6299719
 107.3043280 115.8806645  17.7734368 106.3980723 114.8000856  18.3238282
 109.6081531 113.1171600  19.2880893 109.3642462 113.8713660  18.7515168
 109.8841461 113.4956947  20.1228140 109.1646222 112.2728033  14.8694730
 108.3030701 112.5709286  15.1611468 109.1908657 112.4898432  13.9375763
 103.3657039 115.5305132  22.4609310 102.7355700 116.2121413  22.6944707
 103.2593127 115.4188214  21.5162449  98.6602012 115.1976928  13.3875235
  97.8701066 115.4534457  12.9115345  99.1513259 116.0125266  13.4927275
 106.4422425 122.0866211  18.2941226 106.5066857 122.5486618  19.1299398
 105.7333349 121.4563576  18.4223536  96.9439715 115.4507419  15.8190225
  97.1947753 116.3354429  16.0847801  97.4799263 115.2712020  15.0465317
 102.6437782 109.8325898  24.8234562 102.2504728 109.2792097  25.4982206
 103.4603922 110.1436477  25.2141079 105.5605743 111.2483777  22.4154818
 106.3015456 111.8490930  22.3359281 105.7923666 110.5061415  21.8572861
 100.7047081 116.4340145  20.6933048 100.5900596 115.5325402  20.9940147
  99.8491599 116.6803841  20.3417864 107.7838919 124.3757885  22.2920548
 107.3402773 123.5894263  21.9741453 108.4456132 124.5637035  21.6264439
 106.3393211 122.1704814  21.1625458 106.8721548 121.4093102  20.9324766
 105.8107292 121.8778466  21.9049612 109.5062906 107.2764880  16.6919100
 109.1627175 108.1666522  16.6158210 109.8741869 107.0866538  15.8288685
 108.5859446 109.6469535  14.6568333 108.0824242 109.6099671  13.8436138
 108.8790053 110.5562278  14.7164990 104.8302332 109.7308265  13.6634515
 105.6955329 109.5351074  13.3040404 104.8979841 109.5018617  14.5903871
 102.4364651 111.9610473  11.0350882 103.0108403 111.7385655  10.3024074
 103.0235634 112.0299168  11.7879483 104.7387319 108.8351722   9.7625951
 104.0851731 108.5200739   9.1382566 104.6967793 108.2127462  10.4885774
 111.3050572 106.5358439  11.7936837 111.6109448 105.6755803  11.5062753
 112.0303176 107.1276060  11.5935831 109.1138223 115.9131117  18.8918301
 109.4687611 116.1402590  19.7512767 109.7610354 116.2449494  18.2695557
 103.0078086 113.0207648  15.6764642 103.6477465 112.8796407  14.9787606
 102.1755617 112.7342161  15.3003244 101.4831628 114.4045730  17.6236454
 102.1554681 114.1963092  16.9749103 100.6561414 114.2067816  17.1841686
 107.3857200 111.0307671  19.6402115 106.7385115 111.7297621  19.5466591
 108.1558215 111.4643815  20.0078363 110.7935998 121.2956523  22.7152668
 110.6421504 121.0667075  21.7982752 110.7840677 122.2527124  22.7284013
 107.5621334 118.8688436  17.6998934 108.4913394 119.0199595  17.5267902
 107.1412364 118.9572457  16.8447581 101.8859125 117.6788333  18.3838891
 101.7478923 116.9468572  18.9850430 102.7964049 117.5897233  18.1023079
 104.5141426 117.3908292  17.8722570 105.2241044 116.7501484  17.8309189
 104.4710734 117.6421187  18.7948751 103.2270360 114.3773510  19.6918210
 102.6907717 113.9264249  20.3439806 102.6387068 114.5119419  18.9488674
  94.1574759 118.6239321  12.3486181  94.8445799 118.3101051  11.7607196
  94.0022887 119.5280686  12.0753432  98.9609481 113.5129518  16.7771204
  98.8767670 112.9055187  16.0421614  98.1392187 114.0038536  16.7780701
 103.5457362 124.5997959  18.9668102 104.2466822 125.2334442  19.1197496
 103.0752477 124.9412691  18.2063741 111.5752190 108.9652675  14.2920758
 110.6615269 109.1956902  14.4602965 112.0045291 109.0491119  15.1434791
 107.3946221 117.8962378  23.2786689 106.7186858 117.7956507  23.9489065
 108.2173855 117.7401592  23.7422687  99.1425080 124.1334314  15.8999205
  99.7278517 123.3878002  16.0327109  98.9449919 124.4438271  16.7835869
  93.7342735 116.7039915  14.6203648  93.7726834 116.1703505  15.4140766
  93.2283028 116.1775120  14.0014625 101.1133497 111.5504455  18.1166190
 101.1774824 112.4119286  17.7043588 101.0500617 110.9378457  17.3838549
 100.5885770 113.6227588  21.7639224 101.2157809 113.2404665  22.3776749
  99.7313689 113.4041790  22.1294917 110.9879878 124.0290563  23.3692960
 111.5319782 124.6420521  22.8747915 110.4066723 124.5870141  23.8859973
 100.8945560 113.5060013  13.6785128 100.1732145 114.1195981  13.5392601
 101.6838815 114.0417778  13.6001774 103.6971873 110.8414440  19.9525780
 104.2206275 111.0876736  20.7152089 103.4784206 111.6734475  19.5328917
 104.9024418 111.7828135  17.6375450 104.5621238 110.9835948  18.0396130
 104.1963424 112.0829846  17.0652283 105.5540890 108.8677447  16.0902773
 106.3766959 108.3937926  15.9681663 105.7978953 109.6467931  16.5901459
 103.0779469 115.5596568  13.8994752 102.9324049 115.8736871  14.7919033
 102.6004672 116.1781468  13.3465650 104.9375852 112.5499116  13.9475641
 104.9237420 111.6540209  13.6107939 105.6548280 112.5569780  14.5813927
 106.7901982 112.9836456  15.9928769 106.5319760 113.9053527  15.9913099
 106.2587023 112.5866891  16.6829233  97.5525131 118.1001912  16.8382413
  97.0078599 118.8761720  16.9702687  98.4304481 118.4472717  16.6801534
 107.2103938 109.1168407  12.3529931 107.2325635 109.1807740  11.3981911
 107.6271997 108.2772915  12.5470437  98.3391153 117.2271809  19.7312570
  97.5972889 117.3754444  20.3177200  98.0183897 117.4880074  18.8679319
 103.8253827 112.9445494  23.4253144 103.8741982 113.8207616  23.0430914
 104.3676341 112.4022887  22.8524787 114.3108673 123.4886617  22.7054281
 113.5204216 123.4710756  22.1658781 114.0742027 124.0274911  23.4603318
 114.4306548 120.3379083  20.0187010 114.4804553 120.1729091  20.9602532
 114.3220471 119.4706342  19.6284890 111.7210310 116.3210011  21.3346316
 112.6220173 116.1816476  21.0430314 111.7958285 116.4864466  22.2744494
 106.0553115 113.6976866  20.1799503 105.1856425 113.9910432  19.9082091
 106.2912596 114.2817311  20.9006766 108.7592149 109.9156483  17.6964923
 109.2774093 110.6517510  17.3711412 108.4047282 110.2220476  18.5311682
 109.0104743 106.3356766  13.2165820 109.2906497 105.6679955  13.8426246
 109.7955350 106.5285861  12.7040484 112.8813602 114.7574399  16.9637395
 113.8331025 114.8572497  16.9849619 112.7117052 113.9652668  17.4735479
 110.9027981 111.8429983  17.1496796 110.3077913 112.1234995  16.4543284
 110.6177678 112.3323884  17.9213537 107.0823703 120.8994318  23.5807555
 108.0026712 121.0772917  23.7747602 107.0473286 119.9550364  23.4287255
  96.3005868 116.0932912  12.5060830  95.9808652 115.2398220  12.2135204
  95.7539296 116.3081490  13.2618797 100.0785776 118.8095353  16.2230337
 100.2971785 119.7412461  16.2418370 100.4911549 118.4503327  17.0085140
 104.9513641 114.3828559  25.6133086 104.8510368 115.3322916  25.5445177
 104.7335183 114.0546798  24.7409156  96.1694128 119.7135823  14.4753952
  95.4757599 119.2989776  13.9623906  96.9167119 119.7556360  13.8787371
 104.8144911 117.8125698  24.4298147 104.3311993 118.6126058  24.6362036
 104.9005850 117.8233642  23.4765591 100.7418248 121.7030232  16.4666581
 101.6961502 121.6714175  16.3996513 100.5430772 121.2420856  17.2816807
 101.3317631 120.2731348  19.0337379 102.1510520 120.7675427  19.0572216
 101.6054438 119.3563316  19.0054946  96.5852545 114.6069482  19.7329576
  97.2311408 114.0968436  20.2216801  96.3769696 115.3438164  20.3073001
 109.1105937 121.6750330  25.2321716 109.9797097 121.8490982  24.8708351
 108.6312688 122.4944746  25.1097446 108.9208275 105.4652303   9.7399409
 108.1540671 104.9110790   9.8856091 109.3318980 105.5374172  10.6013560
 100.9250036 111.7537099  23.8304590 101.7881497 111.3973904  24.0407915
 100.3515446 111.4150994  24.5179994 113.4831537 125.1617816  24.8234562
 113.0898482 124.6084014  25.4982206 114.2997677 125.4728394  25.2141079
 111.7643790 127.0829017  23.8304590 112.6275252 126.7265822  24.0407915
 111.1909201 126.7442912  24.5179994  74.7032885  50.1795687   7.2560028
  74.6921526  49.7848486   6.3840532  74.8653525  49.4461760   7.8493799
  71.4240146  52.9632799   6.2039212  71.1330012  53.8678430   6.0885878
  72.0597131  53.0049327   6.9183281  76.3830031  52.6494215   3.1989006
  76.0830755  53.5519253   3.0904813  76.0381091  52.3826398   4.0510158
  73.8568041  46.5866400   8.8221340  73.0801375  47.1460321   8.8124205
  74.4958604  47.0723183   9.3436210  72.1114413  49.3951854   8.3839307
  72.8529098  49.9336898   8.1074131  71.4051399  50.0218143   8.5410859
  77.5869753  51.5380994   6.9811469  77.9953109  51.0963405   6.2366101
  76.8647014  50.9633622   7.2345661  73.9400823  46.4753601   4.3545026
  74.7862018  46.8993015   4.4979675  73.8799461  45.8187225   5.0483589
  77.9098568  52.0982185   0.7363757  77.2807430  52.2627899   0.0339825
  77.5224230  52.5123794   1.5074722  81.7887800  53.0336623  -1.9091879
  81.1038838  53.4135524  -2.4594845  81.8731649  53.6431949  -1.1759931
  77.0900268  44.1357969   6.0126199  76.8461200  44.8900030   5.4760475
  77.3660199  44.5143317   6.8473446  79.0438731  50.6796582   4.6903465
  79.2555626  51.3228342   4.0137846  78.9968479  49.8458898   4.2225395
  70.8475777  46.5491502   9.1854617  70.2174438  47.2307783   9.4190014
  70.7411865  46.4374584   8.2407755  80.1584559  53.5568537   2.8625822
  80.9802003  53.1548724   2.5808504  80.1546962  53.4536771   3.8141938
  73.9241163  53.1052580   5.0186533  73.9885595  53.5672988   5.8544704
  73.2152086  52.4749945   5.1468842  88.2490552  49.9007286  -0.7889206
  87.4954261  49.3314684  -0.9445202  88.3838093  49.8669950   0.1581428
  70.1256520  40.8512268  11.5479868  69.7323465  40.2978466  12.2227512
  70.9422660  41.1622846  11.9386386  73.0424481  42.2670147   9.1400125
  73.7834194  42.8677300   9.0604587  73.2742404  41.5247785   8.5818167
  68.1865819  47.4526514   7.4178354  68.0719334  46.5511771   7.7185453
  67.3310337  47.6990211   7.0663171  75.2657657  55.3944254   9.0165855
  74.8221511  54.6080633   8.6986760  75.9274870  55.5823405   8.3509746
  70.0244778  56.9240056   3.5426534  70.5752203  56.7957119   2.7703527
  69.1856254  57.2234945   3.1921426  77.3638895  55.6747054   7.0447256
  77.3457370  56.4955935   6.5527525  78.2858815  55.5501130   7.2697397
  73.8211949  53.1891184   7.8870765  74.3540286  52.4279472   7.6570073
  73.2926030  52.8964836   8.6294919  80.1657508  50.5126197   0.5156623
  79.5081182  51.2025458   0.6036752  80.9697907  50.9022629   0.8590609
  78.1857702  55.6853068  -2.3710475  78.4780676  56.2458125  -3.0898109
  78.6956322  55.9781629  -1.6157315  76.5956961  46.9317486   5.6163608
  76.9506348  47.1588959   6.4758074  77.2429092  47.2635863   4.9940863
  82.3524077  52.1212449   1.3324208  82.7860584  52.0287738   2.1807262
  83.0655658  52.0969950   0.6944224  76.0851972  55.7214543   2.8657309
  76.1388994  56.2905480   3.6335025  75.2166754  55.8916428   2.5011346
  83.2139627  52.1636150   3.8657094  83.4075517  53.0681960   4.1116369
  83.1140245  51.7043569   4.6995679  74.8675938  42.0494040   6.3647421
  74.2203853  42.7483990   6.2711898  75.6376953  42.4830184   6.7323669
  78.2754736  52.3142893   9.4397974  78.1240242  52.0853444   8.5228058
  78.2659415  53.2713494   9.4529319  75.0440072  49.8874805   4.4244241
  75.9732132  50.0385965   4.2513208  74.6231102  49.9758826   3.5692887
  73.8428404  53.9125470   2.1942779  73.7039489  53.5444254   3.0668717
  73.0543000  54.4273109   2.0226736  69.3677863  48.6974702   5.1084197
  69.2297661  47.9654941   5.7095737  70.2782786  48.6083603   4.8268385
  71.9960164  48.4094662   4.5967877  72.7059782  47.7687854   4.5554496
  71.9529472  48.6607557   5.5194058  79.9846942  55.3462015   7.5174456
  79.9259488  54.6621235   6.8505039  80.3866461  56.0881005   7.0655082
  69.0037641  62.1623929   0.3108175  69.2434239  62.7942453   0.9887194
  68.1606837  61.8111969   0.5973534  79.9864349  53.3101599   5.7488436
  79.0991128  52.9727521   5.8714835  80.5562901  52.5784630   5.9857201
  73.5165503  57.9703051   2.7149679  73.4435674  58.7758023   3.2268984
  73.0742896  58.1695017   1.8897701  84.4681690  48.7209816   0.5104998
  84.4571566  49.6034532   0.1398931  83.5999069  48.3681367   0.3159535
  75.9764186  57.8689885   4.8707838  76.6892159  58.5037350   4.7983739
  75.4854215  57.9653751   4.0547840  71.0276100  55.6184329   5.6913409
  71.7285559  56.2520812   5.8442803  70.5571215  55.9599060   4.9309048
  78.8277386  48.1728936   3.5165959  78.1748836  48.4204844   2.8618412
  79.2057766  47.3593075   3.1828436  75.7884560  58.2088630  -2.3805871
  75.9706954  57.3910285  -1.9178118  76.6117546  58.4256322  -2.8180981
  74.8764959  48.9148747  10.0031996  74.2005596  48.8142877  10.6734371
  75.6992593  48.7587961  10.4667993  66.6243818  55.1520684   2.6244511
  67.2097255  54.4064372   2.7572416  66.4268656  55.4624641   3.5081175
  73.6187742  60.2215675   4.2389612  74.1706050  60.3847296   5.0038697
  73.9593935  60.8120113   3.5669637  68.0704508  44.6413957   8.4884531
  68.6976546  44.2591035   9.1022055  67.2132426  44.4228159   8.8540224
  78.4698616  55.0476932  10.0938267  79.0138520  55.6606891   9.5993221
  77.8885461  55.6056511  10.6105280  76.7556129  58.1697650   1.2253294
  76.6307269  57.3687390   0.7164240  77.4135220  58.6643844   0.7367264
  78.8191037  55.9706670   2.8532844  77.8721373  55.8512022   2.7811171
  79.1673811  55.0829169   2.9359106  75.8237471  55.7659387  -0.9462803
  75.6762433  54.8376094  -0.7655233  76.6490964  55.7879477  -1.4305728
  79.4271593  56.5887945   0.1402069  80.3518140  56.3830807   0.0026520
  79.2586896  56.3404347   1.0491411  73.7653553  57.7874156   6.2538266
  74.0740680  57.5423303   7.1260966  74.5629035  57.9920795   5.7657137
  73.7874165  59.9412066  -1.5156357  73.3479155  59.4488445  -0.8223500
  74.5382282  59.3985034  -1.7564282  71.3072565  43.9631863  10.1498451
  71.3560720  44.8393986   9.7676220  71.8495079  43.4209256   9.5770094
  81.7927410  54.5072986   9.4299588  81.0022954  54.4897125   8.8904087
  81.5560765  55.0461280  10.1848624  81.9125286  51.3565453   6.7432316
  81.9623290  51.1915460   7.6847839  81.8039209  50.4892712   6.3530197
  79.2029048  47.3396381   8.0591623  80.1038911  47.2002846   7.7675621
  79.2777022  47.5050836   8.9989800  73.5371853  44.7163236   6.9044809
  72.6675163  45.0096802   6.6327398  73.7731334  45.3003681   7.6252073
  83.4143482  53.7762394   6.9874338  83.1228291  54.1392375   7.8237799
  82.8015614  53.0629403   6.8087670  84.6139165  51.3415274  -0.4923092
  85.4486056  51.7805078  -0.3285532  84.7498293  50.8653927  -1.3114846
  81.6630671  48.8995009   5.4554396  82.1384792  49.0922655   4.6473247
  80.7396236  48.9554195   5.2097780  80.3632340  45.7760769   3.6882701
  81.3149762  45.8758867   3.7094925  80.1935790  44.9839038   4.1980786
  82.8420417  48.9966889   2.8025001  82.8096737  48.0582889   2.9884685
  83.4521041  49.0750925   2.0690826  82.9914906  45.7877932   2.8483284
  82.4753955  45.0036389   2.6613213  83.8754854  45.4596649   3.0129804
  88.6596967  50.0582896   1.9431038  89.3900356  49.7968184   2.5038741
  88.0503913  49.3211618   1.9833106  86.7412264  48.1990758   2.5405489
  86.0145428  48.0646723   1.9321981  86.3259551  48.5067587   3.3462207
  74.5642441  51.9180688  10.3052862  75.4845450  52.0959287  10.4992909
  74.5292024  50.9736733  10.1532561  72.4332379  45.4014928  12.3378392
  72.3329106  46.3509285  12.2690483  72.2153921  45.0733167  11.4654462
  72.2963649  48.8312067  11.1543454  71.8130730  49.6312427  11.3607343
  72.3824588  48.8420012  10.2010898  68.2236986  52.7216602   3.1911888
  69.1780240  52.6900544   3.1241819  68.0249510  52.2607226   4.0062114
  68.8136368  51.2917718   5.7582685  69.6329257  51.7861797   5.7817523
  69.0873176  50.3749686   5.7300253  69.7356341  59.1605538   0.4200528
  69.6188725  60.1050971   0.3179218  68.9148787  58.8579100   0.8086327
  76.5924675  52.6936699  11.9567023  77.4615834  52.8677352  11.5953658
  76.1131426  53.5131116  11.8342752  70.7610855  59.8133800   3.6356457
  71.6638102  59.8457411   3.9522952  70.5348225  58.8834251   3.6502792
  72.5164457  58.5664787   0.2966535  71.5660088  58.5666648   0.1830908
  72.8196943  57.8197521  -0.2197430  68.4068774  42.7723469  10.5549897
  69.2700235  42.4160274  10.7653221  67.8334184  42.4337364  11.2425301
  88.2517150  64.4025325   1.3612298  88.8895560  64.2832073   0.6575638
  88.1337993  65.3506169   1.4200250  85.0606857  64.3552753   1.2973822
  84.7225368  64.2393818   0.4094357  85.9296625  63.9543918   1.2774828
  80.9193672  66.2088230  -2.7129287  80.3558538  66.1178167  -3.4812999
  80.8046067  65.3888134  -2.2326794  85.5426640  65.5087605   7.2560028
  85.5315281  65.1140403   6.3840532  85.7047279  64.7753678   7.8493799
  78.4658104  67.7039421   0.1254934  79.2579396  67.3630246  -0.2898767
  78.7054755  67.8134396   1.0457087  86.4993231  69.8759197  -7.4014822
  85.8481211  70.4613278  -7.7880808  87.2937594  70.4065392  -7.3419784
  80.4248858  66.9648335  -7.0027687  81.1979734  66.4177322  -7.1414812
  80.7774257  67.8292584  -6.7913226  82.2633901  68.2924717   6.2039212
  81.9723767  69.1970348   6.0885878  82.8990885  68.3341244   6.9183281
  83.1890108  65.6701565   2.7940571  83.7853680  65.4457588   2.0797534
  83.2465079  64.9286311   3.3966019  87.8058419  62.1276779  -1.5634494
  88.5921508  61.7096202  -1.9144077  88.0697123  63.0322871  -1.3952846
  87.9768496  67.5649629  -6.8645838  87.3414329  67.6384256  -6.1524933
  87.6465903  68.1543228  -7.5426758  93.2066846  62.0652012  -0.6601516
  93.9392018  61.4951229  -0.4263686  92.4506202  61.6773613  -0.2195010
  82.4811425  65.0269107  -7.1684863  82.3647683  64.3514010  -6.5003778
  82.5913685  64.5401481  -7.9852710  84.8242966  64.4879254  -3.4638173
  84.4601173  63.9609875  -2.7525252  85.6810082  64.0977723  -3.6371688
  90.7292266  55.7773586   3.7993093  90.3975591  56.6468997   3.5754308
  90.1337880  55.4609870   4.4787123  87.2223786  67.9786132   3.1989006
  86.9224509  68.8811171   3.0904813  86.8774845  67.7118316   4.0510158
  80.6736267  64.4299929  -0.7674290  79.7486764  64.2976143  -0.5596598
  80.9220681  65.2094148  -0.2704348  90.6220930  60.4968673   0.8786443
  89.7137807  60.4284081   0.5845204  90.5708526  60.9740617   1.7068268
  84.4437674  61.9726811  -7.4830158  84.3237299  62.4183862  -6.6444678
  83.7490262  62.3212129  -8.0416620  78.0345078  64.0733203   0.0669499
  78.1637460  64.3267682   0.9808911  77.3542530  64.6660911  -0.2525846
  82.2044566  74.7430453  -3.8340027  82.1268595  75.6938278  -3.7551546
  81.6006209  74.3976325  -3.1765100  84.6961796  61.9158318   8.8221340
  83.9195130  62.4752238   8.8124205  85.3352359  62.4015101   9.3436210
  92.4882576  58.6985111   2.6564317  91.8456956  58.9917644   2.0104111
  91.9837505  58.5838031   3.4617513  90.1422740  62.4448284  -6.6549824
  91.0540596  62.6775671  -6.8302126  89.6332387  63.0285328  -7.2174745
  82.9508168  64.7243771   8.3839307  83.6922852  65.2628815   8.1074131
  82.2445153  65.3510060   8.5410859  88.4263507  66.8672912   6.9811469
  88.8346864  66.4255322   6.2366101  87.7040769  66.2925539   7.2345661
  84.7794578  61.8045519   4.3545026  85.6255773  62.2284932   4.4979675
  84.7193215  61.1479143   5.0483589  88.7492322  67.4274103   0.7363757
  88.1201185  67.5919817   0.0339825  88.3617984  67.8415712   1.5074722
  92.6281554  68.3628540  -1.9091879  91.9432592  68.7427442  -2.4594845
  92.7125403  68.9723867  -1.1759931  87.9294023  59.4649887   6.0126199
  87.6854955  60.2191948   5.4760475  88.2053953  59.8435235   6.8473446
  89.8832486  66.0088499   4.6903465  90.0949381  66.6520259   4.0137846
  89.8362234  65.1750816   4.2225395  87.4858715  58.6206320   1.5940037
  86.6243194  58.9187574   1.8856774  87.5121149  58.8376719   0.6621070
  84.3020284  67.1648511  -1.9986157  84.7658630  67.4436214  -2.7881535
  84.0377082  66.2631955  -2.1813067  81.1944365  66.7119992   0.9393606
  81.7645722  67.1407261   0.3011090  81.7852477  66.4302577   1.6377791
  83.2389170  63.2871663  -5.1896592  83.9413213  63.7392707  -4.7222666
  82.9069799  62.6455482  -4.5616699  81.6869532  61.8783420   9.1854617
  81.0568192  62.5599700   9.4190014  81.5805619  61.7666501   8.2407755
  76.9814504  61.5455216   0.1120541  76.1913558  61.8012744  -0.3639348
  77.4725751  62.3603554   0.2172582  90.9978314  68.8860455   2.8625822
  91.8195757  68.4840642   2.5808504  90.9940716  68.7828689   3.8141938
  78.9329249  61.9099795  -2.9295982  78.1360413  62.0218489  -2.4112486
  78.7054842  62.2486447  -3.7955092  84.7634917  68.4344498   5.0186533
  84.8279350  68.8964905   5.8544704  84.0545841  67.8041863   5.1468842
  75.2652207  61.7985706   2.5435532  75.5160245  62.6832716   2.8093108
  75.8011755  61.6190308   1.7710624  99.0884307  65.2299203  -0.7889206
  98.3348015  64.6606601  -0.9445202  99.2231848  65.1961868   0.1581428
  84.4782935  70.1012606  -5.1134487  84.3428609  70.9464141  -4.6849639
  85.0192747  70.3031883  -5.8768553  80.9650274  56.1804185  11.5479868
  80.5717220  55.6270384  12.2227512  81.7816415  56.4914764  11.9386386
  77.9312332  67.6188044  -4.5406562  78.4436853  68.4131294  -4.3900997
  78.5835045  66.9214334  -4.6072961  79.7407217  70.7353800  -2.4583809
  79.9173845  71.6571765  -2.6462825  80.5364050  70.4212219  -2.0289429
  83.8818235  57.5962065   9.1400125  84.6227949  58.1969218   9.0604587
  84.1136158  56.8539702   8.5818167  79.0259573  62.7818432   7.4178354
  78.9113088  61.8803689   7.7185453  78.1704091  63.0282129   7.0663171
  86.1051411  70.7236172   9.0165855  85.6615265  69.9372551   8.6986760
  86.7668625  70.9115323   8.3509746  80.8638532  72.2531974   3.5426534
  81.4145957  72.1249037   2.7703527  80.0250008  72.5526863   3.1921426
  88.2032649  71.0038972   7.0447256  88.1851124  71.8247853   6.5527525
  89.1252569  70.8793047   7.2697397  84.6605703  68.5183102   7.8870765
  85.1934040  67.7571390   7.6570073  84.1319784  68.2256753   8.6294919
  87.8275398  53.6243167   3.4164406  87.4839668  54.5144809   3.3403517
  88.1954361  53.4344825   2.5533991  75.8961249  65.9476698  -3.7646991
  76.7336471  66.3573706  -3.9813284  76.0739517  65.0076140  -3.7946798
  87.7925681  63.6151779  -8.0763158  87.2772304  64.3856383  -7.8374771
  87.5202989  62.9416915  -7.4530097  85.3772792  58.4601479  -3.0177920
  84.5214388  58.0708330  -3.1972281  85.7899744  58.5393440  -3.8778135
  86.9071939  55.9947823   1.3813640  86.4036734  55.9577958   0.5681445
  87.2002546  56.9040565   1.4410296  83.1514825  56.0786552   0.3879821
  84.0167821  55.8829361   0.0285711  83.2192333  55.8496904   1.3149178
  92.7659955  66.3684133  -6.1409985  91.9889398  66.0295293  -6.5854823
  93.4451436  66.3736756  -6.8155020  87.5811984  61.4878871  -6.2503377
  87.2762120  61.8025020  -5.3993234  88.5342426  61.5660291  -6.2076044
  86.0258416  67.6469094  -4.6010423  85.4979778  66.9121854  -4.9137186
  85.5245919  68.4243770  -4.8470455  91.0051262  65.8418115   0.5156623
  90.3474936  66.5317376   0.6036752  91.8091661  66.2314546   0.8590609
  80.7577144  58.3088760  -2.2403812  81.3320896  58.0863942  -2.9730619
  81.3448126  58.3777455  -1.4875211  89.8156721  64.1962487  -1.4339435
  90.3288603  64.8292479  -0.9317726  90.4657945  63.5963683  -1.7996075
  83.0599811  55.1830009  -3.5128742  82.4064224  54.8679026  -4.1372128
  83.0180285  54.5605750  -2.7868919  87.0779095  74.1746811  -8.6778764
  86.4040794  74.4778508  -8.0693806  87.4644917  74.9775892  -9.0273307
  86.2937552  61.6711943   0.8118905  85.3760113  61.8926890   0.6540593
  86.7097695  61.7458253  -0.0469387  87.0772599  63.0703358  -4.0578414
  87.8244418  63.5824756  -4.3671292  87.3464189  62.7487411  -3.1974021
  85.3499250  65.5661899  -7.0751460  84.4410469  65.2820932  -6.9778990
  85.3794333  65.9860978  -7.9348153  90.5818517  69.1768489  -3.3060293
  90.1280844  68.3359399  -3.2495102  89.9512484  69.8129887  -2.9685512
  89.5251437  60.1060475  -2.0759625  88.7874193  59.5937861  -1.7449383
  89.7778210  59.6660856  -2.8876348  89.0251456  71.0144985  -2.3710475
  89.3174431  71.5750042  -3.0898109  89.5350077  71.3073546  -1.6157315
  89.6263064  52.8836727  -1.4817856  89.9321941  52.0234090  -1.7691941
  90.3515669  53.4754347  -1.6818862  75.9187420  63.2867413  -3.0936258
  75.7211820  62.6936774  -3.8185191  75.3634084  62.9819623  -2.3760319
  83.8984144  63.1790520  -0.9741665  83.9532753  62.2264356  -1.0499188
  83.0875346  63.3349959  -0.4900366  85.0475337  67.1070643  -9.7363382
  84.6094767  66.3906502 -10.1957744  85.7885778  67.3346758 -10.2978290
  81.8376504  61.7967579  -3.2151286  81.0244369  62.0961750  -2.8086094
  82.3335498  61.4023268  -2.4976804  83.9885081  71.7925336  -1.2817021
  83.9461260  72.0186183  -2.2108489  84.9047780  71.5588711  -1.1331220
  87.4350715  62.2609404   5.6163608  87.7900103  62.4880877   6.4758074
  88.0822846  62.5927781   4.9940863  93.1648452  65.3827840  -3.6787063
  93.0266351  65.5729436  -4.6065874  92.8084671  66.1447223  -3.2219012
  81.3290578  59.3685935   2.4009949  81.9689958  59.2274694   1.7032912
  80.4968109  59.0820448   2.0248551  93.1917832  67.4504367   1.3324208
  93.6254338  67.3579656   2.1807262  93.9049413  67.4261867   0.6944224
  82.1050882  68.6688365  -1.4855059  82.8991481  68.1738686  -1.6872484
  81.3942575  68.1406229  -1.8487353  86.9245727  71.0506461   2.8657309
  86.9782749  71.6197397   3.6335025  86.0560508  71.2208346   2.5011346
  78.4133646  62.8131447  -5.4095306  77.4831234  62.7515903  -5.1925344
  78.5091118  62.2907400  -6.2058665  78.3319195  59.3386260  -2.8217064
  78.5926012  60.2531593  -2.9307904  79.1536367  58.8710703  -2.6720451
  79.8044120  60.7524017   4.3481760  80.4767174  60.5441379   3.6994409
  78.9773907  60.5546103   3.9086993  94.0533381  67.4928068   3.8657094
  94.2469271  68.3973878   4.1116369  93.9534000  67.0335487   4.6995679
  85.7069692  57.3785958   6.3647421  85.0597607  58.0775908   6.2711898
  86.4770707  57.8122102   6.7323669  89.1148490  67.6434810   9.4397974
  88.9633996  67.4145362   8.5228058  89.1053170  68.6005412   9.4529319
  85.8833826  65.2166723   4.4244241  86.8125886  65.3677883   4.2513208
  85.4624856  65.3050744   3.5692887  84.6822158  69.2417387   2.1942779
  84.5433244  68.8736172   3.0668717  83.8936754  69.7565027   2.0226736
  85.2770310  74.3426484  -6.4631685  85.4522066  73.8714527  -5.6486062
  84.5903098  74.9692250  -6.2350424  86.2327373  68.6198990  -0.4168384
  85.8977206  68.5799760   0.4789266  85.7331319  67.9543706  -0.8897973
  80.2071617  64.0266620   5.1084197  80.0691415  63.2946859   5.7095737
  81.1176541  63.9375520   4.8268385  89.1686565  65.9655024 -10.1431324
  88.5515736  65.2401853 -10.2398271  88.7003053  66.7264385 -10.4864250
  82.8353918  63.7386579   4.5967877  83.5453537  63.0979772   4.5554496
  82.7923226  63.9899474   5.5194058  90.8240697  70.6753933   7.5174456
  90.7653243  69.9913153   6.8505039  91.2260215  71.4172923   7.0655082
  81.5482852  60.7251797   6.4163517  81.0120209  60.2742536   7.0685113
  80.9599560  60.8597706   5.6733981  79.8431395  77.4915847   0.3108175
  80.0827994  78.1234371   0.9887194  79.0000592  77.1403887   0.5973534
  90.8258104  68.6393517   5.7488436  89.9384883  68.3019439   5.8714835
  91.3956655  67.9076548   5.9857201  72.4787251  64.9717608  -0.9268513
  73.1658291  64.6579339  -1.5147497  72.3235380  65.8758973  -1.2001261
  77.2821973  59.8607805   3.5016511  77.1980162  59.2533475   2.7666921
  76.4604680  60.3516823   3.5026007  84.3559257  73.2994969   2.7149679
  84.2829429  74.1049941   3.2268984  83.9136650  73.4986935   1.8897701
  84.1449037  72.5366739  -3.7747499  83.3616559  73.0788419  -3.6809275
  84.8441782  73.0540719  -3.3753258  87.4545687  58.3461369  -1.1313294
  87.9514387  57.5931331  -1.4512224  86.6832669  58.3825685  -1.6970085
  95.3075444  64.0501734   0.5104998  95.2965321  64.9326450   0.1398931
  94.4392824  63.6973285   0.3159535  86.8157941  73.1981803   4.8707838
  87.5285913  73.8329268   4.7983739  86.3247970  73.2945669   4.0547840
  88.5375468  67.1033056  -3.5574870  87.6031747  67.2234518  -3.7270166
  88.7152136  66.2005523  -3.8214861  84.0380656  60.4878752  -1.4041609
  83.6678443  59.9349792  -0.7160704  84.5339748  59.8836885  -1.9566609
  91.9248019  62.9450375  -3.0224836  92.3908471  63.7778367  -3.0964534
  92.3755520  62.4795357  -2.3179578  81.8669854  70.9476247   5.6913409
  82.5679314  71.5812730   5.8442803  81.3964969  71.2890978   4.9309048
  89.9924250  69.2894196  -6.0238684  90.2684094  69.1750791  -5.1144810
  89.1228749  68.8911681  -6.0626511  89.8964682  55.3130962   1.0166065
  88.9827762  55.5435189   1.1848272  90.3257783  55.3969406   1.8680097
  89.6671140  63.5020854   3.5165959  89.0142591  63.7496761   2.8618412
  90.0451520  62.6884992   3.1828436  86.6278314  73.5380547  -2.3805871
  86.8100709  72.7202203  -1.9178118  87.4511300  73.7548239  -2.8180981
  86.9620480  72.4648732  -5.1190822  87.4908246  71.9541187  -5.7320660
  87.2248699  72.1491263  -4.2545289  85.7158713  64.2440665  10.0031996
  85.0399350  64.1434794  10.6734371  86.5386347  64.0879879  10.4667993
  77.4637572  70.4812602   2.6244511  78.0491009  69.7356290   2.7572416
  77.2662411  70.7916558   3.5081175  80.3176228  73.5163849  -2.3593046
  79.6486603  74.0009977  -2.8429006  80.1789097  73.7633069  -1.4449668
  72.0555227  63.0518202   1.3448955  72.0939327  62.5181793   2.1386073
  71.5495520  62.5253407   0.7259932  84.4581496  75.5507593   4.2389612
  85.0099804  75.7139214   5.0038697  84.7987690  76.1412030   3.5669637
  79.4345989  57.8982742   4.8411497  79.4987316  58.7597573   4.4288895
  79.3713110  57.2856744   4.1083855  78.9098262  59.9705875   8.4884531
  79.5370301  59.5882952   9.1022055  78.0526181  59.7520077   8.8540224
  89.3092371  70.3768850  10.0938267  89.8532275  70.9898808   9.5993221
  88.7279215  70.9348428  10.6105280  87.5949884  73.4989568   1.2253294
  87.4701023  72.6979308   0.7164240  88.2528975  73.9935761   0.7367264
  79.2158052  59.8538301   0.4030434  78.4944638  60.4674268   0.2637908
  80.0051308  60.3896065   0.3247080  89.6584792  71.2998588   2.8532844
  88.7115127  71.1803939   2.7811171  90.0067565  70.4121086   2.9359106
  82.0184365  57.1892727   6.6771086  82.5418767  57.4355024   7.4397396
  81.7996699  58.0212762   6.2574224  86.6631225  71.0951304  -0.9462803
  86.5156188  70.1668012  -0.7655233  87.4884719  71.1171395  -1.4305728
  80.5293470  59.7469371  -5.0882311  80.8689542  60.2755293  -5.8103703
  80.9765590  60.0849778  -4.3123745  90.2665347  71.9179863   0.1402069
  91.1911895  71.7122724   0.0026520  90.0980650  71.6696264   1.0491411
  83.2236910  58.1306422   4.3620757  82.8833731  57.3314235   4.7641437
  82.5175917  58.4308133   3.7897590  83.8753382  55.2155735   2.8148080
  84.6979451  54.7416213   2.6926970  84.1191446  55.9946218   3.3146766
  86.6592740  58.9489142  -5.9530686  86.8756354  59.8313780  -6.2541858
  86.1786807  58.5575355  -6.6825044  81.3991961  61.9074855   0.6240058
  81.2536542  62.2215158   1.5164340  80.9217165  62.5259756   0.0710957
  83.2588344  58.8977403   0.6720948  83.2449913  58.0018497   0.3353246
  83.9760772  58.9048067   1.3059234  85.1114475  59.3314743   2.7174075
  84.8532252  60.2531814   2.7158406  84.5799515  58.9345178   3.4074540
  90.0560663  72.4365531  -4.5035839  90.2297541  71.8711953  -5.2561987
  90.5489555  73.2366425  -4.6856349  75.8737623  64.4480200   3.5627720
  75.3291091  65.2240008   3.6947994  76.7516973  64.7951004   3.4046841
  82.6625240  57.7791784  -4.0591482  82.7841151  56.8508430  -3.8600594
  82.3727282  57.7930469  -4.9713166  85.5316430  55.4646694  -0.9224762
  85.5538127  55.5286027  -1.8772782  85.9484489  54.6251203  -0.7284256
  95.9100054  65.2001954  -2.8845539  96.3531200  64.4509279  -3.2826416
  95.0326565  65.1912090  -3.2671807  91.0435836  71.7532295  -7.4038941
  91.7386740  72.3738988  -7.1851626  91.3858986  70.9027646  -7.1286563
  76.6603645  63.5750096   6.4557876  75.9185381  63.7232731   7.0422507
  76.3396389  63.8358362   5.5924626  92.9427259  69.2032000  -5.8751610
  93.4678583  69.5419273  -6.6002290  92.8549611  68.2679016  -6.0588476
  84.6047308  73.1166074   6.2538266  84.9134434  72.8715221   7.1260966
  85.4022790  73.3212713   5.7657137  84.6267920  75.2703984  -1.5156357
  84.1872910  74.7780362  -0.8223500  85.3776037  74.7276951  -1.7564282
  77.1060259  71.4615525  -1.5131729  77.9318279  71.1619297  -1.8933085
  76.7554311  70.6923147  -1.0641940  82.0741792  70.8141993   0.5565945
  81.4521801  70.1512698   0.2568173  82.7446659  70.8403125  -0.1260408
  75.3068864  69.3801851  -0.5542795  74.4700772  68.9524025  -0.7358794
  75.2792509  69.5734294   0.3827996  82.1466319  59.2923781  10.1498451
  82.1954475  60.1685904   9.7676220  82.6888833  58.7501174   9.5770094
  92.6321165  69.8364904   9.4299588  91.8416709  69.8189043   8.8904087
  92.3954520  70.3753198  10.1848624  92.7519040  66.6857371   6.7432316
  92.8017045  66.5207378   7.6847839  92.6432963  65.8184630   6.3530197
  81.6355299  69.3645916  -5.9675595  81.7843419  70.0481381  -6.6208922
  82.4421742  69.3451006  -5.4526139  90.0422802  62.6688299   8.0591623
  90.9432665  62.5294763   7.7675621  90.1170777  62.8342753   8.9989800
  84.3765608  60.0455153   6.9044809  83.5068917  60.3388719   6.6327398
  84.6125088  60.6295598   7.6252073  94.2537237  69.1054312   6.9874338
  93.9622045  69.4684293   7.8237799  93.6409368  68.3921320   6.8087670
  95.4532919  66.6707192  -0.4923092  96.2879811  67.1096996  -0.3285532
  95.5892048  66.1945845  -1.3114846  92.5024425  64.2286927   5.4554396
  92.9778547  64.4214573   4.6473247  91.5789990  64.2846112   5.2097780
  79.3907932  65.3911094  -4.9614526  79.1453974  64.4873424  -4.7634316
  79.5603846  65.3928244  -5.9035048  87.0804642  56.2634770   4.4210230
  87.5986585  56.9995797   4.0956718  86.7259774  56.5698764   5.2556989
  87.3317236  52.6835053  -0.0588874  87.6118989  52.0158242   0.5671553
  88.1167843  52.8764148  -0.5714210  85.1350704  71.8594047  -8.4963847
  84.5624671  72.4784234  -8.9493375  85.7083498  72.4093408  -7.9623925
  91.2026094  61.1052687   3.6882701  92.1543517  61.2050784   3.7094925
  91.0329544  60.3130955   4.1980786  89.2240474  58.1908270   3.8742102
  88.6290406  58.4713283   3.1788591  88.9390170  58.6802171   4.6458843
  88.3547964  72.1431197  -7.3655265  89.2878637  72.0776758  -7.1622390
  88.2671177  72.9787464  -7.8240732  90.9835981  71.4597067 -10.4051318
  90.9049612  71.1256931  -9.5115560  91.8045647  71.9518835 -10.4059845
  93.6814172  64.3258806   2.8025001  93.6490492  63.3874807   2.9884685
  94.2914796  64.4042843   2.0690826  93.8308660  61.1169850   2.8483284
  93.3147709  60.3328306   2.6613213  94.7148609  60.7888566   3.0129804
  91.4919387  54.8610865  -1.1920903  91.2944208  54.5525954  -0.3077571
  92.1019093  55.5872504  -1.0622973  99.4990722  65.3874813   1.9431038
 100.2294110  65.1260101   2.5038741  98.8897667  64.6503535   1.9833106
  97.5806019  63.5282676   2.5405489  96.8539182  63.3938641   1.9321981
  97.1653306  63.8359504   3.3462207  85.4036195  67.2472606  10.3052862
  86.3239205  67.4251205  10.4992909  85.3685778  66.3028651  10.1532561
  74.6218360  62.4411199  -0.7693863  74.3021145  61.5876507  -1.0619489
  74.0751788  62.6559777  -0.0135896  78.3998268  65.1573640   2.9475643
  78.6184278  66.0890748   2.9663677  78.8124042  64.7981615   3.7330447
  85.3202486  55.6641726  -5.0648668  84.5103214  55.3188810  -4.6893422
  86.0086903  55.3549269  -4.4761057  87.2493034  54.7419772  -3.4424372
  87.8024073  55.1615226  -2.7834349  87.4863120  53.8155520  -3.4001416
  83.2726133  60.7306846  12.3378392  83.1722860  61.6801203  12.2690483
  83.0547675  60.4025085  11.4654462  74.4906620  66.0614111   1.1999258
  73.7970092  65.6468063   0.6869213  75.2379611  66.1034647   0.6032677
  90.6271841  56.8520297  -3.9345707  90.0470510  57.5105102  -4.3167655
  90.3607774  56.0297642  -4.3458290  89.0775407  56.2525355  -1.7324387
  89.5775186  56.3641890  -2.5410068  89.7211015  55.9486408  -1.0923579
  83.1357403  64.1603985  11.1543454  82.6524485  64.9604345  11.3607343
  83.2218342  64.1711930  10.2010898  76.4043363  65.9932364  -0.9234727
  76.3814051  66.0920052  -1.8752844  76.7143999  66.8397515  -0.6017561
  79.0630741  68.0508519   3.1911888  80.0173994  68.0192462   3.1241819
  78.8643264  67.5899143   4.0062114  79.6530123  66.6209636   5.7582685
  80.4723012  67.1153714   5.7817523  79.9266931  65.7041604   5.7300253
  89.4096719  59.0120388  -4.8789359  88.5222574  59.2970038  -5.0969164
  89.8250708  58.8514151  -5.7262082  92.7611255  59.0366909  -1.1635020
  93.5371645  59.5263361  -0.8910403  92.0359389  59.4624963  -0.7063150
  95.1983814  59.7494528  -0.1061079  95.7928305  59.5090264  -0.8167771
  95.2710397  59.0301659   0.5212457  77.4180969  73.5928139   0.2082086
  77.2835437  72.8328540  -0.3579916  77.0013032  74.3169039  -0.2589126
  88.5539932  68.7765063 -10.7841339  89.2575783  68.9815065 -10.1683684
  87.8302581  69.3441824 -10.5192256  89.3837743  64.5274924  -4.6639069
  89.3272944  64.9843475  -5.5031437  89.9366085  63.7665608  -4.8416226
  93.1942549  60.3164656  -3.8388950  92.9379483  59.9161291  -3.0080742
  92.5695417  61.0308450  -3.9638810  97.5054887  63.0560729  -1.3317658
  96.9454444  63.1253918  -0.5586096  96.8998390  62.8801714  -2.0518162
  80.5750095  74.4897456   0.4200528  80.4582479  75.4342888   0.3179218
  79.7542542  74.1871018   0.8086327  90.4626630  69.2147592  -8.7342879
  91.2972234  68.7828790  -8.9165404  90.3010973  69.0429605  -7.8065985
  90.1172522  65.7179705  -7.3686540  90.0621326  65.5523976  -8.3098096
  89.4918577  66.4255738  -7.2124350  74.9065037  60.9547769   6.4574882
  75.5523901  60.4446723   6.9462108  74.6982188  61.6916451   7.0318308
  87.4318429  68.0228617  11.9567023  88.3009589  68.1969269  11.5953658
  86.9525181  68.8423034  11.8342752  81.6004609  75.1425718   3.6356457
  82.5031856  75.1749328   3.9522952  81.3741980  74.2126169   3.6502792
  83.3558211  73.8956704   0.2966535  82.4053842  73.8958566   0.1830908
  83.6590698  73.1489439  -0.2197430  87.2420767  51.8130591  -3.5355285
  86.4753163  51.2589077  -3.3898602  87.6531472  51.8852459  -2.6741133
  79.2462528  58.1015386  10.5549897  80.1093990  57.7452191  10.7653221
  78.6727939  57.7629281  11.2425301  99.0910905  79.7317243   1.3612298
  99.7289315  79.6123990   0.6575638  98.9731748  80.6798087   1.4200250
  95.9000611  79.6844671   1.2973822  95.5619123  79.5685736   0.4094357
  96.7690379  79.2835836   1.2774828  91.7587427  81.5380147  -2.7129287
  91.1952292  81.4470084  -3.4812999  91.6439822  80.7180052  -2.2326794
  96.3820394  80.8379523   7.2560028  96.3709035  80.4432321   6.3840532
  96.5441034  80.1045595   7.8493799  89.3051859  83.0331339   0.1254934
  90.0973151  82.6922164  -0.2898767  89.5448509  83.1426314   1.0457087
  91.2642613  82.2940252  -7.0027687  92.0373489  81.7469239  -7.1414812
  91.6168012  83.1584502  -6.7913226  93.1027655  83.6216634   6.2039212
  92.8117521  84.5262265   6.0885878  93.7384640  83.6633162   6.9183281
  94.0283862  80.9993483   2.7940571  94.6247434  80.7749505   2.0797534
  94.0858834  80.2578228   3.3966019  93.6008891  78.4532918  -9.3709238
  93.8534411  77.9314440 -10.1325775  92.6633450  78.2899064  -9.2682554
  98.6452173  77.4568697  -1.5634494  99.4315263  77.0388120  -1.9144077
  98.9090878  78.3614789  -1.3952846  98.8162251  82.8941547  -6.8645838
  98.1808084  82.9676174  -6.1524933  98.4859657  83.4835146  -7.5426758
 104.0460601  77.3943930  -0.6601516 104.7785773  76.8243147  -0.4263686
 103.2899956  77.0065530  -0.2195010  93.3205179  80.3561024  -7.1684863
  93.2041437  79.6805928  -6.5003778  93.4307439  79.8693398  -7.9852710
  95.6636720  79.8171171  -3.4638173  95.2994928  79.2901792  -2.7525252
  96.5203836  79.4269640  -3.6371688 101.5686021  71.1065504   3.7993093
 101.2369346  71.9760915   3.5754308 100.9731634  70.7901788   4.4787123
  95.3042207  74.8461071  -8.4676825  95.4716610  75.7141307  -8.1006354
  95.1139376  75.0088353  -9.3915536  98.0617540  83.3078050   3.1989006
  97.7618264  84.2103089   3.0904813  97.7168600  83.0410233   4.0510158
  91.5130022  79.7591847  -0.7674290  90.5880518  79.6268061  -0.5596598
  91.7614435  80.5386066  -0.2704348 101.4614684  75.8260590   0.8786443
 100.5531562  75.7575999   0.5845204 101.4102280  76.3032535   1.7068268
  95.2831428  77.3018729  -7.4830158  95.1631053  77.7475779  -6.6444678
  94.5884017  77.6504046  -8.0416620  88.8738833  79.4025120   0.0669499
  89.0031214  79.6559599   0.9808911  88.1936284  79.9952828  -0.2525846
  93.0438320  90.0722370  -3.8340027  92.9662350  91.0230195  -3.7551546
  92.4399964  89.7268243  -3.1765100  95.5355550  77.2450236   8.8221340
  94.7588884  77.8044156   8.8124205  96.1746113  77.7307019   9.3436210
 103.3276331  74.0277029   2.6564317 102.6850711  74.3209562   2.0104111
 102.8231259  73.9129949   3.4617513 100.9816494  77.7740202  -6.6549824
 101.8934350  78.0067589  -6.8302126 100.4726141  78.3577246  -7.2174745
  93.7901922  80.0535689   8.3839307  94.5316607  80.5920733   8.1074131
  93.0838908  80.6801978   8.5410859  99.2657262  82.1964830   6.9811469
  99.6740618  81.7547240   6.2366101  98.5434523  81.6217457   7.2345661
  95.6188332  77.1337436   4.3545026  96.4649527  77.5576850   4.4979675
  95.5586970  76.4771061   5.0483589  99.5886077  82.7566020   0.7363757
  98.9594939  82.9211734   0.0339825  99.2011739  83.1707630   1.5074722
 103.4675309  83.6920458  -1.9091879 102.7826347  84.0719359  -2.4594845
 103.5519158  84.3015785  -1.1759931  98.7687777  74.7941805   6.0126199
  98.5248709  75.5483865   5.4760475  99.0447708  75.1727152   6.8473446
 100.7226240  81.3380417   4.6903465 100.9343135  81.9812177   4.0137846
 100.6755988  80.5042734   4.2225395  98.3252469  73.9498238   1.5940037
  97.4636948  74.2479491   1.8856774  98.3514904  74.1668637   0.6621070
  95.1414038  82.4940428  -1.9986157  95.6052384  82.7728131  -2.7881535
  94.8770837  81.5923873  -2.1813067  92.0338120  82.0411910   0.9393606
  92.6039477  82.4699178   0.3011090  92.6246231  81.7594495   1.6377791
  94.0782925  78.6163581  -5.1896592  94.7806968  79.0684624  -4.7222666
  93.7463553  77.9747400  -4.5616699  92.5263286  77.2075337   9.1854617
  91.8961947  77.8891618   9.4190014  92.4199374  77.0958419   8.2407755
  87.8208259  76.8747133   0.1120541  87.0307312  77.1304662  -0.3639348
  88.3119506  77.6895471   0.2172582 101.8372068  84.2152373   2.8625822
 102.6589512  83.8132560   2.5808504 101.8334471  84.1120607   3.8141938
  89.7723004  77.2391713  -2.9295982  88.9754167  77.3510407  -2.4112486
  89.5448596  77.5778365  -3.7955092  95.6028672  83.7636416   5.0186533
  95.6673104  84.2256823   5.8544704  94.8939595  83.1333781   5.1468842
  86.1045961  77.1277624   2.5435532  86.3554000  78.0124634   2.8093108
  86.6405510  76.9482225   1.7710624 109.9278061  80.5591121  -0.7889206
 109.1741770  79.9898519  -0.9445202 110.0625602  80.5253785   0.1581428
  95.3176689  85.4304523  -5.1134487  95.1822364  86.2756059  -4.6849639
  95.8586502  85.6323801  -5.8768553  91.8044029  71.5096103  11.5479868
  91.4110974  70.9562302  12.2227512  92.6210169  71.8206682  11.9386386
  88.7706087  82.9479961  -4.5406562  89.2830607  83.7423212  -4.3900997
  89.4228799  82.2506252  -4.6072961  90.5800971  86.0645718  -2.4583809
  90.7567600  86.9863682  -2.6462825  91.3757805  85.7504137  -2.0289429
  94.7211990  72.9253982   9.1400125  95.4621703  73.5261135   9.0604587
  94.9529913  72.1831620   8.5818167  89.8653328  78.1110349   7.4178354
  89.7506843  77.2095607   7.7185453  89.0097846  78.3574046   7.0663171
  96.9445166  86.0528090   9.0165855  96.5009020  85.2664468   8.6986760
  97.6062379  86.2407240   8.3509746  91.7032287  87.5823891   3.5426534
  92.2539712  87.4540955   2.7703527  90.8643763  87.8818780   3.1921426
  99.0426404  86.3330890   7.0447256  99.0244879  87.1539771   6.5527525
  99.9646324  86.2084965   7.2697397  95.4999458  83.8475019   7.8870765
  96.0327795  83.0863307   7.6570073  94.9713539  83.5548671   8.6294919
  98.6669153  68.9535085   3.4164406  98.3233422  69.8436727   3.3403517
  99.0348115  68.7636743   2.5533991  86.7355003  81.2768616  -3.7646991
  87.5730225  81.6865624  -3.9813284  86.9133271  80.3368058  -3.7946798
  98.6319435  78.9443696  -8.0763158  98.1166059  79.7148301  -7.8374771
  98.3596744  78.2708832  -7.4530097  96.2166546  73.7893397  -3.0177920
  95.3608143  73.4000247  -3.1972281  96.6293498  73.8685358  -3.8778135
  97.7465693  71.3239740   1.3813640  97.2430489  71.2869875   0.5681445
  98.0396300  72.2332483   1.4410296  93.9908579  71.4078470   0.3879821
  94.8561576  71.2121279   0.0285711  94.0586088  71.1788822   1.3149178
  98.4205739  76.8170788  -6.2503377  98.1155874  77.1316938  -5.3993234
  99.3736181  76.8952208  -6.2076044  96.8652170  82.9761012  -4.6010423
  96.3373532  82.2413771  -4.9137186  96.3639673  83.7535688  -4.8470455
 101.8445017  81.1710032   0.5156623 101.1868691  81.8609294   0.6036752
 102.6485416  81.5606464   0.8590609  91.5970898  73.6380678  -2.2403812
  92.1714650  73.4155859  -2.9730619  92.1841881  73.7069372  -1.4875211
 100.6550475  79.5254405  -1.4339435 101.1682357  80.1584397  -0.9317726
 101.3051699  78.9255600  -1.7996075  91.9240485  75.6685139  -8.2207927
  91.0877797  76.0059826  -7.8998652  91.7845255  75.5334119  -9.1580790
  93.8993566  70.5121927  -3.5128742  93.2457978  70.1970944  -4.1372128
  93.8574040  69.8897667  -2.7868919  97.1331306  77.0003860   0.8118905
  96.2153868  77.2218807   0.6540593  97.5491450  77.0750171  -0.0469387
  97.9166354  78.3995276  -4.0578414  98.6638173  78.9116673  -4.3671292
  98.1857943  78.0779329  -3.1974021  96.1893004  80.8953817  -7.0751460
  95.2804223  80.6112850  -6.9778990  96.2188088  81.3152895  -7.9348153
 101.4212272  84.5060406  -3.3060293 100.9674599  83.6651316  -3.2495102
 100.7906238  85.1421805  -2.9685512 100.3645191  75.4352392  -2.0759625
  99.6267948  74.9229779  -1.7449383 100.6171965  74.9952774  -2.8876348
  99.8645211  86.3436903  -2.3710475 100.1568185  86.9041960  -3.0898109
 100.3743831  86.6365464  -1.6157315 100.4656818  68.2128644  -1.4817856
 100.7715695  67.3526008  -1.7691941 101.1909423  68.8046265  -1.6818862
  86.7581174  78.6159331  -3.0936258  86.5605574  78.0228692  -3.8185191
  86.2027838  78.3111541  -2.3760319  94.7377898  78.5082437  -0.9741665
  94.7926508  77.5556274  -1.0499188  93.9269100  78.6641877  -0.4900366
  92.6770258  77.1259497  -3.2151286  91.8638124  77.4253668  -2.8086094
  93.1729252  76.7315186  -2.4976804  94.8278836  87.1217254  -1.2817021
  94.7855015  87.3478100  -2.2108489  95.7441535  86.8880629  -1.1331220
  98.2744470  77.5901322   5.6163608  98.6293857  77.8172795   6.4758074
  98.9216601  77.9219698   4.9940863 104.0042207  80.7119758  -3.6787063
 103.8660105  80.9021354  -4.6065874 103.6478425  81.4739140  -3.2219012
  92.1684333  74.6977853   2.4009949  92.8083712  74.5566612   1.7032912
  91.3361863  74.4112366   2.0248551 104.0311586  82.7796285   1.3324208
 104.4648093  82.6871574   2.1807262 104.7443167  82.7553785   0.6944224
  92.9444637  83.9980283  -1.4855059  93.7385235  83.5030603  -1.6872484
  92.2336329  83.4698146  -1.8487353  97.7639481  86.3798379   2.8657309
  97.8176503  86.9489315   3.6335025  96.8954263  86.5500264   2.5011346
  89.2527400  78.1423365  -5.4095306  88.3224988  78.0807820  -5.1925344
  89.3484872  77.6199318  -6.2058665  89.1712949  74.6678178  -2.8217064
  89.4319767  75.5823511  -2.9307904  89.9930122  74.2002620  -2.6720451
  90.6437875  76.0815935   4.3481760  91.3160928  75.8733297   3.6994409
  89.8167661  75.8838021   3.9086993 104.8927136  82.8219985   3.8657094
 105.0863026  83.7265796   4.1116369 104.7927754  82.3627404   4.6995679
  96.5463447  72.7077876   6.3647421  95.8991362  73.4067825   6.2711898
  97.3164462  73.1414020   6.7323669  99.9542245  82.9726728   9.4397974
  99.8027751  82.7437280   8.5228058  99.9446924  83.9297329   9.4529319
  96.7227581  80.5458641   4.4244241  97.6519641  80.6969800   4.2513208
  96.3018611  80.6342661   3.5692887  95.5215913  84.5709305   2.1942779
  95.3826998  84.2028090   3.0668717  94.7330509  85.0856945   2.0226736
  97.0721128  83.9490908  -0.4168384  96.7370960  83.9091678   0.4789266
  96.5725074  83.2835624  -0.8897973  91.0465372  79.3558538   5.1084197
  90.9085170  78.6238777   5.7095737  91.9570295  79.2667438   4.8268385
  93.6747672  79.0678497   4.5967877  94.3847291  78.4271689   4.5554496
  93.6316981  79.3191392   5.5194058 101.6634451  86.0045850   7.5174456
 101.6046997  85.3205071   6.8505039 102.0653970  86.7464840   7.0655082
  92.3876606  76.0543715   6.4163517  91.8513963  75.6034453   7.0685113
  91.7993315  76.1889624   5.6733981  90.6825150  92.8207764   0.3108175
  90.9221748  93.4526288   0.9887194  89.8394346  92.4695804   0.5973534
  91.7978865  75.5132366 -11.0210020  90.9208332  75.3921167 -11.3847773
  92.2736618  74.7218445 -11.2731131 101.6651858  83.9685434   5.7488436
 100.7778637  83.6311356   5.8714835 102.2350410  83.2368466   5.9857201
  83.3181006  80.3009526  -0.9268513  84.0052045  79.9871256  -1.5147497
  83.1629134  81.2050891  -1.2001261  88.1215728  75.1899723   3.5016511
  88.0373916  74.5825392   2.7666921  87.2998434  75.6808741   3.5026007
  95.1953012  88.6286887   2.7149679  95.1223183  89.4341858   3.2268984
  94.7530405  88.8278853   1.8897701  94.9842791  87.8658657  -3.7747499
  94.2010313  88.4080337  -3.6809275  95.6835537  88.3832636  -3.3753258
  98.2939442  73.6753286  -1.1313294  98.7908141  72.9223249  -1.4512224
  97.5226423  73.7117603  -1.6970085 106.1469199  79.3793652   0.5104998
 106.1359075  80.2618367   0.1398931 105.2786578  79.0265203   0.3159535
  97.6551695  88.5273721   4.8707838  98.3679668  89.1621186   4.7983739
  97.1641724  88.6237587   4.0547840  99.3769222  82.4324973  -3.5574870
  98.4425501  82.5526436  -3.7270166  99.5545891  81.5297440  -3.8214861
  94.8774410  75.8170669  -1.4041609  94.5072198  75.2641710  -0.7160704
  95.3733503  75.2128803  -1.9566609 102.7641774  78.2742293  -3.0224836
 103.2302226  79.1070284  -3.0964534 103.2149274  77.8087274  -2.3179578
  92.7063609  86.2768164   5.6913409  93.4073068  86.9104647   5.8442803
  92.2358724  86.6182896   4.9309048 100.8318005  84.6186114  -6.0238684
 101.1077849  84.5042709  -5.1144810  99.9622503  84.2203599  -6.0626511
 100.7358436  70.6422880   1.0166065  99.8221516  70.8727107   1.1848272
 101.1651538  70.7261324   1.8680097 100.5064895  78.8312772   3.5165959
  99.8536345  79.0788679   2.8618412 100.8845275  78.0176910   3.1828436
  97.4672069  88.8672465  -2.3805871  97.6494463  88.0494121  -1.9178118
  98.2905055  89.0840157  -2.8180981  96.5552468  79.5732583  10.0031996
  95.8793105  79.4726712  10.6734371  97.3780102  79.4171797  10.4667993
  88.3031327  85.8104519   2.6244511  88.8884764  85.0648207   2.7572416
  88.1056165  86.1208476   3.5081175  91.1569982  88.8455767  -2.3593046
  90.4880357  89.3301894  -2.8429006  91.0182852  89.0924987  -1.4449668
  82.8948982  78.3810120   1.3448955  82.9333081  77.8473710   2.1386073
  82.3889275  77.8545325   0.7259932  95.2975251  90.8799510   4.2389612
  95.8493559  91.0431132   5.0038697  95.6381444  91.4703948   3.5669637
  90.2739744  73.2274660   4.8411497  90.3381070  74.0889491   4.4288895
  90.2106864  72.6148662   4.1083855  89.7492017  75.2997793   8.4884531
  90.3764055  74.9174870   9.1022055  88.8919935  75.0811995   8.8540224
 100.1486125  85.7060768  10.0938267 100.6926029  86.3190726   9.5993221
  99.5672970  86.2640346  10.6105280  86.5257559  77.1074222  -5.5797114
  86.8211000  76.1984900  -5.6330060  85.6245595  77.0861961  -5.9016112
  98.4343638  88.8281486   1.2253294  98.3094777  88.0271226   0.7164240
  99.0922729  89.3227679   0.7367264  90.0551806  75.1830218   0.4030434
  89.3338392  75.7966186   0.2637908  90.8445062  75.7187983   0.3247080
 100.4978546  86.6290506   2.8532844  99.5508882  86.5095857   2.7811171
 100.8461320  85.7413004   2.9359106  92.8578120  72.5184645   6.6771086
  93.3812522  72.7646941   7.4397396  92.6390453  73.3504680   6.2574224
  88.2545401  74.7888319  -5.4557789  87.9258107  73.9085698  -5.6382683
  88.6084772  74.7335988  -4.5681400  97.5024980  86.4243222  -0.9462803
  97.3549942  85.4959929  -0.7655233  98.3278473  86.4463313  -1.4305728
  91.3687224  75.0761289  -5.0882311  91.7083297  75.6047210  -5.8103703
  91.8159344  75.4141695  -4.3123745 101.1059102  87.2471781   0.1402069
 102.0305649  87.0414642   0.0026520 100.9374405  86.9988182   1.0491411
  94.0630665  73.4598340   4.3620757  93.7227485  72.6606153   4.7641437
  93.3569671  73.7600051   3.7897590  94.7147137  70.5447652   2.8148080
  95.5373206  70.0708130   2.6926970  94.9585200  71.3238136   3.3146766
  93.3555371  73.5735911  -6.8889019  94.0763734  73.9517164  -7.3925302
  92.7320675  74.2924788  -6.7854041  97.4986494  74.2781060  -5.9530686
  97.7150108  75.1605698  -6.2541858  97.0180561  73.8867273  -6.6825044
  92.2385715  77.2366773   0.6240058  92.0930296  77.5507076   1.5164340
  91.7610919  77.8551673   0.0710957  94.0982098  74.2269321   0.6720948
  94.0843667  73.3310414   0.3353246  94.8154526  74.2339985   1.3059234
  95.9508229  74.6606661   2.7174075  95.6926007  75.5823732   2.7158406
  95.4193269  74.2637096   3.4074540  86.7131378  79.7772117   3.5627720
  86.1684846  80.5531925   3.6947994  87.5910727  80.1242922   3.4046841
  93.5018994  73.1083701  -4.0591482  93.6234905  72.1800347  -3.8600594
  93.2121037  73.1222387  -4.9713166  96.3710185  70.7938612  -0.9224762
  96.3931881  70.8577945  -1.8772782  96.7878244  69.9543120  -0.7284256
 106.7493809  80.5293871  -2.8845539 107.1924955  79.7801196  -3.2826416
 105.8720319  80.5204008  -3.2671807  87.4997399  78.9042014   6.4557876
  86.7579135  79.0524649   7.0422507  87.1790144  79.1650279   5.5924626
  95.4441062  88.4457992   6.2538266  95.7528189  88.2007139   7.1260966
  96.2416544  88.6504630   5.7657137  95.4661674  90.5995901  -1.5156357
  95.0266664  90.1072280  -0.8223500  96.2169791  90.0568869  -1.7564282
  87.9454013  86.7907442  -1.5131729  88.7712033  86.4911214  -1.8933085
  87.5948065  86.0215065  -1.0641940  92.9135546  86.1433911   0.5565945
  92.2915556  85.4804616   0.2568173  93.5840413  86.1695042  -0.1260408
  86.1462618  84.7093769  -0.5542795  85.3094526  84.2815943  -0.7358794
  86.1186264  84.9026212   0.3827996  92.9860074  74.6215699  10.1498451
  93.0348229  75.4977821   9.7676220  93.5282588  74.0793092   9.5770094
 103.4714919  85.1656822   9.4299588 102.6810463  85.1480961   8.8904087
 103.2348274  85.7045116  10.1848624 103.5912794  82.0149288   6.7432316
 103.6410799  81.8499296   7.6847839 103.4826718  81.1476547   6.3530197
  92.4749053  84.6937834  -5.9675595  92.6237174  85.3773298  -6.6208922
  93.2815497  84.6742924  -5.4526139 100.8816557  77.9980216   8.0591623
 101.7826420  77.8586681   7.7675621 100.9564531  78.1634671   8.9989800
  95.2159362  75.3747071   6.9044809  94.3462672  75.6680637   6.6327398
  95.4518843  75.9587516   7.6252073 105.0930991  84.4346230   6.9874338
 104.8015800  84.7976210   7.8237799 104.4803123  83.7213238   6.8087670
 106.2926674  81.9999109  -0.4923092 107.1273565  82.4388914  -0.3285532
 106.4285802  81.5237763  -1.3114846 103.3418180  79.5578844   5.4554396
 103.8172301  79.7506491   4.6473247 102.4183745  79.6138030   5.2097780
  90.2301686  80.7203012  -4.9614526  89.9847728  79.8165342  -4.7634316
  90.3997601  80.7220162  -5.9035048  97.9198396  71.5926688   4.4210230
  98.4380340  72.3287715   4.0956718  97.5653529  71.8990681   5.2556989
  89.4997334  76.4531369  -7.4628364  88.8066579  76.5275724  -8.1188328
  89.2549086  75.6891713  -6.9406847  98.1710990  68.0126970  -0.0588874
  98.4512744  67.3450159   0.5671553  98.9561597  68.2056066  -0.5714210
 102.0419849  76.4344604   3.6882701 102.9937271  76.5342702   3.7094925
 101.8723299  75.6422873   4.1980786 100.0634228  73.5200188   3.8742102
  99.4684160  73.8005200   3.1788591  99.7783925  74.0094089   4.6458843
 104.5207926  79.6550724   2.8025001 104.4884246  78.7166725   2.9884685
 105.1308550  79.7334761   2.0690826  96.3591257  78.5246777 -11.1547795
  97.3050362  78.3952985 -11.0859377  95.9805502  77.7861439 -10.6778367
 104.6702415  76.4461768   2.8483284 104.1541463  75.6620224   2.6613213
 105.5542363  76.1180484   3.0129804 102.3313142  70.1902783  -1.1920903
 102.1337963  69.8817871  -0.3077571 102.9412847  70.9164422  -1.0622973
 110.3384476  80.7166731   1.9431038 111.0687865  80.4552019   2.5038741
 109.7291422  79.9795453   1.9833106 108.4199773  78.8574594   2.5405489
 107.6932937  78.7230558   1.9321981 108.0047060  79.1651422   3.3462207
  96.2429950  82.5764523  10.3052862  97.1632959  82.7543122  10.4992909
  96.2079533  81.6320569  10.1532561  94.5434174  76.4496753 -11.2192910
  93.6365630  76.1529866 -11.1430196  94.8210155  76.1526572 -12.0858623
  85.4612115  77.7703117  -0.7693863  85.1414899  76.9168425  -1.0619489
  84.9145543  77.9851695  -0.0135896  89.2392022  80.4865558   2.9475643
  89.4578032  81.4182666   2.9663677  89.6517796  80.1273532   3.7330447
  96.1596240  70.9933643  -5.0648668  95.3496968  70.6480728  -4.6893422
  96.8480657  70.6841187  -4.4761057  98.0886788  70.0711690  -3.4424372
  98.6417827  70.4907143  -2.7834349  98.3256875  69.1447438  -3.4001416
  94.1119888  76.0598764  12.3378392  94.0116615  77.0093121  12.2690483
  93.8941430  75.7317003  11.4654462  93.3132959  73.3083689 -11.0780930
  94.1752123  73.6338587 -10.8185113  93.4983303  72.5215185 -11.5907865
  85.3300375  81.3906028   1.1999258  84.6363846  80.9759981   0.6869213
  86.0773366  81.4326565   0.6032677 101.4665595  72.1812215  -3.9345707
 100.8864265  72.8397019  -4.3167655 101.2001528  71.3589560  -4.3458290
  99.9169162  71.5817273  -1.7324387 100.4168940  71.6933807  -2.5410068
 100.5604770  71.2778326  -1.0923579  93.9751158  79.4895902  11.1543454
  93.4918239  80.2896263  11.3607343  94.0612097  79.5003847  10.2010898
  87.2437117  81.3224282  -0.9234727  87.2207805  81.4211969  -1.8752844
  87.5537754  82.1689433  -0.6017561  89.9024495  83.3800437   3.1911888
  90.8567749  83.3484380   3.1241819  89.7037019  82.9191061   4.0062114
  90.4923877  81.9501553   5.7582685  91.3116766  82.4445632   5.7817523
  90.7660685  81.0333521   5.7300253 100.2490473  74.3412306  -4.8789359
  99.3616329  74.6261956  -5.0969164 100.6644463  74.1806069  -5.7262082
 103.6005010  74.3658827  -1.1635020 104.3765400  74.8555279  -0.8910403
 102.8753144  74.7916881  -0.7063150 106.0377568  75.0786446  -0.1061079
 106.6322059  74.8382182  -0.8167771 106.1104152  74.3593576   0.5212457
  88.2574724  88.9220057   0.2082086  88.1229192  88.1620458  -0.3579916
  87.8406786  89.6460957  -0.2589126 100.2231497  79.8566841  -4.6639069
 100.1666699  80.3135393  -5.5031437 100.7759840  79.0957526  -4.8416226
 104.0336303  75.6456573  -3.8388950 103.7773237  75.2453209  -3.0080742
 103.4089171  76.3600367  -3.9638810 108.3448641  78.3852647  -1.3317658
 107.7848199  78.4545836  -0.5586096 107.7392144  78.2093631  -2.0518162
  91.4143850  89.8189374   0.4200528  91.2976234  90.7634806   0.3179218
  90.5936296  89.5162935   0.8086327 100.9566277  81.0471623  -7.3686540
 100.9015080  80.8815894  -8.3098096 100.3312332  81.7547656  -7.2124350
  85.7458792  76.2839687   6.4574882  86.3917655  75.7738641   6.9462108
  85.5375943  77.0208369   7.0318308  98.2712184  83.3520535  11.9567023
  99.1403343  83.5261187  11.5953658  97.7918935  84.1714951  11.8342752
  94.2662402  70.5479732  -7.7901221  94.2541072  71.4921572  -7.6332951
  95.1585824  70.3649877  -8.0841760  92.4398364  90.4717636   3.6356457
  93.3425611  90.5041246   3.9522952  92.2135734  89.5418087   3.6502792
  94.1951966  89.2248622   0.2966535  93.2447597  89.2250484   0.1830908
  94.4984452  88.4781357  -0.2197430  98.0814521  67.1422508  -3.5355285
  97.3146917  66.5880995  -3.3898602  98.4925226  67.2144377  -2.6741133
  90.0856283  73.4307304  10.5549897  90.9487744  73.0744109  10.7653221
  89.5121693  73.0921199  11.2425301 107.2214149  96.1671440   7.2560028
 107.2102789  95.7724239   6.3840532 107.3834788  95.4337513   7.8493799
 103.9421410  98.9508552   6.2039212 103.6511276  99.8554183   6.0885878
 104.5778394  98.9925080   6.9183281 112.4079775  86.4357422   3.7993093
 112.0763100  87.3052833   3.5754308 111.8125389  86.1193706   4.4787123
  99.7132587  94.7317038   0.0669499  99.8424969  94.9851517   0.9808911
  99.0330039  95.3244746  -0.2525846 106.3749305  92.5742153   8.8221340
 105.5982639  93.1336074   8.8124205 107.0139868  93.0598936   9.3436210
 114.1670085  89.3568946   2.6564317 113.5244465  89.6501479   2.0104111
 113.6625014  89.2421867   3.4617513 104.6295677  95.3827607   8.3839307
 105.3710361  95.9212651   8.1074131 103.9232662  96.0093896   8.5410859
 110.1051016  97.5256747   6.9811469 110.5134372  97.0839158   6.2366101
 109.3828278  96.9509375   7.2345661 106.4582087  92.4629354   4.3545026
 107.3043282  92.8868768   4.4979675 106.3980724  91.8062978   5.0483589
 109.6081532  90.1233722   6.0126199 109.3642464  90.8775783   5.4760475
 109.8841462  90.5019070   6.8473446 109.1646224  89.2790155   1.5940037
 108.3030703  89.5771409   1.8856774 109.1908658  89.4960554   0.6621070
 103.3657041  92.5367255   9.1854617 102.7355701  93.2183536   9.4190014
 103.2593128  92.4250337   8.2407755  98.6602013  92.2039051   0.1120541
  97.8701067  92.4596580  -0.3639348  99.1513260  93.0187389   0.2172582
 106.4422426  99.0928333   5.0186533 106.5066859  99.5548741   5.8544704
 105.7333350  98.4625698   5.1468842  96.9439716  92.4569541   2.5435532
  97.1947754  93.3416551   2.8093108  97.4799264  92.2774143   1.7710624
 102.6437783  86.8388021  11.5479868 102.2504729  86.2854219  12.2227512
 103.4603924  87.1498599  11.9386386 105.5605744  88.2545900   9.1400125
 106.3015458  88.8553053   9.0604587 105.7923667  87.5123538   8.5818167
 100.7047082  93.4402267   7.4178354 100.5900597  92.5387524   7.7185453
  99.8491600  93.6865964   7.0663171 107.7838920 101.3820007   9.0165855
 107.3402774 100.5956386   8.6986760 108.4456134 101.5699158   8.3509746
 106.3393212  99.1766937   7.8870765 106.8721549  98.4155225   7.6570073
 105.8107293  98.8840589   8.6294919 109.5062907  84.2827003   3.4164406
 109.1627177  85.1728645   3.3403517 109.8741870  84.0928660   2.5533991
 108.5859448  86.6531658   1.3813640 108.0824243  86.6161793   0.5681445
 108.8790054  87.5624401   1.4410296 104.8302334  86.7370388   0.3879821
 105.6955330  86.5413196   0.0285711 104.8979842  86.5080739   1.3149178
 102.4364653  88.9672596  -2.2403812 103.0108404  88.7447777  -2.9730619
 103.0235635  89.0361290  -1.4875211 104.7387320  85.8413845  -3.5128742
 104.0851733  85.5262862  -4.1372128 104.6967794  85.2189585  -2.7868919
 111.3050573  83.5420562  -1.4817856 111.6109450  82.6817925  -1.7691941
 112.0303178  84.1338182  -1.6818862 109.1138224  92.9193239   5.6163608
 109.4687612  93.1464712   6.4758074 109.7610355  93.2511616   4.9940863
 103.0078087  90.0269770   2.4009949 103.6477467  89.8858529   1.7032912
 102.1755618  89.7404284   2.0248551 101.4831629  91.4107853   4.3481760
 102.1554682  91.2025215   3.6994409 100.6561416  91.2129939   3.9086993
 107.3857201  88.0369793   6.3647421 106.7385116  88.7359743   6.2711898
 108.1558216  88.4705937   6.7323669 110.7935999  98.3018646   9.4397974
 110.6421505  98.0729197   8.5228058 110.7840678  99.2589247   9.4529319
 107.5621335  95.8750558   4.4244241 108.4913395  96.0261718   4.2513208
 107.1412365  95.9634579   3.5692887 101.8859126  94.6850456   5.1084197
 101.7478924  93.9530694   5.7095737 102.7964050  94.5959356   4.8268385
 104.5141427  94.3970415   4.5967877 105.2241046  93.7563607   4.5554496
 104.4710735  94.6483310   5.5194058 103.2270361  91.3835633   6.4163517
 102.6907718  90.9326371   7.0685113 102.6387069  91.5181542   5.6733981
  94.1574760  95.6301444  -0.9268513  94.8445800  95.3163174  -1.5147497
  94.0022889  96.5342808  -1.2001261  98.9609482  90.5191640   3.5016511
  98.8767671  89.9117310   2.7666921  98.1392189  91.0100659   3.5026007
 103.5457363 101.6060082   5.6913409 104.2466823 102.2396565   5.8442803
 103.0752478 101.9474813   4.9309048 111.5752191  85.9714797   1.0166065
 110.6615271  86.2019024   1.1848272 112.0045292  86.0553241   1.8680097
 107.3946222  94.9024500  10.0031996 106.7186859  94.8018630  10.6734371
 108.2173856  94.7463714  10.4667993  99.1425081 101.1396437   2.6244511
  99.7278518 100.3940125   2.7572416  98.9449920 101.4500394   3.5081175
  93.7342736  93.7102037   1.3448955  93.7726836  93.1765628   2.1386073
  93.2283029  93.1837243   0.7259932 101.1133498  88.5566578   4.8411497
 101.1774825  89.4181409   4.4288895 101.0500619  87.9440579   4.1083855
 100.5885771  90.6289710   8.4884531 101.2157810  90.2466788   9.1022055
  99.7313690  90.4103912   8.8540224 110.9879880 101.0352685  10.0938267
 111.5319784 101.6482644   9.5993221 110.4066724 101.5932264  10.6105280
 100.8945561  90.5122136   0.4030434 100.1732147  91.1258104   0.2637908
 101.6838817  91.0479901   0.3247080 103.6971874  87.8476562   6.6771086
 104.2206276  88.0938859   7.4397396 103.4784208  88.6796597   6.2574224
 104.9024419  88.7890258   4.3620757 104.5621240  87.9898071   4.7641437
 104.1963426  89.0891968   3.7897590 105.5540891  85.8739570   2.8148080
 106.3766960  85.4000048   2.6926970 105.7978955  86.6530054   3.3146766
 103.0779470  92.5658691   0.6240058 102.9324051  92.8798994   1.5164340
 102.6004674  93.1843591   0.0710957 104.9375853  89.5561239   0.6720948
 104.9237422  88.6602332   0.3353246 105.6548281  89.5631902   1.3059234
 106.7901984  89.9898579   2.7174075 106.5319761  90.9115649   2.7158406
 106.2587024  89.5929013   3.4074540  97.5525132  95.1064035   3.5627720
  97.0078600  95.8823843   3.6947994  98.4304482  95.4534839   3.4046841
 107.2103939  86.1230529  -0.9224762 107.2325636  86.1869862  -1.8772782
 107.6271998  85.2835038  -0.7284256  98.3391154  94.2333931   6.4557876
  97.5972890  94.3816567   7.0422507  98.0183898  94.4942197   5.5924626
 103.8253828  89.9507616  10.1498451 103.8741984  90.8269739   9.7676220
 104.3676342  89.4085009   9.5770094 114.3108674 100.4948739   9.4299588
 113.5204218 100.4772878   8.8904087 114.0742029 101.0337033  10.1848624
 114.4306549  97.3441206   6.7432316 114.4804554  97.1791213   7.6847839
 114.3220472  96.4768465   6.3530197 111.7210311  93.3272134   8.0591623
 112.6220174  93.1878599   7.7675621 111.7958286  93.4926589   8.9989800
 106.0553117  90.7038989   6.9044809 105.1856426  90.9972555   6.6327398
 106.2912597  91.2879434   7.6252073 108.7592151  86.9218606   4.4210230
 109.2774094  87.6579632   4.0956718 108.4047283  87.2282599   5.2556989
 109.0104745  83.3418888  -0.0588874 109.2906498  82.6742077   0.5671553
 109.7955352  83.5347984  -0.5714210 112.8813603  91.7636522   3.6882701
 113.8331026  91.8634620   3.7094925 112.7117053  90.9714791   4.1980786
 110.9027983  88.8492105   3.8742102 110.3077915  89.1297118   3.1788591
 110.6177679  89.3386006   4.6458843 107.0823704  97.9056441  10.3052862
 108.0026714  98.0835040  10.4992909 107.0473287  96.9612486  10.1532561
  96.3005869  93.0995035  -0.7693863  95.9808654  92.2460343  -1.0619489
  95.7539297  93.3143613  -0.0135896 100.0785777  95.8157476   2.9475643
 100.2971787  96.7474583   2.9663677 100.4911551  95.4565450   3.7330447
 104.9513642  91.3890681  12.3378392 104.8510369  92.3385038  12.2690483
 104.7335184  91.0608920  11.4654462  96.1694129  96.7197946   1.1999258
  95.4757601  96.3051899   0.6869213  96.9167120  96.7618483   0.6032677
 104.8144912  94.8187820  11.1543454 104.3311994  95.6188180  11.3607343
 104.9005851  94.8295765  10.2010898 100.7418250  98.7092355   3.1911888
 101.6961503  98.6776297   3.1241819 100.5430773  98.2482979   4.0062114
 101.3317632  97.2793471   5.7582685 102.1510521  97.7737550   5.7817523
 101.6054439  96.3625439   5.7300253  96.5852546  91.6131605   6.4574882
  97.2311410  91.1030559   6.9462108  96.3769697  92.3500286   7.0318308
 109.1105938  98.6812452  11.9567023 109.9797098  98.8553105  11.5953658
 108.6312690  99.5006869  11.8342752 108.9208276  82.4714426  -3.5355285
 108.1540672  81.9172913  -3.3898602 109.3318981  82.5436295  -2.6741133
 100.9250037  88.7599222  10.5549897 101.7881499  88.4036027  10.7653221
 100.3515448  88.4213117  11.2425301 113.4831538 102.1679938  11.5479868
 113.0898483 101.6146137  12.2227512 114.2997678 102.4790517  11.9386386
 111.7643792 104.0891140  10.5549897 112.6275253 103.7327944  10.7653221
 111.1909202 103.7505034  11.2425301  96.3820395  57.8441645  -6.0194666
  96.3709036  57.4494444  -6.8914162  96.5441035  57.1107718  -5.4260894
  93.1027657  60.6278757  -7.0715482  92.8117523  61.5324388  -7.1868815
  93.7384641  60.6695285  -6.3571412  98.0617542  60.3140173 -10.0765688
  97.7618265  61.2165211 -10.1849881  97.7168601  60.0472356  -9.2244535
  95.5355551  54.2512358  -4.4533353  94.7588885  54.8106278  -4.4630489
  96.1746114  54.7369141  -3.9318483  93.7901924  57.0597812  -4.8915386
  94.5316608  57.5982856  -5.1680563  93.0838909  57.6864100  -4.7343834
  99.2657263  59.2026952  -6.2943225  99.6740619  58.7609363  -7.0388592
  98.5434525  58.6279580  -6.0409032  95.6188333  54.1399559  -8.9209668
  96.4649528  54.5638973  -8.7775019  95.5586971  53.4833183  -8.2271105
  99.5886078  59.7628143 -12.5390936  98.9594940  59.9273857 -13.2414868
  99.2011740  60.1769752 -11.7679972 103.4675310  60.6982581 -15.1846572
 102.7826348  61.0781482 -15.7349539 103.5519159  61.3077907 -14.4514624
  98.7687779  51.8003927  -7.2628494  98.5248710  52.5545988  -7.7994219
  99.0447709  52.1789275  -6.4281247 100.7226241  58.3442540  -8.5851229
 100.9343137  58.9874300  -9.2616848 100.6755990  57.5104856  -9.0529299
  92.5263287  54.2137460  -4.0900076  91.8961948  54.8953741  -3.8564679
  92.4199375  54.1020541  -5.0346938 101.8372069  61.2214495 -10.4128871
 102.6589513  60.8194682 -10.6946190 101.8334472  61.1182729  -9.4612755
  95.6028673  60.7698538  -8.2568161  95.6673105  61.2318946  -7.4209989
  94.8939597  60.1395903  -8.1285851  91.8044030  48.5158226  -1.7274825
  91.4110976  47.9624424  -1.0527181  92.6210170  48.8268804  -1.3368308
  94.7211991  49.9316105  -4.1354569  95.4621704  50.5323258  -4.2150106
  94.9529914  49.1893743  -4.6936526  89.8653329  55.1172472  -5.8576339
  89.7506844  54.2157729  -5.5569240  89.0097847  55.3636169  -6.2091522
  96.9445167  63.0590212  -4.2588838  96.5009021  62.2726591  -4.5767934
  97.6062380  63.2469363  -4.9244948  91.7032288  64.5886014  -9.7328160
  92.2539713  64.4603077 -10.5051166  90.8643764  64.8880903 -10.0833267
  99.0426405  63.3393012  -6.2307437  99.0244880  64.1601893  -6.7227168
  99.9646325  63.2147088  -6.0057296  95.4999459  60.8537142  -5.3883929
  96.0327796  60.0925430  -5.6184621  94.9713540  60.5610794  -4.6459774
 101.8445018  58.1772155 -12.7598070 101.1868692  58.8671416 -12.6717942
 102.6485417  58.5668587 -12.4164084  99.8645212  63.3499026 -15.6465168
 100.1568186  63.9104083 -16.3652802 100.3743833  63.6427587 -14.8912009
  98.2744471  54.5963444  -7.6591085  98.6293859  54.8234917  -6.7996620
  98.9216602  54.9281821  -8.2813830 104.0311588  59.7858407 -11.9430485
 104.4648094  59.6933696 -11.0947431 104.7443168  59.7615908 -12.5810469
  97.7639482  63.3860501 -10.4097384  97.8176505  63.9551438  -9.6419668
  96.8954264  63.5562386 -10.7743347 104.8927137  59.8282108  -9.4097600
 105.0863027  60.7327918  -9.1638325 104.7927755  59.3689527  -8.5759014
  96.5463448  49.7139998  -6.9107272  95.8991363  50.4129948  -7.0042796
  97.3164463  50.1476142  -6.5431024  99.9542246  59.9788851  -3.8356719
  99.8027752  59.7499402  -4.7526635  99.9446925  60.9359452  -3.8225374
  96.7227582  57.5520763  -8.8510452  97.6519642  57.7031923  -9.0241485
  96.3018612  57.6404784  -9.7061806  95.5215914  61.5771428 -11.0811915
  95.3827000  61.2090212 -10.2085977  94.7330510  62.0919067 -11.2527957
  91.0465373  56.3620660  -8.1670496  90.9085171  55.6300899  -7.5658957
  91.9570297  56.2729561  -8.4486308  93.6747674  56.0740620  -8.6786816
  94.3847292  55.4333812  -8.7200198  93.6316982  56.3253515  -7.7560635
 101.6634452  63.0107973  -5.7580237 101.6046999  62.3267193  -6.4249654
 102.0653971  63.7526963  -6.2099611  90.6825151  69.8269887 -12.9646518
  90.9221749  70.4588411 -12.2867500  89.8394348  69.4757927 -12.6781159
 101.6651860  60.9747557  -7.5266257 100.7778638  60.6373479  -7.4039859
 102.2350411  60.2430588  -7.2897492  95.1953013  65.6349009 -10.5605014
  95.1223185  66.4403981 -10.0485710  94.7530406  65.8340975 -11.3856993
 106.1469200  56.3855774 -12.7649696 106.1359076  57.2680490 -13.1355763
 105.2786580  56.0327325 -12.9595159  97.6551697  65.5335843  -8.4046856
  98.3679669  66.1683308  -8.4770954  97.1641725  65.6299709  -9.2206854
  92.7063610  63.2830287  -7.5841285  93.4073070  63.9166770  -7.4311890
  92.2358725  63.6245018  -8.3445645 100.5064896  55.8374894  -9.7588734
  99.8536346  56.0850802 -10.4136282 100.8845276  55.0239033 -10.0926257
  97.4672070  65.8734587 -15.6560564  97.6494465  65.0556243 -15.1932812
  98.2905056  66.0902280 -16.0935674  96.5552469  56.5794705  -3.2722697
  95.8793106  56.4788835  -2.6020322  97.3780103  56.4233919  -2.8086700
  88.3031328  62.8166642 -10.6510182  88.8884765  62.0710330 -10.5182278
  88.1056167  63.1270599  -9.7673518  95.2975252  67.8861633  -9.0365081
  95.8493560  68.0493254  -8.2715996  95.6381445  68.4766071  -9.7085056
  89.7492018  52.3059915  -4.7870162  90.3764057  51.9236992  -4.1732638
  88.8919937  52.0874117  -4.4214470 100.1486126  62.7122890  -3.1816427
 100.6926030  63.3252849  -3.6761472  99.5672971  63.2702469  -2.6649414
  98.4343639  65.8343608 -12.0501399  98.3094779  65.0333348 -12.5590454
  99.0922730  66.3289802 -12.5387429 100.4978548  63.6352628 -10.4221849
  99.5508883  63.5157980 -10.4943522 100.8461321  62.7475126 -10.3395588
  97.5024981  63.4305345 -14.2217497  97.3549943  62.5022052 -14.0409927
  98.3278474  63.4525435 -14.7060422 101.1059103  64.2533903 -13.1352624
 102.0305650  64.0476765 -13.2728173 100.9374406  64.0050305 -12.2263283
  95.4441063  65.4520114  -7.0216427  95.7528190  65.2069261  -6.1493727
  96.2416545  65.6566753  -7.5097557  95.4661675  67.6058024 -14.7911050
  95.0266666  67.1134403 -14.0978194  96.2169792  67.0630992 -15.0318975
  92.9860075  51.6277821  -3.1256243  93.0348230  52.5039944  -3.5078473
  93.5282589  51.0855214  -3.6984599 103.4714921  62.1718944  -3.8455106
 102.6810464  62.1543083  -4.3850606 103.2348275  62.7107238  -3.0906069
 103.5912796  59.0211411  -6.5322377 103.6410801  58.8561418  -5.5906854
 103.4826719  58.1538670  -6.9224496 100.8816558  55.0042339  -5.2163070
 101.7826421  54.8648804  -5.5079073 100.9564533  55.1696794  -4.2764893
  95.2159363  52.3809194  -6.3709884  94.3462673  52.6742760  -6.6427295
  95.4518844  52.9649639  -5.6502620 105.0930993  61.4408352  -6.2880355
 104.8015801  61.8038333  -5.4516895 104.4803124  60.7275361  -6.4667023
 106.2926675  59.0061232 -13.7677785 107.1273566  59.4451036 -13.6040225
 106.4285804  58.5299885 -14.5869539 103.3418181  56.5640967  -7.8200298
 103.8172302  56.7568613  -8.6281446 102.4183746  56.6200153  -8.0656914
 102.0419850  53.4406727  -9.5871992 102.9937273  53.5404825  -9.5659768
 101.8723300  52.6484996  -9.0773908 104.5207928  56.6612847 -10.4729692
 104.4884248  55.7228847 -10.2870008 105.1308551  56.7396883 -11.2063867
 104.6702416  53.4523890 -10.4271409 104.1541465  52.6682347 -10.6141480
 105.5542365  53.1242607 -10.2624890 110.3384477  57.7228854 -11.3323655
 111.0687866  57.4614142 -10.7715952 109.7291423  56.9857575 -11.2921587
 108.4199775  55.8636716 -10.7349204 107.6932938  55.7292681 -11.3432713
 108.0047061  56.1713545  -9.9292486  96.2429951  59.5826646  -2.9701831
  97.1632960  59.7605245  -2.7761785  96.2079534  58.6382691  -3.1222132
  94.1119889  53.0660886  -0.9376301  94.0116616  54.0155243  -1.0064210
  93.8941431  52.7379125  -1.8100231  93.9751159  56.4958025  -2.1211239
  93.4918241  57.2958385  -1.9147350  94.0612098  56.5065970  -3.0743796
  89.9024496  60.3862560 -10.0842806  90.8567750  60.3546502 -10.1512874
  89.7037020  59.9253184  -9.2692580  90.4923879  58.9563676  -7.5172008
  91.3116768  59.4507754  -7.4937171  90.7660686  58.0395644  -7.5454441
  91.4143851  66.8251496 -12.8554165  91.2976235  67.7696929 -12.9575475
  90.5936297  66.5225058 -12.4668366  98.2712185  60.3582657  -1.3187670
  99.1403345  60.5323309  -1.6801035  97.7918936  61.1777074  -1.4411941
  92.4398365  67.4779758  -9.6398237  93.3425612  67.5103368  -9.3231742
  92.2135735  66.5480209  -9.6251901  94.1951967  66.2310745 -12.9788158
  93.2447598  66.2312606 -13.0923786  94.4984453  65.4843479 -13.4952124
  90.0856284  50.4369427  -2.7204797  90.9487745  50.0806232  -2.5101472
  89.5121694  50.0983322  -2.0329392 107.2214150  73.1733563  -6.0194666
 107.2102791  72.7786361  -6.8914162 107.3834789  72.4399636  -5.4260894
 103.9421411  75.9570675  -7.0715482 103.6511277  76.8616306  -7.1868815
 104.5778395  75.9987202  -6.3571412 112.4079777  63.4419544  -9.4761601
 112.0763101  64.3114955  -9.7000386 111.8125390  63.1255828  -8.7967570
  99.7132589  71.7379161 -13.2085194  99.8424970  71.9913640 -12.2945783
  99.0330040  72.3306869 -13.5280539 106.3749306  69.5804276  -4.4533353
 105.5982640  70.1398196  -4.4630489 107.0139869  70.0661059  -3.9318483
 114.1670086  66.3631069 -10.6190377 113.5244467  66.6563602 -11.2650582
 113.6625015  66.2483989  -9.8137180 104.6295678  72.3889729  -4.8915386
 105.3710362  72.9274773  -5.1680563 103.9232664  73.0156018  -4.7343834
 110.1051018  74.5318870  -6.2943225 110.5134374  74.0901280  -7.0388592
 109.3828279  73.9571497  -6.0409032 106.4582088  69.4691477  -8.9209668
 107.3043283  69.8930890  -8.7775019 106.3980725  68.8125101  -8.2271105
 109.6081533  67.1295845  -7.2628494 109.3642465  67.8837906  -7.7994219
 109.8841464  67.5081193  -6.4281247 109.1646225  66.2852278 -11.6814656
 108.3030704  66.5833532 -11.3897919 109.1908659  66.5022677 -12.6133624
 103.3657042  69.5429378  -4.0900076 102.7355702  70.2245658  -3.8564679
 103.2593130  69.4312459  -5.0346938  98.6602014  69.2101174 -13.1634152
  97.8701068  69.4658702 -13.6394041  99.1513262  70.0249511 -13.0582112
 106.4422427  76.0990456  -8.2568161 106.5066860  76.5610863  -7.4209989
 105.7333351  75.4687821  -8.1285851  96.9439717  69.4631664 -10.7319161
  97.1947756  70.3478674 -10.4661585  97.4799266  69.2836266 -11.5044069
 102.6437785  63.8450143  -1.7274825 102.2504730  63.2916342  -1.0527181
 103.4603925  64.1560722  -1.3368308 105.5605746  65.2608023  -4.1354569
 106.3015459  65.8615176  -4.2150106 105.7923668  64.5185660  -4.6936526
 100.7047084  70.4464390  -5.8576339 100.5900599  69.5449647  -5.5569240
  99.8491601  70.6928087  -6.2091522 107.7838921  78.3882130  -4.2588838
 107.3402775  77.6018509  -4.5767934 108.4456135  78.5761281  -4.9244948
 106.3393214  76.1829059  -5.3883929 106.8721550  75.4217348  -5.6184621
 105.8107295  75.8902711  -4.6459774 109.5062908  61.2889125  -9.8590287
 109.1627178  62.1790767  -9.9351176 109.8741871  61.0990783 -10.7220702
 108.5859449  63.6593781 -11.8941054 108.0824244  63.6223916 -12.7073248
 108.8790056  64.5686523 -11.8344397 104.8302335  63.7432510 -12.8874872
 105.6955332  63.5475319 -13.2468983 104.8979844  63.5142862 -11.9605515
 102.4364654  65.9734718 -15.5158505 103.0108406  65.7509900 -16.2485312
 103.0235636  66.0423413 -14.7629904 104.7387322  62.8475967 -16.7883436
 104.0851734  62.5324984 -17.4126821 104.6967796  62.2251708 -16.0623613
 109.1138225  69.9255362  -7.6591085 109.4687613  70.1526835  -6.7996620
 109.7610357  70.2573739  -8.2813830 103.0078089  67.0331893 -10.8744744
 103.6477468  66.8920652 -11.5721781 102.1755619  66.7466406 -11.2506142
 101.4831630  68.4169975  -8.9272933 102.1554684  68.2087337  -9.5760284
 100.6561417  68.2192061  -9.3667701 107.3857202  65.0431916  -6.9107272
 106.7385117  65.7421866  -7.0042796 108.1558218  65.4768060  -6.5431024
 110.7936000  75.3080768  -3.8356719 110.6421507  75.0791320  -4.7526635
 110.7840680  76.2651370  -3.8225374 107.5621337  72.8812681  -8.8510452
 108.4913397  73.0323841  -9.0241485 107.1412367  72.9696702  -9.7061806
 101.8859128  71.6912578  -8.1670496 101.7478926  70.9592817  -7.5658957
 102.7964051  71.6021478  -8.4486308 104.5141428  71.4032537  -8.6786816
 105.2241047  70.7625730  -8.7200198 104.4710736  71.6545432  -7.7560635
 103.2270362  68.3897755  -6.8591177 102.6907719  67.9388494  -6.2069580
 102.6387071  68.5243664  -7.6020712  94.1574761  72.6363566 -14.2023206
  94.8445801  72.3225296 -14.7902191  94.0022890  73.5404931 -14.4755955
  98.9609483  67.5253763  -9.7738182  98.8767672  66.9179433 -10.5087772
  98.1392190  68.0162781  -9.7728686 103.5457365  78.6122205  -7.5841285
 104.2466824  79.2458688  -7.4311890 103.0752480  78.9536936  -8.3445645
 111.5752192  62.9776920 -12.2588628 110.6615272  63.2081147 -12.0906421
 112.0045294  63.0615364 -11.4074596 107.3946224  71.9086623  -3.2722697
 106.7186861  71.8080752  -2.6020322 108.2173858  71.7525837  -2.8086700
  99.1425083  78.1458560 -10.6510182  99.7278520  77.4002247 -10.5182278
  98.9449921  78.4562516  -9.7673518  93.7342737  70.7164160 -11.9305739
  93.7726837  70.1827750 -11.1368621  93.2283030  70.1899365 -12.5494762
 101.1133500  65.5628700  -8.4343197 101.1774826  66.4243531  -8.8465799
 101.0500620  64.9502702  -9.1670838 100.5885772  67.6351833  -4.7870162
 101.2157811  67.2528910  -4.1732638  99.7313691  67.4166035  -4.4214470
 110.9879881  78.0414808  -3.1816427 111.5319785  78.6544766  -3.6761472
 110.4066726  78.5994386  -2.6649414 100.8945562  67.5184259 -12.8724259
 100.1732148  68.1320226 -13.0116786 101.6838818  68.0542023 -12.9507613
 103.6971876  64.8538685  -6.5983607 104.2206277  65.1000982  -5.8357298
 103.4784209  65.6858720  -7.0180470 104.9024421  65.7952380  -8.9133937
 104.5621241  64.9960193  -8.5113257 104.1963427  66.0954091  -9.4857103
 105.5540892  62.8801693 -10.4606614 106.3766962  62.4062171 -10.5827723
 105.7978956  63.6592176  -9.9607927 103.0779471  69.5720813 -12.6514635
 102.9324052  69.8861116 -11.7590353 102.6004675  70.1905714 -13.2043736
 104.9375854  66.5623361 -12.6033745 104.9237423  65.6664454 -12.9401447
 105.6548282  66.5694025 -11.9695459 106.7901985  66.9960701 -10.5580618
 106.5319763  67.9177772 -10.5596288 106.2587025  66.5991136  -9.8680154
  97.5525133  72.1126158  -9.7126974  97.0078601  72.8885966  -9.5806699
  98.4304483  72.4596962  -9.8707852 107.2103940  63.1292652 -14.1979455
 107.2325637  63.1931985 -15.1527476 107.6271999  62.2897161 -14.0038949
  98.3391155  71.2396054  -6.8196817  97.5972891  71.3878689  -6.2332186
  98.0183899  71.5004319  -7.6830067 103.8253830  66.9569739  -3.1256243
 103.8741985  67.8331862  -3.5078473 104.3676344  66.4147132  -3.6984599
 114.3108675  77.5010862  -3.8455106 113.5204219  77.4835001  -4.3850606
 114.0742030  78.0399156  -3.0906069 114.4306550  74.3503328  -6.5322377
 114.4804555  74.1853336  -5.5906854 114.3220474  73.4830587  -6.9224496
 111.7210313  70.3334256  -5.2163070 112.6220175  70.1940721  -5.5079073
 111.7958287  70.4988711  -4.2764893 106.0553118  67.7101111  -6.3709884
 105.1856427  68.0034677  -6.6427295 106.2912598  68.2941556  -5.6502620
 108.7592152  63.9280728  -8.8544464 109.2774096  64.6641755  -9.1797975
 108.4047285  64.2344721  -8.0197704 109.0104746  60.3481011 -13.3343567
 109.2906500  59.6804200 -12.7083140 109.7955353  60.5410106 -13.8468903
 112.8813604  68.7698645  -9.5871992 113.8331027  68.8696742  -9.5659768
 112.7117055  67.9776913  -9.0773908 110.9027984  65.8554228  -9.4012591
 110.3077916  66.1359241 -10.0966102 110.6177680  66.3448129  -8.6295850
 107.0823705  74.9118563  -2.9701831 108.0026715  75.0897162  -2.7761785
 107.0473289  73.9674609  -3.1222132  96.3005870  70.1057157 -14.0448557
  95.9808655  69.2522465 -14.3374183  95.7539299  70.3205735 -13.2890589
 100.0785778  72.8219598 -10.3279050 100.2971788  73.7536706 -10.3091016
 100.4911552  72.4627573  -9.5424246 104.9513643  68.3952804  -0.9376301
 104.8510370  69.3447161  -1.0064210 104.7335185  68.0671043  -1.8100231
  96.1694130  73.7260069 -12.0755435  95.4757602  73.3114021 -12.5885481
  96.9167121  73.7680605 -12.6722016 104.8144913  71.8249943  -2.1211239
 104.3311995  72.6250303  -1.9147350 104.9005852  71.8357888  -3.0743796
 100.7418251  75.7154477 -10.0842806 101.6961504  75.6838420 -10.1512874
 100.5430774  75.2545101  -9.2692580 101.3317633  74.2855593  -7.5172008
 102.1510522  74.7799672  -7.4937171 101.6054441  73.3687562  -7.5454441
  96.5852547  68.6193727  -6.8179811  97.2311411  68.1092681  -6.3292586
  96.3769698  69.3562409  -6.2436386 109.1105939  75.6874575  -1.3187670
 109.9797099  75.8615227  -1.6801035 108.6312691  76.5068992  -1.4411941
 100.9250038  65.7661344  -2.7204797 101.7881500  65.4098149  -2.5101472
 100.3515449  65.4275239  -2.0329392 113.4831539  79.1742061  -1.7274825
 113.0898485  78.6208260  -1.0527181 114.2997679  79.4852640  -1.3368308
 111.7643793  81.0953262  -2.7204797 112.6275254  80.7390067  -2.5101472
 111.1909203  80.7567157  -2.0329392   1.5340507 134.2112839  92.1393644
   0.7804216 133.6420237  91.9837648   1.6688049 134.1775504  93.0864279
   1.9446922 134.3688449  94.8713888   2.6750311 134.1073737  95.4321592
   1.3353868 133.6317171  94.9115956   1.5340509 111.2174962  78.8638951
   0.7804217 110.6482360  78.7082955   1.6688050 111.1837626  79.8109585
   1.9446924 111.3750572  81.5959195   2.6750312 111.1135860  82.1566898
   1.3353869 110.6379294  81.6361263   1.5367107 125.7193001  81.0140455
   2.1745517 125.5999749  80.3103795   1.4187950 126.6673845  81.0728407
   1.0908375 123.4444455  78.0893663   1.8771465 123.0263878  77.7384080
   1.3547080 124.3490547  78.2575311   1.2618453 128.8817305  72.7882320
   0.6264286 128.9551932  73.5003224   0.9315859 129.4710904  72.1101399
   6.4916803 123.3819688  78.9926641   7.2241975 122.8118905  79.2264471
   5.7356158 122.9941289  79.4333147   4.0142223 117.0941262  83.4521250
   3.6825548 117.9636673  83.2282465   3.4187836 116.7777546  84.1315280
   3.9070886 121.8136349  80.5314600   2.9987764 121.7451757  80.2373361
   3.8558482 122.2908293  81.3596425   5.7732533 120.0152787  82.3092474
   5.1306913 120.3085320  81.6632268   5.2687461 119.9005707  83.1145671
   3.4272696 123.7615960  72.9978333   4.3390552 123.9943347  72.8226031
   2.9182343 124.3453004  72.4353412   1.7113464 128.1840588  86.6339626
   2.1196820 127.7422998  85.8894258   0.9890726 127.6093215  86.8873819
   2.0342279 128.7441779  80.3891915   1.4051141 128.9087493  79.6867982
   1.6467941 129.1583388  81.1602879   5.9131511 129.6796216  77.7436278
   5.2282549 130.0595118  77.1933312   5.9975360 130.2891543  78.4768226
   1.2143979 120.7817563  85.6654356   0.9704911 121.5359624  85.1288632
   1.4903910 121.1602911  86.5001603   3.1682442 127.3256175  84.3431622
   3.3799337 127.9687935  83.6666003   3.1212190 126.4918492  83.8753552
   4.2828270 130.2028131  82.5153979   5.1045714 129.8008318  82.2336661
   4.2790673 130.0996365  83.4670095  12.3734263 126.5466879  78.8638951
  11.6197972 125.9774277  78.7082955  12.5081804 126.5129544  79.8109585
   1.4882606 132.3206648  86.6975413   1.4701081 133.1415529  86.2055683
   2.4102526 132.1960723  86.9225555   1.1125355 114.9410844  83.0692563
   0.7689624 115.8312485  82.9931674   1.4804317 114.7512501  82.2062148
   1.0775638 124.9319455  71.5764999   0.5622261 125.7024059  71.8153386
   0.8052946 124.2584591  72.1998060   6.0509912 127.6851809  73.5118172
   5.2739354 127.3462969  73.0673334   6.7301393 127.6904432  72.8373137
   0.8661941 122.8046547  73.4024780   0.5612076 123.1192696  74.2534923
   1.8192383 122.8827967  73.4452113   4.2901219 127.1585791  80.1684780
   3.6324893 127.8485052  80.2564909   5.0941618 127.5482222  80.5118766
   3.1006677 125.5130163  78.2188722   3.6138559 126.1460155  78.7210432
   3.7507901 124.9131359  77.8532082   3.8668474 130.4936165  76.3467864
   3.4130801 129.6527075  76.4033055   3.2362440 131.1297563  76.6842645
   2.8101393 121.4228151  77.5768532   2.0724150 120.9105537  77.9078774
   3.0628167 120.9828532  76.7651809   2.3101413 132.3312661  77.2817683
   2.6024387 132.8917718  76.5630048   2.8200033 132.6241222  78.0370842
   2.9113020 114.2004403  78.1710301   3.2171897 113.3401766  77.8836216
   3.6365625 114.7922023  77.9709295   0.7200672 123.5777080  85.2691765
   1.0750060 123.8048553  86.1286231   1.3672803 123.9095457  84.6469020
   6.4498409 126.6995516  75.9741094   6.3116307 126.8897112  75.0462283
   6.0934628 127.4614899  76.4309145   6.4767788 128.7672043  80.9852366
   6.9104295 128.6747332  81.8335420   7.1899369 128.7429543  80.3472382
   7.3383338 128.8095744  83.5185251   7.5319228 129.7141554  83.7644526
   7.2383956 128.3503163  84.3523836   2.3998447 128.9602486  89.0926132
   2.2483953 128.7313038  88.1756215   2.3903126 129.9173088  89.1057477
   2.4536522 127.2822701  69.5096833   1.8365692 126.5569529  69.4129886
   1.9853010 128.0432061  69.1663907   4.1090653 131.9921609  87.1702613
   4.0503199 131.3080829  86.5033196   4.5110172 132.7340599  86.7183239
   4.1108060 129.9561193  85.4016593   3.2234839 129.6187115  85.5242992
   4.6806612 129.2244224  85.6385358   8.5925401 125.3669410  80.1633155
   8.5815277 126.2494126  79.7927088   7.7242780 125.0140961  79.9687692
   1.8225424 128.4200732  76.0953287   0.8881703 128.5402194  75.9257991
   2.0002093 127.5173199  75.8313296   5.2097976 124.2618051  76.6303321
   5.6758428 125.0946043  76.5563623   5.6605476 123.7963033  77.3348579
   3.2774207 130.6061872  73.6289473   3.5534051 130.4918467  74.5383347
   2.4078706 130.2079357  73.5901646   3.1814638 116.6298638  80.6694222
   2.2677718 116.8602865  80.8376429   3.6107740 116.7137082  81.5208254
   2.9521097 124.8188530  83.1694116   2.2992547 125.0664438  82.5146569
   3.3301477 124.0052668  82.8356593   2.5942327 131.6936526  89.7466424
   3.1382231 132.3066484  89.2521378   2.0129172 132.2516105  90.2633437
   0.8799840 134.8157244  80.8781451   0.7550980 134.0146984  80.3692397
   1.5378931 135.3103437  80.3895421   2.9434748 132.6166264  82.5061001
   1.9965084 132.4971615  82.4339328   3.2917522 131.7288762  82.5887263
   3.5515304 133.2347539  79.7930226   4.4761851 133.0290400  79.6554678
   3.3830607 132.9863940  80.7019568   3.3410620 133.7533207  75.1492318
   3.5147497 133.1879629  74.3966170   3.8339511 134.5534101  74.9671808
   9.1950011 126.5169630  76.7682618   9.6381157 125.7676955  76.3701741
   8.3176521 126.5079766  76.3856350   4.3285792 133.0699971  72.2489216
   5.0236697 133.6906664  72.4676531   4.6708942 132.2195322  72.5241594
   6.2277215 130.5199677  73.7776547   6.7528540 130.8586949  73.0525867
   6.1399568 129.5846692  73.5939682   5.9171121 131.1532580  89.0827745
   5.1266665 131.1356719  88.5432244   5.6804476 131.6920874  89.8376781
   6.0368997 128.0025047  86.3960473   6.0867001 127.8375054  87.3375996
   5.9282920 127.1352306  86.0058354   3.3272759 123.9855975  87.7119780
   4.2282622 123.8462439  87.4203778   3.4020733 124.1510429  88.6517958
   7.5387193 130.4221988  86.6402495   7.2472002 130.7851969  87.4765956
   6.9259325 129.7088996  86.4615827   8.7382876 127.9874868  79.1605065
   9.5729767 128.4264672  79.3242626   8.8742004 127.5113521  78.3413311
   5.7874382 125.5454603  85.1082553   6.2628503 125.7382249  84.3001404
   4.8639947 125.6013789  84.8625937   0.6167192 114.0002729  79.5939283
   0.8968946 113.3325918  80.2199710   1.4017799 114.1931824  79.0813947
   4.4876051 122.4220363  83.3410859   5.4393474 122.5218460  83.3623083
   4.3179501 121.6298631  83.8508943   2.5090430 119.5075946  83.5270259
   1.9140362 119.7880959  82.8316748   2.2240127 119.9969847  84.2987001
   1.6397921 133.4598873  72.2872892   2.5728594 133.3944435  72.4905768
   1.5521133 134.2955140  71.8287425   4.2685937 132.7764743  69.2476840
   4.1899569 132.4424607  70.1412597   5.0895604 133.2686511  69.2468312
   6.9664128 125.6426482  82.4553158   6.9340449 124.7042483  82.6412842
   7.5764752 125.7210519  81.7218983   7.1158617 122.4337526  82.5011441
   6.5997666 121.6495983  82.3141370   7.9998565 122.1056243  82.6657961
   4.7769344 116.1778541  78.4607254   4.5794165 115.8693630  79.3450586
   5.3869049 116.9040180  78.5905184  12.7840678 126.7042489  81.5959195
  13.5144067 126.4427777  82.1566898  12.1747624 125.9671211  81.6361263
  10.8655975 124.8450352  82.1933646  10.1389139 124.7106317  81.5850138
  10.4503262 125.1527181  82.9990364   0.5342990 116.0587448  76.2103785
   1.0874029 116.4782902  76.8693809   0.7713077 115.1323196  76.2526741
   3.9121798 118.1687974  75.7182450   3.3320467 118.8272778  75.3360502
   3.6457730 117.3465318  75.3069867   2.3625364 117.5693031  77.9203770
   2.8625142 117.6809566  77.1118089   3.0060972 117.2654084  78.5604578
   2.6946676 120.3288064  74.7738798   1.8072531 120.6137715  74.5558993
   3.1100665 120.1681827  73.9266075   6.0461212 120.3534585  78.4893137
   6.8221602 120.8431037  78.7617754   5.3209346 120.7792639  78.9465007
   8.4833770 121.0662204  79.5467078   9.0778261 120.8257940  78.8360386
   8.5560354 120.3469335  80.1740614   1.8389889 130.0932739  68.8686818
   2.5425739 130.2982741  69.4844474   1.1152538 130.6609500  69.1335901
   2.6687699 125.8442600  74.9889088   2.6122901 126.3011151  74.1496720
   3.2216042 125.0833284  74.8111931   6.4792505 121.6332332  75.8139208
   6.2229439 121.2328967  76.6447415   5.8545373 122.3476126  75.6889347
  10.7904843 124.3728405  78.3210499  10.2304401 124.4421594  79.0942061
  10.1848346 124.1969390  77.6009995   3.7476586 130.5315268  70.9185278
   4.5822190 130.0996466  70.7362753   3.5860929 130.3597281  71.8462172
   3.4022479 127.0347381  72.2841617   3.3471282 126.8691653  71.3430061
   2.7768534 127.7423414  72.4403807  11.9302130 138.7736373  78.0893663
  12.7165219 138.3555796  77.7384080  12.1940834 139.6782465  78.2575311
  17.3310557 138.7111606  78.9926641  18.0635729 138.1410823  79.2264471
  16.5749913 138.3233206  79.4333147  14.8535977 132.4233180  83.4521250
  14.5219302 133.2928591  83.2282465  14.2581591 132.1069464  84.1315280
   8.5892164 136.1628747  71.1851332   8.7566566 137.0308984  71.5521803
   8.3989333 136.3256029  70.2612621  14.7464641 137.1428266  80.5314600
  13.8381518 137.0743675  80.2373361  14.6952237 137.6200211  81.3596425
  16.6126287 135.3444705  82.3092474  15.9700667 135.6377238  81.6632268
  16.1081216 135.2297625  83.1145671  14.2666451 139.0907878  72.9978333
  15.1784307 139.3235265  72.8226031  13.7576098 139.6744922  72.4353412
   8.9038289 138.4505112  84.0073183   9.7499484 138.8744526  84.1507832
   8.8436926 137.7938737  84.7011746  12.0537734 136.1109481  85.6654356
  11.8098666 136.8651541  85.1288632  12.3297664 136.4894828  86.5001603
  11.6102426 135.2665914  81.2468194  10.7486905 135.5647167  81.5384932
  11.6364860 135.4836313  80.3149227  23.2128018 141.8758797  78.8638951
  22.4591726 141.3066195  78.7082955  23.3475559 141.8421462  79.8109585
   5.0893985 132.8263779  91.2008025   4.6960931 132.2729978  91.8755669
   5.9060126 133.1374358  91.5914543   8.0061946 134.2421658  88.7928282
   8.7471660 134.8428811  88.7132744   8.2379869 133.4999296  88.2346324
  11.9519109 130.2702761  83.0692563  11.6083379 131.1604403  82.9931674
  12.3198072 130.0804419  82.2062148   9.5016503 135.1061073  76.6350237
   8.6458099 134.7167923  76.4555876   9.9143455 135.1853034  75.7750023
  11.0315650 132.6407416  81.0341797  10.5280445 132.6037552  80.2209602
  11.3246257 133.5500159  81.0938453   7.2758536 132.7246146  80.0407978
   8.1411532 132.5288955  79.6813868   7.3436044 132.4956498  80.9677335
  11.7055695 138.1338464  73.4024780  11.4005831 138.4484614  74.2534923
  12.6586137 138.2119884  73.4452113   4.8820855 134.9548354  77.4124345
   5.4564607 134.7323536  76.6797538   5.4691837 135.0237049  78.1652947
   5.2090442 136.9852815  71.4320231   4.3727754 137.3227502  71.7529505
   5.0695211 136.8501795  70.4947368   7.1843522 131.8289603  76.1399415
   6.5307935 131.5138620  75.5156029   7.1423996 131.2065343  76.8659238
  10.4181263 138.3171536  80.4647062   9.5003824 138.5386483  80.3068750
  10.8341406 138.3917847  79.6058770  13.6495148 136.7520068  77.5768532
  12.9117904 136.2397455  77.9078774  13.9021921 136.3120450  76.7651809
  13.7506775 129.5296320  78.1710301  14.0565652 128.6693684  77.8836216
  14.4759380 130.1213941  77.9709295  11.5594426 138.9068998  85.2691765
  11.9143814 139.1340471  86.1286231  12.2066557 139.2387374  84.6469020
   5.4534289 136.0145529  82.0538106   6.0933669 135.8734288  81.3561069
   4.6211820 135.7280042  81.6776708   9.8313403 134.0245552  86.0175578
   9.1841318 134.7235501  85.9240055  10.6014419 134.4581696  86.3851826
   5.6726563 137.3711391  86.0691674   5.1363920 136.9202130  86.7213270
   5.0843271 137.5057300  85.3262138   5.0828822 136.8300042  68.6318137
   4.2058288 136.7088843  68.2680384   5.5586575 136.0386121  68.3797026
  11.5789398 134.9920962  78.5214863  12.0758098 134.2390925  78.2015933
  10.8076380 135.0285279  77.9558073  19.4319156 140.6961328  80.1633155
  19.4209032 141.5786043  79.7927088  18.5636535 140.3432879  79.9687692
   8.1624367 137.1338345  78.2486548   7.7922154 136.5809386  78.9367453
   8.6583459 136.5296479  77.6961548  16.0491730 139.5909969  76.6303321
  16.5152182 140.4237960  76.5563623  16.4999231 139.1254950  77.3348579
  14.0208393 131.9590556  80.6694222  13.1071473 132.1894783  80.8376429
  14.4501494 132.0429000  81.5208254  13.7914851 140.1480448  83.1694116
  13.1386302 140.3956355  82.5146569  14.1695231 139.3344586  82.8356593
   3.5589701 134.5442336  84.4939654   3.6231027 135.4057167  84.0817052
   3.4956821 133.9316338  83.7612012   3.0341973 136.6165469  88.1412688
   3.6614012 136.2342546  88.7550212   2.1769892 136.3979671  88.5068381
   6.1428076 133.8352321  86.3299243   6.6662478 134.0814617  87.0925553
   5.9240410 134.6672356  85.9102381   1.5395357 136.1055995  74.1970368
   1.2108064 135.2253374  74.0145474   1.8934728 136.0503664  75.0846757
   4.6537181 136.3928965  74.5645846   4.9933253 136.9214886  73.8424454
   5.1009301 136.7309371  75.3404412   7.3480621 134.7766016  84.0148914
   7.0077442 133.9773829  84.4169594   6.6419628 135.0767727  83.4425747
   7.9997093 131.8615328  82.4676237   8.8223163 131.3875807  82.3455127
   8.2435157 132.6405812  82.9674923   6.6405328 134.8903587  72.7639139
   7.3613690 135.2684840  72.2602855   6.0170632 135.6092464  72.8674117
  10.7836451 135.5948736  73.6997471  11.0000065 136.4773374  73.3986299
  10.3030518 135.2034949  72.9703113   7.3832055 135.5436997  80.3249105
   7.3693624 134.6478090  79.9881403   8.1004483 135.5507661  80.9587391
   9.2358186 135.9774337  82.3702232   8.9775963 136.8991408  82.3686563
   8.7043226 135.5804772  83.0602697   6.7868951 134.4251377  75.5936675
   6.9084862 133.4968023  75.7927563   6.4970993 134.4390063  74.6814991
   9.6560141 132.1106288  78.7303395   9.6781838 132.1745621  77.7755375
  10.0728200 131.2710796  78.9243901  20.0343765 141.8461547  76.7682618
  20.4774912 141.0968872  76.3701741  19.1570276 141.8371684  76.3856350
   6.2710030 135.9383375  89.8026608   6.3198186 136.8145497  89.4204377
   6.8132545 135.3960768  89.2298251  14.1666513 139.3147892  87.7119780
  15.0676376 139.1754357  87.4203778  14.2414488 139.4802347  88.6517958
   8.5009319 136.6914747  86.5572966   7.6312628 136.9848313  86.2855555
   8.7368799 137.2755192  87.2780230  16.6268136 140.8746520  85.1082553
  17.1022258 141.0674167  84.3001404  15.7033701 140.9305706  84.8625937
  11.2048353 132.9094364  84.0738387  11.7230296 133.6455391  83.7484875
  10.8503485 133.2158357  84.9085146  11.4560947 129.3294646  79.5939283
  11.7362701 128.6617836  80.2199710  12.2411554 129.5223742  79.0813947
  15.3269805 137.7512280  83.3410859  16.2787228 137.8510378  83.3623083
  15.1573256 136.9590549  83.8508943  13.3484185 134.8367864  83.5270259
  12.7534117 135.1172876  82.8316748  13.0633881 135.3261765  84.2987001
  17.8057883 140.9718400  82.4553158  17.7734203 140.0334401  82.6412842
  18.4158507 141.0502437  81.7218983  17.9552371 137.7629444  82.5011441
  17.4391420 136.9787900  82.3141370  18.8392320 137.4348160  82.6657961
  15.6163098 131.5070459  78.4607254  15.4187919 131.1985547  79.3450586
  16.2262804 132.2332098  78.5905184  23.6234433 142.0334407  81.5959195
  24.3537821 141.7719695  82.1566898  23.0141378 141.2963129  81.6361263
  21.7049730 140.1742270  82.1933646  20.9782893 140.0398235  81.5850138
  21.2897017 140.4819098  82.9990364   7.8284131 137.7664430  68.4335247
   6.9215586 137.4697542  68.5097961   8.1060112 137.4694248  67.5669534
   9.4446197 132.3101319  74.5879489   8.6346925 131.9648404  74.9634735
  10.1330614 132.0008863  75.1767100  11.3736745 131.3879366  76.2103785
  11.9267784 131.8074819  76.8693809  11.6106831 130.4615114  76.2526741
   7.3969844 137.3766440  91.9906549   7.2966571 138.3260797  91.9218640
   7.1791386 137.0484679  91.1182619   6.5982916 134.6251365  68.5747227
   7.4602080 134.9506263  68.8343044   6.7833260 133.8382861  68.0620292
  14.7515552 133.4979891  75.7182450  14.1714221 134.1564695  75.3360502
  14.4851485 132.6757236  75.3069867  13.2019118 132.8984949  77.9203770
  13.7018897 133.0101483  77.1118089  13.8454726 132.5946002  78.5604578
  13.5340430 135.6579982  74.7738798  12.6466285 135.9429632  74.5558993
  13.9494419 135.4973745  73.9266075  16.8854966 135.6826503  78.4893137
  17.6615356 136.1722955  78.7617754  16.1603100 136.1084557  78.9465007
  19.3227525 136.3954122  79.5467078  19.9172016 136.1549858  78.8360386
  19.3954108 135.6761252  80.1740614  17.3186260 136.9624249  75.8139208
  17.0623194 136.5620885  76.6447415  16.6939128 137.6768043  75.6889347
  21.6298598 139.7020323  78.3210499  21.0698156 139.7713512  79.0942061
  21.0242101 139.5261307  77.6009995   7.5512359 131.8647408  71.8626936
   7.5391028 132.8089248  72.0195207   8.4435780 131.6817553  71.5686397
  11.3664478 128.4590184  76.1172872  10.5996874 127.9048671  76.2629555
  11.7775183 128.5312053  76.9787024   3.3706239 134.7474980  90.2078054
   4.2337701 134.3911785  90.4181378   2.7971650 134.4088875  90.8953458
   1.5340510  88.2237084  65.5884257   0.7804218  87.6544482  65.4328262
   1.6688051  88.1899749  66.5354892   1.9446925  88.3812694  68.3204502
   2.6750313  88.1197982  68.8812205   1.3353870  87.6441416  68.3606570
   1.5367108 102.7255124  67.7385761   2.1745518 102.6061871  67.0349101
   1.4187951 103.6735968  67.7973713   1.0908377 100.4506578  64.8138969
   1.8771466 100.0326001  64.4629386   1.3547081 101.3552670  64.9820618
   1.2618454 105.8879428  59.5127626   0.6264287 105.9614054  60.2248531
   0.9315861 106.4773027  58.8346705   6.4916804 100.3881811  65.7171948
   7.2241976  99.8181028  65.9509777   5.7356160 100.0003411  66.1578453
   4.0142224  94.1003385  70.1766556   3.6825549  94.9698796  69.9527771
   3.4187838  93.7839669  70.8560587   3.9070888  98.8198471  67.2559907
   2.9987765  98.7513880  66.9618668   3.8558483  99.2970416  68.0841732
   5.7732534  97.0214910  69.0337780   5.1306914  97.3147443  68.3877575
   5.2687462  96.9067830  69.8390977   3.4272698 100.7678083  59.7223640
   4.3390554 101.0005469  59.5471337   2.9182345 101.3515127  59.1598718
   1.7113465 105.1902711  73.3584932   2.1196821 104.7485121  72.6139565
   0.9890727 104.6155338  73.6119125   2.0342280 105.7503901  67.1137221
   1.4051142 105.9149615  66.4113289   1.6467942 106.1645511  67.8848185
   5.9131512 106.6858339  64.4681585   5.2282550 107.0657240  63.9178618
   5.9975361 107.2953666  65.2013533   1.2143981  97.7879686  72.3899663
   0.9704913  98.5421746  71.8533939   1.4903911  98.1665033  73.2246910
   3.1682443 104.3318298  71.0676928   3.3799339 104.9750058  70.3911310
   3.1212192 103.4980615  70.5998859   4.2828271 107.2090253  69.2399286
   5.1045715 106.8070441  68.9581967   4.2790674 107.1058488  70.1915402
  12.3734264 103.5529002  65.5884257  11.6197973 102.9836400  65.4328262
  12.5081806 103.5191666  66.5354892   1.4882607 109.3268771  73.4220720
   1.4701082 110.1477652  72.9300989   2.4102527 109.2022846  73.6470861
   1.1125356  91.9472966  69.7937870   0.7689625  92.8374608  69.7176981
   1.4804319  91.7574624  68.9307455   1.0775639 101.9381577  58.3010305
   0.5622262 102.7086182  58.5398693   0.8052947 101.2646713  58.9243367
   6.0509913 104.6913932  60.2363479   5.2739356 104.3525091  59.7918641
   6.7301394 104.6966555  59.5618444   0.8661942  99.8108669  60.1270086
   0.5612078 100.1254819  60.9780230   1.8192384  99.8890089  60.1697419
   4.2901220 104.1647913  66.8930087   3.6324894 104.8547175  66.9810215
   5.0941619 104.5544345  67.2364073   3.1006679 102.5192286  64.9434028
   3.6138560 103.1522278  65.4455738   3.7507902 101.9193481  64.5777388
   3.8668475 107.4998287  63.0713171   3.4130802 106.6589197  63.1278362
   3.2362442 108.1359686  63.4087951   2.8101394  98.4290273  64.3013839
   2.0724151  97.9167660  64.6324081   3.0628168  97.9890655  63.4897115
   2.3101414 109.3374784  64.0062989   2.6024388 109.8979841  63.2875355
   2.8200035 109.6303345  64.7616148   2.9113022  91.2066525  64.8955608
   3.2171899  90.3463889  64.6081523   3.6365627  91.7984146  64.6954602
   0.7200673 100.5839203  71.9937072   1.0750061 100.8110676  72.8531537
   1.3672804 100.9157579  71.3714327   6.4498410 103.7057638  62.6986401
   6.3116309 103.8959234  61.7707590   6.0934629 104.4677021  63.1554452
   6.4767790 105.7734165  67.7097672   6.9104296 105.6809455  68.5580726
   7.1899370 105.7491666  67.0717688   7.3383339 105.8157866  70.2430558
   7.5319229 106.7203677  70.4889832   7.2383957 105.3565285  71.0769143
   2.3998448 105.9664609  75.8171438   2.2483954 105.7375161  74.9001522
   2.3903127 106.9235210  75.8302783   2.4536523 104.2884823  56.2342140
   1.8365693 103.5631651  56.1375192   1.9853011 105.0494183  55.8909214
   4.1090654 108.9983731  73.8947920   4.0503201 108.3142952  73.2278503
   4.5110173 109.7402721  73.4428546   4.1108062 106.9623315  72.1261900
   3.2234841 106.6249237  72.2488299   4.6806613 106.2306347  72.3630665
   8.5925402 102.3731533  66.8878461   8.5815279 103.2556248  66.5172394
   7.7242782 102.0203084  66.6932998   1.8225426 105.4262854  62.8198593
   0.8881704 105.5464317  62.6503298   2.0002094 104.5235321  62.5558603
   5.2097977 101.2680174  63.3548627   5.6758429 102.1008165  63.2808930
   5.6605477 100.8025155  64.0593886   3.2774208 107.6123995  60.3534779
   3.5534052 107.4980590  61.2628654   2.4078707 107.2141480  60.3146953
   3.1814640  93.6360761  67.3939529   2.2677719  93.8664988  67.5621736
   3.6107741  93.7199205  68.2453561   2.9521098 101.8250653  69.8939423
   2.2992548 102.0726560  69.2391876   3.3301478 101.0114791  69.5601900
   2.5942328 108.6998649  76.4711730   3.1382232 109.3128607  75.9766685
   2.0129173 109.2578227  76.9878743   0.8799841 111.8219367  67.6026758
   0.7550981 111.0209107  67.0937703   1.5378932 112.3165560  67.1140728
   2.9434750 109.6228387  69.2306308   1.9965085 109.5033738  69.1584635
   3.2917523 108.7350885  69.3132570   3.5515305 110.2409662  66.5175533
   4.4761852 110.0352523  66.3799984   3.3830608 109.9926063  67.4264875
   3.3410621 110.7595329  61.8737625   3.5147499 110.1941752  61.1211477
   3.8339512 111.5596224  61.6917114   9.1950012 103.5231752  63.4927924
   9.6381158 102.7739077  63.0947048   8.3176523 103.5141889  63.1101656
   4.3285794 110.0762094  58.9734523   5.0236698 110.6968786  59.1921837
   4.6708944 109.2257445  59.2486901   6.2277217 107.5261799  60.5021854
   6.7528541 107.8649072  59.7771174   6.1399569 106.5908814  60.3184988
   5.9171123 108.1594703  75.8073052   5.1266666 108.1418842  75.2677551
   5.6804477 108.6982996  76.5622088   6.0368998 105.0087169  73.1205780
   6.0867003 104.8437177  74.0621303   5.9282921 104.1414428  72.7303661
   3.3272760 100.9918097  74.4365087   4.2282623 100.8524562  74.1449085
   3.4020735 101.1572552  75.3763264   7.5387195 107.4284111  73.3647802
   7.2472003 107.7914091  74.2011263   6.9259326 106.7151119  73.1861134
   8.7382877 104.9936990  65.8850372   9.5729768 105.4326795  66.0487932
   8.8742006 104.5175644  65.0658618   5.7874383 102.5516725  71.8327860
   6.2628504 102.7444372  71.0246711   4.8639948 102.6075911  71.5871243
   0.6167194  91.0064851  66.3184590   0.8968947  90.3388040  66.9445017
   1.4017800  91.1993947  65.8059254   4.4876052  99.4282485  70.0656165
   5.4393475  99.5280583  70.0868389   4.3179502  98.6360754  70.5754250
   2.5090431  96.5138069  70.2515566   1.9140363  96.7943081  69.5562055
   2.2240128  97.0031970  71.0232307   1.6397922 110.4660995  59.0118199
   2.5728595 110.4006557  59.2151074   1.5521135 111.3017262  58.5532731
   4.2685938 109.7826866  55.9722146   4.1899570 109.4486729  56.8657904
   5.0895605 110.2748634  55.9713619   6.9664130 102.6488605  69.1798465
   6.9340450 101.7104606  69.3658149   7.5764753 102.7272642  68.4464290
   7.1158618  99.4399648  69.2256748   6.5997667  98.6558105  69.0386677
   7.9998567  99.1118365  69.3903267   4.7769345  93.1840664  65.1852561
   4.5794166  92.8755752  66.0695893   5.3869051  93.9102303  65.3150491
  12.7840680 103.7104612  68.3204502  13.5144068 103.4489900  68.8812205
  12.1747625 102.9733334  68.3606570  10.8655977 101.8512474  68.9178953
  10.1389140 101.7168439  68.3095444  10.4503264 102.1589303  69.7235671
   0.5342992  93.0649571  62.9349092   1.0874030  93.4845024  63.5939115
   0.7713078  92.1385319  62.9772048   3.9121799  95.1750096  62.4427756
   3.3320468  95.8334900  62.0605809   3.6457731  94.3527441  62.0315174
   2.3625365  94.5755154  64.6449077   2.8625143  94.6871688  63.8363395
   3.0060973  94.2716207  65.2849885   2.6946677  97.3350186  61.4984105
   1.8072532  97.6199837  61.2804299   3.1100666  97.1743950  60.6511381
   6.0461213  97.3596707  65.2138444   6.8221603  97.8493160  65.4863061
   5.3209347  97.7854762  65.6710313   8.4833772  98.0724327  66.2712384
   9.0778262  97.8320063  65.5605693   8.5560355  97.3531457  66.8985921
   1.8389890 107.0994861  55.5932125   2.5425740 107.3044864  56.2089780
   1.1152539 107.6671623  55.8581208   2.6687701 102.8504722  61.7134395
   2.6122902 103.3073274  60.8742027   3.2216043 102.0895407  61.5357237
   6.4792506  98.6394454  62.5384514   6.2229441  98.2391090  63.3692722
   5.8545374  99.3538248  62.4134653  10.7904844 101.3790528  65.0455806
  10.2304402 101.4483717  65.8187368  10.1848348 101.2031512  64.3255302
   3.7476588 107.5377390  57.6430585   4.5822192 107.1058589  57.4608059
   3.5860931 107.3659404  58.5707479   3.4022480 104.0409504  59.0086924
   3.3471284 103.8753775  58.0675368   2.7768535 104.7485537  59.1649114
  12.3760863 118.0547041  67.7385761  13.0139273 117.9353789  67.0349101
  12.2581706 119.0027885  67.7973713   9.1850569 118.0074470  67.6747286
   8.8469081 117.8915534  66.7867821  10.0540337 117.6065635  67.6548292
   5.0437385 119.8609946  63.6644177   4.4802250 119.7699883  62.8960465
   4.9289780 119.0409850  64.1446670   9.6670352 119.1609321  73.6333492
   9.6558993 118.7662120  72.7613995   9.8290991 118.4275394  74.2267263
   2.5901817 121.3561138  66.5028397   3.3823109 121.0151962  66.0874697
   2.8298467 121.4656113  67.4230551  10.6236943 123.5280914  58.9758642
   9.9724923 124.1134994  58.5892656  11.4181306 124.0587109  59.0353679
   4.5492571 120.6170051  59.3745776   5.3223447 120.0699038  59.2358652
   4.9017969 121.4814300  59.5860238   6.3877613 121.9446433  72.5812676
   6.0967479 122.8492064  72.4659342   7.0234598 121.9862961  73.2956745
   7.3133820 119.3223282  69.1714035   7.9097392 119.0979304  68.4570998
   7.3708792 118.5808027  69.7739483   6.8858848 116.7762717  57.0064226
   7.1384369 116.2544238  56.2447689   5.9483408 116.6128862  57.1090910
  11.9302131 115.7798495  64.8138969  12.7165220 115.3617918  64.4629386
  12.1940836 116.6844588  64.9820618  12.1012209 121.2171346  59.5127626
  11.4658042 121.2905972  60.2248531  11.7709615 121.8064944  58.8346705
  17.3310558 115.7173729  65.7171948  18.0635730 115.1472945  65.9509777
  16.5749914 115.3295329  66.1578453   6.6055137 118.6790823  59.2088601
   6.4891395 118.0035726  59.8769685   6.7157397 118.1923197  58.3920754
   8.9486678 118.1400970  62.9135290   8.5844885 117.6131591  63.6248212
   9.8053794 117.7499439  62.7401776  14.8535979 109.4295303  70.1766556
  14.5219304 110.2990714  69.9527771  14.2581592 109.1131587  70.8560587
   8.5892165 113.1690870  57.9096639   8.7566567 114.0371106  58.2767110
   8.3989334 113.3318151  56.9857928  11.3467498 121.6307849  69.5762469
  11.0468221 122.5332887  69.4678276  11.0018558 121.3640032  70.4283622
   4.7979980 118.0821645  65.6099174   3.8730476 117.9497860  65.8176865
   5.0464393 118.8615865  66.1069116  14.7464642 114.1490389  67.2559907
  13.8381519 114.0805797  66.9618668  14.6952238 114.6262334  68.0841732
   8.5681386 115.6248527  58.8943306   8.4481011 116.0705578  59.7328786
   7.8733974 115.9733845  58.3356844   2.1588791 117.7254919  66.4442963
   2.2881172 117.9789398  67.3582374   1.4786242 118.3182627  66.1247618
   6.3288278 128.3952169  62.5433437   6.2512308 129.3459994  62.6221917
   5.7249922 128.0498041  63.2008363   8.8205508 115.5680034  75.1994804
   8.0438842 116.1273955  75.1897668   9.4596071 116.0536817  75.7209674
  16.6126288 112.3506827  69.0337780  15.9700669 112.6439360  68.3877575
  16.1081217 112.2359748  69.8390977  14.2666452 116.0970000  59.7223640
  15.1784308 116.3297387  59.5471337  13.7576099 116.6807045  59.1598718
   7.0751880 118.3765488  74.7612771   7.8166564 118.9150532  74.4847594
   6.3688866 119.0031777  74.9184323  12.5507220 120.5194628  73.3584932
  12.9590576 120.0777039  72.6139565  11.8284481 119.9447256  73.6119125
   8.9038290 115.4567235  70.7318489   9.7499485 115.8806649  70.8753138
   8.8436927 114.8000859  71.4257052  12.8736034 121.0795819  67.1137221
  12.2444897 121.2441533  66.4113289  12.4861696 121.4937428  67.8848185
  16.7525266 122.0150257  64.4681585  16.0676304 122.3949158  63.9178618
  16.8369116 122.6245583  65.2013533  12.0537735 113.1171603  72.3899663
  11.8098667 113.8713664  71.8533939  12.3297666 113.4956951  73.2246910
  14.0076198 119.6610216  71.0676928  14.2193093 120.3041976  70.3911310
  13.9605946 118.8272532  70.5998859  11.6102427 112.2728036  67.9713501
  10.7486906 112.5709290  68.2630238  11.6364862 112.4898435  67.0394533
   8.4263996 120.8170227  64.3787306   8.8902342 121.0957930  63.5891929
   8.1620794 119.9153672  64.1960397   5.3188077 120.3641708  67.3167070
   5.8889434 120.7928977  66.6784554   5.9096189 120.0824293  68.0151255
   7.3632882 116.9393379  61.1876871   8.0656926 117.3914423  61.6550798
   7.0313511 116.2977198  61.8156765   5.8113244 115.5305136  75.5628081
   5.1811904 116.2121417  75.7963478   5.7049332 115.4188218  74.6181219
  15.1222026 122.5382171  69.2399286  15.9439470 122.1362358  68.9581967
  15.1184429 122.4350405  70.1915402   3.0572962 115.5621511  63.4477482
   2.2604125 115.6740205  63.9660977   2.8298554 115.9008163  62.5818372
   8.8878629 122.0866214  71.3959996   8.9523062 122.5486622  72.2318168
   8.1789553 121.4563579  71.5242306  23.2128019 118.8820920  65.5884257
  22.4591727 118.3128318  65.4328262  23.3475560 118.8483584  66.5354892
   8.6026647 123.7534322  61.2638977   8.4672322 124.5985858  61.6923824
   9.1436459 123.9553600  60.5004910   5.0893987 109.8325902  77.9253332
   4.6960932 109.2792100  78.6000976   5.9060127 110.1436480  78.3159849
   2.0556044 121.2709760  61.8366902   2.5680565 122.0653010  61.9872466
   2.7078757 120.5736050  61.7700503   3.8650929 124.3875516  63.9189655
   4.0417557 125.3093481  63.7310639   4.6607763 124.0733935  64.3484035
   8.0061948 111.2483781  75.5173588   8.7471661 111.8490934  75.4378051
   8.2379870 110.5061419  74.9591631   3.1503286 116.4340148  73.7951818
   3.0356801 115.5325405  74.0958917   2.2947803 116.6803845  73.4436635
  10.2295123 124.3757888  75.3939319   9.7858978 123.5894267  75.0760223
  10.8912337 124.5637039  74.7283210   4.9882245 125.9053690  69.9199997
   5.5389670 125.7770753  69.1476991   4.1493720 126.2048579  69.5694890
  12.3276361 124.6560688  73.4220720  12.3094837 125.4769569  72.9300989
  13.2496281 124.5314764  73.6470861   8.7849416 122.1704818  74.2644228
   9.3177752 121.4093106  74.0343536   8.2563497 121.8778470  75.0068383
  11.9519111 107.2764884  69.7937870  11.6083380 108.1666525  69.7176981
  12.3198073 107.0866541  68.9307455  11.9169393 117.2673495  58.3010305
  11.4016017 118.0378100  58.5398693  11.6446702 116.5938631  58.9243367
   9.5016504 112.1123196  63.3595544   8.6458101 111.7230046  63.1801182
   9.9143456 112.1915156  62.4995329  11.0315651 109.6469539  67.7587103
  10.5280447 109.6099674  66.9454909  11.3246258 110.5562282  67.8183760
   7.2758537 109.7308269  66.7653285   8.1411534 109.5351077  66.4059175
   7.3436046 109.5018620  67.6922642  16.8903667 120.0205850  60.2363479
  16.1133110 119.6817009  59.7918641  17.5695148 120.0258473  59.5618444
  11.7055696 115.1400587  60.1270086  11.4005832 115.4546736  60.9780230
  12.6586139 115.2182007  60.1697419  10.1502128 121.2990810  61.7763040
   9.6223490 120.5643570  61.4636278   9.6489631 122.0765487  61.5303009
  15.1294974 119.4939831  66.8930087  14.4718649 120.1839092  66.9810215
  15.9335374 119.8836263  67.2364073   4.8820856 111.9610477  64.1369652
   5.4564608 111.7385658  63.4042845   5.4691838 112.0299171  64.8898253
  13.9400433 117.8484204  64.9434028  14.4532315 118.4814195  65.4455738
  14.5901657 117.2485399  64.5777388   5.2090443 113.9914938  58.1565537
   4.3727755 114.3289624  58.4774812   5.0695213 113.8563917  57.2192674
   7.1843524 108.8351726  62.8644721   6.5307936 108.5200743  62.2401336
   7.1423998 108.2127466  63.5904544   8.2954728 119.1171021  54.7798013
   7.3881790 118.8860274  54.9789162   8.7925760 118.3208640  54.9671995
  11.2022807 127.8268528  57.6994700  10.5284506 128.1300225  58.3079657
  11.5888629 128.6297608  57.3500157  10.4181264 115.3233659  67.1892369
   9.5003825 115.5448606  67.0314057  10.8341408 115.3979970  66.3304076
  11.2016312 116.7225075  62.3195049  11.9488131 117.2346472  62.0102171
  11.4707901 116.4009127  63.1799443   9.4742962 119.2183615  59.3022004
   8.5654181 118.9342648  59.3994473   9.5038046 119.6382694  58.4425310
  14.7062229 122.8290205  63.0713171  14.2524556 121.9881115  63.1278362
  14.0756196 123.4651603  63.4087951  13.6495149 113.7582191  64.3013839
  12.9117906 113.2459577  64.6324081  13.9021922 113.3182573  63.4897115
  13.1495169 124.6666702  64.0062989  13.4418143 125.2271759  63.2875355
  13.6593789 124.9595263  64.7616148  13.7506776 106.5358443  64.8955608
  14.0565653 105.6755806  64.6081523  14.4759381 107.1276063  64.6954602
   8.0227856 116.8312236  65.4031799   8.0776466 115.8786072  65.3274275
   7.2119058 116.9871675  65.8873097   9.1719050 120.7592359  56.6410082
   8.7338480 120.0428218  56.1815719   9.9129491 120.9868474  56.0795173
   5.9620216 115.4489296  63.1622178   5.1488081 115.7483466  63.5687370
   6.4579210 115.0544985  63.8796660   8.1128794 125.4447053  65.0956442
   8.0704973 125.6707899  64.1664974   9.0291493 125.2110427  65.2442244
  11.5594428 115.9131120  71.9937072  11.9143815 116.1402593  72.8531537
  12.2066559 116.2449497  71.3714327  17.2892164 119.0349556  62.6986401
  17.1510063 119.2251152  61.7707590  16.9328383 119.7968939  63.1554452
   5.4534291 113.0207651  68.7783413   6.0933670 112.8796410  68.0806376
   4.6211821 112.7342165  68.4022015  17.3161544 121.1026083  67.7097672
  17.7498051 121.0101372  68.5580726  18.0293125 121.0783584  67.0717688
   6.2294595 122.3210082  64.8918405   7.0235193 121.8260402  64.6900980
   5.5186287 121.7927945  64.5286111  11.0489439 124.7028177  69.2430773
  11.1026461 125.2719114  70.0108489  10.1804220 124.8730062  68.8784810
   2.5377358 116.4653163  60.9678158   1.6074946 116.4037619  61.1848120
   2.6334830 115.9429116  60.1714799   2.4562907 112.9907976  63.5556399
   2.7169724 113.9053310  63.4465560   3.2780079 112.5232419  63.7053012
   3.9287832 114.4045733  70.7255224   4.6010886 114.1963096  70.0767873
   3.1017619 114.2067819  70.2860456  18.1777094 121.1449784  70.2430558
  18.3712984 122.0495594  70.4889832  18.0777712 120.6857203  71.0769143
   9.8313404 111.0307674  72.7420885   9.1841319 111.7297624  72.6485361
  10.6014420 111.4643818  73.1097133  13.2392202 121.2956527  75.8171438
  13.0877709 121.0667078  74.9001522  13.2296882 122.2527128  75.8302783
  10.0077539 118.8688439  70.8017705  10.9369599 119.0199599  70.6286672
   9.5868569 118.9572460  69.9466351   8.8065871 122.8939104  68.5716242
   8.6676956 122.5257888  69.4442180   8.0180467 123.4086743  68.4000200
   9.4014022 127.9948200  59.9141779   9.5765778 127.5236243  60.7287401
   8.7146811 128.6213966  60.1423039  10.3571086 122.2720706  65.9605080
  10.0220918 122.2321476  66.8562730   9.8575031 121.6065422  65.4875490
   4.3315330 117.6788336  71.4857661   4.1935128 116.9468575  72.0869200
   5.2420253 117.5897237  71.2041849  13.2930277 119.6176741  56.2342140
  12.6759448 118.8923569  56.1375192  12.8246766 120.3786101  55.8909214
   6.9597630 117.3908296  70.9741341   7.6697249 116.7501488  70.9327959
   6.9166938 117.6421191  71.8967522  14.9484409 124.3275649  73.8947920
  14.8896955 123.6434869  73.2278503  15.3503927 125.0694639  73.4428546
   5.6726564 114.3773514  72.7936980   5.1363921 113.9264252  73.4458577
   5.0843273 114.5119423  72.0507445   3.9675108 131.1437563  66.6881639
   4.2071706 131.7756087  67.3660657   3.1244304 130.7925603  66.9746998
   5.0828823 113.8362165  55.3563444   4.2058290 113.7150966  54.9925691
   5.5586576 113.0448243  55.1042333  14.9501816 122.2915233  72.1261900
  14.0628595 121.9541155  72.2488299  15.5200367 121.5598264  72.3630665
   1.4065685 113.5129521  69.8789975   1.3223874 112.9055191  69.1440385
   0.5848392 114.0038540  69.8799471   8.4802970 126.9516685  69.0923143
   8.4073141 127.7571657  69.6042447   8.0380363 127.1508651  68.2671164
   8.2692749 126.1888455  62.6025964   7.4860271 126.7310136  62.6964189
   8.9685494 126.7062435  63.0020206  11.5789399 111.9983085  65.2460170
  12.0758099 111.2453047  64.9261240  10.8076381 112.0347402  64.6803379
  19.4319157 117.7023450  66.8878461  19.4209033 118.5848166  66.5172394
  18.5636536 117.3495001  66.6932998  10.9401653 126.8503519  71.2481302
  11.6529625 127.4850984  71.1757203  10.4491682 126.9467385  70.4321303
  12.6619180 120.7554772  62.8198593  11.7275459 120.8756235  62.6503298
  12.8395849 119.8527239  62.5558603   8.1624368 114.1400468  64.9731854
   7.7922156 113.5871508  65.6612760   8.6583461 113.5358601  64.4206854
  16.0491731 116.5972091  63.3548627  16.5152184 117.4300083  63.2808930
  16.4999232 116.1317073  64.0593886   5.9913567 124.5997963  72.0686872
   6.6923026 125.2334446  72.2216267   5.5208682 124.9412694  71.3082512
  14.1167963 122.9415913  60.3534779  14.3927806 122.8272507  61.2628654
  13.2472461 122.5433398  60.3146953  14.0208394 108.9652678  67.3939529
  13.1071474 109.1956905  67.5621736  14.4501496 109.0491122  68.2453561
  13.7914853 117.1542570  69.8939423  13.1386303 117.4018478  69.2391876
  14.1695233 116.3406709  69.5601900  10.7522027 127.1902264  63.9967593
  10.9344421 126.3723919  64.4595345  11.5755013 127.4069956  63.5592483
  11.0864192 126.1170449  61.2582642  11.6151958 125.6062903  60.6452804
  11.3492412 125.8012979  62.1228175   9.8402426 117.8962381  76.3805460
   9.1643063 117.7956511  77.0507835  10.6630060 117.7401595  76.8441457
   1.5881285 124.1334318  69.0017975   2.1734722 123.3878006  69.1345879
   1.3906123 124.4438275  69.8854639   4.4419940 127.1685565  64.0180417
   3.7730315 127.6531693  63.5344458   4.3032810 127.4154786  64.9323796
   8.5825209 129.2029309  70.6163076   9.1343517 129.3660930  71.3812161
   8.9231402 129.7933747  69.9443101   3.5589702 111.5504459  71.2184961
   3.6231028 112.4119290  70.8062358   3.4956822 110.9378460  70.4857319
   3.0341974 113.6227591  74.8657995   3.6614013 113.2404669  75.4795519
   2.1769893 113.4041793  75.2313687  13.4336083 124.0290566  76.4711730
  13.9775987 124.6420525  75.9766685  12.8522928 124.5870145  76.9878743
  11.7193596 127.1511284  67.6026758  11.5944735 126.3501024  67.0937703
  12.3772687 127.6457478  67.1140728   3.3401764 113.5060017  66.7803898
   2.6188350 114.1195985  66.6411372   4.1295020 114.0417782  66.7020544
  13.7828504 124.9520304  69.2306308  12.8358840 124.8325656  69.1584635
  14.1311277 124.0642803  69.3132570   6.1428078 110.8414443  73.0544550
   6.6662479 111.0876740  73.8170859   5.9240411 111.6734478  72.6347687
   1.5395359 113.1118118  60.9215675   1.2108065 112.2315497  60.7390781
   1.8934729 113.0565787  61.8092064  10.7874938 124.7473021  65.4310660
  10.6399900 123.8189728  65.6118230  11.6128431 124.7693111  64.9467736
   4.6537182 113.3991088  61.2891152   4.9933254 113.9277009  60.5669761
   5.1009302 113.7371494  62.0649719  14.3909059 125.5701579  66.5175533
  15.3155607 125.3644441  66.3799984  14.2224363 125.3217981  67.4264875
   7.3480623 111.7828139  70.7394221   7.0077443 110.9835952  71.1414900
   6.6419629 112.0829849  70.1671054   7.9997094 108.8677451  69.1921544
   8.8223164 108.3937929  69.0700434   8.2435158 109.6467935  69.6920230
   6.6405329 111.8965709  59.4884445   7.3613691 112.2746962  58.9848162
   6.0170633 112.6154586  59.5919423  10.7836452 112.6010858  60.4242778
  11.0000066 113.4835496  60.1231606  10.3030519 112.2097072  59.6948420
   5.5235673 115.5596572  67.0013522   5.3780254 115.8736875  67.8937804
   5.0460877 116.1781472  66.4484421   7.3832056 112.5499120  67.0494412
   7.3693625 111.6540213  66.7126710   8.1004484 112.5569783  67.6832698
   9.2358187 112.9836460  69.0947539   8.9775965 113.9053530  69.0931870
   8.7043227 112.5866894  69.7848003  14.1804376 126.0887247  61.8737625
  14.3541253 125.5233669  61.1211477  14.6733267 126.8888142  61.6917114
   6.7868952 111.4313500  62.3181982   6.9084863 110.5030146  62.5172869
   6.4970994 111.4452186  61.4060297   9.6560142 109.1168410  65.4548702
   9.6781839 109.1807743  64.5000681  10.0728201 108.2772919  65.6489208
  20.0343767 118.8523670  63.4927924  20.4774913 118.1030995  63.0947048
  19.1570277 118.8433806  63.1101656  15.1679548 125.4054011  58.9734523
  15.8630453 126.0260704  59.1921837  15.5102698 124.5549363  59.2486901
  17.0670971 122.8553717  60.5021854  17.5922295 123.1940990  59.7771174
  16.9793324 121.9200732  60.3184988   8.7291020 126.7687790  72.6311730
   9.0378146 126.5236937  73.5034430   9.5266502 126.9734429  72.1430600
   8.7511632 128.9225700  64.8617107   8.3116622 128.4302079  65.5549963
   9.5019749 128.3798668  64.6209182   1.2303971 125.1137241  64.8641735
   2.0561991 124.8141013  64.4840378   0.8798023 124.3444863  65.3131523
   6.1985504 124.4663709  66.9339408   5.5765513 123.8034414  66.6341636
   6.8690371 124.4924841  66.2513056   6.2710032 112.9445497  76.5271914
   6.3198187 113.8207620  76.1449684   6.8132546 112.4022890  75.9543558
  16.7564877 123.4886620  75.8073052  15.9660421 123.4710759  75.2677551
  16.5198232 124.0274914  76.5622088  16.8762752 120.3379087  73.1205780
  16.9260757 120.1729094  74.0621303  16.7676676 119.4706346  72.7303661
   5.7599011 123.0167633  60.4097869   5.9087131 123.7003097  59.7564542
   6.5665454 122.9972723  60.9247325  14.1666515 116.3210015  74.4365087
  15.0676377 116.1816480  74.1449085  14.2414489 116.4864470  75.3763264
   8.5009320 113.6976870  73.2818273   7.6312629 113.9910436  73.0100862
   8.7368800 114.2817315  74.0025537  18.3780949 122.7576028  73.3647802
  18.0865757 123.1206009  74.2011263  17.7653080 122.0443037  73.1861134
  19.5776631 120.3228908  65.8850372  20.4123523 120.7618712  66.0487932
  19.7135760 119.8467561  65.0658618  16.6268137 117.8808643  71.8327860
  17.1022259 118.0736289  71.0246711  15.7033703 117.9367829  71.5871243
   3.5151644 119.0432810  61.4158938   3.2697686 118.1395140  61.6139148
   3.6847559 119.0449961  60.4738416  11.2048354 109.9156487  70.7983693
  11.7230298 110.6517513  70.4730182  10.8503487 110.2220480  71.6330453
   2.7847291 114.7761168  58.9145099   2.0916536 114.8505523  58.2585135
   2.5399043 114.0121511  59.4366616  11.4560948 106.3356769  66.3184590
  11.7362702 105.6679958  66.9445017  12.2411555 106.5285865  65.8059254
   9.2594417 125.5115763  57.8809616   8.6868384 126.1305950  57.4280088
   9.8327210 126.0615125  58.4149538  15.3269806 114.7574403  70.0656165
  16.2787229 114.8572501  70.0868389  15.1573257 113.9652672  70.5754250
  13.3484186 111.8429986  70.2515566  12.7534118 112.1234999  69.5562055
  13.0633883 112.3323887  71.0232307  12.4791676 125.7952913  59.0118199
  13.4122349 125.7298475  59.2151074  12.3914889 126.6309180  58.5532731
  15.1079693 125.1118783  55.9722146  15.0293324 124.7778647  56.8657904
  15.9289360 125.6040551  55.9713619  17.8057884 117.9780523  69.1798465
  17.7734204 117.0396523  69.3658149  18.4158508 118.0564559  68.4464290
   9.6441215 116.8476576  55.2225669  10.5900320 116.7182784  55.2914087
   9.2655460 116.1091238  55.6995097  17.9552373 114.7691566  69.2256748
  17.4391421 113.9850023  69.0386677  18.8392321 114.4410283  69.3903267
  15.6163100 108.5132582  65.1852561  15.4187921 108.2047670  66.0695893
  16.2262805 109.2394221  65.3150491  23.6234434 119.0396530  68.3204502
  24.3537822 118.7781818  68.8812205  23.0141379 118.3025252  68.3606570
  21.7049731 117.1804392  68.9178953  20.9782895 117.0460357  68.3095444
  21.2897018 117.4881221  69.7235671   9.5279908 120.8994322  76.6826326
  10.4482917 121.0772921  76.8766372   9.4929491 119.9550367  76.5306025
   7.8284132 114.7726552  55.1580554   6.9215588 114.4759665  55.2343268
   8.1060113 114.4756370  54.2914840   2.5241980 118.8095357  69.3249107
   2.7427990 119.7412464  69.3437141   2.9367754 118.4503331  70.1103911
   9.4446198 109.3163442  61.3124795   8.6346926 108.9710527  61.6880041
  10.1330615 109.0070986  61.9012407  11.3736746 108.3941489  62.9349092
  11.9267785 108.8136942  63.5939115  11.6106833 107.4677237  62.9772048
   7.3969845 114.3828562  78.7151856   7.2966572 115.3322919  78.6463947
   7.1791387 114.0546801  77.8427926   6.5982917 111.6313487  55.2992533
   7.4602081 111.9568386  55.5588351   6.7833261 110.8444983  54.7865599
  14.7515553 110.5042014  62.4427756  14.1714222 111.1626818  62.0605809
  14.4851486 109.6819358  62.0315174  13.2019120 109.9047071  64.6449077
  13.7018898 110.0163606  63.8363395  13.8454728 109.6008124  65.2849885
   7.2601115 117.8125701  77.5316918   6.7768197 118.6126061  77.7380807
   7.3462054 117.8233646  76.5784362   0.5287075 119.6454081  65.4538737
   0.5057763 119.7441768  64.5020620   0.8387712 120.4919232  65.7755903
   3.1874453 121.7030236  69.5685351   4.1417706 121.6714178  69.5015283
   2.9886977 121.2420860  70.3835577   3.7773835 120.2731352  72.1356149
   4.5966724 120.7675431  72.1590986   4.0510643 119.3563320  72.1073717
  13.5340431 112.6642104  61.4984105  12.6466286 112.9491755  61.2804299
  13.9494420 112.5035868  60.6511381  16.8854967 112.6888625  65.2138444
  17.6615358 113.1785078  65.4863061  16.1603102 113.1146679  65.6710313
  19.3227526 113.4016244  66.2712384  19.9172017 113.1611980  65.5605693
  19.3954110 112.6823375  66.8985921   1.5424682 127.2449855  66.5855549
   1.4079150 126.4850256  66.0193547   1.1256744 127.9690755  66.1184338
  12.6783645 122.4286779  55.5932125  13.3819495 122.6336781  56.2089780
  11.9546294 122.9963541  55.8581208  13.5081455 118.1796640  61.7134395
  13.4516656 118.6365192  60.8742027  14.0609797 117.4187325  61.5357237
  17.3186261 113.9686372  62.5384514  17.0623195 113.5683008  63.3692722
  16.6939129 114.6830166  62.4134653  21.6298599 116.7082445  65.0455806
  21.0698157 116.7775635  65.8187368  21.0242102 116.5323430  64.3255302
   4.6993808 128.1419172  66.7973992   4.5826192 129.0864605  66.6952682
   3.8786254 127.8392734  67.1859791  14.5870342 122.8669308  57.6430585
  15.4215946 122.4350507  57.4608059  14.4254685 122.6951322  58.5707479
  14.2416234 119.3701421  59.0086924  14.1865038 119.2045693  58.0675368
  13.6162290 120.0777454  59.1649114  11.5562142 121.6750333  78.3340487
  12.4253301 121.8490986  77.9727122  11.0768893 122.4944750  78.2116216
   7.5512360 108.8709530  58.5872242   7.5391030 109.8151370  58.7440513
   8.4435782 108.6879676  58.2931703   5.7248322 128.7947434  70.0129920
   6.6275568 128.8271044  70.3296415   5.4985692 127.8647885  70.0276256
   7.4801924 127.5478421  66.6739999   6.5297555 127.5480282  66.5604371
   7.7834410 126.8011155  66.1576034  11.3664479 105.4652307  62.8418179
  10.5996875 104.9110794  62.9874861  11.7775184 105.5374176  63.7032331
   3.3706240 111.7537103  76.9323360   4.2337702 111.3973908  77.1426685
   2.7971651 111.4150998  77.6198765  23.2154617 133.3838959  67.7385761
  23.8533027 133.2645707  67.0349101  23.0975460 134.3319803  67.7973713
  20.0244324 133.3366387  67.6747286  19.6862835 133.2207452  66.7867821
  20.8934092 132.9357552  67.6548292  15.8831139 135.1901864  63.6644177
  15.3196004 135.0991801  62.8960465  15.7683534 134.3701768  64.1446670
  20.5064107 134.4901239  73.6333492  20.4952747 134.0954037  72.7613995
  20.6684746 133.7567312  74.2267263  13.4295571 136.6853055  66.5028397
  14.2216863 136.3443880  66.0874697  13.6692221 136.7948030  67.4230551
  21.4630698 138.8572831  58.9758642  20.8118678 139.4426912  58.5892656
  22.2575061 139.3879026  59.0353679  15.3886325 135.9461969  59.3745776
  16.1617201 135.3990956  59.2358652  15.7411724 136.8106218  59.5860238
  17.2271368 137.2738351  72.5812676  16.9361234 138.1783982  72.4659342
  17.8628352 137.3154878  73.2956745  18.1527575 134.6515199  69.1714035
  18.7491147 134.4271222  68.4570998  18.2102546 133.9099945  69.7739483
  17.7252603 132.1054635  57.0064226  17.9778124 131.5836156  56.2447689
  16.7877162 131.9420780  57.1090910  22.7695886 131.1090413  64.8138969
  23.5558975 130.6909836  64.4629386  23.0334590 132.0136505  64.9820618
  22.9405963 136.5463263  59.5127626  22.3051796 136.6197890  60.2248531
  22.6103369 137.1356862  58.8346705  28.1704313 131.0465646  65.7171948
  28.9029485 130.4764863  65.9509777  27.4143669 130.6587247  66.1578453
  17.4448892 134.0082741  59.2088601  17.3285150 133.3327644  59.8769685
  17.5551152 133.5215115  58.3920754  19.7880433 133.4692888  62.9135290
  19.4238640 132.9423509  63.6248212  20.6447548 133.0791357  62.7401776
  25.6929733 124.7587220  70.1766556  25.3613058 125.6282631  69.9527771
  25.0975347 124.4423504  70.8560587  19.4285920 128.4982787  57.9096639
  19.5960322 129.3663024  58.2767110  19.2383089 128.6610069  56.9857928
  22.1861253 136.9599766  69.5762469  21.8861976 137.8624805  69.4678276
  21.8412312 136.6931950  70.4283622  15.6373734 133.4113563  65.6099174
  14.7124231 133.2789777  65.8176865  15.8858147 134.1907782  66.1069116
  25.5858397 129.4782306  67.2559907  24.6775274 129.4097715  66.9618668
  25.5345992 129.9554251  68.0841732  19.4075140 130.9540445  58.8943306
  19.2874766 131.3997496  59.7328786  18.7127729 131.3025763  58.3356844
  12.9982545 133.0546837  66.4442963  13.1274926 133.3081316  67.3582374
  12.3179997 133.6474545  66.1247618  19.6599262 130.8971952  75.1994804
  18.8832596 131.4565872  75.1897668  20.2989825 131.3828735  75.7209674
  27.4520043 127.6798745  69.0337780  26.8094423 127.9731278  68.3877575
  26.9474971 127.5651665  69.8390977  25.1060207 131.4261918  59.7223640
  26.0178063 131.6589305  59.5471337  24.5969854 132.0098962  59.1598718
  17.9145635 133.7057405  74.7612771  18.6560319 134.2442449  74.4847594
  17.2082620 134.3323694  74.9184323  23.3900974 135.8486546  73.3584932
  23.7984330 135.4068956  72.6139565  22.6678236 135.2739173  73.6119125
  19.7432044 130.7859153  70.7318489  20.5893240 131.2098566  70.8753138
  19.6830682 130.1292777  71.4257052  23.7129789 136.4087737  67.1137221
  23.0838651 136.5733451  66.4113289  23.3255451 136.8229346  67.8848185
  27.5919021 137.3442174  64.4681585  26.9070059 137.7241076  63.9178618
  27.6762870 137.9537501  65.2013533  22.8931490 128.4463521  72.3899663
  22.6492422 129.2005582  71.8533939  23.1691420 128.8248869  73.2246910
  24.8469952 134.9902133  71.0676928  25.0586848 135.6333893  70.3911310
  24.7999701 134.1564450  70.5998859  22.4496181 127.6019954  67.9713501
  21.5880660 127.9001208  68.2630238  22.4758616 127.8190353  67.0394533
  19.2657751 136.1462145  64.3787306  19.7296096 136.4249848  63.5891929
  19.0014549 135.2445589  64.1960397  16.1581832 135.6933626  67.3167070
  16.7283189 136.1220895  66.6784554  16.7489944 135.4116211  68.0151255
  18.2026637 132.2685297  61.1876871  18.9050680 132.7206341  61.6550798
  17.8707265 131.6269116  61.8156765  16.6506998 130.8597054  75.5628081
  16.0205659 131.5413334  75.7963478  16.5443086 130.7480135  74.6181219
  11.9451971 130.5268850  66.4894005  11.1551025 130.7826378  66.0134116
  12.4363218 131.3417188  66.5946046  25.9615780 137.8674089  69.2399286
  26.7833224 137.4654276  68.9581967  25.9578183 137.7642323  70.1915402
  13.8966716 130.8913429  63.4477482  13.0997879 131.0032123  63.9660977
  13.6692308 131.2300081  62.5818372  19.7272384 137.4158132  71.3959996
  19.7916816 137.8778539  72.2318168  19.0183308 136.7855497  71.5242306
  10.2289674 130.7799340  68.9208996  10.4797712 131.6646350  69.1866572
  10.7649222 130.6003942  68.1484088  34.0521773 134.2112837  65.5884257
  33.2985482 133.6420235  65.4328262  34.1869315 134.1775502  66.5354892
  19.4420401 139.0826240  61.2638977  19.3066076 139.9277775  61.6923824
  19.9830214 139.2845517  60.5004910  15.9287741 125.1617819  77.9253332
  15.5354687 124.6084018  78.6000976  16.7453881 125.4728398  78.3159849
  12.8949799 136.6001678  61.8366902  13.4074319 137.3944928  61.9872466
  13.5472512 135.9027968  61.7700503  14.7044684 139.7167434  63.9189655
  14.8811312 140.6385399  63.7310639  15.5001517 139.4025853  64.3484035
  18.8455702 126.5775699  75.5173588  19.5865415 127.1782852  75.4378051
  19.0773625 125.8353336  74.9591631  13.9897040 131.7632066  73.7951818
  13.8750555 130.8617323  74.0958917  13.1341558 132.0095763  73.4436635
  21.0688878 139.7049806  75.3939319  20.6252732 138.9186185  75.0760223
  21.7306091 139.8928957  74.7283210  23.1670116 139.9852606  73.4220720
  23.1488591 140.8061487  72.9300989  24.0890036 139.8606681  73.6470861
  19.6243170 137.4996736  74.2644228  20.1571507 136.7385024  74.0343536
  19.0957251 137.2070387  75.0068383  22.7912865 122.6056801  69.7937870
  22.4477134 123.4958443  69.7176981  23.1591828 122.4158459  68.9307455
  10.8598716 134.9290332  62.6126472  11.6973938 135.3387340  62.3960180
  11.0376983 133.9889774  62.5826666  22.7563148 132.5965413  58.3010305
  22.2409771 133.3670017  58.5398693  22.4840456 131.9230549  58.9243367
  20.3410259 127.4415113  63.3595544  19.4851855 127.0521964  63.1801182
  20.7537211 127.5207074  62.4995329  21.8709405 124.9761457  67.7587103
  21.3674201 124.9391592  66.9454909  22.1640012 125.8854199  67.8183760
  18.1152291 125.0600186  66.7653285  18.9805288 124.8642995  66.4059175
  18.1829800 124.8310538  67.6922642  27.7297422 135.3497767  60.2363479
  26.9526865 135.0108927  59.7918641  28.4088903 135.3550390  59.5618444
  22.5449451 130.4692505  60.1270086  22.2399586 130.7838654  60.9780230
  23.4979893 130.5473925  60.1697419  20.9895883 136.6282728  61.7763040
  20.4617244 135.8935488  61.4636278  20.4883385 137.4057404  61.5303009
  25.9688729 134.8231748  66.8930087  25.3112403 135.5131010  66.9810215
  26.7729128 135.2128180  67.2364073  15.7214610 127.2902394  64.1369652
  16.2958362 127.0677576  63.4042845  16.3085593 127.3591089  64.8898253
  24.7794188 133.1776121  64.9434028  25.2926069 133.8106113  65.4455738
  25.4295411 132.5777317  64.5777388  16.0484197 129.3206855  58.1565537
  15.2121510 129.6581542  58.4774812  15.9088967 129.1855835  57.2192674
  18.0237278 124.1643643  62.8644721  17.3701690 123.8492660  62.2401336
  17.9817752 123.5419384  63.5904544  19.1348483 134.4462938  54.7798013
  18.2275545 134.2152192  54.9789162  19.6319515 133.6500558  54.9671995
  21.2575018 130.6525577  67.1892369  20.3397580 130.8740524  67.0314057
  21.6735162 130.7271887  66.3304076  22.0410066 132.0516992  62.3195049
  22.7881885 132.5638390  62.0102171  22.3101656 131.7301045  63.1799443
  20.3136716 134.5475533  59.3022004  19.4047936 134.2634566  59.3994473
  20.3431800 134.9674612  58.4425310  25.5455984 138.1582123  63.0713171
  25.0918311 137.3173033  63.1278362  24.9149951 138.7943521  63.4087951
  24.4888903 129.0874109  64.3013839  23.7511660 128.5751495  64.6324081
  24.7415677 128.6474490  63.4897115  23.9888923 139.9958619  64.0062989
  24.2811897 140.5563676  63.2875355  24.4987544 140.2887180  64.7616148
  24.5900531 121.8650361  64.8955608  24.8959407 121.0047724  64.6081523
  25.3153135 122.4567981  64.6954602  10.8824887 132.2681047  63.2837206
  10.6849287 131.6750408  62.5588272  10.3271551 131.9633257  64.0013145
  18.8621610 132.1604154  65.4031799  18.9170220 131.2077990  65.3274275
  18.0512812 132.3163593  65.8873097  20.0112804 136.0884277  56.6410082
  19.5732234 135.3720136  56.1815719  20.7523245 136.3160392  56.0795173
  16.8013970 130.7781213  63.1622178  15.9881836 131.0775384  63.5687370
  17.2972965 130.3836902  63.8796660  18.9522548 140.7738970  65.0956442
  18.9098727 140.9999817  64.1664974  19.8685247 140.5402345  65.2442244
  22.3988182 131.2423038  71.9937072  22.7537570 131.4694511  72.8531537
  23.0460313 131.5741415  71.3714327  28.1285919 134.3641474  62.6986401
  27.9903818 134.5543070  61.7707590  27.7722138 135.1260857  63.1554452
  16.2928045 128.3499569  68.7783413  16.9327424 128.2088328  68.0806376
  15.4605576 128.0634082  68.4022015  28.1555299 136.4318001  67.7097672
  28.5891805 136.3393290  68.5580726  28.8686879 136.4075501  67.0717688
  17.0688349 137.6501999  64.8918405  17.8628947 137.1552320  64.6900980
  16.3580041 137.1219863  64.5286111  21.8883193 140.0320095  69.2430773
  21.9420216 140.6011031  70.0108489  21.0197975 140.2021980  68.8784810
  13.3771112 131.7945081  60.9678158  12.4468701 131.7329537  61.1848120
  13.4728584 131.2721034  60.1714799  13.2956662 128.3199894  63.5556399
  13.5563479 129.2345227  63.4465560  14.1173834 127.8524337  63.7053012
  14.7681587 129.7337651  70.7255224  15.4404640 129.5255013  70.0767873
  13.9411373 129.5359737  70.2860456  29.0170848 136.4741702  70.2430558
  29.2106738 137.3787512  70.4889832  28.9171466 136.0149121  71.0769143
  20.6707159 126.3599592  72.7420885  20.0235074 127.0589542  72.6485361
  21.4408174 126.7935736  73.1097133  24.0785957 136.6248444  75.8171438
  23.9271463 136.3958996  74.9001522  24.0690636 137.5819046  75.8302783
  20.8471293 134.1980357  70.8017705  21.7763353 134.3491517  70.6286672
  20.4262323 134.2864378  69.9466351  19.6459625 138.2231021  68.5716242
  19.5070711 137.8549806  69.4442180  18.8574221 138.7378661  68.4000200
  21.1964840 137.6012624  65.9605080  20.8614673 137.5613394  66.8562730
  20.6968786 136.9357340  65.4875490  15.1709084 133.0080254  71.4857661
  15.0328882 132.2760493  72.0869200  16.0814008 132.9189154  71.2041849
  24.1324032 134.9468658  56.2342140  23.5153202 134.2215487  56.1375192
  23.6640520 135.7078019  55.8909214  17.7991385 132.7200213  70.9741341
  18.5091003 132.0793406  70.9327959  17.7560693 132.9713108  71.8967522
  25.7878163 139.6567567  73.8947920  25.7290710 138.9726787  73.2278503
  26.1897682 140.3986557  73.4428546  16.5120319 129.7065431  72.7936980
  15.9757676 129.2556170  73.4458577  15.9237027 129.8411340  72.0507445
  15.9222578 129.1654083  55.3563444  15.0452044 129.0442884  54.9925691
  16.3980331 128.3740161  55.1042333  25.7895571 137.6207151  72.1261900
  24.9022349 137.2833073  72.2488299  26.3594122 136.8890182  72.3630665
   7.4424718 133.9531242  65.4504951   8.1295758 133.6392973  64.8625966
   7.2872847 134.8572607  65.1772203  12.2459440 128.8421439  69.8789975
  12.1617629 128.2347109  69.1440385  11.4242146 129.3330457  69.8799471
  19.1086504 141.5180373  62.6025964  18.3254026 142.0602053  62.6964189
  19.8079249 142.0354353  63.0020206  22.4183154 127.3275003  65.2460170
  22.9151853 126.5744965  64.9261240  21.6470135 127.3639319  64.6803379
  30.2712911 133.0315368  66.8878461  30.2602788 133.9140084  66.5172394
  29.4030291 132.6786919  66.6932998  21.7795408 142.1795437  71.2481302
  22.4923380 142.8142902  71.1757203  21.2885436 142.2759303  70.4321303
  23.5012935 136.0846690  62.8198593  22.5669213 136.2048152  62.6503298
  23.6789603 135.1819157  62.5558603  19.0018123 129.4692386  64.9731854
  18.6315910 128.9163426  65.6612760  19.4977215 128.8650519  64.4206854
  26.8885486 131.9264009  63.3548627  27.3545938 132.7592001  63.2808930
  27.3392986 131.4608991  64.0593886  16.8307321 139.9289881  72.0686872
  17.5316781 140.5626364  72.2216267  16.3602436 140.2704612  71.3082512
  24.9561717 138.2707830  60.3534779  25.2321561 138.1564425  61.2628654
  24.0866216 137.8725315  60.3146953  24.8602149 124.2944596  67.3939529
  23.9465228 124.5248823  67.5621736  25.2895250 124.3783040  68.2453561
  24.6308607 132.4834488  69.8939423  23.9780057 132.7310395  69.2391876
  25.0088987 131.6698626  69.5601900  21.5915781 142.5194181  63.9967593
  21.7738176 141.7015837  64.4595345  22.4148767 142.7361873  63.5592483
  21.9257947 141.4462366  61.2582642  22.4545713 140.9354821  60.6452804
  22.1886166 141.1304897  62.1228175  20.6796180 133.2254299  76.3805460
  20.0036817 133.1248428  77.0507835  21.5023814 133.0693513  76.8441457
  12.4275039 139.4626236  69.0017975  13.0128476 138.7169924  69.1345879
  12.2299878 139.7730192  69.8854639   7.0192694 132.0331836  67.7222418
   7.0576793 131.4995427  68.5159536   6.5132987 131.5067041  67.1033395
  14.3983456 126.8796376  71.2184961  14.4624783 127.7411207  70.8062358
  14.3350577 126.2670378  70.4857319  13.8735729 128.9519509  74.8657995
  14.5007768 128.5696586  75.4795519  13.0163648 128.7333711  75.2313687
  24.2729837 139.3582484  76.4711730  24.8169741 139.9712442  75.9766685
  23.6916682 139.9162062  76.9878743  10.6501272 130.7595938  60.7976350
  10.9454713 129.8506616  60.7443403   9.7489307 130.7383677  60.4757352
  22.5587350 142.4803202  67.6026758  22.4338490 141.6792942  67.0937703
  23.2166441 142.9749395  67.1140728  14.1795519 128.8351935  66.7803898
  13.4582104 129.4487902  66.6411372  14.9688774 129.3709699  66.7020544
  24.6222259 140.2812222  69.2306308  23.6752594 140.1617573  69.1584635
  24.9705032 139.3934720  69.3132570  16.9821832 126.1706361  73.0544550
  17.5056234 126.4168658  73.8170859  16.7634165 127.0026396  72.6347687
  12.3789113 128.4410036  60.9215675  12.0501819 127.5607415  60.7390781
  12.7328484 128.3857704  61.8092064  21.6268692 140.0764938  65.4310660
  21.4793654 139.1481646  65.6118230  22.4522186 140.0985029  64.9467736
  15.4930936 128.7283005  61.2891152  15.8327009 129.2568927  60.5669761
  15.9403057 129.0663412  62.0649719  25.2302814 140.8993497  66.5175533
  26.1549361 140.6936358  66.3799984  25.0618117 140.6509898  67.4264875
  18.1874377 127.1120056  70.7394221  17.8471197 126.3127869  71.1414900
  17.4813383 127.4121767  70.1671054  18.8390849 124.1969369  69.1921544
  19.6616918 123.7229847  69.0700434  19.0828912 124.9759852  69.6920230
  17.4799083 127.2257627  59.4884445  18.2007446 127.6038880  58.9848162
  16.8564388 127.9446504  59.5919423  21.6230206 127.9302776  60.4242778
  21.8393821 128.8127414  60.1231606  21.1424273 127.5388989  59.6948420
  16.3629428 130.8888489  67.0013522  16.2174008 131.2028792  67.8937804
  15.8854631 131.5073390  66.4484421  18.2225811 127.8791037  67.0494412
  18.2087379 126.9832131  66.7126710  18.9398239 127.8861701  67.6832698
  20.0751941 128.3128377  69.0947539  19.8169719 129.2345448  69.0931870
  19.5436982 127.9158812  69.7848003  25.0198130 141.4179165  61.8737625
  25.1935008 140.8525587  61.1211477  25.5127021 142.2180059  61.6917114
  10.8375090 133.4293834  69.9401183  10.2928558 134.2053642  70.0721458
  11.7154440 133.7764638  69.7820305  17.6262707 126.7605418  62.3181982
  17.7478618 125.8322064  62.5172869  17.3364749 126.7744103  61.4060297
  20.4953897 124.4460328  65.4548702  20.5175594 124.5099661  64.5000681
  20.9121956 123.6064837  65.6489208  30.8737521 134.1815587  63.4927924
  31.3168667 133.4322913  63.0947048  29.9964032 134.1725724  63.1101656
  26.0073303 140.7345929  58.9734523  26.7024207 141.3552622  59.1921837
  26.3496453 139.8841280  59.2486901  11.6241112 132.5563730  72.8331340
  10.8822848 132.7046365  73.4195971  11.3033856 132.8171996  71.9698090
  27.9064726 138.1845634  60.5021854  28.4316050 138.5232907  59.7771174
  27.8187078 137.2492650  60.3184988  19.5684774 142.0979708  72.6311730
  19.8771901 141.8528855  73.5034430  20.3660256 142.3026347  72.1430600
  17.0379259 139.7955627  66.9339408  16.4159268 139.1326332  66.6341636
  17.7084125 139.8216759  66.2513056  10.2706330 138.3615485  65.8230668
   9.4338239 137.9337659  65.6414670  10.2429976 138.5547928  66.7601460
  17.1103786 128.2737415  76.5271914  17.1591942 129.1499538  76.1449684
  17.6526300 127.7314808  75.9543558  27.5958632 138.8178538  75.8073052
  26.8054175 138.8002677  75.2677551  27.3591986 139.3566832  76.5622088
  27.7156507 135.6671005  73.1205780  27.7654512 135.5021012  74.0621303
  27.6070430 134.7998264  72.7303661  16.5992765 138.3459550  60.4097869
  16.7480886 139.0295015  59.7564542  17.4059209 138.3264640  60.9247325
  25.0060269 131.6501933  74.4365087  25.9070132 131.5108397  74.1449085
  25.0808244 131.8156387  75.3763264  19.3403074 129.0268787  73.2818273
  18.4706384 129.3202353  73.0100862  19.5762555 129.6109232  74.0025537
  29.2174704 138.0867946  73.3647802  28.9259512 138.4497927  74.2011263
  28.6046835 137.3734954  73.1861134  30.4170386 135.6520826  65.8850372
  31.2517277 136.0910630  66.0487932  30.5529515 135.1759479  65.0658618
  27.4661892 133.2100561  71.8327860  27.9416013 133.4028207  71.0246711
  26.5427457 133.2659746  71.5871243  14.3545398 134.3724728  61.4158938
  14.1091440 133.4687058  61.6139148  14.5241313 134.3741878  60.4738416
  22.0442108 125.2448404  70.7983693  22.5624052 125.9809431  70.4730182
  21.6897241 125.5512398  71.6330453  13.6241046 130.1053085  58.9145099
  12.9310291 130.1797440  58.2585135  13.3792798 129.3413429  59.4366616
  22.2954702 121.6648687  66.3184590  22.5756456 120.9971876  66.9445017
  23.0805309 121.8577782  65.8059254  20.0988171 140.8407681  57.8809616
  19.5262138 141.4597868  57.4280088  20.6720965 141.3907042  58.4149538
  26.1663561 130.0866321  70.0656165  27.1180984 130.1864418  70.0868389
  25.9967011 129.2944589  70.5754250  24.1877940 127.1721904  70.2515566
  23.5927872 127.4526917  69.5562055  23.9027637 127.6615805  71.0232307
  23.3185431 141.1244831  59.0118199  24.2516104 141.0590392  59.2151074
  23.2308644 141.9601098  58.5532731  25.9473447 140.4410701  55.9722146
  25.8687079 140.1070565  56.8657904  26.7683114 140.9332469  55.9713619
  28.6451639 133.3072440  69.1798465  28.6127959 132.3688441  69.3658149
  29.2552262 133.3856477  68.4464290  20.4834969 132.1768493  55.2225669
  21.4294074 132.0474702  55.2914087  20.1049214 131.4383155  55.6995097
  28.7946127 130.0983484  69.2256748  28.2785176 129.3141940  69.0386677
  29.6786076 129.7702200  69.3903267  26.4556854 123.8424499  65.1852561
  26.2581675 123.5339588  66.0695893  27.0656560 124.5686138  65.3150491
  34.4628188 134.3688447  68.3204502  35.1931577 134.1073735  68.8812205
  33.8535134 133.6317169  68.3606570  32.5443486 132.5096310  68.9178953
  31.8176649 132.3752275  68.3095444  32.1290772 132.8173138  69.7235671
  20.3673662 136.2286240  76.6826326  21.2876671 136.4064839  76.8766372
  20.3323245 135.2842285  76.5306025  18.6677887 130.1018470  55.1580554
  17.7609342 129.8051582  55.2343268  18.9453868 129.8048288  54.2914840
   9.5855827 131.4224833  65.6079600   9.2658611 130.5690141  65.3153975
   9.0389255 131.6373411  66.3637568  13.3635735 134.1387274  69.3249107
  13.5821744 135.0704382  69.3437141  13.7761508 133.7795249  70.1103911
  20.2839952 124.6455359  61.3124795  19.4740681 124.3002444  61.6880041
  20.9724369 124.3362903  61.9012407  22.2130501 123.7233406  62.9349092
  22.7661539 124.1428860  63.5939115  22.4500587 122.7969154  62.9772048
  18.2363600 129.7120480  78.7151856  18.1360327 130.6614837  78.6463947
  18.0185142 129.3838719  77.8427926  17.4376671 126.9605405  55.2992533
  18.2995835 127.2860303  55.5588351  17.6227015 126.1736901  54.7865599
   9.4544087 135.0427745  67.5772722   8.7607558 134.6281697  67.0642676
  10.2017078 135.0848281  66.9806141  25.5909308 125.8333931  62.4427756
  25.0107977 126.4918735  62.0605809  25.3245240 125.0111276  62.0315174
  24.0412874 125.2338989  64.6449077  24.5412652 125.3455524  63.8363395
  24.6848482 124.9300042  65.2849885  18.0994870 133.1417619  77.5316918
  17.6161952 133.9417979  77.7380807  18.1855809 133.1525564  76.5784362
  11.3680830 134.9745998  65.4538737  11.3451518 135.0733686  64.5020620
  11.6781466 135.8211149  65.7755903  14.0268207 137.0322153  69.5685351
  14.9811461 137.0006096  69.5015283  13.8280731 136.5712777  70.3835577
  14.6167590 135.6023270  72.1356149  15.4360479 136.0967348  72.1590986
  14.8904397 134.6855238  72.1073717  24.3734186 127.9934022  61.4984105
  23.4860041 128.2783672  61.2804299  24.7888175 127.8327785  60.6511381
  27.7248722 128.0180543  65.2138444  28.5009112 128.5076995  65.4863061
  26.9996856 128.4438597  65.6710313  30.1621281 128.7308162  66.2712384
  30.7565771 128.4903898  65.5605693  30.2347864 128.0115293  66.8985921
  23.5177399 137.7578697  55.5932125  24.2213249 137.9628699  56.2089780
  22.7940048 138.3255458  55.8581208  24.3475210 133.5088558  61.7134395
  24.2910411 133.9657109  60.8742027  24.9003552 132.7479242  61.5357237
  28.1580015 129.2978290  62.5384514  27.9016950 128.8974925  63.3692722
  27.5332883 130.0122084  62.4134653  32.4692353 132.0374363  65.0455806
  31.9091911 132.1067552  65.8187368  31.8635857 131.8615348  64.3255302
  25.4264097 138.1961226  57.6430585  26.2609701 137.7642424  57.4608059
  25.2648440 138.0243239  58.5707479  25.0809989 134.6993339  59.0086924
  25.0258793 134.5337610  58.0675368  24.4556044 135.4069372  59.1649114
   9.8702504 129.9361403  72.8348346  10.5161367 129.4260357  73.3235571
   9.6619655 130.6730085  73.4091771  22.3955896 137.0042251  78.3340487
  23.2647056 137.1782903  77.9727122  21.9162647 137.8236668  78.2116216
  18.3906114 124.2001448  58.5872242  18.3784784 125.1443288  58.7440513
  19.2829536 124.0171593  58.2931703  22.2058234 120.7944225  62.8418179
  21.4390630 120.2402711  62.9874861  22.6168939 120.8666093  63.7032331
  14.2099995 127.0829020  76.9323360  15.0731456 126.7265825  77.1426685
  13.6365405 126.7442915  77.6198765  33.6089640 146.4382331  64.8138969
  34.3952729 146.0201754  64.4629386  33.8728345 147.3428423  64.9820618
  39.0098067 146.3757564  65.7171948  39.7423239 145.8056781  65.9509777
  38.2537423 145.9879164  66.1578453  36.5323488 140.0879138  70.1766556
  36.2006812 140.9574549  69.9527771  35.9369101 139.7715422  70.8560587
  30.2679674 143.8274705  57.9096639  30.4354076 144.6954941  58.2767110
  30.0776843 143.9901987  56.9857928  36.4252151 144.8074224  67.2559907
  35.5169028 144.7389633  66.9618668  36.3739747 145.2846169  68.0841732
  38.2913797 143.0090663  69.0337780  37.6488178 143.3023196  68.3877575
  37.7868726 142.8943583  69.8390977  35.9453961 146.7553836  59.7223640
  36.8571817 146.9881223  59.5471337  35.4363608 147.3390880  59.1598718
  30.5825799 146.1151070  70.7318489  31.4286994 146.5390484  70.8753138
  30.5224436 145.4584695  71.4257052  33.7325244 143.7755439  72.3899663
  33.4886176 144.5297499  71.8533939  34.0085175 144.1540786  73.2246910
  33.2889936 142.9311872  67.9713501  32.4274415 143.2293125  68.2630238
  33.3152371 143.1482271  67.0394533  44.8915528 149.5404755  65.5884257
  44.1379236 148.9712153  65.4328262  45.0263069 149.5067419  66.5354892
  26.7681496 140.4909737  77.9253332  26.3748441 139.9375936  78.6000976
  27.5847636 140.8020316  78.3159849  29.6849457 141.9067616  75.5173588
  30.4259170 142.5074769  75.4378051  29.9167379 141.1645254  74.9591631
  33.6306620 137.9348719  69.7937870  33.2870889 138.8250361  69.7176981
  33.9985582 137.7450377  68.9307455  31.1804013 142.7707031  63.3595544
  30.3245610 142.3813881  63.1801182  31.5930965 142.8498992  62.4995329
  32.7103160 140.3053374  67.7587103  32.2067955 140.2683509  66.9454909
  33.0033767 141.2146117  67.8183760  28.9546046 140.3892104  66.7653285
  29.8199043 140.1934913  66.4059175  29.0223555 140.1602456  67.6922642
  33.3843205 145.7984422  60.1270086  33.0793341 146.1130572  60.9780230
  34.3373648 145.8765842  60.1697419  26.5608365 142.6194312  64.1369652
  27.1352117 142.3969493  63.4042845  27.1479347 142.6883006  64.8898253
  26.8877952 144.6498773  58.1565537  26.0515264 144.9873460  58.4774812
  26.7482722 144.5147753  57.2192674  28.8631033 139.4935561  62.8644721
  28.2095445 139.1784578  62.2401336  28.8211507 138.8711301  63.5904544
  32.0968773 145.9817494  67.1892369  31.1791334 146.2032441  67.0314057
  32.5128917 146.0563805  66.3304076  35.3282658 144.4166026  64.3013839
  34.5905415 143.9043413  64.6324081  35.5809431 143.9766408  63.4897115
  35.4294285 137.1942278  64.8955608  35.7353162 136.3339642  64.6081523
  36.1546890 137.7859899  64.6954602  33.2381937 146.5714956  71.9937072
  33.5931324 146.7986429  72.8531537  33.8854068 146.9033332  71.3714327
  27.1321800 143.6791487  68.7783413  27.7721179 143.5380246  68.0806376
  26.2999330 143.3926000  68.4022015  31.5100913 141.6891510  72.7420885
  30.8628828 142.3881459  72.6485361  32.2801929 142.1227654  73.1097133
  27.3514073 145.0357349  72.7936980  26.8151430 144.5848087  73.4458577
  26.7630782 145.1703258  72.0507445  26.7616332 144.4946000  55.3563444
  25.8845799 144.3734801  54.9925691  27.2374085 143.7032079  55.1042333
  33.2576908 142.6566920  65.2460170  33.7545608 141.9036883  64.9261240
  32.4863890 142.6931237  64.6803379  41.1106666 148.3607286  66.8878461
  41.0996542 149.2432001  66.5172394  40.2424045 148.0078837  66.6932998
  29.8411877 144.7984303  64.9731854  29.4709665 144.2455344  65.6612760
  30.3370970 144.1942437  64.4206854  37.7279240 147.2555927  63.3548627
  38.1939693 148.0883918  63.2808930  38.1786741 146.7900908  64.0593886
  35.6995903 139.6236514  67.3939529  34.7858983 139.8540741  67.5621736
  36.1289005 139.7074958  68.2453561  35.4702362 147.8126406  69.8939423
  34.8173812 148.0602313  69.2391876  35.8482742 146.9990544  69.5601900
  25.2377211 142.2088294  71.2184961  25.3018537 143.0703125  70.8062358
  25.1744331 141.5962296  70.4857319  24.7129483 144.2811427  74.8657995
  25.3401522 143.8988504  75.4795519  23.8557402 144.0625629  75.2313687
  27.8215587 141.4998279  73.0544550  28.3449988 141.7460575  73.8170859
  27.6027920 142.3318314  72.6347687  23.2182868 143.7701953  60.9215675
  22.8895574 142.8899332  60.7390781  23.5722238 143.7149622  61.8092064
  26.3324691 144.0574923  61.2891152  26.6720763 144.5860844  60.5669761
  26.7796811 144.3955329  62.0649719  29.0268132 142.4411974  70.7394221
  28.6864952 141.6419787  71.1414900  28.3207138 142.7413685  70.1671054
  29.6784603 139.5261286  69.1921544  30.5010673 139.0521764  69.0700434
  29.9222667 140.3051770  69.6920230  28.3192838 142.5549545  59.4884445
  29.0401200 142.9330798  58.9848162  27.6958142 143.2738422  59.5919423
  32.4623961 143.2594694  60.4242778  32.6787575 144.1419332  60.1231606
  31.9818028 142.8680907  59.6948420  29.0619565 143.2082955  67.0494412
  29.0481134 142.3124048  66.7126710  29.7791993 143.2153619  67.6832698
  30.9145696 143.6420295  69.0947539  30.6563474 144.5637366  69.0931870
  30.3830736 143.2450730  69.7848003  28.4656461 142.0897335  62.3181982
  28.5872372 141.1613981  62.5172869  28.1758503 142.1036021  61.4060297
  31.3347651 139.7752246  65.4548702  31.3569348 139.8391579  64.5000681
  31.7515710 138.9356754  65.6489208  41.7131276 149.5107505  63.4927924
  42.1562422 148.7614830  63.0947048  40.8357786 149.5017642  63.1101656
  27.9497541 143.6029333  76.5271914  27.9985696 144.4791455  76.1449684
  28.4920055 143.0606726  75.9543558  35.8454024 146.9793850  74.4365087
  36.7463886 146.8400315  74.1449085  35.9201998 147.1448305  75.3763264
  30.1796829 144.3560705  73.2818273  29.3100138 144.6494271  73.0100862
  30.4156309 144.9401150  74.0025537  38.3055646 148.5392478  71.8327860
  38.7809768 148.7320125  71.0246711  37.3821212 148.5951664  71.5871243
  32.8835863 140.5740322  70.7983693  33.4017807 141.3101349  70.4730182
  32.5290996 140.8804315  71.6330453  33.1348457 136.9940604  66.3184590
  33.4150211 136.3263793  66.9445017  33.9199064 137.1869700  65.8059254
  37.0057315 145.4158238  70.0656165  37.9574738 145.5156336  70.0868389
  36.8360766 144.6236507  70.5754250  35.0271695 142.5013822  70.2515566
  34.4321627 142.7818834  69.5562055  34.7421392 142.9907723  71.0232307
  39.4845393 148.6364358  69.1798465  39.4521713 147.6980359  69.3658149
  40.0946017 148.7148395  68.4464290  39.6339882 145.4275402  69.2256748
  39.1178930 144.6433858  69.0386677  40.5179830 145.0994118  69.3903267
  37.2950609 139.1716417  65.1852561  37.0975430 138.8631505  66.0695893
  37.9050314 139.8978056  65.3150491  45.3021943 149.6980365  68.3204502
  46.0325331 149.4365653  68.8812205  44.6928888 148.9609087  68.3606570
  43.3837240 147.8388228  68.9178953  42.6570404 147.7044192  68.3095444
  42.9684527 148.1465056  69.7235671  29.5071641 145.4310387  55.1580554
  28.6003097 145.1343500  55.2343268  29.7847622 145.1340206  54.2914840
  31.1233707 139.9747277  61.3124795  30.3134435 139.6294362  61.6880041
  31.8118124 139.6654821  61.9012407  33.0524255 139.0525324  62.9349092
  33.6055294 139.4720777  63.5939115  33.2894342 138.1261072  62.9772048
  29.0757354 145.0412398  78.7151856  28.9754081 145.9906755  78.6463947
  28.8578896 144.7130637  77.8427926  28.2770426 142.2897323  55.2992533
  29.1389590 142.6152221  55.5588351  28.4620770 141.5028819  54.7865599
  36.4303062 141.1625849  62.4427756  35.8501731 141.8210653  62.0605809
  36.1638995 140.3403194  62.0315174  34.8806629 140.5630907  64.6449077
  35.3806407 140.6747441  63.8363395  35.5242237 140.2591960  65.2849885
  35.2127940 143.3225940  61.4984105  34.3253795 143.6075590  61.2804299
  35.6281929 143.1619703  60.6511381  38.5642476 143.3472461  65.2138444
  39.3402867 143.8368913  65.4863061  37.8390611 143.7730515  65.6710313
  41.0015035 144.0600080  66.2712384  41.5959526 143.8195816  65.5605693
  41.0741619 143.3407210  66.8985921  38.9973770 144.6270207  62.5384514
  38.7410704 144.2266843  63.3692722  38.3726638 145.3414001  62.4134653
  43.3086108 147.3666281  65.0455806  42.7485666 147.4359470  65.8187368
  42.7029611 147.1907265  64.3255302  29.2299869 139.5293366  58.5872242
  29.2178539 140.4735206  58.7440513  30.1223291 139.3463511  58.2931703
  33.0451988 136.1236142  62.8418179  32.2784384 135.5694629  62.9874861
  33.4562693 136.1958011  63.7032331  25.0493749 142.4120938  76.9323360
  25.9125211 142.0557743  77.1426685  24.4759160 142.0734833  77.6198765
   1.5340511  65.2299207  52.3129564   0.7804220  64.6606605  52.1573568
   1.6688052  65.1961871  53.2600199   1.9446926  65.3874817  55.0449808
   2.6750315  65.1260105  55.6057512   1.3353872  64.6503539  55.0851876
   1.5367110  79.7317246  54.4631068   2.1745519  79.6123994  53.7594408
   1.4187952  80.6798090  54.5219020   1.0908378  77.4568700  51.5384276
   1.8771467  77.0388123  51.1874693   1.3547082  78.3614792  51.7065924
   1.2618455  82.8941551  46.2372933   0.6264288  82.9676177  46.9493837
   0.9315862  83.4835149  45.5592012   6.4916805  77.3943933  52.4417255
   7.2241977  76.8243150  52.6755084   5.7356161  77.0065534  52.8823760
   4.0142225  71.1065508  56.9011863   3.6825550  71.9760919  56.6773078
   3.4187839  70.7901792  57.5805894   3.9070889  75.8260594  53.9805213
   2.9987766  75.7576002  53.6863974   3.8558485  76.3032539  54.8087039
   5.7732535  74.0277032  55.7583087   5.1306915  74.3209565  55.1122882
   5.2687464  73.9129952  56.5636284   3.4272699  77.7740205  46.4468946
   4.3390555  78.0067592  46.2716644   2.9182346  78.3577250  45.8844025
   1.7113467  82.1964833  60.0830239   2.1196823  81.7547244  59.3384871
   0.9890728  81.6217461  60.3364432   2.0342281  82.7566024  53.8382528
   1.4051144  82.9211738  53.1358596   1.6467943  83.1707633  54.6093492
   5.9131513  83.6920462  51.1926892   5.2282551  84.0719363  50.6423925
   5.9975362  84.3015788  51.9258839   1.2143982  74.7941808  59.1144970
   0.9704914  75.5483869  58.5779245   1.4903912  75.1727156  59.9492217
   3.1682445  81.3380421  57.7922235   3.3799340  81.9812181  57.1156616
   3.1212193  80.5042737  57.3244165   4.2828273  84.2152376  55.9644592
   5.1045716  83.8132563  55.6827274   4.2790675  84.1120610  56.9160708
  12.3734266  80.5591125  52.3129564  11.6197974  79.9898523  52.1573568
  12.5081807  80.5253789  53.2600199   1.4882608  86.3330893  60.1466027
   1.4701084  87.1539774  59.6546296   2.4102528  86.2084969  60.3716168
   1.1125357  68.9535089  56.5183177   0.7689627  69.8436730  56.4422287
   1.4804320  68.7636746  55.6552762   1.0775640  78.9443700  45.0255612
   0.5622263  79.7148304  45.2643999   0.8052948  78.2708836  45.6488673
   6.0509914  81.6976054  46.9608785   5.2739357  81.3587214  46.5163947
   6.7301395  81.7028678  46.2863750   0.8661943  76.8170792  46.8515393
   0.5612079  77.1316941  47.7025536   1.8192385  76.8952212  46.8942726
   4.2901221  81.1710036  53.6175393   3.6324895  81.8609297  53.7055522
   5.0941620  81.5606468  53.9609380   3.1006680  79.5254408  51.6679335
   3.6138562  80.1584400  52.1701045   3.7507904  78.9255604  51.3022695
   3.8668476  84.5060410  49.7958478   3.4130803  83.6651320  49.8523668
   3.2362443  85.1421808  50.1333258   2.8101396  75.4352396  51.0259145
   2.0724152  74.9229782  51.3569388   3.0628169  74.9952778  50.2142422
   2.3101415  86.3436907  50.7308296   2.6024390  86.9041964  50.0120661
   2.8200036  86.6365468  51.4861455   2.9113023  68.2128648  51.6200914
   3.2171900  67.3526011  51.3326830   3.6365628  68.8046268  51.4199908
   0.7200674  77.5901325  58.7182378   1.0750062  77.8172798  59.5776844
   1.3672806  77.9219702  58.0959634   6.4498411  80.7119761  49.4231707
   6.3116310  80.9021357  48.4952897   6.0934630  81.4739144  49.8799758
   6.4767791  82.7796288  54.4342979   6.9104298  82.6871577  55.2826033
   7.1899372  82.7553789  53.7962995   7.3383340  82.8219989  56.9675864
   7.5319230  83.7265799  57.2135139   7.2383959  82.3627408  57.8014449
   2.3998449  82.9726732  62.5416745   2.2483955  82.7437283  61.6246829
   2.3903129  83.9297333  62.5548090   2.4536524  81.2946946  42.9587446
   1.8365695  80.5693774  42.8620499   1.9853013  82.0556306  42.6154521
   4.1090656  86.0045854  60.6193227   4.0503202  85.3205074  59.9523810
   4.5110174  86.7464844  60.1673853   4.1108063  83.9685438  58.8507206
   3.2234842  83.6311360  58.9733605   4.6806614  83.2368469  59.0875972
   8.5925404  79.3793655  53.6123768   8.5815280  80.2618371  53.2417701
   7.7242783  79.0265206  53.4178305   1.8225427  82.4324977  49.5443900
   0.8881706  82.5526440  49.3748604   2.0002095  81.5297444  49.2803910
   5.2097978  78.2742296  50.0793934   5.6758430  79.1070288  50.0054237
   5.6605479  77.8087278  50.7839193   3.2774209  84.6186118  47.0780086
   3.5534053  84.5042712  47.9873960   2.4078708  84.2203602  47.0392259
   3.1814641  70.6422883  54.1184835   2.2677721  70.8727110  54.2867042
   3.6107742  70.7261327  54.9698868   2.9521099  78.8312775  56.6184729
   2.2992550  79.0788683  55.9637182   3.3301479  78.0176913  56.2847207
   2.5942330  85.7060771  63.1957037   3.1382234  86.3190730  62.7011992
   2.0129174  86.2640350  63.7124050   0.8799843  88.8281489  54.3272065
   0.7550982  88.0271229  53.8183010   1.5378934  89.3227683  53.8386035
   2.9434751  86.6290509  55.9551615   1.9965087  86.5095861  55.8829941
   3.2917524  85.7413007  56.0377876   3.5515306  87.2471784  53.2420840
   4.4761854  87.0414646  53.1045291   3.3830609  86.9988186  54.1510181
   3.3410622  87.7657452  48.5982931   3.5147500  87.2003874  47.8456784
   3.8339514  88.5658347  48.4162421   9.1950014  80.5293875  50.2173231
   9.6381160  79.7801200  49.8192354   8.3176524  80.5204011  49.8346963
   4.3285795  87.0824216  45.6979829   5.0236699  87.7030909  45.9167144
   4.6708945  86.2319567  45.9732207   6.2277218  84.5323922  47.2267160
   6.7528542  84.8711194  46.5016480   6.1399570  83.5970937  47.0430295
   5.9171124  85.1656825  62.5318358   5.1266668  85.1480964  61.9922858
   5.6804479  85.7045119  63.2867395   6.0368999  82.0149292  59.8451087
   6.0867004  81.8499299  60.7866609   5.9282922  81.1476551  59.4548967
   3.3272761  77.9980220  61.1610393   4.2282624  77.8586685  60.8694391
   3.4020736  78.1634675  62.1008571   7.5387196  84.4346233  60.0893108
   7.2472004  84.7976214  60.9256569   6.9259327  83.7213242  59.9106440
   8.7382878  81.9999113  52.6095678   9.5729770  82.4388917  52.7733239
   8.8742007  81.5237766  51.7903924   5.7874384  79.5578848  58.5573166
   6.2628506  79.7506494  57.7492018   4.8639950  79.6138034  58.3116550
   0.6167195  68.0126974  53.0429897   0.8968949  67.3450163  53.6690323
   1.4017802  68.2056070  52.5304561   4.4876053  76.4344608  56.7901472
   5.4393476  76.5342706  56.8113696   4.3179504  75.6422877  57.2999556
   2.5090433  73.5200191  56.9760873   1.9140365  73.8005204  56.2807361
   2.2240129  74.0094092  57.7477614   1.6397923  87.4723118  45.7363505
   2.5728596  87.4068680  45.9396381   1.5521136  88.3079385  45.2778038
   4.2685940  86.7888988  42.6967453   4.1899571  86.4548852  43.5903211
   5.0895607  87.2810756  42.6958925   6.9664131  79.6550728  55.9043771
   6.9340451  78.7166728  56.0903455   7.5764755  79.7334764  55.1709596
   7.1158619  76.4461771  55.9502055   6.5997668  75.6620228  55.7631984
   7.9998568  76.1180488  56.1148574   4.7769346  70.1902787  51.9097867
   4.5794167  69.8817875  52.7941199   5.3869052  70.9164426  52.0395797
  12.7840681  80.7166735  55.0449808  13.5144069  80.4552023  55.6057512
  12.1747626  79.9795456  55.0851876  10.8655978  78.8574597  55.6424259
  10.1389141  78.7230562  55.0340751  10.4503265  79.1651426  56.4480978
   0.5342993  70.0711694  49.6594399   1.0874032  70.4907147  50.3184422
   0.7713079  69.1447442  49.7017355   3.9121800  72.1812219  49.1673063
   3.3320469  72.8397023  48.7851115   3.6457733  71.3589563  48.7560480
   2.3625366  71.5817276  51.3694383   2.8625145  71.6933811  50.5608702
   3.0060974  71.2778329  52.0095192   2.6946678  74.3412309  48.2229411
   1.8072533  74.6261960  48.0049606   3.1100667  74.1806072  47.3756688
   6.0461214  74.3658830  51.9383750   6.8221604  74.8555283  52.2108367
   5.3209348  74.7916884  52.3955620   8.4833773  75.0786449  52.9957691
   9.0778264  74.8382185  52.2850999   8.5560357  74.3593580  53.6231227
   1.8389892  84.1056984  42.3177431   2.5425742  84.3106986  42.9335087
   1.1152540  84.6733746  42.5826515   2.6687702  79.8566845  48.4379701
   2.6122903  80.3135396  47.5987334   3.2216044  79.0957530  48.2602544
   6.4792508  75.6456577  49.2629821   6.2229442  75.2453213  50.0938029
   5.8545376  76.3600371  49.1379960  10.7904846  78.3852650  51.7701112
  10.2304404  78.4545839  52.5432674  10.1848349  78.2093635  51.0500609
   3.7476589  84.5439513  44.3675891   4.5822193  84.1120711  44.1853366
   3.5860932  84.3721527  45.2952786   3.4022481  81.0471626  45.7332231
   3.3471285  80.8815898  44.7920675   2.7768536  81.7547659  45.8894420
  12.3760864  95.0609164  54.4631068  13.0139274  94.9415911  53.7594408
  12.2581707  96.0090008  54.5219020   9.1850570  95.0136592  54.3992593
   8.8469082  94.8977657  53.5113128  10.0540338  94.6127757  54.3793599
   5.0437386  96.8672069  50.3889484   4.4802251  96.7762006  49.6205771
   4.9289781  96.0471973  50.8691976   9.6670353  96.1671444  60.3578798
   9.6558994  95.7724242  59.4859302   9.8290993  95.4337517  60.9512570
   2.5901818  98.3623260  53.2273704   3.3823110  98.0214085  52.8120003
   2.8298468  98.4718235  54.1475857  10.6236945 100.5343036  45.7003949
   9.9724924 101.1197117  45.3137962  11.4181308 101.0649231  45.7598986
   4.5492572  97.6232173  46.0991083   5.3223448  97.0761161  45.9603959
   4.9017971  98.4876423  46.3105544   6.3877614  98.9508556  59.3057982
   6.0967480  99.8554187  59.1904649   7.0234599  98.9925083  60.0202052
   7.3133821  96.3285404  55.8959342   7.9097394  96.1041427  55.1816305
   7.3708793  95.5870150  56.4984790   6.8858850  93.7824840  43.7309533
   7.1384370  93.2606361  42.9692996   5.9483409  93.6190985  43.8336216
  11.9302132  92.7860618  51.5384276  12.7165222  92.3680041  51.1874693
  12.1940837  93.6906710  51.7065924  12.1012210  98.2233468  46.2372933
  11.4658043  98.2968095  46.9493837  11.7709616  98.8127067  45.5592012
  17.3310560  92.7235851  52.4417255  18.0635732  92.1535068  52.6755084
  16.5749915  92.3357452  52.8823760   6.6055138  95.6852946  45.9333908
   6.4891397  95.0097849  46.6014992   6.7157398  95.1985319  45.1166061
   8.9486679  95.1463093  49.6380597   8.5844887  94.6193714  50.3493518
   9.8053795  94.7561562  49.4647082  14.8535980  86.4357425  56.9011863
  14.5219305  87.3052836  56.6773078  14.2581593  86.1193709  57.5805894
   8.5892166  90.1752992  44.6341946   8.7566569  91.0433229  45.0012417
   8.3989335  90.3380274  43.7103235  11.3467500  98.6369971  56.3007776
  11.0468223  99.5395010  56.1923583  11.0018559  98.3702154  57.1528929
   4.7979981  95.0883768  52.3344480   3.8730477  94.9559982  52.5422172
   5.0464394  95.8677987  52.8314423  14.7464643  91.1552511  53.9805213
  13.8381521  91.0867920  53.6863974  14.6952239  91.6324456  54.8087039
   8.5681387  92.6310650  45.6188612   8.4481012  93.0767701  46.4574093
   7.8733976  92.9795967  45.0602150   2.1588792  94.7317042  53.1688269
   2.2881173  94.9851521  54.0827681   1.4786243  95.3244750  52.8492924
   6.3288279 105.4014292  49.2678744   6.2512309 106.3522117  49.3467224
   5.7249923 105.0560164  49.9253670   8.8205509  92.5742157  61.9240110
   8.0438843  93.1336077  61.9142975   9.4596072  93.0598940  62.4454981
  16.6126290  89.3568950  55.7583087  15.9700670  89.6501483  55.1122882
  16.1081218  89.2421870  56.5636284  14.2666453  93.1032123  46.4468946
  15.1784309  93.3359510  46.2716644  13.7576100  93.6869167  45.8844025
   7.0751881  95.3827610  61.4858077   7.8166566  95.9212654  61.2092901
   6.3688867  96.0093899  61.6429629  12.5507221  97.5256751  60.0830239
  12.9590577  97.0839161  59.3384871  11.8284483  96.9509378  60.3364432
   8.9038291  92.4629358  57.4563796   9.7499486  92.8868771  57.5998445
   8.8436929  91.8062982  58.1502359  12.8736036  98.0857941  53.8382528
  12.2444898  98.2503656  53.1358596  12.4861698  98.4999551  54.6093492
  16.7525268  99.0212379  51.1926892  16.0676306  99.4011281  50.6423925
  16.8369117  99.6307706  51.9258839  12.0537736  90.1233726  59.1144970
  11.8098668  90.8775786  58.5779245  12.3297667  90.5019074  59.9492217
  14.0076199  96.6672338  57.7922235  14.2193094  97.3104098  57.1156616
  13.9605947  95.8334655  57.3244165  11.6102428  89.2790159  54.6958807
  10.7486907  89.5771413  54.9875545  11.6364863  89.4960558  53.7639840
   8.4263998  97.8232350  51.1032613   8.8902343  98.1020053  50.3137235
   8.1620796  96.9215794  50.9205704   5.3188079  97.3703831  54.0412376
   5.8889436  97.7991099  53.4029861   5.9096190  97.0886416  54.7396562
   7.3632884  93.9455502  47.9122178   8.0656927  94.3976546  48.3796104
   7.0313512  93.3039321  48.5402071   5.8113245  92.5367259  62.2873387
   5.1811906  93.2183539  62.5208784   5.7049333  92.4250340  61.3426526
  15.1222027  99.5444294  55.9644592  15.9439471  99.1424481  55.6827274
  15.1184430  99.4412528  56.9160708   3.0572963  92.5683634  50.1722788
   2.2604126  92.6802328  50.6906284   2.8298555  92.9070286  49.3063679
   8.8878631  99.0928337  58.1205303   8.9523063  99.5548744  58.9563475
   8.1789554  98.4625702  58.2487613  23.2128020  95.8883042  52.3129564
  22.4591729  95.3190440  52.1573568  23.3475561  95.8545707  53.2600199
   8.6026648 100.7596445  47.9884283   8.4672323 101.6047980  48.4169131
   9.1436461 100.9615722  47.2250217   5.0893988  86.8388024  64.6498639
   4.6960933  86.2854223  65.3246283   5.9060128  87.1498603  65.0405156
   2.0556046  98.2771883  48.5612208   2.5680566  99.0715133  48.7117773
   2.7078758  97.5798173  48.4945810   3.8650930 101.3937639  50.6434962
   4.0417559 102.3155604  50.4555945   4.6607764 101.0796058  51.0729341
   8.0061949  88.2545903  62.2418895   8.7471662  88.8553057  62.1623358
   8.2379872  87.5123541  61.6836938   3.1503287  93.4402271  60.5197125
   3.0356802  92.5387528  60.8204224   2.2947805  93.6865967  60.1681941
  10.2295125 101.3820011  62.1184625   9.7858979 100.5956390  61.8005530
  10.8912338 101.5699162  61.4528516   4.9882246 102.9115813  56.6445304
   5.5389671 102.7832876  55.8722298   4.1493722 103.2110702  56.2940197
  12.3276363 101.6622811  60.1466027  12.3094838 102.4831692  59.6546296
  13.2496283 101.5376886  60.3716168   8.7849417  99.1766940  60.9889535
   9.3177754  98.4155229  60.7588843   8.2563498  98.8840592  61.7313689
  11.9519112  84.2827006  56.5183177  11.6083381  85.1728648  56.4422287
  12.3198074  84.0928664  55.6552762  11.9169395  94.2735618  45.0255612
  11.4016018  95.0440222  45.2643999  11.6446703  93.6000754  45.6488673
   9.5016506  89.1185318  50.0840850   8.6458102  88.7292169  49.9046489
   9.9143457  89.1977279  49.2240636  11.0315652  86.6531662  54.4832410
  10.5280448  86.6161797  53.6700215  11.3246259  87.5624404  54.5429067
   7.2758538  86.7370391  53.4898592   8.1411535  86.5413200  53.1304481
   7.3436047  86.5080743  54.4167948  16.8903669  97.0267972  46.9608785
  16.1133111  96.6879132  46.5163947  17.5695150  97.0320595  46.2863750
  11.7055698  92.1462710  46.8515393  11.4005833  92.4608859  47.7025536
  12.6586140  92.2244130  46.8942726  10.1502130  98.3052933  48.5008347
   9.6223491  97.5705693  48.1881584   9.6489632  99.0827609  48.2548315
  15.1294976  96.5001953  53.6175393  14.4718650  97.1901215  53.7055522
  15.9335375  96.8898385  53.9609380   4.8820857  88.9672599  50.8614959
   5.4564609  88.7447781  50.1288152   5.4691840  89.0361294  51.6143560
  13.9400434  94.8546326  51.6679335  14.4532316  95.4876318  52.1701045
  14.5901658  94.2547522  51.3022695   5.2090444  90.9977060  44.8810844
   4.3727757  91.3351747  45.2020119   5.0695214  90.8626040  43.9437981
   7.1843525  85.8413848  49.5890028   6.5307937  85.5262865  48.9646643
   7.1423999  85.2189589  50.3149851   8.2954730  96.1233143  41.5043320
   7.3881791  95.8922397  41.7034469   8.7925762  95.3270762  41.6917302
  11.2022809 104.8330650  44.4240006  10.5284507 105.1362347  45.0324964
  11.5888631 105.6359731  44.0745463  10.4181265  92.3295782  53.9137676
   9.5003827  92.5510729  53.7559364  10.8341409  92.4042092  53.0549383
  11.2016313  93.7287197  49.0440356  11.9488132  94.2408595  48.7347478
  11.4707903  93.4071250  49.9044749   9.4742963  96.2245738  46.0267310
   8.5654182  95.9404771  46.1239780   9.5038047  96.6444817  45.1670617
  14.7062231  99.8352328  49.7958478  14.2524558  98.9943237  49.8523668
  14.0756197 100.4713726  50.1333258  13.6495150  90.7644314  51.0259145
  12.9117907  90.2521700  51.3569388  13.9021924  90.3244695  50.2142422
  13.1495170 101.6728824  50.7308296  13.4418144 102.2333881  50.0120661
  13.6593790 101.9657385  51.4861455  13.7506777  83.5420566  51.6200914
  14.0565654  82.6817929  51.3326830  14.4759382  84.1338186  51.4199908
   8.0227857  93.8374359  52.1277106   8.0776467  92.8848195  52.0519582
   7.2119059  93.9933798  52.6118404   9.1719051  97.7654482  43.3655389
   8.7338481  97.0490341  42.9061026   9.9129492  97.9930597  42.8040480
   5.9620217  92.4551418  49.8867484   5.1488083  92.7545589  50.2932677
   6.4579211  92.0607107  50.6041967   8.1128795 102.4509175  51.8201749
   8.0704974 102.6770022  50.8910281   9.0291494 102.2172550  51.9687550
  11.5594429  92.9193243  58.7182378  11.9143817  93.1464716  59.5776844
  12.2066560  93.2511620  58.0959634  17.2892166  96.0411679  49.4231707
  17.1510064  96.2313275  48.4952897  16.9328385  96.8031062  49.8799758
   5.4534292  90.0269774  55.5028719   6.0933671  89.8858533  54.8051683
   4.6211822  89.7404287  55.1267321  17.3161545  98.1088206  54.4342979
  17.7498052  98.0163495  55.2826033  18.0293126  98.0845706  53.7962995
   6.2294596  99.3272204  51.6163712   7.0235194  98.8322524  51.4146287
   5.5186288  98.7990067  51.2531417  11.0489440 101.7090300  55.9676079
  11.1026463 102.2781236  56.7353795  10.1804222 101.8792185  55.6030117
   2.5377359  93.4715286  47.6923464   1.6074947  93.4099742  47.9093427
   2.6334831  92.9491239  46.8960106   2.4562908  89.9970099  50.2801706
   2.7169726  90.9115432  50.1710867   3.2780081  89.5294541  50.4298319
   3.9287834  91.4107856  57.4500531   4.6010887  91.2025218  56.8013180
   3.1017620  91.2129942  57.0105763  18.1777095  98.1511906  56.9675864
  18.3712985  99.0557717  57.2135139  18.0777713  97.6919326  57.8014449
   9.8313406  88.0369797  59.4666192   9.1841321  88.7359747  59.3730668
  10.6014421  88.4705941  59.8342440  13.2392204  98.3018649  62.5416745
  13.0877710  98.0729201  61.6246829  13.2296883  99.2589251  62.5548090
  10.0077540  95.8750562  57.5263011  10.9369600  96.0261722  57.3531979
   9.5868570  95.9634583  56.6711658   8.8065872  99.9001226  55.2961549
   8.6676957  99.5320011  56.1687487   8.0180468 100.4148866  55.1245507
   9.4014024 105.0010323  46.6387085   9.5765779 104.5298366  47.4532708
   8.7146812 105.6276089  46.8668346  10.3571087  99.2782829  52.6850387
  10.0220920  99.2383599  53.5808037   9.8575033  98.6127545  52.2120797
   4.3315331  94.6850459  58.2102968   4.1935129  93.9530698  58.8114507
   5.2420254  94.5959359  57.9287156  13.2930279  96.6238863  42.9587446
  12.6759449  95.8985692  42.8620499  12.8246767  97.3848224  42.6154521
   6.9597632  94.3970418  57.6986647   7.6697250  93.7563611  57.6573266
   6.9166940  94.6483313  58.6212828  14.9484410 101.3337772  60.6193227
  14.8896956 100.6496992  59.9523810  15.3503929 102.0756762  60.1673853
   5.6726566  91.3835636  59.5182287   5.1363923  90.9326375  60.1703883
   5.0843274  91.5181545  58.7752751   3.9675109 108.1499686  53.4126946
   4.2071707 108.7818210  54.0905964   3.1244305 107.7987726  53.6992305
   5.0828824  90.8424288  42.0808751   4.2058291  90.7213088  41.7170997
   5.5586578  90.0510366  41.8287639  14.9501817  99.2977356  58.8507206
  14.0628596  98.9603277  58.9733605  15.5200369  98.5660387  59.0875972
   1.4065687  90.5191644  56.6035281   1.3223875  89.9117314  55.8685691
   0.5848393  91.0100662  56.6044778   8.4802971 103.9578808  55.8168450
   8.4073142 104.7633780  56.3287754   8.0380364 104.1570774  54.9916471
   8.2692751 103.1950578  49.3271271   7.4860272 103.7372258  49.4209496
   8.9685496 103.7124558  49.7265512  11.5789401  89.0045208  51.9705477
  12.0758100  88.2515170  51.6506547  10.8076382  89.0409524  51.4048686
  19.4319158  94.7085573  53.6123768  19.4209034  95.5910288  53.2417701
  18.5636537  94.3557124  53.4178305  10.9401654 103.8565642  57.9726608
  11.6529627 104.4913107  57.9002510  10.4491683 103.9529508  57.1566610
  12.6619181  97.7616895  49.5443900  11.7275460  97.8818357  49.3748604
  12.8395850  96.8589361  49.2803910   8.1624369  91.1462590  51.6977161
   7.7922157  90.5933631  52.3858067   8.6583462  90.5420724  51.1452161
  16.0491733  93.6034214  50.0793934  16.5152185  94.4362206  50.0054237
  16.4999233  93.1379196  50.7839193   5.9913568 101.6060086  58.7932179
   6.6923027 102.2396568  58.9461573   5.5208683 101.9474817  58.0327818
  14.1167964  99.9478035  47.0780086  14.3927808  99.8334630  47.9873960
  13.2472463  99.5495520  47.0392259  14.0208395  85.9714801  54.1184835
  13.1071475  86.2019028  54.2867042  14.4501497  86.0553245  54.9698868
  13.7914854  94.1604693  56.6184729  13.1386304  94.4080600  55.9637182
  14.1695234  93.3468831  56.2847207  10.7522028 104.1964386  50.7212900
  10.9344422 103.3786042  51.1840652  11.5755014 104.4132078  50.2837790
  11.0864193 103.1232571  47.9827948  11.6151960 102.6125026  47.3698110
  11.3492413 102.8075101  48.8473481   9.8402427  94.9024504  63.1050766
   9.1643064  94.8018633  63.7753142  10.6630061  94.7463718  63.5686764
   1.5881286 101.1396441  55.7263282   2.1734723 100.3940128  55.8591186
   1.3906124 101.4500397  56.6099946   4.4419941 104.1747688  50.7425724
   3.7730316 104.6593816  50.2589764   4.3032811 104.4216908  51.6569103
   8.5825210 106.2091431  57.3408382   9.1343518 106.3723053  58.1057468
   8.9231403 106.7995869  56.6688407   3.5589703  88.5566581  57.9430267
   3.6231030  89.4181412  57.5307665   3.4956823  87.9440583  57.2102626
   3.0341976  90.6289714  61.5903301   3.6614014  90.2466791  62.2040826
   2.1769894  90.4103916  61.9558994  13.4336084 101.0352689  63.1957037
  13.9775988 101.6482647  62.7011992  12.8522929 101.5932267  63.7124050
  11.7193597 104.1573407  54.3272065  11.5944737 103.3563147  53.8183010
  12.3772688 104.6519600  53.8386035   3.3401765  90.5122139  53.5049205
   2.6188351  91.1258107  53.3656678   4.1295021  91.0479904  53.4265851
  13.7828505 101.9582427  55.9551615  12.8358841 101.8387778  55.8829941
  14.1311279 101.0704925  56.0377876   6.1428079  87.8476566  59.7789857
   6.6662481  88.0938863  60.5416166   5.9240412  88.6796601  59.3592994
   1.5395360  90.1180241  47.6460981   1.2108066  89.2377619  47.4636087
   1.8934731  90.0627909  48.5337371  10.7874939 101.7535143  52.1555967
  10.6399901 100.8251851  52.3363537  11.6128432 101.7755234  51.6713042
   4.6537183  90.4053210  48.0136459   4.9933256  90.9339132  47.2915067
   5.1009304  90.7433616  48.7895026  14.3909061 102.5763702  53.2420840
  15.3155608 102.3706563  53.1045291  14.2224364 102.3280103  54.1510181
   7.3480624  88.7890261  57.4639527   7.0077444  87.9898074  57.8660207
   6.6419630  89.0891972  56.8916360   7.9997096  85.8739574  55.9166850
   8.8223165  85.4000052  55.7945740   8.2435159  86.6530057  56.4165536
   6.6405330  88.9027832  46.2129752   7.3613693  89.2809085  45.7093469
   6.0170634  89.6216709  46.3164730  10.7836453  89.6072981  47.1488084
  11.0000067  90.4897619  46.8476912  10.3030520  89.2159194  46.4193726
   5.5235674  92.5658694  53.7258829   5.3780255  92.8798997  54.6183110
   5.0460878  93.1843594  53.1729727   7.3832057  89.5561242  53.7739718
   7.3693626  88.6602335  53.4372016   8.1004485  89.5631906  54.4078004
   9.2358188  89.9898582  55.8192846   8.9775966  90.9115653  55.8177176
   8.7043228  89.5929017  56.5093310  14.1804377 103.0949369  48.5982931
  14.3541254 102.5295792  47.8456784  14.6733268 103.8950264  48.4162421
   6.7868953  88.4375622  49.0427288   6.9084864  87.5092269  49.2418176
   6.4970996  88.4514308  48.1305604   9.6560144  86.1230533  52.1794008
   9.6781840  86.1869866  51.2245988  10.0728203  85.2835042  52.3734514
  20.0343768  95.8585792  50.2173231  20.4774914  95.1093118  49.8192354
  19.1570278  95.8495929  49.8346963  15.1679549 102.4116134  45.6979829
  15.8630454 103.0322827  45.9167144  15.5102699 101.5611485  45.9732207
  17.0670972  99.8615839  47.2267160  17.5922297 100.2003112  46.5016480
  16.9793325  98.9262855  47.0430295   8.7291021 103.7749913  59.3557037
   9.0378148 103.5299060  60.2279736   9.5266503 103.9796552  58.8675907
   8.7511633 105.9287823  51.5862413   8.3116623 105.4364201  52.2795270
   9.5019750 105.3860790  51.3454489   1.2303972 102.1199364  51.5887041
   2.0561992 101.8203135  51.2085685   0.8798024 101.3506986  52.0376830
   6.1985505 101.4725832  53.6584715   5.5765515 100.8096537  53.3586943
   6.8690372 101.4986964  52.9758363   6.2710033  89.9507620  63.2517221
   6.3198188  90.8269743  62.8694991   6.8132547  89.4085013  62.6788864
  16.7564878 100.4948743  62.5318358  15.9660422 100.4772882  61.9922858
  16.5198233 101.0337037  63.2867395  16.8762754  97.3441209  59.8451087
  16.9260758  97.1791217  60.7866609  16.7676677  96.4768468  59.4548967
   5.7599012 100.0229755  47.1343176   5.9087133 100.7065220  46.4809848
   6.5665456 100.0034845  47.6492631  14.1666516  93.3272137  61.1610393
  15.0676379  93.1878602  60.8694391  14.2414490  93.4926592  62.1008571
   8.5009321  90.7038992  60.0063580   7.6312631  90.9972558  59.7346168
   8.7368802  91.2879437  60.7270843  18.3780950  99.7638151  60.0893108
  18.0865759 100.1268131  60.9256569  17.7653082  99.0505159  59.9106440
  19.5776633  97.3291031  52.6095678  20.4123524  97.7680835  52.7733239
  19.7135761  96.8529684  51.7903924  16.6268139  94.8870766  58.5573166
  17.1022260  95.0798412  57.7492018  15.7033704  94.9429951  58.3116550
   3.5151645  96.0494933  48.1404245   3.2697687  95.1457263  48.3384455
   3.6847560  96.0512083  47.1983723  11.2048355  86.9218609  57.5229000
  11.7230299  87.6579636  57.1975489  10.8503488  87.2282602  58.3575759
   2.7847293  91.7823290  45.6390406   2.0916538  91.8567645  44.9830442
   2.5399045  91.0183634  46.1611923  11.4560949  83.3418892  53.0429897
  11.7362703  82.6742081  53.6690323  12.2411556  83.5347987  52.5304561
   9.2594418 102.5177886  44.6054923   8.6868385 103.1368073  44.1525395
   9.8327211 103.0677247  45.1394845  15.3269808  91.7636526  56.7901472
  16.2787231  91.8634623  56.8113696  15.1573258  90.9714794  57.2999556
  13.3484187  88.8492109  56.9760873  12.7534119  89.1297122  56.2807361
  13.0633884  89.3386010  57.7477614  12.4791678 102.8015036  45.7363505
  13.4122351 102.7360597  45.9396381  12.3914890 103.6371303  45.2778038
  15.1079694 102.1180906  42.6967453  15.0293326 101.7840770  43.5903211
  15.9289361 102.6102674  42.6958925  17.8057885  94.9842645  55.9043771
  17.7734206  94.0458646  56.0903455  18.4158509  95.0626682  55.1709596
   9.6441216  93.8538698  41.9470976  10.5900321  93.7244906  42.0159394
   9.2655461  93.1153360  42.4240404  17.9552374  91.7753689  55.9502055
  17.4391423  90.9912145  55.7631984  18.8392322  91.4472405  56.1148574
  15.6163101  85.5194704  51.9097867  15.4187922  85.2109793  52.7941199
  16.2262806  86.2456343  52.0395797  23.6234435  96.0458652  55.0449808
  24.3537824  95.7843940  55.6057512  23.0141381  95.3087374  55.0851876
  21.7049732  94.1866515  55.6424259  20.9782896  94.0522480  55.0340751
  21.2897019  94.4943343  56.4480978   9.5279909  97.9056444  63.4071632
  10.4482918  98.0835043  63.6011679   9.4929492  96.9612490  63.2551332
   7.8284133  91.7788675  41.8825861   6.9215589  91.4821787  41.9588574
   8.1060114  91.4818493  41.0160147   2.5241981  95.8157479  56.0494414
   2.7427991  96.7474587  56.0682447   2.9367755  95.4565454  56.8349217
   9.4446199  86.3225564  48.0370102   8.6346927  85.9772649  48.4125348
  10.1330616  86.0133108  48.6257714  11.3736747  85.4003611  49.6594399
  11.9267786  85.8199065  50.3184422  11.6106834  84.4739359  49.7017355
   7.3969847  91.3890685  65.4397163   7.2966574  92.3385042  65.3709254
   7.1791389  91.0608924  64.5673233   6.5982918  88.6375610  42.0237840
   7.4602082  88.9630508  42.2833657   6.7833262  87.8507106  41.5110906
  14.7515555  87.5104136  49.1673063  14.1714224  88.1688940  48.7851115
  14.4851487  86.6881481  48.7560480  13.2019121  86.9109194  51.3694383
  13.7018899  87.0225729  50.5608702  13.8454729  86.6070247  52.0095192
   7.2601117  94.8187824  64.2562224   6.7768198  95.6188184  64.4626113
   7.3462056  94.8295769  63.3029668   0.5287076  96.6516203  52.1784044
   0.5057764  96.7503891  51.2265927   0.8387713  97.4981354  52.5001210
   3.1874454  98.7092358  56.2930658   4.1417708  98.6776301  56.2260590
   2.9886978  98.2482982  57.1080884   3.7773836  97.2793474  58.8601456
   4.5966725  97.7737553  58.8836293   4.0510644  96.3625443  58.8319023
  13.5340433  89.6704227  48.2229411  12.6466288  89.9553877  48.0049606
  13.9494422  89.5097990  47.3756688  16.8854969  89.6950748  51.9383750
  17.6615359  90.1847200  52.2108367  16.1603103  90.1208802  52.3955620
  19.3227527  90.4078367  52.9957691  19.9172018  90.1674103  52.2850999
  19.3954111  89.6885498  53.6231227   1.5424683 104.2511978  53.3100856
   1.4079151 103.4912379  52.7438854   1.1256745 104.9752878  52.8429645
  12.6783646  99.4348901  42.3177431  13.3819496  99.6398904  42.9335087
  11.9546295 100.0025663  42.5826515  13.5081456  95.1858763  48.4379701
  13.4516658  95.6427314  47.5987334  14.0609799  94.4249447  48.2602544
  17.3186262  90.9748495  49.2629821  17.0623196  90.5745130  50.0938029
  16.6939130  91.6892289  49.1379960  21.6298600  93.7144568  51.7701112
  21.0698158  93.7837757  52.5432674  21.0242103  93.5385552  51.0500609
   4.6993809 105.1481295  53.5219299   4.5826193 106.0926727  53.4197989
   3.8786255 104.8454856  53.9105098  14.5870343  99.8731431  44.3675891
  15.4215947  99.4412629  44.1853366  14.4254686  99.7013444  45.2952786
  14.2416236  96.3763544  45.7332231  14.1865039  96.2107815  44.7920675
  13.6162291  97.0839577  45.8894420  11.5562143  98.6812456  65.0585793
  12.4253302  98.8553108  64.6972428  11.0768894  99.5006873  64.9361523
   7.5512361  85.8771653  45.3117549   7.5391031  86.8213493  45.4685820
   8.4435783  85.6941798  45.0177010   5.7248323 105.8009557  56.7375227
   6.6275570 105.8333167  57.0541722   5.4985693 104.8710008  56.7521563
   7.4801925 104.5540543  53.3985306   6.5297556 104.5542405  53.2849678
   7.7834411 103.8073278  52.8821340  11.3664481  82.4714430  49.5663486
  10.5996876  81.9172916  49.7120168  11.7775185  82.5436298  50.4277637
   3.3706242  88.7599225  63.6568667   4.2337703  88.4036030  63.8671992
   2.7971652  88.4213120  64.3444071  23.2154618 110.3901082  54.4631068
  23.8533028 110.2707829  53.7594408  23.0975461 111.3381926  54.5219020
  20.0244325 110.3428510  54.3992593  19.6862836 110.2269575  53.5113128
  20.8934093 109.9419675  54.3793599  15.8831140 112.1963986  50.3889484
  15.3196006 112.1053923  49.6205771  15.7683536 111.3763891  50.8691976
  20.5064108 111.4963362  60.3578798  20.4952749 111.1016160  59.4859302
  20.6684747 110.7629434  60.9512570  13.4295572 113.6915178  53.2273704
  14.2216864 113.3506003  52.8120003  13.6692223 113.8010153  54.1475857
  21.4630699 115.8634954  45.7003949  20.8118679 116.4489034  45.3137962
  22.2575062 116.3941149  45.7598986  15.3886326 112.9524091  46.0991083
  16.1617202 112.4053078  45.9603959  15.7411725 113.8168340  46.3105544
  17.2271369 114.2800473  59.3057982  16.9361235 115.1846104  59.1904649
  17.8628353 114.3217001  60.0202052  18.1527576 111.6577322  55.8959342
  18.7491148 111.4333344  55.1816305  18.2102547 110.9162067  56.4984790
  17.7252604 109.1116757  43.7309533  17.9778125 108.5898279  42.9692996
  16.7877163 108.9482903  43.8336216  22.7695887 108.1152536  51.5384276
  23.5558976 107.6971959  51.1874693  23.0334591 109.0198628  51.7065924
  22.9405964 113.5525386  46.2372933  22.3051797 113.6260012  46.9493837
  22.6103371 114.1418985  45.5592012  28.1704314 108.0527769  52.4417255
  28.9029486 107.4826986  52.6755084  27.4143670 107.6649369  52.8823760
  17.4448893 111.0144863  45.9333908  17.3285151 110.3389767  46.6014992
  17.5551153 110.5277237  45.1166061  19.7880434 110.4755010  49.6380597
  19.4238641 109.9485631  50.3493518  20.6447550 110.0853479  49.4647082
  25.6929734 101.7649343  56.9011863  25.3613059 102.6344754  56.6773078
  25.0975348 101.4485627  57.5805894  19.4285921 105.5044910  44.6341946
  19.5960323 106.3725146  45.0012417  19.2383090 105.6672192  43.7103235
  22.1861254 113.9661889  56.3007776  21.8861977 114.8686928  56.1923583
  21.8412314 113.6994072  57.1528929  15.6373735 110.4175686  52.3344480
  14.7124232 110.2851900  52.5422172  15.8858149 111.1969905  52.8314423
  25.5858398 106.4844429  53.9805213  24.6775275 106.4159838  53.6863974
  25.5345994 106.9616374  54.8087039  19.4075142 107.9602567  45.6188612
  19.2874767 108.4059618  46.4574093  18.7127730 108.3087885  45.0602150
  12.9982547 110.0608959  53.1688269  13.1274928 110.3143438  54.0827681
  12.3179998 110.6536667  52.8492924  17.1682034 120.7306209  49.2678744
  17.0906063 121.6814034  49.3467224  16.5643677 120.3852082  49.9253670
  19.6599264 107.9034075  61.9240110  18.8832598 108.4627995  61.9142975
  20.2989827 108.3890858  62.4454981  27.4520044 104.6860867  55.7583087
  26.8094424 104.9793401  55.1122882  26.9474973 104.5713788  56.5636284
  25.1060208 108.4324041  46.4468946  26.0178064 108.6651427  46.2716644
  24.5969855 109.0161085  45.8844025  17.9145636 110.7119528  61.4858077
  18.6560320 111.2504572  61.2092901  17.2082621 111.3385817  61.6429629
  23.3900976 112.8548669  60.0830239  23.7984332 112.4131079  59.3384871
  22.6678237 112.2801296  60.3364432  19.7432046 107.7921275  57.4563796
  20.5893241 108.2160689  57.5998445  19.6830683 107.1354900  58.1502359
  23.7129790 113.4149859  53.8382528  23.0838653 113.5795573  53.1358596
  23.3255452 113.8291469  54.6093492  27.5919022 114.3504297  51.1926892
  26.9070060 114.7303198  50.6423925  27.6762871 114.9599624  51.9258839
  22.8931491 105.4525644  59.1144970  22.6492423 106.2067704  58.5779245
  23.1691421 105.8310991  59.9492217  24.8469954 111.9964256  57.7922235
  25.0586849 112.6396016  57.1156616  24.7999702 111.1626573  57.3244165
  22.4496183 104.6082077  54.6958807  21.5880662 104.9063330  54.9875545
  22.4758617 104.8252476  53.7639840  19.2657752 113.1524267  51.1032613
  19.7296098 113.4311970  50.3137235  19.0014550 112.2507712  50.9205704
  16.1581833 112.6995749  54.0412376  16.7283190 113.1283017  53.4029861
  16.7489945 112.4178333  54.7396562  18.2026638 109.2747420  47.9122178
  18.9050681 109.7268463  48.3796104  17.8707267 108.6331238  48.5402071
  16.6507000 107.8659176  62.2873387  16.0205660 108.5475457  62.5208784
  16.5443088 107.7542258  61.3426526  11.9451972 107.5330972  53.2139312
  11.1551026 107.7888501  52.7379422  12.4363219 108.3479310  53.3191352
  25.9615782 114.8736211  55.9644592  26.7833225 114.4716399  55.6827274
  25.9578184 114.7704446  56.9160708  13.8966717 107.8975551  50.1722788
  13.0997881 108.0094246  50.6906284  13.6692310 108.2362204  49.3063679
  19.7272385 114.4220255  58.1205303  19.7916818 114.8840662  58.9563475
  19.0183309 113.7917620  58.2487613  10.2289675 107.7861463  55.6454302
  10.4797713 108.6708473  55.9111878  10.7649223 107.6066064  54.8729394
  34.0521775 111.2174960  52.3129564  33.2985483 110.6482358  52.1573568
  34.1869316 111.1837624  53.2600199  19.4420403 116.0888362  47.9884283
  19.3066077 116.9339898  48.4169131  19.9830215 116.2907640  47.2250217
  15.9287742 102.1679942  64.6498639  15.5354688 101.6146141  65.3246283
  16.7453883 102.4790521  65.0405156  12.8949800 113.6063800  48.5612208
  13.4074321 114.4007050  48.7117773  13.5472513 112.9090091  48.4945810
  14.7044685 116.7229557  50.6434962  14.8811313 117.6447521  50.4555945
  15.5001518 116.4087976  51.0729341  18.8455703 103.5837821  62.2418895
  19.5865417 104.1844974  62.1623358  19.0773626 102.8415459  61.6836938
  13.9897041 108.7694188  60.5197125  13.8750556 107.8679446  60.8204224
  13.1341559 109.0157885  60.1681941  21.0688879 116.7111929  62.1184625
  20.6252733 115.9248307  61.8005530  21.7306093 116.8991079  61.4528516
  15.8276000 118.2407730  56.6445304  16.3783425 118.1124794  55.8722298
  14.9887476 118.5402619  56.2940197  23.1670117 116.9914729  60.1466027
  23.1488593 117.8123610  59.6546296  24.0890037 116.8668804  60.3716168
  19.6243171 114.5058858  60.9889535  20.1571508 113.7447146  60.7588843
  19.0957252 114.2132510  61.7313689  22.7912866  99.6118924  56.5183177
  22.4477136 100.5020566  56.4422287  23.1591829  99.4220582  55.6552762
  10.8598717 111.9352455  49.3371779  11.6973939 112.3449463  49.1205487
  11.0376985 110.9951897  49.3071973  22.7563149 109.6027535  45.0255612
  22.2409772 110.3732140  45.2643999  22.4840457 108.9292671  45.6488673
  20.3410260 104.4477236  50.0840850  19.4851856 104.0584086  49.9046489
  20.7537212 104.5269197  49.2240636  21.8709407 101.9823579  54.4832410
  21.3674202 101.9453714  53.6700215  22.1640014 102.8916322  54.5429067
  18.1152293 102.0662309  53.4898592  18.9805289 101.8705118  53.1304481
  18.1829801 101.8372661  54.4167948  27.7297423 112.3559890  46.9608785
  26.9526866 112.0171049  46.5163947  28.4088904 112.3612513  46.2863750
  22.5449452 107.4754627  46.8515393  22.2399588 107.7900776  47.7025536
  23.4979894 107.5536047  46.8942726  20.9895884 113.6344851  48.5008347
  20.4617246 112.8997610  48.1881584  20.4883387 114.4119527  48.2548315
  25.9688730 111.8293871  53.6175393  25.3112404 112.5193132  53.7055522
  26.7729129 112.2190303  53.9609380  15.7214612 104.2964517  50.8614959
  16.2958364 104.0739698  50.1288152  16.3085594 104.3653211  51.6143560
  24.7794189 110.1838244  51.6679335  25.2926071 110.8168236  52.1701045
  25.4295413 109.5839439  51.3022695  16.0484199 106.3268978  44.8810844
  15.2121511 106.6643664  45.2020119  15.9088968 106.1917958  43.9437981
  18.0237279 101.1705766  49.5890028  17.3701692 100.8554783  48.9646643
  17.9817753 100.5481506  50.3149851  19.1348484 111.4525061  41.5043320
  18.2275546 111.2214314  41.7034469  19.6319516 110.6562680  41.6917302
  22.0416563 120.1622568  44.4240006  21.3678262 120.4654265  45.0324964
  22.4282385 120.9651648  44.0745463  21.2575020 107.6587699  53.9137676
  20.3397581 107.8802646  53.7559364  21.6735163 107.7334010  53.0549383
  22.0410067 109.0579115  49.0440356  22.7881886 109.5700512  48.7347478
  22.3101657 108.7363168  49.9044749  20.3136718 111.5537656  46.0267310
  19.4047937 111.2696689  46.1239780  20.3431801 111.9736734  45.1670617
  25.5455985 115.1644245  49.7958478  25.0918312 114.3235155  49.8523668
  24.9149952 115.8005644  50.1333258  24.4888905 106.0936231  51.0259145
  23.7511661 105.5813617  51.3569388  24.7415678 105.6536613  50.2142422
  23.9888924 117.0020742  50.7308296  24.2811899 117.5625799  50.0120661
  24.4987545 117.2949303  51.4861455  24.5900532  98.8712483  51.6200914
  24.8959409  98.0109847  51.3326830  25.3153137  99.4630103  51.4199908
  10.8824888 109.2743170  50.0082512  10.6849288 108.6812531  49.2833579
  10.3271552 108.9695380  50.7258451  18.8621612 109.1666276  52.1277106
  18.9170221 108.2140113  52.0519582  18.0512814 109.3225715  52.6118404
  20.0112805 113.0946399  43.3655389  19.5732235 112.3782258  42.9061026
  20.7523246 113.3222514  42.8040480  16.8013972 107.7843336  49.8867484
  15.9881837 108.0837507  50.2932677  17.2972966 107.3899025  50.6041967
  18.9522549 117.7801093  51.8201749  18.9098728 118.0061939  50.8910281
  19.8685248 117.5464468  51.9687550  22.3988183 108.2485161  58.7182378
  22.7537571 108.4756634  59.5776844  23.0460315 108.5803537  58.0959634
  28.1285920 111.3703596  49.4231707  27.9903819 111.5605192  48.4952897
  27.7722139 112.1322979  49.8799758  16.2928046 105.3561692  55.5028719
  16.9327426 105.2150451  54.8051683  15.4605577 105.0696205  55.1267321
  28.1555300 113.4380123  54.4342979  28.5891806 113.3455413  55.2826033
  28.8686881 113.4137624  53.7962995  17.0688350 114.6564122  51.6163712
  17.8628949 114.1614442  51.4146287  16.3580043 114.1281985  51.2531417
  21.8883195 117.0382218  55.9676079  21.9420217 117.6073154  56.7353795
  21.0197976 117.2084103  55.6030117  13.3771114 108.8007204  47.6923464
  12.4468702 108.7391659  47.9093427  13.4728586 108.2783157  46.8960106
  13.2956663 105.3262017  50.2801706  13.5563480 106.2407350  50.1710867
  14.1173835 104.8586459  50.4298319  14.7681588 106.7399774  57.4500531
  15.4404642 106.5317136  56.8013180  13.9411375 106.5421860  57.0105763
  29.0170849 113.4803824  56.9675864  29.2106739 114.3849635  57.2135139
  28.9171468 113.0211243  57.8014449  20.6707160 103.3661715  59.4666192
  20.0235075 104.0651664  59.3730668  21.4408176 103.7997859  59.8342440
  24.0785958 113.6310567  62.5416745  23.9271464 113.4021119  61.6246829
  24.0690638 114.5881168  62.5548090  20.8471294 111.2042480  57.5263011
  21.7763354 111.3553639  57.3531979  20.4262324 111.2926500  56.6711658
  19.6459626 115.2293144  55.2961549  19.5070712 114.8611928  56.1687487
  18.8574222 115.7440783  55.1245507  20.2407778 120.3302240  46.6387085
  20.4159534 119.8590284  47.4532708  19.5540566 120.9568007  46.8668346
  21.1964841 114.6074747  52.6850387  20.8614674 114.5675517  53.5808037
  20.6968787 113.9419463  52.2120797  15.1709085 110.0142377  58.2102968
  15.0328883 109.2822616  58.8114507  16.0814009 109.9251277  57.9287156
  24.1324033 111.9530781  42.9587446  23.5153204 111.2277609  42.8620499
  23.6640522 112.7140141  42.6154521  17.7991386 109.7262336  57.6986647
  18.5091005 109.0855528  57.6573266  17.7560694 109.9775231  58.6212828
  25.7878165 116.6629689  60.6193227  25.7290711 115.9788910  59.9523810
  26.1897683 117.4048679  60.1673853  16.5120320 106.7127554  59.5182287
  15.9757677 106.2618292  60.1703883  15.9237028 106.8473463  58.7752751
  14.8068864 123.4791603  53.4126946  15.0465462 124.1110127  54.0905964
  13.9638060 123.1279643  53.6992305  15.9222579 106.1716205  42.0808751
  15.0452045 106.0505006  41.7170997  16.3980332 105.3802284  41.8287639
  25.7895572 114.6269273  58.8507206  24.9022351 114.2895195  58.9733605
  26.3594123 113.8952305  59.0875972   7.4424719 110.9593365  52.1750258
   8.1295759 110.6455095  51.5871273   7.2872848 111.8634730  51.9017509
  12.2459441 105.8483562  56.6035281  12.1617630 105.2409231  55.8685691
  11.4242148 106.3392580  56.6044778  19.3196725 119.2870726  55.8168450
  19.2466897 120.0925697  56.3287754  18.8774118 119.4862692  54.9916471
  19.1086505 118.5242496  49.3271271  18.3254027 119.0664176  49.4209496
  19.8079250 119.0416475  49.7265512  22.4183155 104.3337125  51.9705477
  22.9151855 103.5807088  51.6506547  21.6470137 104.3701442  51.4048686
  30.2712913 110.0377491  53.6123768  30.2602789 110.9202206  53.2417701
  29.4030292 109.6849042  53.4178305  21.7795409 119.1857560  57.9726608
  22.4923381 119.8205025  57.9002510  21.2885438 119.2821426  57.1566610
  23.5012936 113.0908812  49.5443900  22.5669215 113.2110275  49.3748604
  23.6789604 112.1881279  49.2803910  19.0018124 106.4754508  51.6977161
  18.6315911 105.9225549  52.3858067  19.4977216 105.8712642  51.1452161
  26.8885487 108.9326132  50.0793934  27.3545939 109.7654123  50.0054237
  27.3392988 108.4671113  50.7839193  16.8307322 116.9352003  58.7932179
  17.5316782 117.5688486  58.9461573  16.3602437 117.2766735  58.0327818
  24.9561718 115.2769953  47.0780086  25.2321562 115.1626548  47.9873960
  24.0866217 114.8787438  47.0392259  24.8602150 101.3006719  54.1184835
  23.9465230 101.5310946  54.2867042  25.2895251 101.3845163  54.9698868
  24.6308608 109.4896611  56.6184729  23.9780059 109.7372518  55.9637182
  25.0088988 108.6760749  56.2847207  21.5915782 119.5256304  50.7212900
  21.7738177 118.7077960  51.1840652  22.4148768 119.7423996  50.2837790
  21.9257948 118.4524489  47.9827948  22.4545714 117.9416944  47.3698110
  22.1886167 118.1367019  48.8473481  20.6796181 110.2316422  63.1050766
  20.0036818 110.1310551  63.7753142  21.5023815 110.0755635  63.5686764
  12.4275040 116.4688358  55.7263282  13.0128477 115.7232046  55.8591186
  12.2299879 116.7792315  56.6099946  15.2813696 119.5039606  50.7425724
  14.6124071 119.9885733  50.2589764  15.1426565 119.7508826  51.6569103
   7.0192695 109.0393958  54.4467725   7.0576795 108.5057549  55.2404843
   6.5132988 108.5129164  53.8278702  19.4218964 121.5383349  57.3408382
  19.9737272 121.7014971  58.1057468  19.7625158 122.1287787  56.6688407
  14.3983458 103.8858499  57.9430267  14.4624784 104.7473330  57.5307665
  14.3350578 103.2732501  57.2102626  13.8735730 105.9581631  61.5903301
  14.5007769 105.5758709  62.2040826  13.0163649 105.7395833  61.9558994
  24.2729839 116.3644607  63.1957037  24.8169743 116.9774565  62.7011992
  23.6916683 116.9224185  63.7124050  10.6501273 107.7658061  47.5221656
  10.9454714 106.8568739  47.4688710   9.7489309 107.7445800  47.2002659
  22.5587352 119.4865325  54.3272065  22.4338491 118.6855065  53.8183010
  23.2166443 119.9811518  53.8386035  14.1795520 105.8414057  53.5049205
  13.4582106 106.4550025  53.3656678  14.9688776 106.3771822  53.4265851
  24.6222260 117.2874345  55.9551615  23.6752595 117.1679696  55.8829941
  24.9705033 116.3996843  56.0377876  16.9821833 103.1768484  59.7789857
  17.5056235 103.4230780  60.5416166  16.7634167 104.0088518  59.3592994
  12.3789114 105.4472158  47.6460981  12.0501821 104.5669537  47.4636087
  12.7328485 105.3919827  48.5337371  21.6268693 117.0827061  52.1555967
  21.4793656 116.1543768  52.3363537  22.4522187 117.1047152  51.6713042
  15.4930938 105.7345128  48.0136459  15.8327010 106.2631049  47.2915067
  15.9403058 106.0725534  48.7895026  25.2302815 117.9055620  53.2420840
  26.1549363 117.6998481  53.1045291  25.0618118 117.6572021  54.1510181
  18.1874378 104.1182179  57.4639527  17.8471199 103.3189992  57.8660207
  17.4813385 104.4183890  56.8916360  18.8390850 101.2031491  55.9166850
  19.6616920 100.7291969  55.7945740  19.0828914 101.9821975  56.4165536
  17.4799085 104.2319750  46.2129752  18.2007447 104.6101002  45.7093469
  16.8564389 104.9508626  46.3164730  21.6230208 104.9364899  47.1488084
  21.8393822 105.8189536  46.8476912  21.1424275 104.5451112  46.4193726
  16.3629429 107.8950612  53.7258829  16.2174010 108.2090915  54.6183110
  15.8854633 108.5135512  53.1729727  18.2225812 104.8853160  53.7739718
  18.2087381 103.9894253  53.4372016  18.9398240 104.8923824  54.4078004
  20.0751943 105.3190500  55.8192846  19.8169720 106.2407571  55.8177176
  19.5436983 104.9220935  56.5093310  25.0198131 118.4241287  48.5982931
  25.1935009 117.8587710  47.8456784  25.5127023 119.2242182  48.4162421
  10.8375091 110.4355956  56.6646490  10.2928559 111.2115764  56.7966764
  11.7154441 110.7826761  56.5065611  17.6262708 103.7667540  49.0427288
  17.7478619 102.8384186  49.2418176  17.3364750 103.7806226  48.1305604
  20.4953898 101.4522451  52.1794008  20.5175595 101.5161784  51.2245988
  20.9121957 100.6126959  52.3734514  30.8737522 111.1877710  50.2173231
  31.3168669 110.4385035  49.8192354  29.9964033 111.1787846  49.8346963
  26.0073304 117.7408052  45.6979829  26.7024208 118.3614744  45.9167144
  26.3496454 116.8903403  45.9732207  11.6241113 109.5625853  59.5576647
  10.8822849 109.7108488  60.1441277  11.3033857 109.8234118  58.6943396
  27.9064727 115.1907757  47.2267160  28.4316051 115.5295030  46.5016480
  27.8187079 114.2554772  47.0430295  19.5684776 119.1041831  59.3557037
  19.8771902 118.8590977  60.2279736  20.3660258 119.3088469  58.8675907
  19.5905388 121.2579740  51.5862413  19.1510378 120.7656119  52.2795270
  20.3413505 120.7152708  51.3454489  12.0697727 117.4491281  51.5887041
  12.8955747 117.1495053  51.2085685  11.7191779 116.6798904  52.0376830
  17.0379260 116.8017749  53.6584715  16.4159269 116.1388454  53.3586943
  17.7084127 116.8278881  52.9758363  10.2706332 115.3677608  52.5475975
   9.4338240 114.9399782  52.3659976  10.2429977 115.5610051  53.4846766
  17.1103787 105.2799537  63.2517221  17.1591943 106.1561660  62.8694991
  17.6526302 104.7376931  62.6788864  27.5958633 115.8240661  62.5318358
  26.8054177 115.8064800  61.9922858  27.3591988 116.3628954  63.2867395
  27.7156508 112.6733127  59.8451087  27.7654513 112.5083135  60.7866609
  27.6070431 111.8060386  59.4548967  16.5992767 115.3521673  47.1343176
  16.7480887 116.0357137  46.4809848  17.4059210 115.3326763  47.6492631
  25.0060270 108.6564055  61.1610393  25.9070133 108.5170520  60.8694391
  25.0808245 108.8218510  62.1008571  19.3403076 106.0330910  60.0063580
  18.4706385 106.3264476  59.7346168  19.5762556 106.6171355  60.7270843
  29.2174705 115.0930069  60.0893108  28.9259513 115.4560049  60.9256569
  28.6046836 114.3797077  59.9106440  30.4170387 112.6582948  52.6095678
  31.2517279 113.0972752  52.7733239  30.5529516 112.1821602  51.7903924
  27.4661893 110.2162683  58.5573166  27.9416015 110.4090330  57.7492018
  26.5427458 110.2721869  58.3116550  14.3545400 111.3786850  48.1404245
  14.1091442 110.4749180  48.3384455  14.5241314 111.3804001  47.1983723
  22.0442110 102.2510527  57.5229000  22.5624053 102.9871554  57.1975489
  21.6897242 102.5574520  58.3575759  13.6241047 107.1115208  45.6390406
  12.9310292 107.1859563  44.9830442  13.3792799 106.3475552  46.1611923
  22.2954704  98.6710809  53.0429897  22.5756458  98.0033998  53.6690323
  23.0805311  98.8639905  52.5304561  20.0988172 117.8469803  44.6054923
  19.5262139 118.4659990  44.1525395  20.6720966 118.3969165  45.1394845
  26.1663562 107.0928443  56.7901472  27.1180985 107.1926541  56.8113696
  25.9967013 106.3006712  57.2999556  24.1877942 104.1784027  56.9760873
  23.5927874 104.4589039  56.2807361  23.9027638 104.6677927  57.7477614
  23.3185432 118.1306953  45.7363505  24.2516105 118.0652515  45.9396381
  23.2308645 118.9663220  45.2778038  25.9473449 117.4472824  42.6967453
  25.8687080 117.1132687  43.5903211  26.7683116 117.9394592  42.6958925
  28.6451640 110.3134563  55.9043771  28.6127960 109.3750564  56.0903455
  29.2552264 110.3918600  55.1709596  20.4834971 109.1830616  41.9470976
  21.4294075 109.0536824  42.0159394  20.1049216 108.4445278  42.4240404
  28.7946128 107.1045606  55.9502055  28.2785177 106.3204063  55.7631984
  29.6786077 106.7764323  56.1148574  26.4556855 100.8486622  51.9097867
  26.2581676 100.5401710  52.7941199  27.0656561 101.5748261  52.0395797
  34.4628190 111.3750570  55.0449808  35.1931578 111.1135858  55.6057512
  33.8535135 110.6379292  55.0851876  32.5443487 109.5158432  55.6424259
  31.8176650 109.3814397  55.0340751  32.1290774 109.8235261  56.4480978
  20.3673663 113.2348362  63.4071632  21.2876673 113.4126961  63.6011679
  20.3323246 112.2904407  63.2551332  18.6677888 107.1080592  41.8825861
  17.7609343 106.8113705  41.9588574  18.9453869 106.8110410  41.0160147
   9.5855828 108.4286956  52.3324907   9.2658613 107.5752264  52.0399281
   9.0389256 108.6435534  53.0882874  13.3635736 111.1449397  56.0494414
  13.5821746 112.0766505  56.0682447  13.7761510 110.7857371  56.8349217
  20.2839954 101.6517482  48.0370102  19.4740682 101.3064567  48.4125348
  20.9724371 101.3425026  48.6257714  22.2130502 100.7295529  49.6594399
  22.7661541 101.1490982  50.3184422  22.4500588  99.8031277  49.7017355
  18.2363601 106.7182603  65.4397163  18.1360328 107.6676960  65.3709254
  18.0185143 106.3900841  64.5673233  17.4376673 103.9667528  42.0237840
  18.2995837 104.2922426  42.2833657  17.6227017 103.1799023  41.5110906
   9.4544088 112.0489867  54.3018029   8.7607560 111.6343820  53.7887983
  10.2017079 112.0910404  53.7051448  25.5909309 102.8396054  49.1673063
  25.0107978 103.4980858  48.7851115  25.3245242 102.0173399  48.7560480
  24.0412875 102.2401112  51.3694383  24.5412654 102.3517646  50.5608702
  24.6848483 101.9362165  52.0095192  18.0994871 110.1479741  64.2562224
  17.6161953 110.9480101  64.4626113  18.1855810 110.1587686  63.3029668
  11.3680831 111.9808121  52.1784044  11.3451519 112.0795808  51.2265927
  11.6781467 112.8273272  52.5001210  14.0268209 114.0384276  56.2930658
  14.9811462 114.0068218  56.2260590  13.8280732 113.5774900  57.1080884
  14.6167591 112.6085392  58.8601456  15.4360480 113.1029471  58.8836293
  14.8904399 111.6917360  58.8319023  24.3734187 104.9996144  48.2229411
  23.4860042 105.2845795  48.0049606  24.7888176 104.8389908  47.3756688
  27.7248723 105.0242665  51.9383750  28.5009113 105.5139118  52.2108367
  26.9996857 105.4500720  52.3955620  30.1621282 105.7370285  52.9957691
  30.7565773 105.4966021  52.2850999  30.2347865 105.0177415  53.6231227
  12.3818437 119.5803896  53.3100856  12.2472905 118.8204296  52.7438854
  11.9650500 120.3044795  52.8429645  23.5177400 114.7640819  42.3177431
  24.2213251 114.9690822  42.9335087  22.7940049 115.3317581  42.5826515
  24.3475211 110.5150680  48.4379701  24.2910412 110.9719232  47.5987334
  24.9003553 109.7541365  48.2602544  28.1580017 106.3040412  49.2629821
  27.9016951 105.9037048  50.0938029  27.5332885 107.0184206  49.1379960
  32.4692355 109.0436485  51.7701112  31.9091913 109.1129675  52.5432674
  31.8635858 108.8677470  51.0500609  15.5387563 120.4773213  53.5219299
  15.4219948 121.4218645  53.4197989  14.7180010 120.1746774  53.9105098
  25.4264098 115.2023348  44.3675891  26.2609702 114.7704547  44.1853366
  25.2648441 115.0305362  45.2952786  25.0809990 111.7055462  45.7332231
  25.0258794 111.5399733  44.7920675  24.4556045 112.4131495  45.8894420
   9.8702505 106.9423526  59.5593653  10.5161369 106.4322480  60.0480878
   9.6619656 107.6792208  60.1337078  22.3955897 114.0104373  65.0585793
  23.2647057 114.1845026  64.6972428  21.9162649 114.8298790  64.9361523
  18.3906116 101.2063571  45.3117549  18.3784785 102.1505411  45.4685820
  19.2829537 101.0233716  45.0177010  16.5642077 121.1301474  56.7375227
  17.4669324 121.1625085  57.0541722  16.3379448 120.2001925  56.7521563
  18.3195679 119.8832461  53.3985306  17.3691311 119.8834323  53.2849678
  18.6228166 119.1365196  52.8821340  22.2058235  97.8006347  49.5663486
  21.4390631  97.2464834  49.7120168  22.6168940  97.8728216  50.4277637
  14.2099996 104.0891143  63.6568667  15.0731458 103.7327948  63.8671992
  13.6365407 103.7505038  64.3444071  34.0548373 125.7192999  54.4631068
  34.6926783 125.5999747  53.7594408  33.9369216 126.6673843  54.5219020
  30.8638079 125.6720428  54.3992593  30.5256591 125.5561492  53.5113128
  31.7327847 125.2711593  54.3793599  26.7224895 127.5255904  50.3889484
  26.1589760 127.4345841  49.6205771  26.6077290 126.7055808  50.8691976
  31.3457862 126.8255279  60.3578798  31.3346503 126.4308078  59.4859302
  31.5078502 126.0921352  60.9512570  24.2689327 129.0207096  53.2273704
  25.0610619 128.6797920  52.8120003  24.5085977 129.1302071  54.1475857
  32.3024454 131.1926872  45.7003949  31.6512433 131.7780952  45.3137962
  33.0968816 131.7233067  45.7598986  26.2280081 128.2816009  46.0991083
  27.0010957 127.7344996  45.9603959  26.5805480 129.1460258  46.3105544
  28.0665123 129.6092391  59.3057982  27.7754989 130.5138022  59.1904649
  28.7022108 129.6508919  60.0202052  28.9921330 126.9869240  55.8959342
  29.5884903 126.7625262  55.1816305  29.0496302 126.2453985  56.4984790
  28.5646359 124.4408675  43.7309533  28.8171879 123.9190196  42.9692996
  27.6270918 124.2774820  43.8336216  33.6089641 123.4444453  51.5384276
  34.3952731 123.0263876  51.1874693  33.8728346 124.3490545  51.7065924
  33.7799719 128.8817304  46.2372933  33.1445552 128.9551930  46.9493837
  33.4497125 129.4710902  45.5592012  39.0098069 123.3819686  52.4417255
  39.7423241 122.8118903  52.6755084  38.2537424 122.9941287  52.8823760
  28.2842647 126.3436781  45.9333908  28.1678905 125.6681684  46.6014992
  28.3944907 125.8569155  45.1166061  30.6274188 125.8046928  49.6380597
  30.2632396 125.2777549  50.3493518  31.4841304 125.4145397  49.4647082
  36.5323489 117.0941261  56.9011863  36.2006814 117.9636672  56.6773078
  35.9369102 116.7777545  57.5805894  30.2679675 120.8336828  44.6341946
  30.4354078 121.7017064  45.0012417  30.0776844 120.9964109  43.7103235
  33.0255008 129.2953807  56.3007776  32.7255732 130.1978845  56.1923583
  32.6806068 129.0285990  57.1528929  26.4767490 125.7467603  52.3344480
  25.5517986 125.6143818  52.5422172  26.7251903 126.5261823  52.8314423
  36.4252152 121.8136347  53.9805213  35.5169030 121.7451755  53.6863974
  36.3739748 122.2908292  54.8087039  30.2468896 123.2894485  45.6188612
  30.1268521 123.7351536  46.4574093  29.5521485 123.6379803  45.0602150
  23.8376301 125.3900877  53.1688269  23.9668682 125.6435356  54.0827681
  23.1573752 125.9828585  52.8492924  28.0075788 136.0598127  49.2678744
  27.9299818 137.0105952  49.3467224  27.4037432 135.7143999  49.9253670
  30.4993018 123.2325992  61.9240110  29.7226352 123.7919912  61.9142975
  31.1383581 123.7182775  62.4454981  38.2913799 120.0152785  55.7583087
  37.6488179 120.3085318  55.1122882  37.7868727 119.9005705  56.5636284
  35.9453962 123.7615958  46.4468946  36.8571818 123.9943345  46.2716644
  35.4363609 124.3453003  45.8844025  28.7539390 126.0411446  61.4858077
  29.4954075 126.5796490  61.2092901  28.0476376 126.6677734  61.6429629
  34.2294730 128.1840586  60.0830239  34.6378086 127.7422997  59.3384871
  33.5071992 127.6093214  60.3364432  30.5825800 123.1213193  57.4563796
  31.4286995 123.5452606  57.5998445  30.5224438 122.4646817  58.1502359
  34.5523545 128.7441777  53.8382528  33.9232407 128.9087491  53.1358596
  34.1649207 129.1583386  54.6093492  38.4312777 129.6796215  51.1926892
  37.7463815 130.0595116  50.6423925  38.5156626 130.2891541  51.9258839
  33.7325245 120.7817561  59.1144970  33.4886177 121.5359622  58.5779245
  34.0085176 121.1602909  59.9492217  35.6863708 127.3256174  57.7922235
  35.8980603 127.9687934  57.1156616  35.6393456 126.4918490  57.3244165
  33.2889937 119.9373994  54.6958807  32.4274416 120.2355248  54.9875545
  33.3152372 120.1544393  53.7639840  30.1051507 128.4816185  51.1032613
  30.5689852 128.7603888  50.3137235  29.8408305 127.5799629  50.9205704
  26.9975588 128.0287666  54.0412376  27.5676945 128.4574935  53.4029861
  27.5883699 127.7470251  54.7396562  29.0420393 124.6039337  47.9122178
  29.7444436 125.0560381  48.3796104  28.7101021 123.9623156  48.5402071
  27.4900754 123.1951094  62.2873387  26.8599415 123.8767375  62.5208784
  27.3836842 123.0834175  61.3426526  22.7845727 122.8622890  53.2139312
  21.9944781 123.1180418  52.7379422  23.2756974 123.6771228  53.3191352
  36.8009536 130.2028129  55.9644592  37.6226980 129.8008316  55.6827274
  36.7971939 130.0996363  56.9160708  24.7360472 123.2267469  50.1722788
  23.9391635 123.3386163  50.6906284  24.5086064 123.5654121  49.3063679
  30.5666140 129.7512172  58.1205303  30.6310572 130.2132580  58.9563475
  29.8577063 129.1209537  58.2487613  21.0683430 123.1153380  55.6454302
  21.3191468 124.0000390  55.9111878  21.6042978 122.9357982  54.8729394
  44.8915529 126.5466878  52.3129564  44.1379238 125.9774276  52.1573568
  45.0263070 126.5129542  53.2600199  30.2814157 131.4180280  47.9884283
  30.1459832 132.2631816  48.4169131  30.8223970 131.6199558  47.2250217
  26.7681497 117.4971860  64.6498639  26.3748442 116.9438058  65.3246283
  27.5847637 117.8082438  65.0405156  23.7343555 128.9355718  48.5612208
  24.2468075 129.7298968  48.7117773  24.3866267 128.2382008  48.4945810
  25.5438439 132.0521474  50.6434962  25.7205068 132.9739439  50.4555945
  26.3395273 131.7379893  51.0729341  29.6849458 118.9129739  62.2418895
  30.4259171 119.5136892  62.1623358  29.9167381 118.1707377  61.6836938
  24.8290796 124.0986106  60.5197125  24.7144311 123.1971363  60.8204224
  23.9735314 124.3449803  60.1681941  31.9082634 132.0403846  62.1184625
  31.4646488 131.2540225  61.8005530  32.5699847 132.2282997  61.4528516
  26.6669755 133.5699648  56.6445304  27.2177180 133.4416711  55.8722298
  25.8281231 133.8694537  56.2940197  34.0063872 132.3206646  60.1466027
  33.9882347 133.1415527  59.6546296  34.9283792 132.1960722  60.3716168
  30.4636926 129.8350776  60.9889535  30.9965263 129.0739064  60.7588843
  29.9351007 129.5424428  61.7313689  33.6306621 114.9410842  56.5183177
  33.2870890 115.8312483  56.4422287  33.9985583 114.7512499  55.6552762
  21.6992471 127.2644372  49.3371779  22.5367693 127.6741381  49.1205487
  21.8770739 126.3243814  49.3071973  33.5956903 124.9319453  45.0255612
  33.0803527 125.7024058  45.2643999  33.3234212 124.2584589  45.6488673
  31.1804015 119.7769154  50.0840850  30.3245611 119.3876004  49.9046489
  31.5930966 119.8561114  49.2240636  32.7103161 117.3115497  54.4832410
  32.2067957 117.2745632  53.6700215  33.0033768 118.2208240  54.5429067
  28.9546047 117.3954227  53.4898592  29.8199044 117.1997035  53.1304481
  29.0223556 117.1664578  54.4167948  38.5691178 127.6851808  46.9608785
  37.7920620 127.3462967  46.5163947  39.2482659 127.6904431  46.2863750
  33.3843207 122.8046545  46.8515393  33.0793342 123.1192694  47.7025536
  34.3373649 122.8827965  46.8942726  31.8289639 128.9636768  48.5008347
  31.3011000 128.2289528  48.1881584  31.3277141 129.7411445  48.2548315
  36.8082485 127.1585789  53.6175393  36.1506159 127.8485050  53.7055522
  37.6122884 127.5482221  53.9609380  26.5608366 119.6256435  50.8614959
  27.1352118 119.4031616  50.1288152  27.1479349 119.6945129  51.6143560
  35.6187943 125.5130161  51.6679335  36.1319825 126.1460153  52.1701045
  36.2689167 124.9131357  51.3022695  26.8877953 121.6560896  44.8810844
  26.0515265 121.9935582  45.2020119  26.7482723 121.5209875  43.9437981
  28.8631034 116.4997683  49.5890028  28.2095446 116.1846701  48.9646643
  28.8211508 115.8773424  50.3149851  29.9742239 126.7816979  41.5043320
  29.0669300 126.5506232  41.7034469  30.4713271 125.9854598  41.6917302
  32.8810318 135.4914486  44.4240006  32.2072016 135.7946182  45.0324964
  33.2676140 136.2943566  44.0745463  32.0968774 122.9879617  53.9137676
  31.1791336 123.2094564  53.7559364  32.5128918 123.0625927  53.0549383
  32.8803822 124.3871033  49.0440356  33.6275641 124.8992430  48.7347478
  33.1495411 124.0655085  49.9044749  31.1530472 126.8829573  46.0267310
  30.2441691 126.5988606  46.1239780  31.1825556 127.3028652  45.1670617
  36.3849740 130.4936163  49.7958478  35.9312067 129.6527073  49.8523668
  35.7543706 131.1297561  50.1333258  35.3282659 121.4228149  51.0259145
  34.5905416 120.9105535  51.3569388  35.5809433 120.9828531  50.2142422
  34.8282679 132.3312660  50.7308296  35.1205653 132.8917717  50.0120661
  35.3381299 132.6241221  51.4861455  35.4294286 114.2004401  51.6200914
  35.7353163 113.3401764  51.3326830  36.1546891 114.7922021  51.4199908
  21.7218643 124.6035088  50.0082512  21.5243042 124.0104448  49.2833579
  21.1665307 124.2987298  50.7258451  29.7015366 124.4958194  52.1277106
  29.7563976 123.5432030  52.0519582  28.8906568 124.6517633  52.6118404
  30.8506560 128.4238317  43.3655389  30.4125990 127.7074176  42.9061026
  31.5917001 128.6514432  42.8040480  27.6407726 123.1135254  49.8867484
  26.8275592 123.4129424  50.2932677  28.1366720 122.7190943  50.6041967
  29.7916304 133.1093011  51.8201749  29.7492483 133.3353857  50.8910281
  30.7079003 132.8756385  51.9687550  33.2381938 123.5777078  58.7182378
  33.5931325 123.8048551  59.5776844  33.8854069 123.9095455  58.0959634
  38.9679675 126.6995514  49.4231707  38.8297573 126.8897110  48.4952897
  38.6115894 127.4614897  49.8799758  27.1321801 120.6853609  55.5028719
  27.7721180 120.5442368  54.8051683  26.2999331 120.3988123  55.1267321
  38.9949054 128.7672041  54.4342979  39.4285561 128.6747330  55.2826033
  39.7080635 128.7429542  53.7962995  27.9082105 129.9856040  51.6163712
  28.7022703 129.4906360  51.4146287  27.1973797 129.4573903  51.2531417
  32.7276949 132.3674135  55.9676079  32.7813972 132.9365072  56.7353795
  31.8591731 132.5376020  55.6030117  24.2164868 124.1299121  47.6923464
  23.2862456 124.0683577  47.9093427  24.3122340 123.6075074  46.8960106
  24.1350417 120.6553934  50.2801706  24.3957235 121.5699268  50.1710867
  24.9567590 120.1878377  50.4298319  25.6075343 122.0691691  57.4500531
  26.2798396 121.8609054  56.8013180  24.7805129 121.8713777  57.0105763
  39.8564604 128.8095742  56.9675864  40.0500494 129.7141552  57.2135139
  39.7565222 128.3503161  57.8014449  31.5100915 118.6953632  59.4666192
  30.8628830 119.3943582  59.3730668  32.2801930 119.1289776  59.8342440
  34.9179713 128.9602485  62.5416745  34.7665219 128.7313036  61.6246829
  34.9084392 129.9173086  62.5548090  31.6865049 126.5334397  57.5263011
  32.6157109 126.6845557  57.3531979  31.2656079 126.6218418  56.6711658
  30.4853381 130.5585062  55.2961549  30.3464466 130.1903846  56.1687487
  29.6967977 131.0732701  55.1245507  31.0801533 135.6594158  46.6387085
  31.2553288 135.1882201  47.4532708  30.3934321 136.2859924  46.8668346
  32.0358596 129.9366664  52.6850387  31.7008429 129.8967434  53.5808037
  31.5362542 129.2711380  52.2120797  26.0102840 125.3434294  58.2102968
  25.8722638 124.6114533  58.8114507  26.9207763 125.2543195  57.9287156
  34.9717788 127.2822699  42.9587446  34.3546958 126.5569527  42.8620499
  34.5034276 128.0432059  42.6154521  28.6385141 125.0554254  57.6986647
  29.3484759 124.4147446  57.6573266  28.5954449 125.3067149  58.6212828
  36.6271919 131.9921607  60.6193227  36.5684465 131.3080827  59.9523810
  37.0291438 132.7340597  60.1673853  27.3514074 122.0419472  59.5182287
  26.8151432 121.5910210  60.1703883  26.7630783 122.1765380  58.7752751
  25.6462618 138.8083521  53.4126946  25.8859216 139.4402045  54.0905964
  24.8031814 138.4571561  53.6992305  26.7616333 121.5008123  42.0808751
  25.8845800 121.3796924  41.7170997  27.2374087 120.7094201  41.8287639
  36.6289326 129.9561191  58.8507206  35.7416105 129.6187113  58.9733605
  37.1987878 129.2244222  59.0875972  18.2818474 126.2885283  52.1750258
  18.9689513 125.9747013  51.5871273  18.1266602 127.1926647  51.9017509
  23.0853196 121.1775479  56.6035281  23.0011384 120.5701149  55.8685691
  22.2635902 121.6684498  56.6044778  30.1590480 134.6162643  55.8168450
  30.0860651 135.4217615  56.3287754  29.7167873 134.8154609  54.9916471
  29.9480259 133.8534413  49.3271271  29.1647781 134.3956094  49.4209496
  30.6473005 134.3708393  49.7265512  33.2576910 119.6629043  51.9705477
  33.7545609 118.9099005  51.6506547  32.4863891 119.6993360  51.4048686
  41.1106667 125.3669408  53.6123768  41.0996543 126.2494124  53.2417701
  40.2424046 125.0140959  53.4178305  32.6189163 134.5149477  57.9726608
  33.3317136 135.1496942  57.9002510  32.1279192 134.6113343  57.1566610
  34.3406690 128.4200730  49.5443900  33.4062969 128.5402193  49.3748604
  34.5183359 127.5173197  49.2803910  29.8411878 121.8046426  51.6977161
  29.4709666 121.2517466  52.3858067  30.3370971 121.2004559  51.1452161
  37.7279242 124.2618049  50.0793934  38.1939694 125.0946041  50.0054237
  38.1786742 123.7963031  50.7839193  27.6701077 132.2643921  58.7932179
  28.3710536 132.8980404  58.9461573  27.1996192 132.6058652  58.0327818
  35.7955473 130.6061871  47.0780086  36.0715317 130.4918465  47.9873960
  34.9259971 130.2079355  47.0392259  35.6995904 116.6298636  54.1184835
  34.7858984 116.8602863  54.2867042  36.1289006 116.7137080  54.9698868
  35.4702363 124.8188528  56.6184729  34.8173813 125.0664436  55.9637182
  35.8482743 124.0052666  56.2847207  32.4309537 134.8548221  50.7212900
  32.6131931 134.0369877  51.1840652  33.2542523 135.0715914  50.2837790
  32.7651702 133.7816407  47.9827948  33.2939469 133.2708861  47.3698110
  33.0279922 133.4658937  48.8473481  31.5189936 125.5608339  63.1050766
  30.8430573 125.4602469  63.7753142  32.3417570 125.4047553  63.5686764
  23.2668795 131.7980276  55.7263282  23.8522232 131.0523964  55.8591186
  23.0693633 132.1084233  56.6099946  26.1207450 134.8331523  50.7425724
  25.4517825 135.3177651  50.2589764  25.9820320 135.0800744  51.6569103
  17.8586450 124.3685876  54.4467725  17.8970549 123.8349467  55.2404843
  17.3526743 123.8421082  53.8278702  30.2612719 136.8675267  57.3408382
  30.8131027 137.0306888  58.1057468  30.6018912 137.4579705  56.6688407
  25.2377212 119.2150417  57.9430267  25.3018539 120.0765248  57.5307665
  25.1744332 118.6024418  57.2102626  24.7129485 121.2873549  61.5903301
  25.3401523 120.9050626  62.2040826  23.8557403 121.0687751  61.9558994
  35.1123593 131.6936524  63.1957037  35.6563497 132.3066483  62.7011992
  34.5310438 132.2516103  63.7124050  21.4895027 123.0949978  47.5221656
  21.7848468 122.1860657  47.4688710  20.5883063 123.0737718  47.2002659
  33.3981106 134.8157242  54.3272065  33.2732246 134.0146982  53.8183010
  34.0560197 135.3103436  53.8386035  25.0189274 121.1705975  53.5049205
  24.2975860 121.7841943  53.3656678  25.8082530 121.7063740  53.4265851
  35.4616014 132.6166262  55.9551615  34.5146350 132.4971614  55.8829941
  35.8098788 131.7288760  56.0377876  27.8215588 118.5060401  59.7789857
  28.3449990 118.7522698  60.5416166  27.6027921 119.3380436  59.3592994
  23.2182869 120.7764076  47.6460981  22.8895575 119.8961455  47.4636087
  23.5722240 120.7211745  48.5337371  32.4662448 132.4118979  52.1555967
  32.3187410 131.4835686  52.3363537  33.2915941 132.4339069  51.6713042
  26.3324692 121.0637046  48.0136459  26.6720765 121.5922967  47.2915067
  26.7796813 121.4017452  48.7895026  36.0696570 133.2347537  53.2420840
  36.9943117 133.0290399  53.1045291  35.9011873 132.9863939  54.1510181
  29.0268133 119.4474096  57.4639527  28.6864953 118.6481910  57.8660207
  28.3207139 119.7475807  56.8916360  29.6784605 116.5323409  55.9166850
  30.5010674 116.0583887  55.7945740  29.9222668 117.3113893  56.4165536
  28.3192839 119.5611667  46.2129752  29.0401202 119.9392920  45.7093469
  27.6958143 120.2800544  46.3164730  32.4623962 120.2656816  47.1488084
  32.6787576 121.1481454  46.8476912  31.9818029 119.8743030  46.4193726
  27.2023183 123.2242530  53.7258829  27.0567764 123.5382833  54.6183110
  26.7248387 123.8427430  53.1729727  29.0619566 120.2145078  53.7739718
  29.0481135 119.3186171  53.4372016  29.7791994 120.2215741  54.4078004
  30.9145697 120.6482418  55.8192846  30.6563475 121.5699488  55.8177176
  30.3830737 120.2512852  56.5093310  35.8591886 133.7533205  48.5982931
  36.0328763 133.1879627  47.8456784  36.3520777 134.5534100  48.4162421
  21.6768846 125.7647874  56.6646490  21.1322314 126.5407682  56.7966764
  22.5548195 126.1118678  56.5065611  28.4656462 119.0959458  49.0427288
  28.5872373 118.1676104  49.2418176  28.1758505 119.1098144  48.1305604
  31.3347653 116.7814368  52.1794008  31.3569349 116.8453701  51.2245988
  31.7515712 115.9418877  52.3734514  41.7131277 126.5169628  50.2173231
  42.1562423 125.7676953  49.8192354  40.8357787 126.5079764  49.8346963
  36.8467058 133.0699969  45.6979829  37.5417963 133.6906662  45.9167144
  37.1890208 132.2195320  45.9732207  22.4634867 124.8917770  59.5576647
  21.7216604 125.0400406  60.1441277  22.1427612 125.1526036  58.6943396
  38.7458481 130.5199675  47.2267160  39.2709805 130.8586948  46.5016480
  38.6580834 129.5846690  47.0430295  30.4078530 134.4333748  59.3557037
  30.7165657 134.1882895  60.2279736  31.2054012 134.6380387  58.8675907
  30.4299142 136.5871658  51.5862413  29.9904132 136.0948037  52.2795270
  31.1807259 136.0444626  51.3454489  22.9091481 132.7783199  51.5887041
  23.7349501 132.4786971  51.2085685  22.5585533 132.0090821  52.0376830
  27.8773014 132.1309667  53.6584715  27.2553024 131.4680372  53.3586943
  28.5477881 132.1570799  52.9758363  21.1100086 130.6969525  52.5475975
  20.2731994 130.2691700  52.3659976  21.0823732 130.8901969  53.4846766
  27.9497542 120.6091455  63.2517221  27.9985697 121.4853578  62.8694991
  28.4920056 120.0668848  62.6788864  38.4352387 131.1532578  62.5318358
  37.6447931 131.1356717  61.9922858  38.1985742 131.6920872  63.2867395
  38.5550263 128.0025045  59.8451087  38.6048267 127.8375052  60.7866609
  38.4464186 127.1352304  59.4548967  27.4386521 130.6813590  47.1343176
  27.5874642 131.3649055  46.4809848  28.2452965 130.6618681  47.6492631
  35.8454025 123.9855973  61.1610393  36.7463888 123.8462438  60.8694391
  35.9201999 124.1510428  62.1008571  30.1796830 121.3622828  60.0063580
  29.3100140 121.6556394  59.7346168  30.4156311 121.9463273  60.7270843
  40.0568459 130.4221986  60.0893108  39.7653268 130.7851967  60.9256569
  39.4440591 129.7088995  59.9106440  41.2564142 127.9874866  52.6095678
  42.0911033 128.4264670  52.7733239  41.3923270 127.5113519  51.7903924
  38.3055648 125.5454601  58.5573166  38.7809769 125.7382247  57.7492018
  37.3821213 125.6013787  58.3116550  25.1939154 126.7078768  48.1404245
  24.9485196 125.8041098  48.3384455  25.3635069 126.7095919  47.1983723
  32.8835864 117.5802444  57.5229000  33.4017808 118.3163471  57.1975489
  32.5290997 117.8866438  58.3575759  24.4634802 122.4407126  45.6390406
  23.7704047 122.5151481  44.9830442  24.2186554 121.6767469  46.1611923
  33.1348458 114.0002727  53.0429897  33.4150212 113.3325916  53.6690323
  33.9199065 114.1931823  52.5304561  30.9381927 133.1761721  44.6054923
  30.3655894 133.7951908  44.1525395  31.5114720 133.7261083  45.1394845
  37.0057317 122.4220361  56.7901472  37.9574739 122.5218459  56.8113696
  36.8360767 121.6298630  57.2999556  35.0271696 119.5075944  56.9760873
  34.4321628 119.7880957  56.2807361  34.7421393 119.9969845  57.7477614
  34.1579187 133.4598871  45.7363505  35.0909860 133.3944433  45.9396381
  34.0702399 134.2955138  45.2778038  36.7867203 132.7764741  42.6967453
  36.7080835 132.4424605  43.5903211  37.6076870 133.2686509  42.6958925
  39.4845394 125.6426481  55.9043771  39.4521714 124.7042481  56.0903455
  40.0946018 125.7210517  55.1709596  31.3228725 124.5122534  41.9470976
  32.2687830 124.3828742  42.0159394  30.9442970 123.7737196  42.4240404
  39.6339883 122.4337524  55.9502055  39.1178932 121.6495981  55.7631984
  40.5179831 122.1056241  56.1148574  37.2950610 116.1778540  51.9097867
  37.0975431 115.8693628  52.7941199  37.9050315 116.9040179  52.0395797
  45.3021944 126.7042488  55.0449808  46.0325333 126.4427776  55.6057512
  44.6928890 125.9671209  55.0851876  43.3837241 124.8450350  55.6424259
  42.6570405 124.7106315  55.0340751  42.9684528 125.1527179  56.4480978
  31.2067418 128.5640280  63.4071632  32.1270427 128.7418879  63.6011679
  31.1717001 127.6196325  63.2551332  29.5071642 122.4372510  41.8825861
  28.6003098 122.1405623  41.9588574  29.7847623 122.1402328  41.0160147
  20.4249583 123.7578873  52.3324907  20.1052367 122.9044182  52.0399281
  19.8783011 123.9727452  53.0882874  24.2029490 126.4741314  56.0494414
  24.4215500 127.4058422  56.0682447  24.6155264 126.1149289  56.8349217
  31.1233708 116.9809400  48.0370102  30.3134436 116.6356485  48.4125348
  31.8118125 116.6716944  48.6257714  33.0524256 116.0587447  49.6594399
  33.6055295 116.4782900  50.3184422  33.2894343 115.1323195  49.7017355
  29.0757356 122.0474520  65.4397163  28.9754083 122.9968877  65.3709254
  28.8578898 121.7192759  64.5673233  28.2770427 119.2959445  42.0237840
  29.1389591 119.6214344  42.2833657  28.4620771 118.5090941  41.5110906
  20.2937843 127.3781785  54.3018029  19.6001314 126.9635738  53.7887983
  21.0410834 127.4202321  53.7051448  36.4303063 118.1687972  49.1673063
  35.8501733 118.8272776  48.7851115  36.1638996 117.3465316  48.7560480
  34.8806630 117.5693029  51.3694383  35.3806408 117.6809564  50.5608702
  35.5242238 117.2654082  52.0095192  28.9388626 125.4771659  64.2562224
  28.4555707 126.2772019  64.4626113  29.0249565 125.4879604  63.3029668
  22.2074585 127.3100039  52.1784044  22.1845273 127.4087726  51.2265927
  22.5175222 128.1565190  52.5001210  24.8661963 129.3676194  56.2930658
  25.8205217 129.3360136  56.2260590  24.6674487 128.9066818  57.1080884
  25.4561345 127.9377310  58.8601456  26.2754234 128.4321388  58.8836293
  25.7298153 127.0209278  58.8319023  35.2127942 120.3288062  48.2229411
  34.3253797 120.6137713  48.0049606  35.6281931 120.1681825  47.3756688
  38.5642478 120.3534583  51.9383750  39.3402868 120.8431036  52.2108367
  37.8390612 120.7792637  52.3955620  41.0015036 121.0662202  52.9957691
  41.5959527 120.8257938  52.2850999  41.0741620 120.3469333  53.6231227
  23.2212192 134.9095813  53.3100856  23.0866660 134.1496214  52.7438854
  22.8044254 135.6336713  52.8429645  34.3571155 130.0932737  42.3177431
  35.0607005 130.2982739  42.9335087  33.6333804 130.6609499  42.5826515
  35.1868965 125.8442598  48.4379701  35.1304167 126.3011149  47.5987334
  35.7397308 125.0833283  48.2602544  38.9973771 121.6332330  49.2629821
  38.7410705 121.2328966  50.0938029  38.3726639 122.3476124  49.1379960
  43.3086109 124.3728403  51.7701112  42.7485667 124.4421592  52.5432674
  42.7029612 124.1969388  51.0500609  26.3781318 135.8065130  53.5219299
  26.2613702 136.7510563  53.4197989  25.5573764 135.5038692  53.9105098
  36.2657852 130.5315266  44.3675891  37.1003456 130.0996464  44.1853366
  36.1042195 130.3597280  45.2952786  35.9203745 127.0347379  45.7332231
  35.8652548 126.8691651  44.7920675  35.2949800 127.7423412  45.8894420
  20.7096260 122.2715444  59.5593653  21.3555123 121.7614398  60.0480878
  20.5013411 123.0084125  60.1337078  33.2349652 129.3396291  65.0585793
  34.1040811 129.5136943  64.6972428  32.7556403 130.1590708  64.9361523
  29.2299870 116.5355488  45.3117549  29.2178540 117.4797328  45.4685820
  30.1223292 116.3525634  45.0177010  27.4035832 136.4593392  56.7375227
  28.3063079 136.4917002  57.0541722  27.1773202 135.5293843  56.7521563
  29.1589434 135.2124379  53.3985306  28.2085065 135.2126240  53.2849678
  29.4621920 134.4657113  52.8821340  33.0451989 113.1298265  49.5663486
  32.2784385 112.5756752  49.7120168  33.4562694 113.2020134  50.4277637
  25.0493751 119.4183061  63.6568667  25.9125212 119.0619866  63.8671992
  24.4759161 119.0796956  64.3444071  44.8942127 141.0484917  54.4631068
  45.5320537 140.9291664  53.7594408  44.7762970 141.9965761  54.5219020
  41.7031834 141.0012345  54.3992593  41.3650345 140.8853410  53.5113128
  42.5721602 140.6003510  54.3793599  37.5618649 142.8547822  50.3889484
  36.9983515 142.7637759  49.6205771  37.4471044 142.0347726  50.8691976
  42.1851617 142.1547197  60.3578798  42.1740258 141.7599995  59.4859302
  42.3472256 141.4213270  60.9512570  35.1083081 144.3499013  53.2273704
  35.9004373 144.0089838  52.8120003  35.3479732 144.4593988  54.1475857
  43.1418208 146.5218789  45.7003949  42.4906188 147.1072870  45.3137962
  43.9362571 147.0524984  45.7598986  37.0673835 143.6107926  46.0991083
  37.8404711 143.0636914  45.9603959  37.4199234 144.4752176  46.3105544
  38.9058878 144.9384309  59.3057982  38.6148744 145.8429940  59.1904649
  39.5415862 144.9800836  60.0202052  39.8315085 142.3161157  55.8959342
  40.4278657 142.0917180  55.1816305  39.8890056 141.5745903  56.4984790
  39.4040113 139.7700593  43.7309533  39.6565634 139.2482114  42.9692996
  38.4664672 139.6066738  43.8336216  44.4483396 138.7736371  51.5384276
  45.2346485 138.3555794  51.1874693  44.7122100 139.6782463  51.7065924
  44.6193473 144.2109221  46.2372933  43.9839306 144.2843848  46.9493837
  44.2890880 144.8002820  45.5592012  49.8491823 138.7111604  52.4417255
  50.5816995 138.1410821  52.6755084  49.0931179 138.3233205  52.8823760
  39.1236402 141.6728699  45.9333908  39.0072660 140.9973602  46.6014992
  39.2338662 141.1861072  45.1166061  41.4667943 141.1338846  49.6380597
  41.1026150 140.6069467  50.3493518  42.3235059 140.7437315  49.4647082
  47.3717243 132.4233178  56.9011863  47.0400568 133.2928589  56.6773078
  46.7762857 132.1069462  57.5805894  41.1073430 136.1628745  44.6341946
  41.2747832 137.0308982  45.0012417  40.9170599 136.3256027  43.7103235
  43.8648763 144.6245724  56.3007776  43.5649486 145.5270763  56.1923583
  43.5199822 144.3577907  57.1528929  37.3161244 141.0759521  52.3344480
  36.3911741 140.9435735  52.5422172  37.5645658 141.8553740  52.8314423
  47.2645907 137.1428264  53.9805213  46.3562784 137.0743673  53.6863974
  47.2133503 137.6200209  54.8087039  41.0862651 138.6186403  45.6188612
  40.9662276 139.0643454  46.4574093  40.3915239 138.9671721  45.0602150
  34.6770055 140.7192795  53.1688269  34.8062437 140.9727274  54.0827681
  33.9967507 141.3120503  52.8492924  41.3386773 138.5617910  61.9240110
  40.5620107 139.1211830  61.9142975  41.9777336 139.0474693  62.4454981
  49.1307553 135.3444703  55.7583087  48.4881933 135.6377236  55.1122882
  48.6262482 135.2297623  56.5636284  46.7847717 139.0907876  46.4468946
  47.6965573 139.3235263  46.2716644  46.2757364 139.6744920  45.8844025
  39.5933145 141.3703363  61.4858077  40.3347829 141.9088407  61.2092901
  38.8870130 141.9969652  61.6429629  45.0688484 143.5132504  60.0830239
  45.4771841 143.0714914  59.3384871  44.3465746 142.9385131  60.3364432
  41.4219555 138.4505111  57.4563796  42.2680750 138.8744524  57.5998445
  41.3618192 137.7938735  58.1502359  45.3917299 144.0733694  53.8382528
  44.7626162 144.2379409  53.1358596  45.0042961 144.4875304  54.6093492
  49.2706531 145.0088132  51.1926892  48.5857569 145.3887034  50.6423925
  49.3550380 145.6183459  51.9258839  44.5719000 136.1109479  59.1144970
  44.3279932 136.8651540  58.5779245  44.8478930 136.4894827  59.9492217
  46.5257463 142.6548091  57.7922235  46.7374358 143.2979851  57.1156616
  46.4787211 141.8210408  57.3244165  44.1283692 135.2665912  54.6958807
  43.2668171 135.5647166  54.9875545  44.1546126 135.4836311  53.7639840
  40.9445261 143.8108103  51.1032613  41.4083607 144.0895806  50.3137235
  40.6802059 142.9091547  50.9205704  37.8369342 143.3579584  54.0412376
  38.4070699 143.7866852  53.4029861  38.4277454 143.0762169  54.7396562
  39.8814147 139.9331255  47.9122178  40.5838190 140.3852299  48.3796104
  39.5494776 139.2915074  48.5402071  38.3294509 138.5243012  62.2873387
  37.6993169 139.2059292  62.5208784  38.2230596 138.4126093  61.3426526
  33.6239481 138.1914808  53.2139312  32.8338535 138.4472336  52.7379422
  34.1150728 139.0063145  53.3191352  47.6403291 145.5320047  55.9644592
  48.4620734 145.1300234  55.6827274  47.6365693 145.4288281  56.9160708
  35.5754226 138.5559387  50.1722788  34.7785390 138.6678081  50.6906284
  35.3479819 138.8946039  49.3063679  41.4059894 145.0804090  58.1205303
  41.4704327 145.5424497  58.9563475  40.6970818 144.4501455  58.2487613
  31.9077184 138.4445298  55.6454302  32.1585222 139.3292308  55.9111878
  32.4436732 138.2649900  54.8729394  55.7309284 141.8758795  52.3129564
  54.9772992 141.3066193  52.1573568  55.8656825 141.8421460  53.2600199
  41.1207912 146.7472198  47.9884283  40.9853586 147.5923733  48.4169131
  41.6617724 146.9491475  47.2250217  37.6075251 132.8263777  64.6498639
  37.2142197 132.2729976  65.3246283  38.4241392 133.1374356  65.0405156
  34.5737309 144.2647636  48.5612208  35.0861830 145.0590886  48.7117773
  35.2260022 143.5673926  48.4945810  36.3832194 147.3813392  50.6434962
  36.5598822 148.3031357  50.4555945  37.1789027 147.0671811  51.0729341
  40.5243212 134.2421656  62.2418895  41.2652926 134.8428810  62.1623358
  40.7561135 133.4999294  61.6836938  35.6684550 139.4278024  60.5197125
  35.5538065 138.5263281  60.8204224  34.8129068 139.6741721  60.1681941
  42.7476388 147.3695764  62.1184625  42.3040242 146.5832143  61.8005530
  43.4093602 147.5574915  61.4528516  44.8457626 147.6498564  60.1466027
  44.8276101 148.4707445  59.6546296  45.7677546 147.5252639  60.3716168
  41.3030680 145.1642693  60.9889535  41.8359017 144.4030982  60.7588843
  40.7744761 144.8716345  61.7313689  44.4700375 130.2702759  56.5183177
  44.1264645 131.1604401  56.4422287  44.8379338 130.0804417  55.6552762
  32.5386226 142.5936290  49.3371779  33.3761448 143.0033298  49.1205487
  32.7164494 141.6535732  49.3071973  44.4350658 140.2611371  45.0255612
  43.9197281 141.0315975  45.2643999  44.1627966 139.5876507  45.6488673
  42.0197769 135.1061071  50.0840850  41.1639365 134.7167922  49.9046489
  42.4324721 135.1853032  49.2240636  43.5496916 132.6407415  54.4832410
  43.0461711 132.6037550  53.6700215  43.8427523 133.5500157  54.5429067
  39.7939802 132.7246144  53.4898592  40.6592798 132.5288953  53.1304481
  39.8617310 132.4956496  54.4167948  49.4084932 143.0143725  46.9608785
  48.6314375 142.6754885  46.5163947  50.0876413 143.0196348  46.2863750
  44.2236961 138.1338463  46.8515393  43.9187097 138.4484612  47.7025536
  45.1767403 138.2119883  46.8942726  42.6683393 144.2928686  48.5008347
  42.1404755 143.5581446  48.1881584  42.1670896 145.0703362  48.2548315
  47.6476239 142.4877706  53.6175393  46.9899913 143.1776968  53.7055522
  48.4516638 142.8774138  53.9609380  37.4002121 134.9548352  50.8614959
  37.9745873 134.7323534  50.1288152  37.9873103 135.0237047  51.6143560
  46.4581698 140.8422079  51.6679335  46.9713580 141.4752071  52.1701045
  47.1082922 140.2423275  51.3022695  37.7271708 136.9852813  44.8810844
  36.8909020 137.3227500  45.2020119  37.5876477 136.8501793  43.9437981
  39.7024788 131.8289601  49.5890028  39.0489201 131.5138618  48.9646643
  39.6605262 131.2065342  50.3149851  40.8135993 142.1108896  41.5043320
  39.9063055 141.8798150  41.7034469  41.3107025 141.3146515  41.6917302
  42.9362529 138.3171535  53.9137676  42.0185090 138.5386482  53.7559364
  43.3522672 138.3917845  53.0549383  43.7197576 139.7162950  49.0440356
  44.4669395 140.2284348  48.7347478  43.9889166 139.3947003  49.9044749
  41.9924227 142.2121491  46.0267310  41.0835446 141.9280524  46.1239780
  42.0219310 142.6320570  45.1670617  47.2243494 145.8228081  49.7958478
  46.7705821 144.9818990  49.8523668  46.5937461 146.4589479  50.1333258
  46.1676414 136.7520067  51.0259145  45.4299170 136.2397453  51.3569388
  46.4203187 136.3120448  50.2142422  45.6676433 147.6604577  50.7308296
  45.9599408 148.2209634  50.0120661  46.1775054 147.9533138  51.4861455
  46.2688041 129.5296319  51.6200914  46.5746918 128.6693682  51.3326830
  46.9940646 130.1213939  51.4199908  32.5612397 139.9327005  50.0082512
  32.3636797 139.3396366  49.2833579  32.0059061 139.6279215  50.7258451
  40.5409121 139.8250112  52.1277106  40.5957730 138.8723948  52.0519582
  39.7300323 139.9809551  52.6118404  41.6900314 143.7530235  43.3655389
  41.2519744 143.0366094  42.9061026  42.4310755 143.9806350  42.8040480
  38.4801481 138.4427171  49.8867484  37.6669346 138.7421342  50.2932677
  38.9760475 138.0482860  50.6041967  40.6310058 148.4384928  51.8201749
  40.5886237 148.6645775  50.8910281  41.5472757 148.2048303  51.9687550
  44.0775692 138.9068996  58.7182378  44.4325080 139.1340469  59.5776844
  44.7247823 139.2387373  58.0959634  49.8073429 142.0287432  49.4231707
  49.6691328 142.2189028  48.4952897  49.4509648 142.7906815  49.8799758
  37.9715555 136.0145527  55.5028719  38.6114935 135.8734286  54.8051683
  37.1393086 135.7280040  55.1267321  49.8342809 144.0963959  54.4342979
  50.2679315 144.0039248  55.2826033  50.5474390 144.0721459  53.7962995
  38.7475859 145.3147957  51.6163712  39.5416458 144.8198278  51.4146287
  38.0367552 144.7865821  51.2531417  43.5670704 147.6966053  55.9676079
  43.6207726 148.2656989  56.7353795  42.6985485 147.8667938  55.6030117
  35.0558623 139.4591039  47.6923464  34.1256211 139.3975495  47.9093427
  35.1516095 138.9366992  46.8960106  34.9744172 135.9845852  50.2801706
  35.2350989 136.8991185  50.1710867  35.7961344 135.5170295  50.4298319
  36.4469097 137.3983609  57.4500531  37.1192151 137.1900971  56.8013180
  35.6198884 137.2005695  57.0105763  50.6958358 144.1387659  56.9675864
  50.8894248 145.0433470  57.2135139  50.5958977 143.6795079  57.8014449
  42.3494669 134.0245550  59.4666192  41.7022584 134.7235500  59.3730668
  43.1195685 134.4581694  59.8342440  45.7573467 144.2894402  62.5416745
  45.6058973 144.0604954  61.6246829  45.7478147 145.2465004  62.5548090
  42.5258803 141.8626315  57.5263011  43.4550863 142.0137475  57.3531979
  42.1049833 141.9510336  56.6711658  41.3247135 145.8876979  55.2961549
  41.1858221 145.5195764  56.1687487  40.5361731 146.4024619  55.1245507
  42.8752350 145.2658582  52.6850387  42.5402183 145.2259352  53.5808037
  42.3756296 144.6003298  52.2120797  36.8496594 140.6726212  58.2102968
  36.7116392 139.9406451  58.8114507  37.7601518 140.5835112  57.9287156
  45.8111542 142.6114616  42.9587446  45.1940713 141.8861445  42.8620499
  45.3428030 143.3723977  42.6154521  39.4778895 140.3846171  57.6986647
  40.1878514 139.7439364  57.6573266  39.4348203 140.6359066  58.6212828
  47.4665674 147.3213525  60.6193227  47.4078220 146.6372745  59.9523810
  47.8685192 148.0632515  60.1673853  38.1907829 137.3711389  59.5182287
  37.6545186 136.9202128  60.1703883  37.6024537 137.5057298  58.7752751
  37.6010088 136.8300041  42.0808751  36.7239554 136.7088841  41.7170997
  38.0767841 136.0386119  41.8287639  47.4683081 145.2853109  58.8507206
  46.5809860 144.9479030  58.9733605  48.0381632 144.5536140  59.0875972
  29.1212228 141.6177200  52.1750258  29.8083268 141.3038930  51.5871273
  28.9660357 142.5218565  51.9017509  33.9246950 136.5067397  56.6035281
  33.8405139 135.8993067  55.8685691  33.1029657 136.9976415  56.6044778
  40.7874014 149.1826331  49.3271271  40.0041536 149.7248011  49.4209496
  41.4866759 149.7000311  49.7265512  44.0970664 134.9920961  51.9705477
  44.5939364 134.2390923  51.6506547  43.3257646 135.0285277  51.4048686
  51.9500421 140.6961326  53.6123768  51.9390298 141.5786041  53.2417701
  51.0817801 140.3432877  53.4178305  43.4582918 149.8441395  57.9726608
  44.1710890 150.4788860  57.9002510  42.9672947 149.9405261  57.1566610
  45.1800445 143.7492648  49.5443900  44.2456724 143.8694110  49.3748604
  45.3577113 142.8465115  49.2803910  40.6805633 137.1338344  51.6977161
  40.3103420 136.5809384  52.3858067  41.1764725 136.5296477  51.1452161
  48.5672996 139.5909967  50.0793934  49.0333448 140.4237959  50.0054237
  49.0180497 139.1254949  50.7839193  38.5094831 147.5935839  58.7932179
  39.2104291 148.2272322  58.9461573  38.0389946 147.9350570  58.0327818
  46.6349227 145.9353788  47.0780086  46.9109071 145.8210383  47.9873960
  45.7653726 145.5371273  47.0392259  46.5389659 131.9590554  54.1184835
  45.6252739 132.1894781  54.2867042  46.9682760 132.0428998  54.9698868
  46.3096117 140.1480446  56.6184729  45.6567568 140.3956353  55.9637182
  46.6876497 139.3344584  56.2847207  43.2703291 150.1840139  50.7212900
  43.4525686 149.3661795  51.1840652  44.0936277 150.4007831  50.2837790
  43.6045457 149.1108324  47.9827948  44.1333223 148.6000779  47.3698110
  43.8673676 148.7950855  48.8473481  42.3583690 140.8900257  63.1050766
  41.6824327 140.7894386  63.7753142  43.1811324 140.7339471  63.5686764
  34.1062549 147.1272194  55.7263282  34.6915986 146.3815881  55.8591186
  33.9087388 147.4376150  56.6099946  28.6980204 139.6977794  54.4467725
  28.7364304 139.1641384  55.2404843  28.1920497 139.1712999  53.8278702
  36.0770967 134.5442334  57.9430267  36.1412293 135.4057165  57.5307665
  36.0138087 133.9316336  57.2102626  35.5523239 136.6165467  61.5903301
  36.1795278 136.2342544  62.2040826  34.6951158 136.3979669  61.9558994
  45.9517348 147.0228442  63.1957037  46.4957252 147.6358400  62.7011992
  45.3704192 147.5808020  63.7124050  32.3288782 138.4241896  47.5221656
  32.6242223 137.5152574  47.4688710  31.4276818 138.4029635  47.2002659
  44.2374861 150.1449160  54.3272065  44.1126000 149.3438900  53.8183010
  44.8953952 150.6395353  53.8386035  35.8583029 136.4997893  53.5049205
  35.1369615 137.1133860  53.3656678  36.6476285 137.0355657  53.4265851
  46.3009769 147.9458180  55.9551615  45.3540104 147.8263531  55.8829941
  46.6492542 147.0580678  56.0377876  38.6609342 133.8352319  59.7789857
  39.1843744 134.0814616  60.5416166  38.4421676 134.6672354  59.3592994
  34.0576623 136.1055994  47.6460981  33.7289330 135.2253373  47.4636087
  34.4115994 136.0503662  48.5337371  43.3056202 147.7410896  52.1555967
  43.1581165 146.8127604  52.3363537  44.1309696 147.7630987  51.6713042
  37.1718447 136.3928963  48.0136459  37.5114519 136.9214885  47.2915067
  37.6190567 136.7309370  48.7895026  46.9090324 148.5639455  53.2420840
  47.8336872 148.3582316  53.1045291  46.7405627 148.3155856  54.1510181
  39.8661887 134.7766014  57.4639527  39.5258708 133.9773827  57.8660207
  39.1600894 135.0767725  56.8916360  40.5178359 131.8615327  55.9166850
  41.3404428 131.3875805  55.7945740  40.7616423 132.6405810  56.4165536
  39.1586594 134.8903585  46.2129752  39.8794956 135.2684838  45.7093469
  38.5351898 135.6092462  46.3164730  43.3017717 135.5948734  47.1488084
  43.5181331 136.4773372  46.8476912  42.8211784 135.2034947  46.4193726
  38.0416938 138.5534447  53.7258829  37.8961519 138.8674750  54.6183110
  37.5642142 139.1719348  53.1729727  39.9013321 135.5436995  53.7739718
  39.8874890 134.6478088  53.4372016  40.6185749 135.5507659  54.4078004
  41.7539452 135.9774335  55.8192846  41.4957229 136.8991406  55.8177176
  41.2224492 135.5804770  56.5093310  46.6985640 149.0825122  48.5982931
  46.8722518 148.5171545  47.8456784  47.1914532 149.8826017  48.4162421
  32.5162600 141.0939792  56.6646490  31.9716068 141.8699600  56.7966764
  33.3941950 141.4410596  56.5065611  39.3050217 134.4251375  49.0427288
  39.4266128 133.4968022  49.2418176  39.0152259 134.4390061  48.1305604
  42.1741407 132.1106286  52.1794008  42.1963104 132.1745619  51.2245988
  42.5909466 131.2710795  52.3734514  52.5525031 141.8461545  50.2173231
  52.9956177 141.0968871  49.8192354  51.6751542 141.8371682  49.8346963
  47.6860813 148.3991887  45.6979829  48.3811717 149.0198580  45.9167144
  48.0283963 147.5487238  45.9732207  33.3028622 140.2209688  59.5576647
  32.5610358 140.3692323  60.1441277  32.9821366 140.4817953  58.6943396
  49.5852236 145.8491592  47.2267160  50.1103560 146.1878865  46.5016480
  49.4974588 144.9138608  47.0430295  41.2472285 149.7625666  59.3557037
  41.5559411 149.5174813  60.2279736  42.0447767 149.9672305  58.8675907
  38.7166769 147.4601585  53.6584715  38.0946778 146.7972290  53.3586943
  39.3871636 147.4862717  52.9758363  31.9493841 146.0261443  52.5475975
  31.1125749 145.5983617  52.3659976  31.9217486 146.2193886  53.4846766
  38.7891296 135.9383373  63.2517221  38.8379452 136.8145496  62.8694991
  39.3313810 135.3960766  62.6788864  49.2746142 146.4824496  62.5318358
  48.4841686 146.4648635  61.9922858  49.0379497 147.0212790  63.2867395
  49.3944017 143.3316962  59.8451087  49.4442022 143.1666970  60.7866609
  49.2857940 142.4644221  59.4548967  38.2780276 146.0105508  47.1343176
  38.4268396 146.6940973  46.4809848  39.0846719 145.9910598  47.6492631
  46.6847779 139.3147890  61.1610393  47.5857642 139.1754355  60.8694391
  46.7595754 139.4802345  62.1008571  41.0190585 136.6914745  60.0063580
  40.1493894 136.9848311  59.7346168  41.2550065 137.2755190  60.7270843
  50.8962214 145.7513904  60.0893108  50.6047022 146.1143885  60.9256569
  50.2834345 145.0380912  59.9106440  52.0957896 143.3166784  52.6095678
  52.9304788 143.7556588  52.7733239  52.2317025 142.8405437  51.7903924
  49.1449402 140.8746519  58.5573166  49.6203524 141.0674165  57.7492018
  48.2214967 140.9305704  58.3116550  36.0332909 142.0370686  48.1404245
  35.7878951 141.1333016  48.3384455  36.2028823 142.0387836  47.1983723
  43.7229619 132.9094362  57.5229000  44.2411562 133.6455389  57.1975489
  43.3684751 133.2158355  58.3575759  35.3028556 137.7699043  45.6390406
  34.6097801 137.8443398  44.9830442  35.0580308 137.0059387  46.1611923
  43.9742213 129.3294645  53.0429897  44.2543967 128.6617834  53.6690323
  44.7592820 129.5223740  52.5304561  41.7775681 148.5053639  44.6054923
  41.2049648 149.1243826  44.1525395  42.3508475 149.0553000  45.1394845
  47.8451071 137.7512279  56.7901472  48.7968494 137.8510376  56.8113696
  47.6754522 136.9590547  57.2999556  45.8665451 134.8367862  56.9760873
  45.2715383 135.1172875  56.2807361  45.5815147 135.3261763  57.7477614
  44.9972941 148.7890789  45.7363505  45.9303614 148.7236350  45.9396381
  44.9096154 149.6247056  45.2778038  47.6260958 148.1056659  42.6967453
  47.5474589 147.7716523  43.5903211  48.4470624 148.5978427  42.6958925
  50.3239149 140.9718398  55.9043771  50.2915469 140.0334399  56.0903455
  50.9339773 141.0502435  55.1709596  42.1622480 139.8414451  41.9470976
  43.1081584 139.7120659  42.0159394  41.7836725 139.1029113  42.4240404
  50.4733637 137.7629442  55.9502055  49.9572686 136.9787898  55.7631984
  51.3573586 137.4348158  56.1148574  48.1344364 131.5070457  51.9097867
  47.9369185 131.1985546  52.7941199  48.7444070 132.2332096  52.0395797
  56.1415699 142.0334405  55.0449808  56.8719087 141.7719693  55.6057512
  55.5322644 141.2963127  55.0851876  54.2230996 140.1742268  55.6424259
  53.4964159 140.0398233  55.0340751  53.8078283 140.4819096  56.4480978
  42.0461172 143.8932197  63.4071632  42.9664182 144.0710796  63.6011679
  42.0110755 142.9488243  63.2551332  40.3465397 137.7664428  41.8825861
  39.4396852 137.4697540  41.9588574  40.6241378 137.4694246  41.0160147
  31.2643337 139.0870791  52.3324907  30.9446122 138.2336099  52.0399281
  30.7176765 139.3019369  53.0882874  35.0423245 141.8033232  56.0494414
  35.2609255 142.7350340  56.0682447  35.4549019 141.4441207  56.8349217
  41.9627463 132.3101317  48.0370102  41.1528191 131.9648402  48.4125348
  42.6511880 132.0008861  48.6257714  43.8918011 131.3879364  49.6594399
  44.4449050 131.8074818  50.3184422  44.1288097 130.4615112  49.7017355
  39.9151110 137.3766438  65.4397163  39.8147837 138.3260795  65.3709254
  39.6972652 137.0484677  64.5673233  39.1164182 134.6251363  42.0237840
  39.9783346 134.9506261  42.2833657  39.3014526 133.8382859  41.5110906
  31.1331597 142.7073703  54.3018029  30.4395069 142.2927655  53.7887983
  31.8804588 142.7494239  53.7051448  47.2696818 133.4979889  49.1673063
  46.6895487 134.1564693  48.7851115  47.0032751 132.6757234  48.7560480
  45.7200384 132.8984947  51.3694383  46.2200163 133.0101482  50.5608702
  46.3635992 132.5946000  52.0095192  39.7782380 140.8063577  64.2562224
  39.2949462 141.6063937  64.4626113  39.8643319 140.8171522  63.3029668
  33.0468340 142.6391956  52.1784044  33.0239028 142.7379644  51.2265927
  33.3568976 143.4857107  52.5001210  35.7055718 144.6968111  56.2930658
  36.6598971 144.6652054  56.2260590  35.5068241 144.2358735  57.1080884
  36.2955100 143.2669227  58.8601456  37.1147989 143.7613306  58.8836293
  36.5691908 142.3501196  58.8319023  46.0521696 135.6579980  48.2229411
  45.1647551 135.9429630  48.0049606  46.4675685 135.4973743  47.3756688
  49.4036232 135.6826501  51.9383750  50.1796622 136.1722953  52.2108367
  48.6784366 136.1084555  52.3955620  51.8408791 136.3954120  52.9957691
  52.4353282 136.1549856  52.2850999  51.9135374 135.6761251  53.6231227
  45.1964909 145.4224654  42.3177431  45.9000760 145.6274657  42.9335087
  44.4727558 145.9901416  42.5826515  46.0262720 141.1734516  48.4379701
  45.9697921 141.6303067  47.5987334  46.5791062 140.4125200  48.2602544
  49.8367526 136.9624248  49.2629821  49.5804460 136.5620883  50.0938029
  49.2120394 137.6768042  49.1379960  54.1479864 139.7020321  51.7701112
  53.5879421 139.7713510  52.5432674  53.5423367 139.5261305  51.0500609
  47.1051607 145.8607184  44.3675891  47.9397211 145.4288382  44.1853366
  46.9435950 145.6889197  45.2952786  46.7597499 142.3639297  45.7332231
  46.7046303 142.1983568  44.7920675  46.1343554 143.0715330  45.8894420
  31.5490014 137.6007361  59.5593653  32.1948878 137.0906315  60.0480878
  31.3407165 138.3376043  60.1337078  44.0743406 144.6688209  65.0585793
  44.9434566 144.8428861  64.6972428  43.5950158 145.4882626  64.9361523
  40.0693625 131.8647406  45.3117549  40.0572294 132.8089246  45.4685820
  40.9617046 131.6817551  45.0177010  43.8845744 128.4590183  49.5663486
  43.1178140 127.9048669  49.7120168  44.2956449 128.5312051  50.4277637
  35.8887505 134.7474978  63.6568667  36.7518967 134.3911783  63.8671992
  35.3152916 134.4088873  64.3444071  55.2877150 154.1028289  51.5384276
  56.0740240 153.6847712  51.1874693  55.5515855 155.0074381  51.7065924
  60.6885578 154.0403522  52.4417255  61.4210750 153.4702739  52.6755084
  59.9324933 153.6525122  52.8823760  58.2110998 147.7525096  56.9011863
  57.8794323 148.6220507  56.6773078  57.6156611 147.4361380  57.5805894
  51.9467184 151.4920663  44.6341946  52.1141587 152.3600899  45.0012417
  51.7564353 151.6547945  43.7103235  58.1039661 152.4720182  53.9805213
  57.1956539 152.4035591  53.6863974  58.0527257 152.9492127  54.8087039
  59.9701308 150.6736621  55.7583087  59.3275688 150.9669154  55.1122882
  59.4656236 150.5589541  56.5636284  57.6241471 154.4199794  46.4468946
  58.5359327 154.6527180  46.2716644  57.1151118 155.0036838  45.8844025
  52.2613309 153.7797028  57.4563796  53.1074504 154.2036442  57.5998445
  52.2011947 153.1230653  58.1502359  55.4112754 151.4401397  59.1144970
  55.1673686 152.1943457  58.5779245  55.6872685 151.8186744  59.9492217
  54.9677446 150.5957830  54.6958807  54.1061925 150.8939083  54.9875545
  54.9939881 150.8128229  53.7639840  66.5703038 157.2050713  52.3129564
  65.8166747 156.6358111  52.1573568  66.7050579 157.1713377  53.2600199
  48.4469006 148.1555695  64.6498639  48.0535951 147.6021894  65.3246283
  49.2635146 148.4666274  65.0405156  51.3636967 149.5713574  62.2418895
  52.1046680 150.1720727  62.1623358  51.5954890 148.8291212  61.6836938
  55.3094130 145.5994677  56.5183177  54.9658399 146.4896319  56.4422287
  55.6773092 145.4096335  55.6552762  52.8591524 150.4352989  50.0840850
  52.0033120 150.0459839  49.9046489  53.2718475 150.5144950  49.2240636
  54.3890670 147.9699332  54.4832410  53.8855466 147.9329467  53.6700215
  54.6821277 148.8792075  54.5429067  50.6333556 148.0538062  53.4898592
  51.4986553 147.8580871  53.1304481  50.7011065 147.8248414  54.4167948
  55.0630716 153.4630380  46.8515393  54.7580851 153.7776529  47.7025536
  56.0161158 153.5411800  46.8942726  48.2395875 150.2840270  50.8614959
  48.8139627 150.0615451  50.1288152  48.8266858 150.3528964  51.6143560
  48.5665462 152.3144731  44.8810844  47.7302774 152.6519417  45.2020119
  48.4270232 152.1793711  43.9437981  50.5418543 147.1581519  49.5890028
  49.8882955 146.8430536  48.9646643  50.4999017 146.5357259  50.3149851
  53.7756283 153.6463452  53.9137676  52.8578845 153.8678399  53.7559364
  54.1916427 153.7209763  53.0549383  57.0070168 152.0811984  51.0259145
  56.2692925 151.5689371  51.3569388  57.2596942 151.6412366  50.2142422
  57.1081795 144.8588236  51.6200914  57.4140672 143.9985600  51.3326830
  57.8334400 145.4505856  51.4199908  54.9169447 154.2360914  58.7182378
  55.2718834 154.4632387  59.5776844  55.5641578 154.5679290  58.0959634
  48.8109310 151.3437445  55.5028719  49.4508689 151.2026204  54.8051683
  47.9786840 151.0571958  55.1267321  53.1888424 149.3537468  59.4666192
  52.5416339 150.0527417  59.3730668  53.9589439 149.7873612  59.8342440
  49.0301583 152.7003307  59.5182287  48.4938940 152.2494045  60.1703883
  48.4418292 152.8349216  58.7752751  48.4403842 152.1591958  42.0808751
  47.5633309 152.0380759  41.7170997  48.9161596 151.3678037  41.8287639
  54.9364419 150.3212878  51.9705477  55.4333118 149.5682841  51.6506547
  54.1651400 150.3577195  51.4048686  62.7894176 156.0253244  53.6123768
  62.7784052 156.9077959  53.2417701  61.9211555 155.6724795  53.4178305
  51.5199387 152.4630261  51.6977161  51.1497175 151.9101302  52.3858067
  52.0158480 151.8588395  51.1452161  59.4066751 154.9201885  50.0793934
  59.8727203 155.7529876  50.0054237  59.8574251 154.4546866  50.7839193
  57.3783413 147.2882472  54.1184835  56.4646493 147.5186699  54.2867042
  57.8076515 147.3720916  54.9698868  57.1489872 155.4772364  56.6184729
  56.4961322 155.7248271  55.9637182  57.5270252 154.6636502  56.2847207
  46.9164721 149.8734252  57.9430267  46.9806047 150.7349083  57.5307665
  46.8531841 149.2608254  57.2102626  46.3916994 151.9457385  61.5903301
  47.0189032 151.5634462  62.2040826  45.5344912 151.7271586  61.9558994
  49.5003097 149.1644237  59.7789857  50.0237499 149.4106533  60.5416166
  49.2815430 149.9964272  59.3592994  44.8970378 151.4347911  47.6460981
  44.5683084 150.5545290  47.4636087  45.2509749 151.3795580  48.5337371
  48.0112201 151.7220881  48.0136459  48.3508274 152.2506802  47.2915067
  48.4584321 152.0601287  48.7895026  50.7055642 150.1057932  57.4639527
  50.3652462 149.3065745  57.8660207  49.9994648 150.4059643  56.8916360
  51.3572114 147.1907244  55.9166850  52.1798183 146.7167722  55.7945740
  51.6010177 147.9697728  56.4165536  49.9980348 150.2195503  46.2129752
  50.7188711 150.5976755  45.7093469  49.3745652 150.9384379  46.3164730
  54.1411471 150.9240652  47.1488084  54.3575085 151.8065290  46.8476912
  53.6605538 150.5326865  46.4193726  50.7407075 150.8728913  53.7739718
  50.7268644 149.9770006  53.4372016  51.4579503 150.8799577  54.4078004
  52.5933206 151.3066253  55.8192846  52.3350984 152.2283324  55.8177176
  52.0618246 150.9096688  56.5093310  50.1443971 149.7543293  49.0427288
  50.2659882 148.8259939  49.2418176  49.8546014 149.7681979  48.1305604
  53.0135162 147.4398204  52.1794008  53.0356858 147.5037537  51.2245988
  53.4303221 146.6002712  52.3734514  63.3918786 157.1753463  50.2173231
  63.8349932 156.4260788  49.8192354  62.5145296 157.1663599  49.8346963
  49.6285051 151.2675291  63.2517221  49.6773206 152.1437413  62.8694991
  50.1707565 150.7252684  62.6788864  57.5241534 154.6439808  61.1610393
  58.4251397 154.5046273  60.8694391  57.5989508 154.8094263  62.1008571
  51.8584339 152.0206663  60.0063580  50.9887649 152.3140229  59.7346168
  52.0943820 152.6047108  60.7270843  59.9843157 156.2038436  58.5573166
  60.4597278 156.3966083  57.7492018  59.0608722 156.2597622  58.3116550
  54.5623373 148.2386280  57.5229000  55.0805317 148.9747307  57.1975489
  54.2078506 148.5450273  58.3575759  54.8135967 144.6586562  53.0429897
  55.0937721 143.9909751  53.6690323  55.5986574 144.8515658  52.5304561
  58.6844826 153.0804196  56.7901472  59.6362248 153.1802294  56.8113696
  58.5148276 152.2882465  57.2999556  56.7059205 150.1659780  56.9760873
  56.1109137 150.4464792  56.2807361  56.4208902 150.6553681  57.7477614
  61.1632903 156.3010316  55.9043771  61.1309223 155.3626317  56.0903455
  61.7733527 156.3794353  55.1709596  61.3127392 153.0921359  55.9502055
  60.7966440 152.3079816  55.7631984  62.1967340 152.7640076  56.1148574
  58.9738119 146.8362375  51.9097867  58.7762940 146.5277463  52.7941199
  59.5837824 147.5624014  52.0395797  66.9809453 157.3626323  55.0449808
  67.7112842 157.1011611  55.6057512  66.3716399 156.6255045  55.0851876
  65.0624750 155.5034185  55.6424259  64.3357914 155.3690150  55.0340751
  64.6472037 155.8111014  56.4480978  51.1859151 153.0956345  41.8825861
  50.2790607 152.7989458  41.9588574  51.4635132 152.7986163  41.0160147
  52.8021217 147.6393235  48.0370102  51.9921945 147.2940320  48.4125348
  53.4905634 147.3300779  48.6257714  54.7311765 146.7171282  49.6594399
  55.2842804 147.1366735  50.3184422  54.9681852 145.7907030  49.7017355
  50.7544865 152.7058356  65.4397163  50.6541592 153.6552713  65.3709254
  50.5366407 152.3776594  64.5673233  49.9557936 149.9543281  42.0237840
  50.8177100 150.2798179  42.2833657  50.1408280 149.1674777  41.5110906
  58.1090572 148.8271807  49.1673063  57.5289242 149.4856611  48.7851115
  57.8426505 148.0049152  48.7560480  56.5594139 148.2276865  51.3694383
  57.0593917 148.3393399  50.5608702  57.2029747 147.9237918  52.0095192
  56.8915450 150.9871897  48.2229411  56.0041306 151.2721548  48.0049606
  57.3069440 150.8265661  47.3756688  60.2429987 151.0118418  51.9383750
  61.0190377 151.5014871  52.2108367  59.5178121 151.4376473  52.3955620
  62.6802545 151.7246038  52.9957691  63.2747036 151.4841774  52.2850999
  62.7529129 151.0053168  53.6231227  60.6761280 152.2916165  49.2629821
  60.4198214 151.8912801  50.0938029  60.0514148 153.0059959  49.1379960
  64.9873618 155.0312239  51.7701112  64.4273176 155.1005428  52.5432674
  64.3817121 154.8553223  51.0500609  50.9087379 147.1939324  45.3117549
  50.8966049 148.1381164  45.4685820  51.8010801 147.0109469  45.0177010
  54.7239498 143.7882100  49.5663486  53.9571894 143.2340587  49.7120168
  55.1350203 143.8603969  50.4277637  46.7281260 150.0766896  63.6568667
  47.5912721 149.7203701  63.8671992  46.1546670 149.7380791  64.3444071
   1.5340512  42.2361329  39.0374871   0.7804221  41.6668728  38.8818875
   1.6688054  42.2023994  39.9845505   1.9446928  42.3936939  41.7695115
   2.6750316  42.1322228  42.3302818   1.3353873  41.6565661  41.8097183
   1.5367111  56.7379369  41.1876375   2.1745521  56.6186116  40.4839715
   1.4187954  57.6860213  41.2464327   1.0908379  54.4630823  38.2629583
   1.8771468  54.0450246  37.9120000   1.3547084  55.3676915  38.4311231
   1.2618457  59.9003673  32.9618239   0.6264290  59.9738300  33.6739144
   0.9315863  60.4897272  32.2837319   6.4916806  54.4006056  39.1662561
   7.2241978  53.8305273  39.4000391   5.7356162  54.0127656  39.6069067
   4.0142227  48.1127630  43.6257170   3.6825552  48.9823041  43.4018385
   3.4187840  47.7963914  44.3051200   3.9070890  52.8322716  40.7050520
   2.9987767  52.7638125  40.4109281   3.8558486  53.3094661  41.5332345
   5.7732536  51.0339155  42.4828394   5.1306917  51.3271688  41.8368188
   5.2687465  50.9192075  43.2881590   3.4272700  54.7802328  33.1714253
   4.3390556  55.0129715  32.9961951   2.9182347  55.3639372  32.6089332
   1.7113468  59.2026956  46.8075546   2.1196824  58.7609366  46.0630178
   0.9890729  58.6279583  47.0609738   2.0342282  59.7628146  40.5627834
   1.4051145  59.9273860  39.8603902   1.6467945  60.1769756  41.3338799
   5.9131514  60.6982584  37.9172198   5.2282552  61.0781486  37.3669232
   5.9975364  61.3077911  38.6504146   1.2143983  51.8003931  45.8390276
   0.9704915  52.5545991  45.3024552   1.4903914  52.1789278  46.6737523
   3.1682446  58.3442543  44.5167542   3.3799341  58.9874303  43.8401923
   3.1212194  57.5104860  44.0489472   4.2828274  61.2214499  42.6889899
   5.1045718  60.8194686  42.4072581   4.2790677  61.1182733  43.6406015
  12.3734267  57.5653247  39.0374871  11.6197975  56.9960645  38.8818875
  12.5081808  57.5315912  39.9845505   1.4882609  63.3393016  46.8711333
   1.4701085  64.1601897  46.3791602   2.4102529  63.2147091  47.0961474
   1.1125359  45.9597211  43.2428483   0.7689628  46.8498853  43.1667594
   1.4804321  45.7698869  42.3798068   1.0775641  55.9505822  31.7500919
   0.5622265  56.7210427  31.9889306   0.8052950  55.2770959  32.3733980
   6.0509915  58.7038177  33.6854092   5.2739358  58.3649337  33.2409254
   6.7301396  58.7090800  33.0109057   0.8661944  53.8232915  33.5760700
   0.5612080  54.1379064  34.4270843   1.8192387  53.9014334  33.6188033
   4.2901222  58.1772158  40.3420700   3.6324897  58.8671420  40.4300829
   5.0941622  58.5668590  40.6854686   3.1006681  56.5316531  38.3924642
   3.6138563  57.1646523  38.8946351   3.7507905  55.9317727  38.0268002
   3.8668477  61.5122532  36.5203784   3.4130804  60.6713442  36.5768975
   3.2362444  62.1483931  36.8578565   2.8101397  52.4414519  37.7504452
   2.0724154  51.9291905  38.0814694   3.0628170  52.0014900  36.9387729
   2.3101417  63.3499029  37.4553603   2.6024391  63.9104086  36.7365968
   2.8200037  63.6427590  38.2106762   2.9113024  45.2190771  38.3446221
   3.2171901  44.3588134  38.0572136   3.6365629  45.8108391  38.1445215
   0.7200676  54.5963448  45.4427685   1.0750063  54.8234921  46.3022151
   1.3672807  54.9281825  44.8204940   6.4498412  57.7181884  36.1477014
   6.3116311  57.9083480  35.2198203   6.0934631  58.4801267  36.6045065
   6.4767792  59.7858411  41.1588285   6.9104299  59.6933700  42.0071339
   7.1899373  59.7615911  40.5208301   7.3383342  59.8282111  43.6921171
   7.5319232  60.7327922  43.9380446   7.2383960  59.3689530  44.5259756
   2.3998450  59.9788854  49.2662051   2.2483957  59.7499406  48.3492135
   2.3903130  60.9359456  49.2793396   2.4536525  58.3009068  29.6832753
   1.8365696  57.5755896  29.5865806   1.9853014  59.0618429  29.3399827
   4.1090657  63.0107977  47.3438533   4.0503203  62.3267197  46.6769116
   4.5110175  63.7526967  46.8919159   4.1108064  60.9747561  45.5752513
   3.2234843  60.6373482  45.6978912   4.6806615  60.2430592  45.8121278
   8.5925405  56.3855778  40.3369075   8.5815281  57.2680493  39.9663008
   7.7242784  56.0327329  40.1423612   1.8225428  59.4387100  36.2689207
   0.8881707  59.5588562  36.0993911   2.0002097  58.5359566  36.0049216
   5.2097979  55.2804419  36.8039241   5.6758432  56.1132411  36.7299543
   5.6605480  54.8149400  37.5084499   3.2774211  61.6248240  33.8025393
   3.5534054  61.5104835  34.7119267   2.4078709  61.2265725  33.7637566
   3.1814642  47.6485006  40.8430142   2.2677722  47.8789233  41.0112349
   3.6107744  47.7323450  41.6944174   2.9521101  55.8374898  43.3430036
   2.2992551  56.0850805  42.6882489   3.3301481  55.0239036  43.0092513
   2.5942331  62.7122894  49.9202344   3.1382235  63.3252852  49.4257298
   2.0129176  63.2702472  50.4369357   0.8799844  65.8343612  41.0517371
   0.7550983  65.0333352  40.5428317   1.5378935  66.3289805  40.5631341
   2.9434752  63.6352632  42.6796921   1.9965088  63.5157983  42.6075248
   3.2917525  62.7475130  42.7623183   3.5515307  64.2533907  39.9666146
   4.4761855  64.0476768  39.8290597   3.3830611  64.0050308  40.8755488
   3.3410624  64.7719574  35.3228238   3.5147501  64.2065997  34.5702090
   3.8339515  65.5720469  35.1407728   9.1950015  57.5355997  36.9418538
   9.6381161  56.7863323  36.5437661   8.3176525  57.5266134  36.5592270
   4.3285796  64.0886339  32.4225136   5.0236701  64.7093031  32.6412451
   4.6708946  63.2381690  32.6977514   6.2277219  61.5386044  33.9512467
   6.7528543  61.8773317  33.2261787   6.1399572  60.6033060  33.7675601
   5.9171125  62.1718948  49.2563665   5.1266669  62.1543087  48.7168164
   5.6804480  62.7107242  50.0112701   6.0369000  59.0211414  46.5696393
   6.0867005  58.8561422  47.5111916   5.9282924  58.1538673  46.1794274
   3.3272763  55.0042342  47.8855700   4.2282625  54.8648807  47.5939698
   3.4020737  55.1696797  48.8253877   7.5387197  61.4408356  46.8138415
   7.2472005  61.8038336  47.6501876   6.9259328  60.7275364  46.6351747
   8.7382879  59.0061236  39.3340985   9.5729771  59.4451040  39.4978545
   8.8742008  58.5299889  38.5149231   5.7874385  56.5640970  45.2818473
   6.2628507  56.7568617  44.4737324   4.8639951  56.6200156  45.0361857
   0.6167196  45.0189097  39.7675203   0.8968950  44.3512286  40.3935630
   1.4017803  45.2118192  39.2549867   4.4876054  53.4406731  43.5146778
   5.4393477  53.5404828  43.5359003   4.3179505  52.6484999  44.0244863
   2.5090434  50.5262314  43.7006179   1.9140366  50.8067327  43.0052668
   2.2240131  51.0156215  44.4722920   1.6397924  64.4785241  32.4608812
   2.5728597  64.4130802  32.6641687   1.5521137  65.3141507  32.0023345
   4.2685941  63.7951111  29.4212760   4.1899573  63.4610975  30.3148517
   5.0895608  64.2872879  29.4204232   6.9664132  56.6612850  42.6289078
   6.9340452  55.7228851  42.8148762   7.5764756  56.7396887  41.8954903
   7.1158621  53.4523894  42.6747361   6.5997669  52.6682350  42.4877290
   7.9998569  53.1242610  42.8393881   4.7769348  47.1964909  38.6343174
   4.5794169  46.8879997  39.5186506   5.3869053  47.9226548  38.7641104
  12.7840682  57.7228857  41.7695115  13.5144070  57.4614145  42.3302818
  12.1747627  56.9857579  41.8097183  10.8655979  55.8636720  42.3669566
  10.1389143  55.7292685  41.7586058  10.4503266  56.1713548  43.1726284
   0.5342994  47.0773816  36.3839705   1.0874033  47.4969270  37.0429728
   0.7713081  46.1509564  36.4262661   3.9121801  49.1874341  35.8918370
   3.3320470  49.8459145  35.5096422   3.6457734  48.3651686  35.4805787
   2.3625368  48.5879399  38.0939690   2.8625146  48.6995934  37.2854009
   3.0060976  48.2840452  38.7340498   2.6946679  51.3474432  34.9474718
   1.8072534  51.6324082  34.7294913   3.1100668  51.1868195  34.1001995
   6.0461215  51.3720953  38.6629057   6.8221606  51.8617405  38.9353674
   5.3209350  51.7979007  39.1200927   8.4833774  52.0848572  39.7202998
   9.0778265  51.8444308  39.0096306   8.5560358  51.3655702  40.3476534
   1.8389893  61.1119106  29.0422738   2.5425743  61.3169109  29.6580393
   1.1152542  61.6795868  29.3071821   2.6687703  56.8628968  35.1625008
   2.6122904  57.3197519  34.3232640   3.2216046  56.1019652  34.9847851
   6.4792509  52.6518699  35.9875127   6.2229443  52.2515335  36.8183335
   5.8545377  53.3662493  35.8625267  10.7904847  55.3914773  38.4946419
  10.2304405  55.4607962  39.2677981  10.1848350  55.2155757  37.7745915
   3.7476590  61.5501636  31.0921198   4.5822194  61.1182834  30.9098673
   3.5860933  61.3783649  32.0198092   3.4022482  58.0533749  32.4577537
   3.3471286  57.8878020  31.5165981   2.7768538  58.7609782  32.6139727
  12.3760865  72.0671287  41.1876375  13.0139275  71.9478034  40.4839715
  12.2581708  73.0152131  41.2464327   9.1850572  72.0198715  41.1237899
   8.8469083  71.9039779  40.2358434  10.0540340  71.6189880  41.1038905
   5.0437387  73.8734191  37.1134790   4.4802252  73.7824128  36.3451078
   4.9289782  73.0534096  37.5937283   9.6670355  73.1733566  47.0824105
   9.6558995  72.7786365  46.2104609   9.8290994  72.4399639  47.6757876
   2.5901819  75.3685383  39.9519011   3.3823111  75.0276207  39.5365310
   2.8298469  75.4780358  40.8721164  10.6236946  77.5405159  32.4249255
   9.9724926  78.1259239  32.0383269  11.4181309  78.0711354  32.4844293
   4.5492573  74.6294296  32.8236390   5.3223449  74.0823283  32.6849265
   4.9017972  75.4938545  33.0350851   6.3877616  75.9570678  46.0303289
   6.0967482  76.8616309  45.9149955   7.0234600  75.9987206  46.7447358
   7.3133823  73.3347527  42.6204648   7.9097395  73.1103549  41.9061611
   7.3708794  72.5932272  43.2230096   6.8858851  70.7886962  30.4554839
   7.1384372  70.2668483  29.6938302   5.9483410  70.6253108  30.5581523
  11.9302134  69.7922741  38.2629583  12.7165223  69.3742164  37.9120000
  12.1940838  70.6968833  38.4311231  12.1012211  75.2295591  32.9618239
  11.4658044  75.3030217  33.6739144  11.7709618  75.8189190  32.2837319
  17.3310561  69.7297974  39.1662561  18.0635733  69.1597191  39.4000391
  16.5749917  69.3419574  39.6069067   6.6055140  72.6915068  32.6579214
   6.4891398  72.0159971  33.3260299   6.7157400  72.2047442  31.8411367
   8.9486681  72.1525215  36.3625904   8.5844888  71.6255836  37.0738825
   9.8053797  71.7623684  36.1892389  14.8535981  63.4419548  43.6257170
  14.5219306  64.3114959  43.4018385  14.2581595  63.1255832  44.3051200
   8.5892168  67.1815115  31.3587252   8.7566570  68.0495351  31.7257723
   8.3989337  67.3442397  30.4348541  11.3467501  75.6432094  43.0253083
  11.0468224  76.5457133  42.9168890  11.0018560  75.3764277  43.8774235
   4.7979982  72.0945891  39.0589787   3.8730479  71.9622105  39.2667479
   5.0464395  72.8740110  39.5559729  14.7464645  68.1614634  40.7050520
  13.8381522  68.0930042  40.4109281  14.6952240  68.6386579  41.5332345
   8.5681388  69.6372772  32.3433919   8.4481014  70.0829823  33.1819399
   7.8733977  69.9858090  31.7847457   2.1588793  71.7379164  39.8933576
   2.2881174  71.9913643  40.8072988   1.4786245  72.3306872  39.5738231
   6.3288281  82.4076414  35.9924050   6.2512310  83.3584239  36.0712531
   5.7249924  82.0622287  36.6498977   8.8205510  69.5804280  48.6485417
   8.0438844  70.1398200  48.6388282   9.4596073  70.0661063  49.1700287
  16.6126291  66.3631072  42.4828394  15.9700671  66.6563606  41.8368188
  16.1081219  66.2483993  43.2881590  14.2666455  70.1094246  33.1714253
  15.1784311  70.3421632  32.9961951  13.7576102  70.6931290  32.6089332
   7.0751883  72.3889733  48.2103384   7.8166567  72.9274777  47.9338208
   6.3688868  73.0156022  48.3674936  12.5507222  74.5318873  46.8075546
  12.9590578  74.0901284  46.0630178  11.8284484  73.9571501  47.0609738
   8.9038292  69.4691480  44.1809103   9.7499488  69.8930894  44.3243752
   8.8436930  68.8125105  44.8747666  12.8736037  75.0920064  40.5627834
  12.2444899  75.2565778  39.8603902  12.4861699  75.5061674  41.3338799
  16.7525269  76.0274502  37.9172198  16.0676307  76.4073403  37.3669232
  16.8369118  76.6369829  38.6504146  12.0537738  67.1295849  45.8390276
  11.8098670  67.8837909  45.3024552  12.3297668  67.5081196  46.6737523
  14.0076200  73.6734461  44.5167542  14.2193096  74.3166221  43.8401923
  13.9605949  72.8396777  44.0489472  11.6102429  66.2852282  41.4204114
  10.7486908  66.5833535  41.7120851  11.6364864  66.5022680  40.4885147
   8.4263999  74.8294472  37.8277920   8.8902344  75.1082175  37.0382542
   8.1620797  73.9277917  37.6451010   5.3188080  74.3765954  40.7657683
   5.8889437  74.8053222  40.1275167   5.9096192  74.0948538  41.4641869
   7.3632885  70.9517625  34.6367485   8.0656928  71.4038668  35.1041411
   7.0313513  70.3101443  35.2647378   5.8113246  69.5429381  49.0118694
   5.1811907  70.2245662  49.2454091   5.7049334  69.4312463  48.0671832
  15.1222028  76.5506416  42.6889899  15.9439472  76.1486604  42.4072581
  15.1184431  76.4474651  43.6406015   3.0572964  69.5745756  36.8968095
   2.2604127  69.6864451  37.4151591   2.8298556  69.9132409  36.0308986
   8.8878632  76.0990460  44.8450610   8.9523064  76.5610867  45.6808781
   8.1789556  75.4687825  44.9732919  23.2128021  72.8945165  39.0374871
  22.4591730  72.3252563  38.8818875  23.3475563  72.8607829  39.9845505
   8.6026649  77.7658567  34.7129590   8.4672324  78.6110103  35.1414438
   9.1436462  77.9677845  33.9495524   5.0893989  63.8450147  51.3743945
   4.6960935  63.2916346  52.0491589   5.9060129  64.1560725  51.7650463
   2.0556047  75.2834005  35.2857515   2.5680567  76.0777255  35.4363080
   2.7078760  74.5860296  35.2191116   3.8650932  78.3999761  37.3680268
   4.0417560  79.3217726  37.1801252   4.6607765  78.0858181  37.7974648
   8.0061950  65.2608026  48.9664202   8.7471663  65.8615179  48.8868664
   8.2379873  64.5185664  48.4082244   3.1503288  70.4464393  47.2442431
   3.0356803  69.5449651  47.5449530   2.2947806  70.6928090  46.8927248
  10.2295126  78.3882134  48.8429932   9.7858980  77.6018512  48.5250837
  10.8912339  78.5761284  48.1773823   4.9882247  79.9177935  43.3690611
   5.5389672  79.7894999  42.5967604   4.1493723  80.2172824  43.0185503
  12.3276364  78.6684934  46.8711333  12.3094839  79.4893815  46.3791602
  13.2496284  78.5439009  47.0961474   8.7849418  76.1829063  47.7134842
   9.3177755  75.4217351  47.4834150   8.2563499  75.8902715  48.4558996
  11.9519113  61.2889129  43.2428483  11.6083382  62.1790771  43.1667594
  12.3198076  61.0990787  42.3798068  11.9169396  71.2797740  31.7500919
  11.4016019  72.0502345  31.9889306  11.6446704  70.6062876  32.3733980
   9.5016507  66.1247441  36.8086157   8.6458103  65.7354291  36.6291796
   9.9143459  66.2039402  35.9485942  11.0315653  63.6593784  41.2077717
  10.5280449  63.6223919  40.3945522  11.3246260  64.5686527  41.2674373
   7.2758539  63.7432514  40.2143898   8.1411536  63.5475323  39.8549788
   7.3436048  63.5142866  41.1413255  16.8903670  74.0330095  33.6854092
  16.1133113  73.6941254  33.2409254  17.5695151  74.0382718  33.0109057
  11.7055699  69.1524832  33.5760700  11.4005835  69.4670981  34.4270843
  12.6586141  69.2306252  33.6188033  10.1502131  75.3115056  35.2253654
   9.6223492  74.5767815  34.9126891   9.6489634  76.0889732  34.9793622
  15.1294977  73.5064076  40.3420700  14.4718651  74.1963337  40.4300829
  15.9335376  73.8960508  40.6854686   4.8820858  65.9734722  37.5860265
   5.4564610  65.7509903  36.8533458   5.4691841  66.0423416  38.3388866
  13.9400436  71.8608449  38.3924642  14.4532317  72.4938441  38.8946351
  14.5901659  71.2609644  38.0268002   5.2090446  68.0039183  31.6056150
   4.3727758  68.3413869  31.9265425   5.0695215  67.8688163  30.6683287
   7.1843526  62.8475971  36.3135335   6.5307938  62.5324988  35.6891949
   7.1424000  62.2251711  37.0395158   8.2954731  73.1295266  28.2288627
   7.3881793  72.8984519  28.4279776   8.7925763  72.3332885  28.4162608
  11.2022810  81.8392773  31.1485313  10.5284509  82.1424470  31.7570271
  11.5888632  82.6421853  30.7990770  10.4181266  69.3357904  40.6382982
   9.5003828  69.5572851  40.4804670  10.8341410  69.4104215  39.7794690
  11.2016314  70.7349320  35.7685663  11.9488133  71.2470717  35.4592785
  11.4707904  70.4133373  36.6290056   9.4742964  73.2307861  32.7512617
   8.5654184  72.9466893  32.8485087   9.5038048  73.6506939  31.8915924
  14.7062232  76.8414450  36.5203784  14.2524559  76.0005360  36.5768975
  14.0756199  77.4775849  36.8578565  13.6495151  67.7706436  37.7504452
  12.9117908  67.2583822  38.0814694  13.9021925  67.3306818  36.9387729
  13.1495171  78.6790947  37.4553603  13.4418145  79.2396004  36.7365968
  13.6593792  78.9719508  38.2106762  13.7506779  60.5482688  38.3446221
  14.0565656  59.6880052  38.0572136  14.4759384  61.1400308  38.1445215
   8.0227858  70.8436481  38.8522412   8.0776468  69.8910318  38.7764889
   7.2119060  70.9995920  39.3363711   9.1719052  74.7716604  30.0900695
   8.7338482  74.0552463  29.6306333   9.9129493  74.9992719  29.5285787
   5.9620218  69.4613541  36.6112791   5.1488084  69.7607712  37.0177983
   6.4579213  69.0669230  37.3287273   8.1128796  79.4571298  38.5447056
   8.0704975  79.6832144  37.6155588   9.0291495  79.2234673  38.6932857
  11.5594430  69.9255365  45.4427685  11.9143818  70.1526839  46.3022151
  12.2066561  70.2573742  44.8204940  17.2892167  73.0473801  36.1477014
  17.1510066  73.2375397  35.2198203  16.9328386  73.8093184  36.6045065
   5.4534293  67.0331897  42.2274026   6.0933672  66.8920656  41.5296989
   4.6211824  66.7466410  41.8512628  17.3161547  75.1150328  41.1588285
  17.7498053  75.0225617  42.0071339  18.0293127  75.0907829  40.5208301
   6.2294597  76.3334327  38.3409018   7.0235196  75.8384647  38.1391593
   5.5186289  75.8052190  37.9776724  11.0489441  78.7152422  42.6921386
  11.1026464  79.2843359  43.4599102  10.1804223  78.8854308  42.3275423
   2.5377360  70.4777409  34.4168771   1.6074949  70.4161864  34.6338733
   2.6334832  69.9553361  33.6205412   2.4562910  67.0032222  37.0047013
   2.7169727  67.9177555  36.8956173   3.2780082  66.5356664  37.1543626
   3.9287835  68.4169979  44.1745837   4.6010888  68.2087341  43.5258486
   3.1017621  68.2192065  43.7351070  18.1777096  75.1574029  43.6921171
  18.3712986  76.0619840  43.9380446  18.0777714  74.6981448  44.5259756
   9.8313407  65.0431920  46.1911498   9.1841322  65.7421869  46.0975975
  10.6014422  65.4768064  46.5587746  13.2392205  75.3080772  49.2662051
  13.0877711  75.0791323  48.3492135  13.2296884  76.2651373  49.2793396
  10.0077541  72.8812685  44.2508318  10.9369601  73.0323844  44.0777285
   9.5868571  72.9696705  43.3956964   8.8065873  76.9063349  42.0206856
   8.6676959  76.5382133  42.8932794   8.0180469  77.4210988  41.8490813
   9.4014025  82.0072445  33.3632392   9.5765781  81.5360489  34.1778015
   8.7146813  82.6338212  33.5913653  10.3571088  76.2844952  39.4095693
  10.0220921  76.2445722  40.3053343   9.8575034  75.6189668  38.9366104
   4.3315332  71.6912582  44.9348274   4.1935130  70.9592820  45.5359814
   5.2420256  71.6021482  44.6532462  13.2930280  73.6300986  29.6832753
  12.6759450  72.9047814  29.5865806  12.8246768  74.3910346  29.3399827
   6.9597633  71.4032541  44.4231954   7.6697251  70.7625733  44.3818573
   6.9166941  71.6545436  45.3458135  14.9484411  78.3399894  47.3438533
  14.8896958  77.6559114  46.6769116  15.3503930  79.0818884  46.8919159
   5.6726567  68.3897759  46.2427594   5.1363924  67.9388497  46.8949190
   5.0843275  68.5243668  45.4998058   3.9675110  85.1561808  40.1372252
   4.2071709  85.7880332  40.8151271   3.1244307  84.8049848  40.4237611
   5.0828826  67.8486410  28.8054057   4.2058292  67.7275211  28.4416304
   5.5586579  67.0572489  28.5532946  14.9501819  76.3039478  45.5752513
  14.0628598  75.9665400  45.6978912  15.5200370  75.5722509  45.8121278
   1.4065688  67.5253767  43.3280588   1.3223877  66.9179436  42.5930998
   0.5848394  68.0162785  43.3290084   8.4802972  80.9640931  42.5413756
   8.4073144  81.7695902  43.0533061   8.0380365  81.1632896  41.7161778
   8.2692752  80.2012701  36.0516578   7.4860274  80.7434381  36.1454802
   8.9685497  80.7186680  36.4510819  11.5789402  66.0107330  38.6950783
  12.0758101  65.2577292  38.3751853  10.8076383  66.0471647  38.1293992
  19.4319159  71.7147696  40.3369075  19.4209036  72.5972411  39.9663008
  18.5636539  71.3619246  40.1423612  10.9401656  80.8627765  44.6971915
  11.6529628  81.4975229  44.6247816  10.4491684  80.9591631  43.8811917
  12.6619183  74.7679017  36.2689207  11.7275461  74.8880480  36.0993911
  12.8395851  73.8651484  36.0049216   8.1624371  68.1524713  38.4222468
   7.7922158  67.5995753  39.1103373   8.6583463  67.5482847  37.8697468
  16.0491734  70.6096337  36.8039241  16.5152186  71.4424328  36.7299543
  16.4999234  70.1441318  37.5084499   5.9913569  78.6122208  45.5177486
   6.6923029  79.2458691  45.6706880   5.5208684  78.9536940  44.7573125
  14.1167965  76.9540158  33.8025393  14.3927809  76.8396752  34.7119267
  13.2472464  76.5557643  33.7637566  14.0208397  62.9776924  40.8430142
  13.1071476  63.2081150  41.0112349  14.4501498  63.0615368  41.6944174
  13.7914855  71.1666816  43.3430036  13.1386305  71.4142723  42.6882489
  14.1695235  70.3530954  43.0092513  10.7522029  81.2026509  37.4458206
  10.9344424  80.3848165  37.9085959  11.5755015  81.4194201  37.0083096
  11.0864195  80.1294694  34.7073255  11.6151961  79.6187148  34.0943417
  11.3492414  79.8137224  35.5718788   9.8402428  71.9086627  49.8296073
   9.1643065  71.8080756  50.4998448  10.6630062  71.7525840  50.2932070
   1.5881287  78.1458563  42.4508588   2.1734724  77.4002251  42.5836493
   1.3906126  78.4562520  43.3345252   4.4419942  81.1809811  37.4671031
   3.7730318  81.6655938  36.9835071   4.3032812  81.4279031  38.3814409
   8.5825211  83.2153554  44.0653689   9.1343519  83.3785176  44.8302774
   8.9231405  83.8057992  43.3933714   3.5589704  65.5628704  44.6675574
   3.6231031  66.4243535  44.2552972   3.4956825  64.9502706  43.9347932
   3.0341977  67.6351836  48.3148608   3.6614016  67.2528914  48.9286132
   2.1769896  67.4166038  48.6804301  13.4336085  78.0414812  49.9202344
  13.9775989  78.6544770  49.4257298  12.8522930  78.5994390  50.4369357
  11.7193598  81.1635530  41.0517371  11.5944738  80.3625269  40.5428317
  12.3772689  81.6581723  40.5631341   3.3401767  67.5184262  40.2294512
   2.6188352  68.1320230  40.0901985   4.1295022  68.0542027  40.1511157
  13.7828507  78.9644550  42.6796921  12.8358842  78.8449901  42.6075248
  14.1311280  78.0767048  42.7623183   6.1428080  64.8538689  46.5035163
   6.6662482  65.1000985  47.2661473   5.9240413  65.6858723  46.0838301
   1.5395361  67.1242363  34.3706288   1.2108067  66.2439742  34.1881394
   1.8934732  67.0690032  35.2582677  10.7874940  78.7597266  38.8801274
  10.6399902  77.8313973  39.0608844  11.6128434  78.7817357  38.3958349
   4.6537184  67.4115333  34.7381766   4.9933257  67.9401254  34.0160374
   5.1009305  67.7495739  35.5140332  14.3909062  79.5825825  39.9666146
  15.3155609  79.3768686  39.8290597  14.2224365  79.3342226  40.8755488
   7.3480625  65.7952384  44.1884834   7.0077445  64.9960197  44.5905514
   6.6419631  66.0954095  43.6161667   7.9997097  62.8801696  42.6412157
   8.8223166  62.4062174  42.5191047   8.2435160  63.6592180  43.1410843
   6.6405331  65.9089955  32.9375058   7.3613694  66.2871207  32.4338775
   6.0170636  66.6278831  33.0410036  10.7836454  66.6135104  33.8733391
  11.0000069  67.4959741  33.5722219  10.3030521  66.2221317  33.1439033
   5.5235676  69.5720817  40.4504135   5.3780256  69.8861120  41.3428417
   5.0460879  70.1905717  39.8975034   7.3832059  66.5623365  40.4985025
   7.3693627  65.6664458  40.1617323   8.1004487  66.5694028  41.1323311
   9.2358189  66.9960705  42.5438152   8.9775967  67.9177776  42.5422483
   8.7043230  66.5991139  43.2338617  14.1804378  80.1011492  35.3228238
  14.3541256  79.5357915  34.5702090  14.6733269  80.9012387  35.1407728
   6.7868955  65.4437745  35.7672595   6.9084866  64.5154391  35.9663483
   6.4970997  65.4576431  34.8550911   9.6560145  63.1292655  38.9039315
   9.6781842  63.1931989  37.9491295  10.0728204  62.2897164  39.0979821
  20.0343769  72.8647915  36.9418538  20.4774915  72.1155240  36.5437661
  19.1570280  72.8558051  36.5592270  15.1679551  79.4178256  32.4225136
  15.8630455  80.0384949  32.6412451  15.5102701  78.5673608  32.6977514
  17.0670974  76.8677962  33.9512467  17.5922298  77.2065235  33.2261787
  16.9793326  75.9324977  33.7675601   8.7291022  80.7812036  46.0802343
   9.0378149  80.5361182  46.9525043   9.5266504  80.9858674  45.5921214
   8.7511634  82.9349945  38.3107720   8.3116625  82.4426324  39.0040577
   9.5019751  82.3922913  38.0699795   1.2303973  79.1261486  38.3132348
   2.0561993  78.8265258  37.9330992   0.8798025  78.3569109  38.7622137
   6.1985507  78.4787954  40.3830022   5.5765516  77.8158659  40.0832250
   6.8690373  78.5049086  39.7003669   6.2710034  66.9569742  49.9762528
   6.3198190  67.8331865  49.5940297   6.8132548  66.4147135  49.4034171
  16.7564880  77.5010866  49.2563665  15.9660423  77.4835004  48.7168164
  16.5198234  78.0399159  50.0112701  16.8762755  74.3503332  46.5696393
  16.9260760  74.1853339  47.5111916  16.7676678  73.4830591  46.1794274
   5.7599013  77.0291878  33.8588482   5.9087134  77.7127342  33.2055155
   6.5665457  77.0096968  34.3737938  14.1666517  70.3334260  47.8855700
  15.0676380  70.1940725  47.5939698  14.2414492  70.4988715  48.8253877
   8.5009323  67.7101115  46.7308886   7.6312632  68.0034681  46.4591475
   8.7368803  68.2941560  47.4516150  18.3780952  76.7700274  46.8138415
  18.0865760  77.1330254  47.6501876  17.7653083  76.0567282  46.6351747
  19.5776634  74.3353153  39.3340985  20.4123525  74.7742957  39.4978545
  19.7135763  73.8591807  38.5149231  16.6268140  71.8932888  45.2818473
  17.1022261  72.0860534  44.4737324  15.7033705  71.9492074  45.0361857
   3.5151646  73.0557055  34.8649551   3.2697688  72.1519385  35.0629761
   3.6847561  73.0574206  33.9229029  11.2048356  63.9280732  44.2474307
  11.7230300  64.6641759  43.9220795  10.8503489  64.2344725  45.0821066
   2.7847294  68.7885413  32.3635713   2.0916539  68.8629768  31.7075749
   2.5399046  68.0245757  32.8857230  11.4560951  60.3481014  39.7675203
  11.7362704  59.6804203  40.3935630  12.2411557  60.5410110  39.2549867
   9.2594419  79.5240008  31.3300230   8.6868386  80.1430195  30.8770702
   9.8327213  80.0739370  31.8640152  15.3269809  68.7698648  43.5146778
  16.2787232  68.8696746  43.5359003  15.1573259  67.9776917  44.0244863
  13.3484188  65.8554231  43.7006179  12.7534120  66.1359244  43.0052668
  13.0633885  66.3448132  44.4722920  12.4791679  79.8077158  32.4608812
  13.4122352  79.7422720  32.6641687  12.3914892  80.6433425  32.0023345
  15.1079695  79.1243029  29.4212760  15.0293327  78.7902892  30.3148517
  15.9289362  79.6164797  29.4204232  17.8057887  71.9904768  42.6289078
  17.7734207  71.0520769  42.8148762  18.4158510  72.0688805  41.8954903
   9.6441218  70.8600821  28.6716282  10.5900322  70.7307029  28.7404700
   9.2655462  70.1215483  29.1485710  17.9552375  68.7815811  42.6747361
  17.4391424  67.9974268  42.4877290  18.8392324  68.4534528  42.8393881
  15.6163102  62.5256827  38.6343174  15.4187923  62.2171915  39.5186506
  16.2262808  63.2518466  38.7641104  23.6234437  73.0520775  41.7695115
  24.3537825  72.7906063  42.3302818  23.0141382  72.3149497  41.8097183
  21.7049734  71.1928637  42.3669566  20.9782897  71.0584602  41.7586058
  21.2897021  71.5005466  43.1726284   9.5279910  74.9118567  50.1316939
  10.4482920  75.0897166  50.3256986   9.4929493  73.9674612  49.9796638
   7.8284135  68.7850797  28.6071167   6.9215590  68.4883910  28.6833881
   8.1060116  68.4880615  27.7405454   2.5241983  72.8219602  42.7739720
   2.7427992  73.7536710  42.7927754   2.9367756  72.4627576  43.5594524
   9.4446200  63.3287687  34.7615409   8.6346929  62.9834772  35.1370655
  10.1330617  63.0195231  35.3503020  11.3736749  62.4065734  36.3839705
  11.9267787  62.8261187  37.0429728  11.6106835  61.4801482  36.4262661
   7.3969848  68.3952807  52.1642469   7.2966575  69.3447164  52.0954560
   7.1791390  68.0671046  51.2918539   6.5982919  65.6437733  28.7483147
   7.4602083  65.9692631  29.0078964   6.7833263  64.8569228  28.2356212
  14.7515556  64.5166259  35.8918370  14.1714225  65.1751063  35.5096422
  14.4851488  63.6943604  35.4805787  13.2019122  63.9171317  38.0939690
  13.7018901  64.0287851  37.2854009  13.8454730  63.6132370  38.7340498
   7.2601118  71.8249946  50.9807531   6.7768200  72.6250306  51.1871420
   7.3462057  71.8357891  50.0274975   0.5287078  73.6578326  38.9029350
   0.5057766  73.7566013  37.9511233   0.8387714  74.5043477  39.2246516
   3.1874455  75.7154481  43.0175965   4.1417709  75.6838423  42.9505896
   2.9886979  75.2545105  43.8326191   3.7773838  74.2855597  45.5846762
   4.5966727  74.7799676  45.6081600   4.0510645  73.3687565  45.5564330
  13.5340434  66.6766349  34.9474718  12.6466289  66.9616000  34.7294913
  13.9494423  66.5160113  34.1001995  16.8854970  66.7012870  38.6629057
  17.6615360  67.1909323  38.9353674  16.1603104  67.1270925  39.1200927
  19.3227529  67.4140490  39.7202998  19.9172019  67.1736226  39.0096306
  19.3954112  66.6947620  40.3476534   1.5424684  81.2574101  40.0346163
   1.4079152  80.4974501  39.4684161   1.1256747  81.9815000  39.5674951
  12.6783647  76.4411024  29.0422738  13.3819497  76.6461027  29.6580393
  11.9546296  77.0087786  29.3071821  13.5081458  72.1920885  35.1625008
  13.4516659  72.6489437  34.3232640  14.0609800  71.4311570  34.9847851
  17.3186263  67.9810617  35.9875127  17.0623198  67.5807253  36.8183335
  16.6939131  68.6954411  35.8625267  21.6298601  70.7206690  38.4946419
  21.0698159  70.7899880  39.2677981  21.0242105  70.5447675  37.7745915
   4.6993810  82.1543418  40.2464605   4.5826194  83.0988850  40.1443295
   3.8786256  81.8516979  40.6350404  14.5870345  76.8793553  31.0921198
  15.4215949  76.4474752  30.9098673  14.4254688  76.7075567  32.0198092
  14.2416237  73.3825667  32.4577537  14.1865041  73.2169938  31.5165981
  13.6162292  74.0901699  32.6139727  11.5562144  75.6874578  51.7831100
  12.4253304  75.8615231  51.4217735  11.0768896  76.5068995  51.6606829
   7.5512362  62.8833776  32.0362856   7.5391032  63.8275615  32.1931126
   8.4435784  62.7003921  31.7422317   5.7248324  82.8071679  43.4620534
   6.6275571  82.8395290  43.7787029   5.4985694  81.8772130  43.4766869
   7.4801926  81.5602666  40.1230612   6.5297557  81.5604528  40.0094985
   7.7834412  80.8135401  39.6066647  11.3664482  59.4776552  36.2908792
  10.5996878  58.9235039  36.4365475  11.7775187  59.5498421  37.1522944
   3.3706243  65.7661348  50.3813974   4.2337704  65.4098153  50.5917298
   2.7971653  65.4275243  51.0689378  23.2154620  87.3963204  41.1876375
  23.8533030  87.2769952  40.4839715  23.0975463  88.3444048  41.2464327
  20.0244326  87.3490632  41.1237899  19.6862838  87.2331697  40.2358434
  20.8934094  86.9481798  41.1038905  15.8831142  89.2026109  37.1134790
  15.3196007  89.1116046  36.3451078  15.7683537  88.3826013  37.5937283
  20.5064109  88.5025484  47.0824105  20.4952750  88.1078282  46.2104609
  20.6684749  87.7691557  47.6757876  13.4295574  90.6977300  39.9519011
  14.2216866  90.3568125  39.5365310  13.6692224  90.8072276  40.8721164
  21.4630700  92.8697077  32.4249255  20.8118680  93.4551157  32.0383269
  22.2575063  93.4003271  32.4844293  15.3886328  89.9586214  32.8236390
  16.1617204  89.4115201  32.6849265  15.7411726  90.8230463  33.0350851
  17.2271370  91.2862596  46.0303289  16.9361236  92.1908227  45.9149955
  17.8628355  91.3279124  46.7447358  18.1527577  88.6639445  42.6204648
  18.7491149  88.4395467  41.9061611  18.2102549  87.9224190  43.2230096
  17.7252605  86.1178880  30.4554839  17.9778126  85.5960401  29.6938302
  16.7877165  85.9545025  30.5581523  22.7695888  85.1214658  38.2629583
  23.5558977  84.7034081  37.9120000  23.0334593  86.0260750  38.4311231
  22.9405966  90.5587509  32.9618239  22.3051799  90.6322135  33.6739144
  22.6103372  91.1481107  32.2837319  28.1704315  85.0589891  39.1662561
  28.9029487  84.4889108  39.4000391  27.4143671  84.6711492  39.6069067
  17.4448894  88.0206986  32.6579214  17.3285152  87.3451889  33.3260299
  17.5551154  87.5339360  31.8411367  19.7880435  87.4817133  36.3625904
  19.4238642  86.9547754  37.0738825  20.6447551  87.0915602  36.1892389
  25.6929736  78.7711466  43.6257170  25.3613061  79.6406876  43.4018385
  25.0975349  78.4547750  44.3051200  19.4285922  82.5107033  31.3587252
  19.5960324  83.3787269  31.7257723  19.2383091  82.6734314  30.4348541
  22.1861255  90.9724011  43.0253083  21.8861978  91.8749050  42.9168890
  21.8412315  90.7056195  43.8774235  15.6373737  87.4237808  39.0589787
  14.7124233  87.2914022  39.2667479  15.8858150  88.2032028  39.5559729
  25.5858399  83.4906552  40.7050520  24.6775276  83.4221960  40.4109281
  25.5345995  83.9678497  41.5332345  19.4075143  84.9664690  32.3433919
  19.2874768  85.4121741  33.1819399  18.7127731  85.3150008  31.7847457
  12.9982548  87.0671082  39.8933576  13.1274929  87.3205561  40.8072988
  12.3179999  87.6598790  39.5738231  17.1682035  97.7368332  35.9924050
  17.0906065  98.6876157  36.0712531  16.5643679  97.3914204  36.6498977
  19.6599265  84.9096197  48.6485417  18.8832599  85.4690117  48.6388282
  20.2989828  85.3952980  49.1700287  27.4520045  81.6922990  42.4828394
  26.8094426  81.9855523  41.8368188  26.9474974  81.5775910  43.2881590
  25.1060209  85.4386163  33.1714253  26.0178065  85.6713550  32.9961951
  24.5969856  86.0223207  32.6089332  17.9145637  87.7181651  48.2103384
  18.6560322  88.2566695  47.9338208  17.2082623  88.3447939  48.3674936
  23.3900977  89.8610791  46.8075546  23.7984333  89.4193202  46.0630178
  22.6678238  89.2863419  47.0609738  19.7432047  84.7983398  44.1809103
  20.5893242  85.2222811  44.3243752  19.6830684  84.1417022  44.8747666
  23.7129791  90.4211982  40.5627834  23.0838654  90.5857696  39.8603902
  23.3255453  90.8353591  41.3338799  27.5919023  91.3566420  37.9172198
  26.9070061  91.7365321  37.3669232  27.6762873  91.9661746  38.6504146
  22.8931492  82.4587766  45.8390276  22.6492424  83.2129827  45.3024552
  23.1691423  82.8373114  46.6737523  24.8469955  89.0026379  44.5167542
  25.0586850  89.6458138  43.8401923  24.7999703  88.1688695  44.0489472
  22.4496184  81.6144199  41.4204114  21.5880663  81.9125453  41.7120851
  22.4758619  81.8314598  40.4885147  19.2657753  90.1586390  37.8277920
  19.7296099  90.4374093  37.0382542  19.0014551  89.2569834  37.6451010
  16.1581834  89.7057871  40.7657683  16.7283191  90.1345140  40.1275167
  16.7489946  89.4240456  41.4641869  18.2026639  86.2809542  34.6367485
  18.9050683  86.7330586  35.1041411  17.8707268  85.6393361  35.2647378
  16.6507001  84.8721299  49.0118694  16.0205661  85.5537580  49.2454091
  16.5443089  84.7604380  48.0671832  11.9451973  84.5393095  39.9384618
  11.1551027  84.7950623  39.4624729  12.4363221  85.3541433  40.0436659
  25.9615783  91.8798334  42.6889899  26.7833227  91.4778521  42.4072581
  25.9578186  91.7766568  43.6406015  13.8966719  84.9037674  36.8968095
  13.0997882  85.0156368  37.4151591  13.6692311  85.2424326  36.0308986
  19.7272386  91.4282377  44.8450610  19.7916819  91.8902785  45.6808781
  19.0183310  90.7979742  44.9732919  10.2289676  84.7923585  42.3699609
  10.4797715  85.6770595  42.6357185  10.7649225  84.6128187  41.5974701
  34.0521776  88.2237082  39.0374871  33.2985484  87.6544481  38.8818875
  34.1869317  88.1899747  39.9845505  19.4420404  93.0950485  34.7129590
  19.3066079  93.9402021  35.1414438  19.9830216  93.2969762  33.9495524
  15.9287744  79.1742065  51.3743945  15.5354689  78.6208263  52.0491589
  16.7453884  79.4852643  51.7650463  12.8949801  90.6125923  35.2857515
  13.4074322  91.4069173  35.4363080  13.5472514  89.9152213  35.2191116
  14.7044686  93.7291679  37.3680268  14.8811314  94.6509644  37.1801252
  15.5001520  93.4150098  37.7974648  18.8455705  80.5899944  48.9664202
  19.5865418  81.1907097  48.8868664  19.0773627  79.8477582  48.4082244
  13.9897043  85.7756311  47.2442431  13.8750558  84.8741568  47.5449530
  13.1341560  86.0220008  46.8927248  21.0688880  93.7174051  48.8429932
  20.6252735  92.9310430  48.5250837  21.7306094  93.9053202  48.1773823
  15.8276002  95.2469853  43.3690611  16.3783427  95.1186916  42.5967604
  14.9887477  95.5464742  43.0185503  23.1670118  93.9976851  46.8711333
  23.1488594  94.8185732  46.3791602  24.0890038  93.8730926  47.0961474
  19.6243173  91.5120981  47.7134842  20.1571509  90.7509269  47.4834150
  19.0957254  91.2194633  48.4558996  22.7912868  76.6181047  43.2428483
  22.4477137  77.5082688  43.1667594  23.1591830  76.4282704  42.3798068
  10.8598718  88.9414577  36.0617086  11.6973940  89.3511586  35.8450793
  11.0376986  88.0014019  36.0317279  22.7563150  86.6089658  31.7500919
  22.2409774  87.3794262  31.9889306  22.4840459  85.9354794  32.3733980
  20.3410261  81.4539359  36.8086157  19.4851858  81.0646209  36.6291796
  20.7537213  81.5331319  35.9485942  21.8709408  78.9885702  41.2077717
  21.3674204  78.9515837  40.3945522  22.1640015  79.8978445  41.2674373
  18.1152294  79.0724432  40.2143898  18.9805291  78.8767240  39.8549788
  18.1829803  78.8434783  41.1413255  27.7297424  89.3622012  33.6854092
  26.9526867  89.0233172  33.2409254  28.4088905  89.3674636  33.0109057
  22.5449453  84.4816750  33.5760700  22.2399589  84.7962899  34.4270843
  23.4979896  84.5598170  33.6188033  20.9895885  90.6406973  35.2253654
  20.4617247  89.9059733  34.9126891  20.4883388  91.4181650  34.9793622
  25.9688731  88.8355994  40.3420700  25.3112406  89.5255255  40.4300829
  26.7729131  89.2252426  40.6854686  15.7214613  81.3026639  37.5860265
  16.2958365  81.0801821  36.8533458  16.3085595  81.3715334  38.3388866
  24.7794190  87.1900366  38.3924642  25.2926072  87.8230358  38.8946351
  25.4295414  86.5901562  38.0268002  16.0484200  83.3331101  31.6056150
  15.2121512  83.6705787  31.9265425  15.9088970  83.1980080  30.6683287
  18.0237281  78.1767888  36.3135335  17.3701693  77.8616906  35.6891949
  17.9817755  77.5543629  37.0395158  19.1348485  88.4587183  28.2288627
  18.2275547  88.2276437  28.4279776  19.6319517  87.6624803  28.4162608
  22.0416564  97.1684691  31.1485313  21.3678263  97.4716387  31.7570271
  22.4282386  97.9713771  30.7990770  21.2575021  84.6649822  40.6382982
  20.3397582  84.8864769  40.4804670  21.6735165  84.7396132  39.7794690
  22.0410069  86.0641238  35.7685663  22.7881888  86.5762635  35.4592785
  22.3101658  85.7425290  36.6290056  20.3136719  88.5599778  32.7512617
  19.4047938  88.2758811  32.8485087  20.3431803  88.9798857  31.8915924
  25.5455986  92.1706368  36.5203784  25.0918313  91.3297278  36.5768975
  24.9149953  92.8067766  36.8578565  24.4888906  83.0998354  37.7504452
  23.7511663  82.5875740  38.0814694  24.7415679  82.6598735  36.9387729
  23.9888926  94.0082865  37.4553603  24.2811900  94.5687922  36.7365968
  24.4987546  94.3011426  38.2106762  24.5900533  75.8774606  38.3446221
  24.8959410  75.0171969  38.0572136  25.3153138  76.4692226  38.1445215
  10.8824889  86.2805292  36.7327819  10.6849289  85.6874653  36.0078886
  10.3271553  85.9757503  37.4503758  18.8621613  86.1728399  38.8522412
  18.9170223  85.2202235  38.7764889  18.0512815  86.3287838  39.3363711
  20.0112807  90.1008522  30.0900695  19.5732237  89.3844381  29.6306333
  20.7523248  90.3284637  29.5285787  16.8013973  84.7905459  36.6112791
  15.9881838  85.0899629  37.0177983  17.2972967  84.3961147  37.3287273
  18.9522551  94.7863216  38.5447056  18.9098730  95.0124062  37.6155588
  19.8685250  94.5526590  38.6932857  22.3988185  85.2547283  45.4427685
  22.7537572  85.4818756  46.3022151  23.0460316  85.5865660  44.8204940
  28.1285921  88.3765719  36.1477014  27.9903820  88.5667315  35.2198203
  27.7722140  89.1385102  36.6045065  16.2928048  82.3623814  42.2274026
  16.9327427  82.2212573  41.5296989  15.4605578  82.0758328  41.8512628
  28.1555301  90.4442246  41.1588285  28.5891808  90.3517535  42.0071339
  28.8686882  90.4199747  40.5208301  17.0688352  91.6626245  38.3409018
  17.8628950  91.1676565  38.1391593  16.3580044  91.1344108  37.9776724
  21.8883196  94.0444340  42.6921386  21.9420218  94.6135276  43.4599102
  21.0197977  94.2146225  42.3275423  13.3771115  85.8069326  34.4168771
  12.4468703  85.7453782  34.6338733  13.4728587  85.2845279  33.6205412
  13.2956664  82.3324139  37.0047013  13.5563481  83.2469472  36.8956173
  14.1173836  81.8648582  37.1543626  14.7681589  83.7461896  44.1745837
  15.4404643  83.5379258  43.5258486  13.9411376  83.5483982  43.7351070
  29.0170851  90.4865947  43.6921171  29.2106741  91.3911757  43.9380446
  28.9171469  90.0273366  44.5259756  20.6707161  80.3723837  46.1911498
  20.0235076  81.0713787  46.0975975  21.4408177  80.8059981  46.5587746
  24.0785959  90.6372689  49.2662051  23.9271466  90.4083241  48.3492135
  24.0690639  91.5943291  49.2793396  20.8471296  88.2104602  44.2508318
  21.7763356  88.3615762  44.0777285  20.4262326  88.2988623  43.3956964
  19.6459628  92.2355267  42.0206856  19.5070713  91.8674051  42.8932794
  18.8574224  92.7502906  41.8490813  20.2407779  97.3364363  33.3632392
  20.4159535  96.8652406  34.1778015  19.5540568  97.9630129  33.5913653
  21.1964843  91.6136869  39.4095693  20.8614675  91.5737639  40.3053343
  20.6968788  90.9481585  38.9366104  15.1709087  87.0204499  44.9348274
  15.0328885  86.2884738  45.5359814  16.0814010  86.9313399  44.6532462
  24.1324034  88.9592904  29.6832753  23.5153205  88.2339732  29.5865806
  23.6640523  89.7202264  29.3399827  17.7991387  86.7324459  44.4231954
  18.5091006  86.0917651  44.3818573  17.7560695  86.9837354  45.3458135
  25.7878166  93.6691812  47.3438533  25.7290712  92.9851032  46.6769116
  26.1897684  94.4110802  46.8919159  16.5120321  83.7189677  46.2427594
  15.9757678  83.2680415  46.8949190  15.9237030  83.8535585  45.4998058
  14.8068865 100.4853726  40.1372252  15.0465463 101.1172250  40.8151271
  13.9638061 100.1341766  40.4237611  15.9222580  83.1778328  28.8054057
  15.0452047  83.0567129  28.4416304  16.3980333  82.3864406  28.5532946
  25.7895573  91.6331396  45.5752513  24.9022352  91.2957318  45.6978912
  26.3594124  90.9014427  45.8121278   7.4424720  87.9655488  38.8995564
   8.1295760  87.6517218  38.3116580   7.2872849  88.8696852  38.6262816
  12.2459442  82.8545684  43.3280588  12.1617631  82.2471354  42.5930998
  11.4242149  83.3454703  43.3290084  19.3196727  96.2932848  42.5413756
  19.2466898  97.0987820  43.0533061  18.8774120  96.4924814  41.7161778
  19.1086506  95.5304618  36.0516578  18.3254028  96.0726298  36.1454802
  19.8079251  96.0478598  36.4510819  22.4183156  81.3399248  38.6950783
  22.9151856  80.5869210  38.3751853  21.6470138  81.3763564  38.1293992
  30.2712914  87.0439613  40.3369075  30.2602790  87.9264329  39.9663008
  29.4030293  86.6911164  40.1423612  21.7795410  96.1919682  44.6971915
  22.4923382  96.8267147  44.6247816  21.2885439  96.2883548  43.8811917
  23.5012937  90.0970935  36.2689207  22.5669216  90.2172397  36.0993911
  23.6789606  89.1943402  36.0049216  19.0018125  83.4816631  38.4222468
  18.6315913  82.9287671  39.1103373  19.4977218  82.8774764  37.8697468
  26.8885488  85.9388254  36.8039241  27.3545941  86.7716246  36.7299543
  27.3392989  85.4733236  37.5084499  16.8307324  93.9414126  45.5177486
  17.5316783  94.5750609  45.6706880  16.3602439  94.2828857  44.7573125
  24.9561720  92.2832076  33.8025393  25.2321563  92.1688670  34.7119267
  24.0866218  91.8849560  33.7637566  24.8602151  78.3068841  40.8430142
  23.9465231  78.5373068  41.0112349  25.2895253  78.3907285  41.6944174
  24.6308610  86.4958733  43.3430036  23.9780060  86.7434641  42.6882489
  25.0088990  85.6822871  43.0092513  21.5915784  96.5318426  37.4458206
  21.7738178  95.7140082  37.9085959  22.4148770  96.7486119  37.0083096
  21.9257949  95.4586612  34.7073255  22.4545715  94.9479066  34.0943417
  22.1886169  95.1429142  35.5718788  20.6796183  87.2378544  49.8296073
  20.0036820  87.1372674  50.4998448  21.5023817  87.0817758  50.2932070
  12.4275042  93.4750481  42.4508588  13.0128479  92.7294169  42.5836493
  12.2299880  93.7854438  43.3345252  15.2813697  96.5101728  37.4671031
  14.6124072  96.9947856  36.9835071  15.1426567  96.7570949  38.3814409
   7.0192696  86.0456081  41.1713032   7.0576796  85.5119672  41.9650150
   6.5132989  85.5191287  40.5524009  19.4218966  98.5445472  44.0653689
  19.9737274  98.7077093  44.8302774  19.7625159  99.1349910  43.3933714
  14.3983459  80.8920622  44.6675574  14.4624785  81.7535452  44.2552972
  14.3350579  80.2794623  43.9347932  13.8735731  82.9643754  48.3148608
  14.5007770  82.5820831  48.9286132  13.0163650  82.7457956  48.6804301
  24.2729840  93.3706729  49.9202344  24.8169744  93.9836688  49.4257298
  23.6916685  93.9286308  50.4369357  10.6501274  84.7720183  34.2466963
  10.9454715  83.8630862  34.1934017   9.7489310  84.7507923  33.9247965
  22.5587353  96.4927447  41.0517371  22.4338492  95.6917187  40.5428317
  23.2166444  96.9873641  40.5631341  14.1795521  82.8476180  40.2294512
  13.4582107  83.4612147  40.0901985  14.9688777  83.3833945  40.1511157
  24.6222261  94.2936467  42.6796921  23.6752597  94.1741819  42.6075248
  24.9705034  93.4058965  42.7623183  16.9821835  80.1830606  46.5035163
  17.5056236  80.4292903  47.2661473  16.7634168  81.0150641  46.0838301
  12.3789116  82.4534281  34.3706288  12.0501822  81.5731660  34.1881394
  12.7328486  82.3981950  35.2582677  21.6268695  94.0889184  38.8801274
  21.4793657  93.1605891  39.0608844  22.4522188  94.1109274  38.3958349
  15.4930939  82.7407251  34.7381766  15.8327011  83.2693172  34.0160374
  15.9403059  83.0787657  35.5140332  25.2302816  94.9117742  39.9666146
  26.1549364  94.7060604  39.8290597  25.0618120  94.6634143  40.8755488
  18.1874380  81.1244301  44.1884834  17.8471200  80.3252114  44.5905514
  17.4813386  81.4246012  43.6161667  18.8390851  78.2093614  42.6412157
  19.6616921  77.7354092  42.5191047  19.0828915  78.9884098  43.1410843
  17.4799086  81.2381872  32.9375058  18.2007448  81.6163125  32.4338775
  16.8564390  81.9570749  33.0410036  21.6230209  81.9427021  33.8733391
  21.8393823  82.8251659  33.5722219  21.1424276  81.5513235  33.1439033
  16.3629430  84.9012734  40.4504135  16.2174011  85.2153038  41.3428417
  15.8854634  85.5197635  39.8975034  18.2225813  81.8915282  40.4985025
  18.2087382  80.9956376  40.1617323  18.9398241  81.8985946  41.1323311
  20.0751944  82.3252623  42.5438152  19.8169722  83.2469693  42.5422483
  19.5436984  81.9283057  43.2338617  25.0198133  95.4303410  35.3228238
  25.1935010  94.8649832  34.5702090  25.5127024  96.2304305  35.1407728
  10.8375092  87.4418079  43.3891797  10.2928560  88.2177887  43.5212071
  11.7154442  87.7888883  43.2310918  17.6262709  80.7729663  35.7672595
  17.7478620  79.8446309  35.9663483  17.3364751  80.7868349  34.8550911
  20.4953899  78.4584573  38.9039315  20.5175596  78.5223906  37.9491295
  20.9121958  77.6189082  39.0979821  30.8737524  88.1939833  36.9418538
  31.3168670  87.4447158  36.5437661  29.9964034  88.1849969  36.5592270
  26.0073305  94.7470174  32.4225136  26.7024210  95.3676867  32.6412451
  26.3496455  93.8965525  32.6977514  11.6241114  86.5687975  46.2821953
  10.8822850  86.7170610  46.8686584  11.3033859  86.8296241  45.4188703
  27.9064728  92.1969880  33.9512467  28.4316052  92.5357152  33.2261787
  27.8187081  91.2616895  33.7675601  19.5684777  96.1103953  46.0802343
  19.8771903  95.8653100  46.9525043  20.3660259  96.3150592  45.5921214
  19.5905389  98.2641863  38.3107720  19.1510379  97.7718242  39.0040577
  20.3413506  97.7214831  38.0699795  12.0697728  94.4553404  38.3132348
  12.8955748  94.1557176  37.9330992  11.7191780  93.6861026  38.7622137
  17.0379261  93.8079872  40.3830022  16.4159270  93.1450577  40.0832250
  17.7084128  93.8341004  39.7003669  10.2706333  92.3739730  39.2721282
   9.4338241  91.9461905  39.0905283  10.2429978  92.5672174  40.2092073
  17.1103789  82.2861660  49.9762528  17.1591944  83.1623783  49.5940297
  17.6526303  81.7439053  49.4034171  27.5958634  92.8302783  49.2563665
  26.8054178  92.8126922  48.7168164  27.3591989  93.3691077  50.0112701
  27.7156509  89.6795250  46.5696393  27.7654514  89.5145257  47.5111916
  27.6070433  88.8122509  46.1794274  16.5992768  92.3583795  33.8588482
  16.7480888  93.0419260  33.2055155  17.4059211  92.3388885  34.3737938
  25.0060272  85.6626178  47.8855700  25.9070134  85.5232643  47.5939698
  25.0808246  85.8280633  48.8253877  19.3403077  83.0393032  46.7308886
  18.4706386  83.3326599  46.4591475  19.5762557  83.6233477  47.4516150
  29.2174706  92.0992191  46.8138415  28.9259514  92.4622172  47.6501876
  28.6046837  91.3859199  46.6351747  30.4170388  89.6645071  39.3340985
  31.2517280  90.1034875  39.4978545  30.5529517  89.1883724  38.5149231
  27.4661894  87.2224806  45.2818473  27.9416016  87.4152452  44.4737324
  26.5427460  87.2783992  45.0361857  14.3545401  88.3848973  34.8649551
  14.1091443  87.4811303  35.0629761  14.5241316  88.3866123  33.9229029
  22.0442111  79.2572649  44.2474307  22.5624055  79.9933676  43.9220795
  21.6897244  79.5636643  45.0821066  13.6241048  84.1177331  32.3635713
  12.9310293  84.1921686  31.7075749  13.3792800  83.3537674  32.8857230
  22.2954705  75.6772932  39.7675203  22.5756459  75.0096121  40.3935630
  23.0805312  75.8702028  39.2549867  20.0988174  94.8531926  31.3300230
  19.5262141  95.4722113  30.8770702  20.6720967  95.4031288  31.8640152
  26.1663563  84.0990566  43.5146778  27.1180986  84.1988664  43.5359003
  25.9967014  83.3068834  44.0244863  24.1877943  81.1846149  43.7006179
  23.5927875  81.4651162  43.0052668  23.9027640  81.6740050  44.4722920
  23.3185433  95.1369076  32.4608812  24.2516106  95.0714638  32.6641687
  23.2308646  95.9725343  32.0023345  25.9473450  94.4534946  29.4212760
  25.8687081  94.1194810  30.3148517  26.7683117  94.9456714  29.4204232
  28.6451641  87.3196686  42.6289078  28.6127961  86.3812686  42.8148762
  29.2552265  87.3980722  41.8954903  20.4834972  86.1892739  28.6716282
  21.4294077  86.0598947  28.7404700  20.1049217  85.4507400  29.1485710
  28.7946130  84.1107729  42.6747361  28.2785178  83.3266186  42.4877290
  29.6786078  83.7826446  42.8393881  26.4556857  77.8548745  38.6343174
  26.2581678  77.5463833  39.5186506  27.0656562  78.5810384  38.7641104
  34.4628191  88.3812692  41.7695115  35.1931579  88.1197981  42.3302818
  33.8535136  87.6441414  41.8097183  32.5443488  86.5220555  42.3669566
  31.8176652  86.3876520  41.7586058  32.1290775  86.8297384  43.1726284
  20.3673665  90.2410485  50.1316939  21.2876674  90.4189084  50.3256986
  20.3323248  89.2966530  49.9796638  18.6677889  84.1142715  28.6071167
  17.7609345  83.8175828  28.6833881  18.9453870  83.8172533  27.7405454
   9.5855830  85.4349078  39.0570214   9.2658614  84.5814387  38.7644588
   9.0389258  85.6497657  39.8128181  13.3635737  88.1511519  42.7739720
  13.5821747  89.0828627  42.7927754  13.7761511  87.7919494  43.5594524
  20.2839955  78.6579605  34.7615409  19.4740683  78.3126690  35.1370655
  20.9724372  78.3487148  35.3503020  22.2130503  77.7357652  36.3839705
  22.7661542  78.1553105  37.0429728  22.4500590  76.8093400  36.4262661
  18.2363602  83.7244725  52.1642469  18.1360329  84.6739082  52.0954560
  18.0185144  83.3962964  51.2918539  17.4376674  80.9729650  28.7483147
  18.2995838  81.2984549  29.0078964  17.6227018  80.1861146  28.2356212
   9.4544090  89.0551990  41.0263335   8.7607561  88.6405943  40.5133290
  10.2017081  89.0972526  40.4296754  25.5909310  79.8458177  35.8918370
  25.0107979  80.5042981  35.5096422  25.3245243  79.0235521  35.4805787
  24.0412877  79.2463234  38.0939690  24.5412655  79.3579769  37.2854009
  24.6848485  78.9424287  38.7340498  18.0994872  87.1541864  50.9807531
  17.6161954  87.9542224  51.1871420  18.1855812  87.1649809  50.0274975
  11.3680832  88.9870244  38.9029350  11.3451520  89.0857931  37.9511233
  11.6781469  89.8335394  39.2246516  14.0268210  91.0446399  43.0175965
  14.9811463  91.0130341  42.9505896  13.8280734  90.5837022  43.8326191
  14.6167592  89.6147515  45.5846762  15.4360481  90.1091593  45.6081600
  14.8904400  88.6979483  45.5564330  24.3734188  82.0058267  34.9474718
  23.4860043  82.2907918  34.7294913  24.7888177  81.8452030  34.1001995
  27.7248724  82.0304788  38.6629057  28.5009115  82.5201240  38.9353674
  26.9996859  82.4562842  39.1200927  30.1621283  82.7432407  39.7202998
  30.7565774  82.5028143  39.0096306  30.2347867  82.0239538  40.3476534
  12.3818439  96.5866018  40.0346163  12.2472907  95.8266419  39.4684161
  11.9650501  97.3106918  39.5674951  23.5177402  91.7702942  29.0422738
  24.2213252  91.9752944  29.6580393  22.7940051  92.3379704  29.3071821
  24.3475212  87.5212803  35.1625008  24.2910413  87.9781354  34.3232640
  24.9003554  86.7603488  34.9847851  28.1580018  83.3102535  35.9875127
  27.9016952  82.9099171  36.8183335  27.5332886  84.0246329  35.8625267
  32.4692356  86.0498608  38.4946419  31.9091914  86.1191797  39.2677981
  31.8635859  85.8739593  37.7745915  15.5387565  97.4835335  40.2464605
  15.4219949  98.4280768  40.1443295  14.7180011  97.1808897  40.6350404
  25.4264099  92.2085471  31.0921198  26.2609703  91.7766669  30.9098673
  25.2648442  92.0367485  32.0198092  25.0809991  88.7117584  32.4577537
  25.0258795  88.5461856  31.5165981  24.4556047  89.4193617  32.6139727
   9.8702506  83.9485649  46.2838959  10.5161370  83.4384603  46.7726185
   9.6619657  84.6854330  46.8582385  22.3955899  91.0166496  51.7831100
  23.2647058  91.1907148  51.4217735  21.9162650  91.8360913  51.6606829
  18.3906117  78.2125693  32.0362856  18.3784787  79.1567533  32.1931126
  19.2829539  78.0295839  31.7422317  16.5642079  98.1363597  43.4620534
  17.4669325  98.1687207  43.7787029  16.3379449  97.2064048  43.4766869
  18.3195681  96.8894584  40.1230612  17.3691312  96.8896445  40.0094985
  18.6228167  96.1427318  39.6066647  22.2058236  74.8068470  36.2908792
  21.4390632  74.2526957  36.4365475  22.6168941  74.8790339  37.1522944
  14.2099997  81.0953266  50.3813974  15.0731459  80.7390071  50.5917298
  13.6365408  80.7567160  51.0689378  34.0548374 102.7255122  41.1876375
  34.6926784 102.6061869  40.4839715  33.9369217 103.6735966  41.2464327
  30.8638081 102.6782550  41.1237899  30.5256592 102.5623615  40.2358434
  31.7327849 102.2773715  41.1038905  26.7224896 104.5318027  37.1134790
  26.1589761 104.4407963  36.3451078  26.6077291 103.7117931  37.5937283
  31.3457864 103.8317402  47.0824105  31.3346504 103.4370200  46.2104609
  31.5078503 103.0983474  47.6757876  24.2689328 106.0269218  39.9519011
  25.0610620 105.6860043  39.5365310  24.5085978 106.1364193  40.8721164
  32.3024455 108.1988994  32.4249255  31.6512435 108.7843075  32.0383269
  33.0968818 108.7295189  32.4844293  26.2280082 105.2878131  32.8236390
  27.0010958 104.7407118  32.6849265  26.5805481 106.1522381  33.0350851
  28.0665125 106.6154514  46.0303289  27.7754991 107.5200145  45.9149955
  28.7022109 106.6571041  46.7447358  28.9921332 103.9931362  42.6204648
  29.5884904 103.7687385  41.9061611  29.0496303 103.2516108  43.2230096
  28.5646360 101.4470798  30.4554839  28.8171881 100.9252319  29.6938302
  27.6270919 101.2836943  30.5581523  33.6089643 100.4506576  38.2629583
  34.3952732 100.0325999  37.9120000  33.8728347 101.3552668  38.4311231
  33.7799720 105.8879426  32.9618239  33.1445553 105.9614053  33.6739144
  33.4497127 106.4773025  32.2837319  39.0098070 100.3881809  39.1662561
  39.7423242  99.8181026  39.4000391  38.2537426 100.0003410  39.6069067
  28.2842649 103.3498903  32.6579214  28.1678907 102.6743807  33.3260299
  28.3944909 102.8631277  31.8411367  30.6274190 102.8109051  36.3625904
  30.2632397 102.2839672  37.0738825  31.4841305 102.4207520  36.1892389
  36.5323490  94.1003383  43.6257170  36.2006815  94.9698794  43.4018385
  35.9369104  93.7839667  44.3051200  30.2679677  97.8398950  31.3587252
  30.4354079  98.7079187  31.7257723  30.0776846  98.0026232  30.4348541
  33.0255010 106.3015929  43.0253083  32.7255733 107.2040968  42.9168890
  32.6806069 106.0348112  43.8774235  26.4767491 102.7529726  39.0589787
  25.5517988 102.6205940  39.2667479  26.7251904 103.5323945  39.5559729
  36.4252154  98.8198469  40.7050520  35.5169031  98.7513878  40.4109281
  36.3739749  99.2970414  41.5332345  30.2468897 100.2956608  32.3433919
  30.1268523 100.7413659  33.1819399  29.5521486 100.6441925  31.7847457
  23.8376302 102.3963000  39.8933576  23.9668683 102.6497478  40.8072988
  23.1573754 102.9890708  39.5738231  28.0075790 113.0660250  35.9924050
  27.9299819 114.0168075  36.0712531  27.4037433 112.7206122  36.6498977
  30.4993019 100.2388115  48.6485417  29.7226353 100.7982035  48.6388282
  31.1383582 100.7244898  49.1700287  38.2913800  97.0214908  42.4828394
  37.6488180  97.3147441  41.8368188  37.7868728  96.9067828  43.2881590
  35.9453964 100.7678081  33.1714253  36.8571820 101.0005468  32.9961951
  35.4363611 101.3515125  32.6089332  28.7539392 103.0473568  48.2103384
  29.4954076 103.5858612  47.9338208  28.0476377 103.6739857  48.3674936
  34.2294731 105.1902709  46.8075546  34.6378087 104.7485119  46.0630178
  33.5071993 104.6155336  47.0609738  30.5825801 100.1275316  44.1809103
  31.4286997 100.5514729  44.3243752  30.5224439  99.4708940  44.8747666
  34.5523546 105.7503899  40.5627834  33.9232408 105.9149614  39.8603902
  34.1649208 106.1645509  41.3338799  38.4312778 106.6858337  37.9172198
  37.7463816 107.0657239  37.3669232  38.5156627 107.2953664  38.6504146
  33.7325247  97.7879684  45.8390276  33.4886179  98.5421744  45.3024552
  34.0085177  98.1665032  46.6737523  35.6863709 104.3318296  44.5167542
  35.8980605 104.9750056  43.8401923  35.6393458 103.4980613  44.0489472
  33.2889938  96.9436117  41.4204114  32.4274417  97.2417370  41.7120851
  33.3152373  97.1606516  40.4885147  30.1051508 105.4878307  37.8277920
  30.5689853 105.7666010  37.0382542  29.8408306 104.5861752  37.6451010
  26.9975589 105.0349789  40.7657683  27.5676946 105.4637057  40.1275167
  27.5883701 104.7532374  41.4641869  29.0420394 101.6101460  34.6367485
  29.7444437 102.0622504  35.1041411  28.7101022 100.9685279  35.2647378
  27.4900755 100.2013216  49.0118694  26.8599416 100.8829497  49.2454091
  27.3836843 100.0896298  48.0671832  22.7845728  99.8685013  39.9384618
  21.9944782 100.1242541  39.4624729  23.2756975 100.6833350  40.0436659
  36.8009537 107.2090252  42.6889899  37.6226981 106.8070439  42.4072581
  36.7971940 107.1058486  43.6406015  24.7360473 100.2329592  36.8968095
  23.9391636 100.3448286  37.4151591  24.5086065 100.5716244  36.0308986
  30.5666141 106.7574295  44.8450610  30.6310573 107.2194702  45.6808781
  29.8577065 106.1271660  44.9732919  21.0683431 100.1215503  42.3699609
  21.3191469 101.0062513  42.6357185  21.6042979  99.9420104  41.5974701
  44.8915530 103.5529000  39.0374871  44.1379239 102.9836398  38.8818875
  45.0263072 103.5191665  39.9845505  30.2814158 108.4242402  34.7129590
  30.1459833 109.2693938  35.1414438  30.8223971 108.6261680  33.9495524
  26.7681498  94.5033982  51.3743945  26.3748444  93.9500181  52.0491589
  27.5847638  94.8144561  51.7650463  23.7343556 105.9417841  35.2857515
  24.2468076 106.7361091  35.4363080  24.3866269 105.2444131  35.2191116
  25.5438441 109.0583597  37.3680268  25.7205069 109.9801561  37.1801252
  26.3395274 108.7442016  37.7974648  29.6849459  95.9191861  48.9664202
  30.4259172  96.5199015  48.8868664  29.9167382  95.1769499  48.4082244
  24.8290797 101.1048229  47.2442431  24.7144312 100.2033486  47.5449530
  23.9735315 101.3511925  46.8927248  31.9082635 109.0465969  48.8429932
  31.4646489 108.2602348  48.5250837  32.5699848 109.2345119  48.1773823
  26.6669756 110.5761771  43.3690611  27.2177181 110.4478834  42.5967604
  25.8281232 110.8756660  43.0185503  34.0063873 109.3268769  46.8711333
  33.9882348 110.1477650  46.3791602  34.9283793 109.2022844  47.0961474
  30.4636927 106.8412898  47.7134842  30.9965264 106.0801187  47.4834150
  29.9351008 106.5486550  48.4558996  33.6306622  91.9472964  43.2428483
  33.2870891  92.8374606  43.1667594  33.9985585  91.7574622  42.3798068
  21.6992473 104.2706495  36.0617086  22.5367695 104.6803503  35.8450793
  21.8770740 103.3305937  36.0317279  33.5956905 101.9381575  31.7500919
  33.0803528 102.7086180  31.9889306  33.3234213 101.2646712  32.3733980
  31.1804016  96.7831276  36.8086157  30.3245612  96.3938127  36.6291796
  31.5930968  96.8623237  35.9485942  32.7103162  94.3177620  41.2077717
  32.2067958  94.2807755  40.3945522  33.0033769  95.2270362  41.2674373
  28.9546048  94.4016349  40.2143898  29.8199045  94.2059158  39.8549788
  29.0223557  94.1726701  41.1413255  38.5691179 104.6913930  33.6854092
  37.7920622 104.3525090  33.2409254  39.2482660 104.6966553  33.0109057
  33.3843208  99.8108668  33.5760700  33.0793343 100.1254817  34.4270843
  34.3373650  99.8890087  33.6188033  31.8289640 105.9698891  35.2253654
  31.3011001 105.2351650  34.9126891  31.3277142 106.7473567  34.9793622
  36.8082486 104.1647911  40.3420700  36.1506160 104.8547173  40.4300829
  37.6122885 104.5544343  40.6854686  26.5608367  96.6318557  37.5860265
  27.1352119  96.4093739  36.8533458  27.1479350  96.7007252  38.3388866
  35.6187945 102.5192284  38.3924642  36.1319826 103.1522276  38.8946351
  36.2689168 101.9193480  38.0268002  26.8877954  98.6623018  31.6056150
  26.0515267  98.9997705  31.9265425  26.7482724  98.5271998  30.6683287
  28.8631035  93.5059806  36.3135335  28.2095447  93.1908823  35.6891949
  28.8211509  92.8835547  37.0395158  29.9742240 103.7879101  28.2288627
  29.0669302 103.5568355  28.4279776  30.4713272 102.9916720  28.4162608
  32.8810319 112.4976608  31.1485313  32.2072018 112.8008305  31.7570271
  33.2676141 113.3005689  30.7990770  32.0968775  99.9941740  40.6382982
  31.1791337 100.2156687  40.4804670  32.5128919 100.0688050  39.7794690
  32.8803823 101.3933155  35.7685663  33.6275642 101.9054552  35.4592785
  33.1495413 101.0717208  36.6290056  31.1530473 103.8891696  32.7512617
  30.2441693 103.6050729  32.8485087  31.1825557 104.3090775  31.8915924
  36.3849741 107.4998286  36.5203784  35.9312068 106.6589195  36.5768975
  35.7543708 108.1359684  36.8578565  35.3282660  98.4290272  37.7504452
  34.5905417  97.9167658  38.0814694  35.5809434  97.9890653  36.9387729
  34.8282680 109.3374782  37.4553603  35.1205654 109.8979839  36.7365968
  35.3381301 109.6303343  38.2106762  35.4294288  91.2066524  38.3446221
  35.7353164  90.3463887  38.0572136  36.1546892  91.7984144  38.1445215
  21.7218644 101.6097210  36.7327819  21.5243044 101.0166571  36.0078886
  21.1665308 101.3049420  37.4503758  29.7015367 101.5020317  38.8522412
  29.7563977 100.5494153  38.7764889  28.8906569 101.6579756  39.3363711
  30.8506561 105.4300440  30.0900695  30.4125991 104.7136299  29.6306333
  31.5917002 105.6576554  29.5285787  27.6407727 100.1197376  36.6112791
  26.8275593 100.4191547  37.0177983  28.1366722  99.7253065  37.3287273
  29.7916305 110.1155133  38.5447056  29.7492484 110.3415980  37.6155588
  30.7079004 109.8818508  38.6932857  33.2381939 100.5839201  45.4427685
  33.5931327 100.8110674  46.3022151  33.8854070 100.9157578  44.8204940
  38.9679676 103.7057637  36.1477014  38.8297575 103.8959233  35.2198203
  38.6115895 104.4677020  36.6045065  27.1321802  97.6915732  42.2274026
  27.7721181  97.5504491  41.5296989  26.2999333  97.4050245  41.8512628
  38.9949056 105.7734164  41.1588285  39.4285562 105.6809453  42.0071339
  39.7080636 105.7491664  40.5208301  27.9082106 106.9918162  38.3409018
  28.7022705 106.4968482  38.1391593  27.1973798 106.4636025  37.9776724
  32.7276950 109.3736258  42.6921386  32.7813973 109.9427194  43.4599102
  31.8591732 109.5438143  42.3275423  24.2164869 101.1361244  34.4168771
  23.2862458 101.0745700  34.6338733  24.3122341 100.6137197  33.6205412
  24.1350419  97.6616057  37.0047013  24.3957236  98.5761390  36.8956173
  24.9567591  97.1940499  37.1543626  25.6075344  99.0753814  44.1745837
  26.2798397  98.8671176  43.5258486  24.7805130  98.8775900  43.7351070
  39.8564605 105.8157864  43.6921171  40.0500495 106.7203675  43.9380446
  39.7565223 105.3565283  44.5259756  31.5100916  95.7015755  46.1911498
  30.8628831  96.4005705  46.0975975  32.2801931  96.1351899  46.5587746
  34.9179714 105.9664607  49.2662051  34.7665220 105.7375159  48.3492135
  34.9084393 106.9235209  49.2793396  31.6865050 103.5396520  44.2508318
  32.6157110 103.6907679  44.0777285  31.2656080 103.6280541  43.3956964
  30.4853382 107.5647184  42.0206856  30.3464468 107.1965969  42.8932794
  29.6967978 108.0794824  41.8490813  31.0801534 112.6656281  33.3632392
  31.2553290 112.1944324  34.1778015  30.3934322 113.2922047  33.5913653
  32.0358597 106.9428787  39.4095693  31.7008430 106.9029557  40.3053343
  31.5362543 106.2773503  38.9366104  26.0102841 102.3496417  44.9348274
  25.8722639 101.6176656  45.5359814  26.9207765 102.2605317  44.6532462
  34.9717789 104.2884821  29.6832753  34.3546959 103.5631649  29.5865806
  34.5034277 105.0494182  29.3399827  28.6385142 102.0616376  44.4231954
  29.3484760 101.4209569  44.3818573  28.5954450 102.3129271  45.3458135
  36.6271920 108.9983730  47.3438533  36.5684467 108.3142950  46.6769116
  37.0291439 109.7402720  46.8919159  27.3514076  99.0481594  46.2427594
  26.8151433  98.5972333  46.8949190  26.7630784  99.1827503  45.4998058
  25.6462619 115.8145644  40.1372252  25.8859217 116.4464168  40.8151271
  24.8031816 115.4633684  40.4237611  26.7616335  98.5070246  28.8054057
  25.8845801  98.3859046  28.4416304  27.2374088  97.7156324  28.5532946
  36.6289328 106.9623314  45.5752513  35.7416106 106.6249235  45.6978912
  37.1987879 106.2306345  45.8121278  18.2818475 103.2947405  38.8995564
  18.9689515 102.9809135  38.3116580  18.1266604 104.1988770  38.6262816
  23.0853197  98.1837602  43.3280588  23.0011386  97.5763271  42.5930998
  22.2635903  98.6746620  43.3290084  30.1590481 111.6224766  42.5413756
  30.0860653 112.4279737  43.0533061  29.7167874 111.8216732  41.7161778
  29.9480261 110.8596536  36.0516578  29.1647783 111.4018216  36.1454802
  30.6473006 111.3770516  36.4510819  33.2576911  96.6691165  38.6950783
  33.7545610  95.9161128  38.3751853  32.4863892  96.7055482  38.1293992
  41.1106668 102.3731531  40.3369075  41.0996545 103.2556246  39.9663008
  40.2424048 102.0203082  40.1423612  32.6189165 111.5211600  44.6971915
  33.3317137 112.1559065  44.6247816  32.1279193 111.6175466  43.8811917
  34.3406692 105.4262853  36.2689207  33.4062970 105.5464315  36.0993911
  34.5183360 104.5235319  36.0049216  29.8411880  98.8108548  38.4222468
  29.4709667  98.2579589  39.1103373  30.3370972  98.2066682  37.8697468
  37.7279243 101.2680172  36.8039241  38.1939695 102.1008164  36.7299543
  38.1786743 100.8025154  37.5084499  27.6701078 109.2706043  45.5177486
  28.3710538 109.9042526  45.6706880  27.1996193 109.6120775  44.7573125
  35.7955474 107.6123993  33.8025393  36.0715318 107.4980588  34.7119267
  34.9259973 107.2141478  33.7637566  35.6995906  93.6360759  40.8430142
  34.7858985  93.8664986  41.0112349  36.1289007  93.7199203  41.6944174
  35.4702364 101.8250651  43.3430036  34.8173814 102.0726558  42.6882489
  35.8482744 101.0114789  43.0092513  32.4309538 111.8610344  37.4458206
  32.6131933 111.0432000  37.9085959  33.2542524 112.0778036  37.0083096
  32.7651704 110.7878529  34.7073255  33.2939470 110.2770984  34.0943417
  33.0279923 110.4721059  35.5718788  31.5189937 102.5670462  49.8296073
  30.8430574 102.4664591  50.4998448  32.3417571 102.4109676  50.2932070
  23.2668796 108.8042398  42.4508588  23.8522233 108.0586086  42.5836493
  23.0693635 109.1146355  43.3345252  26.1207451 111.8393646  37.4671031
  25.4517827 112.3239774  36.9835071  25.9820321 112.0862866  38.3814409
  17.8586451 101.3747999  41.1713032  17.8970550 100.8411589  41.9650150
  17.3526744 100.8483204  40.5524009  30.2612720 113.8737389  44.0653689
  30.8131028 114.0369011  44.8302774  30.6018914 114.4641827  43.3933714
  25.2377213  96.2212539  44.6675574  25.3018540  97.0827370  44.2552972
  25.1744334  95.6086541  43.9347932  24.7129486  98.2935672  48.3148608
  25.3401525  97.9112749  48.9286132  23.8557405  98.0749874  48.6804301
  35.1123594 108.6998647  49.9202344  35.6563498 109.3128605  49.4257298
  34.5310439 109.2578225  50.4369357  21.4895029 100.1012101  34.2466963
  21.7848470  99.1922779  34.1934017  20.5883064 100.0799840  33.9247965
  33.3981107 111.8219365  41.0517371  33.2732247 111.0209105  40.5428317
  34.0560198 112.3165558  40.5631341  25.0189276  98.1768097  40.2294512
  24.2975861  98.7904065  40.0901985  25.8082531  98.7125862  40.1511157
  35.4616016 109.6228385  42.6796921  34.5146351 109.5033736  42.6075248
  35.8098789 108.7350883  42.7623183  27.8215589  95.5122524  46.5035163
  28.3449991  95.7584820  47.2661473  27.6027922  96.3442559  46.0838301
  23.2182870  97.7826199  34.3706288  22.8895576  96.9023577  34.1881394
  23.5722241  97.7273867  35.2582677  32.4662449 109.4181101  38.8801274
  32.3187411 108.4897809  39.0608844  33.2915943 109.4401192  38.3958349
  26.3324693  98.0699168  34.7381766  26.6720766  98.5985090  34.0160374
  26.7796814  98.4079574  35.5140332  36.0696571 110.2409660  39.9666146
  36.9943118 110.0352521  39.8290597  35.9011874 109.9926061  40.8755488
  29.0268134  96.4536219  44.1884834  28.6864954  95.6544032  44.5905514
  28.3207140  96.7537930  43.6161667  29.6784606  93.5385531  42.6412157
  30.5010675  93.0646010  42.5191047  29.9222669  94.3176015  43.1410843
  28.3192840  96.5673790  32.9375058  29.0401203  96.9455043  32.4338775
  27.6958145  97.2862667  33.0410036  32.4623963  97.2718939  33.8733391
  32.6787578  98.1543577  33.5722219  31.9818030  96.8805152  33.1439033
  27.2023185 100.2304652  40.4504135  27.0567765 100.5444955  41.3428417
  26.7248388 100.8489552  39.8975034  29.0619568  97.2207200  40.4985025
  29.0481136  96.3248293  40.1617323  29.7791996  97.2277864  41.1323311
  30.9145698  97.6544540  42.5438152  30.6563476  98.5761611  42.5422483
  30.3830739  97.2574975  43.2338617  35.8591887 110.7595327  35.3228238
  36.0328765 110.1941750  34.5702090  36.3520778 111.5596222  35.1407728
  21.6768847 102.7709997  43.3891797  21.1322315 103.5469804  43.5212071
  22.5548197 103.1180801  43.2310918  28.4656464  96.1021580  35.7672595
  28.5872375  95.1738227  35.9663483  28.1758506  96.1160266  34.8550911
  31.3347654  93.7876491  38.9039315  31.3569351  93.8515824  37.9491295
  31.7515713  92.9480999  39.0979821  41.7131278 103.5231750  36.9418538
  42.1562424 102.7739076  36.5437661  40.8357789 103.5141887  36.5592270
  36.8467060 110.0762092  32.4225136  37.5417964 110.6968785  32.6412451
  37.1890210 109.2257443  32.6977514  22.4634869 101.8979893  46.2821953
  21.7216605 102.0462528  46.8686584  22.1427613 102.1588158  45.4188703
  38.7458483 107.5261797  33.9512467  39.2709807 107.8649070  33.2261787
  38.6580835 106.5908813  33.7675601  30.4078531 111.4395871  46.0802343
  30.7165658 111.1945018  46.9525043  31.2054013 111.6442509  45.5921214
  30.4299143 113.5933781  38.3107720  29.9904134 113.1010159  39.0040577
  31.1807260 113.0506748  38.0699795  22.9091482 109.7845321  38.3132348
  23.7349502 109.4849093  37.9330992  22.5585534 109.0152944  38.7622137
  27.8773016 109.1371790  40.3830022  27.2553025 108.4742495  40.0832250
  28.5477882 109.1632922  39.7003669  21.1100087 107.7031648  39.2721282
  20.2731996 107.2753822  39.0905283  21.0823733 107.8964091  40.2092073
  27.9497543  97.6153578  49.9762528  27.9985699  98.4915701  49.5940297
  28.4920057  97.0730971  49.4034171  38.4352389 108.1594701  49.2563665
  37.6447932 108.1418840  48.7168164  38.1985743 108.6982995  50.0112701
  38.5550264 105.0087167  46.5696393  38.6048269 104.8437175  47.5111916
  38.4464187 104.1414426  46.1794274  27.4386522 107.6875713  33.8588482
  27.5874643 108.3711177  33.2055155  28.2452966 107.6680803  34.3737938
  35.8454026 100.9918095  47.8855700  36.7463889 100.8524560  47.5939698
  35.9202001 101.1572550  48.8253877  30.1796831  98.3684950  46.7308886
  29.3100141  98.6618516  46.4591475  30.4156312  98.9525395  47.4516150
  40.0568461 107.4284109  46.8138415  39.7653269 107.7914089  47.6501876
  39.4440592 106.7151117  46.6351747  41.2564143 104.9936989  39.3340985
  42.0911034 105.4326793  39.4978545  41.3923272 104.5175642  38.5149231
  38.3055649 102.5516724  45.2818473  38.7809770 102.7444370  44.4737324
  37.3821214 102.6075909  45.0361857  25.1939155 103.7140891  34.8649551
  24.9485197 102.8103221  35.0629761  25.3635070 103.7158041  33.9229029
  32.8835865  94.5864567  44.2474307  33.4017809  95.3225594  43.9220795
  32.5290998  94.8928560  45.0821066  24.4634803  99.4469248  32.3635713
  23.7704048  99.5213603  31.7075749  24.2186555  98.6829592  32.8857230
  33.1348459  91.0064850  39.7675203  33.4150213  90.3388039  40.3935630
  33.9199066  91.1993945  39.2549867  30.9381928 110.1823843  31.3300230
  30.3655895 110.8014031  30.8770702  31.5114722 110.7323205  31.8640152
  37.0057318  99.4282484  43.5146778  37.9574741  99.5280581  43.5359003
  36.8360768  98.6360752  44.0244863  35.0271697  96.5138067  43.7006179
  34.4321629  96.7943080  43.0052668  34.7421394  97.0031968  44.4722920
  34.1579188 110.4660994  32.4608812  35.0909861 110.4006555  32.6641687
  34.0702401 111.3017260  32.0023345  36.7867204 109.7826864  29.4212760
  36.7080836 109.4486728  30.3148517  37.6076871 110.2748632  29.4204232
  39.4845396 102.6488603  42.6289078  39.4521716 101.7104604  42.8148762
  40.0946019 102.7272640  41.8954903  31.3228726 101.5184656  28.6716282
  32.2687831 101.3890864  28.7404700  30.9442971 100.7799318  29.1485710
  39.6339884  99.4399647  42.6747361  39.1178933  98.6558103  42.4877290
  40.5179833  99.1118363  42.8393881  37.2950611  93.1840662  38.6343174
  37.0975432  92.8755750  39.5186506  37.9050317  93.9102301  38.7641104
  45.3021945 103.7104610  41.7695115  46.0325334 103.4489898  42.3302818
  44.6928891 102.9733332  41.8097183  43.3837243 101.8512473  42.3669566
  42.6570406 101.7168438  41.7586058  42.9684529 102.1589301  43.1726284
  31.2067419 105.5702402  50.1316939  32.1270428 105.7481001  50.3256986
  31.1717002 104.6258448  49.9796638  29.5071644  99.4434633  28.6071167
  28.6003099  99.1467745  28.6833881  29.7847625  99.1464451  27.7405454
  20.4249584 100.7640996  39.0570214  20.1052368  99.9106304  38.7644588
  19.8783012 100.9789574  39.8128181  24.2029492 103.4803437  42.7739720
  24.4215501 104.4120545  42.7927754  24.6155265 103.1211411  43.5594524
  31.1233709  93.9871522  34.7615409  30.3134438  93.6418607  35.1370655
  31.8118126  93.6779066  35.3503020  33.0524258  93.0649569  36.3839705
  33.6055296  93.4845023  37.0429728  33.2894344  92.1385317  36.4262661
  29.0757357  99.0536643  52.1642469  28.9754084 100.0031000  52.0954560
  28.8578899  98.7254882  51.2918539  28.2770428  96.3021568  28.7483147
  29.1389592  96.6276466  29.0078964  28.4620772  95.5153064  28.2356212
  20.2937844 104.3843908  41.0263335  19.6001315 103.9697860  40.5133290
  21.0410835 104.4264444  40.4296754  36.4303065  95.1750094  35.8918370
  35.8501734  95.8334898  35.5096422  36.1638997  94.3527439  35.4805787
  34.8806631  94.5755152  38.0939690  35.3806409  94.6871687  37.2854009
  35.5242239  94.2716205  38.7340498  28.9388627 102.4833782  50.9807531
  28.4555709 103.2834142  51.1871420  29.0249566 102.4941727  50.0274975
  22.2074587 104.3162161  38.9029350  22.1845275 104.4149849  37.9511233
  22.5175223 105.1627312  39.2246516  24.8661964 106.3738316  43.0175965
  25.8205218 106.3422259  42.9505896  24.6674488 105.9128940  43.8326191
  25.4561347 104.9439432  45.5846762  26.2754236 105.4383511  45.6081600
  25.7298154 104.0271401  45.5564330  35.2127943  97.3350185  34.9474718
  34.3253798  97.6199835  34.7294913  35.6281932  97.1743948  34.1001995
  38.5642479  97.3596706  38.6629057  39.3402869  97.8493158  38.9353674
  37.8390613  97.7854760  39.1200927  41.0015038  98.0724325  39.7202998
  41.5959528  97.8320061  39.0096306  41.0741621  97.3531455  40.3476534
  23.2212193 111.9157936  40.0346163  23.0866661 111.1558337  39.4684161
  22.8044255 112.6398836  39.5674951  34.3571156 107.0994859  29.0422738
  35.0607006 107.3044862  29.6580393  33.6333805 107.6671621  29.3071821
  35.1868967 102.8504721  35.1625008  35.1304168 103.3073272  34.3232640
  35.7397309 102.0895405  34.9847851  38.9973772  98.6394453  35.9875127
  38.7410707  98.2391088  36.8183335  38.3726640  99.3538246  35.8625267
  43.3086110 101.3790526  38.4946419  42.7485668 101.4483715  39.2677981
  42.7029614 101.2031510  37.7745915  26.3781319 112.8127253  40.2464605
  26.2613703 113.7572685  40.1443295  25.5573765 112.5100814  40.6350404
  36.2657854 107.5377389  31.0921198  37.1003458 107.1058587  30.9098673
  36.1042197 107.3659402  32.0198092  35.9203746 104.0409502  32.4577537
  35.8652550 103.8753773  31.5165981  35.2949801 104.7485535  32.6139727
  20.7096261  99.2777566  46.2838959  21.3555124  98.7676520  46.7726185
  20.5013412 100.0146248  46.8582385  33.2349653 106.3458414  51.7831100
  34.1040813 106.5199066  51.4217735  32.7556404 107.1652831  51.6606829
  29.2299871  93.5417611  32.0362856  29.2178541  94.4859451  32.1931126
  30.1223293  93.3587756  31.7422317  27.4035833 113.4655515  43.4620534
  28.3063080 113.4979125  43.7787029  27.1773203 112.5355966  43.4766869
  29.1589435 112.2186501  40.1230612  28.2085066 112.2188363  40.0094985
  29.4621921 111.4719236  39.6066647  33.0451991  90.1360388  36.2908792
  32.2784387  89.5818874  36.4365475  33.4562696  90.2082256  37.1522944
  25.0493752  96.4245183  50.3813974  25.9125213  96.0681988  50.5917298
  24.4759162  96.0859078  51.0689378  44.8942129 118.0547040  41.1876375
  45.5320539 117.9353787  40.4839715  44.7762972 119.0027884  41.2464327
  41.7031835 118.0074468  41.1237899  41.3650347 117.8915532  40.2358434
  42.5721603 117.6065633  41.1038905  37.5618651 119.8609944  37.1134790
  36.9983516 119.7699881  36.3451078  37.4471046 119.0409849  37.5937283
  42.1851618 119.1609320  47.0824105  42.1740259 118.7662118  46.2104609
  42.3472257 118.4275392  47.6757876  35.1083083 121.3561136  39.9519011
  35.9004375 121.0151960  39.5365310  35.3479733 121.4656111  40.8721164
  43.1418209 123.5280912  32.4249255  42.4906189 124.1134992  32.0383269
  43.9362572 124.0587107  32.4844293  37.0673837 120.6170049  32.8236390
  37.8404713 120.0699036  32.6849265  37.4199235 121.4814298  33.0350851
  38.9058879 121.9446431  46.0303289  38.6148745 122.8492062  45.9149955
  39.5415864 121.9862959  46.7447358  39.8315086 119.3223280  42.6204648
  40.4278658 119.0979302  41.9061611  39.8890058 118.5808025  43.2230096
  39.4040114 116.7762715  30.4554839  39.6565635 116.2544236  29.6938302
  38.4664673 116.6128861  30.5581523  44.4483397 115.7798494  38.2629583
  45.2346486 115.3617917  37.9120000  44.7122102 116.6844586  38.4311231
  44.6193475 121.2171344  32.9618239  43.9839308 121.2905970  33.6739144
  44.2890881 121.8064943  32.2837319  49.8491824 115.7173727  39.1662561
  50.5816996 115.1472944  39.4000391  49.0931180 115.3295327  39.6069067
  39.1236403 118.6790821  32.6579214  39.0072661 118.0035725  33.3260299
  39.2338663 118.1923195  31.8411367  41.4667944 118.1400968  36.3625904
  41.1026151 117.6131589  37.0738825  42.3235060 117.7499437  36.1892389
  47.3717245 109.4295301  43.6257170  47.0400569 110.2990712  43.4018385
  46.7762858 109.1131585  44.3051200  41.1073431 113.1690868  31.3587252
  41.2747833 114.0371104  31.7257723  40.9170600 113.3318150  30.4348541
  43.8648764 121.6307847  43.0253083  43.5649487 122.5332886  42.9168890
  43.5199824 121.3640030  43.8774235  37.3161246 118.0821644  39.0589787
  36.3911742 117.9497858  39.2667479  37.5645659 118.8615863  39.5559729
  47.2645908 114.1490387  40.7050520  46.3562785 114.0805795  40.4109281
  47.2133504 114.6262332  41.5332345  41.0862652 115.6248525  32.3433919
  40.9662277 116.0705576  33.1819399  40.3915240 115.9733843  31.7847457
  34.6770057 117.7254917  39.8933576  34.8062438 117.9789396  40.8072988
  33.9967508 118.3182625  39.5738231  38.8469544 128.3952167  35.9924050
  38.7693574 129.3459992  36.0712531  38.2431188 128.0498040  36.6498977
  41.3386774 115.5680033  48.6485417  40.5620108 116.1273953  48.6388282
  41.9777337 116.0536816  49.1700287  49.1307554 112.3506825  42.4828394
  48.4881935 112.6439359  41.8368188  48.6262483 112.2359746  43.2881590
  46.7847718 116.0969999  33.1714253  47.6965574 116.3297385  32.9961951
  46.2757365 116.6807043  32.6089332  39.5933146 118.3765486  48.2103384
  40.3347830 118.9150530  47.9338208  38.8870132 119.0031775  48.3674936
  45.0688486 120.5194626  46.8075546  45.4771842 120.0777037  46.0630178
  44.3465747 119.9447254  47.0609738  41.4219556 115.4567233  44.1809103
  42.2680751 115.8806647  44.3243752  41.3618193 114.8000858  44.8747666
  45.3917300 121.0795817  40.5627834  44.7626163 121.2441531  39.8603902
  45.0042962 121.4937427  41.3338799  49.2706532 122.0150255  37.9172198
  48.5857570 122.3949156  37.3669232  49.3550382 122.6245582  38.6504146
  44.5719001 113.1171602  45.8390276  44.3279933 113.8713662  45.3024552
  44.8478932 113.4956949  46.6737523  46.5257464 119.6610214  44.5167542
  46.7374359 120.3041974  43.8401923  46.4787212 118.8272531  44.0489472
  44.1283693 112.2728035  41.4204114  43.2668172 112.5709288  41.7120851
  44.1546128 112.4898433  40.4885147  40.9445262 120.8170225  37.8277920
  41.4083608 121.0957928  37.0382542  40.6802060 119.9153670  37.6451010
  37.8369343 120.3641707  40.7657683  38.4070700 120.7928975  40.1275167
  38.4277455 120.0824291  41.4641869  39.8814148 116.9393378  34.6367485
  40.5838192 117.3914421  35.1041411  39.5494777 116.2977196  35.2647378
  38.3294510 115.5305134  49.0118694  37.6993170 116.2121415  49.2454091
  38.2230598 115.4188216  48.0671832  33.6239482 115.1976930  39.9384618
  32.8338536 115.4534459  39.4624729  34.1150730 116.0125268  40.0436659
  47.6403292 122.5382169  42.6889899  48.4620736 122.1362357  42.4072581
  47.6365695 122.4350404  43.6406015  35.5754228 115.5621509  36.8968095
  34.7785391 115.6740204  37.4151591  35.3479820 115.9008162  36.0308986
  41.4059895 122.0866213  44.8450610  41.4704328 122.5486620  45.6808781
  40.6970819 121.4563578  44.9732919  31.9077185 115.4507421  42.3699609
  32.1585224 116.3354431  42.6357185  32.4436734 115.2712022  41.5974701
  55.7309285 118.8820918  39.0374871  54.9772993 118.3128316  38.8818875
  55.8656826 118.8483582  39.9845505  41.1207913 123.7534320  34.7129590
  40.9853588 124.5985856  35.1414438  41.6617725 123.9553598  33.9495524
  37.6075253 109.8325900  51.3743945  37.2142198 109.2792099  52.0491589
  38.4241393 110.1436478  51.7650463  34.5737310 121.2709758  35.2857515
  35.0861831 122.0653008  35.4363080  35.2260023 120.5736049  35.2191116
  36.3832195 124.3875514  37.3680268  36.5598823 125.3093479  37.1801252
  37.1789029 124.0733934  37.7974648  40.5243214 111.2483779  48.9664202
  41.2652927 111.8490932  48.8868664  40.7561136 110.5061417  48.4082244
  35.6684552 116.4340146  47.2442431  35.5538067 115.5325404  47.5449530
  34.8129069 116.6803843  46.8927248  42.7476389 124.3757887  48.8429932
  42.3040244 123.5894265  48.5250837  43.4093603 124.5637037  48.1773823
  37.5063511 125.9053688  43.3690611  38.0570936 125.7770752  42.5967604
  36.6674986 126.2048577  43.0185503  44.8457627 124.6560687  46.8711333
  44.8276103 125.4769568  46.3791602  45.7677547 124.5314762  47.0961474
  41.3030682 122.1704816  47.7134842  41.8359018 121.4093104  47.4834150
  40.7744763 121.8778468  48.4558996  44.4700377 107.2764882  43.2428483
  44.1264646 108.1666524  43.1667594  44.8379339 107.0866540  42.3798068
  32.5386227 119.5998412  36.0617086  33.3761449 120.0095421  35.8450793
  32.7164495 118.6597855  36.0317279  44.4350659 117.2673493  31.7500919
  43.9197283 118.0378098  31.9889306  44.1627968 116.5938629  32.3733980
  42.0197770 112.1123194  36.8086157  41.1639367 111.7230044  36.6291796
  42.4324722 112.1915155  35.9485942  43.5496917 109.6469537  41.2077717
  43.0461712 109.6099672  40.3945522  43.8427524 110.5562280  41.2674373
  39.7939803 109.7308267  40.2143898  40.6592800 109.5351076  39.8549788
  39.8617312 109.5018619  41.1413255  49.4084933 120.0205848  33.6854092
  48.6314376 119.6817007  33.2409254  50.0876414 120.0258471  33.0109057
  44.2236962 115.1400585  33.5760700  43.9187098 115.4546734  34.4270843
  45.1767405 115.2182005  33.6188033  42.6683394 121.2990809  35.2253654
  42.1404756 120.5643568  34.9126891  42.1670897 122.0765485  34.9793622
  47.6476240 119.4939829  40.3420700  46.9899915 120.1839090  40.4300829
  48.4516639 119.8836261  40.6854686  37.4002122 111.9610475  37.5860265
  37.9745874 111.7385656  36.8533458  37.9873104 112.0299169  38.3388866
  46.4581699 117.8484202  38.3924642  46.9713581 118.4814194  38.8946351
  47.1082923 117.2485397  38.0268002  37.7271709 113.9914936  31.6056150
  36.8909021 114.3289622  31.9265425  37.5876479 113.8563916  30.6683287
  39.7024790 108.8351724  36.3135335  39.0489202 108.5200741  35.6891949
  39.6605264 108.2127464  37.0395158  40.8135994 119.1171019  28.2288627
  39.9063056 118.8860272  28.4279776  41.3107026 118.3208638  28.4162608
  43.7204073 127.8268526  31.1485313  43.0465772 128.1300223  31.7570271
  44.1069895 128.6297606  30.7990770  42.9362530 115.3233657  40.6382982
  42.0185091 115.5448604  40.4804670  43.3522674 115.3979968  39.7794690
  43.7197578 116.7225073  35.7685663  44.4669397 117.2346470  35.4592785
  43.9889167 116.4009126  36.6290056  41.9924228 119.2183614  32.7512617
  41.0835447 118.9342646  32.8485087  42.0219312 119.6382692  31.8915924
  47.2243495 122.8290203  36.5203784  46.7705822 121.9881113  36.5768975
  46.5937462 123.4651602  36.8578565  46.1676415 113.7582189  37.7504452
  45.4299172 113.2459575  38.0814694  46.4203188 113.3182571  36.9387729
  45.6676435 124.6666700  37.4553603  45.9599409 125.2271757  36.7365968
  46.1775055 124.9595261  38.2106762  46.2688042 106.5358441  38.3446221
  46.5746919 105.6755805  38.0572136  46.9940647 107.1276061  38.1445215
  32.5612398 116.9389128  36.7327819  32.3636798 116.3458489  36.0078886
  32.0059062 116.6341338  37.4503758  40.5409122 116.8312234  38.8522412
  40.5957732 115.8786071  38.7764889  39.7300324 116.9871673  39.3363711
  41.6900316 120.7592357  30.0900695  41.2519746 120.0428216  29.6306333
  42.4310757 120.9868472  29.5285787  38.4801482 115.4489294  36.6112791
  37.6669347 115.7483465  37.0177983  38.9760476 115.0544983  37.3287273
  40.6310060 125.4447051  38.5447056  40.5886239 125.6707897  37.6155588
  41.5472759 125.2110426  38.6932857  44.0775694 115.9131119  45.4427685
  44.4325081 116.1402592  46.3022151  44.7247825 116.2449495  44.8204940
  49.8073430 119.0349554  36.1477014  49.6691329 119.2251150  35.2198203
  49.4509649 119.7968937  36.6045065  37.9715557 113.0207650  42.2274026
  38.6114936 112.8796409  41.5296989  37.1393087 112.7342163  41.8512628
  49.8342810 121.1026081  41.1588285  50.2679317 121.0101370  42.0071339
  50.5474391 121.0783582  40.5208301  38.7475860 122.3210080  38.3409018
  39.5416459 121.8260400  38.1391593  38.0367553 121.7927943  37.9776724
  43.5670705 124.7028176  42.6921386  43.6207727 125.2719112  43.4599102
  42.6985486 124.8730061  42.3275423  35.0558624 116.4653162  34.4168771
  34.1256212 116.4037617  34.6338733  35.1516096 115.9429114  33.6205412
  34.9744173 112.9907975  37.0047013  35.2350990 113.9053308  36.8956173
  35.7961345 112.5232417  37.1543626  36.4469098 114.4045732  44.1745837
  37.1192152 114.1963094  43.5258486  35.6198885 114.2067818  43.7351070
  50.6958360 121.1449782  43.6921171  50.8894250 122.0495593  43.9380446
  50.5958978 120.6857201  44.5259756  42.3494670 111.0307673  46.1911498
  41.7022585 111.7297622  46.0975975  43.1195686 111.4643817  46.5587746
  45.7573468 121.2956525  49.2662051  45.6058975 121.0667076  48.3492135
  45.7478148 122.2527126  49.2793396  42.5258805 118.8688438  44.2508318
  43.4550865 119.0199597  44.0777285  42.1049835 118.9572458  43.3956964
  41.3247136 122.8939102  42.0206856  41.1858222 122.5257886  42.8932794
  40.5361733 123.4086741  41.8490813  41.9195288 127.9948198  33.3632392
  42.0947044 127.5236242  34.1778015  41.2328076 128.6213965  33.5913653
  42.8752352 122.2720705  39.4095693  42.5402184 122.2321475  40.3053343
  42.3756297 121.6065421  38.9366104  36.8496596 117.6788335  44.9348274
  36.7116394 116.9468574  45.5359814  37.7601519 117.5897235  44.6532462
  45.8111543 119.6176739  29.6832753  45.1940714 118.8923567  29.5865806
  45.3428032 120.3786099  29.3399827  39.4778896 117.3908294  44.4231954
  40.1878515 116.7501486  44.3818573  39.4348204 117.6421189  45.3458135
  47.4665675 124.3275647  47.3438533  47.4078221 123.6434867  46.6769116
  47.8685193 125.0694637  46.8919159  38.1907830 114.3773512  46.2427594
  37.6545187 113.9264250  46.8949190  37.6024539 114.5119421  45.4998058
  36.4856374 131.1437561  40.1372252  36.7252972 131.7756085  40.8151271
  35.6425570 130.7925601  40.4237611  37.6010089 113.8362163  28.8054057
  36.7239556 113.7150964  28.4416304  38.0767842 113.0448242  28.5532946
  47.4683082 122.2915231  45.5752513  46.5809861 121.9541153  45.6978912
  48.0381633 121.5598263  45.8121278  29.1212229 118.6239323  38.8995564
  29.8083269 118.3101053  38.3116580  28.9660358 119.5280688  38.6262816
  33.9246951 113.5129520  43.3280588  33.8405140 112.9055189  42.5930998
  33.1029658 114.0038538  43.3290084  40.9984236 126.9516684  42.5413756
  40.9254407 127.7571655  43.0533061  40.5561629 127.1508649  41.7161778
  40.7874015 126.1888454  36.0516578  40.0041537 126.7310134  36.1454802
  41.4866760 126.7062433  36.4510819  44.0970665 111.9983083  38.6950783
  44.5939365 111.2453045  38.3751853  43.3257647 112.0347400  38.1293992
  51.9500423 117.7023449  40.3369075  51.9390299 118.5848164  39.9663008
  51.0817802 117.3494999  40.1423612  43.4582919 126.8503518  44.6971915
  44.1710891 127.4850982  44.6247816  42.9672948 126.9467384  43.8811917
  45.1800446 120.7554770  36.2689207  44.2456725 120.8756233  36.0993911
  45.3577115 119.8527237  36.0049216  40.6805634 114.1400466  38.4222468
  40.3103422 113.5871506  39.1103373  41.1764727 113.5358600  37.8697468
  48.5672997 116.5972090  36.8039241  49.0333450 117.4300081  36.7299543
  49.0180498 116.1317071  37.5084499  38.5094833 124.5997961  45.5177486
  39.2104292 125.2334444  45.6706880  38.0389948 124.9412693  44.7573125
  46.6349229 122.9415911  33.8025393  46.9109072 122.8272505  34.7119267
  45.7653727 122.5433396  33.7637566  46.5389660 108.9652677  40.8430142
  45.6252740 109.1956903  41.0112349  46.9682762 109.0491121  41.6944174
  46.3096119 117.1542569  43.3430036  45.6567569 117.4018476  42.6882489
  46.6876499 116.3406707  43.0092513  43.2703293 127.1902262  37.4458206
  43.4525687 126.3723918  37.9085959  44.0936279 127.4069954  37.0083096
  43.6045458 126.1170447  34.7073255  44.1333224 125.6062901  34.0943417
  43.8673678 125.8012977  35.5718788  42.3583692 117.8962380  49.8296073
  41.6824329 117.7956509  50.4998448  43.1811326 117.7401593  50.2932070
  34.1062551 124.1334316  42.4508588  34.6915988 123.3878004  42.5836493
  33.9087389 124.4438273  43.3345252  36.9601206 127.1685564  37.4671031
  36.2911581 127.6531691  36.9835071  36.8214076 127.4154784  38.3814409
  28.6980205 116.7039916  41.1713032  28.7364305 116.1703507  41.9650150
  28.1920498 116.1775122  40.5524009  41.1006475 129.2029307  44.0653689
  41.6524783 129.3660929  44.8302774  41.4412668 129.7933745  43.3933714
  36.0770968 111.5504457  44.6675574  36.1412294 112.4119288  44.2552972
  36.0138088 110.9378459  43.9347932  35.5523240 113.6227589  48.3148608
  36.1795279 113.2404667  48.9286132  34.6951159 113.4041791  48.6804301
  45.9517349 124.0290565  49.9202344  46.4957253 124.6420523  49.4257298
  45.3704194 124.5870143  50.4369357  32.3288783 115.4304019  34.2466963
  32.6242224 114.5214697  34.1934017  31.4276819 115.4091758  33.9247965
  44.2374862 127.1511283  41.0517371  44.1126001 126.3501022  40.5428317
  44.8953953 127.6457476  40.5631341  35.8583030 113.5060015  40.2294512
  35.1369616 114.1195983  40.0901985  36.6476286 114.0417780  40.1511157
  46.3009770 124.9520303  42.6796921  45.3540106 124.8325654  42.6075248
  46.6492543 124.0642801  42.7623183  38.6609344 110.8414442  46.5035163
  39.1843745 111.0876738  47.2661473  38.4421677 111.6734476  46.0838301
  34.0576625 113.1118116  34.3706288  33.7289331 112.2315495  34.1881394
  34.4115995 113.0565785  35.2582677  43.3056204 124.7473019  38.8801274
  43.1581166 123.8189726  39.0608844  44.1309697 124.7693110  38.3958349
  37.1718448 113.3991086  34.7381766  37.5114520 113.9277007  34.0160374
  37.6190568 113.7371492  35.5140332  46.9090325 125.5701578  39.9666146
  47.8336873 125.3644439  39.8290597  46.7405629 125.3217979  40.8755488
  39.8661889 111.7828137  44.1884834  39.5258709 110.9835950  44.5905514
  39.1600895 112.0829848  43.6161667  40.5178360 108.8677449  42.6412157
  41.3404430 108.3937927  42.5191047  40.7616424 109.6467933  43.1410843
  39.1586595 111.8965708  32.9375058  39.8794957 112.2746960  32.4338775
  38.5351899 112.6154584  33.0410036  43.3017718 112.6010857  33.8733391
  43.5181332 113.4835494  33.5722219  42.8211785 112.2097070  33.1439033
  38.0416939 115.5596570  40.4504135  37.8961520 115.8736873  41.3428417
  37.5642143 116.1781470  39.8975034  39.9013322 112.5499118  40.4985025
  39.8874891 111.6540211  40.1617323  40.6185750 112.5569782  41.1323311
  41.7539453 112.9836458  42.5438152  41.4957231 113.9053529  42.5422483
  41.2224493 112.5866893  43.2338617  46.6985642 126.0887245  35.3228238
  46.8722519 125.5233668  34.5702090  47.1914533 126.8888140  35.1407728
  32.5162601 118.1001914  43.3891797  31.9716069 118.8761722  43.5212071
  33.3941951 118.4472719  43.2310918  39.3050218 111.4313498  35.7672595
  39.4266129 110.5030144  35.9663483  39.0152260 111.4452184  34.8550911
  42.1741408 109.1168408  38.9039315  42.1963105 109.1807742  37.9491295
  42.5909467 108.2772917  39.0979821  52.5525033 118.8523668  36.9418538
  52.9956179 118.1030993  36.5437661  51.6751543 118.8433804  36.5592270
  47.6860814 125.4054010  32.4225136  48.3811719 126.0260702  32.6412451
  48.0283964 124.5549361  32.6977514  33.3028623 117.2271810  46.2821953
  32.5610359 117.3754446  46.8686584  32.9821367 117.4880076  45.4188703
  49.5852237 122.8553715  33.9512467  50.1103561 123.1940988  33.2261787
  49.4974590 121.9200730  33.7675601  41.2472286 126.7687789  46.0802343
  41.5559412 126.5236935  46.9525043  42.0447768 126.9734427  45.5921214
  41.2692898 128.9225698  38.3107720  40.8297888 128.4302077  39.0040577
  42.0201015 128.3798666  38.0699795  33.7485237 125.1137239  38.3132348
  34.5743257 124.8141011  37.9330992  33.3979289 124.3444862  38.7622137
  38.7166770 124.4663707  40.3830022  38.0946779 123.8034412  40.0832250
  39.3871637 124.4924839  39.7003669  31.9493842 123.0323566  39.2721282
  31.1125750 122.6045740  39.0905283  31.9217487 123.2256009  40.2092073
  38.7891298 112.9445495  49.9762528  38.8379453 113.8207618  49.5940297
  39.3313812 112.4022888  49.4034171  49.2746143 123.4886619  49.2563665
  48.4841687 123.4710758  48.7168164  49.0379498 124.0274912  50.0112701
  49.3944018 120.3379085  46.5696393  49.4442023 120.1729092  47.5111916
  49.2857942 119.4706344  46.1794274  38.2780277 123.0167631  33.8588482
  38.4268397 123.7003095  33.2055155  39.0846720 122.9972721  34.3737938
  46.6847781 116.3210013  47.8855700  47.5857643 116.1816478  47.5939698
  46.7595755 116.4864468  48.8253877  41.0190586 113.6976868  46.7308886
  40.1493895 113.9910434  46.4591475  41.2550066 114.2817313  47.4516150
  50.8962215 122.7576027  46.8138415  50.6047023 123.1206007  47.6501876
  50.2834346 122.0443035  46.6351747  52.0957897 120.3228906  39.3340985
  52.9304789 120.7618710  39.4978545  52.2317026 119.8467560  38.5149231
  49.1449403 117.8808641  45.2818473  49.6203525 118.0736287  44.4737324
  48.2214969 117.9367827  45.0361857  36.0332910 119.0432808  34.8649551
  35.7878952 118.1395138  35.0629761  36.2028824 119.0449959  33.9229029
  43.7229620 109.9156485  44.2474307  44.2411564 110.6517512  43.9220795
  43.3684753 110.2220478  45.0821066  35.3028557 114.7761166  32.3635713
  34.6097802 114.8505521  31.7075749  35.0580309 114.0121510  32.8857230
  43.9742214 106.3356767  39.7675203  44.2543968 105.6679956  40.3935630
  44.7592821 106.5285863  39.2549867  41.7775682 125.5115761  31.3300230
  41.2049650 126.1305948  30.8770702  42.3508476 126.0615123  31.8640152
  47.8451072 114.7574401  43.5146778  48.7968495 114.8572499  43.5359003
  47.6754523 113.9652670  44.0244863  45.8665452 111.8429984  43.7006179
  45.2715384 112.1234997  43.0052668  45.5815149 112.3323885  44.4722920
  44.9972942 125.7952911  32.4608812  45.9303615 125.7298473  32.6641687
  44.9096155 126.6309178  32.0023345  47.6260959 125.1118782  29.4212760
  47.5474590 124.7778645  30.3148517  48.4470626 125.6040550  29.4204232
  50.3239150 117.9780521  42.6289078  50.2915470 117.0396522  42.8148762
  50.9339774 118.0564558  41.8954903  42.1622481 116.8476574  28.6716282
  43.1081586 116.7182782  28.7404700  41.7836726 116.1091236  29.1485710
  50.4733639 114.7691564  42.6747361  49.9572687 113.9850021  42.4877290
  51.3573587 114.4410281  42.8393881  48.1344366 108.5132580  38.6343174
  47.9369187 108.2047668  39.5186506  48.7444071 109.2394219  38.7641104
  56.1415700 119.0396528  41.7695115  56.8719088 118.7781816  42.3302818
  55.5322645 118.3025250  41.8097183  54.2230997 117.1804390  42.3669566
  53.4964161 117.0460355  41.7586058  53.8078284 117.4881219  43.1726284
  42.0461174 120.8994320  50.1316939  42.9664183 121.0772919  50.3256986
  42.0110757 119.9550365  49.9796638  40.3465398 114.7726550  28.6071167
  39.4396854 114.4759663  28.6833881  40.6241379 114.4756368  27.7405454
  31.2643339 116.0932914  39.0570214  30.9446123 115.2398222  38.7644588
  30.7176767 116.3081492  39.8128181  35.0423246 118.8095355  42.7739720
  35.2609256 119.7412463  42.7927754  35.4549020 118.4503329  43.5594524
  41.9627464 109.3163440  34.7615409  41.1528192 108.9710525  35.1370655
  42.6511881 109.0070984  35.3503020  43.8918012 108.3941487  36.3839705
  44.4449051 108.8136940  37.0429728  44.1288099 107.4677235  36.4262661
  39.9151111 114.3828560  52.1642469  39.8147838 115.3322917  52.0954560
  39.6972653 114.0546799  51.2918539  39.1164183 111.6313486  28.7483147
  39.9783347 111.9568384  29.0078964  39.3014527 110.8444981  28.2356212
  31.1331599 119.7135825  41.0263335  30.4395070 119.2989778  40.5133290
  31.8804590 119.7556362  40.4296754  47.2696819 110.5042012  35.8918370
  46.6895488 111.1626816  35.5096422  47.0032752 109.6819357  35.4805787
  45.7200386 109.9047070  38.0939690  46.2200164 110.0163604  37.2854009
  46.3635994 109.6008123  38.7340498  39.7782381 117.8125699  50.9807531
  39.2949463 118.6126059  51.1871420  39.8643320 117.8233644  50.0274975
  33.0468341 119.6454079  38.9029350  33.0239029 119.7441766  37.9511233
  33.3568978 120.4919230  39.2246516  35.7055719 121.7030234  43.0175965
  36.6598972 121.6714176  42.9505896  35.5068243 121.2420858  43.8326191
  36.2955101 120.2731350  45.5846762  37.1147990 120.7675429  45.6081600
  36.5691909 119.3563318  45.5564330  46.0521697 112.6642102  34.9474718
  45.1647552 112.9491753  34.7294913  46.4675686 112.5035866  34.1001995
  49.4036233 112.6888623  38.6629057  50.1796624 113.1785076  38.9353674
  48.6784368 113.1146678  39.1200927  51.8408792 113.4016243  39.7202998
  52.4353283 113.1611979  39.0096306  51.9135376 112.6823373  40.3476534
  34.0605948 127.2449854  40.0346163  33.9260416 126.4850254  39.4684161
  33.6438010 127.9690753  39.5674951  45.1964911 122.4286777  29.0422738
  45.9000761 122.6336780  29.6580393  44.4727559 122.9963539  29.3071821
  46.0262721 118.1796638  35.1625008  45.9697922 118.6365190  34.3232640
  46.5791063 117.4187323  34.9847851  49.8367527 113.9686370  35.9875127
  49.5804461 113.5683006  36.8183335  49.2120395 114.6830164  35.8625267
  54.1479865 116.7082443  38.4946419  53.5879423 116.7775633  39.2677981
  53.5423368 116.5323428  37.7745915  37.2175074 128.1419171  40.2464605
  37.1007458 129.0864603  40.1443295  36.3967520 127.8392732  40.6350404
  47.1051608 122.8669306  31.0921198  47.9397212 122.4350505  30.9098673
  46.9435951 122.6951320  32.0198092  46.7597500 119.3701420  32.4577537
  46.7046304 119.2045691  31.5165981  46.1343556 120.0777452  32.6139727
  31.5490015 114.6069484  46.2838959  32.1948879 114.0968438  46.7726185
  31.3407166 115.3438166  46.8582385  44.0743407 121.6750331  51.7831100
  44.9434567 121.8490984  51.4217735  43.5950159 122.4944748  51.6606829
  40.0693626 108.8709529  32.0362856  40.0572296 109.8151368  32.1931126
  40.9617048 108.6879674  31.7422317  38.2429588 128.7947432  43.4620534
  39.1456834 128.8271043  43.7787029  38.0166958 127.8647883  43.4766869
  39.9983190 127.5478419  40.1230612  39.0478821 127.5480281  40.0094985
  40.3015676 126.8011154  39.6066647  43.8845745 105.4652305  36.2908792
  43.1178141 104.9110792  36.4365475  44.2956450 105.5374174  37.1522944
  35.8887506 111.7537101  50.3813974  36.7518968 111.3973906  50.5917298
  35.3152917 111.4150996  51.0689378  55.7335883 133.3838957  41.1876375
  56.3714293 133.2645705  40.4839715  55.6156726 134.3319801  41.2464327
  52.5425590 133.3366385  41.1237899  52.2044101 133.2207450  40.2358434
  53.4115358 132.9357551  41.1038905  48.4012405 135.1901862  37.1134790
  47.8377270 135.0991799  36.3451078  48.2864800 134.3701766  37.5937283
  53.0245373 134.4901237  47.0824105  53.0134013 134.0954035  46.2104609
  53.1866012 133.7567310  47.6757876  45.9476837 136.6853053  39.9519011
  46.7398129 136.3443878  39.5365310  46.1873487 136.7948029  40.8721164
  53.9811964 138.8572830  32.4249255  53.3299944 139.4426910  32.0383269
  54.7756327 139.3879025  32.4844293  47.9067591 135.9461967  32.8236390
  48.6798467 135.3990954  32.6849265  48.2592990 136.8106216  33.0350851
  49.7452634 137.2738349  46.0303289  49.4542500 138.1783980  45.9149955
  50.3809618 137.3154877  46.7447358  50.6708840 134.6515198  42.6204648
  51.2672413 134.4271220  41.9061611  50.7283812 133.9099943  43.2230096
  50.2433869 132.1054633  30.4554839  50.4959390 131.5836154  29.6938302
  49.3058428 131.9420778  30.5581523  55.2877152 131.1090411  38.2629583
  56.0740241 130.6909834  37.9120000  55.5515856 132.0136503  38.4311231
  55.4587229 136.5463262  32.9618239  54.8233062 136.6197888  33.6739144
  55.1284635 137.1356860  32.2837319  60.6885579 131.0465644  39.1662561
  61.4210751 130.4764861  39.4000391  59.9324935 130.6587245  39.6069067
  49.9630158 134.0082739  32.6579214  49.8466416 133.3327642  33.3260299
  50.0732418 133.5215113  31.8411367  52.3061699 133.4692886  36.3625904
  51.9419906 132.9423507  37.0738825  53.1628814 133.0791355  36.1892389
  58.2110999 124.7587219  43.6257170  57.8794324 125.6282629  43.4018385
  57.6156613 124.4423503  44.3051200  51.9467186 128.4982786  31.3587252
  52.1141588 129.3663022  31.7257723  51.7564355 128.6610067  30.4348541
  54.7042519 136.9599765  43.0253083  54.4043242 137.8624803  42.9168890
  54.3593578 136.6931948  43.8774235  48.1555000 133.4113561  39.0589787
  47.2305497 133.2789775  39.2667479  48.4039413 134.1907781  39.5559729
  58.1039663 129.4782305  40.7050520  57.1956540 129.4097713  40.4109281
  58.0527258 129.9554250  41.5332345  51.9256406 130.9540443  32.3433919
  51.8056032 131.3997494  33.1819399  51.2308995 131.3025761  31.7847457
  45.5163811 133.0546835  39.8933576  45.6456192 133.3081314  40.8072988
  44.8361263 133.6474543  39.5738231  49.6863299 143.7244085  35.9924050
  49.6087328 144.6751910  36.0712531  49.0824942 143.3789957  36.6498977
  52.1780528 130.8971950  48.6485417  51.4013862 131.4565870  48.6388282
  52.8171091 131.3828733  49.1700287  59.9701309 127.6798743  42.4828394
  59.3275689 127.9731276  41.8368188  59.4656237 127.5651663  43.2881590
  57.6241473 131.4261916  33.1714253  58.5359329 131.6589303  32.9961951
  57.1151120 132.0098961  32.6089332  50.4326901 133.7057404  48.2103384
  51.1741585 134.2442448  47.9338208  49.7263886 134.3323692  48.3674936
  55.9082240 135.8486544  46.8075546  56.3165596 135.4068955  46.0630178
  55.1859502 135.2739172  47.0609738  52.2613310 130.7859151  44.1809103
  53.1074505 131.2098564  44.3243752  52.2011948 130.1292775  44.8747666
  56.2311055 136.4087735  40.5627834  55.6019917 136.5733449  39.8603902
  55.8436717 136.8229344  41.3338799  60.1100287 137.3442173  37.9172198
  59.4251325 137.7241074  37.3669232  60.1944136 137.9537499  38.6504146
  55.4112756 128.4463519  45.8390276  55.1673687 129.2005580  45.3024552
  55.6872686 128.8248867  46.6737523  57.3651218 134.9902132  44.5167542
  57.5768114 135.6333892  43.8401923  57.3180967 134.1564448  44.0489472
  54.9677447 127.6019952  41.4204114  54.1061926 127.9001206  41.7120851
  54.9939882 127.8190351  40.4885147  51.7839017 136.1462143  37.8277920
  52.2477362 136.4249846  37.0382542  51.5195815 135.2445587  37.6451010
  48.6763098 135.6933624  40.7657683  49.2464455 136.1220893  40.1275167
  49.2671210 135.4116209  41.4641869  50.7207903 132.2685295  34.6367485
  51.4231946 132.7206339  35.1041411  50.3888531 131.6269114  35.2647378
  49.1688264 130.8597052  49.0118694  48.5386925 131.5413333  49.2454091
  49.0624352 130.7480133  48.0671832  44.4633237 130.5268848  39.9384618
  43.6732291 130.7826376  39.4624729  44.9544484 131.3417186  40.0436659
  58.4797046 137.8674087  42.6889899  59.3014490 137.4654274  42.4072581
  58.4759449 137.7642321  43.6406015  46.4147982 130.8913427  36.8968095
  45.6179145 131.0032121  37.4151591  46.1873574 131.2300079  36.0308986
  52.2453650 137.4158130  44.8450610  52.3098082 137.8778538  45.6808781
  51.5364574 136.7855495  44.9732919  42.7470940 130.7799338  42.3699609
  42.9978978 131.6646348  42.6357185  43.2830488 130.6003940  41.5974701
  66.5703039 134.2112836  39.0374871  65.8166748 133.6420234  38.8818875
  66.7050581 134.1775500  39.9845505  51.9601667 139.0826238  34.7129590
  51.8247342 139.9277774  35.1414438  52.5011480 139.2845515  33.9495524
  48.4469007 125.1617818  51.3743945  48.0535953 124.6084016  52.0491589
  49.2635147 125.4728396  51.7650463  45.4131065 136.6001676  35.2857515
  45.9255585 137.3944926  35.4363080  46.0653778 135.9027966  35.2191116
  47.2225950 139.7167432  37.3680268  47.3992578 140.6385397  37.1801252
  48.0182783 139.4025851  37.7974648  51.3636968 126.5775697  48.9664202
  52.1046681 127.1782850  48.8868664  51.5954891 125.8353335  48.4082244
  46.5078306 131.7632064  47.2442431  46.3931821 130.8617321  47.5449530
  45.6522824 132.0095761  46.8927248  53.5870144 139.7049804  48.8429932
  53.1433998 138.9186183  48.5250837  54.2487357 139.8928955  48.1773823
  48.3457265 141.2345606  43.3690611  48.8964690 141.1062669  42.5967604
  47.5068741 141.5340495  43.0185503  55.6851382 139.9852604  46.8711333
  55.6669857 140.8061485  46.3791602  56.6071302 139.8606679  47.0961474
  52.1424436 137.4996734  47.7134842  52.6752773 136.7385022  47.4834150
  51.6138517 137.2070386  48.4558996  55.3094131 122.6056800  43.2428483
  54.9658400 123.4958441  43.1667594  55.6773094 122.4158457  42.3798068
  43.3779982 134.9290330  36.0617086  44.2155204 135.3387339  35.8450793
  43.5558249 133.9889772  36.0317279  55.2744414 132.5965411  31.7500919
  54.7591037 133.3670015  31.9889306  55.0021722 131.9230547  32.3733980
  52.8591525 127.4415112  36.8086157  52.0033121 127.0521962  36.6291796
  53.2718477 127.5207072  35.9485942  54.3890671 124.9761455  41.2077717
  53.8855467 124.9391590  40.3945522  54.6821278 125.8854198  41.2674373
  50.6333557 125.0600185  40.2143898  51.4986554 124.8642993  39.8549788
  50.7011066 124.8310536  41.1413255  60.2478688 135.3497765  33.6854092
  59.4708131 135.0108925  33.2409254  60.9270169 135.3550389  33.0109057
  55.0630717 130.4692503  33.5760700  54.7580852 130.7838652  34.4270843
  56.0161159 130.5473923  33.6188033  53.5077149 136.6282726  35.2253654
  52.9798510 135.8935486  34.9126891  53.0064651 137.4057403  34.9793622
  58.4869995 134.8231747  40.3420700  57.8293669 135.5131008  40.4300829
  59.2910394 135.2128179  40.6854686  48.2395876 127.2902393  37.5860265
  48.8139628 127.0677574  36.8533458  48.8266859 127.3591087  38.3388866
  57.2975454 133.1776119  38.3924642  57.8107335 133.8106111  38.8946351
  57.9476677 132.5777315  38.0268002  48.5665463 129.3206854  31.6056150
  47.7302776 129.6581540  31.9265425  48.4270233 129.1855833  30.6683287
  50.5418544 124.1643641  36.3135335  49.8882956 123.8492659  35.6891949
  50.4999018 123.5419382  37.0395158  51.6529749 134.4462936  28.2288627
  50.7456811 134.2152190  28.4279776  52.1500781 133.6500556  28.4162608
  54.5597828 143.1560444  31.1485313  53.8859527 143.4592140  31.7570271
  54.9463650 143.9589524  30.7990770  53.7756284 130.6525575  40.6382982
  52.8578846 130.8740522  40.4804670  54.1916428 130.7271885  39.7794690
  54.5591332 132.0516991  35.7685663  55.3063151 132.5638388  35.4592785
  54.8282922 131.7301043  36.6290056  52.8317982 134.5475531  32.7512617
  51.9229202 134.2634564  32.8485087  52.8613066 134.9674610  31.8915924
  58.0637250 138.1582121  36.5203784  57.6099577 137.3173031  36.5768975
  57.4331216 138.7943519  36.8578565  57.0070169 129.0874107  37.7504452
  56.2692926 128.5751493  38.0814694  57.2596943 128.6474488  36.9387729
  56.5070189 139.9958618  37.4553603  56.7993163 140.5563675  36.7365968
  57.0168810 140.2887179  38.2106762  57.1081797 121.8650359  38.3446221
  57.4140673 121.0047722  38.0572136  57.8334401 122.4567979  38.1445215
  43.4006153 132.2681045  36.7327819  43.2030553 131.6750406  36.0078886
  42.8452817 131.9633256  37.4503758  51.3802876 132.1604152  38.8522412
  51.4351486 131.2077988  38.7764889  50.5694078 132.3163591  39.3363711
  52.5294070 136.0884275  30.0900695  52.0913500 135.3720134  29.6306333
  53.2704511 136.3160390  29.5285787  49.3195236 130.7781212  36.6112791
  48.5063102 131.0775382  37.0177983  49.8154231 130.3836900  37.3287273
  51.4703814 140.7738969  38.5447056  51.4279993 140.9999815  37.6155588
  52.3866513 140.5402343  38.6932857  54.9169448 131.2423036  45.4427685
  55.2718836 131.4694509  46.3022151  55.5641579 131.5741413  44.8204940
  60.6467185 134.3641472  36.1477014  60.5085084 134.5543068  35.2198203
  60.2903404 135.1260855  36.6045065  48.8109311 128.3499567  42.2274026
  49.4508690 128.2088326  41.5296989  47.9786842 128.0634081  41.8512628
  60.6736565 136.4317999  41.1588285  61.1073071 136.3393288  42.0071339
  61.3868145 136.4075500  40.5208301  49.5869615 137.6501998  38.3409018
  50.3810213 137.1552318  38.1391593  48.8761307 137.1219861  37.9776724
  54.4064459 140.0320093  42.6921386  54.4601482 140.6011029  43.4599102
  53.5379241 140.2021978  42.3275423  45.8952378 131.7945079  34.4168771
  44.9649967 131.7329535  34.6338733  45.9909850 131.2721032  33.6205412
  45.8137928 128.3199892  37.0047013  46.0744745 129.2345225  36.8956173
  46.6355100 127.8524335  37.1543626  47.2862853 129.7337649  44.1745837
  47.9585906 129.5255012  43.5258486  46.4592639 129.5359735  43.7351070
  61.5352114 136.4741700  43.6921171  61.7288004 137.3787510  43.9380446
  61.4352732 136.0149119  44.5259756  53.1888425 126.3599590  46.1911498
  52.5416340 127.0589540  46.0975975  53.9589440 126.7935734  46.5587746
  56.5967223 136.6248442  49.2662051  56.4452729 136.3958994  48.3492135
  56.5871902 137.5819044  49.2793396  53.3652559 134.1980355  44.2508318
  54.2944619 134.3491515  44.0777285  52.9443589 134.2864376  43.3956964
  52.1640891 138.2231020  42.0206856  52.0251977 137.8549804  42.8932794
  51.3755487 138.7378659  41.8490813  52.7589043 143.3240116  33.3632392
  52.9340799 142.8528159  34.1778015  52.0721831 143.9505882  33.5913653
  53.7146106 137.6012622  39.4095693  53.3795939 137.5613392  40.3053343
  53.2150052 136.9357338  38.9366104  47.6890350 133.0080252  44.9348274
  47.5510148 132.2760491  45.5359814  48.5995274 132.9189152  44.6532462
  56.6505298 134.9468657  29.6832753  56.0334468 134.2215485  29.5865806
  56.1821786 135.7078017  29.3399827  50.3172651 132.7200212  44.4231954
  51.0272269 132.0793404  44.3818573  50.2741959 132.9713107  45.3458135
  58.3059429 139.6567565  47.3438533  58.2471976 138.9726785  46.6769116
  58.7078948 140.3986555  46.8919159  49.0301585 129.7065430  46.2427594
  48.4938942 129.2556168  46.8949190  48.4418293 129.8411338  45.4998058
  47.3250128 146.4729479  40.1372252  47.5646726 147.1048003  40.8151271
  46.4819325 146.1217519  40.4237611  48.4403844 129.1654081  28.8054057
  47.5633310 129.0442882  28.4416304  48.9161597 128.3740159  28.5532946
  58.3076837 137.6207149  45.5752513  57.4203615 137.2833071  45.6978912
  58.8775388 136.8890180  45.8121278  39.9605984 133.9531241  38.8995564
  40.6477024 133.6392971  38.3116580  39.8054113 134.8572605  38.6262816
  44.7640706 128.8421437  43.3280588  44.6798895 128.2347107  42.5930998
  43.9423412 129.3330456  43.3290084  51.8377990 142.2808601  42.5413756
  51.7648162 143.0863573  43.0533061  51.3955383 142.4800567  41.7161778
  51.6267770 141.5180371  36.0516578  50.8435292 142.0602052  36.1454802
  52.3260515 142.0354351  36.4510819  54.9364420 127.3275001  38.6950783
  55.4333119 126.5744963  38.3751853  54.1651401 127.3639317  38.1293992
  62.7894177 133.0315366  40.3369075  62.7784053 133.9140082  39.9663008
  61.9211557 132.6786917  40.1423612  54.2976674 142.1795435  44.6971915
  55.0104646 142.8142900  44.6247816  53.8066702 142.2759301  43.8811917
  56.0194201 136.0846688  36.2689207  55.0850479 136.2048150  36.0993911
  56.1970869 135.1819155  36.0049216  51.5199389 129.4692384  38.4222468
  51.1497176 128.9163424  39.1103373  52.0158481 128.8650517  37.8697468
  59.4066752 131.9264007  36.8039241  59.8727204 132.7591999  36.7299543
  59.8574252 131.4608989  37.5084499  49.3488587 139.9289879  45.5177486
  50.0498047 140.5626362  45.6706880  48.8783702 140.2704610  44.7573125
  57.4742983 138.2707829  33.8025393  57.7502827 138.1564423  34.7119267
  56.6047482 137.8725313  33.7637566  57.3783415 124.2944594  40.8430142
  56.4646494 124.5248821  41.0112349  57.8076516 124.3783038  41.6944174
  57.1489873 132.4834486  43.3430036  56.4961323 132.7310394  42.6882489
  57.5270253 131.6698624  43.0092513  54.1097047 142.5194179  37.4458206
  54.2919442 141.7015835  37.9085959  54.9330033 142.7361872  37.0083096
  54.4439213 141.4462365  34.7073255  54.9726979 140.9354819  34.0943417
  54.7067432 141.1304895  35.5718788  53.1977446 133.2254297  49.8296073
  52.5218083 133.1248427  50.4998448  54.0205080 133.0693511  50.2932070
  44.9456305 139.4626234  42.4508588  45.5309742 138.7169922  42.5836493
  44.7481144 139.7730191  43.3345252  47.7994960 142.4977481  37.4671031
  47.1305336 142.9823609  36.9835071  47.6607830 142.7446702  38.3814409
  39.5373960 132.0331834  41.1713032  39.5758059 131.4995425  41.9650150
  39.0314253 131.5067040  40.5524009  51.9400229 144.5321225  44.0653689
  52.4918537 144.6952846  44.8302774  52.2806422 145.1225663  43.3933714
  46.9164722 126.8796375  44.6675574  46.9806049 127.7411205  44.2552972
  46.8531842 126.2670376  43.9347932  46.3916995 128.9519507  48.3148608
  47.0189034 128.5696584  48.9286132  45.5344914 128.7333709  48.6804301
  56.7911103 139.3582482  49.9202344  57.3351007 139.9712441  49.4257298
  56.2097948 139.9162061  50.4369357  43.1682538 130.7595936  34.2466963
  43.4635979 129.8506615  34.1934017  42.2670573 130.7383676  33.9247965
  55.0768616 142.4803200  41.0517371  54.9519756 141.6792940  40.5428317
  55.7347707 142.9749394  40.5631341  46.6976785 128.8351933  40.2294512
  45.9763370 129.4487901  40.0901985  47.4870040 129.3709698  40.1511157
  57.1403525 140.2812220  42.6796921  56.1933860 140.1617572  42.6075248
  57.4886298 139.3934718  42.7623183  49.5003098 126.1706359  46.5035163
  50.0237500 126.4168656  47.2661473  49.2815431 127.0026394  46.0838301
  44.8970379 128.4410034  34.3706288  44.5683085 127.5607413  34.1881394
  45.2509750 128.3857703  35.2582677  54.1449958 140.0764937  38.8801274
  53.9974920 139.1481644  39.0608844  54.9703451 140.0985027  38.3958349
  48.0112202 128.7283004  34.7381766  48.3508275 129.2568925  34.0160374
  48.4584323 129.0663410  35.5140332  57.7484080 140.8993495  39.9666146
  58.6730627 140.6936357  39.8290597  57.5799383 140.6509896  40.8755488
  50.7055643 127.1120054  44.1884834  50.3652463 126.3127867  44.5905514
  49.9994649 127.4121765  43.6161667  51.3572115 124.1969367  42.6412157
  52.1798184 123.7229845  42.5191047  51.6010178 124.9759851  43.1410843
  49.9980349 127.2257625  32.9375058  50.7188712 127.6038878  32.4338775
  49.3745654 127.9446502  33.0410036  54.1411472 127.9302774  33.8733391
  54.3575087 128.8127412  33.5722219  53.6605539 127.5388988  33.1439033
  48.8810694 130.8888487  40.4504135  48.7355274 131.2028791  41.3428417
  48.4035897 131.5073388  39.8975034  50.7407077 127.8791035  40.4985025
  50.7268645 126.9832129  40.1617323  51.4579505 127.8861699  41.1323311
  52.5933207 128.3128376  42.5438152  52.3350985 129.2345446  42.5422483
  52.0618248 127.9158810  43.2338617  57.5379396 141.4179163  35.3228238
  57.7116274 140.8525585  34.5702090  58.0308287 142.2180058  35.1407728
  43.3556356 133.4293832  43.3891797  42.8109824 134.2053640  43.5212071
  44.2335706 133.7764636  43.2310918  50.1443972 126.7605416  35.7672595
  50.2659884 125.8322062  35.9663483  49.8546015 126.7744102  34.8550911
  53.0135163 124.4460326  38.9039315  53.0356860 124.5099659  37.9491295
  53.4303222 123.6064835  39.0979821  63.3918787 134.1815586  36.9418538
  63.8349933 133.4322911  36.5437661  62.5145298 134.1725722  36.5592270
  58.5254569 140.7345927  32.4225136  59.2205473 141.3552620  32.6412451
  58.8677719 139.8841278  32.6977514  44.1422378 132.5563728  46.2821953
  43.4004114 132.7046363  46.8686584  43.8215122 132.8171994  45.4188703
  60.4245992 138.1845633  33.9512467  60.9497316 138.5232905  33.2261787
  60.3368344 137.2492648  33.7675601  52.0866040 142.0979706  46.0802343
  52.3953167 141.8528853  46.9525043  52.8841522 142.3026345  45.5921214
  52.1086652 144.2517616  38.3107720  51.6691643 143.7593995  39.0040577
  52.8594769 143.7090584  38.0699795  44.5878991 140.4429157  38.3132348
  45.4137011 140.1432929  37.9330992  44.2373043 139.6736779  38.7622137
  49.5560525 139.7955625  40.3830022  48.9340534 139.1326330  40.0832250
  50.2265391 139.8216757  39.7003669  42.7887596 138.3615483  39.2721282
  41.9519505 137.9337658  39.0905283  42.7611242 138.5547927  40.2092073
  49.6285052 128.2737413  49.9762528  49.6773208 129.1499536  49.5940297
  50.1707566 127.7314806  49.4034171  60.1139898 138.8178536  49.2563665
  59.3235441 138.8002675  48.7168164  59.8773252 139.3566830  50.0112701
  60.2337773 135.6671003  46.5696393  60.2835778 135.5021010  47.5111916
  60.1251696 134.7998262  46.1794274  49.1174031 138.3459548  33.8588482
  49.2662152 139.0295013  33.2055155  49.9240475 138.3264638  34.3737938
  57.5241535 131.6501931  47.8855700  58.4251398 131.5108396  47.5939698
  57.5989510 131.8156386  48.8253877  51.8584340 129.0268786  46.7308886
  50.9887650 129.3202352  46.4591475  52.0943821 129.6109231  47.4516150
  61.7355970 138.0867944  46.8138415  61.4440778 138.4497925  47.6501876
  61.1228101 137.3734953  46.6351747  62.9351652 135.6520824  39.3340985
  63.7698543 136.0910628  39.4978545  63.0710781 135.1759477  38.5149231
  59.9843158 133.2100559  45.2818473  60.4597279 133.4028205  44.4737324
  59.0608723 133.2659745  45.0361857  46.8726664 134.3724726  34.8649551
  46.6272706 133.4687056  35.0629761  47.0422579 134.3741876  33.9229029
  54.5623374 125.2448402  44.2474307  55.0805318 125.9809429  43.9220795
  54.2078507 125.5512396  45.0821066  46.1422312 130.1053084  32.3635713
  45.4491557 130.1797439  31.7075749  45.8974064 129.3413427  32.8857230
  54.8135968 121.6648685  39.7675203  55.0937722 120.9971874  40.3935630
  55.5986575 121.8577781  39.2549867  52.6169437 140.8407679  31.3300230
  52.0443404 141.4597866  30.8770702  53.1902231 141.3907041  31.8640152
  58.6844827 130.0866319  43.5146778  59.6362250 130.1864417  43.5359003
  58.5148277 129.2944588  44.0244863  56.7059206 127.1721902  43.7006179
  56.1109138 127.4526915  43.0052668  56.4208903 127.6615803  44.4722920
  55.8366697 141.1244829  32.4608812  56.7697370 141.0590391  32.6641687
  55.7489910 141.9601096  32.0023345  58.4654713 140.4410699  29.4212760
  58.3868345 140.1070563  30.3148517  59.2864380 140.9332467  29.4204232
  61.1632905 133.3072439  42.6289078  61.1309225 132.3688439  42.8148762
  61.7733528 133.3856475  41.8954903  53.0016235 132.1768492  28.6716282
  53.9475340 132.0474700  28.7404700  52.6230480 131.4383154  29.1485710
  61.3127393 130.0983482  42.6747361  60.7966442 129.3141939  42.4877290
  62.1967342 129.7702199  42.8393881  58.9738120 123.8424498  38.6343174
  58.7762941 123.5339586  39.5186506  59.5837826 124.5686137  38.7641104
  66.9809454 134.3688445  41.7695115  67.7112843 134.1073734  42.3302818
  66.3716400 133.6317167  41.8097183  65.0624752 132.5096308  42.3669566
  64.3357915 132.3752273  41.7586058  64.6472038 132.8173137  43.1726284
  52.8854928 136.2286238  50.1316939  53.8057937 136.4064837  50.3256986
  52.8504511 135.2842283  49.9796638  51.1859153 130.1018468  28.6071167
  50.2790608 129.8051581  28.6833881  51.4635134 129.8048286  27.7405454
  42.1037093 131.4224831  39.0570214  41.7839877 130.5690140  38.7644588
  41.5570521 131.6373410  39.8128181  45.8817001 134.1387272  42.7739720
  46.1003010 135.0704380  42.7927754  46.2942774 133.7795247  43.5594524
  52.8021218 124.6455358  34.7615409  51.9921947 124.3002443  35.1370655
  53.4905635 124.3362901  35.3503020  54.7311767 123.7233405  36.3839705
  55.2842805 124.1428858  37.0429728  54.9681853 122.7969153  36.4262661
  50.7544866 129.7120478  52.1642469  50.6541593 130.6614835  52.0954560
  50.5366408 129.3838717  51.2918539  49.9557937 126.9605403  28.7483147
  50.8177101 127.2860302  29.0078964  50.1408281 126.1736899  28.2356212
  41.9725353 135.0427743  41.0263335  41.2788824 134.6281696  40.5133290
  42.7198344 135.0848279  40.4296754  58.1090574 125.8333930  35.8918370
  57.5289243 126.4918734  35.5096422  57.8426506 125.0111274  35.4805787
  56.5594140 125.2338987  38.0939690  57.0593918 125.3455522  37.2854009
  57.2029748 124.9300040  38.7340498  50.6176136 133.1417617  50.9807531
  50.1343218 133.9417977  51.1871420  50.7037075 133.1525562  50.0274975
  43.8862096 134.9745997  38.9029350  43.8632784 135.0733684  37.9511233
  44.1962732 135.8211147  39.2246516  46.5449473 137.0322152  43.0175965
  47.4992727 137.0006094  42.9505896  46.3461997 136.5712775  43.8326191
  47.1348856 135.6023268  45.5846762  47.9541745 136.0967346  45.6081600
  47.4085663 134.6855236  45.5564330  56.8915452 127.9934020  34.9474718
  56.0041307 128.2783671  34.7294913  57.3069441 127.8327783  34.1001995
  60.2429988 128.0180541  38.6629057  61.0190378 128.5076993  38.9353674
  59.5178122 128.4438595  39.1200927  62.6802547 128.7308160  39.7202998
  63.2747037 128.4903896  39.0096306  62.7529130 128.0115291  40.3476534
  44.8999702 142.5741771  40.0346163  44.7654170 141.8142172  39.4684161
  44.4831764 143.2982671  39.5674951  56.0358665 137.7578695  29.0422738
  56.7394515 137.9628697  29.6580393  55.3121314 138.3255457  29.3071821
  56.8656475 133.5088556  35.1625008  56.8091677 133.9657107  34.3232640
  57.4184818 132.7479241  34.9847851  60.6761281 129.2978288  35.9875127
  60.4198216 128.8974924  36.8183335  60.0514149 130.0122082  35.8625267
  64.9873619 132.0374361  38.4946419  64.4273177 132.1067550  39.2677981
  64.3817123 131.8615346  37.7745915  48.0568828 143.4711088  40.2464605
  47.9401212 144.4156521  40.1443295  47.2361274 143.1684650  40.6350404
  57.9445363 138.1961224  31.0921198  58.7790967 137.7642422  30.9098673
  57.7829706 138.0243238  32.0198092  57.5991255 134.6993337  32.4577537
  57.5440059 134.5337609  31.5165981  56.9737310 135.4069370  32.6139727
  42.3883770 129.9361402  46.2838959  43.0342633 129.4260356  46.7726185
  42.1800921 130.6730083  46.8582385  54.9137162 137.0042249  51.7831100
  55.7828322 137.1782901  51.4217735  54.4343913 137.8236666  51.6606829
  50.9087380 124.2001446  32.0362856  50.8966050 125.1443286  32.1931126
  51.8010802 124.0171592  31.7422317  49.0823342 144.1239350  43.4620534
  49.9850589 144.1562960  43.7787029  48.8560712 143.1939801  43.4766869
  50.8376944 142.8770337  40.1230612  49.8872575 142.8772198  40.0094985
  51.1409430 142.1303071  39.6066647  54.7239500 120.7944223  36.2908792
  53.9571896 120.2402710  36.4365475  55.1350205 120.8666092  37.1522944
  46.7281261 127.0829019  50.3813974  47.5912722 126.7265824  50.5917298
  46.1546671 126.7442914  51.0689378  66.5729638 148.7130875  41.1876375
  67.2108048 148.5937622  40.4839715  66.4550481 149.6611719  41.2464327
  63.3819344 148.6658303  41.1237899  63.0437856 148.5499368  40.2358434
  64.2509112 148.2649468  41.1038905  59.2406160 150.5193780  37.1134790
  58.6771025 150.4283717  36.3451078  59.1258555 149.6993684  37.5937283
  63.8639127 149.8193155  47.0824105  63.8527768 149.4245953  46.2104609
  64.0259766 149.0859227  47.6757876  56.7870592 152.0144971  39.9519011
  57.5791884 151.6735796  39.5365310  57.0267242 152.1239946  40.8721164
  64.8205718 154.1864747  32.4249255  64.1693698 154.7718828  32.0383269
  65.6150081 154.7170942  32.4844293  58.7461346 151.2753884  32.8236390
  59.5192222 150.7282872  32.6849265  59.0986744 152.1398134  33.0350851
  60.5846388 152.6030267  46.0303289  60.2936254 153.5075898  45.9149955
  61.2203372 152.6446794  46.7447358  61.5102595 149.9807115  42.6204648
  62.1066167 149.7563138  41.9061611  61.5677567 149.2391861  43.2230096
  61.0827623 147.4346551  30.4554839  61.3353144 146.9128072  29.6938302
  60.1452182 147.2712696  30.5581523  66.1270906 146.4382329  38.2629583
  66.9133995 146.0201752  37.9120000  66.3909611 147.3428421  38.4311231
  66.2980984 151.8755179  32.9618239  65.6626817 151.9489806  33.6739144
  65.9678390 152.4648778  32.2837319  71.5279333 146.3757562  39.1662561
  72.2604505 145.8056779  39.4000391  70.7718689 145.9879163  39.6069067
  60.8023912 149.3374656  32.6579214  60.6860170 148.6619560  33.3260299
  60.9126172 148.8507030  31.8411367  63.1455453 148.7984804  36.3625904
  62.7813660 148.2715425  37.0738825  64.0022569 148.4083273  36.1892389
  69.0504754 140.0879136  43.6257170  68.7188078 140.9574547  43.4018385
  68.4550367 139.7715420  44.3051200  62.7860940 143.8274703  31.3587252
  62.9535342 144.6954940  31.7257723  62.5958109 143.9901985  30.4348541
  65.5436273 152.2891682  43.0253083  65.2436996 153.1916721  42.9168890
  65.1987333 152.0223865  43.8774235  58.9948755 148.7405479  39.0589787
  58.0699251 148.6081693  39.2667479  59.2433168 149.5199698  39.5559729
  68.9433417 144.8074222  40.7050520  68.0350294 144.7389631  40.4109281
  68.8921013 145.2846167  41.5332345  62.7650161 146.2832361  32.3433919
  62.6449786 146.7289412  33.1819399  62.0702749 146.6317678  31.7847457
  56.3557566 148.3838753  39.8933576  56.4849947 148.6373232  40.8072988
  55.6755017 148.9766461  39.5738231  63.0174283 146.2263868  48.6485417
  62.2407617 146.7857788  48.6388282  63.6564846 146.7120651  49.1700287
  70.8095063 143.0090661  42.4828394  70.1669444 143.3023194  41.8368188
  70.3049992 142.8943581  43.2881590  68.4635227 146.7553834  33.1714253
  69.3753083 146.9881221  32.9961951  67.9544874 147.3390878  32.6089332
  61.2720655 149.0349321  48.2103384  62.0135339 149.5734365  47.9338208
  60.5657641 149.6615610  48.3674936  66.7475995 151.1778462  46.8075546
  67.1559351 150.7360872  46.0630178  66.0253256 150.6031089  47.0609738
  63.1007065 146.1151069  44.1809103  63.9468260 146.5390482  44.3243752
  63.0405702 145.4584693  44.8747666  67.0704809 151.7379652  40.5627834
  66.4413672 151.9025367  39.8603902  66.6830471 152.1521262  41.3338799
  70.9494041 152.6734090  37.9172198  70.2645079 153.0532992  37.3669232
  71.0337891 153.2829417  38.6504146  66.2506510 143.7755437  45.8390276
  66.0067442 144.5297497  45.3024552  66.5266441 144.1540785  46.6737523
  68.2044973 150.3194049  44.5167542  68.4161868 150.9625809  43.8401923
  68.1574721 149.4856366  44.0489472  65.8071202 142.9311870  41.4204114
  64.9455681 143.2293124  41.7120851  65.8333636 143.1482269  40.4885147
  62.6232771 151.4754061  37.8277920  63.0871117 151.7541764  37.0382542
  62.3589569 150.5737505  37.6451010  59.5156852 151.0225542  40.7657683
  60.0858209 151.4512810  40.1275167  60.1064964 150.7408127  41.4641869
  61.5601657 147.5977213  34.6367485  62.2625701 148.0498257  35.1041411
  61.2282286 146.9561032  35.2647378  60.0082019 146.1888970  49.0118694
  59.3780679 146.8705250  49.2454091  59.9018107 146.0772051  48.0671832
  55.3026991 145.8560766  39.9384618  54.5126045 146.1118294  39.4624729
  55.7938239 146.6709103  40.0436659  69.3190801 153.1966005  42.6889899
  70.1408245 152.7946192  42.4072581  69.3153204 153.0934239  43.6406015
  57.2541737 146.2205345  36.8968095  56.4572900 146.3324039  37.4151591
  57.0267329 146.5591997  36.0308986  63.0847404 152.7450048  44.8450610
  63.1491837 153.2070455  45.6808781  62.3758328 152.1147413  44.9732919
  53.5864694 146.1091256  42.3699609  53.8372733 146.9938266  42.6357185
  54.1224243 145.9295858  41.5974701  77.4096794 149.5404753  39.0374871
  76.6560502 148.9712151  38.8818875  77.5444335 149.5067418  39.9845505
  62.7995422 154.4118156  34.7129590  62.6641097 155.2569691  35.1414438
  63.3405234 154.6137433  33.9495524  59.2862762 140.4909735  51.3743945
  58.8929707 139.9375934  52.0491589  60.1028902 140.8020314  51.7650463
  56.2524819 151.9293594  35.2857515  56.7649340 152.7236844  35.4363080
  56.9047532 151.2319884  35.2191116  58.0619704 155.0459350  37.3680268
  58.2386332 155.9677315  37.1801252  58.8576538 154.7317769  37.7974648
  62.2030723 141.9067614  48.9664202  62.9440436 142.5074768  48.8868664
  62.4348645 141.1645252  48.4082244  57.3472061 147.0923982  47.2442431
  57.2325576 146.1909239  47.5449530  56.4916578 147.3387678  46.8927248
  64.4263898 155.0341722  48.8429932  63.9827752 154.2478101  48.5250837
  65.0881112 155.2220873  48.1773823  66.5245136 155.3144522  46.8711333
  66.5063612 156.1353403  46.3791602  67.4465056 155.1898597  47.0961474
  62.9818191 152.8288651  47.7134842  63.5146527 152.0676940  47.4834150
  62.4532272 152.5362303  48.4558996  66.1487886 137.9348717  43.2428483
  65.8052155 138.8250359  43.1667594  66.5166848 137.7450375  42.3798068
  54.2173736 150.2582248  36.0617086  55.0548958 150.6679256  35.8450793
  54.3952004 149.3181690  36.0317279  66.1138168 147.9257328  31.7500919
  65.5984792 148.6961933  31.9889306  65.8415477 147.2522465  32.3733980
  63.6985279 142.7707029  36.8086157  62.8426876 142.3813880  36.6291796
  64.1112231 142.8498990  35.9485942  65.2284426 140.3053373  41.2077717
  64.7249221 140.2683508  40.3945522  65.5215033 141.2146115  41.2674373
  61.4727312 140.3892102  40.2143898  62.3380309 140.1934911  39.8549788
  61.5404821 140.1602454  41.1413255  71.0872442 150.6789683  33.6854092
  70.3101885 150.3400843  33.2409254  71.7663923 150.6842306  33.0109057
  65.9024471 145.7984421  33.5760700  65.5974607 146.1130570  34.4270843
  66.8554914 145.8765840  33.6188033  64.3470903 151.9574644  35.2253654
  63.8192265 151.2227403  34.9126891  63.8458406 152.7349320  34.9793622
  69.3263749 150.1523664  40.3420700  68.6687424 150.8422926  40.4300829
  70.1304148 150.5420096  40.6854686  59.0789631 142.6194310  37.5860265
  59.6533383 142.3969492  36.8533458  59.6660613 142.6883005  38.3388866
  68.1369208 148.5068037  38.3924642  68.6501090 149.1398029  38.8946351
  68.7870432 147.9069233  38.0268002  59.4059218 144.6498771  31.6056150
  58.5696530 144.9873458  31.9265425  59.2663988 144.5147751  30.6683287
  61.3812299 139.4935559  36.3135335  60.7276711 139.1784576  35.6891949
  61.3392773 138.8711300  37.0395158  62.4923503 149.7754854  28.2288627
  61.5850565 149.5444108  28.4279776  62.9894535 148.9792473  28.4162608
  64.6150039 145.9817493  40.6382982  63.6972600 146.2032440  40.4804670
  65.0310183 146.0563803  39.7794690  65.3985087 147.3808908  35.7685663
  66.1456906 147.8930306  35.4592785  65.6676676 147.0592961  36.6290056
  63.6711737 149.8767449  32.7512617  62.7622956 149.5926482  32.8485087
  63.7006821 150.2966528  31.8915924  68.9031004 153.4874039  36.5203784
  68.4493331 152.6464948  36.5768975  68.2724971 154.1235437  36.8578565
  67.8463924 144.4166025  37.7504452  67.1086681 143.9043411  38.0814694
  68.0990697 143.9766406  36.9387729  67.3463944 155.3250535  37.4553603
  67.6386918 155.8855592  36.7365968  67.8562564 155.6179096  38.2106762
  67.9475551 137.1942277  38.3446221  68.2534428 136.3339640  38.0572136
  68.6728156 137.7859897  38.1445215  54.2399907 147.5972963  36.7327819
  54.0424307 147.0042324  36.0078886  53.6846571 147.2925173  37.4503758
  62.2196631 147.4896070  38.8522412  62.2745241 146.5369906  38.7764889
  61.4087833 147.6455509  39.3363711  63.3687825 151.4176193  30.0900695
  62.9307255 150.7012052  29.6306333  64.1098266 151.6452308  29.5285787
  60.1588991 146.1073129  36.6112791  59.3456856 146.4067300  37.0177983
  60.6547985 145.7128818  37.3287273  62.3097569 156.1030886  38.5447056
  62.2673748 156.3291733  37.6155588  63.2260268 155.8694261  38.6932857
  65.7563203 146.5714954  45.4427685  66.1112590 146.7986427  46.3022151
  66.4035334 146.9033331  44.8204940  71.4860939 149.6933390  36.1477014
  71.3478838 149.8834986  35.2198203  71.1297158 150.4552773  36.6045065
  59.6503066 143.6791485  42.2274026  60.2902445 143.5380244  41.5296989
  58.8180596 143.3925998  41.8512628  71.5130319 151.7609917  41.1588285
  71.9466826 151.6685206  42.0071339  72.2261900 151.7367417  40.5208301
  60.4263369 152.9793915  38.3409018  61.2203968 152.4844235  38.1391593
  59.7155062 152.4511778  37.9776724  65.2458214 155.3612011  42.6921386
  65.2995236 155.9302947  43.4599102  64.3772995 155.5313896  42.3275423
  56.7346133 147.1236997  34.4168771  55.8043721 147.0621453  34.6338733
  56.8303605 146.6012950  33.6205412  56.6531682 143.6491810  37.0047013
  56.9138499 144.5637143  36.8956173  57.4748854 143.1816252  37.1543626
  58.1256607 145.0629567  44.1745837  58.7979661 144.8546929  43.5258486
  57.2986394 144.8651653  43.7351070  72.3745869 151.8033617  43.6921171
  72.5681759 152.7079428  43.9380446  72.2746487 151.3441036  44.5259756
  64.0282179 141.6891508  46.1911498  63.3810094 142.3881458  46.0975975
  64.7983195 142.1227652  46.5587746  67.4360977 151.9540360  49.2662051
  67.2846484 151.7250912  48.3492135  67.4265657 152.9110962  49.2793396
  64.2046314 149.5272273  44.2508318  65.1338374 149.6783433  44.0777285
  63.7837344 149.6156294  43.3956964  63.0034645 153.5522937  42.0206856
  62.8645731 153.1841722  42.8932794  62.2149242 154.0670577  41.8490813
  64.5539861 152.9304540  39.4095693  64.2189693 152.8905310  40.3053343
  64.0543806 152.2649256  38.9366104  58.5284105 148.3372170  44.9348274
  58.3903903 147.6052409  45.5359814  59.4389028 148.2481070  44.6532462
  67.4899052 150.2760574  29.6832753  66.8728223 149.5507403  29.5865806
  67.0215541 151.0369935  29.3399827  61.1566405 148.0492129  44.4231954
  61.8666024 147.4085322  44.3818573  61.1135713 148.3005024  45.3458135
  69.1453184 154.9859483  47.3438533  69.0865730 154.3018703  46.6769116
  69.5472702 155.7278473  46.8919159  59.8695339 145.0357347  46.2427594
  59.3332696 144.5848086  46.8949190  59.2812048 145.1703256  45.4998058
  59.2797598 144.4945999  28.8054057  58.4027065 144.3734799  28.4416304
  59.7555351 143.7032077  28.5532946  69.1470591 152.9499067  45.5752513
  68.2597370 152.6124988  45.6978912  69.7169142 152.2182098  45.8121278
  50.7999738 149.2823158  38.8995564  51.4870778 148.9684888  38.3116580
  50.6447867 150.1864523  38.6262816  55.6034460 144.1713355  43.3280588
  55.5192649 143.5639025  42.5930998  54.7817167 144.6622373  43.3290084
  62.4661524 156.8472289  36.0516578  61.6829046 157.3893969  36.1454802
  63.1654269 157.3646269  36.4510819  65.7758174 142.6566918  38.6950783
  66.2726874 141.9036881  38.3751853  65.0045156 142.6931235  38.1293992
  73.6287932 148.3607284  40.3369075  73.6177808 149.2431999  39.9663008
  72.7605311 148.0078835  40.1423612  65.1370428 157.5087353  44.6971915
  65.8498400 158.1434818  44.6247816  64.6460457 157.6051219  43.8811917
  66.8587955 151.4138606  36.2689207  65.9244234 151.5340068  36.0993911
  67.0364623 150.5111072  36.0049216  62.3593143 144.7984301  38.4222468
  61.9890931 144.2455342  39.1103373  62.8552236 144.1942435  37.8697468
  70.2460506 147.2555925  36.8039241  70.7120959 148.0883917  36.7299543
  70.6968007 146.7900907  37.5084499  60.1882342 155.2581796  45.5177486
  60.8891801 155.8918279  45.6706880  59.7177457 155.5996528  44.7573125
  68.3136737 153.5999746  33.8025393  68.5896581 153.4856341  34.7119267
  67.4441236 153.2017231  33.7637566  68.2177169 139.6236512  40.8430142
  67.3040249 139.8540739  41.0112349  68.6470271 139.7074956  41.6944174
  67.9883628 147.8126404  43.3430036  67.3355078 148.0602311  42.6882489
  68.3664008 146.9990542  43.0092513  64.9490801 157.8486097  37.4458206
  65.1313196 157.0307753  37.9085959  65.7723788 158.0653789  37.0083096
  65.2832967 156.7754282  34.7073255  65.8120733 156.2646737  34.0943417
  65.5461187 156.4596812  35.5718788  64.0371201 148.5546215  49.8296073
  63.3611838 148.4540344  50.4998448  64.8598835 148.3985429  50.2932070
  55.7850060 154.7918152  42.4508588  56.3703497 154.0461839  42.5836493
  55.5874898 155.1022108  43.3345252  50.3767714 147.3623752  41.1713032
  50.4151814 146.8287342  41.9650150  49.8708007 146.8358957  40.5524009
  57.7558477 142.2088292  44.6675574  57.8199803 143.0703123  44.2552972
  57.6925597 141.5962294  43.9347932  57.2310749 144.2811425  48.3148608
  57.8582788 143.8988502  48.9286132  56.3738668 144.0625627  48.6804301
  67.6304858 154.6874400  49.9202344  68.1744762 155.3004358  49.4257298
  67.0491703 155.2453978  50.4369357  54.0076292 146.0887854  34.2466963
  54.3029733 145.1798532  34.1934017  53.1064328 146.0675593  33.9247965
  65.9162371 157.8095118  41.0517371  65.7913510 157.0084858  40.5428317
  66.5741462 158.3041311  40.5631341  57.5370539 144.1643850  40.2294512
  56.8157125 144.7779818  40.0901985  58.3263795 144.7001615  40.1511157
  67.9797279 155.6104138  42.6796921  67.0327615 155.4909489  42.6075248
  68.3280052 154.7226636  42.7623183  60.3396853 141.4998277  46.5035163
  60.8631254 141.7460574  47.2661473  60.1209186 142.3318312  46.0838301
  55.7364134 143.7701952  34.3706288  55.4076840 142.8899330  34.1881394
  56.0903504 143.7149620  35.2582677  64.9843712 155.4056854  38.8801274
  64.8368675 154.4773562  39.0608844  65.8097206 155.4276945  38.3958349
  58.8505957 144.0574921  34.7381766  59.1902029 144.5860843  34.0160374
  59.2978077 144.3955327  35.5140332  68.5877834 156.2285413  39.9666146
  69.5124382 156.0228274  39.8290597  68.4193138 155.9801814  40.8755488
  61.5449398 142.4411972  44.1884834  61.2046218 141.6419785  44.5905514
  60.8388404 142.7413683  43.6161667  62.1965869 139.5261284  42.6412157
  63.0191939 139.0521763  42.5191047  62.4403933 140.3051768  43.1410843
  60.8374104 142.5549543  32.9375058  61.5582466 142.9330796  32.4338775
  60.2139408 143.2738420  33.0410036  64.9805227 143.2594692  33.8733391
  65.1968841 144.1419330  33.5722219  64.4999294 142.8680905  33.1439033
  59.7204448 146.2180405  40.4504135  59.5749029 146.5320708  41.3428417
  59.2429652 146.8365305  39.8975034  61.5800831 143.2082953  40.4985025
  61.5662400 142.3124046  40.1617323  62.2973259 143.2153617  41.1323311
  63.4326962 143.6420293  42.5438152  63.1744740 144.5637364  42.5422483
  62.9012002 143.2450728  43.2338617  68.3773151 156.7471080  35.3228238
  68.5510028 156.1817503  34.5702090  68.8702042 157.5471975  35.1407728
  54.1950110 148.7585750  43.3891797  53.6503578 149.5345557  43.5212071
  55.0729460 149.1056554  43.2310918  60.9837727 142.0897333  35.7672595
  61.1053638 141.1613980  35.9663483  60.6939769 142.1036019  34.8550911
  63.8528917 139.7752244  38.9039315  63.8750614 139.8391577  37.9491295
  64.2696976 138.9356752  39.0979821  74.2312542 149.5107503  36.9418538
  74.6743688 148.7614829  36.5437661  73.3539052 149.5017640  36.5592270
  69.3648323 156.0637845  32.4225136  70.0599228 156.6844538  32.6412451
  69.7071473 155.2133196  32.6977514  54.9816132 147.8855646  46.2821953
  54.2397868 148.0338281  46.8686584  54.6608876 148.1463911  45.4188703
  71.2639746 153.5137550  33.9512467  71.7891070 153.8524823  33.2261787
  71.1762099 152.5784566  33.7675601  62.9259795 157.4271624  46.0802343
  63.2346921 157.1820771  46.9525043  63.7235277 157.6318262  45.5921214
  60.3954279 155.1247543  40.3830022  59.7734288 154.4618248  40.0832250
  61.0659146 155.1508675  39.7003669  53.6281351 153.6907401  39.2721282
  52.7913259 153.2629575  39.0905283  53.6004996 153.8839844  40.2092073
  60.4678807 143.6029331  49.9762528  60.5166962 144.4791454  49.5940297
  61.0101321 143.0606724  49.4034171  70.9533652 154.1470454  49.2563665
  70.1629196 154.1294593  48.7168164  70.7167007 154.6858748  50.0112701
  71.0731527 150.9962920  46.5696393  71.1229532 150.8312928  47.5111916
  70.9645451 150.1290179  46.1794274  59.9567786 153.6751466  33.8588482
  60.1055906 154.3586930  33.2055155  60.7634229 153.6556556  34.3737938
  68.3635290 146.9793848  47.8855700  69.2645152 146.8400313  47.5939698
  68.4383264 147.1448303  48.8253877  62.6978095 144.3560703  46.7308886
  61.8281404 144.6494269  46.4591475  62.9337575 144.9401148  47.4516150
  72.5749724 153.4159862  46.8138415  72.2834532 153.7789842  47.6501876
  71.9621855 152.7026870  46.6351747  73.7745406 150.9812742  39.3340985
  74.6092298 151.4202546  39.4978545  73.9104535 150.5051395  38.5149231
  70.8236912 148.5392477  45.2818473  71.2991034 148.7320123  44.4737324
  69.9002478 148.5951662  45.0361857  57.7120419 149.7016644  34.8649551
  57.4666461 148.7978974  35.0629761  57.8816333 149.7033794  33.9229029
  65.4017129 140.5740320  44.2474307  65.9199073 141.3101347  43.9220795
  65.0472262 140.8804313  45.0821066  56.9816066 145.4345001  32.3635713
  56.2885311 145.5089356  31.7075749  56.7367818 144.6705345  32.8857230
  65.6529723 136.9940603  39.7675203  65.9331477 136.3263792  40.3935630
  66.4380330 137.1869698  39.2549867  63.4563191 156.1699597  31.3300230
  62.8837159 156.7889784  30.8770702  64.0295985 156.7198958  31.8640152
  69.5238581 145.4158237  43.5146778  70.4756004 145.5156334  43.5359003
  69.3542032 144.6236505  44.0244863  67.5452961 142.5013820  43.7006179
  66.9502893 142.7818833  43.0052668  67.2602657 142.9907721  44.4722920
  66.6760451 156.4536747  32.4608812  67.6091124 156.3882308  32.6641687
  66.5883664 157.2893014  32.0023345  69.3048468 155.7702617  29.4212760
  69.2262099 155.4362481  30.3148517  70.1258135 156.2624385  29.4204232
  72.0026659 148.6364356  42.6289078  71.9702979 147.6980357  42.8148762
  72.6127283 148.7148393  41.8954903  63.8409990 147.5060409  28.6716282
  64.7869095 147.3766617  28.7404700  63.4624235 146.7675071  29.1485710
  72.1521148 145.4275400  42.6747361  71.6360196 144.6433856  42.4877290
  73.0361096 145.0994116  42.8393881  69.8131875 139.1716415  38.6343174
  69.6156696 138.8631504  39.5186506  70.4231580 139.8978054  38.7641104
  77.8203209 149.6980363  41.7695115  78.5506597 149.4365651  42.3302818
  77.2110154 148.9609085  41.8097183  75.9018506 147.8388226  42.3669566
  75.1751670 147.7044191  41.7586058  75.4865793 148.1465054  43.1726284
  63.7248683 151.5578155  50.1316939  64.6451692 151.7356754  50.3256986
  63.6898266 150.6134201  49.9796638  62.0252907 145.4310386  28.6071167
  61.1184363 145.1343498  28.6833881  62.3028888 145.1340204  27.7405454
  52.9430848 146.7516749  39.0570214  52.6233632 145.8982057  38.7644588
  52.3964276 146.9665327  39.8128181  56.7210755 149.4679190  42.7739720
  56.9396765 150.3996298  42.7927754  57.1336529 149.1087164  43.5594524
  63.6414973 139.9747275  34.7615409  62.8315701 139.6294360  35.1370655
  64.3299390 139.6654819  35.3503020  65.5705521 139.0525322  36.3839705
  66.1236560 139.4720776  37.0429728  65.8075607 138.1261070  36.4262661
  61.5938620 145.0412396  52.1642469  61.4935347 145.9906753  52.0954560
  61.3760162 144.7130635  51.2918539  60.7951692 142.2897321  28.7483147
  61.6570856 142.6152219  29.0078964  60.9802036 141.5028817  28.2356212
  52.8119108 150.3719661  41.0263335  52.1182579 149.9573613  40.5133290
  53.5592099 150.4140197  40.4296754  68.9484328 141.1625847  35.8918370
  68.3682997 141.8210651  35.5096422  68.6820261 140.3403192  35.4805787
  67.3987895 140.5630905  38.0939690  67.8987673 140.6747440  37.2854009
  68.0423503 140.2591958  38.7340498  61.4569890 148.4709535  50.9807531
  60.9736972 149.2709895  51.1871420  61.5430829 148.4817480  50.0274975
  54.7255850 150.3037914  38.9029350  54.7026538 150.4025602  37.9511233
  55.0356487 151.1503065  39.2246516  57.3843228 152.3614069  43.0175965
  58.3386481 152.3298012  42.9505896  57.1855751 151.9004693  43.8326191
  57.9742610 150.9315185  45.5846762  58.7935499 151.4259264  45.6081600
  58.2479418 150.0147154  45.5564330  67.7309206 143.3225938  34.9474718
  66.8435061 143.6075588  34.7294913  68.1463195 143.1619701  34.1001995
  71.0823742 143.3472459  38.6629057  71.8584132 143.8368911  38.9353674
  70.3571877 143.7730513  39.1200927  73.5196301 144.0600078  39.7202998
  74.1140792 143.8195814  39.0096306  73.5922885 143.3407209  40.3476534
  66.8752420 153.0870612  29.0422738  67.5788270 153.2920615  29.6580393
  66.1515068 153.6547374  29.3071821  67.7050230 148.8380474  35.1625008
  67.6485431 149.2949025  34.3232640  68.2578572 148.0771158  34.9847851
  71.5155036 144.6270206  35.9875127  71.2591970 144.2266841  36.8183335
  70.8907904 145.3413999  35.8625267  75.8267374 147.3666279  38.4946419
  75.2666932 147.4359468  39.2677981  75.2210877 147.1907263  37.7745915
  68.7839117 153.5253142  31.0921198  69.6184721 153.0934340  30.9098673
  68.6223460 153.3535155  32.0198092  68.4385009 150.0285255  32.4577537
  68.3833813 149.8629526  31.5165981  67.8131065 150.7361288  32.6139727
  53.2277524 145.2653319  46.2838959  53.8736388 144.7552273  46.7726185
  53.0194675 146.0022001  46.8582385  65.7530916 152.3334167  51.7831100
  66.6222076 152.5074819  51.4217735  65.2737668 153.1528584  51.6606829
  61.7481135 139.5293364  32.0362856  61.7359805 140.4735204  32.1931126
  62.6404557 139.3463509  31.7422317  65.5633254 136.1236141  36.2908792
  64.7965650 135.5694627  36.4365475  65.9743959 136.1958009  37.1522944
  57.5675015 142.4120936  50.3813974  58.4306477 142.0557741  50.5917298
  56.9940426 142.0734831  51.0689378  76.9664661 161.7674247  38.2629583
  77.7527750 161.3493670  37.9120000  77.2303365 162.6720339  38.4311231
  82.3673088 161.7049480  39.1662561  83.0998260 161.1348697  39.4000391
  81.6112444 161.3171080  39.6069067  79.8898508 155.4171054  43.6257170
  79.5581833 156.2866465  43.4018385  79.2944122 155.1007338  44.3051200
  73.6254695 159.1566621  31.3587252  73.7929097 160.0246857  31.7257723
  73.4351864 159.3193903  30.4348541  79.7827172 160.1366140  40.7050520
  78.8744049 160.0681548  40.4109281  79.7314767 160.6138085  41.5332345
  81.6488818 158.3382578  42.4828394  81.0063198 158.6315112  41.8368188
  81.1443746 158.2235499  43.2881590  79.3028982 162.0845752  33.1714253
  80.2146838 162.3173138  32.9961951  78.7938629 162.6682796  32.6089332
  73.9400819 161.4442986  44.1809103  74.7862014 161.8682400  44.3243752
  73.8799457 160.7876611  44.8747666  77.0900265 159.1047355  45.8390276
  76.8461196 159.8589415  45.3024552  77.3660195 159.4832702  46.6737523
  76.6464956 158.2603788  41.4204114  75.7849435 158.5585041  41.7120851
  76.6727391 158.4774187  40.4885147  88.2490548 164.8696671  39.0374871
  87.4954257 164.3004069  38.8818875  88.3838090 164.8359335  39.9845505
  70.1256516 155.8201653  51.3743945  69.7323462 155.2667852  52.0491589
  70.9422656 156.1312232  51.7650463  73.0424477 157.2359532  48.9664202
  73.7834190 157.8366685  48.8868664  73.2742400 156.4937170  48.4082244
  76.9881640 153.2640635  43.2428483  76.6445909 154.1542277  43.1667594
  77.3560603 153.0742293  42.3798068  74.5379034 158.0998947  36.8086157
  73.6820630 157.7105797  36.6291796  74.9505986 158.1790908  35.9485942
  76.0678180 155.6345290  41.2077717  75.5642976 155.5975425  40.3945522
  76.3608787 156.5438033  41.2674373  72.3121066 155.7184020  40.2143898
  73.1774063 155.5226829  39.8549788  72.3798575 155.4894372  41.1413255
  76.7418226 161.1276338  33.5760700  76.4368361 161.4422487  34.4270843
  77.6948668 161.2057758  33.6188033  69.9183385 157.9486228  37.5860265
  70.4927137 157.7261409  36.8533458  70.5054368 158.0174922  38.3388866
  70.2452972 159.9790689  31.6056150  69.4090285 160.3165375  31.9265425
  70.1057742 159.8439669  30.6683287  72.2206053 154.8227477  36.3135335
  71.5670465 154.5076494  35.6891949  72.1786527 154.2003217  37.0395158
  75.4543793 161.3109410  40.6382982  74.5366355 161.5324357  40.4804670
  75.8703937 161.3855721  39.7794690  78.6857678 159.7457942  37.7504452
  77.9480435 159.2335328  38.0814694  78.9384452 159.3058324  36.9387729
  78.7869306 152.5234194  38.3446221  79.0928182 151.6631558  38.0572136
  79.5121910 153.1151814  38.1445215  76.5956957 161.9006872  45.4427685
  76.9506345 162.1278345  46.3022151  77.2429088 162.2325248  44.8204940
  70.4896820 159.0083403  42.2274026  71.1296199 158.8672162  41.5296989
  69.6574351 158.7217916  41.8512628  74.8675934 157.0183426  46.1911498
  74.2203849 157.7173375  46.0975975  75.6376949 157.4519570  46.5587746
  70.7089094 160.3649265  46.2427594  70.1726451 159.9140003  46.8949190
  70.1205802 160.4995174  45.4998058  70.1191353 159.8237916  28.8054057
  69.2420819 159.7026717  28.4416304  70.5949106 159.0323995  28.5532946
  76.6151929 157.9858836  38.6950783  77.1120628 157.2328798  38.3751853
  75.8438910 158.0223153  38.1293992  84.4681686 163.6899202  40.3369075
  84.4571562 164.5723917  39.9663008  83.5999066 163.3370753  40.1423612
  73.1986898 160.1276219  38.4222468  72.8284685 159.5747260  39.1103373
  73.6945990 159.5234353  37.8697468  81.0854261 162.5847843  36.8039241
  81.5514713 163.4175834  36.7299543  81.5361761 162.1192824  37.5084499
  79.0570924 154.9528430  40.8430142  78.1434003 155.1832656  41.0112349
  79.4864025 155.0366874  41.6944174  78.8277382 163.1418322  43.3430036
  78.1748832 163.3894229  42.6882489  79.2057762 162.3282460  43.0092513
  68.5952231 157.5380210  44.6675574  68.6593558 158.3995041  44.2552972
  68.5319351 156.9254212  43.9347932  68.0704504 159.6103342  48.3148608
  68.6976543 159.2280420  48.9286132  67.2132423 159.3917544  48.6804301
  71.1790607 156.8290195  46.5035163  71.7025009 157.0752491  47.2661473
  70.9602940 157.6610229  46.0838301  66.5757888 159.0993869  34.3706288
  66.2470594 158.2191248  34.1881394  66.9297259 159.0441538  35.2582677
  69.6899711 159.3866839  34.7381766  70.0295784 159.9152760  34.0160374
  70.1371832 159.7247245  35.5140332  72.3843152 157.7703890  44.1884834
  72.0439972 156.9711703  44.5905514  71.6782158 158.0705601  43.6161667
  73.0359624 154.8553202  42.6412157  73.8585693 154.3813680  42.5191047
  73.2797687 155.6343686  43.1410843  71.6767858 157.8841461  32.9375058
  72.3976221 158.2622713  32.4338775  71.0533163 158.6030337  33.0410036
  75.8198981 158.5886610  33.8733391  76.0362596 159.4711247  33.5722219
  75.3393048 158.1972823  33.1439033  72.4194586 158.5374871  40.4985025
  72.4056154 157.6415964  40.1617323  73.1367014 158.5445535  41.1323311
  74.2720716 158.9712211  42.5438152  74.0138494 159.8929282  42.5422483
  73.7405757 158.5742646  43.2338617  71.8231481 157.4189251  35.7672595
  71.9447393 156.4905897  35.9663483  71.5333524 157.4327937  34.8550911
  74.6922672 155.1044162  38.9039315  74.7144369 155.1683495  37.9491295
  75.1090731 154.2648670  39.0979821  85.0706296 164.8399421  36.9418538
  85.5137442 164.0906746  36.5437661  84.1932806 164.8309557  36.5592270
  71.3072561 158.9321248  49.9762528  71.3560716 159.8083371  49.5940297
  71.8495075 158.3898642  49.4034171  79.2029044 162.3085766  47.8855700
  80.1038907 162.1692231  47.5939698  79.2777019 162.4740221  48.8253877
  73.5371849 159.6852621  46.7308886  72.6675159 159.9786187  46.4591475
  73.7731330 160.2693066  47.4516150  81.6630667 163.8684394  45.2818473
  82.1384788 164.0612041  44.4737324  80.7396232 163.9243580  45.0361857
  76.2410883 155.9032238  44.2474307  76.7592827 156.6393265  43.9220795
  75.8866016 156.2096231  45.0821066  76.4923477 152.3232520  39.7675203
  76.7725231 151.6555709  40.3935630  77.2774084 152.5161616  39.2549867
  80.3632336 160.7450154  43.5146778  81.3149759 160.8448252  43.5359003
  80.1935786 159.9528423  44.0244863  78.3846715 157.8305738  43.7006179
  77.7896647 158.1110750  43.0052668  78.0996412 158.3199638  44.4722920
  82.8420414 163.9656274  42.6289078  82.8096734 163.0272275  42.8148762
  83.4521037 164.0440311  41.8954903  82.9914902 160.7567317  42.6747361
  82.4753951 159.9725774  42.4877290  83.8754851 160.4286034  42.8393881
  80.6525629 154.5008333  38.6343174  80.4550450 154.1923421  39.5186506
  81.2625335 155.2269972  38.7641104  88.6596963 165.0272281  41.7695115
  89.3900352 164.7657569  42.3302818  88.0503909 164.2901003  41.8097183
  86.7412261 163.1680143  42.3669566  86.0145424 163.0336108  41.7586058
  86.3259547 163.4756972  43.1726284  72.8646662 160.7602303  28.6071167
  71.9578117 160.4635416  28.6833881  73.1422643 160.4632121  27.7405454
  74.4808727 155.3039193  34.7615409  73.6709456 154.9586278  35.1370655
  75.1693144 154.9946737  35.3503020  76.4099276 154.3817240  36.3839705
  76.9630314 154.8012693  37.0429728  76.6469362 153.4552988  36.4262661
  72.4332375 160.3704314  52.1642469  72.3329102 161.3198670  52.0954560
  72.2153917 160.0422552  51.2918539  71.6345446 157.6189239  28.7483147
  72.4964610 157.9444137  29.0078964  71.8195790 156.8320734  28.2356212
  79.7878083 156.4917765  35.8918370  79.2076752 157.1502569  35.5096422
  79.5214015 155.6695110  35.4805787  78.2381649 155.8922823  38.0939690
  78.7381427 156.0039357  37.2854009  78.8817257 155.5883876  38.7340498
  78.5702961 158.6517855  34.9474718  77.6828816 158.9367506  34.7294913
  78.9856950 158.4911619  34.1001995  81.9217497 158.6764376  38.6629057
  82.6977887 159.1660829  38.9353674  81.1965631 159.1022431  39.1200927
  84.3590055 159.3891996  39.7202998  84.9534546 159.1487732  39.0096306
  84.4316639 158.6699126  40.3476534  82.3548790 159.9562123  35.9875127
  82.0985725 159.5558759  36.8183335  81.7301658 160.6705917  35.8625267
  86.6661128 162.6958196  38.4946419  86.1060686 162.7651386  39.2677981
  86.0604632 162.5199181  37.7745915  72.5874889 154.8585282  32.0362856
  72.5753559 155.8027122  32.1931126  73.4798311 154.6755427  31.7422317
  76.4027009 151.4528058  36.2908792  75.6359405 150.8986545  36.4365475
  76.8137714 151.5249927  37.1522944  68.4068770 157.7412854  50.3813974
  69.2700231 157.3849659  50.5917298  67.8334180 157.4026749  51.0689378
   9.6670356  50.1795689  33.8069411   9.6558997  49.7848487  32.9349915
   9.8290995  49.4461762  34.4003183   6.3877617  52.9632801  32.7548595
   6.0967483  53.8678432  32.6395262   7.0234601  53.0049329  33.4692665
  11.3467502  52.6494216  29.7498389  11.0468225  53.5519255  29.6414196
  11.0018562  52.3826400  30.6019542   8.8205512  46.5866402  35.3730724
   8.0438846  47.1460322  35.3633588   9.4596075  47.0723185  35.8945594
   7.0751884  49.3951856  34.9348691   7.8166568  49.9336900  34.6583514
   6.3688869  50.0218144  35.0920243  12.5507224  51.5380996  33.5320852
  12.9590580  51.0963407  32.7875485  11.8284485  50.9633624  33.7855045
   8.9038294  46.4753603  30.9054409   9.7499489  46.8993016  31.0489058
   8.8436931  45.8187227  31.5992972  12.8736038  52.0982187  27.2873141
  12.2444901  52.2627901  26.5849209  12.4861700  52.5123796  28.0584105
  16.7525270  53.0336624  24.6417505  16.0676308  53.4135526  24.0914538
  16.8369119  53.6431951  25.3749453  12.0537739  44.1357971  32.5635583
  11.8098671  44.8900032  32.0269859  12.3297669  44.5143319  33.3982830
  14.0076202  50.6796584  31.2412848  14.2193097  51.3228343  30.5647229
  13.9605950  49.8458900  30.7734778   5.8113248  46.5491504  35.7364001
   5.1811908  47.2307785  35.9699398   5.7049336  46.4374585  34.7917139
  15.1222030  53.5568539  29.4135206  15.9439473  53.1548726  29.1317887
  15.1184432  53.4536773  30.3651322   8.8878633  53.1052582  31.5695916
   8.9523066  53.5672989  32.4054088   8.1789557  52.4749947  31.6978226
  23.2128023  49.9007287  25.7620177  22.4591731  49.3314685  25.6064182
  23.3475564  49.8669952  26.7090812   5.0893990  40.8512270  38.0989252
   4.6960936  40.2978468  38.7736896   5.9060131  41.1622848  38.4895769
   8.0061951  42.2670149  35.6909508   8.7471665  42.8677302  35.6113971
   8.2379874  41.5247786  35.1327551   3.1503289  47.4526516  33.9687738
   3.0356805  46.5511773  34.2694837   2.2947807  47.6990213  33.6172555
  10.2295127  55.3944256  35.5675239   9.7858981  54.6080635  35.2496143
  10.8912341  55.5823407  34.9019129   4.9882248  56.9240058  30.0935917
   5.5389673  56.7957121  29.3212911   4.1493724  57.2234947  29.7430810
  12.3276365  55.6747056  33.5956640  12.3094841  56.4955937  33.1036909
  13.2496285  55.5501131  33.8206781   8.7849419  53.1891186  34.4380148
   9.3177756  52.4279474  34.2079456   8.2563500  52.8964837  35.1804303
  15.1294978  50.5126199  27.0666007  14.4718652  51.2025460  27.1546135
  15.9335377  50.9022631  27.4099993  13.1495172  55.6853069  24.1798909
  13.4418147  56.2458127  23.4611275  13.6593793  55.9781630  24.9352068
  11.5594431  46.9317488  32.1672992  11.9143819  47.1588961  33.0267457
  12.2066563  47.2635865  31.5450247  17.3161548  52.1212451  27.8833592
  17.7498055  52.0287740  28.7316646  18.0293129  52.0969951  27.2453608
  11.0489443  55.7214545  29.4166693  11.1026465  56.2905481  30.1844409
  10.1804224  55.8916430  29.0520730  18.1777097  52.1636152  30.4166477
  18.3712987  53.0681962  30.6625752  18.0777716  51.7043571  31.2505063
   9.8313408  42.0494042  32.9156805   9.1841323  42.7483992  32.8221281
  10.6014424  42.4830186  33.2833053  13.2392206  52.3142894  35.9907358
  13.0877712  52.0853446  35.0737442  13.2296886  53.2713496  36.0038703
  10.0077542  49.8874807  30.9753625  10.9369602  50.0385967  30.8022592
   9.5868573  49.9758828  30.1202271   8.8065874  53.9125472  28.7452162
   8.6676960  53.5444256  29.6178100   8.0180471  54.4273111  28.5736120
   4.3315333  48.6974704  31.6593581   4.1935131  47.9654943  32.2605120
   5.2420257  48.6083604  31.3777769   6.9597634  48.4094664  31.1477261
   7.6697253  47.7687856  31.1063879   6.9166942  48.6607558  32.0703442
  14.9484413  55.3462017  34.0683840  14.8896959  54.6621237  33.4014423
  15.3503931  56.0881007  33.6164466   3.9675112  62.1623931  26.8617559
   4.2071710  62.7942455  27.5396577   3.1244308  61.8111971  27.1482918
  14.9501820  53.3101601  32.2997820  14.0628599  52.9727523  32.4224219
  15.5200371  52.5784632  32.5366585   8.4802973  57.9703053  29.2659063
   8.4073145  58.7758025  29.7778367   8.0380367  58.1695019  28.4407084
  19.4319161  48.7209818  27.0614381  19.4209037  49.6034534  26.6908314
  18.5636540  48.3681369  26.8668918  10.9401657  57.8689887  31.4217221
  11.6529629  58.5037352  31.3493123  10.4491686  57.9653753  30.6057223
   5.9913570  55.6184331  32.2422792   6.6923030  56.2520814  32.3952187
   5.5208685  55.9599062  31.4818432  13.7914856  48.1728938  30.0675343
  13.1386307  48.4204846  29.4127795  14.1695236  47.3593076  29.7337820
  10.7522030  58.2088631  24.1703513  10.9344425  57.3910287  24.6331265
  11.5755016  58.4256324  23.7328403   9.8402429  48.9148749  36.5541380
   9.1643066  48.8142879  37.2243755  10.6630063  48.7587963  37.0177377
   1.5881289  55.1520686  29.1753895   2.1734725  54.4064374  29.3081799
   1.3906127  55.4624642  30.0590559   8.5825212  60.2215677  30.7898996
   9.1343520  60.3847298  31.5548081   8.9231406  60.8120114  30.1179021
   3.0341978  44.6413959  35.0393915   3.6614017  44.2591036  35.6531439
   2.1769897  44.4228161  35.4049607  13.4336087  55.0476934  36.6447650
  13.9775991  55.6606892  36.1502605  12.8522931  55.6056513  37.1614663
  11.7193600  58.1697652  27.7762678  11.5944739  57.3687392  27.2673623
  12.3772691  58.6643846  27.2876648  13.7828508  55.9706672  29.4042228
  12.8358844  55.8512023  29.3320555  14.1311281  55.0829170  29.4868489
  10.7874941  55.7659388  25.6046580  10.6399904  54.8376096  25.7854150
  11.6128435  55.7879479  25.1203655  14.3909063  56.5887947  26.6911453
  15.3155611  56.3830809  26.5535904  14.2224367  56.3404348  27.6000794
   8.7291024  57.7874158  32.8047650   9.0378150  57.5423305  33.6770350
   9.5266506  57.9920797  32.3166520   8.7511636  59.9412068  25.0353027
   8.3116626  59.4488447  25.7285883   9.5019753  59.3985036  24.7945102
   6.2710035  43.9631865  36.7007834   6.3198191  44.8393988  36.3185604
   6.8132550  43.4209258  36.1279478  16.7564881  54.5072988  35.9808971
  15.9660425  54.4897127  35.4413471  16.5198236  55.0461282  36.7358008
  16.8762756  51.3565455  33.2941700  16.9260761  51.1915462  34.2357223
  16.7676679  50.4892714  32.9039581  14.1666518  47.3396383  34.6101007
  15.0676381  47.2002847  34.3185004  14.2414493  47.5050837  35.5499184
   8.5009324  44.7163237  33.4554193   7.6312633  45.0096803  33.1836782
   8.7368804  45.3003682  34.1761457  18.3780953  53.7762396  33.5383722
  18.0865761  54.1392377  34.3747182  17.7653084  53.0629404  33.3597054
  19.5776635  51.3415276  26.0586292  20.4123527  51.7805080  26.2223852
  19.7135764  50.8653929  25.2394538  16.6268141  48.8995011  32.0063779
  17.1022263  49.0922657  31.1982631  15.7033707  48.9554197  31.7607163
  15.3269810  45.7760771  30.2392085  16.2787233  45.8758869  30.2604309
  15.1573261  44.9839039  30.7490169  17.8057888  48.9966891  29.3534385
  17.7734208  48.0582891  29.5394069  18.4158512  49.0750927  28.6200210
  17.9552376  45.7877934  29.3992668  17.4391425  45.0036391  29.2122597
  18.8392325  45.4596651  29.5639187  23.6234438  50.0582897  28.4940422
  24.3537826  49.7968186  29.0548125  23.0141383  49.3211619  28.5342490
  21.7049735  48.1990760  29.0914873  20.9782898  48.0646725  28.4831364
  21.2897022  48.5067589  29.8971591   9.5279911  51.9180690  36.8562246
  10.4482921  52.0959289  37.0502292   9.4929494  50.9736735  36.7041945
   7.3969849  45.4014930  38.8887776   7.2966576  46.3509287  38.8199867
   7.1791391  45.0733169  38.0163846   7.2601119  48.8312069  37.7052838
   6.7768201  49.6312429  37.9116727   7.3462058  48.8420014  36.7520282
   3.1874457  52.7216604  29.7421271   4.1417710  52.6900546  29.6751203
   2.9886980  52.2607227  30.5571497   3.7773839  51.2917720  32.3092069
   4.5966728  51.7861798  32.3326906   4.0510647  50.3749688  32.2809636
   4.6993811  59.1605540  26.9709912   4.5826196  60.1050973  26.8688602
   3.8786258  58.8579102  27.3595711  11.5562145  52.6936701  38.5076407
  12.4253305  52.8677353  38.1463042  11.0768897  53.5131118  38.3852136
   5.7248326  59.8133802  30.1865840   6.6275572  59.8457412  30.5032335
   5.4985696  58.8834253  30.2012176   7.4801928  58.5664789  26.8475919
   6.5297559  58.5666650  26.7340291   7.7834414  57.8197523  26.3311953
   3.3706244  42.7723471  37.1059280   4.2337706  42.4160275  37.3162605
   2.7971655  42.4337365  37.7934685  23.2154621  64.4025327  27.9121681
  23.8533031  64.2832074  27.2085021  23.0975464  65.3506171  27.9709633
  20.0244327  64.3552755  27.8483206  19.6862839  64.2393820  26.9603741
  20.8934095  63.9543920  27.8284212  15.8831143  66.2088231  23.8380097
  15.3196008  66.1178168  23.0696385  15.7683538  65.3888136  24.3182589
  20.5064110  65.5087607  33.8069411  20.4952751  65.1140405  32.9349915
  20.6684750  64.7753679  34.4003183  13.4295575  67.7039423  26.6764317
  14.2216867  67.3630248  26.2610617  13.6692225  67.8134398  27.5966471
  21.4630702  69.8759199  19.1494562  20.8118681  70.4613280  18.7628576
  22.2575065  70.4065394  19.2089599  15.3886329  66.9648336  19.5481696
  16.1617205  66.4177323  19.4094572  15.7411728  67.8292586  19.7596158
  17.2271371  68.2924719  32.7548595  16.9361237  69.1970349  32.6395262
  17.8628356  68.3341246  33.4692665  18.1527578  65.6701567  29.3449955
  18.7491151  65.4457589  28.6306918  18.2102550  64.9286313  29.9475403
  22.7695889  62.1276781  24.9874889  23.5558979  61.7096204  24.6365306
  23.0334594  63.0322873  25.1556538  22.9405967  67.5649631  19.6863546
  22.3051800  67.6384258  20.3984451  22.6103373  68.1543230  19.0082625
  28.1704317  62.0652014  25.8907868  28.9029489  61.4951231  26.1245697
  27.4143672  61.6773614  26.3314373  17.4448895  65.0269108  19.3824521
  17.3285154  64.3514012  20.0505605  17.5551155  64.5401482  18.5656674
  19.7880436  64.4879255  23.0871210  19.4238644  63.9609876  23.7984132
  20.6447552  64.0977725  22.9137696  25.6929737  55.7773588  30.3502476
  25.3613062  56.6468999  30.1263691  25.0975350  55.4609872  31.0296507
  22.1861257  67.9786134  29.7498389  21.8861980  68.8811173  29.6414196
  21.8412316  67.7118317  30.6019542  15.6373738  64.4299931  25.7835094
  14.7124234  64.2976145  25.9912785  15.8858151  65.2094150  26.2805036
  25.5858400  60.4968674  27.4295826  24.6775278  60.4284083  27.1354587
  25.5345996  60.9740619  28.2577652  19.4075144  61.9726813  19.0679226
  19.2874769  62.4183863  19.9064706  18.7127733  62.3212130  18.5092764
  12.9982549  64.0733204  26.6178883  13.1274930  64.3267683  27.5318294
  12.3180000  64.6660912  26.2983538  17.1682036  74.7430454  22.7169357
  17.0906066  75.6938280  22.7957837  16.5643680  74.3976327  23.3744283
  19.6599266  61.9158320  35.3730724  18.8832600  62.4752240  35.3633588
  20.2989829  62.4015103  35.8945594  27.4520047  58.6985113  29.2073700
  26.8094427  58.9917646  28.5613495  26.9474975  58.5838033  30.0126897
  25.1060210  62.4448286  19.8959560  26.0178066  62.6775673  19.7207257
  24.5969857  63.0285330  19.3334638  17.9145638  64.7243773  34.9348691
  18.6560323  65.2628817  34.6583514  17.2082624  65.3510062  35.0920243
  23.3900978  66.8672914  33.5320852  23.7984334  66.4255324  32.7875485
  22.6678240  66.2925541  33.7855045  19.7432048  61.8045520  30.9054409
  20.5893243  62.2284934  31.0489058  19.6830686  61.1479145  31.5992972
  23.7129793  67.4274104  27.2873141  23.0838655  67.5919818  26.5849209
  23.3255455  67.8415714  28.0584105  27.5919025  68.3628542  24.6417505
  26.9070063  68.7427444  24.0914538  27.6762874  68.9723869  25.3749453
  22.8931493  59.4649889  32.5635583  22.6492425  60.2191949  32.0269859
  23.1691424  59.8435236  33.3982830  24.8469956  66.0088501  31.2412848
  25.0586851  66.6520261  30.5647229  24.7999704  65.1750818  30.7734778
  22.4496185  58.6206322  28.1449421  21.5880664  58.9187575  28.4366158
  22.4758620  58.8376721  27.2130453  19.2657755  67.1648512  24.5523226
  19.7296100  67.4436215  23.7627849  19.0014553  66.2631957  24.3696317
  16.1581836  66.7119994  27.4902989  16.7283193  67.1407262  26.8520474
  16.7489947  66.4302579  28.1887175  18.2026641  63.2871665  21.3612791
  18.9050684  63.7392708  21.8286718  17.8707269  62.6455484  21.9892684
  16.6507002  61.8783421  35.7364001  16.0205663  62.5599702  35.9699398
  16.5443090  61.7666503  34.7917139  11.9451975  61.5455217  26.6629925
  11.1551029  61.8012746  26.1870036  12.4363222  62.3603555  26.7681965
  25.9615784  68.8860457  29.4135206  26.7833228  68.4840644  29.1317887
  25.9578187  68.7828691  30.3651322  13.8966720  61.9099797  23.6213402
  13.0997883  62.0218491  24.1396897  13.6692312  62.2486449  22.7554292
  19.7272388  68.4344500  31.5695916  19.7916820  68.8964907  32.4054088
  19.0183311  67.8041865  31.6978226  10.2289678  61.7985708  29.0944916
  10.4797716  62.6832718  29.3602492  10.7649226  61.6190309  28.3220008
  34.0521777  65.2299205  25.7620177  33.2985486  64.6606603  25.6064182
  34.1869318  65.1961870  26.7090812  19.4420405  70.1012607  21.4374897
  19.3066080  70.9464143  21.8659744  19.9830218  70.3031885  20.6740830
  15.9287745  56.1804187  38.0989252  15.5354690  55.6270386  38.7736896
  16.7453885  56.4914766  38.4895769  12.8949803  67.6188045  22.0102822
  13.4074323  68.4131296  22.1608386  13.5472515  66.9214336  21.9436423
  14.7044687  70.7353802  24.0925575  14.8811316  71.6571766  23.9046559
  15.5001521  70.4212221  24.5219955  18.8455706  57.5962066  35.6909508
  19.5865419  58.1969219  35.6113971  19.0773629  56.8539704  35.1327551
  13.9897044  62.7818434  33.9687738  13.8750559  61.8803691  34.2694837
  13.1341562  63.0282130  33.6172555  21.0688882  70.7236174  35.5675239
  20.6252736  69.9372552  35.2496143  21.7306095  70.9115324  34.9019129
  15.8276003  72.2531975  30.0935917  16.3783428  72.1249039  29.3212911
  14.9887479  72.5526865  29.7430810  23.1670120  71.0038974  33.5956640
  23.1488595  71.8247855  33.1036909  24.0890040  70.8793049  33.8206781
  19.6243174  68.5183103  34.4380148  20.1571511  67.7571391  34.2079456
  19.0957255  68.2256755  35.1804303  22.7912869  53.6243169  29.9673790
  22.4477138  54.5144811  29.8912901  23.1591831  53.4344827  29.1043375
  10.8598719  65.9476700  22.7862392  11.6973941  66.3573708  22.5696100
  11.0376987  65.0076142  22.7562586  22.7563152  63.6151780  18.4746225
  22.2409775  64.3856385  18.7134613  22.4840460  62.9416917  19.0979287
  20.3410263  58.4601481  23.5331464  19.4851859  58.0708332  23.3537102
  20.7537214  58.5393442  22.6731249  21.8709409  55.9947824  27.9323023
  21.3674205  55.9577960  27.1190829  22.1640016  56.9040567  27.9919680
  18.1152295  56.0786554  26.9389205  18.9805292  55.8829363  26.5795094
  18.1829804  55.8496906  27.8658562  27.7297426  66.3684135  20.4099399
  26.9526868  66.0295295  19.9654561  28.4088907  66.3736758  19.7354364
  22.5449455  61.4878872  20.3006006  22.2399590  61.8025022  21.1516150
  23.4979897  61.5660292  20.3433339  20.9895887  67.6469096  21.9498960
  20.4617248  66.9121855  21.6372198  20.4883389  68.4243772  21.7038929
  25.9688733  65.8418116  27.0666007  25.3112407  66.5317378  27.1546135
  26.7729132  66.2314548  27.4099993  15.7214614  58.3088762  24.3105572
  16.2958366  58.0863944  23.5778765  16.3085597  58.3777457  25.0634173
  24.7794191  64.1962489  25.1169948  25.2926073  64.8292481  25.6191658
  25.4295415  63.5963684  24.7513308  18.0237282  55.1830011  23.0380641
  17.3701694  54.8679028  22.4137256  17.9817756  54.5605751  23.7640464
  22.0416566  74.1746813  17.8730620  21.3678264  74.4778510  18.4815577
  22.4282388  74.9775894  17.5236077  21.2575022  61.6711945  27.3628289
  20.3397584  61.8926892  27.2049977  21.6735166  61.7458255  26.5039996
  22.0410070  63.0703360  22.4930969  22.7881889  63.5824757  22.1838091
  22.3101660  62.7487413  23.3535363  20.3136720  65.5661901  19.4757923
  19.4047939  65.2820934  19.5730393  20.3431804  65.9860979  18.6161230
  25.5455988  69.1768490  23.2449091  25.0918315  68.3359400  23.3014281
  24.9149954  69.8129889  23.5823871  24.4888907  60.1060476  24.4749758
  23.7511664  59.5937863  24.8060001  24.7415681  59.6660858  23.6633035
  23.9888927  71.0144987  24.1798909  24.2811901  71.5750044  23.4611275
  24.4987547  71.3073548  24.9352068  24.5900534  52.8836728  25.0691528
  24.8959411  52.0234092  24.7817443  25.3153139  53.4754349  24.8690522
  10.8824891  63.2867415  23.4573126  10.6849290  62.6936776  22.7324192
  10.3271555  62.9819625  24.1749064  18.8621614  63.1790522  25.5767719
  18.9170224  62.2264358  25.5010195  18.0512816  63.3349961  26.0609017
  20.0112808  67.1070645  16.8146002  19.5732238  66.3906504  16.3551639
  20.7523249  67.3346759  16.2531093  16.8013974  61.7967581  23.3358098
  15.9881840  62.0961752  23.7423290  17.2972968  61.4023270  24.0532580
  18.9522552  71.7925338  25.2692362  18.9098731  72.0186185  24.3400894
  19.8685251  71.5588713  25.4178163  22.3988186  62.2609406  32.1672992
  22.7537574  62.4880879  33.0267457  23.0460317  62.5927783  31.5450247
  28.1285923  65.3827842  22.8722321  27.9903821  65.5729438  21.9443510
  27.7722142  66.1447224  23.3290372  16.2928049  59.3685937  28.9519333
  16.9327428  59.2274696  28.2542296  15.4605579  59.0820450  28.5757935
  28.1555302  67.4504369  27.8833592  28.5891809  67.3579658  28.7316646
  28.8686883  67.4261869  27.2453608  17.0688353  68.6688367  25.0654325
  17.8628951  68.1738687  24.8636900  16.3580045  68.1406230  24.7022031
  21.8883197  71.0506463  29.4166693  21.9420220  71.6197399  30.1844409
  21.0197979  71.2208348  29.0520730  13.3771116  62.8131449  21.1414078
  12.4468704  62.7515904  21.3584040  13.4728588  62.2907402  20.3450719
  13.2956665  59.3386262  23.7292319  13.5563483  60.2531595  23.6201480
  14.1173838  58.8710704  23.8788932  14.7681591  60.7524019  30.8991144
  15.4404644  60.5441381  30.2503793  13.9411377  60.5546105  30.4596376
  29.0170852  67.4928069  30.4166477  29.2106742  68.3973880  30.6625752
  28.9171470  67.0335488  31.2505063  20.6707163  57.3785960  32.9156805
  20.0235078  58.0775910  32.8221281  21.4408178  57.8122104  33.2833053
  24.0785961  67.6434812  35.9907358  23.9271467  67.4145364  35.0737442
  24.0690640  68.6005413  36.0038703  20.8471297  65.2166725  30.9753625
  21.7763357  65.3677884  30.8022592  20.4262327  65.3050746  30.1202271
  19.6459629  69.2417389  28.7452162  19.5070714  68.8736174  29.6178100
  18.8574225  69.7565029  28.5736120  20.2407781  74.3426486  20.0877699
  20.4159536  73.8714529  20.9023321  19.5540569  74.9692252  20.3158959
  21.1964844  68.6198992  26.1341000  20.8614677  68.5799762  27.0298650
  20.6968790  67.9543708  25.6611410  15.1709088  64.0266622  31.6593581
  15.0328886  63.2946861  32.2605120  16.0814011  63.9375522  31.3777769
  24.1324036  65.9655026  16.4078060  23.5153206  65.2401854  16.3111112
  23.6640524  66.7264387  16.0645134  17.7991389  63.7386581  31.1477261
  18.5091007  63.0979773  31.1063879  17.7560697  63.9899476  32.0703442
  25.7878167  70.6753935  34.0683840  25.7290713  69.9913155  33.4014423
  26.1897686  71.4172925  33.6164466  16.5120323  60.7251799  32.9672900
  15.9757680  60.2742538  33.6194497  15.9237031  60.8597708  32.2243365
  14.8068866  77.4915848  26.8617559  15.0465464  78.1234373  27.5396577
  13.9638063  77.1403888  27.1482918  25.7895575  68.6393519  32.2997820
  24.9022353  68.3019440  32.4224219  26.3594126  67.9076550  32.5366585
   7.4424722  64.9717610  25.6240871   8.1295761  64.6579340  25.0361886
   7.2872850  65.8758975  25.3508122  12.2459444  59.8607807  30.0525895
  12.1617632  59.2533476  29.3176305  11.4242150  60.3516825  30.0535391
  19.3196728  73.2994971  29.2659063  19.2466899  74.1049942  29.7778367
  18.8774121  73.4986937  28.4407084  19.1086508  72.5366741  22.7761884
  18.3254029  73.0788421  22.8700109  19.8079253  73.0540721  23.1756126
  22.4183158  58.3461370  25.4196090  22.9151857  57.5931333  25.0997160
  21.6470139  58.3825687  24.8539299  30.2712915  64.0501736  27.0614381
  30.2602791  64.9326451  26.6908314  29.4030294  63.6973287  26.8668918
  21.7795411  73.1981805  31.4217221  22.4923384  73.8329270  31.3493123
  21.2885440  73.2945671  30.6057223  23.5012938  67.1033058  22.9934513
  22.5669217  67.2234520  22.8239217  23.6789607  66.2005524  22.7294523
  19.0018126  60.4878753  25.1467774  18.6315914  59.9349794  25.8348680
  19.4977219  59.8836887  24.5942774  26.8885490  62.9450377  23.5284547
  27.3545942  63.7778368  23.4544850  27.3392990  62.4795358  24.2329806
  16.8307325  70.9476248  32.2422792  17.5316784  71.5812731  32.3952187
  16.3602440  71.2890980  31.4818432  24.9561721  69.2894198  20.5270699
  25.2321565  69.1750793  21.4364573  24.0866220  68.8911683  20.4882872
  24.8602152  55.3130964  27.5675449  23.9465232  55.5435191  27.7357656
  25.2895254  55.3969408  28.4189481  24.6308611  63.5020856  30.0675343
  23.9780061  63.7496763  29.4127795  25.0088991  62.6884994  29.7337820
  21.5915785  73.5380549  24.1703513  21.7738179  72.7202205  24.6331265
  22.4148771  73.7548241  23.7328403  21.9257950  72.4648734  21.4318561
  22.4545717  71.9541189  20.8188724  22.1886170  72.1491264  22.2964094
  20.6796184  64.2440667  36.5541380  20.0036821  64.1434796  37.2243755
  21.5023818  64.0879881  37.0177377  12.4275043  70.4812603  29.1753895
  13.0128480  69.7356291  29.3081799  12.2299881  70.7916560  30.0590559
  15.2813698  73.5163851  24.1916337  14.6124073  74.0009978  23.7080377
  15.1426568  73.7633071  25.1059716   7.0192698  63.0518204  27.8958338
   7.0576797  62.5181794  28.6895456   6.5132991  62.5253409  27.2769315
  19.4218967  75.5507594  30.7898996  19.9737275  75.7139216  31.5548081
  19.7625160  76.1412032  30.1179021  14.3983460  57.8982744  31.3920880
  14.4624787  58.7597575  30.9798278  14.3350580  57.2856746  30.6593239
  13.8735733  59.9705877  35.0393915  14.5007771  59.5882954  35.6531439
  13.0163651  59.7520079  35.4049607  24.2729841  70.3768852  36.6447650
  24.8169745  70.9898810  36.1502605  23.6916686  70.9348430  37.1614663
  22.5587354  73.4989570  27.7762678  22.4338494  72.6979310  27.2673623
  23.2166445  73.9935763  27.2876648  14.1795522  59.8538302  26.9539818
  13.4582108  60.4674270  26.8147291  14.9688778  60.3896067  26.8756464
  24.6222262  71.2998590  29.4042228  23.6752598  71.1803941  29.3320555
  24.9705036  70.4121088  29.4868489  16.9821836  57.1892729  33.2280470
  17.5056238  57.4355025  33.9906779  16.7634169  58.0212764  32.8083607
  21.6268696  71.0951306  25.6046580  21.4793658  70.1668014  25.7854150
  22.4522189  71.1171397  25.1203655  15.4930940  59.7469373  21.4627072
  15.8327013  60.2755294  20.7405681  15.9403061  60.0849779  22.2385639
  25.2302818  71.9179865  26.6911453  26.1549365  71.7122726  26.5535904
  25.0618121  71.6696266  27.6000794  18.1874381  58.1306424  30.9130140
  17.8471201  57.3314237  31.3150820  17.4813387  58.4308135  30.3406974
  18.8390853  55.2155736  29.3657463  19.6616922  54.7416215  29.2436354
  19.0828916  55.9946220  29.8656150  21.6230210  58.9489144  20.5978697
  21.8393824  59.8313782  20.2967526  21.1424277  58.5575357  19.8684339
  16.3629431  61.9074857  27.1749442  16.2174012  62.2215160  28.0673724
  15.8854635  62.5259757  26.6220341  18.2225814  58.8977405  27.2230332
  18.2087383  58.0018498  26.8862630  18.9398242  58.9048069  27.8568618
  20.0751945  59.3314745  29.2683459  19.8169723  60.2531816  29.2667789
  19.5436985  58.9345180  29.9583923  25.0198134  72.4365532  22.0473544
  25.1935011  71.8711955  21.2947397  25.5127025  73.2366427  21.8653034
  10.8375094  64.4480201  30.1137103  10.2928562  65.2240009  30.2457378
  11.7154443  64.7951006  29.9556225  17.6262710  57.7791785  22.4917902
  17.7478621  56.8508431  22.6908789  17.3364753  57.7930471  21.5796217
  20.4953901  55.4646696  25.6284622  20.5175597  55.5286029  24.6736601
  20.9121960  54.6251204  25.8225128  30.8737525  65.2001955  23.6663844
  31.3168671  64.4509280  23.2682967  29.9964035  65.1912092  23.2837576
  26.0073306  71.7532297  19.1470443  26.7024211  72.3738989  19.3657757
  26.3496456  70.9027648  19.4222821  11.6241115  63.5750098  33.0067260
  10.8822852  63.7232733  33.5931891  11.3033860  63.8358363  32.1434010
  27.9064729  69.2032002  20.6757773  28.4316054  69.5419275  19.9507093
  27.8187082  68.2679018  20.4920908  19.5684778  73.1166076  32.8047650
  19.8771905  72.8715223  33.6770350  20.3660260  73.3212714  32.3166520
  19.5905390  75.2703986  25.0353027  19.1510380  74.7780364  25.7285883
  20.3413507  74.7276953  24.7945102  12.0697729  71.4615526  25.0377655
  12.8955749  71.1619298  24.6576298  11.7191781  70.6923149  25.4867443
  17.0379262  70.8141995  27.1075328  16.4159272  70.1512700  26.8077556
  17.7084129  70.8403127  26.4248976  10.2706334  69.3801853  25.9966588
   9.4338243  68.9524027  25.8150590  10.2429980  69.5734296  26.9337380
  17.1103790  59.2923783  36.7007834  17.1591945  60.1685905  36.3185604
  17.6526304  58.7501176  36.1279478  27.5958636  69.8364906  35.9808971
  26.8054179  69.8189045  35.4413471  27.3591990  70.3753200  36.7358008
  27.7156511  66.6857372  33.2941700  27.7654515  66.5207380  34.2357223
  27.6070434  65.8184631  32.9039581  16.5992769  69.3645918  20.5833789
  16.7480890  70.0481382  19.9300462  17.4059213  69.3451008  21.0983245
  25.0060273  62.6688300  34.6101007  25.9070136  62.5294765  34.3185004
  25.0808247  62.8342755  35.5499184  19.3403078  60.0455155  33.4554193
  18.4706388  60.3388721  33.1836782  19.5762559  60.6295600  34.1761457
  29.2174707  69.1054314  33.5383722  28.9259516  69.4684294  34.3747182
  28.6046839  68.3921322  33.3597054  30.4170390  66.6707194  26.0586292
  31.2517281  67.1096998  26.2223852  30.5529518  66.1945847  25.2394538
  27.4661896  64.2286928  32.0063779  27.9416017  64.4214575  31.1982631
  26.5427461  64.2846114  31.7607163  14.3545402  65.3911096  21.5894858
  14.1091444  64.4873426  21.7875068  14.5241317  65.3928246  20.6474336
  22.0442112  56.2634772  30.9719613  22.5624056  56.9995799  30.6466102
  21.6897245  56.5698765  31.8066373  22.2954706  52.6835055  26.4920510
  22.5756460  52.0158244  27.1180937  23.0805313  52.8764150  25.9795174
  20.0988175  71.8594048  18.0545536  19.5262142  72.4784236  17.6016008
  20.6720968  72.4093410  18.5885458  26.1663565  61.1052689  30.2392085
  27.1180988  61.2050786  30.2604309  25.9967015  60.3130957  30.7490169
  24.1877944  58.1908272  30.4251486  23.5927876  58.4713284  29.7297975
  23.9027641  58.6802173  31.1968227  23.3185435  72.1431199  19.1854119
  24.2516108  72.0776760  19.3886994  23.2308647  72.9787465  18.7268651
  25.9473451  71.4597069  16.1458066  25.8687083  71.1256933  17.0393824
  26.7683118  71.9518837  16.1449538  28.6451642  64.3258808  29.3534385
  28.6127963  63.3874809  29.5394069  29.2552266  64.4042845  28.6200210
  28.7946131  61.1169852  29.3992668  28.2785180  60.3328308  29.2122597
  29.6786079  60.7888568  29.5639187  26.4556858  54.8610867  25.3588481
  26.2581679  54.5525955  26.2431813  27.0656563  55.5872506  25.4886410
  34.4628192  65.3874815  28.4940422  35.1931581  65.1260103  29.0548125
  33.8535138  64.6503537  28.5342490  32.5443489  63.5282678  29.0914873
  31.8176653  63.3938643  28.4831364  32.1290776  63.8359506  29.8971591
  20.3673666  67.2472607  36.8562246  21.2876675  67.4251206  37.0502292
  20.3323249  66.3028653  36.7041945   9.5855831  62.4411201  25.7815520
   9.2658615  61.5876509  25.4889894   9.0389259  62.6559779  26.5373488
  13.3635738  65.1573642  29.4985027  13.5821748  66.0890750  29.5173061
  13.7761512  64.7981616  30.2839831  20.2839956  55.6641727  21.4860715
  19.4740684  55.3188812  21.8615961  20.9724373  55.3549271  22.0748327
  22.2130504  54.7419774  23.1085012  22.7661543  55.1615228  23.7675035
  22.4500591  53.8155522  23.1507968  18.2363604  60.7306848  38.8887776
  18.1360331  61.6801205  38.8199867  18.0185146  60.4025087  38.0163846
   9.4544091  66.0614112  27.7508642   8.7607562  65.6468065  27.2378596
  10.2017082  66.1034649  27.1542061  25.5909312  56.8520299  22.6163676
  25.0107981  57.5105103  22.2341729  25.3245244  56.0297644  22.2051094
  24.0412878  56.2525357  24.8184997  24.5412656  56.3641891  24.0099315
  24.6848486  55.9486410  25.4585805  18.0994874  64.1603987  37.7052838
  17.6161955  64.9604347  37.9116727  18.1855813  64.1711931  36.7520282
  11.3680833  65.9932366  25.6274657  11.3451521  66.0920054  24.6756540
  11.6781470  66.8397517  25.9491823  14.0268211  68.0508521  29.7421271
  14.9811465  68.0192464  29.6751203  13.8280735  67.5899145  30.5571497
  14.6167593  66.6209637  32.3092069  15.4360482  67.1153716  32.3326906
  14.8904401  65.7041605  32.2809636  24.3734190  59.0120390  21.6720024
  23.4860045  59.2970040  21.4540219  24.7888179  58.8514153  20.8247301
  27.7248726  59.0366911  25.3874364  28.5009116  59.5263363  25.6598981
  26.9996860  59.4624965  25.8446233  30.1621284  59.7494530  26.4448304
  30.7565775  59.5090266  25.7341613  30.2347868  59.0301660  27.0721841
  12.3818440  73.5928141  26.7591469  12.2472908  72.8328542  26.1929467
  11.9650502  74.3169041  26.2920258  23.5177403  68.7765064  15.7668044
  24.2213253  68.9815067  16.3825700  22.7940052  69.3441826  16.0317128
  24.3475213  64.5274926  21.8870315  24.2910415  64.9843477  21.0477947
  24.9003556  63.7665610  21.7093157  28.1580019  60.3164657  22.7120434
  27.9016953  59.9161293  23.5428642  27.5332887  61.0308451  22.5870573
  32.4692357  63.0560731  25.2191726  31.9091915  63.1253920  25.9923288
  31.8635860  62.8801715  24.4991222  15.5387566  74.4897458  26.9709912
  15.4219950  75.4342890  26.8688602  14.7180012  74.1871019  27.3595711
  25.4264100  69.2147594  17.8166505  26.2609704  68.7828792  17.6343979
  25.2648443  69.0429607  18.7443399  25.0809993  65.7179707  19.1822844
  25.0258796  65.5523978  18.2411288  24.4556048  66.4255740  19.3385034
   9.8702508  60.9547771  33.0084266  10.5161371  60.4446725  33.4971491
   9.6619659  61.6916453  33.5827691  22.3955900  68.0228619  38.5076407
  23.2647059  68.1969271  38.1463042  21.9162651  68.8423036  38.3852136
  16.5642080  75.1425720  30.1865840  17.4669327  75.1749330  30.5032335
  16.3379450  74.2126171  30.2012176  18.3195682  73.8956706  26.8475919
  17.3691313  73.8958568  26.7340291  18.6228168  73.1489441  26.3311953
  22.2058238  51.8130592  23.0154099  21.4390633  51.2589079  23.1610781
  22.6168942  51.8852461  23.8768251  14.2099999  58.1015388  37.1059280
  15.0731460  57.7452193  37.3162605  13.6365409  57.7629283  37.7934685
  34.0548376  79.7317245  27.9121681  34.6926785  79.6123992  27.2085021
  33.9369218  80.6798089  27.9709633  30.8638082  79.6844673  27.8483206
  30.5256593  79.5685737  26.9603741  31.7327850  79.2835838  27.8284212
  26.7224897  81.5380149  23.8380097  26.1589763  81.4470086  23.0696385
  26.6077293  80.7180054  24.3182589  31.3457865  80.8379524  33.8069411
  31.3346506  80.4432323  32.9349915  31.5078504  80.1045597  34.4003183
  24.2689329  83.0331341  26.6764317  25.0610621  82.6922165  26.2610617
  24.5085980  83.1426316  27.5966471  32.3024456  85.2051117  19.1494562
  31.6512436  85.7905197  18.7628576  33.0968819  85.7357312  19.2089599
  26.2280083  82.2940254  19.5481696  27.0010959  81.7469241  19.4094572
  26.5805482  83.1584503  19.7596158  28.0665126  83.6216636  32.7548595
  27.7754992  84.5262267  32.6395262  28.7022110  83.6633164  33.4692665
  28.9921333  80.9993485  29.3449955  29.5884905  80.7749507  28.6306918
  29.0496304  80.2578230  29.9475403  28.5646361  78.4532920  17.1800146
  28.8171882  77.9314441  16.4183609  27.6270920  78.2899066  17.2826830
  33.6089644  77.4568698  24.9874889  34.3952733  77.0388122  24.6365306
  33.8728348  78.3614791  25.1556538  33.7799721  82.8941549  19.6863546
  33.1445554  82.9676175  20.3984451  33.4497128  83.4835148  19.0082625
  39.0098071  77.3943932  25.8907868  39.7423243  76.8243148  26.1245697
  38.2537427  77.0065532  26.3314373  28.2842650  80.3561026  19.3824521
  28.1678908  79.6805929  20.0505605  28.3944910  79.8693400  18.5656674
  30.6274191  79.8171173  23.0871210  30.2632398  79.2901794  23.7984132
  31.4841307  79.4269642  22.9137696  36.5323491  71.1065506  30.3502476
  36.2006816  71.9760917  30.1263691  35.9369105  70.7901790  31.0296507
  30.2679678  74.8461073  18.0832559  30.4354080  75.7141309  18.4503030
  30.0776847  75.0088355  17.1593848  33.0255011  83.3078052  29.7498389
  32.7255734  84.2103091  29.6414196  32.6806071  83.0410235  30.6019542
  26.4767492  79.7591849  25.7835094  25.5517989  79.6268063  25.9912785
  26.7251906  80.5386068  26.2805036  36.4252155  75.8260592  27.4295826
  35.5169032  75.7576000  27.1354587  36.3739751  76.3032537  28.2577652
  30.2468899  77.3018730  19.0679226  30.1268524  77.7475781  19.9064706
  29.5521487  77.6504048  18.5092764  23.8376304  79.4025122  26.6178883
  23.9668685  79.6559601  27.5318294  23.1573755  79.9952830  26.2983538
  28.0075791  90.0722372  22.7169357  27.9299820  91.0230197  22.7957837
  27.4037434  89.7268245  23.3744283  30.4993021  77.2450238  35.3730724
  29.7226355  77.8044158  35.3633588  31.1383584  77.7307021  35.8945594
  38.2913801  74.0277030  29.2073700  37.6488181  74.3209564  28.5613495
  37.7868730  73.9129951  30.0126897  35.9453965  77.7740204  19.8959560
  36.8571821  78.0067590  19.7207257  35.4363612  78.3577248  19.3334638
  28.7539393  80.0535691  34.9348691  29.4954077  80.5920735  34.6583514
  28.0476378  80.6801980  35.0920243  34.2294733  82.1964831  33.5320852
  34.6378089  81.7547242  32.7875485  33.5071994  81.6217459  33.7855045
  30.5825803  77.1337438  30.9054409  31.4286998  77.5576852  31.0489058
  30.5224440  76.4771062  31.5992972  34.5523547  82.7566022  27.2873141
  33.9232410  82.9211736  26.5849209  34.1649209  83.1707632  28.0584105
  38.4312779  83.6920460  24.6417505  37.7463817  84.0719361  24.0914538
  38.5156628  84.3015786  25.3749453  33.7325248  74.7941806  32.5635583
  33.4886180  75.5483867  32.0269859  34.0085178  75.1727154  33.3982830
  35.6863711  81.3380419  31.2412848  35.8980606  81.9812179  30.5647229
  35.6393459  80.5042735  30.7734778  33.2889940  73.9498240  28.1449421
  32.4274419  74.2479493  28.4366158  33.3152374  74.1668638  27.2130453
  30.1051509  82.4940430  24.5523226  30.5689855  82.7728133  23.7627849
  29.8408307  81.5923875  24.3696317  26.9975590  82.0411912  27.4902989
  27.5676947  82.4699180  26.8520474  27.5883702  81.7594496  28.1887175
  29.0420395  78.6163582  21.3612791  29.7444438  79.0684626  21.8286718
  28.7101024  77.9747401  21.9892684  27.4900757  77.2075339  35.7364001
  26.8599417  77.8891620  35.9699398  27.3836845  77.0958421  34.7917139
  22.7845729  76.8747135  26.6629925  21.9944783  77.1304664  26.1870036
  23.2756976  77.6895473  26.7681965  36.8009539  84.2152374  29.4135206
  37.6226982  83.8132562  29.1317887  36.7971941  84.1120608  30.3651322
  24.7360474  77.2391714  23.6213402  23.9391638  77.3510409  24.1396897
  24.5086067  77.5778367  22.7554292  30.5666142  83.7636418  31.5695916
  30.6310575  84.2256825  32.4054088  29.8577066  83.1333783  31.6978226
  21.0683432  77.1277626  29.0944916  21.3191470  78.0124635  29.3602492
  21.6042980  76.9482227  28.3220008  44.8915532  80.5591123  25.7620177
  44.1379240  79.9898521  25.6064182  45.0263073  80.5253787  26.7090812
  30.2814160  85.4304525  21.4374897  30.1459834  86.2756061  21.8659744
  30.8223972  85.6323803  20.6740830  26.7681499  71.5096105  38.0989252
  26.3748445  70.9562303  38.7736896  27.5847640  71.8206683  38.4895769
  23.7343557  82.9479963  22.0102822  24.2468078  83.7423213  22.1608386
  24.3866270  82.2506254  21.9436423  25.5438442  86.0645719  24.0925575
  25.7205070  86.9863684  23.9046559  26.3395275  85.7504139  24.5219955
  29.6849460  72.9253984  35.6909508  30.4259174  73.5261137  35.6113971
  29.9167383  72.1831622  35.1327551  24.8290798  78.1110351  33.9687738
  24.7144313  77.2095609  34.2694837  23.9735316  78.3574048  33.6172555
  31.9082636  86.0528092  35.5675239  31.4646490  85.2664470  35.2496143
  32.5699850  86.2407242  34.9019129  26.6669757  87.5823893  30.0935917
  27.2177182  87.4540957  29.3212911  25.8281233  87.8818782  29.7430810
  34.0063874  86.3330892  33.5956640  33.9882350  87.1539773  33.1036909
  34.9283794  86.2084967  33.8206781  30.4636928  83.8475021  34.4380148
  30.9965265  83.0863309  34.2079456  29.9351009  83.5548673  35.1804303
  33.6306623  68.9535087  29.9673790  33.2870893  69.8436729  29.8912901
  33.9985586  68.7636745  29.1043375  21.6992474  81.2768617  22.7862392
  22.5367696  81.6865626  22.5696100  21.8770742  80.3368060  22.7562586
  33.5956906  78.9443698  18.4746225  33.0803529  79.7148303  18.7134613
  33.3234214  78.2708834  19.0979287  31.1804017  73.7893399  23.5331464
  30.3245613  73.4000249  23.3537102  31.5930969  73.8685360  22.6731249
  32.7103164  71.3239742  27.9323023  32.2067959  71.2869877  27.1190829
  33.0033771  72.2332485  27.9919680  28.9546050  71.4078472  26.9389205
  29.8199046  71.2121281  26.5795094  29.0223558  71.1788824  27.8658562
  38.5691180  81.6976053  20.4099399  37.7920623  81.3587212  19.9654561
  39.2482661  81.7028676  19.7354364  33.3843209  76.8170790  20.3006006
  33.0793345  77.1316939  21.1516150  34.3373651  76.8952210  20.3433339
  31.8289641  82.9761013  21.9498960  31.3011003  82.2413773  21.6372198
  31.3277144  83.7535690  21.7038929  36.8082487  81.1710034  27.0666007
  36.1506161  81.8609295  27.1546135  37.6122886  81.5606466  27.4099993
  26.5608369  73.6380680  24.3105572  27.1352121  73.4155861  23.5778765
  27.1479351  73.7069374  25.0634173  35.6187946  79.5254407  25.1169948
  36.1319828  80.1584398  25.6191658  36.2689170  78.9255602  24.7513308
  26.8877956  75.6685141  18.3301457  26.0515268  76.0059827  18.6510732
  26.7482725  75.5334121  17.3928594  28.8631036  70.5121929  23.0380641
  28.2095449  70.1970946  22.4137256  28.8211510  69.8897669  23.7640464
  29.9742241  80.7941224  14.9533933  29.0669303  80.5630477  15.1525082
  30.4713273  79.9978843  15.1407915  32.8810320  89.5038731  17.8730620
  32.2072019  89.8070428  18.4815577  33.2676142  90.3067811  17.5236077
  32.0968777  77.0003862  27.3628289  31.1791338  77.2218809  27.2049977
  32.5128920  77.0750173  26.5039996  32.8803824  78.3995278  22.4930969
  33.6275643  78.9116675  22.1838091  33.1495414  78.0779331  23.3535363
  31.1530475  80.8953819  19.4757923  30.2441694  80.6112851  19.5730393
  31.1825558  81.3152897  18.6161230  36.3849742  84.5060408  23.2449091
  35.9312069  83.6651318  23.3014281  35.7543709  85.1421806  23.5823871
  35.3282662  75.4352394  24.4749758  34.5905418  74.9229780  24.8060001
  35.5809435  74.9952776  23.6633035  34.8282681  86.3436905  24.1798909
  35.1205656  86.9041962  23.4611275  35.3381302  86.6365466  24.9352068
  35.4294289  68.2128646  25.0691528  35.7353166  67.3526010  24.7817443
  36.1546894  68.8046266  24.8690522  21.7218645  78.6159333  23.4573126
  21.5243045  78.0228693  22.7324192  21.1665309  78.3111543  24.1749064
  29.7015369  78.5082439  25.5767719  29.7563978  77.5556276  25.5010195
  28.8906571  78.6641878  26.0609017  30.8506562  82.4362562  16.8146002
  30.4125992  81.7198421  16.3551639  31.5917003  82.6638677  16.2531093
  27.6407729  77.1259499  23.3358098  26.8275594  77.4253670  23.7423290
  28.1366723  76.7315188  24.0532580  29.7916306  87.1217256  25.2692362
  29.7492485  87.3478102  24.3400894  30.7079005  86.8880630  25.4178163
  33.2381940  77.5901323  32.1672992  33.5931328  77.8172797  33.0267457
  33.8854072  77.9219700  31.5450247  38.9679677  80.7119759  22.8722321
  38.8297576  80.9021355  21.9443510  38.6115896  81.4739142  23.3290372
  27.1321803  74.6977854  28.9519333  27.7721183  74.5566614  28.2542296
  26.2999334  74.4112368  28.5757935  38.9949057  82.7796286  27.8833592
  39.4285563  82.6871575  28.7316646  39.7080638  82.7553787  27.2453608
  27.9082107  83.9980285  25.0654325  28.7022706  83.5030605  24.8636900
  27.1973800  83.4698148  24.7022031  32.7276952  86.3798380  29.4166693
  32.7813974  86.9489317  30.1844409  31.8591733  86.5500265  29.0520730
  24.2164871  78.1423367  21.1414078  23.2862459  78.0807822  21.3584040
  24.3122343  77.6199319  20.3450719  24.1350420  74.6678179  23.7292319
  24.3957237  75.5823513  23.6201480  24.9567592  74.2002622  23.8788932
  25.6075345  76.0815937  30.8991144  26.2798399  75.8733299  30.2503793
  24.7805132  75.8838023  30.4596376  39.8564606  82.8219987  30.4166477
  40.0500496  83.7265797  30.6625752  39.7565225  82.3627406  31.2505063
  31.5100917  72.7077878  32.9156805  30.8628832  73.4067827  32.8221281
  32.2801933  73.1414021  33.2833053  34.9179715  82.9726730  35.9907358
  34.7665221  82.7437281  35.0737442  34.9084395  83.9297331  36.0038703
  31.6865051  80.5458642  30.9753625  32.6157111  80.6969802  30.8022592
  31.2656081  80.6342663  30.1202271  30.4853383  84.5709307  28.7452162
  30.3464469  84.2028091  29.6178100  29.6967979  85.0856946  28.5736120
  31.0801535  89.6718403  20.0877699  31.2553291  89.2006447  20.9023321
  30.3934323  90.2984170  20.3158959  32.0358598  83.9490910  26.1341000
  31.7008431  83.9091680  27.0298650  31.5362544  83.2835625  25.6611410
  26.0102842  79.3558540  31.6593581  25.8722640  78.6238778  32.2605120
  26.9207766  79.2667440  31.3777769  34.9717790  81.2946944  16.4078060
  34.3546961  80.5693772  16.3111112  34.5034279  82.0556304  16.0645134
  28.6385143  79.0678499  31.1477261  29.3484762  78.4271691  31.1063879
  28.5954451  79.3191394  32.0703442  36.6271922  86.0045852  34.0683840
  36.5684468  85.3205072  33.4014423  37.0291440  86.7464842  33.6164466
  27.3514077  76.0543717  32.9672900  26.8151434  75.6034455  33.6194497
  26.7630785  76.1889626  32.2243365  25.6462621  92.8207766  26.8617559
  25.8859219  93.4526290  27.5396577  24.8031817  92.4695806  27.1482918
  26.7616336  75.5132368  15.5299364  25.8845802  75.3921169  15.1661611
  27.2374089  74.7218447  15.2778253  36.6289329  83.9685436  32.2997820
  35.7416108  83.6311358  32.4224219  37.1987880  83.2368467  32.5366585
  18.2818476  80.3009528  25.6240871  18.9689516  79.9871258  25.0361886
  18.1266605  81.2050893  25.3508122  23.0853198  75.1899725  30.0525895
  23.0011387  74.5825394  29.3176305  22.2635905  75.6808743  30.0535391
  30.1590482  88.6286889  29.2659063  30.0860654  89.4341860  29.7778367
  29.7167875  88.8278854  28.4407084  29.9480262  87.8658659  22.7761884
  29.1647784  88.4080339  22.8700109  30.6473007  88.3832638  23.1756126
  33.2576912  73.6753288  25.4196090  33.7545612  72.9223250  25.0997160
  32.4863894  73.7117605  24.8539299  41.1106670  79.3793654  27.0614381
  41.0996546  80.2618369  26.6908314  40.2424049  79.0265204  26.8668918
  32.6189166  88.5273723  31.4217221  33.3317138  89.1621187  31.3493123
  32.1279195  88.6237589  30.6057223  34.3406693  82.4324975  22.9934513
  33.4062972  82.5526438  22.8239217  34.5183361  81.5297442  22.7294523
  29.8411881  75.8170671  25.1467774  29.4709668  75.2641711  25.8348680
  30.3370973  75.2128805  24.5942774  37.7279244  78.2742295  23.5284547
  38.1939696  79.1070286  23.4544850  38.1786745  77.8087276  24.2329806
  27.6701079  86.2768166  32.2422792  28.3710539  86.9104649  32.3952187
  27.1996194  86.6182898  31.4818432  35.7955475  84.6186116  20.5270699
  36.0715319  84.5042710  21.4364573  34.9259974  84.2203601  20.4882872
  35.6995907  70.6422882  27.5675449  34.7858987  70.8727108  27.7357656
  36.1289008  70.7261326  28.4189481  35.4702365  78.8312774  30.0675343
  34.8173816  79.0788681  29.4127795  35.8482745  78.0176912  29.7337820
  32.4309539  88.8672467  24.1703513  32.6131934  88.0494123  24.6331265
  33.2542525  89.0840159  23.7328403  32.7651705  87.7940652  21.4318561
  33.2939471  87.2833106  20.8188724  33.0279924  87.4783182  22.2964094
  31.5189938  79.5732585  36.5541380  30.8430575  79.4726714  37.2243755
  32.3417572  79.4171798  37.0177377  23.2668797  85.8104521  29.1753895
  23.8522234  85.0648209  29.3081799  23.0693636  86.1208478  30.0590559
  26.1207453  88.8455768  24.1916337  25.4517828  89.3301896  23.7080377
  25.9820322  89.0924989  25.1059716  17.8586452  78.3810121  27.8958338
  17.8970552  77.8473712  28.6895456  17.3526745  77.8545327  27.2769315
  30.2612721  90.8799512  30.7898996  30.8131029  91.0431134  31.5548081
  30.6018915  91.4703950  30.1179021  25.2377215  73.2274662  31.3920880
  25.3018541  74.0889493  30.9798278  25.1744335  72.6148663  30.6593239
  24.7129487  75.2997794  35.0393915  25.3401526  74.9174872  35.6531439
  23.8557406  75.0811996  35.4049607  35.1123596  85.7060770  36.6447650
  35.6563500  86.3190728  36.1502605  34.5310440  86.2640348  37.1614663
  21.4895030  77.1074223  20.9712270  21.7848471  76.1984902  20.9179323
  20.5883066  77.0861963  20.6493272  33.3981109  88.8281488  27.7762678
  33.2732248  88.0271227  27.2673623  34.0560200  89.3227681  27.2876648
  25.0189277  75.1830220  26.9539818  24.2975863  75.7966188  26.8147291
  25.8082533  75.7187985  26.8756464  35.4616017  86.6290508  29.4042228
  34.5146352  86.5095859  29.3320555  35.8098790  85.7413006  29.4868489
  27.8215590  72.5184647  33.2280470  28.3449992  72.7646943  33.9906779
  27.6027924  73.3504681  32.8083607  23.2182871  74.7888321  21.0951595
  22.8895578  73.9085700  20.9126701  23.5722242  74.7335990  21.9827984
  32.4662450  86.4243224  25.6046580  32.3187413  85.4959931  25.7854150
  33.2915944  86.4463315  25.1203655  26.3324695  75.0761291  21.4627072
  26.6720767  75.6047212  20.7405681  26.7796815  75.4141697  22.2385639
  36.0696572  87.2471783  26.6911453  36.9943120  87.0414644  26.5535904
  35.9011875  86.9988184  27.6000794  29.0268135  73.4598342  30.9130140
  28.6864956  72.6606155  31.3150820  28.3207142  73.7600052  30.3406974
  29.6784607  70.5447654  29.3657463  30.5010677  70.0708132  29.2436354
  29.9222671  71.3238138  29.8656150  28.3192842  73.5735913  19.6620365
  29.0401204  73.9517165  19.1584082  27.6958146  74.2924789  19.7655343
  32.4623965  74.2781061  20.5978697  32.6787579  75.1605699  20.2967526
  31.9818032  73.8867275  19.8684339  27.2023186  77.2366775  27.1749442
  27.0567767  77.5507078  28.0673724  26.7248390  77.8551675  26.6220341
  29.0619569  74.2269323  27.2230332  29.0481138  73.3310416  26.8862630
  29.7791997  74.2339986  27.8568618  30.9145700  74.6606663  29.2683459
  30.6563477  75.5823734  29.2667789  30.3830740  74.2637097  29.9583923
  35.8591888  87.7657450  22.0473544  36.0328766  87.2003873  21.2947397
  36.3520780  88.5658345  21.8653034  21.6768848  79.7772119  30.1137103
  21.1322316  80.5531927  30.2457378  22.5548198  80.1242924  29.9556225
  28.4656465  73.1083703  22.4917902  28.5872376  72.1800349  22.6908789
  28.1758507  73.1222389  21.5796217  31.3347655  70.7938613  25.6284622
  31.3569352  70.8577946  24.6736601  31.7515714  69.9543122  25.8225128
  41.7131279  80.5293873  23.6663844  42.1562426  79.7801198  23.2682967
  40.8357790  80.5204009  23.2837576  36.8467061  87.0824214  19.1470443
  37.5417965  87.7030907  19.3657757  37.1890211  86.2319566  19.4222821
  22.4634870  78.9042015  33.0067260  21.7216606  79.0524651  33.5931891
  22.1427614  79.1650281  32.1434010  38.7458484  84.5323920  20.6757773
  39.2709808  84.8711193  19.9507093  38.6580836  83.5970935  20.4920908
  30.4078533  88.4457994  32.8047650  30.7165659  88.2007140  33.6770350
  31.2054015  88.6504632  32.3166520  30.4299145  90.5995903  25.0353027
  29.9904135  90.1072282  25.7285883  31.1807262  90.0568871  24.7945102
  22.9091484  86.7907444  25.0377655  23.7349504  86.4911216  24.6576298
  22.5585536  86.0215067  25.4867443  27.8773017  86.1433912  27.1075328
  27.2553026  85.4804617  26.8077556  28.5477884  86.1695044  26.4248976
  21.1100089  84.7093771  25.9966588  20.2731997  84.2815945  25.8150590
  21.0823734  84.9026214  26.9337380  27.9497544  74.6215700  36.7007834
  27.9985700  75.4977823  36.3185604  28.4920059  74.0793093  36.1279478
  38.4352390  85.1656824  35.9808971  37.6447934  85.1480962  35.4413471
  38.1985745  85.7045117  36.7358008  38.5550265  82.0149290  33.2941700
  38.6048270  81.8499297  34.2357223  38.4464188  81.1476549  32.9039581
  27.4386524  84.6937836  20.5833789  27.5874644  85.3773300  19.9300462
  28.2452967  84.6742926  21.0983245  35.8454027  77.9980218  34.6101007
  36.7463890  77.8586683  34.3185004  35.9202002  78.1634673  35.5499184
  30.1796833  75.3747073  33.4554193  29.3100142  75.6680639  33.1836782
  30.4156313  75.9587518  34.1761457  40.0568462  84.4346231  33.5383722
  39.7653270  84.7976212  34.3747182  39.4440593  83.7213240  33.3597054
  41.2564144  81.9999111  26.0586292  42.0911036  82.4388915  26.2223852
  41.3923273  81.5237764  25.2394538  38.3055650  79.5578846  32.0063779
  38.7809772  79.7506492  31.1982631  37.3821215  79.6138032  31.7607163
  25.1939157  80.7203013  21.5894858  24.9485199  79.8165343  21.7875068
  25.3635071  80.7220164  20.6474336  32.8835867  71.5926690  30.9719613
  33.4017810  72.3287717  30.6466102  32.5290999  71.8990683  31.8066373
  24.4634804  76.4531371  19.0881019  23.7704049  76.5275726  18.4321055
  24.2186556  75.6891715  19.6102536  33.1348461  68.0126972  26.4920510
  33.4150215  67.3450161  27.1180937  33.9199068  68.2056068  25.9795174
  30.9381929  87.1885966  18.0545536  30.3655896  87.8076153  17.6016008
  31.5114723  87.7385328  18.5885458  37.0057319  76.4344606  30.2392085
  37.9574742  76.5342704  30.2604309  36.8360770  75.6422875  30.7490169
  35.0271699  73.5200189  30.4251486  34.4321631  73.8005202  29.7297975
  34.7421395  74.0094090  31.1968227  34.1579189  87.4723116  19.1854119
  35.0909862  87.4068678  19.3886994  34.0702402  88.3079383  18.7268651
  36.7867206  86.7888987  16.1458066  36.7080837  86.4548850  17.0393824
  37.6076873  87.2810754  16.1449538  39.4845397  79.6550726  29.3534385
  39.4521717  78.7166727  29.5394069  40.0946021  79.7334763  28.6200210
  31.3228728  78.5246779  15.3961589  32.2687832  78.3952987  15.4650007
  30.9442973  77.7861441  15.8731017  39.6339885  76.4461769  29.3992668
  39.1178934  75.6620226  29.2122597  40.5179834  76.1180486  29.5639187
  37.2950612  70.1902785  25.3588481  37.0975433  69.8817873  26.2431813
  37.9050318  70.9164424  25.4886410  45.3021947  80.7166733  28.4940422
  46.0325335  80.4552021  29.0548125  44.6928892  79.9795455  28.5342490
  43.3837244  78.8574595  29.0914873  42.6570407  78.7230560  28.4831364
  42.9684531  79.1651424  29.8971591  31.2067420  82.5764525  36.8562246
  32.1270430  82.7543124  37.0502292  31.1717003  81.6320570  36.7041945
  29.5071645  76.4496755  15.3316474  28.6003100  76.1529868  15.4079188
  29.7847626  76.1526573  14.4650760  20.4249585  77.7703119  25.7815520
  20.1052370  76.9168427  25.4889894  19.8783013  77.9851697  26.5373488
  24.2029493  80.4865560  29.4985027  24.4215503  81.4182667  29.5173061
  24.6155267  80.1273534  30.2839831  31.1233711  70.9933645  21.4860715
  30.3134439  70.6480730  21.8615961  31.8118128  70.6841189  22.0748327
  33.0524259  70.0711692  23.1085012  33.6055298  70.4907145  23.7675035
  33.2894345  69.1447440  23.1507968  29.0757358  76.0598765  38.8887776
  28.9754085  77.0093122  38.8199867  28.8578900  75.7317004  38.0163846
  28.2770430  73.3083690  15.4728453  29.1389594  73.6338589  15.7324271
  28.4620774  72.5215186  14.9601519  20.2937845  81.3906030  27.7508642
  19.6001317  80.9759983  27.2378596  21.0410836  81.4326567  27.1542061
  36.4303066  72.1812217  22.6163676  35.8501735  72.8397021  22.2341729
  36.1638999  71.3589562  22.2051094  34.8806632  71.5817275  24.8184997
  35.3806411  71.6933809  24.0099315  35.5242240  71.2778327  25.4585805
  28.9388628  79.4895904  37.7052838  28.4555710  80.2896264  37.9116727
  29.0249567  79.5003849  36.7520282  22.2074588  81.3224284  25.6274657
  22.1845276  81.4211971  24.6756540  22.5175224  82.1689435  25.9491823
  24.8661966  83.3800439  29.7421271  25.8205219  83.3484381  29.6751203
  24.6674489  82.9191063  30.5571497  25.4561348  81.9501555  32.3092069
  26.2754237  82.4445634  32.3326906  25.7298156  81.0333523  32.2809636
  35.2127944  74.3412307  21.6720024  34.3253799  74.6261958  21.4540219
  35.6281933  74.1806071  20.8247301  38.5642480  74.3658828  25.3874364
  39.3402870  74.8555281  25.6598981  37.8390614  74.7916882  25.8446233
  41.0015039  75.0786448  26.4448304  41.5959530  74.8382183  25.7341613
  41.0741622  74.3593578  27.0721841  23.2212194  88.9220058  26.7591469
  23.0866662  88.1620459  26.1929467  22.8044257  89.6460958  26.2920258
  34.3571157  84.1056982  15.7668044  35.0607008  84.3106984  16.3825700
  33.6333806  84.6733744  16.0317128  35.1868968  79.8566843  21.8870315
  35.1304169  80.3135395  21.0477947  35.7397310  79.0957528  21.7093157
  38.9973774  75.6456575  22.7120434  38.7410708  75.2453211  23.5428642
  38.3726642  76.3600369  22.5870573  43.3086112  78.3852648  25.2191726
  42.7485670  78.4545838  25.9923288  42.7029615  78.2093633  24.4991222
  26.3781320  89.8189375  26.9709912  26.2613705  90.7634808  26.8688602
  25.5573767  89.5162937  27.3595711  36.2657855  84.5439511  17.8166505
  37.1003459  84.1120710  17.6343979  36.1042198  84.3721525  18.7443399
  35.9203747  81.0471624  19.1822844  35.8652551  80.8815896  18.2411288
  35.2949802  81.7547657  19.3385034  20.7096262  76.2839689  33.0084266
  21.3555126  75.7738643  33.4971491  20.5013413  77.0208371  33.5827691
  33.2349654  83.3520536  38.5076407  34.1040814  83.5261189  38.1463042
  32.7556406  84.1714953  38.3852136  29.2299873  70.5479733  18.7608162
  29.2178542  71.4921573  18.9176433  30.1223294  70.3649879  18.4667623
  27.4035834  90.4717637  30.1865840  28.3063081  90.5041248  30.5032335
  27.1773205  89.5418088  30.2012176  29.1589437  89.2248624  26.8475919
  28.2085068  89.2250486  26.7340291  29.4621923  88.4781358  26.3311953
  33.0451992  67.1422510  23.0154099  32.2784388  66.5880997  23.1610781
  33.4562697  67.2144379  23.8768251  25.0493753  73.4307306  37.1059280
  25.9125215  73.0744111  37.3162605  24.4759164  73.0921201  37.7934685
  44.8942130  95.0609162  27.9121681  45.5320540  94.9415910  27.2085021
  44.7762973  96.0090006  27.9709633  41.7031836  95.0136590  27.8483206
  41.3650348  94.8977655  26.9603741  42.5721604  94.6127755  27.8284212
  37.5618652  96.8672067  23.8380097  36.9983517  96.7762004  23.0696385
  37.4471047  96.0471971  24.3182589  42.1851619  96.1671442  33.8069411
  42.1740260  95.7724240  32.9349915  42.3472259  95.4337515  34.4003183
  35.1083084  98.3623258  26.6764317  35.9004376  98.0214083  26.2610617
  35.3479734  98.4718233  27.5966471  43.1418211 100.5343035  19.1494562
  42.4906190 101.1197115  18.7628576  43.9362573 101.0649229  19.2089599
  37.0673838  97.6232172  19.5481696  37.8404714  97.0761159  19.4094572
  37.4199237  98.4876421  19.7596158  38.9058880  98.9508554  32.7548595
  38.6148746  99.8554185  32.6395262  39.5415865  98.9925082  33.4692665
  39.8315087  96.3285402  29.3449955  40.4278660  96.1041425  28.6306918
  39.8890059  95.5870148  29.9475403  39.4040116  93.7824838  17.1800146
  39.6565636  93.2606359  16.4183609  38.4664675  93.6190983  17.2826830
  44.4483398  92.7860616  24.9874889  45.2346488  92.3680039  24.6365306
  44.7122103  93.6906708  25.1556538  44.6193476  98.2233466  19.6863546
  43.9839309  98.2968093  20.3984451  44.2890882  98.8127065  19.0082625
  49.8491826  92.7235849  25.8907868  50.5816998  92.1535066  26.1245697
  49.0931181  92.3357450  26.3314373  39.1236404  95.6852944  19.3824521
  39.0072662  95.0097847  20.0505605  39.2338664  95.1985318  18.5656674
  41.4667945  95.1463091  23.0871210  41.1026153  94.6193712  23.7984132
  42.3235061  94.7561560  22.9137696  47.3717246  86.4357423  30.3502476
  47.0400571  87.3052834  30.1263691  46.7762859  86.1193707  31.0296507
  41.1073432  90.1752991  18.0832559  41.2747835  91.0433227  18.4503030
  40.9170601  90.3380272  17.1593848  43.8648765  98.6369969  29.7498389
  43.5649489  99.5395008  29.6414196  43.5199825  98.3702153  30.6019542
  37.3161247  95.0883766  25.7835094  36.3911743  94.9559980  25.9912785
  37.5645660  95.8677986  26.2805036  47.2645909  91.1552510  27.4295826
  46.3562787  91.0867918  27.1354587  47.2133505  91.6324455  28.2577652
  41.0862653  92.6310648  19.0679226  40.9662278  93.0767699  19.9064706
  40.3915242  92.9795966  18.5092764  34.6770058  94.7317040  26.6178883
  34.8062439  94.9851519  27.5318294  33.9967509  95.3244748  26.2983538
  38.8469545 105.4014290  22.7169357  38.7693575 106.3522115  22.7957837
  38.2431189 105.0560162  23.3744283  41.3386775  92.5742155  35.3730724
  40.5620109  93.1336075  35.3633588  41.9777338  93.0598938  35.8945594
  49.1307556  89.3568948  29.2073700  48.4881936  89.6501481  28.5613495
  48.6262484  89.2421868  30.0126897  46.7847719  93.1032121  19.8959560
  47.6965575  93.3359508  19.7207257  46.2757366  93.6869165  19.3334638
  39.5933147  95.3827609  34.9348691  40.3347832  95.9212653  34.6583514
  38.8870133  96.0093897  35.0920243  45.0688487  97.5256749  33.5320852
  45.4771843  97.0839160  32.7875485  44.3465749  96.9509377  33.7855045
  41.4219557  92.4629356  30.9054409  42.2680752  92.8868769  31.0489058
  41.3618195  91.8062980  31.5992972  45.3917302  98.0857940  27.2873141
  44.7626164  98.2503654  26.5849209  45.0042964  98.4999549  28.0584105
  49.2706534  99.0212378  24.6417505  48.5857572  99.4011279  24.0914538
  49.3550383  99.6307704  25.3749453  44.5719002  90.1233724  32.5635583
  44.3279934  90.8775785  32.0269859  44.8478933  90.5019072  33.3982830
  46.5257465  96.6672337  31.2412848  46.7374360  97.3104096  30.5647229
  46.4787213  95.8334653  30.7734778  44.1283694  89.2790157  28.1449421
  43.2668173  89.5771411  28.4366158  44.1546129  89.4960556  27.2130453
  40.9445264  97.8232348  24.5523226  41.4083609  98.1020051  23.7627849
  40.6802062  96.9215792  24.3696317  37.8369345  97.3703829  27.4902989
  38.4070702  97.7991098  26.8520474  38.4277456  97.0886414  28.1887175
  39.8814150  93.9455500  21.3612791  40.5838193  94.3976544  21.8286718
  39.5494778  93.3039319  21.9892684  38.3294511  92.5367257  35.7364001
  37.6993172  93.2183538  35.9699398  38.2230599  92.4250338  34.7917139
  33.6239484  92.2039053  26.6629925  32.8338538  92.4596581  26.1870036
  34.1150731  93.0187391  26.7681965  47.6403293  99.5444292  29.4135206
  48.4620737  99.1424479  29.1317887  47.6365696  99.4412526  30.3651322
  35.5754229  92.5683632  23.6213402  34.7785392  92.6802326  24.1396897
  35.3479821  92.9070284  22.7554292  41.4059897  99.0928335  31.5695916
  41.4704329  99.5548742  32.4054088  40.6970820  98.4625700  31.6978226
  31.9077187  92.4569543  29.0944916  32.1585225  93.3416553  29.3602492
  32.4436735  92.2774145  28.3220008  55.7309286  95.8883040  25.7620177
  54.9772995  95.3190439  25.6064182  55.8656827  95.8545705  26.7090812
  41.1207914 100.7596443  21.4374897  40.9853589 101.6047978  21.8659744
  41.6617727 100.9615720  20.6740830  37.6075254  86.8388023  38.0989252
  37.2142199  86.2854221  38.7736896  38.4241394  87.1498601  38.4895769
  34.5737312  98.2771881  22.0102822  35.0861832  99.0715131  22.1608386
  35.2260024  97.5798171  21.9436423  36.3832196 101.3937637  24.0925575
  36.5598825 102.3155602  23.9046559  37.1789030 101.0796056  24.5219955
  40.5243215  88.2545902  35.6909508  41.2652928  88.8553055  35.6113971
  40.7561138  87.5123539  35.1327551  35.6684553  93.4402269  33.9687738
  35.5538068  92.5387526  34.2694837  34.8129071  93.6865966  33.6172555
  42.7476391 101.3820009  35.5675239  42.3040245 100.5956388  35.2496143
  43.4093604 101.5699160  34.9019129  37.5063512 102.9115811  30.0935917
  38.0570937 102.7832874  29.3212911  36.6674988 103.2110700  29.7430810
  44.8457629 101.6622809  33.5956640  44.8276104 102.4831690  33.1036909
  45.7677549 101.5376884  33.8206781  41.3030683  99.1766939  34.4380148
  41.8359020  98.4155227  34.2079456  40.7744764  98.8840590  35.1804303
  44.4700378  84.2827005  29.9673790  44.1264647  85.1728646  29.8912901
  44.8379340  84.0928662  29.1043375  32.5386228  96.6060535  22.7862392
  33.3761450  97.0157543  22.5696100  32.7164496  95.6659977  22.7562586
  44.4350660  94.2735616  18.4746225  43.9197284  95.0440220  18.7134613
  44.1627969  93.6000752  19.0979287  42.0197772  89.1185317  23.5331464
  41.1639368  88.7292167  23.3537102  42.4324723  89.1977277  22.6731249
  43.5496918  86.6531660  27.9323023  43.0461714  86.6161795  27.1190829
  43.8427525  87.5624403  27.9919680  39.7939804  86.7370390  26.9389205
  40.6592801  86.5413198  26.5795094  39.8617313  86.5080741  27.8658562
  49.4084935  97.0267970  20.4099399  48.6314377  96.6879130  19.9654561
  50.0876416  97.0320594  19.7354364  44.2236964  92.1462708  20.3006006
  43.9187099  92.4608857  21.1516150  45.1767406  92.2244128  20.3433339
  42.6683396  98.3052931  21.9498960  42.1404757  97.5705691  21.6372198
  42.1670898  99.0827607  21.7038929  47.6476242  96.5001952  27.0666007
  46.9899916  97.1901213  27.1546135  48.4516641  96.8898384  27.4099993
  37.4002123  88.9672597  24.3105572  37.9745875  88.7447779  23.5778765
  37.9873106  89.0361292  25.0634173  46.4581700  94.8546324  25.1169948
  46.9713582  95.4876316  25.6191658  47.1082924  94.2547520  24.7513308
  37.7271710  90.9977058  18.3301457  36.8909022  91.3351745  18.6510732
  37.5876480  90.8626038  17.3928594  39.7024791  85.8413846  23.0380641
  39.0489203  85.5262864  22.4137256  39.6605265  85.2189587  23.7640464
  40.8135996  96.1233141  14.9533933  39.9063057  95.8922395  15.1525082
  41.3107028  95.3270761  15.1407915  43.7204075 104.8330649  17.8730620
  43.0465773 105.1362345  18.4815577  44.1069897 105.6359729  17.5236077
  42.9362531  92.3295780  27.3628289  42.0185093  92.5510727  27.2049977
  43.3522675  92.4042090  26.5039996  43.7197579  93.7287196  22.4930969
  44.4669398  94.2408593  22.1838091  43.9889169  93.4071248  23.3535363
  41.9924229  96.2245736  19.4757923  41.0835448  95.9404769  19.5730393
  42.0219313  96.6444815  18.6161230  47.2243497  99.8352326  23.2449091
  46.7705824  98.9943236  23.3014281  46.5937463 100.4713724  23.5823871
  46.1676416  90.7644312  24.4749758  45.4299173  90.2521698  24.8060001
  46.4203190  90.3244693  23.6633035  45.6676436 101.6728822  24.1798909
  45.9599410 102.2333880  23.4611275  46.1775056 101.9657383  24.9352068
  46.2688043  83.5420564  25.0691528  46.5746920  82.6817927  24.7817443
  46.9940648  84.1338184  24.8690522  32.5612400  93.9451250  23.4573126
  32.3636799  93.3520611  22.7324192  32.0059064  93.6403461  24.1749064
  40.5409123  93.8374357  25.5767719  40.5957733  92.8848193  25.5010195
  39.7300325  93.9933796  26.0609017  41.6900317  97.7654480  16.8146002
  41.2519747  97.0490339  16.3551639  42.4310758  97.9930595  16.2531093
  38.4801483  92.4551417  23.3358098  37.6669349  92.7545587  23.7423290
  38.9760477  92.0607105  24.0532580  40.6310061 102.4509174  25.2692362
  40.5886240 102.6770020  24.3400894  41.5472760 102.2172548  25.4178163
  44.0775695  92.9193241  32.1672992  44.4325082  93.1464714  33.0267457
  44.7247826  93.2511618  31.5450247  49.8073432  96.0411677  22.8722321
  49.6691330  96.2313273  21.9443510  49.4509651  96.8031060  23.3290372
  37.9715558  90.0269772  28.9519333  38.6114937  89.8858531  28.2542296
  37.1393088  89.7404286  28.5757935  49.8342811  98.1088204  27.8833592
  50.2679318  98.0163493  28.7316646  50.5474392  98.0845704  27.2453608
  38.7475862  99.3272203  25.0654325  39.5416460  98.8322523  24.8636900
  38.0367554  98.7990066  24.7022031  43.5670706 101.7090298  29.4166693
  43.6207729 102.2781234  30.1844409  42.6985488 101.8792183  29.0520730
  35.0558625  93.4715284  21.1414078  34.1256213  93.4099740  21.3584040
  35.1516097  92.9491237  20.3450719  34.9744174  89.9970097  23.7292319
  35.2350992  90.9115430  23.6201480  35.7961347  89.5294540  23.8788932
  36.4469100  91.4107854  30.8991144  37.1192153  91.2025216  30.2503793
  35.6198886  91.2129940  30.4596376  50.6958361  98.1511905  30.4166477
  50.8894251  99.0557715  30.6625752  50.5958979  97.6919324  31.2505063
  42.3494672  88.0369795  32.9156805  41.7022587  88.7359745  32.8221281
  43.1195687  88.4705939  33.2833053  45.7573470  98.3018647  35.9907358
  45.6058976  98.0729199  35.0737442  45.7478149  99.2589249  36.0038703
  42.5258806  95.8750560  30.9753625  43.4550866  96.0261720  30.8022592
  42.1049836  95.9634581  30.1202271  41.3247138  99.9001225  28.7452162
  41.1858223  99.5320009  29.6178100  40.5361734 100.4148864  28.5736120
  41.9195290 105.0010321  20.0877699  42.0947045 104.5298364  20.9023321
  41.2328078 105.6276087  20.3158959  42.8752353  99.2782827  26.1341000
  42.5402186  99.2383597  27.0298650  42.3756299  98.6127543  25.6611410
  36.8496597  94.6850457  31.6593581  36.7116395  93.9530696  32.2605120
  37.7601520  94.5959357  31.3777769  45.8111545  96.6238862  16.4078060
  45.1940715  95.8985690  16.3111112  45.3428033  97.3848222  16.0645134
  39.4778898  94.3970417  31.1477261  40.1878516  93.7563609  31.1063879
  39.4348206  94.6483311  32.0703442  47.4665676 101.3337770  34.0683840
  47.4078222 100.6496990  33.4014423  47.8685195 102.0756760  33.6164466
  38.1907832  91.3835634  32.9672900  37.6545189  90.9326373  33.6194497
  37.6024540  91.5181543  32.2243365  36.4856375 108.1499684  26.8617559
  36.7252973 108.7818208  27.5396577  35.6425571 107.7987724  27.1482918
  37.6010090  90.8424286  15.5299364  36.7239557  90.7213087  15.1661611
  38.0767844  90.0510364  15.2778253  47.4683083  99.2977354  32.2997820
  46.5809862  98.9603276  32.4224219  48.0381635  98.5660385  32.5366585
  29.1212231  95.6301446  25.6240871  29.8083270  95.3163176  25.0361886
  28.9660359  96.5342810  25.3508122  33.9246953  90.5191642  30.0525895
  33.8405141  89.9117312  29.3176305  33.1029659  91.0100661  30.0535391
  40.9984237 103.9578806  29.2659063  40.9254408 104.7633778  29.7778367
  40.5561630 104.1570772  28.4407084  40.7874016 103.1950576  22.7761884
  40.0041538 103.7372256  22.8700109  41.4866762 103.7124556  23.1756126
  44.0970667  89.0045206  25.4196090  44.5939366  88.2515168  25.0997160
  43.3257648  89.0409522  24.8539299  51.9500424  94.7085571  27.0614381
  51.9390300  95.5910287  26.6908314  51.0817803  94.3557122  26.8668918
  43.4582920 103.8565640  31.4217221  44.1710893 104.4913105  31.3493123
  42.9672949 103.9529506  30.6057223  45.1800447  97.7616893  22.9934513
  44.2456726  97.8818355  22.8239217  45.3577116  96.8589360  22.7294523
  40.6805635  91.1462589  25.1467774  40.3103423  90.5933629  25.8348680
  41.1764728  90.5420722  24.5942774  48.5672999  93.6034212  23.5284547
  49.0333451  94.4362204  23.4544850  49.0180499  93.1379194  24.2329806
  38.5094834 101.6060084  32.2422792  39.2104293 102.2396567  32.3952187
  38.0389949 101.9474815  31.4818432  46.6349230  99.9478034  20.5270699
  46.9109074  99.8334628  21.4364573  45.7653728  99.5495518  20.4882872
  46.5389661  85.9714799  27.5675449  45.6252741  86.2019026  27.7357656
  46.9682763  86.0553243  28.4189481  46.3096120  94.1604691  30.0675343
  45.6567570  94.4080599  29.4127795  46.6876500  93.3468829  29.7337820
  43.2703294 104.1964384  24.1703513  43.4525688 103.3786040  24.6331265
  44.0936280 104.4132077  23.7328403  43.6045459 103.1232569  21.4318561
  44.1333226 102.6125024  20.8188724  43.8673679 102.8075100  22.2964094
  42.3583693  94.9024502  36.5541380  41.6824330  94.8018632  37.2243755
  43.1811327  94.7463716  37.0177377  34.1062552 101.1396439  29.1753895
  34.6915989 100.3940127  29.3081799  33.9087390 101.4500395  30.0590559
  36.9601207 104.1747686  24.1916337  36.2911582 104.6593814  23.7080377
  36.8214077 104.4216907  25.1059716  28.6980207  93.7102039  27.8958338
  28.7364306  93.1765630  28.6895456  28.1920500  93.1837244  27.2769315
  41.1006476 106.2091430  30.7898996  41.6524784 106.3723051  31.5548081
  41.4412669 106.7995868  30.1179021  36.0770969  88.5566579  31.3920880
  36.1412296  89.4181410  30.9798278  36.0138089  87.9440581  30.6593239
  35.5523242  90.6289712  35.0393915  36.1795280  90.2466789  35.6531439
  34.6951160  90.4103914  35.4049607  45.9517350 101.0352687  36.6447650
  46.4957254 101.6482645  36.1502605  45.3704195 101.5932266  37.1614663
  32.3288784  92.4366141  20.9712270  32.6242225  91.5276820  20.9179323
  31.4276820  92.4153881  20.6493272  44.2374863 104.1573405  27.7762678
  44.1126003 103.3563145  27.2673623  44.8953954 104.6519599  27.2876648
  35.8583031  90.5122138  26.9539818  35.1369617  91.1258105  26.8147291
  36.6476287  91.0479903  26.8756464  46.3009771 101.9582425  29.4042228
  45.3540107 101.8387776  29.3320555  46.6492545 101.0704923  29.4868489
  38.6609345  87.8476564  33.2280470  39.1843747  88.0938861  33.9906779
  38.4421678  88.6796599  32.8083607  34.0576626  90.1180239  21.0951595
  33.7289332  89.2377618  20.9126701  34.4115997  90.0627907  21.9827984
  43.3056205 101.7535142  25.6046580  43.1581167 100.8251849  25.7854150
  44.1309698 101.7755232  25.1203655  37.1718449  90.4053209  21.4627072
  37.5114522  90.9339130  20.7405681  37.6190570  90.7433615  22.2385639
  46.9090327 102.5763700  26.6911453  47.8336874 102.3706562  26.5535904
  46.7405630 102.3280101  27.6000794  39.8661890  88.7890259  30.9130140
  39.5258710  87.9898072  31.3150820  39.1600896  89.0891970  30.3406974
  40.5178362  85.8739572  29.3657463  41.3404431  85.4000050  29.2436354
  40.7616425  86.6530056  29.8656150  39.1586596  88.9027830  19.6620365
  39.8794959  89.2809083  19.1584082  38.5351900  89.6216707  19.7655343
  43.3017719  89.6072979  20.5978697  43.5181333  90.4897617  20.2967526
  42.8211786  89.2159193  19.8684339  38.0416940  92.5658692  27.1749442
  37.8961521  92.8798995  28.0673724  37.5642144  93.1843593  26.6220341
  39.9013323  89.5561240  27.2230332  39.8874892  88.6602334  26.8862630
  40.6185751  89.5631904  27.8568618  41.7539454  89.9898581  29.2683459
  41.4957232  90.9115651  29.2667789  41.2224494  89.5929015  29.9583923
  46.6985643 103.0949368  22.0473544  46.8722520 102.5295790  21.2947397
  47.1914534 103.8950263  21.8653034  32.5162603  95.1064037  30.1137103
  31.9716071  95.8823845  30.2457378  33.3941952  95.4534841  29.9556225
  39.3050219  88.4375621  22.4917902  39.4266130  87.5092267  22.6908789
  39.0152262  88.4514307  21.5796217  42.1741410  86.1230531  25.6284622
  42.1963106  86.1869864  24.6736601  42.5909469  85.2835040  25.8225128
  52.5525034  95.8585791  23.6663844  52.9956180  95.1093116  23.2682967
  51.6751544  95.8495927  23.2837576  47.6860815 102.4116132  19.1470443
  48.3811720 103.0322825  19.3657757  48.0283965 101.5611483  19.4222821
  33.3028624  94.2333933  33.0067260  32.5610361  94.3816568  33.5931891
  32.9821369  94.4942199  32.1434010  49.5852238  99.8615838  20.6757773
  50.1103563 100.2003110  19.9507093  49.4974591  98.9262853  20.4920908
  41.2472287 103.7749911  32.8047650  41.5559414 103.5299058  33.6770350
  42.0447769 103.9796550  32.3166520  41.2692899 105.9287821  25.0353027
  40.8297889 105.4364200  25.7285883  42.0201016 105.3860789  24.7945102
  33.7485238 102.1199362  25.0377655  34.5743258 101.8203134  24.6576298
  33.3979290 101.3506984  25.4867443  38.7166771 101.4725830  27.1075328
  38.0946781 100.8096535  26.8077556  39.3871638 101.4986962  26.4248976
  31.9493843 100.0385688  25.9966588  31.1125752  99.6107863  25.8150590
  31.9217489 100.2318132  26.9337380  38.7891299  89.9507618  36.7007834
  38.8379454  90.8269741  36.3185604  39.3313813  89.4085011  36.1279478
  49.2746144 100.4948741  35.9808971  48.4841688 100.4772880  35.4413471
  49.0379499 101.0337035  36.7358008  49.3944020  97.3441208  33.2941700
  49.4442024  97.1791215  34.2357223  49.2857943  96.4768467  32.9039581
  38.2780278 100.0229753  20.5833789  38.4268399 100.7065218  19.9300462
  39.0846722 100.0034843  21.0983245  46.6847782  93.3272136  34.6101007
  47.5857645  93.1878601  34.3185004  46.7595756  93.4926591  35.5499184
  41.0190587  90.7038990  33.4554193  40.1493897  90.9972556  33.1836782
  41.2550068  91.2879435  34.1761457  50.8962216  99.7638149  33.5383722
  50.6047025 100.1268130  34.3747182  50.2834348  99.0505157  33.3597054
  52.0957899  97.3291029  26.0586292  52.9304790  97.7680833  26.2223852
  52.2317027  96.8529682  25.2394538  49.1449405  94.8870764  32.0063779
  49.6203526  95.0798410  31.1982631  48.2214970  94.9429950  31.7607163
  36.0332911  96.0494931  21.5894858  35.7878953  95.1457261  21.7875068
  36.2028826  96.0512081  20.6474336  43.7229621  86.9218607  30.9719613
  44.2411565  87.6579634  30.6466102  43.3684754  87.2282601  31.8066373
  35.3028559  91.7823289  19.0881019  34.6097804  91.8567644  18.4321055
  35.0580311  91.0183632  19.6102536  43.9742215  83.3418890  26.4920510
  44.2543969  82.6742079  27.1180937  44.7592822  83.5347985  25.9795174
  41.7775684 102.5177884  18.0545536  41.2049651 103.1368071  17.6016008
  42.3508477 103.0677245  18.5885458  47.8451074  91.7636524  30.2392085
  48.7968496  91.8634622  30.2604309  47.6754524  90.9714792  30.7490169
  45.8665453  88.8492107  30.4251486  45.2715385  89.1297120  29.7297975
  45.5815150  89.3386008  31.1968227  44.9972944 102.8015034  19.1854119
  45.9303617 102.7360596  19.3886994  44.9096156 103.6371301  18.7268651
  47.6260960 102.1180904  16.1458066  47.5474592 101.7840768  17.0393824
  48.4470627 102.6102672  16.1449538  50.3239151  94.9842644  29.3534385
  50.2915471  94.0458644  29.5394069  50.9339775  95.0626680  28.6200210
  42.1622482  93.8538697  15.3961589  43.1081587  93.7244905  15.4650007
  41.7836727  93.1153358  15.8731017  50.4733640  91.7753687  29.3992668
  49.9572689  90.9912144  29.2122597  51.3573588  91.4472404  29.5639187
  48.1344367  85.5194703  25.3588481  47.9369188  85.2109791  26.2431813
  48.7444072  86.2456341  25.4886410  56.1415701  96.0458650  28.4940422
  56.8719090  95.7843939  29.0548125  55.5322647  95.3087372  28.5342490
  54.2230998  94.1866513  29.0914873  53.4964162  94.0522478  28.4831364
  53.8078285  94.4943342  29.8971591  42.0461175  97.9056443  36.8562246
  42.9664184  98.0835042  37.0502292  42.0110758  96.9612488  36.7041945
  40.3465399  91.7788673  15.3316474  39.4396855  91.4821786  15.4079188
  40.6241380  91.4818491  14.4650760  31.2643340  93.0995036  25.7815520
  30.9446124  92.2460345  25.4889894  30.7176768  93.3143614  26.5373488
  35.0423247  95.8157477  29.4985027  35.2609257  96.7474585  29.5173061
  35.4549021  95.4565452  30.2839831  41.9627465  86.3225563  21.4860715
  41.1528193  85.9772648  21.8615961  42.6511882  86.0133106  22.0748327
  43.8918013  85.4003609  23.1085012  44.4449052  85.8199063  23.7675035
  44.1288100  84.4739358  23.1507968  39.9151113  91.3890683  38.8887776
  39.8147840  92.3385040  38.8199867  39.6972655  91.0608922  38.0163846
  39.1164184  88.6375608  15.4728453  39.9783348  88.9630506  15.7324271
  39.3014528  87.8507104  14.9601519  31.1331600  96.7197948  27.7508642
  30.4395071  96.3051901  27.2378596  31.8804591  96.7618484  27.1542061
  47.2696820  87.5104135  22.6163676  46.6895490  88.1688939  22.2341729
  47.0032753  86.6881479  22.2051094  45.7200387  86.9109192  24.8184997
  46.2200165  87.0225727  24.0099315  46.3635995  86.6070245  25.4585805
  39.7782383  94.8187822  37.7052838  39.2949464  95.6188182  37.9116727
  39.8643322  94.8295767  36.7520282  33.0468342  96.6516202  25.6274657
  33.0239030  96.7503889  24.6756540  33.3568979  97.4981352  25.9491823
  35.7055720  98.7092357  29.7421271  36.6598974  98.6776299  29.6751203
  35.5068244  98.2482980  30.5571497  36.2955102  97.2793473  32.3092069
  37.1147991  97.7737551  32.3326906  36.5691910  96.3625441  32.2809636
  46.0521699  89.6704225  21.6720024  45.1647554  89.9553876  21.4540219
  46.4675688  89.5097988  20.8247301  49.4036235  89.6950746  25.3874364
  50.1796625  90.1847198  25.6598981  48.6784369  90.1208800  25.8446233
  51.8408793  90.4078365  26.4448304  52.4353284  90.1674101  25.7341613
  51.9135377  89.6885496  27.0721841  34.0605949 104.2511976  26.7591469
  33.9260417 103.4912377  26.1929467  33.6438011 104.9752876  26.2920258
  45.1964912  99.4348900  15.7668044  45.9000762  99.6398902  16.3825700
  44.4727561 100.0025662  16.0317128  46.0262722  95.1858761  21.8870315
  45.9697924  95.6427312  21.0477947  46.5791065  94.4249446  21.7093157
  49.8367528  90.9748493  22.7120434  49.5804462  90.5745128  23.5428642
  49.2120396  91.6892287  22.5870573  54.1479866  93.7144566  25.2191726
  53.5879424  93.7837755  25.9923288  53.5423369  93.5385551  24.4991222
  37.2175075 105.1481293  26.9709912  37.1007459 106.0926726  26.8688602
  36.3967521 104.8454855  27.3595711  47.1051609  99.8731429  17.8166505
  47.9397213  99.4412627  17.6343979  46.9435952  99.7013443  18.7443399
  46.7597502  96.3763542  19.1822844  46.7046305  96.2107814  18.2411288
  46.1343557  97.0839575  19.3385034  31.5490017  91.6131607  33.0084266
  32.1948880  91.1030561  33.4971491  31.3407168  92.3500288  33.5827691
  44.0743409  98.6812454  38.5076407  44.9434568  98.8553106  38.1463042
  43.5950160  99.5006871  38.3852136  40.0693627  85.8771651  18.7608162
  40.0572297  86.8213491  18.9176433  40.9617049  85.6941797  18.4667623
  38.2429589 105.8009555  30.1865840  39.1456836 105.8333165  30.5032335
  38.0166959 104.8710006  30.2012176  39.9983191 104.5540542  26.8475919
  39.0478822 104.5542403  26.7340291  40.3015677 103.8073276  26.3311953
  43.8845746  82.4714428  23.0154099  43.1178142  81.9172915  23.1610781
  44.2956451  82.5436297  23.8768251  35.8887508  88.7599224  37.1059280
  36.7518969  88.4036028  37.3162605  35.3152918  88.4213118  37.7934685
  55.7335884 110.3901080  27.9121681  56.3714294 110.2707827  27.2085021
  55.6156727 111.3381924  27.9709633  52.5425591 110.3428508  27.8483206
  52.2044102 110.2269573  26.9603741  53.4115359 109.9419673  27.8284212
  48.4012406 112.1963984  23.8380097  47.8377272 112.1053921  23.0696385
  48.2864802 111.3763889  24.3182589  53.0245374 111.4963360  33.8069411
  53.0134015 111.1016158  32.9349915  53.1866013 110.7629432  34.4003183
  45.9476838 113.6915176  26.6764317  46.7398130 113.3506001  26.2610617
  46.1873489 113.8010151  27.5966471  53.9811965 115.8634952  19.1494562
  53.3299945 116.4489033  18.7628576  54.7756328 116.3941147  19.2089599
  47.9067592 112.9524089  19.5481696  48.6798468 112.4053076  19.4094572
  48.2592991 113.8168339  19.7596158  49.7452635 114.2800472  32.7548595
  49.4542501 115.1846102  32.6395262  50.3809619 114.3216999  33.4692665
  50.6708842 111.6577320  29.3449955  51.2672414 111.4333343  28.6306918
  50.7283813 110.9162066  29.9475403  50.2433870 109.1116755  17.1800146
  50.4959391 108.5898277  16.4183609  49.3058429 108.9482901  17.2826830
  55.2877153 108.1152534  24.9874889  56.0740242 107.6971957  24.6365306
  55.5515857 109.0198626  25.1556538  55.4587230 113.5525384  19.6863546
  54.8233063 113.6260011  20.3984451  55.1284637 114.1418983  19.0082625
  60.6885580 108.0527767  25.8907868  61.4210752 107.4826984  26.1245697
  59.9324936 107.6649367  26.3314373  49.9630159 111.0144861  19.3824521
  49.8466417 110.3389765  20.0505605  50.0732419 110.5277235  18.5656674
  52.3061700 110.4755009  23.0871210  51.9419907 109.9485629  23.7984132
  53.1628816 110.0853478  22.9137696  58.2111000 101.7649341  30.3502476
  57.8794325 102.6344752  30.1263691  57.6156614 101.4485625  31.0296507
  51.9467187 105.5044908  18.0832559  52.1141589 106.3725145  18.4503030
  51.7564356 105.6672190  17.1593848  54.7042520 113.9661887  29.7498389
  54.4043243 114.8686926  29.6414196  54.3593579 113.6994070  30.6019542
  48.1555001 110.4175684  25.7835094  47.2305498 110.2851898  25.9912785
  48.4039415 111.1969903  26.2805036  58.1039664 106.4844427  27.4295826
  57.1956541 106.4159836  27.1354587  58.0527260 106.9616372  28.2577652
  51.9256408 107.9602566  19.0679226  51.8056033 108.4059616  19.9064706
  51.2308996 108.3087883  18.5092764  45.5163812 110.0608958  26.6178883
  45.6456194 110.3143436  27.5318294  44.8361264 110.6536666  26.2983538
  49.6863300 120.7306207  22.7169357  49.6087329 121.6814033  22.7957837
  49.0824943 120.3852080  23.3744283  52.1780530 107.9034073  35.3730724
  51.4013864 108.4627993  35.3633588  52.8171093 108.3890856  35.8945594
  59.9701310 104.6860866  29.2073700  59.3275690 104.9793399  28.5613495
  59.4656239 104.5713786  30.0126897  57.6241474 108.4324039  19.8959560
  58.5359330 108.6651426  19.7207257  57.1151121 109.0161083  19.3334638
  50.4326902 110.7119526  34.9348691  51.1741586 111.2504570  34.6583514
  49.7263887 111.3385815  35.0920243  55.9082241 112.8548667  33.5320852
  56.3165598 112.4131077  32.7875485  55.1859503 112.2801294  33.7855045
  52.2613312 107.7921273  30.9054409  53.1074507 108.2160687  31.0489058
  52.2011949 107.1354898  31.5992972  56.2311056 113.4149857  27.2873141
  55.6019919 113.5795571  26.5849209  55.8436718 113.8291467  28.0584105
  60.1100288 114.3504295  24.6417505  59.4251326 114.7303197  24.0914538
  60.1944137 114.9599622  25.3749453  55.4112757 105.4525642  32.5635583
  55.1673689 106.2067702  32.0269859  55.6872687 105.8310989  33.3982830
  57.3651220 111.9964254  31.2412848  57.5768115 112.6396014  30.5647229
  57.3180968 111.1626571  30.7734778  54.9677449 104.6082075  28.1449421
  54.1061928 104.9063328  28.4366158  54.9939883 104.8252474  27.2130453
  51.7839018 113.1524265  24.5523226  52.2477364 113.4311968  23.7627849
  51.5195816 112.2507710  24.3696317  48.6763099 112.6995747  27.4902989
  49.2464456 113.1283015  26.8520474  49.2671211 112.4178332  28.1887175
  50.7207904 109.2747418  21.3612791  51.4231947 109.7268461  21.8286718
  50.3888533 108.6331237  21.9892684  49.1688266 107.8659174  35.7364001
  48.5386926 108.5475455  35.9699398  49.0624353 107.7542256  34.7917139
  44.4633238 107.5330970  26.6629925  43.6732292 107.7888499  26.1870036
  44.9544485 108.3479308  26.7681965  58.4797048 114.8736210  29.4135206
  59.3014491 114.4716397  29.1317887  58.4759450 114.7704444  30.3651322
  46.4147983 107.8975550  23.6213402  45.6179147 108.0094244  24.1396897
  46.1873576 108.2362202  22.7554292  52.2453651 114.4220253  31.5695916
  52.3098084 114.8840660  32.4054088  51.5364575 113.7917618  31.6978226
  42.7470941 107.7861461  29.0944916  42.9978979 108.6708471  29.3602492
  43.2830489 107.6066062  28.3220008  66.5703041 111.2174958  25.7620177
  65.8166749 110.6482356  25.6064182  66.7050582 111.1837623  26.7090812
  51.9601669 116.0888360  21.4374897  51.8247343 116.9339896  21.8659744
  52.5011481 116.2907638  20.6740830  48.4469008 102.1679940  38.0989252
  48.0535954 101.6146139  38.7736896  49.2635149 102.4790519  38.4895769
  45.4131066 113.6063798  22.0102822  45.9255587 114.4007049  22.1608386
  46.0653779 112.9090089  21.9436423  47.2225951 116.7229555  24.0925575
  47.3992579 117.6447519  23.9046559  48.0182784 116.4087974  24.5219955
  51.3636969 103.5837819  35.6909508  52.1046683 104.1844972  35.6113971
  51.5954892 102.8415457  35.1327551  46.5078307 108.7694187  33.9687738
  46.3931822 107.8679444  34.2694837  45.6522825 109.0157883  33.6172555
  53.5870145 116.7111927  35.5675239  53.1433999 115.9248305  35.2496143
  54.2487359 116.8991077  34.9019129  48.3457266 118.2407729  30.0935917
  48.8964691 118.1124792  29.3212911  47.5068742 118.5402618  29.7430810
  55.6851383 116.9914727  33.5956640  55.6669858 117.8123608  33.1036909
  56.6071303 116.8668802  33.8206781  52.1424437 114.5058856  34.4380148
  52.6752774 113.7447145  34.2079456  51.6138518 114.2132508  35.1804303
  55.3094132  99.6118922  29.9673790  54.9658402 100.5020564  29.8912901
  55.6773095  99.4220580  29.1043375  43.3779983 111.9352453  22.7862392
  44.2155205 112.3449461  22.5696100  43.5558251 110.9951895  22.7562586
  55.2744415 109.6027533  18.4746225  54.7591038 110.3732138  18.7134613
  55.0021723 108.9292670  19.0979287  52.8591526 104.4477234  23.5331464
  52.0033122 104.0584085  23.3537102  53.2718478 104.5269195  22.6731249
  54.3890673 101.9823577  27.9323023  53.8855468 101.9453713  27.1190829
  54.6821280 102.8916320  27.9919680  50.6333559 102.0662307  26.9389205
  51.4986555 101.8705116  26.5795094  50.7011067 101.8372659  27.8658562
  60.2478689 112.3559888  20.4099399  59.4708132 112.0171048  19.9654561
  60.9270170 112.3612511  19.7354364  55.0630718 107.4754626  20.3006006
  54.7580854 107.7900775  21.1516150  56.0161160 107.5536045  20.3433339
  53.5077150 113.6344849  21.9498960  52.9798512 112.8997608  21.6372198
  53.0064653 114.4119525  21.7038929  58.4869996 111.8293869  27.0666007
  57.8293670 112.5193131  27.1546135  59.2910395 112.2190301  27.4099993
  48.2395878 104.2964515  24.3105572  48.8139630 104.0739697  23.5778765
  48.8266860 104.3653210  25.0634173  57.2975455 110.1838242  25.1169948
  57.8107337 110.8168234  25.6191658  57.9476679 109.5839438  24.7513308
  48.5665465 106.3268976  18.3301457  47.7302777 106.6643663  18.6510732
  48.4270234 106.1917956  17.3928594  50.5418545 101.1705764  23.0380641
  49.8882958 100.8554781  22.4137256  50.4999019 100.5481504  23.7640464
  51.6529750 111.4525059  14.9533933  50.7456812 111.2214313  15.1525082
  52.1500782 110.6562678  15.1407915  54.5597829 120.1622566  17.8730620
  53.8859528 120.4654263  18.4815577  54.9463651 120.9651647  17.5236077
  53.7756286 107.6587698  27.3628289  52.8578847 107.8802645  27.2049977
  54.1916429 107.7334008  26.5039996  54.5591333 109.0579113  22.4930969
  55.3063152 109.5700510  22.1838091  54.8282923 108.7363166  23.3535363
  52.8317984 111.5537654  19.4757923  51.9229203 111.2696687  19.5730393
  52.8613067 111.9736733  18.6161230  58.0637251 115.1644243  23.2449091
  57.6099578 114.3235153  23.3014281  57.4331218 115.8005642  23.5823871
  57.0070171 106.0936229  24.4749758  56.2692927 105.5813616  24.8060001
  57.2596944 105.6536611  23.6633035  56.5070190 117.0020740  24.1798909
  56.7993165 117.5625797  23.4611275  57.0168811 117.2949301  24.9352068
  57.1081798  98.8712481  25.0691528  57.4140675  98.0109845  24.7817443
  57.8334403  99.4630102  24.8690522  43.4006154 109.2743168  23.4573126
  43.2030554 108.6812529  22.7324192  42.8452818 108.9695378  24.1749064
  51.3802878 109.1666275  25.5767719  51.4351487 108.2140111  25.5010195
  50.5694080 109.3225714  26.0609017  52.5294071 113.0946398  16.8146002
  52.0913501 112.3782257  16.3551639  53.2704512 113.3222512  16.2531093
  49.3195238 107.7843334  23.3358098  48.5063103 108.0837505  23.7423290
  49.8154232 107.3899023  24.0532580  51.4703815 117.7801091  25.2692362
  51.4279994 118.0061938  24.3400894  52.3866514 117.5464466  25.4178163
  54.9169449 108.2485159  32.1672992  55.2718837 108.4756632  33.0267457
  55.5641580 108.5803536  31.5450247  60.6467186 111.3703595  22.8722321
  60.5085085 111.5605191  21.9443510  60.2903405 112.1322977  23.3290372
  48.8109312 105.3561690  28.9519333  49.4508692 105.2150449  28.2542296
  47.9786843 105.0696203  28.5757935  60.6736566 113.4380122  27.8833592
  61.1073072 113.3455411  28.7316646  61.3868147 113.4137622  27.2453608
  49.5869616 114.6564120  25.0654325  50.3810215 114.1614440  24.8636900
  48.8761309 114.1281983  24.7022031  54.4064461 117.0382216  29.4166693
  54.4601483 117.6073152  30.1844409  53.5379242 117.2084101  29.0520730
  45.8952380 108.8007202  21.1414078  44.9649968 108.7391657  21.3584040
  45.9909852 108.2783155  20.3450719  45.8137929 105.3262015  23.7292319
  46.0744746 106.2407348  23.6201480  46.6355101 104.8586457  23.8788932
  47.2862854 106.7399772  30.8991144  47.9585908 106.5317134  30.2503793
  46.4592641 106.5421858  30.4596376  61.5352115 113.4803822  30.4166477
  61.7288005 114.3849633  30.6625752  61.4352734 113.0211241  31.2505063
  53.1888426 103.3661713  32.9156805  52.5416341 104.0651663  32.8221281
  53.9589442 103.7997857  33.2833053  56.5967224 113.6310565  35.9907358
  56.4452730 113.4021117  35.0737442  56.5871904 114.5881166  36.0038703
  53.3652560 111.2042478  30.9753625  54.2944620 111.3553637  30.8022592
  52.9443590 111.2926499  30.1202271  52.1640892 115.2293142  28.7452162
  52.0251978 114.8611927  29.6178100  51.3755488 115.7440782  28.5736120
  52.7589044 120.3302239  20.0877699  52.9340800 119.8590282  20.9023321
  52.0721832 120.9568005  20.3158959  53.7146107 114.6074745  26.1341000
  53.3795940 114.5675515  27.0298650  53.2150053 113.9419461  25.6611410
  47.6890351 110.0142375  31.6593581  47.5510149 109.2822614  32.2605120
  48.5995275 109.9251275  31.3777769  56.6505299 111.9530779  16.4078060
  56.0334470 111.2277607  16.3111112  56.1821787 112.7140140  16.0645134
  50.3172652 109.7262334  31.1477261  51.0272271 109.0855526  31.1063879
  50.2741960 109.9775229  32.0703442  58.3059431 116.6629688  34.0683840
  58.2471977 115.9788908  33.4014423  58.7078949 117.4048678  33.6164466
  49.0301586 106.7127552  32.9672900  48.4938943 106.2618291  33.6194497
  48.4418294 106.8473461  32.2243365  47.3250129 123.4791601  26.8617559
  47.5646728 124.1110126  27.5396577  46.4819326 123.1279641  27.1482918
  48.4403845 106.1716204  15.5299364  47.5633311 106.0505004  15.1661611
  48.9161598 105.3802282  15.2778253  58.3076838 114.6269272  32.2997820
  57.4203617 114.2895193  32.4224219  58.8775389 113.8952303  32.5366585
  39.9605985 110.9593363  25.6240871  40.6477025 110.6455093  25.0361886
  39.8054114 111.8634728  25.3508122  44.7640707 105.8483560  30.0525895
  44.6798896 105.2409229  29.3176305  43.9423414 106.3392578  30.0535391
  51.8377991 119.2870724  29.2659063  51.7648163 120.0925695  29.7778367
  51.3955384 119.4862690  28.4407084  51.6267771 118.5242494  22.7761884
  50.8435293 119.0664174  22.8700109  52.3260516 119.0416474  23.1756126
  54.9364421 104.3337123  25.4196090  55.4333121 103.5807086  25.0997160
  54.1651403 104.3701440  24.8539299  62.7894179 110.0377489  27.0614381
  62.7784055 110.9202204  26.6908314  61.9211558 109.6849040  26.8668918
  54.2976675 119.1857558  31.4217221  55.0104647 119.8205023  31.3493123
  53.8066704 119.2821424  30.6057223  56.0194202 113.0908811  22.9934513
  55.0850481 113.2110273  22.8239217  56.1970870 112.1881277  22.7294523
  51.5199390 106.4754506  25.1467774  51.1497177 105.9225547  25.8348680
  52.0158482 105.8712640  24.5942774  59.4066753 108.9326130  23.5284547
  59.8727205 109.7654121  23.4544850  59.8574254 108.4671111  24.2329806
  49.3488588 116.9352001  32.2422792  50.0498048 117.5688484  32.3952187
  48.8783703 117.2766733  31.4818432  57.4742984 115.2769951  20.5270699
  57.7502828 115.1626546  21.4364573  56.6047483 114.8787436  20.4882872
  57.3783416 101.3006717  27.5675449  56.4646496 101.5310944  27.7357656
  57.8076517 101.3845161  28.4189481  57.1489874 109.4896609  30.0675343
  56.4961325 109.7372516  29.4127795  57.5270254 108.6760747  29.7337820
  54.1097048 119.5256302  24.1703513  54.2919443 118.7077958  24.6331265
  54.9330034 119.7423994  23.7328403  54.4439214 118.4524487  21.4318561
  54.9726980 117.9416942  20.8188724  54.7067433 118.1367017  22.2964094
  53.1977447 110.2316420  36.5541380  52.5218084 110.1310549  37.2243755
  54.0205081 110.0755634  37.0177377  44.9456306 116.4688356  29.1753895
  45.5309743 115.7232044  29.3081799  44.7481145 116.7792313  30.0590559
  47.7994962 119.5039604  24.1916337  47.1305337 119.9885731  23.7080377
  47.6607831 119.7508824  25.1059716  39.5373961 109.0393957  27.8958338
  39.5758061 108.5057547  28.6895456  39.0314254 108.5129162  27.2769315
  51.9400230 121.5383347  30.7898996  52.4918538 121.7014969  31.5548081
  52.2806424 122.1287785  30.1179021  46.9164724 103.8858497  31.3920880
  46.9806050 104.7473328  30.9798278  46.8531844 103.2732499  30.6593239
  46.3916996 105.9581630  35.0393915  47.0189035 105.5758707  35.6531439
  45.5344915 105.7395832  35.4049607  56.7911105 116.3644605  36.6447650
  57.3351009 116.9774563  36.1502605  56.2097949 116.9224183  37.1614663
  43.1682539 107.7658059  20.9712270  43.4635980 106.8568737  20.9179323
  42.2670575 107.7445798  20.6493272  55.0768618 119.4865323  27.7762678
  54.9519757 118.6855063  27.2673623  55.7347709 119.9811516  27.2876648
  46.6976786 105.8414055  26.9539818  45.9763372 106.4550023  26.8147291
  47.4870042 106.3771820  26.8756464  57.1403526 117.2874343  29.4042228
  56.1933861 117.1679694  29.3320555  57.4886299 116.3996841  29.4868489
  49.5003099 103.1768482  33.2280470  50.0237501 103.4230778  33.9906779
  49.2815433 104.0088517  32.8083607  44.8970380 105.4472156  21.0951595
  44.5683087 104.5669535  20.9126701  45.2509751 105.3919825  21.9827984
  54.1449959 117.0827059  25.6046580  53.9974922 116.1543767  25.7854150
  54.9703453 117.1047150  25.1203655  48.0112204 105.7345126  21.4627072
  48.3508276 106.2631048  20.7405681  48.4584324 106.0725532  22.2385639
  57.7484081 117.9055618  26.6911453  58.6730629 117.6998479  26.5535904
  57.5799384 117.6572019  27.6000794  50.7055644 104.1182177  30.9130140
  50.3652465 103.3189990  31.3150820  49.9994651 104.4183888  30.3406974
  51.3572116 101.2031489  29.3657463  52.1798186 100.7291968  29.2436354
  51.6010180 101.9821973  29.8656150  49.9980351 104.2319748  19.6620365
  50.7188713 104.6101001  19.1584082  49.3745655 104.9508625  19.7655343
  54.1411474 104.9364897  20.5978697  54.3575088 105.8189535  20.2967526
  53.6605541 104.5451110  19.8684339  48.8810695 107.8950610  27.1749442
  48.7355276 108.2090913  28.0673724  48.4035899 108.5135510  26.6220341
  50.7407078 104.8853158  27.2230332  50.7268647 103.9894251  26.8862630
  51.4579506 104.8923822  27.8568618  52.5933209 105.3190498  29.2683459
  52.3350986 106.2407569  29.2667789  52.0618249 104.9220933  29.9583923
  57.5379397 118.4241285  22.0473544  57.7116275 117.8587708  21.2947397
  58.0308289 119.2242180  21.8653034  43.3556357 110.4355954  30.1137103
  42.8109825 111.2115762  30.2457378  44.2335707 110.7826759  29.9556225
  50.1443974 103.7667538  22.4917902  50.2659885 102.8384185  22.6908789
  49.8546016 103.7806224  21.5796217  53.0135164 101.4522449  25.6284622
  53.0356861 101.5161782  24.6736601  53.4303223 100.6126957  25.8225128
  63.3918788 111.1877708  23.6663844  63.8349935 110.4385034  23.2682967
  62.5145299 111.1787845  23.2837576  58.5254570 117.7408050  19.1470443
  59.2205474 118.3614742  19.3657757  58.8677720 116.8903401  19.4222821
  44.1422379 109.5625851  33.0067260  43.4004115 109.7108486  33.5931891
  43.8215123 109.8234116  32.1434010  60.4245993 115.1907755  20.6757773
  60.9497317 115.5295028  19.9507093  60.3368345 114.2554771  20.4920908
  52.0866042 119.1041829  32.8047650  52.3953168 118.8590976  33.6770350
  52.8841524 119.3088467  32.3166520  52.1086654 121.2579739  25.0353027
  51.6691644 120.7656117  25.7285883  52.8594771 120.7152706  24.7945102
  44.5878993 117.4491279  25.0377655  45.4137013 117.1495051  24.6576298
  44.2373045 116.6798902  25.4867443  49.5560526 116.8017748  27.1075328
  48.9340535 116.1388453  26.8077556  50.2265393 116.8278880  26.4248976
  42.7887598 115.3677606  25.9966588  41.9519506 114.9399780  25.8150590
  42.7611243 115.5610049  26.9337380  49.6285053 105.2799536  36.7007834
  49.6773209 106.1561658  36.3185604  50.1707568 104.7376929  36.1279478
  60.1139899 115.8240659  35.9808971  59.3235443 115.8064798  35.4413471
  59.8773254 116.3628953  36.7358008  60.2337774 112.6733125  33.2941700
  60.2835779 112.5083133  34.2357223  60.1251697 111.8060384  32.9039581
  49.1174033 115.3521671  20.5833789  49.2662153 116.0357135  19.9300462
  49.9240476 115.3326761  21.0983245  57.5241536 108.6564053  34.6101007
  58.4251399 108.5170518  34.3185004  57.5989511 108.8218508  35.5499184
  51.8584342 106.0330908  33.4554193  50.9887651 106.3264474  33.1836782
  52.0943822 106.6171353  34.1761457  61.7355971 115.0930067  33.5383722
  61.4440779 115.4560047  34.3747182  61.1228102 114.3797075  33.3597054
  62.9351653 112.6582947  26.0586292  63.7698545 113.0972751  26.2223852
  63.0710782 112.1821600  25.2394538  59.9843159 110.2162681  32.0063779
  60.4597281 110.4090328  31.1982631  59.0608724 110.2721867  31.7607163
  46.8726666 111.3786849  21.5894858  46.6272708 110.4749179  21.7875068
  47.0422580 111.3803999  20.6474336  54.5623376 102.2510525  30.9719613
  55.0805319 102.9871552  30.6466102  54.2078508 102.5574518  31.8066373
  46.1422313 107.1115206  19.0881019  45.4491558 107.1859561  18.4321055
  45.8974065 106.3475550  19.6102536  54.8135970  98.6710808  26.4920510
  55.0937724  98.0033997  27.1180937  55.5986577  98.8639903  25.9795174
  52.6169438 117.8469801  18.0545536  52.0443405 118.4659989  17.6016008
  53.1902232 118.3969163  18.5885458  58.6844828 107.0928442  30.2392085
  59.6362251 107.1926539  30.2604309  58.5148279 106.3006710  30.7490169
  56.7059208 104.1784025  30.4251486  56.1109140 104.4589037  29.7297975
  56.4208904 104.6677926  31.1968227  55.8366698 118.1306952  19.1854119
  56.7697371 118.0652513  19.3886994  55.7489911 118.9663218  18.7268651
  58.4654715 117.4472822  16.1458066  58.3868346 117.1132686  17.0393824
  59.2864381 117.9394590  16.1449538  61.1632906 110.3134561  29.3534385
  61.1309226 109.3750562  29.5394069  61.7733530 110.3918598  28.6200210
  53.0016237 109.1830614  15.3961589  53.9475341 109.0536822  15.4650007
  52.6230482 108.4445276  15.8731017  61.3127394 107.1045605  29.3992668
  60.7966443 106.3204061  29.2122597  62.1967343 106.7764321  29.5639187
  58.9738121 100.8486620  25.3588481  58.7762942 100.5401708  26.2431813
  59.5837827 101.5748259  25.4886410  66.9809456 111.3750568  28.4940422
  67.7112844 111.1135856  29.0548125  66.3716401 110.6379290  28.5342490
  65.0624753 109.5158431  29.0914873  64.3357916 109.3814396  28.4831364
  64.6472040 109.8235259  29.8971591  52.8854929 113.2348360  36.8562246
  53.8057939 113.4126959  37.0502292  52.8504512 112.2904406  36.7041945
  51.1859154 107.1080591  15.3316474  50.2790609 106.8113703  15.4079188
  51.4635135 106.8110409  14.4650760  42.1037094 108.4286954  25.7815520
  41.7839879 107.5752262  25.4889894  41.5570522 108.6435532  26.5373488
  45.8817002 111.1449395  29.4985027  46.1003012 112.0766503  29.5173061
  46.2942776 110.7857369  30.2839831  52.8021220 101.6517480  21.4860715
  51.9921948 101.3064565  21.8615961  53.4905637 101.3425024  22.0748327
  54.7311768 100.7295527  23.1085012  55.2842807 101.1490981  23.7675035
  54.9681854  99.8031275  23.1507968  50.7544867 106.7182601  38.8887776
  50.6541594 107.6676958  38.8199867  50.5366409 106.3900840  38.0163846
  49.9557939 103.9667526  15.4728453  50.8177103 104.2922424  15.7324271
  50.1408283 103.1799022  14.9601519  41.9725354 112.0489865  27.7508642
  41.2788826 111.6343818  27.2378596  42.7198345 112.0910402  27.1542061
  58.1090575 102.8396052  22.6163676  57.5289244 103.4980856  22.2341729
  57.8426508 102.0173397  22.2051094  56.5594141 102.2401110  24.8184997
  57.0593920 102.3517645  24.0099315  57.2029749 101.9362163  25.4585805
  50.6176137 110.1479740  37.7052838  50.1343219 110.9480100  37.9116727
  50.7037076 110.1587684  36.7520282  43.8862097 111.9808119  25.6274657
  43.8632785 112.0795807  24.6756540  44.1962733 112.8273270  25.9491823
  46.5449475 114.0384274  29.7421271  47.4992728 114.0068217  29.6751203
  46.3461998 113.5774898  30.5571497  47.1348857 112.6085390  32.3092069
  47.9541746 113.1029469  32.3326906  47.4085665 111.6917358  32.2809636
  56.8915453 104.9996143  21.6720024  56.0041308 105.2845793  21.4540219
  57.3069442 104.8389906  20.8247301  60.2429989 105.0242664  25.3874364
  61.0190379 105.5139116  25.6598981  59.5178123 105.4500718  25.8446233
  62.6802548 105.7370283  26.4448304  63.2747039 105.4966019  25.7341613
  62.7529131 105.0177413  27.0721841  44.8999703 119.5803894  26.7591469
  44.7654171 118.8204295  26.1929467  44.4831766 120.3044794  26.2920258
  56.0358666 114.7640817  15.7668044  56.7394517 114.9690820  16.3825700
  55.3121315 115.3317579  16.0317128  56.8656477 110.5150679  21.8870315
  56.8091678 110.9719230  21.0477947  57.4184819 109.7541363  21.7093157
  60.6761283 106.3040410  22.7120434  60.4198217 105.9037046  23.5428642
  60.0514151 107.0184204  22.5870573  64.9873621 109.0436484  25.2191726
  64.4273179 109.1129673  25.9923288  64.3817124 108.8677468  24.4991222
  48.0568829 120.4773211  26.9709912  47.9401213 121.4218643  26.8688602
  47.2361276 120.1746772  27.3595711  57.9445364 115.2023347  17.8166505
  58.7790968 114.7704545  17.6343979  57.7829707 115.0305360  18.7443399
  57.5991256 111.7055460  19.1822844  57.5440060 111.5399731  18.2411288
  56.9737311 112.4131493  19.3385034  42.3883771 106.9423524  33.0084266
  43.0342635 106.4322478  33.4971491  42.1800922 107.6792206  33.5827691
  54.9137163 114.0104372  38.5076407  55.7828323 114.1845024  38.1463042
  54.4343915 114.8298789  38.3852136  50.9087382 101.2063569  18.7608162
  50.8966051 102.1505409  18.9176433  51.8010803 101.0233714  18.4667623
  49.0823343 121.1301473  30.1865840  49.9850590 121.1625083  30.5032335
  48.8560714 120.2001924  30.2012176  50.8376945 119.8832459  26.8475919
  49.8872576 119.8834321  26.7340291  51.1409432 119.1365194  26.3311953
  54.7239501  97.8006345  23.0154099  53.9571897  97.2464832  23.1610781
  55.1350206  97.8728214  23.8768251  46.7281262 104.0891141  37.1059280
  47.5912724 103.7327946  37.3162605  46.1546673 103.7505036  37.7934685
  66.5729639 125.7192998  27.9121681  67.2108049 125.5999745  27.2085021
  66.4550482 126.6673842  27.9709633  63.3819345 125.6720426  27.8483206
  63.0437857 125.5561490  26.9603741  64.2509113 125.2711591  27.8284212
  59.2406161 127.5255902  23.8380097  58.6771026 127.4345839  23.0696385
  59.1258556 126.7055807  24.3182589  63.8639128 126.8255277  33.8069411
  63.8527769 126.4308076  32.9349915  64.0259768 126.0921350  34.4003183
  56.7870593 129.0207094  26.6764317  57.5791885 128.6797918  26.2610617
  57.0267243 129.1302069  27.5966471  64.8205720 131.1926870  19.1494562
  64.1693699 131.7780950  18.7628576  65.6150082 131.7233065  19.2089599
  58.7461347 128.2816007  19.5481696  59.5192223 127.7344994  19.4094572
  59.0986746 129.1460256  19.7596158  60.5846389 129.6092389  32.7548595
  60.2936255 130.5138020  32.6395262  61.2203374 129.6508917  33.4692665
  61.5102596 126.9869238  29.3449955  62.1066168 126.7625260  28.6306918
  61.5677568 126.2453983  29.9475403  61.0827625 124.4408673  17.1800146
  61.3353145 123.9190194  16.4183609  60.1452184 124.2774819  17.2826830
  66.1270907 123.4444451  24.9874889  66.9133997 123.0263875  24.6365306
  66.3909612 124.3490544  25.1556538  66.2980985 128.8817302  19.6863546
  65.6626818 128.9551928  20.3984451  65.9678391 129.4710901  19.0082625
  71.5279335 123.3819685  25.8907868  72.2604507 122.8118902  26.1245697
  70.7718690 122.9941285  26.3314373  60.8023913 126.3436779  19.3824521
  60.6860171 125.6681682  20.0505605  60.9126173 125.8569153  18.5656674
  63.1455454 125.8046926  23.0871210  62.7813662 125.2777547  23.7984132
  64.0022570 125.4145395  22.9137696  69.0504755 117.0941259  30.3502476
  68.7188080 117.9636670  30.1263691  68.4550368 116.7777543  31.0296507
  62.7860941 120.8336826  18.0832559  62.9535344 121.7017062  18.4503030
  62.5958110 120.9964108  17.1593848  65.5436274 129.2953805  29.7498389
  65.2436998 130.1978844  29.6414196  65.1987334 129.0285988  30.6019542
  58.9948756 125.7467602  25.7835094  58.0699252 125.6143816  25.9912785
  59.2433169 126.5261821  26.2805036  68.9433418 121.8136345  27.4295826
  68.0350296 121.7451753  27.1354587  68.8921014 122.2908290  28.2577652
  62.7650162 123.2894483  19.0679226  62.6449787 123.7351534  19.9064706
  62.0702751 123.6379801  18.5092764  56.3557567 125.3900875  26.6178883
  56.4849948 125.6435354  27.5318294  55.6755018 125.9828583  26.2983538
  60.5257054 136.0598125  22.7169357  60.4481084 137.0105950  22.7957837
  59.9218698 135.7143998  23.3744283  63.0174284 123.2325991  35.3730724
  62.2407618 123.7919911  35.3633588  63.6564847 123.7182774  35.8945594
  70.8095065 120.0152783  29.2073700  70.1669445 120.3085317  28.5613495
  70.3049993 119.9005704  30.0126897  68.4635228 123.7615957  19.8959560
  69.3753084 123.9943343  19.7207257  67.9544875 124.3453001  19.3334638
  61.2720656 126.0411444  34.9348691  62.0135341 126.5796488  34.6583514
  60.5657642 126.6677733  35.0920243  66.7475996 128.1840584  33.5320852
  67.1559352 127.7422995  32.7875485  66.0253257 127.6093212  33.7855045
  63.1007066 123.1213191  30.9054409  63.9468261 123.5452605  31.0489058
  63.0405704 122.4646815  31.5992972  67.0704811 128.7441775  27.2873141
  66.4413673 128.9087489  26.5849209  66.6830473 129.1583385  28.0584105
  70.9494043 129.6796213  24.6417505  70.2645081 130.0595114  24.0914538
  71.0337892 130.2891540  25.3749453  66.2506511 120.7817560  32.5635583
  66.0067443 121.5359620  32.0269859  66.5266442 121.1602907  33.3982830
  68.2044974 127.3256172  31.2412848  68.4161869 127.9687932  30.5647229
  68.1574722 126.4918488  30.7734778  65.8071203 119.9373993  28.1449421
  64.9455682 120.2355246  28.4366158  65.8333638 120.1544391  27.2130453
  62.6232773 128.4816183  24.5523226  63.0871118 128.7603886  23.7627849
  62.3589571 127.5799628  24.3696317  59.5156854 128.0287665  27.4902989
  60.0858211 128.4574933  26.8520474  60.1064965 127.7470249  28.1887175
  61.5601659 124.6039335  21.3612791  62.2625702 125.0560379  21.8286718
  61.2282287 123.9623154  21.9892684  60.0082020 123.1951092  35.7364001
  59.3780681 123.8767373  35.9699398  59.9018108 123.0834174  34.7917139
  55.3026993 122.8622888  26.6629925  54.5126047 123.1180417  26.1870036
  55.7938240 123.6771226  26.7681965  69.3190802 130.2028127  29.4135206
  70.1408246 129.8008315  29.1317887  69.3153205 130.0996361  30.3651322
  57.2541738 123.2267467  23.6213402  56.4572901 123.3386162  24.1396897
  57.0267330 123.5654120  22.7554292  63.0847406 129.7512171  31.5695916
  63.1491838 130.2132578  32.4054088  62.3758329 129.1209536  31.6978226
  53.5864696 123.1153379  29.0944916  53.8372734 124.0000389  29.3602492
  54.1224244 122.9357980  28.3220008  77.4096795 126.5466876  25.7620177
  76.6560504 125.9774274  25.6064182  77.5444336 126.5129540  26.7090812
  62.7995423 131.4180278  21.4374897  62.6641098 132.2631814  21.8659744
  63.3405236 131.6199556  20.6740830  59.2862763 117.4971858  38.0989252
  58.8929708 116.9438057  38.7736896  60.1028903 117.8082436  38.4895769
  56.2524821 128.9355716  22.0102822  56.7649341 129.7298966  22.1608386
  56.9047533 128.2382007  21.9436423  58.0619705 132.0521472  24.0925575
  58.2386334 132.9739437  23.9046559  58.8576539 131.7379892  24.5219955
  62.2030724 118.9129737  35.6909508  62.9440437 119.5136890  35.6113971
  62.4348647 118.1707375  35.1327551  57.3472062 124.0986104  33.9687738
  57.2325577 123.1971362  34.2694837  56.4916580 124.3449801  33.6172555
  64.4263900 132.0403845  35.5675239  63.9827754 131.2540223  35.2496143
  65.0881113 132.2282995  34.9019129  59.1851021 133.5699646  30.0935917
  59.7358446 133.4416710  29.3212911  58.3462497 133.8694535  29.7430810
  66.5245138 132.3206645  33.5956640  66.5063613 133.1415526  33.1036909
  67.4465058 132.1960720  33.8206781  62.9818192 129.8350774  34.4380148
  63.5146529 129.0739062  34.2079456  62.4532273 129.5424426  35.1804303
  66.1487887 114.9410840  29.9673790  65.8052156 115.8312482  29.8912901
  66.5166849 114.7512498  29.1043375  54.2173737 127.2644370  22.7862392
  55.0548959 127.6741379  22.5696100  54.3952005 126.3243813  22.7562586
  66.1138169 124.9319451  18.4746225  65.5984793 125.7024056  18.7134613
  65.8415478 124.2584587  19.0979287  63.6985281 119.7769152  23.5331464
  62.8426877 119.3876002  23.3537102  64.1112232 119.8561113  22.6731249
  65.2284427 117.3115495  27.9323023  64.7249223 117.2745630  27.1190829
  65.5215034 118.2208238  27.9919680  61.4727313 117.3954225  26.9389205
  62.3380310 117.1997034  26.5795094  61.5404822 117.1664577  27.8658562
  71.0872444 127.6851806  20.4099399  70.3101886 127.3462965  19.9654561
  71.7663925 127.6904429  19.7354364  65.9024473 122.8046543  20.3006006
  65.5974608 123.1192692  21.1516150  66.8554915 122.8827963  20.3433339
  64.3470904 128.9636767  21.9498960  63.8192266 128.2289526  21.6372198
  63.8458407 129.7411443  21.7038929  69.3263751 127.1585787  27.0666007
  68.6687425 127.8485048  27.1546135  70.1304150 127.5482219  27.4099993
  59.0789632 119.6256433  24.3105572  59.6533384 119.4031614  23.5778765
  59.6660615 119.6945127  25.0634173  68.1369209 125.5130160  25.1169948
  68.6501091 126.1460152  25.6191658  68.7870433 124.9131355  24.7513308
  59.4059219 121.6560894  18.3301457  58.5696531 121.9935580  18.6510732
  59.2663989 121.5209874  17.3928594  61.3812300 116.4997682  23.0380641
  60.7276712 116.1846699  22.4137256  61.3392774 115.8773422  23.7640464
  62.4923505 126.7816977  14.9533933  61.5850566 126.5506230  15.1525082
  62.9894537 125.9854596  15.1407915  65.3991584 135.4914484  17.8730620
  64.7253282 135.7946181  18.4815577  65.7857406 136.2943564  17.5236077
  64.6150040 122.9879615  27.3628289  63.6972602 123.2094562  27.2049977
  65.0310184 123.0625926  26.5039996  65.3985088 124.3871031  22.4930969
  66.1456907 124.8992428  22.1838091  65.6676677 124.0655084  23.3535363
  63.6711738 126.8829572  19.4757923  62.7622957 126.5988604  19.5730393
  63.7006822 127.3028650  18.6161230  68.9031006 130.4936161  23.2449091
  68.4493333 129.6527071  23.3014281  68.2724972 131.1297560  23.5823871
  67.8463925 121.4228147  24.4749758  67.1086682 120.9105533  24.8060001
  68.0990699 120.9828529  23.6633035  67.3463945 132.3312658  24.1798909
  67.6386919 132.8917715  23.4611275  67.8562565 132.6241219  24.9352068
  67.9475552 114.2004399  25.0691528  68.2534429 113.3401763  24.7817443
  68.6728157 114.7922019  24.8690522  54.2399908 124.6035086  23.4573126
  54.0424308 124.0104446  22.7324192  53.6846572 124.2987296  24.1749064
  62.2196632 124.4958192  25.5767719  62.2745242 123.5432029  25.5010195
  61.4087834 124.6517631  26.0609017  63.3687826 128.4238315  16.8146002
  62.9307256 127.7074174  16.3551639  64.1098267 128.6514430  16.2531093
  60.1588992 123.1135252  23.3358098  59.3456858 123.4129423  23.7423290
  60.6547986 122.7190941  24.0532580  62.3097570 133.1093009  25.2692362
  62.2673749 133.3353855  24.3400894  63.2260269 132.8756383  25.4178163
  65.7563204 123.5777076  32.1672992  66.1112591 123.8048550  33.0267457
  66.4035335 123.9095453  31.5450247  71.4860941 126.6995512  22.8722321
  71.3478839 126.8897108  21.9443510  71.1297160 127.4614895  23.3290372
  59.6503067 120.6853608  28.9519333  60.2902446 120.5442367  28.2542296
  58.8180597 120.3988121  28.5757935  71.5130320 128.7672039  27.8833592
  71.9466827 128.6747328  28.7316646  72.2261901 128.7429540  27.2453608
  60.4263371 129.9856038  25.0654325  61.2203969 129.4906358  24.8636900
  59.7155063 129.4573901  24.7022031  65.2458215 132.3674133  29.4166693
  65.2995237 132.9365070  30.1844409  64.3772997 132.5376018  29.0520730
  56.7346134 124.1299120  21.1414078  55.8043722 124.0683575  21.3584040
  56.8303606 123.6075072  20.3450719  56.6531683 120.6553932  23.7292319
  56.9138501 121.5699266  23.6201480  57.4748856 120.1878375  23.8788932
  58.1256609 122.0691690  30.8991144  58.7979662 121.8609052  30.2503793
  57.2986395 121.8713776  30.4596376  72.3745870 128.8095740  30.4166477
  72.5681760 129.7141551  30.6625752  72.2746488 128.3503159  31.2505063
  64.0282181 118.6953631  32.9156805  63.3810096 119.3943580  32.8221281
  64.7983196 119.1289775  33.2833053  67.4360979 128.9602483  35.9907358
  67.2846485 128.7313034  35.0737442  67.4265658 129.9173084  36.0038703
  64.2046315 126.5334395  30.9753625  65.1338375 126.6845555  30.8022592
  63.7837345 126.6218416  30.1202271  63.0034647 130.5585060  28.7452162
  62.8645732 130.1903844  29.6178100  62.2149243 131.0732699  28.5736120
  63.5982799 135.6594156  20.0877699  63.7734554 135.1882200  20.9023321
  62.9115587 136.2859923  20.3158959  64.5539862 129.9366663  26.1341000
  64.2189694 129.8967433  27.0298650  64.0543808 129.2711379  25.6611410
  58.5284106 125.3434293  31.6593581  58.3903904 124.6114531  32.2605120
  59.4389029 125.2543193  31.3777769  67.4899054 127.2822697  16.4078060
  66.8728224 126.5569525  16.3111112  67.0215542 128.0432057  16.0645134
  61.1566407 125.0554252  31.1477261  61.8666025 124.4147444  31.1063879
  61.1135715 125.3067147  32.0703442  69.1453185 131.9921605  34.0683840
  69.0865731 131.3080825  33.4014423  69.5472704 132.7340595  33.6164466
  59.8695340 122.0419470  32.9672900  59.3332698 121.5910208  33.6194497
  59.2812049 122.1765379  32.2243365  58.1643884 138.8083519  26.8617559
  58.4040482 139.4402043  27.5396577  57.3213080 138.4571559  27.1482918
  59.2797599 121.5008121  15.5299364  58.4027066 121.3796922  15.1661611
  59.7555353 120.7094200  15.2778253  69.1470592 129.9561189  32.2997820
  68.2597371 129.6187111  32.4224219  69.7169144 129.2244220  32.5366585
  50.7999740 126.2885281  25.6240871  51.4870779 125.9747011  25.0361886
  50.6447868 127.1926646  25.3508122  55.6034462 121.1775478  30.0525895
  55.5192650 120.5701147  29.3176305  54.7817168 121.6684496  30.0535391
  62.6771746 134.6162642  29.2659063  62.6041917 135.4217613  29.7778367
  62.2349139 134.8154607  28.4407084  62.4661525 133.8534412  22.7761884
  61.6829047 134.3956092  22.8700109  63.1654271 134.3708391  23.1756126
  65.7758176 119.6629041  25.4196090  66.2726875 118.9099003  25.0997160
  65.0045157 119.6993358  24.8539299  73.6287933 125.3669407  27.0614381
  73.6177809 126.2494122  26.6908314  72.7605312 125.0140957  26.8668918
  65.1370429 134.5149476  31.4217221  65.8498402 135.1496940  31.3493123
  64.6460458 134.6113342  30.6057223  66.8587956 128.4200728  22.9934513
  65.9244235 128.5402191  22.8239217  67.0364625 127.5173195  22.7294523
  62.3593144 121.8046424  25.1467774  61.9890932 121.2517464  25.8348680
  62.8552237 121.2004558  24.5942774  70.2460508 124.2618048  23.5284547
  70.7120960 125.0946039  23.4544850  70.6968008 123.7963029  24.2329806
  60.1882343 132.2643919  32.2422792  60.8891802 132.8980402  32.3952187
  59.7177458 132.6058651  31.4818432  68.3136739 130.6061869  20.5270699
  68.5896583 130.4918463  21.4364573  67.4441237 130.2079354  20.4882872
  68.2177170 116.6298635  27.5675449  67.3040250 116.8602861  27.7357656
  68.6470272 116.7137079  28.4189481  67.9883629 124.8188527  30.0675343
  67.3355079 125.0664434  29.4127795  68.3664009 124.0052665  29.7337820
  64.9490803 134.8548220  24.1703513  65.1313197 134.0369876  24.6331265
  65.7723789 135.0715912  23.7328403  65.2832968 133.7816405  21.4318561
  65.8120735 133.2708859  20.8188724  65.5461188 133.4658935  22.2964094
  64.0371202 125.5608338  36.5541380  63.3611839 125.4602467  37.2243755
  64.8598836 125.4047551  37.0177377  55.7850061 131.7980274  29.1753895
  56.3703498 131.0523962  29.3081799  55.5874899 132.1084231  30.0590559
  58.6388716 134.8331522  24.1916337  57.9699091 135.3177649  23.7080377
  58.5001586 135.0800742  25.1059716  50.3767716 124.3685874  27.8958338
  50.4151815 123.8349465  28.6895456  49.8708009 123.8421080  27.2769315
  62.7793985 136.8675265  30.7898996  63.3312293 137.0306887  31.5548081
  63.1200178 137.4579703  30.1179021  57.7558478 119.2150415  31.3920880
  57.8199804 120.0765246  30.9798278  57.6925598 118.6024416  30.6593239
  57.2310751 121.2873547  35.0393915  57.8582789 120.9050625  35.6531439
  56.3738669 121.0687749  35.4049607  67.6304859 131.6936523  36.6447650
  68.1744763 132.3066481  36.1502605  67.0491704 132.2516101  37.1614663
  54.0076293 123.0949976  20.9712270  54.3029734 122.1860655  20.9179323
  53.1064329 123.0737716  20.6493272  65.9162372 134.8157241  27.7762678
  65.7913512 134.0146980  27.2673623  66.5741463 135.3103434  27.2876648
  57.5370540 121.1705973  26.9539818  56.8157126 121.7841941  26.8147291
  58.3263796 121.7063738  26.8756464  67.9797280 132.6166261  29.4042228
  67.0327616 132.4971612  29.3320555  68.3280054 131.7288759  29.4868489
  60.3396854 118.5060400  33.2280470  60.8631256 118.7522696  33.9906779
  60.1209187 119.3380434  32.8083607  55.7364135 120.7764074  21.0951595
  55.4076841 119.8961453  20.9126701  56.0903506 120.7211743  21.9827984
  64.9843714 132.4118977  25.6046580  64.8368676 131.4835684  25.7854150
  65.8097207 132.4339068  25.1203655  58.8505958 121.0637044  21.4627072
  59.1902031 121.5922965  20.7405681  59.2978078 121.4017450  22.2385639
  68.5877836 133.2347536  26.6911453  69.5124383 133.0290397  26.5535904
  68.4193139 132.9863937  27.6000794  61.5449399 119.4474095  30.9130140
  61.2046219 118.6481908  31.3150820  60.8388405 119.7475806  30.3406974
  62.1965871 116.5323407  29.3657463  63.0191940 116.0583885  29.2436354
  62.4403934 117.3113891  29.8656150  60.8374105 119.5611666  19.6620365
  61.5582468 119.9392918  19.1584082  60.2139409 120.2800542  19.7655343
  64.9805228 120.2656815  20.5978697  65.1968842 121.1481452  20.2967526
  64.4999295 119.8743028  19.8684339  59.7204449 123.2242528  27.1749442
  59.5749030 123.5382831  28.0673724  59.2429653 123.8427428  26.6220341
  61.5800832 120.2145076  27.2230332  61.5662401 119.3186169  26.8862630
  62.2973260 120.2215739  27.8568618  63.4326963 120.6482416  29.2683459
  63.1744741 121.5699487  29.2667789  62.9012003 120.2512850  29.9583923
  68.3773152 133.7533203  22.0473544  68.5510029 133.1879626  21.2947397
  68.8702043 134.5534098  21.8653034  54.1950112 125.7647872  30.1137103
  53.6503580 126.5407680  30.2457378  55.0729461 126.1118677  29.9556225
  60.9837728 119.0959456  22.4917902  61.1053639 118.1676102  22.6908789
  60.6939771 119.1098142  21.5796217  63.8528919 116.7814366  25.6284622
  63.8750615 116.8453700  24.6736601  64.2696978 115.9418875  25.8225128
  74.2312543 126.5169626  23.6663844  74.6743689 125.7676951  23.2682967
  73.3539053 126.5079762  23.2837576  69.3648324 133.0699967  19.1470443
  70.0599229 133.6906660  19.3657757  69.7071474 132.2195319  19.4222821
  54.9816133 124.8917768  33.0067260  54.2397869 125.0400404  33.5931891
  54.6608878 125.1526034  32.1434010  71.2639747 130.5199673  20.6757773
  71.7891071 130.8586946  19.9507093  71.1762100 129.5846688  20.4920908
  62.9259796 134.4333747  32.8047650  63.2346923 134.1882893  33.6770350
  63.7235278 134.6380385  32.3166520  62.9480408 136.5871656  25.0353027
  62.5085398 136.0948035  25.7285883  63.6988525 136.0444624  24.7945102
  55.4272747 132.7783197  25.0377655  56.2530767 132.4786969  24.6576298
  55.0766799 132.0090820  25.4867443  60.3954280 132.1309665  27.1075328
  59.7734290 131.4680370  26.8077556  61.0659147 132.1570797  26.4248976
  53.6281352 130.6969524  25.9966588  52.7913260 130.2691698  25.8150590
  53.6004998 130.8901967  26.9337380  60.4678808 120.6091453  36.7007834
  60.5166963 121.4853576  36.3185604  61.0101322 120.0668846  36.1279478
  70.9533653 131.1532577  35.9808971  70.1629197 131.1356715  35.4413471
  70.7167008 131.6920870  36.7358008  71.0731529 128.0025043  33.2941700
  71.1229533 127.8375050  34.2357223  70.9645452 127.1352302  32.9039581
  59.9567787 130.6813589  20.5833789  60.1055908 131.3649053  19.9300462
  60.7634231 130.6618679  21.0983245  68.3635291 123.9855971  34.6101007
  69.2645154 123.8462436  34.3185004  68.4383265 124.1510426  35.5499184
  62.6978096 121.3622826  33.4554193  61.8281406 121.6556392  33.1836782
  62.9337577 121.9463271  34.1761457  72.5749725 130.4221985  33.5383722
  72.2834534 130.7851965  34.3747182  71.9621857 129.7088993  33.3597054
  73.7745408 127.9874864  26.0586292  74.6092299 128.4264668  26.2223852
  73.9104536 127.5113518  25.2394538  70.8236914 125.5454599  32.0063779
  71.2991035 125.7382245  31.1982631  69.9002479 125.6013785  31.7607163
  57.7120420 126.7078766  21.5894858  57.4666462 125.8041096  21.7875068
  57.8816335 126.7095917  20.6474336  65.4017130 117.5802443  30.9719613
  65.9199074 118.3163470  30.6466102  65.0472263 117.8866436  31.8066373
  56.9816068 122.4407124  19.0881019  56.2885313 122.5151479  18.4321055
  56.7367820 121.6767468  19.6102536  65.6529724 114.0002725  26.4920510
  65.9331478 113.3325914  27.1180937  66.4380331 114.1931821  25.9795174
  63.4563193 133.1761719  18.0545536  62.8837160 133.7951906  17.6016008
  64.0295986 133.7261081  18.5885458  69.5238583 122.4220359  30.2392085
  70.4756005 122.5218457  30.2604309  69.3542033 121.6298628  30.7490169
  67.5452962 119.5075942  30.4251486  66.9502894 119.7880955  29.7297975
  67.2602659 119.9969843  31.1968227  66.6760453 133.4598869  19.1854119
  67.6091126 133.3944431  19.3886994  66.5883665 134.2955136  18.7268651
  69.3048469 132.7764740  16.1458066  69.2262101 132.4424603  17.0393824
  70.1258136 133.2686508  16.1449538  72.0026660 125.6426479  29.3534385
  71.9702980 124.7042480  29.5394069  72.6127284 125.7210516  28.6200210
  63.8409991 124.5122532  15.3961589  64.7869096 124.3828740  15.4650007
  63.4624236 123.7737194  15.8731017  72.1521149 122.4337522  29.3992668
  71.6360197 121.6495979  29.2122597  73.0361097 122.1056239  29.5639187
  69.8131876 116.1778538  25.3588481  69.6156697 115.8693626  26.2431813
  70.4231581 116.9040177  25.4886410  77.8203210 126.7042486  28.4940422
  78.5506599 126.4427774  29.0548125  77.2110156 125.9671208  28.5342490
  75.9018507 124.8450348  29.0914873  75.1751671 124.7106313  28.4831364
  75.4865794 125.1527177  29.8971591  63.7248684 128.5640278  36.8562246
  64.6451693 128.7418877  37.0502292  63.6898267 127.6196323  36.7041945
  62.0252908 122.4372508  15.3316474  61.1184364 122.1405621  15.4079188
  62.3028889 122.1402326  14.4650760  52.9430849 123.7578872  25.7815520
  52.6233633 122.9044180  25.4889894  52.3964277 123.9727450  26.5373488
  56.7210756 126.4741313  29.4985027  56.9396766 127.4058420  29.5173061
  57.1336530 126.1149287  30.2839831  63.6414974 116.9809398  21.4860715
  62.8315702 116.6356483  21.8615961  64.3299391 116.6716942  22.0748327
  65.5705522 116.0587445  23.1085012  66.1236561 116.4782898  23.7675035
  65.8075609 115.1323193  23.1507968  61.5938622 122.0474518  38.8887776
  61.4935349 122.9968875  38.8199867  61.3760164 121.7192757  38.0163846
  60.7951693 119.2959443  15.4728453  61.6570857 119.6214342  15.7324271
  60.9802037 118.5090939  14.9601519  52.8119109 127.3781783  27.7508642
  52.1182580 126.9635736  27.2378596  53.5592100 127.4202320  27.1542061
  68.9484329 118.1687970  22.6163676  68.3682999 118.8272774  22.2341729
  68.6820262 117.3465315  22.2051094  67.3987896 117.5693028  24.8184997
  67.8987674 117.6809562  24.0099315  68.0423504 117.2654081  25.4585805
  61.4569892 125.4771657  37.7052838  60.9736973 126.2772017  37.9116727
  61.5430831 125.4879602  36.7520282  54.7255851 127.3100037  25.6274657
  54.7026539 127.4087724  24.6756540  55.0356488 128.1565188  25.9491823
  57.3843229 129.3676192  29.7421271  58.3386483 129.3360134  29.6751203
  57.1855753 128.9066816  30.5571497  57.9742611 127.9377308  32.3092069
  58.7935500 128.4321387  32.3326906  58.2479419 127.0209276  32.2809636
  67.7309208 120.3288060  21.6720024  66.8435063 120.6137711  21.4540219
  68.1463197 120.1681824  20.8247301  71.0823744 120.3534581  25.3874364
  71.8584134 120.8431034  25.6598981  70.3571878 120.7792636  25.8446233
  73.5196302 121.0662201  26.4448304  74.1140793 120.8257936  25.7341613
  73.5922886 120.3469331  27.0721841  55.7393458 134.9095811  26.7591469
  55.6047926 134.1496212  26.1929467  55.3225520 135.6336711  26.2920258
  66.8752421 130.0932735  15.7668044  67.5788271 130.2982738  16.3825700
  66.1515070 130.6609497  16.0317128  67.7050231 125.8442596  21.8870315
  67.6485433 126.3011148  21.0477947  68.2578574 125.0833281  21.7093157
  71.5155037 121.6332328  22.7120434  71.2591971 121.2328964  23.5428642
  70.8907905 122.3476122  22.5870573  75.8267375 124.3728401  25.2191726
  75.2666933 124.4421591  25.9923288  75.2210878 124.1969386  24.4991222
  58.8962584 135.8065128  26.9709912  58.7794968 136.7510561  26.8688602
  58.0755030 135.5038690  27.3595711  68.7839118 130.5315264  17.8166505
  69.6184722 130.0996463  17.6343979  68.6223461 130.3597278  18.7443399
  68.4385011 127.0347378  19.1822844  68.3833814 126.8691649  18.2411288
  67.8131066 127.7423410  19.3385034  53.2277526 122.2715442  33.0084266
  53.8736389 121.7614396  33.4971491  53.0194677 123.0084124  33.5827691
  65.7530918 129.3396289  38.5076407  66.6222077 129.5136942  38.1463042
  65.2737669 130.1590706  38.3852136  61.7481136 116.5355487  18.7608162
  61.7359806 117.4797326  18.9176433  62.6404558 116.3525632  18.4667623
  59.9217098 136.4593390  30.1865840  60.8244345 136.4917001  30.5032335
  59.6954468 135.5293841  30.2012176  61.6770700 135.2124377  26.8475919
  60.7266331 135.2126239  26.7340291  61.9803186 134.4657112  26.3311953
  65.5633255 113.1298263  23.0154099  64.7965651 112.5756750  23.1610781
  65.9743960 113.2020132  23.8768251  57.5675017 119.4183059  37.1059280
  58.4306478 119.0619864  37.3162605  56.9940427 119.0796954  37.7934685
  77.4123393 141.0484915  27.9121681  78.0501803 140.9291663  27.2085021
  77.2944236 141.9965759  27.9709633  74.2213100 141.0012343  27.8483206
  73.8831611 140.8853408  26.9603741  75.0902868 140.6003509  27.8284212
  70.0799915 142.8547820  23.8380097  69.5164781 142.7637757  23.0696385
  69.9652310 142.0347724  24.3182589  74.7032883 142.1547195  33.8069411
  74.6921524 141.7599993  32.9349915  74.8653522 141.4213268  34.4003183
  67.6264347 144.3499011  26.6764317  68.4185639 144.0089836  26.2610617
  67.8660998 144.4593986  27.5966471  69.5855101 143.6107925  19.5481696
  70.3585977 143.0636912  19.4094572  69.9380500 144.4752174  19.7596158
  71.4240144 144.9384307  32.7548595  71.1330010 145.8429938  32.6395262
  72.0597128 144.9800835  33.4692665  72.3496351 142.3161155  29.3449955
  72.9459923 142.0917178  28.6306918  72.4071322 141.5745901  29.9475403
  71.9221379 139.7700591  17.1800146  72.1746900 139.2482112  16.4183609
  70.9845938 139.6066736  17.2826830  76.9664662 138.7736369  24.9874889
  77.7527751 138.3555792  24.6365306  77.2303366 139.6782461  25.1556538
  77.1374739 144.2109219  19.6863546  76.5020572 144.2843846  20.3984451
  76.8072146 144.8002818  19.0082625  82.3673089 138.7111602  25.8907868
  83.0998261 138.1410819  26.1245697  81.6112445 138.3233203  26.3314373
  71.6417668 141.6728697  19.3824521  71.5253926 140.9973600  20.0505605
  71.7519928 141.1861071  18.5656674  73.9849209 141.1338844  23.0871210
  73.6207416 140.6069465  23.7984132  74.8416325 140.7437313  22.9137696
  79.8898509 132.4233176  30.3502476  79.5581834 133.2928587  30.1263691
  79.2944123 132.1069460  31.0296507  73.6254696 136.1628744  18.0832559
  73.7929098 137.0308980  18.4503030  73.4351865 136.3256025  17.1593848
  76.3830029 144.6245722  29.7498389  76.0830752 145.5270761  29.6414196
  76.0381088 144.3577906  30.6019542  69.8342510 141.0759519  25.7835094
  68.9093007 140.9435733  25.9912785  70.0826924 141.8553739  26.2805036
  79.7827173 137.1428263  27.4295826  78.8744050 137.0743671  27.1354587
  79.7314769 137.6200208  28.2577652  73.6043917 138.6186401  19.0679226
  73.4843542 139.0643452  19.9064706  72.9096505 138.9671719  18.5092764
  67.1951321 140.7192793  26.6178883  67.3243703 140.9727272  27.5318294
  66.5148773 141.3120501  26.2983538  71.3650809 151.3890043  22.7169357
  71.2874838 152.3397868  22.7957837  70.7612452 151.0435915  23.3744283
  73.8568039 138.5617908  35.3730724  73.0801373 139.1211828  35.3633588
  74.4958602 139.0474691  35.8945594  81.6488819 135.3444701  29.2073700
  81.0063199 135.6377234  28.5613495  81.1443748 135.2297621  30.0126897
  79.3028983 139.0907874  19.8959560  80.2146839 139.3235261  19.7207257
  78.7938630 139.6744918  19.3334638  72.1114411 141.3703362  34.9348691
  72.8529095 141.9088406  34.6583514  71.4051396 141.9969650  35.0920243
  77.5869750 143.5132502  33.5320852  77.9953107 143.0714913  32.7875485
  76.8647012 142.9385130  33.7855045  73.9400821 138.4505109  30.9054409
  74.7862016 138.8744522  31.0489058  73.8799458 137.7938733  31.5992972
  77.9098565 144.0733693  27.2873141  77.2807428 144.2379407  26.5849209
  77.5224227 144.4875302  28.0584105  81.7887797 145.0088131  24.6417505
  81.1038835 145.3887032  24.0914538  81.8731646 145.6183457  25.3749453
  77.0900266 136.1109477  32.5635583  76.8461198 136.8651538  32.0269859
  77.3660196 136.4894825  33.3982830  79.0438729 142.6548090  31.2412848
  79.2555624 143.2979849  30.5647229  78.9968477 141.8210406  30.7734778
  76.6464958 135.2665910  28.1449421  75.7849437 135.5647164  28.4366158
  76.6727392 135.4836309  27.2130453  73.4626527 143.8108101  24.5523226
  73.9264873 144.0895804  23.7627849  73.1983325 142.9091545  24.3696317
  70.3550608 143.3579582  27.4902989  70.9251965 143.7866851  26.8520474
  70.9458720 143.0762167  28.1887175  72.3995413 139.9331253  21.3612791
  73.1019456 140.3852297  21.8286718  72.0676042 139.2915072  21.9892684
  70.8475775 138.5243010  35.7364001  70.2174435 139.2059291  35.9699398
  70.7411862 138.4126091  34.7917139  66.1420747 138.1914806  26.6629925
  65.3519801 138.4472334  26.1870036  66.6331994 139.0063144  26.7681965
  80.1584557 145.5320045  29.4135206  80.9802000 145.1300232  29.1317887
  80.1546959 145.4288279  30.3651322  68.0935492 138.5559385  23.6213402
  67.2966656 138.6678079  24.1396897  67.8661085 138.8946037  22.7554292
  73.9241160 145.0804088  31.5695916  73.9885593 145.5424496  32.4054088
  73.2152084 144.4501453  31.6978226  64.4258450 138.4445296  29.0944916
  64.6766488 139.3292306  29.3602492  64.9617998 138.2649898  28.3220008
  88.2490550 141.8758793  25.7620177  87.4954258 141.3066192  25.6064182
  88.3838091 141.8421458  26.7090812  73.6389178 146.7472196  21.4374897
  73.5034852 147.5923732  21.8659744  74.1798990 146.9491473  20.6740830
  70.1256517 132.8263776  38.0989252  69.7323463 132.2729974  38.7736896
  70.9422658 133.1374354  38.4895769  67.0918575 144.2647634  22.0102822
  67.6043096 145.0590884  22.1608386  67.7441288 143.5673924  21.9436423
  68.9013460 147.3813390  24.0925575  69.0780088 148.3031355  23.9046559
  69.6970293 147.0671809  24.5219955  73.0424478 134.2421655  35.6909508
  73.7834192 134.8428808  35.6113971  73.2742401 133.4999293  35.1327551
  68.1865816 139.4278022  33.9687738  68.0719331 138.5263279  34.2694837
  67.3310334 139.6741719  33.6172555  75.2657654 147.3695762  35.5675239
  74.8221508 146.5832141  35.2496143  75.9274868 147.5574913  34.9019129
  70.0244775 148.8991564  30.0935917  70.5752200 148.7708627  29.3212911
  69.1856251 149.1986453  29.7430810  77.3638892 147.6498562  33.5956640
  77.3457367 148.4707443  33.1036909  78.2858812 147.5252637  33.8206781
  73.8211946 145.1642692  34.4380148  74.3540283 144.4030980  34.2079456
  73.2926027 144.8716344  35.1804303  76.9881641 130.2702758  29.9673790
  76.6445911 131.1604399  29.8912901  77.3560604 130.0804415  29.1043375
  65.0567492 142.5936288  22.7862392  65.8942714 143.0033296  22.5696100
  65.2345760 141.6535730  22.7562586  76.9531924 140.2611369  18.4746225
  76.4378547 141.0315973  18.7134613  76.6809232 139.5876505  19.0979287
  74.5379035 135.1061070  23.5331464  73.6820631 134.7167920  23.3537102
  74.9505987 135.1853030  22.6731249  76.0678182 132.6407413  27.9323023
  75.5642977 132.6037548  27.1190829  76.3608789 133.5500156  27.9919680
  72.3121068 132.7246143  26.9389205  73.1774064 132.5288951  26.5795094
  72.3798576 132.4956494  27.8658562  76.7418227 138.1338461  20.3006006
  76.4368363 138.4484610  21.1516150  77.6948669 138.2119881  20.3433339
  75.1864659 144.2928684  21.9498960  74.6586021 143.5581444  21.6372198
  74.6852162 145.0703361  21.7038929  80.1657505 142.4877705  27.0666007
  79.5081179 143.1776966  27.1546135  80.9697904 142.8774137  27.4099993
  69.9183387 134.9548350  24.3105572  70.4927138 134.7323532  23.5778765
  70.5054369 135.0237045  25.0634173  78.9762964 140.8422077  25.1169948
  79.4894846 141.4752069  25.6191658  79.6264188 140.2423273  24.7513308
  70.2452974 136.9852811  18.3301457  69.4090286 137.3227498  18.6510732
  70.1057743 136.8501791  17.3928594  72.2206054 131.8289599  23.0380641
  71.5670467 131.5138617  22.4137256  72.1786528 131.2065340  23.7640464
  75.4543795 138.3171533  27.3628289  74.5366356 138.5386480  27.2049977
  75.8703938 138.3917843  26.5039996  76.2378842 139.7162949  22.4930969
  76.9850661 140.2284346  22.1838091  76.5070432 139.3947001  23.3535363
  74.5105493 142.2121489  19.4757923  73.6016712 141.9280522  19.5730393
  74.5400576 142.6320568  18.6161230  79.7424760 145.8228079  23.2449091
  79.2887087 144.9818989  23.3014281  79.1118727 146.4589477  23.5823871
  78.6857680 136.7520065  24.4749758  77.9480436 136.2397451  24.8060001
  78.9384453 136.3120446  23.6633035  78.1857699 147.6604575  24.1798909
  78.4780674 148.2209633  23.4611275  78.6956320 147.9533136  24.9352068
  78.7869307 129.5296317  25.0691528  79.0928184 128.6693680  24.7817443
  79.5121912 130.1213937  24.8690522  65.0793663 139.9327003  23.4573126
  64.8818063 139.3396364  22.7324192  64.5240327 139.6279214  24.1749064
  73.0590387 139.8250110  25.5767719  73.1138996 138.8723946  25.5010195
  72.2481589 139.9809549  26.0609017  70.9982747 138.4427170  23.3358098
  70.1850612 138.7421340  23.7423290  71.4941741 138.0482858  24.0532580
  73.1491324 148.4384927  25.2692362  73.1067503 148.6645773  24.3400894
  74.0654023 148.2048301  25.4178163  76.5956958 138.9068994  32.1672992
  76.9506346 139.1340467  33.0267457  77.2429089 139.2387371  31.5450247
  82.3254695 142.0287430  22.8722321  82.1872594 142.2189026  21.9443510
  81.9690914 142.7906813  23.3290372  70.4896821 136.0145525  28.9519333
  71.1296201 135.8734284  28.2542296  69.6574352 135.7280039  28.5757935
  82.3524075 144.0963957  27.8833592  82.7860581 144.0039246  28.7316646
  83.0655655 144.0721457  27.2453608  71.2657125 145.3147956  25.0654325
  72.0597724 144.8198276  24.8636900  70.5548818 144.7865819  24.7022031
  76.0851970 147.6966051  29.4166693  76.1388992 148.2656987  30.1844409
  75.2166751 147.8667936  29.0520730  67.5739889 139.4591037  21.1414078
  66.6437477 139.3975493  21.3584040  67.6697361 138.9366990  20.3450719
  67.4925438 135.9845850  23.7292319  67.7532255 136.8991183  23.6201480
  68.3142610 135.5170293  23.8788932  68.9650363 137.3983607  30.8991144
  69.6373416 137.1900969  30.2503793  68.1380150 137.2005693  30.4596376
  83.2139624 144.1387658  30.4166477  83.4075514 145.0433468  30.6625752
  83.1140243 143.6795077  31.2505063  74.8675935 134.0245548  32.9156805
  74.2203850 134.7235498  32.8221281  75.6376950 134.4581692  33.2833053
  78.2754733 144.2894400  35.9907358  78.1240239 144.0604952  35.0737442
  78.2659413 145.2465002  36.0038703  75.0440069 141.8626313  30.9753625
  75.9732129 142.0137473  30.8022592  74.6231099 141.9510334  30.1202271
  73.8428401 145.8876978  28.7452162  73.7039487 145.5195762  29.6178100
  73.0542997 146.4024617  28.5736120  75.3933616 145.2658580  26.1341000
  75.0583449 145.2259350  27.0298650  74.8937562 144.6003296  25.6611410
  69.3677860 140.6726210  31.6593581  69.2297658 139.9406449  32.2605120
  70.2782784 140.5835110  31.3777769  71.9960161 140.3846170  31.1477261
  72.7059780 139.7439362  31.1063879  71.9529469 140.6359064  32.0703442
  79.9846940 147.3213523  34.0683840  79.9259486 146.6372743  33.4014423
  80.3866458 148.0632513  33.6164466  70.7089095 137.3711388  32.9672900
  70.1726452 136.9202126  33.6194497  70.1205803 137.5057296  32.2243365
  69.0037638 154.1375437  26.8617559  69.2434237 154.7693961  27.5396577
  68.1606835 153.7863477  27.1482918  70.1191354 136.8300039  15.5299364
  69.2420820 136.7088840  15.1661611  70.5949107 136.0386117  15.2778253
  79.9864347 145.2853107  32.2997820  79.0991126 144.9479029  32.4224219
  80.5562898 144.5536138  32.5366585  61.6393494 141.6177199  25.6240871
  62.3264534 141.3038929  25.0361886  61.4841623 142.5218563  25.3508122
  66.4428216 136.5067395  30.0525895  66.3586405 135.8993065  29.3176305
  65.6210923 136.9976414  30.0535391  73.5165500 149.9454559  29.2659063
  73.4435672 150.7509531  29.7778367  73.0742893 150.1446525  28.4407084
  73.3055280 149.1826329  22.7761884  72.5222802 149.7248009  22.8700109
  74.0048025 149.7000309  23.1756126  76.6151930 134.9920959  25.4196090
  77.1120630 134.2390921  25.0997160  75.8438912 135.0285275  24.8539299
  84.4681687 140.6961324  27.0614381  84.4571564 141.5786040  26.6908314
  83.5999067 140.3432875  26.8668918  75.9764184 149.8441393  31.4217221
  76.6892156 150.4788858  31.3493123  75.4854213 149.9405259  30.6057223
  77.6981711 143.7492646  22.9934513  76.7637990 143.8694108  22.8239217
  77.8758379 142.8465113  22.7294523  73.1986899 137.1338342  25.1467774
  72.8284686 136.5809382  25.8348680  73.6945991 136.5296475  24.5942774
  81.0854262 139.5909965  23.5284547  81.5514714 140.4237957  23.4544850
  81.5361763 139.1254947  24.2329806  71.0276097 147.5935837  32.2422792
  71.7285557 148.2272320  32.3952187  70.5571212 147.9350568  31.4818432
  79.1530493 145.9353787  20.5270699  79.4290337 145.8210381  21.4364573
  78.2834992 145.5371271  20.4882872  79.0570925 131.9590552  27.5675449
  78.1434005 132.1894779  27.7357656  79.4864026 132.0428996  28.4189481
  78.8277383 140.1480444  30.0675343  78.1748834 140.3956352  29.4127795
  79.2057763 139.3344582  29.7337820  75.7884557 150.1840137  24.1703513
  75.9706952 149.3661793  24.6331265  76.6117543 150.4007830  23.7328403
  74.8764956 140.8900255  36.5541380  74.2005593 140.7894385  37.2243755
  75.6992590 140.7339469  37.0177377  66.6243815 147.1272192  29.1753895
  67.2097252 146.3815880  29.3081799  66.4268654 147.4376149  30.0590559
  69.4782471 150.1623439  24.1916337  68.8092846 150.6469567  23.7080377
  69.3395340 150.4092660  25.1059716  61.2161470 139.6977792  27.8958338
  61.2545570 139.1641383  28.6895456  60.7101763 139.1712998  27.2769315
  73.6187739 152.1967183  30.7898996  74.1706047 152.3598804  31.5548081
  73.9593933 152.7871621  30.1179021  68.5952232 134.5442333  31.3920880
  68.6593559 135.4057163  30.9798278  68.5319353 133.9316334  30.6593239
  68.0704505 136.6165465  35.0393915  68.6976544 136.2342542  35.6531439
  67.2132424 136.3979667  35.4049607  78.4698614 147.0228440  36.6447650
  79.0138518 147.6358398  36.1502605  77.8885458 147.5808019  37.1614663
  64.8470048 138.4241894  20.9712270  65.1423489 137.5152573  20.9179323
  63.9458084 138.4029634  20.6493272  76.7556127 150.1449158  27.7762678
  76.6307266 149.3438898  27.2673623  77.4135218 150.6395352  27.2876648
  68.3764295 136.4997891  26.9539818  67.6550881 137.1133858  26.8147291
  69.1657551 137.0355656  26.8756464  78.8191035 147.9458178  29.4042228
  77.8721370 147.8263530  29.3320555  79.1673808 147.0580676  29.4868489
  71.1790608 133.8352317  33.2280470  71.7025010 134.0814614  33.9906779
  70.9602942 134.6672352  32.8083607  66.5757889 136.1055992  21.0951595
  66.2470596 135.2253371  20.9126701  66.9297260 136.0503661  21.9827984
  75.8237468 147.7410895  25.6046580  75.6762431 146.8127602  25.7854150
  76.6490962 147.7630985  25.1203655  69.6899713 136.3928962  21.4627072
  70.0295785 136.9214883  20.7405681  70.1371833 136.7309368  22.2385639
  79.4271590 148.5639453  26.6911453  80.3518138 148.3582315  26.5535904
  79.2586893 148.3155854  27.6000794  72.3843153 134.7766012  30.9130140
  72.0439974 133.9773825  31.3150820  71.6782160 135.0767723  30.3406974
  73.0359625 131.8615325  29.3657463  73.8585694 131.3875803  29.2436354
  73.2797689 132.6405809  29.8656150  71.6767860 134.8903583  19.6620365
  72.3976222 135.2684836  19.1584082  71.0533164 135.6092460  19.7655343
  75.8198983 135.5948732  20.5978697  76.0362597 136.4773370  20.2967526
  75.3393050 135.2034946  19.8684339  70.5598204 138.5534445  27.1749442
  70.4142785 138.8674748  28.0673724  70.0823408 139.1719346  26.6220341
  72.4194587 135.5436993  27.2230332  72.4056156 134.6478087  26.8862630
  73.1367015 135.5507657  27.8568618  74.2720718 135.9774334  29.2683459
  74.0138495 136.8991404  29.2667789  73.7405758 135.5804768  29.9583923
  65.0343866 141.0939790  30.1137103  64.4897334 141.8699598  30.2457378
  65.9123216 141.4410594  29.9556225  71.8231483 134.4251374  22.4917902
  71.9447394 133.4968020  22.6908789  71.5333525 134.4390060  21.5796217
  74.6922673 132.1106284  25.6284622  74.7144370 132.1745617  24.6736601
  75.1090732 131.2710793  25.8225128  85.0706297 141.8461544  23.6663844
  85.5137443 141.0968869  23.2682967  84.1932808 141.8371680  23.2837576
  65.8209888 140.2209686  33.0067260  65.0791624 140.3692321  33.5931891
  65.5002632 140.4817952  32.1434010  73.7653551 149.7625664  32.8047650
  74.0740677 149.5174811  33.6770350  74.5629033 149.9672303  32.3166520
  73.7874163 151.9163574  25.0353027  73.3479153 151.4239953  25.7285883
  74.5382280 151.3736542  24.7945102  66.2666502 148.1075115  25.0377655
  67.0924522 147.8078887  24.6576298  65.9160554 147.3382737  25.4867443
  71.2348035 147.4601583  27.1075328  70.6128044 146.7972288  26.8077556
  71.9052902 147.4862715  26.4248976  64.4675107 146.0261441  25.9966588
  63.6307015 145.5983616  25.8150590  64.4398752 146.2193885  26.9337380
  71.3072562 135.9383371  36.7007834  71.3560718 136.8145494  36.3185604
  71.8495076 135.3960764  36.1279478  81.7927408 146.4824494  35.9808971
  81.0022952 146.4648633  35.4413471  81.5560763 147.0212788  36.7358008
  81.9125283 143.3316961  33.2941700  81.9623288 143.1666968  34.2357223
  81.8039206 142.4644220  32.9039581  70.7961542 146.0105506  20.5833789
  70.9449662 146.6940971  19.9300462  71.6027985 145.9910596  21.0983245
  79.2029045 139.3147889  34.6101007  80.1038908 139.1754354  34.3185004
  79.2777020 139.4802344  35.5499184  73.5371851 136.6914743  33.4554193
  72.6675160 136.9848310  33.1836782  73.7731331 137.2755188  34.1761457
  83.4143480 145.7513902  33.5383722  83.1228288 146.1143883  34.3747182
  82.8015611 145.0380910  33.3597054  84.6139162 143.3166782  26.0586292
  85.4486054 143.7556586  26.2223852  84.7498291 142.8405435  25.2394538
  81.6630668 140.8746517  32.0063779  82.1384790 141.0674163  31.1982631
  80.7396233 140.9305703  31.7607163  68.5514175 142.0370684  21.5894858
  68.3060217 141.1333014  21.7875068  68.7210089 142.0387834  20.6474336
  76.2410885 132.9094360  30.9719613  76.7592828 133.6455387  30.6466102
  75.8866017 133.2158354  31.8066373  67.8209822 137.7699042  19.0881019
  67.1279067 137.8443397  18.4321055  67.5761574 137.0059385  19.6102536
  76.4923479 129.3294643  26.4920510  76.7725232 128.6617832  27.1180937
  77.2774086 129.5223739  25.9795174  80.3632337 137.7512277  30.2392085
  81.3149760 137.8510375  30.2604309  80.1935787 136.9590545  30.7490169
  78.3846717 134.8367860  30.4251486  77.7896649 135.1172873  29.7297975
  78.0996413 135.3261761  31.1968227  82.8420415 140.9718397  29.3534385
  82.8096735 140.0334397  29.5394069  83.4521039 141.0502433  28.6200210
  74.6803746 139.8414450  15.3961589  75.6262850 139.7120658  15.4650007
  74.3017991 139.1029111  15.8731017  82.9914903 137.7629440  29.3992668
  82.4753952 136.9787897  29.2122597  83.8754852 137.4348157  29.5639187
  80.6525630 131.5070456  25.3588481  80.4550451 131.1985544  26.2431813
  81.2625336 132.2332095  25.4886410  88.6596965 142.0334403  28.4940422
  89.3900353 141.7719692  29.0548125  88.0503910 141.2963125  28.5342490
  86.7412262 140.1742266  29.0914873  86.0145425 140.0398231  28.4831364
  86.3259549 140.4819095  29.8971591  74.5642438 143.8932196  36.8562246
  75.4845448 144.0710795  37.0502292  74.5292021 142.9488241  36.7041945
  72.8646663 137.7664426  15.3316474  71.9578118 137.4697539  15.4079188
  73.1422644 137.4694244  14.4650760  63.7824603 139.0870789  25.7815520
  63.4627388 138.2336098  25.4889894  63.2358031 139.3019368  26.5373488
  67.5604511 141.8033230  29.4985027  67.7790521 142.7350338  29.5173061
  67.9730285 141.4441205  30.2839831  74.4808729 132.3101316  21.4860715
  73.6709457 131.9648401  21.8615961  75.1693146 132.0008859  22.0748327
  76.4099277 131.3879362  23.1085012  76.9630315 131.8074816  23.7675035
  76.6469363 130.4615111  23.1507968  72.4332376 137.3766436  38.8887776
  72.3329103 138.3260793  38.8199867  72.2153918 137.0484675  38.0163846
  71.6345448 134.6251361  15.4728453  72.4964611 134.9506259  15.7324271
  71.8195792 133.8382857  14.9601519  63.6512863 142.7073701  27.7508642
  62.9576335 142.2927654  27.2378596  64.3985854 142.7494237  27.1542061
  79.7878084 133.4979888  22.6163676  79.2076753 134.1564692  22.2341729
  79.5214017 132.6757232  22.2051094  78.2381650 132.8984945  24.8184997
  78.7381429 133.0101480  24.0099315  78.8817258 132.5945998  25.4585805
  72.2963646 140.8063575  37.7052838  71.8130728 141.6063935  37.9116727
  72.3824585 140.8171520  36.7520282  65.5649606 142.6391955  25.6274657
  65.5420294 142.7379642  24.6756540  65.8750242 143.4857105  25.9491823
  68.2236984 144.6968110  29.7421271  69.1780237 144.6652052  29.6751203
  68.0249507 144.2358733  30.5571497  68.8136366 143.2669226  32.3092069
  69.6329255 143.7613304  32.3326906  69.0873173 142.3501194  32.2809636
  78.5702962 135.6579978  21.6720024  77.6828817 135.9429629  21.4540219
  78.9856951 135.4973741  20.8247301  81.9217498 135.6826499  25.3874364
  82.6977888 136.1722951  25.6598981  81.1965632 136.1084553  25.8446233
  84.3590057 136.3954118  26.4448304  84.9534548 136.1549854  25.7341613
  84.4316640 135.6761249  27.0721841  66.5787212 150.2387729  26.7591469
  66.4441680 149.4788130  26.1929467  66.1619275 150.9628629  26.2920258
  78.5443986 141.1734514  21.8870315  78.4879187 141.6303065  21.0477947
  79.0972328 140.4125199  21.7093157  82.3548792 136.9624246  22.7120434
  82.0985726 136.5620881  23.5428642  81.7301660 137.6768040  22.5870573
  86.6661130 139.7020319  25.2191726  86.1060687 139.7713508  25.9923288
  86.0604633 139.5261304  24.4991222  69.7356338 151.1357046  26.9709912
  69.6188722 152.0802479  26.8688602  68.9148785 150.8330608  27.3595711
  79.2778765 142.3639295  19.1822844  79.2227569 142.1983567  18.2411288
  78.6524820 143.0715328  19.3385034  64.0671280 137.6007360  33.0084266
  64.7130144 137.0906314  33.4971491  63.8588431 138.3376041  33.5827691
  76.5924672 144.6688207  38.5076407  77.4615832 144.8428859  38.1463042
  76.1131424 145.4882624  38.3852136  72.5874891 131.8647404  18.7608162
  72.5753560 132.8089244  18.9176433  73.4798312 131.6817550  18.4667623
  70.7610852 151.7885308  30.1865840  71.6638099 151.8208918  30.5032335
  70.5348223 150.8585759  30.2012176  72.5164454 150.5416295  26.8475919
  71.5660085 150.5418156  26.7340291  72.8196941 149.7949029  26.3311953
  76.4027010 128.4590181  23.0154099  75.6359406 127.9048668  23.1610781
  76.8137715 128.5312050  23.8768251  68.4068771 134.7474977  37.1059280
  69.2700233 134.3911781  37.3162605  67.8334182 134.4088871  37.7934685
  85.5426637 157.4839113  33.8069411  85.5315278 157.0891911  32.9349915
  85.7047277 156.7505185  34.4003183  82.2633898 160.2676225  32.7548595
  81.9723764 161.1721855  32.6395262  82.8990883 160.3092752  33.4692665
  90.7292264 147.7525094  30.3502476  90.3975589 148.6220505  30.1263691
  90.1337877 147.4361378  31.0296507  78.0345076 156.0484711  26.6178883
  78.1637457 156.3019189  27.5318294  77.3542527 156.6412419  26.2983538
  84.6961793 153.8909826  35.3730724  83.9195127 154.4503746  35.3633588
  85.3352356 154.3766609  35.8945594  92.4882574 150.6736619  29.2073700
  91.8456954 150.9669152  28.5613495  91.9837502 150.5589539  30.0126897
  82.9508165 156.6995279  34.9348691  83.6922850 157.2380323  34.6583514
  82.2445151 157.3261568  35.0920243  88.4263505 158.8424420  33.5320852
  88.8346861 158.4006830  32.7875485  87.7040766 158.2677047  33.7855045
  84.7794575 153.7797027  30.9054409  85.6255770 154.2036440  31.0489058
  84.7193213 153.1230651  31.5992972  87.9294020 151.4401395  32.5635583
  87.6854952 152.1943455  32.0269859  88.2053951 151.8186742  33.3982830
  87.4858712 150.5957828  28.1449421  86.6243191 150.8939081  28.4366158
  87.5121147 150.8128227  27.2130453  81.6869529 153.8534927  35.7364001
  81.0568190 154.5351208  35.9699398  81.5805617 153.7418009  34.7917139
  76.9814502 153.5206723  26.6629925  76.1913555 153.7764252  26.1870036
  77.4725749 154.3355061  26.7681965  84.7634915 160.4096006  31.5695916
  84.8279347 160.8716413  32.4054088  84.0545838 159.7793371  31.6978226
  75.2652204 153.7737214  29.0944916  75.5160243 154.6584224  29.3602492
  75.8011753 153.5941815  28.3220008  80.9650272 148.1555693  38.0989252
  80.5717217 147.6021892  38.7736896  81.7816412 148.4666272  38.4895769
  83.8818233 149.5713572  35.6909508  84.6227946 150.1720726  35.6113971
  84.1136156 148.8291210  35.1327551  79.0259571 154.7569940  33.9687738
  78.9113086 153.8555197  34.2694837  78.1704089 155.0033636  33.6172555
  86.1051409 162.6987680  35.5675239  85.6615263 161.9124059  35.2496143
  86.7668622 162.8866830  34.9019129  84.6605701 160.4934609  34.4380148
  85.1934038 159.7322898  34.2079456  84.1319782 160.2008261  35.1804303
  87.8275396 145.5994675  29.9673790  87.4839665 146.4896317  29.8912901
  88.1954358 145.4096333  29.1043375  86.9071936 147.9699330  27.9323023
  86.4036732 147.9329466  27.1190829  87.2002543 148.8792073  27.9919680
  83.1514822 148.0538060  26.9389205  84.0167819 147.8580869  26.5795094
  83.2192331 147.8248412  27.8658562  80.7577141 150.2840268  24.3105572
  81.3320893 150.0615450  23.5778765  81.3448124 150.3528963  25.0634173
  83.0599809 147.1581517  23.0380641  82.4064221 146.8430534  22.4137256
  83.0180283 146.5357258  23.7640464  89.6263061 144.8588235  25.0691528
  89.9321938 143.9985598  24.7817443  90.3515666 145.4505855  24.8690522
  87.4350713 154.2360912  32.1672992  87.7900100 154.4632385  33.0267457
  88.0822844 154.5679289  31.5450247  81.3290576 151.3437443  28.9519333
  81.9689955 151.2026202  28.2542296  80.4968106 151.0571956  28.5757935
  79.8044118 152.7275525  30.8991144  80.4767171 152.5192887  30.2503793
  78.9773904 152.5297611  30.4596376  85.7069690 149.3537466  32.9156805
  85.0597605 150.0527416  32.8221281  86.4770705 149.7873610  33.2833053
  89.1148488 159.6186318  35.9907358  88.9633994 159.3896870  35.0737442
  89.1053167 160.5756920  36.0038703  85.8833824 157.1918231  30.9753625
  86.8125884 157.3429390  30.8022592  85.4624854 157.2802252  30.1202271
  80.2071615 156.0018128  31.6593581  80.0691413 155.2698367  32.2605120
  81.1176538 155.9127028  31.3777769  82.8353915 155.7138087  31.1477261
  83.5453534 155.0731280  31.1063879  82.7923224 155.9650982  32.0703442
  81.5482849 152.7003305  32.9672900  81.0120206 152.2494044  33.6194497
  80.9599558 152.8349214  32.2243365  72.4787249 156.9469116  25.6240871
  73.1658288 156.6330846  25.0361886  72.3235377 157.8510481  25.3508122
  77.2821971 151.8359313  30.0525895  77.1980159 151.2284982  29.3176305
  76.4604677 152.3268331  30.0535391  81.8669852 162.9227754  32.2422792
  82.5679311 163.5564237  32.3952187  81.3964967 163.2642486  31.4818432
  89.8964679 147.2882470  27.5675449  88.9827759 147.5186697  27.7357656
  90.3257781 147.3720914  28.4189481  85.7158711 156.2192173  36.5541380
  85.0399348 156.1186302  37.2243755  86.5386345 156.0631387  37.0177377
  77.4637570 162.4564109  29.1753895  78.0491007 161.7107797  29.3081799
  77.2662408 162.7668066  30.0590559  72.0555225 155.0269710  27.8958338
  72.0939324 154.4933300  28.6895456  71.5495518 154.5004915  27.2769315
  79.4345987 149.8734250  31.3920880  79.4987313 150.7349081  30.9798278
  79.3713107 149.2608252  30.6593239  78.9098260 151.9457383  35.0393915
  79.5370298 151.5634460  35.6531439  78.0526178 151.7271585  35.4049607
  89.3092368 162.3520358  36.6447650  89.8532272 162.9650316  36.1502605
  88.7279213 162.9099936  37.1614663  79.2158049 151.8289808  26.9539818
  78.4944635 152.4425776  26.8147291  80.0051305 152.3647573  26.8756464
  82.0184363 149.1644235  33.2280470  82.5418765 149.4106531  33.9906779
  81.7996696 149.9964270  32.8083607  83.2236908 150.1057930  30.9130140
  82.8833728 149.3065743  31.3150820  82.5175914 150.4059641  30.3406974
  83.8753380 147.1907242  29.3657463  84.6979449 146.7167721  29.2436354
  84.1191443 147.9697726  29.8656150  81.3991958 153.8826363  27.1749442
  81.2536539 154.1966666  28.0673724  80.9217162 154.5011263  26.6220341
  83.2588341 150.8728911  27.2230332  83.2449910 149.9770004  26.8862630
  83.9760769 150.8799575  27.8568618  85.1114472 151.3066251  29.2683459
  84.8532250 152.2283322  29.2667789  84.5799512 150.9096686  29.9583923
  75.8737621 156.4231707  30.1137103  75.3291089 157.1991515  30.2457378
  76.7516970 156.7702512  29.9556225  85.5316428 147.4398202  25.6284622
  85.5538124 147.5037535  24.6736601  85.9484487 146.6002710  25.8225128
  76.6603642 155.5501604  33.0067260  75.9185378 155.6984239  33.5931891
  76.3396387 155.8109869  32.1434010  82.1466317 151.2675289  36.7007834
  82.1954472 152.1437412  36.3185604  82.6888831 150.7252682  36.1279478
  92.6321162 161.8116412  35.9808971  91.8416706 161.7940551  35.4413471
  92.3954517 162.3504706  36.7358008  92.7519037 158.6608878  33.2941700
  92.8017042 158.4958886  34.2357223  92.6432961 157.7936137  32.9039581
  90.0422800 154.6439806  34.6101007  90.9432663 154.5046271  34.3185004
  90.1170774 154.8094261  35.5499184  84.3765605 152.0206661  33.4554193
  83.5068915 152.3140227  33.1836782  84.6125086 152.6047106  34.1761457
  87.0804639 148.2386278  30.9719613  87.5986583 148.9747305  30.6466102
  86.7259772 148.5450271  31.8066373  87.3317233 144.6586561  26.4920510
  87.6118987 143.9909750  27.1180937  88.1167840 144.8515656  25.9795174
  91.2026092 153.0804195  30.2392085  92.1543514 153.1802292  30.2604309
  91.0329542 152.2882463  30.7490169  89.2240471 150.1659778  30.4251486
  88.6290403 150.4464791  29.7297975  88.9390168 150.6553679  31.1968227
  85.4036193 159.2224113  36.8562246  86.3239202 159.4002712  37.0502292
  85.3685776 158.2780159  36.7041945  74.6218358 154.4162707  25.7815520
  74.3021142 153.5628015  25.4889894  74.0751786 154.6311285  26.5373488
  78.3998265 157.1325148  29.4985027  78.6184275 158.0642256  29.5173061
  78.8124039 156.7733122  30.2839831  83.2726131 152.7058354  38.8887776
  83.1722858 153.6552711  38.8199867  83.0547673 152.3776593  38.0163846
  74.4906618 158.0365619  27.7508642  73.7970089 157.6219571  27.2378596
  75.2379609 158.0786155  27.1542061  83.1357401 156.1355493  37.7052838
  82.6524482 156.9355853  37.9116727  83.2218340 156.1463438  36.7520282
  79.0630738 160.0260027  29.7421271  80.0173992 159.9943970  29.6751203
  78.8643262 159.5650651  30.5571497  79.6530120 158.5961143  32.3092069
  80.4723009 159.0905222  32.3326906  79.9266928 157.6793112  32.2809636
  74.9065035 152.9299277  33.0084266  75.5523898 152.4198231  33.4971491
  74.6982186 153.6667959  33.5827691  87.4318427 159.9980125  38.5076407
  88.3009586 160.1720777  38.1463042  86.9525178 160.8174542  38.3852136
  87.2420764 143.7882099  23.0154099  86.4753160 143.2340585  23.1610781
  87.6531469 143.8603967  23.8768251  79.2462526 150.0766894  37.1059280
  80.1093987 149.7203699  37.3162605  78.6727936 149.7380789  37.7934685
  91.8044026 163.4847611  38.0989252  91.4110972 162.9313810  38.7736896
  92.6210167 163.7958189  38.4895769  90.0856280 165.4058812  37.1059280
  90.9487742 165.0495617  37.3162605  89.5121691 165.0672707  37.7934685
  31.3457866  57.8441647  20.5314718  31.3346507  57.4494445  19.6595222
  31.5078506  57.1107720  21.1248490  28.0665127  60.6278759  19.4793902
  27.7754993  61.5324390  19.3640568  28.7022112  60.6695286  20.1937972
  33.0255012  60.3140174  16.4743696  32.7255735  61.2165213  16.3659503
  32.6806072  60.0472358  17.3264849  30.4993022  54.2512360  22.0976030
  29.7226356  54.8106280  22.0878895  31.1383585  54.7369143  22.6190901
  28.7539394  57.0597813  21.6593997  29.4954079  57.5982857  21.3828821
  28.0476380  57.6864102  21.8165549  34.2294734  59.2026954  20.2566159
  34.6378090  58.7609364  19.5120791  33.5071995  58.6279581  20.5100352
  30.5825804  54.1399561  17.6299716  31.4286999  54.5638974  17.7734365
  30.5224441  53.4833185  18.3238279  34.5523548  59.7628145  14.0118448
  33.9232411  59.9273859  13.3094516  34.1649211  60.1769754  14.7829412
  38.4312780  60.6982582  11.3662812  37.7463818  61.0781484  10.8159845
  38.5156630  61.3077909  12.0994759  33.7325249  51.8003929  19.2880889
  33.4886181  52.5545990  18.7515165  34.0085180  52.1789277  20.1228137
  35.6863712  58.3442541  17.9658155  35.8980607  58.9874301  17.2892536
  35.6393460  57.5104858  17.4980085  27.4900758  54.2137462  22.4609307
  26.8599418  54.8953743  22.6944704  27.3836846  54.1020543  21.5162446
  36.8009540  61.2214497  16.1380512  37.6226984  60.8194684  15.8563194
  36.7971943  61.1182731  17.0896628  30.5666143  60.7698540  18.2941223
  30.6310576  61.2318947  19.1299395  29.8577067  60.1395905  18.4223533
  44.8915533  57.5653245  12.4865484  44.1379241  56.9960643  12.3309488
  45.0263074  57.5315910  13.4336119  26.7681501  48.5158228  24.8234558
  26.3748446  47.9624426  25.4982203  27.5847641  48.8268806  25.2141076
  29.6849462  49.9316107  22.4154815  30.4259175  50.5323260  22.3359277
  29.9167384  49.1893744  21.8572858  24.8290800  55.1172474  20.6933045
  24.7144315  54.2157731  20.9940144  23.9735317  55.3636171  20.3417861
  31.9082637  63.0590214  22.2920545  31.4646492  62.2726593  21.9741450
  32.5699851  63.2469365  21.6264436  26.6669759  64.5886016  16.8181224
  27.2177184  64.4603079  16.0458218  25.8281234  64.8880905  16.4676117
  34.0063875  63.3393014  20.3201947  33.9882351  64.1601895  19.8282216
  34.9283795  63.2147089  20.5452088  30.4636930  60.8537144  21.1625455
  30.9965266  60.0925432  20.9324763  29.9351011  60.5610795  21.9049609
  36.8082488  58.1772157  13.7911313  36.1506163  58.8671418  13.8791442
  37.6122888  58.5668588  14.1345300  34.8282683  63.3499027  10.9044216
  35.1205657  63.9104084  10.1856581  35.3381303  63.6427588  11.6597375
  33.2381942  54.5963446  18.8918298  33.5931329  54.8234919  19.7512764
  33.8854073  54.9281823  18.2695553  38.9949058  59.7858409  14.6078899
  39.4285565  59.6933698  15.4561953  39.7080639  59.7615909  13.9698915
  32.7276953  63.3860503  16.1411999  32.7813975  63.9551439  16.9089715
  31.8591734  63.5562388  15.7766036  39.8564608  59.8282110  17.1411784
  40.0500498  60.7327920  17.3871059  39.7565226  59.3689529  17.9750369
  31.5100918  49.7140000  19.6402111  30.8628833  50.4129950  19.5466588
  32.2801934  50.1476144  20.0078360  34.9179716  59.9788852  22.7152665
  34.7665223  59.7499404  21.7982748  34.9084396  60.9359454  22.7284010
  31.6865053  57.5520765  17.6998931  32.6157113  57.7031925  17.5267898
  31.2656083  57.6404786  16.8447578  30.4853385  61.5771429  15.4697469
  30.3464470  61.2090214  16.3423407  29.6967981  62.0919069  15.2981427
  26.0102844  56.3620662  18.3838888  25.8722642  55.6300901  18.9850427
  26.9207767  56.2729562  18.1023075  28.6385144  56.0740622  17.8722567
  29.3484763  55.4333814  17.8309186  28.5954452  56.3253516  18.7948748
  36.6271923  63.0107975  20.7929147  36.5684469  62.3267195  20.1259730
  37.0291441  63.7526965  20.3409773  25.6462622  69.8269889  13.5862865
  25.8859220  70.4588413  14.2641884  24.8031818  69.4757929  13.8728225
  36.6289330  60.9747559  19.0243126  35.7416109  60.6373481  19.1469525
  37.1987881  60.2430590  19.2611892  30.1590484  65.6349011  15.9904369
  30.0860655  66.4403983  16.5023674  29.7167877  65.8340977  15.1652391
  41.1106671  56.3855776  13.7859688  41.0996547  57.2680492  13.4153621
  40.2424050  56.0327327  13.5914225  32.6189167  65.5335845  18.1462528
  33.3317139  66.1683310  18.0738430  32.1279196  65.6299711  17.3302530
  27.6701081  63.2830289  18.9668099  28.3710540  63.9166772  19.1197493
  27.1996196  63.6245020  18.2063738  35.4702367  55.8374896  16.7920649
  34.8173817  56.0850804  16.1373102  35.8482747  55.0239034  16.4583127
  32.4309541  65.8734589  10.8948820  32.6131935  65.0556245  11.3576572
  33.2542527  66.0902282  10.4573710  31.5189940  56.5794707  23.2786686
  30.8430577  56.4788836  23.9489062  32.3417574  56.4233921  23.7422684
  23.2668799  62.8166644  15.8999202  23.8522236  62.0710332  16.0327106
  23.0693637  63.1270600  16.7835866  30.2612723  67.8861635  17.5144302
  30.8131031  68.0493256  18.2793388  30.6018916  68.4766072  16.8424327
  24.7129488  52.3059917  21.7639221  25.3401527  51.9236994  22.3776746
  23.8557407  52.0874119  22.1294914  35.1123597  62.7122892  23.3692957
  35.6563501  63.3252850  22.8747912  34.5310442  63.2702471  23.8859970
  33.3981110  65.8343610  14.5007985  33.2732249  65.0333350  13.9918930
  34.0560201  66.3289803  14.0121955  35.4616018  63.6352630  16.1287535
  34.5146354  63.5157981  16.0565861  35.8098791  62.7475128  16.2113796
  32.4662452  63.4305346  12.3291887  32.3187414  62.5022054  12.5099457
  33.2915945  63.4525437  11.8448962  36.0696573  64.2533905  13.4156760
  36.9943121  64.0476767  13.2781211  35.9011877  64.0050306  14.3246101
  30.4078534  65.4520116  19.5292957  30.7165660  65.2069263  20.4015656
  31.2054016  65.6566755  19.0411827  30.4299146  67.6058026  11.7598333
  29.9904136  67.1134405  12.4531190  31.1807263  67.0630993  11.5190409
  27.9497546  51.6277823  23.4253141  27.9985701  52.5039946  23.0430911
  28.4920060  51.0855216  22.8524784  38.4352391  62.1718946  22.7054278
  37.6447935  62.1543085  22.1658777  38.1985746  62.7107240  23.4603315
  38.5550266  59.0211413  20.0187007  38.6048271  58.8561420  20.9602529
  38.4464190  58.1538672  19.6284887  35.8454029  55.0042341  21.3346313
  36.7463891  54.8648805  21.0430311  35.9202003  55.1696795  22.2744491
  30.1796834  52.3809195  20.1799500  29.3100143  52.6742761  19.9082088
  30.4156314  52.9649640  20.9006763  40.0568463  61.4408354  20.2629028
  39.7653271  61.8038335  21.0992489  39.4440594  60.7275362  20.0842360
  41.2564145  59.0061234  12.7831598  42.0911037  59.4451038  12.9469159
  41.3923274  58.5299887  11.9639844  38.3055651  56.5640969  18.7309086
  38.7809773  56.7568615  17.9227938  37.3821217  56.6200155  18.4852470
  37.0057320  53.4406729  16.9637392  37.9574743  53.5404826  16.9849616
  36.8360771  52.6484997  17.4735476  39.4845398  56.6612848  16.0779691
  39.4521718  55.7228849  16.2639375  40.0946022  56.7396885  15.3445516
  39.6339887  53.4523892  16.1237975  39.1178935  52.6682349  15.9367903
  40.5179835  53.1242609  16.2884494  45.3021948  57.7228855  15.2185728
  46.0325336  57.4614143  15.7793432  44.6928893  56.9857577  15.2587796
  43.3837245  55.8636718  15.8160179  42.6570409  55.7292683  15.2076671
  42.9684532  56.1713547  16.6216897  31.2067422  59.5826648  23.5807552
  32.1270431  59.7605247  23.7747599  31.1717005  58.6382693  23.4287252
  29.0757359  53.0660888  25.6133083  28.9754086  54.0155245  25.5445174
  28.8578901  52.7379127  24.7409153  28.9388629  56.4958027  24.4298144
  28.4555711  57.2958387  24.6362033  29.0249569  56.5065972  23.4765588
  24.8661967  60.3862562  16.4666578  25.8205221  60.3546504  16.3996510
  24.6674491  59.9253185  17.2816804  25.4561349  58.9563678  19.0337376
  26.2754238  59.4507756  19.0572213  25.7298157  58.0395646  19.0054943
  26.3781322  66.8251498  13.6955218  26.2613706  67.7696931  13.5933909
  25.5573768  66.5225060  14.0841018  33.2349656  60.3582659  25.2321713
  34.1040815  60.5323311  24.8708348  32.7556407  61.1777076  25.1097443
  27.4035836  67.4779760  16.9111147  28.3063082  67.5103370  17.2277642
  27.1773206  66.5480211  16.9257483  29.1589438  66.2310747  13.5721226
  28.2085069  66.2312608  13.4585598  29.4621924  65.4843481  13.0557260
  25.0493754  50.4369429  23.8304587  25.9125216  50.0806233  24.0407911
  24.4759165  50.0983323  24.5179991  44.8942131  72.0671285  14.6366988
  45.5320541  71.9478032  13.9330328  44.7762974  73.0152129  14.6954940
  41.7031838  72.0198713  14.5728513  41.3650349  71.9039778  13.6849047
  42.5721606  71.6189878  14.5529519  37.5618653  73.8734189  10.5625404
  36.9983518  73.7824126   9.7941691  37.4471048  73.0534094  11.0427896
  42.1851621  73.1733565  20.5314718  42.1740261  72.7786363  19.6595222
  42.3472260  72.4399637  21.1248490  35.1083085  75.3685381  13.4009624
  35.9004377  75.0276206  12.9855923  35.3479735  75.4780356  14.3211777
  43.1418212  77.5405157   5.8739868  42.4906192  78.1259238   5.4873882
  43.9362575  78.0711352   5.9334906  37.0673839  74.6294294   6.2727003
  37.8404715  74.0823281   6.1339879  37.4199238  75.4938544   6.4841464
  38.9058882  75.9570677  19.4793902  38.6148748  76.8616307  19.3640568
  39.5415866  75.9987204  20.1937972  39.8315089  73.3347525  16.0695262
  40.4278661  73.1103547  15.3552225  39.8890060  72.5932271  16.6720710
  44.4483400  69.7922739  11.7120196  45.2346489  69.3742162  11.3610613
  44.7122104  70.6968831  11.8801844  44.6193477  75.2295589   6.4108853
  43.9839310  75.3030216   7.1229757  44.2890884  75.8189188   5.7327932
  49.8491827  69.7297972  12.6153174  50.5816999  69.1597189  12.8491004
  49.0931183  69.3419572  13.0559680  39.1236406  72.6915066   6.1069828
  39.0072664  72.0159970   6.7750912  39.2338666  72.2047440   5.2901981
  41.4667947  72.1525213   9.8116517  41.1026154  71.6255834  10.5229438
  42.3235063  71.7623682   9.6383002  47.3717247  63.4419546  17.0747783
  47.0400572  64.3114957  16.8508998  46.7762861  63.1255830  17.7541813
  43.8648767  75.6432092  16.4743696  43.5649490  76.5457131  16.3659503
  43.5199826  75.3764275  17.3264849  37.3161248  72.0945889  12.5080400
  36.3911745  71.9622103  12.7158092  37.5645661  72.8740108  13.0050343
  47.2645911  68.1614632  14.1541133  46.3562788  68.0930041  13.8599894
  47.2133506  68.6386577  14.9822959  41.0862654  69.6372771   5.7924532
  40.9662280  70.0829821   6.6310013  40.3915243  69.9858088   5.2338070
  34.6770059  71.7379162  13.3424189  34.8062440  71.9913641  14.2563601
  33.9967511  72.3306870  13.0228844  38.8469547  82.4076412   9.4414663
  38.7693576  83.3584237   9.5203144  38.2431190  82.0622285  10.0989590
  41.3386776  69.5804278  22.0976030  40.5620110  70.1398198  22.0878895
  41.9777339  70.0661061  22.6190901  49.1307557  66.3631071  15.9319007
  48.4881937  66.6563604  15.2858802  48.6262485  66.2483991  16.7372204
  46.7847721  70.1094244   6.6204866  47.6965577  70.3421631   6.4452564
  46.2757368  70.6931288   6.0579945  39.5933149  72.3889731  21.6593997
  40.3347833  72.9274775  21.3828821  38.8870134  73.0156020  21.8165549
  45.0688488  74.5318872  20.2566159  45.4771844  74.0901282  19.5120791
  44.3465750  73.9571499  20.5100352  41.4219558  69.4691478  17.6299716
  42.2680754  69.8930892  17.7734365  41.3618196  68.8125103  18.3238279
  45.3917303  75.0920062  14.0118448  44.7626165  75.2565776  13.3094516
  45.0042965  75.5061672  14.7829412  49.2706535  76.0274500  11.3662812
  48.5857573  76.4073401  10.8159845  49.3550384  76.6369827  12.0994759
  44.5719004  67.1295847  19.2880889  44.3279936  67.8837907  18.7515165
  44.8478934  67.5081194  20.1228137  46.5257466  73.6734459  17.9658155
  46.7374362  74.3166219  17.2892536  46.4787215  72.8396776  17.4980085
  44.1283695  66.2852280  14.8694727  43.2668174  66.5833533  15.1611465
  44.1546130  66.5022679  13.9375760  40.9445265  74.8294470  11.2768533
  41.4083610  75.1082173  10.4873155  40.6802063  73.9277915  11.0941624
  37.8369346  74.3765952  14.2148296  38.4070703  74.8053220  13.5765781
  38.4277458  74.0948537  14.9132482  39.8814151  70.9517623   8.0858098
  40.5838194  71.4038666   8.5532024  39.5494779  70.3101442   8.7137991
  38.3294512  69.5429379  22.4609307  37.6993173  70.2245660  22.6944704
  38.2230600  69.4312461  21.5162446  33.6239485  69.2101175  13.3875232
  32.8338539  69.4658704  12.9115342  34.1150732  70.0249513  13.4927272
  47.6403294  76.5506415  16.1380512  48.4620738  76.1486602  15.8563194
  47.6365697  76.4474649  17.0896628  35.5754230  69.5745755  10.3458708
  34.7785393  69.6864449  10.8642204  35.3479822  69.9132407   9.4799599
  41.4059898  76.0990458  18.2941223  41.4704330  76.5610865  19.1299395
  40.6970822  75.4687823  18.4223533  31.9077188  69.4631666  15.8190222
  32.1585226  70.3478676  16.0847798  32.4436736  69.2836267  15.0465314
  55.7309287  72.8945163  12.4865484  54.9772996  72.3252561  12.3309488
  55.8656829  72.8607828  13.4336119  41.1207915  77.7658565   8.1620203
  40.9853590  78.6110101   8.5905051  41.6617728  77.9677843   7.3986137
  37.6075255  63.8450145  24.8234558  37.2142201  63.2916344  25.4982203
  38.4241395  64.1560724  25.2141076  34.5737313  75.2834003   8.7348128
  35.0861833  76.0777254   8.8853693  35.2260026  74.5860294   8.6681730
  36.3832198  78.3999760  10.8170881  36.5598826  79.3217724  10.6291865
  37.1789031  78.0858179  11.2465261  40.5243216  65.2608024  22.4154815
  41.2652929  65.8615177  22.3359277  40.7561139  64.5185662  21.8572858
  35.6684554  70.4464392  20.6933045  35.5538069  69.5449649  20.9940144
  34.8129072  70.6928088  20.3417861  42.7476392  78.3882132  22.2920545
  42.3040246  77.6018510  21.9741450  43.4093605  78.5761282  21.6264436
  37.5063513  79.9177933  16.8181224  38.0570938  79.7894997  16.0458218
  36.6674989  80.2172822  16.4676117  44.8457630  78.6684932  20.3201947
  44.8276105  79.4893813  19.8282216  45.7677550  78.5439007  20.5452088
  41.3030684  76.1829061  21.1625455  41.8359021  75.4217349  20.9324763
  40.7744765  75.8902713  21.9049609  44.4700379  61.2889127  16.6919097
  44.1264648  62.1790769  16.6158207  44.8379342  61.0990785  15.8288682
  32.5386230  73.6122658   9.5107699  33.3761452  74.0219666   9.2941407
  32.7164497  72.6722100   9.4807893  44.4350662  71.2797738   5.1991532
  43.9197285  72.0502343   5.4379919  44.1627970  70.6062874   5.8224593
  42.0197773  66.1247439  10.2576770  41.1639369  65.7354290  10.0782409
  42.4324725  66.2039400   9.3976556  43.5496919  63.6593782  14.6568330
  43.0461715  63.6223918  13.8436135  43.8427526  64.5686525  14.7164987
  39.7939805  63.7432512  13.6634512  40.6592802  63.5475321  13.3040401
  39.8617314  63.5142864  14.5903868  49.4084936  74.0330093   7.1344705
  48.6314379  73.6941252   6.6899867  50.0876417  74.0382716   6.4599670
  44.2236965  69.1524830   7.0251313  43.9187100  69.4670980   7.8761456
  45.1767407  69.2306250   7.0678646  42.6683397  75.3115054   8.6744267
  42.1404758  74.5767813   8.3617504  42.1670899  76.0889730   8.4284235
  47.6476243  73.5064074  13.7911313  46.9899917  74.1963336  13.8791442
  48.4516642  73.8960506  14.1345300  37.4002124  65.9734720  11.0350878
  37.9745876  65.7509902  10.3024071  37.9873107  66.0423415  11.7879480
  46.4581702  71.8608447  11.8415255  46.9713583  72.4938439  12.3436965
  47.1082925  71.2609642  11.4758615  39.7024792  62.8475969   9.7625948
  39.0489204  62.5324986   9.1382563  39.6605266  62.2251709  10.4885771
  43.7204076  81.8392771   4.5975926  43.0465775  82.1424468   5.2060884
  44.1069898  82.6421852   4.2481383  42.9362532  69.3357902  14.0873596
  42.0185094  69.5572849  13.9295284  43.3522676  69.4104213  13.2285303
  43.7197580  70.7349318   9.2176276  44.4669399  71.2470715   8.9083398
  43.9889170  70.4133371  10.0780669  41.9924230  73.2307859   6.2003230
  41.0835450  72.9466892   6.2975700  42.0219314  73.6506937   5.3406537
  47.2243498  76.8414448   9.9694398  46.7705825  76.0005358  10.0259588
  46.5937465  77.4775847  10.3069178  46.1676417  67.7706434  11.1995065
  45.4299174  67.2583821  11.5305308  46.4203191  67.3306816  10.3878342
  45.6676437  78.6790945  10.9044216  45.9599411  79.2396002  10.1856581
  46.1775058  78.9719506  11.6597375  46.2688045  60.5482686  11.7936834
  46.5746921  59.6880050  11.5062749  46.9940650  61.1400307  11.5935828
  32.5612401  70.9513373  10.1818432  32.3636801  70.3582734   9.4569499
  32.0059065  70.6465583  10.8994371  40.5409124  70.8436479  12.3013025
  40.5957734  69.8910316  12.2255502  39.7300326  70.9995919  12.7854324
  41.6900318  74.7716603   3.5391309  41.2519748  74.0552461   3.0796946
  42.4310759  74.9992717   2.9776400  38.4801484  69.4613539  10.0603404
  37.6669350  69.7607710  10.4668596  38.9760479  69.0669228  10.7777887
  40.6310062  79.4571296  11.9937669  40.5886241  79.6832142  11.0646201
  41.5472761  79.2234671  12.1423470  44.0775696  69.9255364  18.8918298
  44.4325084  70.1526837  19.7512764  44.7247827  70.2573740  18.2695553
  49.8073433  73.0473800   9.5967627  49.6691332  73.2375396   8.6688816
  49.4509652  73.8093182  10.0535678  37.9715559  67.0331895  15.6764639
  38.6114938  66.8920654  14.9787603  37.1393090  66.7466408  15.3003241
  49.8342813  75.1150327  14.6078899  50.2679319  75.0225616  15.4561953
  50.5474393  75.0907827  13.9698915  38.7475863  76.3334325  11.7899632
  39.5416462  75.8384645  11.5882207  38.0367555  75.8052188  11.4267337
  43.5670707  78.7152421  16.1411999  43.6207730  79.2843357  16.9089715
  42.6985489  78.8854306  15.7766036  35.0558626  70.4777407   7.8659384
  34.1256215  70.4161862   8.0829347  35.1516098  69.9553360   7.0696026
  34.9744176  67.0032220  10.4537626  35.2350993  67.9177553  10.3446787
  35.7961348  66.5356662  10.6034239  36.4469101  68.4169977  17.6236451
  37.1192154  68.2087339  16.9749099  35.6198887  68.2192063  17.1841683
  50.6958362  75.1574027  17.1411784  50.8894252  76.0619838  17.3871059
  50.5958980  74.6981446  17.9750369  42.3494673  65.0431918  19.6402111
  41.7022588  65.7421867  19.5466588  43.1195688  65.4768062  20.0078360
  45.7573471  75.3080770  22.7152665  45.6058977  75.0791322  21.7982748
  45.7478150  76.2651371  22.7284010  42.5258807  72.8812683  17.6998931
  43.4550867  73.0323842  17.5267898  42.1049837  72.9696704  16.8447578
  41.3247139  76.9063347  15.4697469  41.1858225  76.5382132  16.3423407
  40.5361735  77.4210987  15.2981427  41.9195291  82.0072444   6.8123005
  42.0947047  81.5360487   7.6268628  41.2328079  82.6338210   7.0404266
  42.8752354  76.2844950  12.8586307  42.5402187  76.2445720  13.7543956
  42.3756300  75.6189666  12.3856717  36.8496598  71.6912580  18.3838888
  36.7116396  70.9592819  18.9850427  37.7601522  71.6021480  18.1023075
  45.8111546  73.6300984   3.1323366  45.1940716  72.9047812   3.0356419
  45.3428034  74.3910344   2.7890441  39.4778899  71.4032539  17.8722567
  40.1878517  70.7625731  17.8309186  39.4348207  71.6545434  18.7948748
  47.4665677  78.3399893  20.7929147  47.4078224  77.6559113  20.1259730
  47.8685196  79.0818883  20.3409773  38.1907833  68.3897757  19.6918207
  37.6545190  67.9388496  20.3439803  37.6024541  68.5243666  18.9488671
  36.4856376  85.1561806  13.5862865  36.7252974  85.7880331  14.2641884
  35.6425573  84.8049846  13.8728225  47.4683085  76.3039476  19.0243126
  46.5809863  75.9665398  19.1469525  48.0381636  75.5722508  19.2611892
  29.1212232  72.6363568  12.3486178  29.8083272  72.3225298  11.7607193
  28.9660361  73.5404933  12.0753429  33.9246954  67.5253765  16.7771201
  33.8405143  66.9179434  16.0421611  33.1029660  68.0162783  16.7780698
  40.9984238  80.9640929  15.9904369  40.9254410  81.7695900  16.5023674
  40.5561631  81.1632895  15.1652391  40.7874018  80.2012699   9.5007191
  40.0041540  80.7434379   9.5945416  41.4866763  80.7186678   9.9001432
  44.0970668  66.0107328  12.1441396  44.5939367  65.2577291  11.8242467
  43.3257649  66.0471645  11.5784606  51.9500425  71.7147694  13.7859688
  51.9390302  72.5972409  13.4153621  51.0817805  71.3619245  13.5914225
  43.4582922  80.8627763  18.1462528  44.1710894  81.4975228  18.0738430
  42.9672950  80.9591629  17.3302530  45.1800449  74.7679016   9.7179820
  44.2456727  74.8880478   9.5484524  45.3577117  73.8651482   9.4539830
  40.6805637  68.1524711  11.8713081  40.3103424  67.5995752  12.5593987
  41.1764729  67.5482845  11.3188081  48.5673000  70.6096335  10.2529854
  49.0333452  71.4424326  10.1790157  49.0180500  70.1441316  10.9575112
  38.5094835  78.6122206  18.9668099  39.2104295  79.2458689  19.1197493
  38.0389950  78.9536938  18.2063738  46.6349231  76.9540156   7.2516006
  46.9109075  76.8396751   8.1609880  45.7653730  76.5557641   7.2128179
  46.5389663  62.9776922  14.2920755  45.6252742  63.2081149  14.4602962
  46.9682764  63.0615366  15.1434788  46.3096121  71.1666814  16.7920649
  45.6567571  71.4142721  16.1373102  46.6876501  70.3530952  16.4583127
  43.2703295  81.2026507  10.8948820  43.4525690  80.3848163  11.3576572
  44.0936281  81.4194199  10.4573710  43.6045461  80.1294692   8.1563868
  44.1333227  79.6187147   7.5434030  43.8673680  79.8137222   9.0209401
  42.3583694  71.9086625  23.2786686  41.6824331  71.8080754  23.9489062
  43.1811328  71.7525839  23.7422684  34.1062553  78.1458561  15.8999202
  34.6915990  77.4002249  16.0327106  33.9087392  78.4562518  16.7835866
  36.9601208  81.1809809  10.9161644  36.2911584  81.6655936  10.4325684
  36.8214078  81.4279029  11.8305023  28.6980208  70.7164162  14.6203645
  28.7364307  70.1827752  15.4140763  28.1920501  70.1899367  14.0014622
  41.1006477  83.2153552  17.5144302  41.6524785  83.3785174  18.2793388
  41.4412671  83.8057990  16.8424327  36.0770970  65.5628702  18.1166187
  36.1412297  66.4243533  17.7043585  36.0138091  64.9502704  17.3838546
  35.5523243  67.6351835  21.7639221  36.1795282  67.2528912  22.3776746
  34.6951162  67.4166037  22.1294914  45.9517351  78.0414810  23.3692957
  46.4957255  78.6544768  22.8747912  45.3704196  78.5994388  23.8859970
  44.2374864  81.1635528  14.5007985  44.1126004  80.3625268  13.9918930
  44.8953955  81.6581721  14.0121955  35.8583033  67.5184260  13.6785125
  35.1369618  68.1320228  13.5392598  36.6476288  68.0542025  13.6001771
  46.3009773  78.9644548  16.1287535  45.3540108  78.8449899  16.0565861
  46.6492546  78.0767046  16.2113796  38.6609346  64.8538687  19.9525777
  39.1843748  65.1000983  20.7152086  38.4421679  65.6858722  19.5328914
  43.3056206  78.7597264  12.3291887  43.1581168  77.8313972  12.5099457
  44.1309700  78.7817355  11.8448962  37.1718450  67.4115331   8.1872379
  37.5114523  67.9401252   7.4650987  37.6190571  67.7495737   8.9630946
  46.9090328  79.5825823  13.4156760  47.8336875  79.3768684  13.2781211
  46.7405631  79.3342224  14.3246101  39.8661891  65.7952382  17.6375447
  39.5258711  64.9960195  18.0396127  39.1600897  66.0954093  17.0652280
  40.5178363  62.8801694  16.0902770  41.3404432  62.4062173  15.9681660
  40.7616426  63.6592178  16.5901456  43.3017720  66.6135102   7.3224004
  43.5181335  67.4959740   7.0212832  42.8211787  66.2221315   6.5929646
  38.0416942  69.5720815  13.8994749  37.8961522  69.8861118  14.7919030
  37.5642145  70.1905715  13.3465647  39.9013325  66.5623363  13.9475638
  39.8874893  65.6664456  13.6107936  40.6185753  66.5694027  14.5813924
  41.7539455  66.9960703  15.9928766  41.4957233  67.9177774  15.9913096
  41.2224496  66.5991138  16.6829230  46.6985644  80.1011490   8.7718851
  46.8722522  79.5357913   8.0192704  47.1914535  80.9012385   8.5898341
  32.5162604  72.1126159  16.8382410  31.9716072  72.8885967  16.9702684
  33.3941954  72.4596964  16.6801531  39.3050221  65.4437743   9.2163208
  39.4266132  64.5154389   9.4154096  39.0152263  65.4576429   8.3041524
  42.1741411  63.1292654  12.3529928  42.1963108  63.1931987  11.3981908
  42.5909470  62.2897162  12.5470434  52.5525035  72.8647913  10.3909151
  52.9956181  72.1155238   9.9928274  51.6751546  72.8558050  10.0082883
  47.6860817  79.4178255   5.8715749  48.3811721  80.0384947   6.0903064
  48.0283967  78.5673606   6.1468127  33.3028626  71.2396056  19.7312567
  32.5610362  71.3878691  20.3177197  32.9821370  71.5004321  18.8679316
  49.5852240  76.8677960   7.4003080  50.1103564  77.2065233   6.6752400
  49.4974592  75.9324976   7.2166215  41.2472288  80.7812034  19.5292957
  41.5559415  80.5361181  20.4015656  42.0447770  80.9858672  19.0411827
  41.2692900  82.9349944  11.7598333  40.8297891  82.4426322  12.4531190
  42.0201017  82.3922911  11.5190409  33.7485239  79.1261484  11.7622961
  34.5743259  78.8265256  11.3821605  33.3979291  78.3569107  12.2112750
  38.7166773  78.4787953  13.8320635  38.0946782  77.8158658  13.5322863
  39.3871639  78.5049084  13.1494283  31.9493844  77.0447811  12.7211895
  31.1125753  76.6169985  12.5395896  31.9217490  77.2380254  13.6582686
  38.7891300  66.9569741  23.4253141  38.8379456  67.8331863  23.0430911
  39.3313814  66.4147134  22.8524784  49.2746146  77.5010864  22.7054278
  48.4841689  77.4835003  22.1658777  49.0379500  78.0399158  23.4603315
  49.3944021  74.3503330  20.0187007  49.4442026  74.1853338  20.9602529
  49.2857944  73.4830589  19.6284887  38.2780279  77.0291876   7.3079096
  38.4268400  77.7127340   6.6545768  39.0846723  77.0096966   7.8228551
  46.6847783  70.3334258  21.3346313  47.5857646  70.1940723  21.0430311
  46.7595758  70.4988713  22.2744491  41.0190589  67.7101113  20.1799500
  40.1493898  68.0034679  19.9082088  41.2550069  68.2941558  20.9006763
  50.8962218  76.7700272  20.2629028  50.6047026  77.1330252  21.0992489
  50.2834349  76.0567280  20.0842360  52.0957900  74.3353152  12.7831598
  52.9304791  74.7742956  12.9469159  52.2317029  73.8591805  11.9639844
  49.1449406  71.8932886  18.7309086  49.6203527  72.0860533  17.9227938
  48.2214971  71.9492072  18.4852470  36.0332912  73.0557054   8.3140164
  35.7878954  72.1519384   8.5120375  36.2028827  73.0574204   7.3719642
  43.7229622  63.9280730  17.6964920  44.2411566  64.6641757  17.3711409
  43.3684755  64.2344723  18.5311679  43.9742217  60.3481012  13.2165817
  44.2543970  59.6804202  13.8426243  44.7592823  60.5410108  12.7040480
  41.7775685  79.5240006   4.7790843  41.2049652  80.1430194   4.3261315
  42.3508479  80.0739368   5.3130765  47.8451075  68.7698646  16.9637392
  48.7968498  68.8696744  16.9849616  47.6754525  67.9776915  17.4735476
  45.8665454  65.8554230  17.1496793  45.2715386  66.1359242  16.4543281
  45.5815151  66.3448131  17.9213534  44.9972945  79.8077157   5.9099425
  45.9303618  79.7422718   6.1132301  44.9096158  80.6433423   5.4513958
  47.6260961  79.1243027   2.8703373  47.5474593  78.7902890   3.7639131
  48.4470628  79.6164795   2.8694845  50.3239153  71.9904766  16.0779691
  50.2915473  71.0520767  16.2639375  50.9339776  72.0688803  15.3445516
  50.4733641  68.7815810  16.1237975  49.9572690  67.9974266  15.9367903
  51.3573590  68.4534526  16.2884494  48.1344368  62.5256825  12.0833787
  47.9369189  62.2171913  12.9677119  48.7444074  63.2518464  12.2131717
  56.1415702  73.0520773  15.2185728  56.8719091  72.7906061  15.7793432
  55.5322648  72.3149495  15.2587796  54.2231000  71.1928636  15.8160179
  53.4964163  71.0584601  15.2076671  53.8078286  71.5005464  16.6216897
  42.0461176  74.9118565  23.5807552  42.9664186  75.0897164  23.7747599
  42.0110759  73.9674611  23.4287252  31.2643341  70.1057159  12.5060827
  30.9446125  69.2522467  12.2135201  30.7176769  70.3205737  13.2618794
  35.0423249  72.8219600  16.2230334  35.2609258  73.7536708  16.2418367
  35.4549022  72.4627574  17.0085137  41.9627466  63.3287685   8.2106022
  41.1528195  62.9834770   8.5861268  42.6511883  63.0195229   8.7993634
  43.8918015  62.4065732   9.8330319  44.4449053  62.8261185  10.4920342
  44.1288101  61.4801480   9.8753275  39.9151114  68.3952806  25.6133083
  39.8147841  69.3447163  25.5445174  39.6972656  68.0671045  24.7409153
  31.1331601  73.7260070  14.4753949  30.4395072  73.3114023  13.9623903
  31.8804592  73.7680607  13.8787368  47.2696822  64.5166257   9.3408983
  46.6895491  65.1751061   8.9587035  47.0032754  63.6943602   8.9296400
  45.7200388  63.9171315  11.5430303  46.2200166  64.0287849  10.7344622
  46.3635996  63.6132368  12.1831112  39.7782384  71.8249945  24.4298144
  39.2949466  72.6250305  24.6362033  39.8643323  71.8357889  23.4765588
  33.0468344  73.6578324  12.3519964  33.0239032  73.7566011  11.4001847
  33.3568980  74.5043475  12.6737130  35.7055721  75.7154479  16.4666578
  36.6598975  75.6838422  16.3996510  35.5068245  75.2545103  17.2816804
  36.2955104  74.2855595  19.0337376  37.1147993  74.7799674  19.0572213
  36.5691911  73.3687563  19.0054943  46.0521700  66.6766348   8.3965331
  45.1647555  66.9615998   8.1785526  46.4675689  66.5160111   7.5492608
  49.4036236  66.7012869  12.1119670  50.1796626  67.1909321  12.3844287
  48.6784370  67.1270923  12.5691540  51.8408795  67.4140488  13.1693611
  52.4353285  67.1736224  12.4586919  51.9135378  66.6947618  13.7967147
  34.0605950  81.2574099  13.4836776  33.9260418  80.4974500  12.9174774
  33.6438012  81.9814999  13.0165565  45.1964913  76.4411022   2.4913351
  45.9000763  76.6461025   3.1071007  44.4727562  77.0087784   2.7562435
  46.0262724  72.1920884   8.6115621  45.9697925  72.6489435   7.7723254
  46.5791066  71.4311568   8.4338464  49.8367529  67.9810615   9.4365741
  49.5804464  67.5807251  10.2673948  49.2120397  68.6954409   9.3115880
  54.1479867  70.7206689  11.9437032  53.5879425  70.7899878  12.7168594
  53.5423371  70.5447673  11.2236528  37.2175076  82.1543416  13.6955218
  37.1007460  83.0988848  13.5933909  36.3967522  81.8516977  14.0841018
  47.1051611  76.8793551   4.5411811  47.9397215  76.4474750   4.3589286
  46.9435954  76.7075565   5.4688706  46.7597503  73.3825665   5.9068150
  46.7046307  73.2169936   4.9656595  46.1343558  74.0901698   6.0630340
  31.5490018  68.6193729  19.7329573  32.1948881  68.1092683  20.2216798
  31.3407169  69.3562411  20.3072998  44.0743410  75.6874577  25.2321713
  44.9434570  75.8615229  24.8708348  43.5950161  76.5068993  25.1097443
  38.2429590  82.8071678  16.9111147  39.1456837  82.8395288  17.2277642
  38.0166960  81.8772129  16.9257483  39.9983192  81.5602664  13.5721226
  39.0478823  81.5604526  13.4585598  40.3015678  80.8135399  13.0557260
  43.8845748  59.4776550   9.7399406  43.1178144  58.9235037   9.8856088
  44.2956453  59.5498419  10.6013557  35.8887509  65.7661346  23.8304587
  36.7518970  65.4098151  24.0407911  35.3152919  65.4275241  24.5179991
  55.7335886  87.3963203  14.6366988  56.3714296  87.2769950  13.9330328
  55.6156729  88.3444047  14.6954940  52.5425592  87.3490631  14.5728513
  52.2044104  87.2331695  13.6849047  53.4115360  86.9481796  14.5529519
  48.4012408  89.2026107  10.5625404  47.8377273  89.1116044   9.7941691
  48.2864803  88.3826012  11.0427896  53.0245375  88.5025482  20.5314718
  53.0134016  88.1078281  19.6595222  53.1866014  87.7691555  21.1248490
  45.9476840  90.6977299  13.4009624  46.7398132  90.3568123  12.9855923
  46.1873490  90.8072274  14.3211777  53.9811966  92.8697075   5.8739868
  53.3299946  93.4551155   5.4873882  54.7756329  93.4003270   5.9334906
  47.9067594  89.9586212   6.2727003  48.6798470  89.4115199   6.1339879
  48.2592992  90.8230461   6.4841464  49.7452636  91.2862594  19.4793902
  49.4542502  92.1908225  19.3640568  50.3809621  91.3279122  20.1937972
  50.6708843  88.6639443  16.0695262  51.2672415  88.4395465  15.3552225
  50.7283815  87.9224188  16.6720710  50.2433871  86.1178878   3.9045453
  50.4959392  85.5960399   3.1428916  49.3058430  85.9545023   4.0072136
  55.2877154  85.1214656  11.7120196  56.0740243  84.7034080  11.3610613
  55.5515859  86.0260749  11.8801844  55.4587232  90.5587507   6.4108853
  54.8233065  90.6322133   7.1229757  55.1284638  91.1481106   5.7327932
  60.6885581  85.0589890  12.6153174  61.4210753  84.4889106  12.8491004
  59.9324937  84.6711490  13.0559680  49.9630160  88.0206984   6.1069828
  49.8466418  87.3451887   6.7750912  50.0732420  87.5339358   5.2901981
  52.3061701  87.4817131   9.8116517  51.9419908  86.9547752  10.5229438
  53.1628817  87.0915600   9.6383002  58.2111002  78.7711464  17.0747783
  57.8794326  79.6406875  16.8508998  57.6156615  78.4547748  17.7541813
  51.9467188  82.5107031   4.8077865  52.1141590  83.3787267   5.1748336
  51.7564357  82.6734313   3.8839155  54.7042521  90.9724010  16.4743696
  54.4043244  91.8749049  16.3659503  54.3593581  90.7056193  17.3264849
  48.1555003  87.4237807  12.5080400  47.2305499  87.2914021  12.7158092
  48.4039416  88.2032026  13.0050343  58.1039665  83.4906550  14.1541133
  57.1956542  83.4221958  13.8599894  58.0527261  83.9678495  14.9822959
  51.9256409  84.9664688   5.7924532  51.8056034  85.4121739   6.6310013
  51.2308997  85.3150006   5.2338070  45.5163814  87.0671080  13.3424189
  45.6456195  87.3205559  14.2563601  44.8361265  87.6598788  13.0228844
  49.6863301  97.7368330   9.4414663  49.6087331  98.6876155   9.5203144
  49.0824945  97.3914203  10.0989590  52.1780531  84.9096195  22.0976030
  51.4013865  85.4690116  22.0878895  52.8171094  85.3952978  22.6190901
  59.9701311  81.6922988  15.9319007  59.3275692  81.9855521  15.2858802
  59.4656240  81.5775909  16.7372204  57.6241475  85.4386161   6.6204866
  58.5359331  85.6713548   6.4452564  57.1151122  86.0223206   6.0579945
  50.4326903  87.7181649  21.6593997  51.1741587  88.2566693  21.3828821
  49.7263889  88.3447938  21.8165549  55.9082243  89.8610789  20.2566159
  56.3165599  89.4193200  19.5120791  55.1859504  89.2863417  20.5100352
  52.2613313  84.7983396  17.6299716  53.1074508  85.2222810  17.7734365
  52.2011950  84.1417020  18.3238279  56.2311057  90.4211980  14.0118448
  55.6019920  90.5857694  13.3094516  55.8436719  90.8353589  14.7829412
  60.1100289  91.3566418  11.3662812  59.4251327  91.7365319  10.8159845
  60.1944139  91.9661744  12.0994759  55.4112758  82.4587764  19.2880889
  55.1673690  83.2129825  18.7515165  55.6872689  82.8373112  20.1228137
  57.3651221  89.0026377  17.9658155  57.5768116  89.6458137  17.2892536
  57.3180969  88.1688693  17.4980085  54.9677450  81.6144197  14.8694727
  54.1061929  81.9125451  15.1611465  54.9939885  81.8314596  13.9375760
  51.7839019  90.1586388  11.2768533  52.2477365  90.4374091  10.4873155
  51.5195817  89.2569833  11.0941624  48.6763100  89.7057870  14.2148296
  49.2464457  90.1345138  13.5765781  49.2671212  89.4240454  14.9132482
  50.7207905  86.2809540   8.0858098  51.4231949  86.7330584   8.5532024
  50.3888534  85.6393359   8.7137991  49.1688267  84.8721297  22.4609307
  48.5386927  85.5537578  22.6944704  49.0624355  84.7604379  21.5162446
  44.4633239  84.5393093  13.3875232  43.6732293  84.7950622  12.9115342
  44.9544487  85.3541431  13.4927272  58.4797049  91.8798332  16.1380512
  59.3014493  91.4778520  15.8563194  58.4759452  91.7766566  17.0896628
  46.4147985  84.9037672  10.3458708  45.6179148  85.0156367  10.8642204
  46.1873577  85.2424325   9.4799599  52.2453652  91.4282376  18.2941223
  52.3098085  91.8902783  19.1299395  51.5364576  90.7979740  18.4223533
  42.7470942  84.7923584  15.8190222  42.9978981  85.6770593  16.0847798
  43.2830491  84.6128185  15.0465314  66.5703042  88.2237081  12.4865484
  65.8166750  87.6544479  12.3309488  66.7050583  88.1899745  13.4336119
  51.9601670  93.0950483   8.1620203  51.8247345  93.9402019   8.5905051
  52.5011482  93.2969761   7.3986137  48.4469010  79.1742063  24.8234558
  48.0535955  78.6208261  25.4982203  49.2635150  79.4852641  25.2141076
  45.4131067  90.6125921   8.7348128  45.9255588  91.4069171   8.8853693
  46.0653780  89.9152212   8.6681730  47.2225952  93.7291677  10.8170881
  47.3992580  94.6509642  10.6291865  48.0182786  93.4150097  11.2465261
  51.3636971  80.5899942  22.4154815  52.1046684  81.1907095  22.3359277
  51.5954893  79.8477580  21.8572858  46.5078309  85.7756309  20.6933045
  46.3931824  84.8741566  20.9940144  45.6522826  86.0220006  20.3417861
  53.5870146  93.7174050  22.2920545  53.1434001  92.9310428  21.9741450
  54.2487360  93.9053200  21.6264436  48.3457268  95.2469851  16.8181224
  48.8964693  95.1186914  16.0458218  47.5068743  95.5464740  16.4676117
  55.6851384  93.9976849  20.3201947  55.6669860  94.8185731  19.8282216
  56.6071304  93.8730925  20.5452088  52.1424439  91.5120979  21.1625455
  52.6752775  90.7509267  20.9324763  51.6138520  91.2194631  21.9049609
  55.3094134  76.6181045  16.6919097  54.9658403  77.5082687  16.6158207
  55.6773096  76.4282703  15.8288682  43.3779984  88.9414575   9.5107699
  44.2155206  89.3511584   9.2941407  43.5558252  88.0014018   9.4807893
  55.2744416  86.6089656   5.1991532  54.7591040  87.3794261   5.4379919
  55.0021725  85.9354792   5.8224593  52.8591527  81.4539357  10.2576770
  52.0033124  81.0646207  10.0782409  53.2718479  81.5331318   9.3976556
  54.3890674  78.9885700  14.6568330  53.8855469  78.9515835  13.8436135
  54.6821281  79.8978443  14.7164987  50.6333560  79.0724430  13.6634512
  51.4986557  78.8767238  13.3040401  50.7011069  78.8434782  14.5903868
  60.2478690  89.3622011   7.1344705  59.4708133  89.0233170   6.6899867
  60.9270171  89.3674634   6.4599670  55.0630719  84.4816748   7.0251313
  54.7580855  84.7962897   7.8761456  56.0161162  84.5598168   7.0678646
  53.5077151  90.6406971   8.6744267  52.9798513  89.9059731   8.3617504
  53.0064654  91.4181648   8.4284235  58.4869997  88.8355992  13.7911313
  57.8293672  89.5255253  13.8791442  59.2910396  89.2252424  14.1345300
  48.2395879  81.3026638  11.0350878  48.8139631  81.0801819  10.3024071
  48.8266861  81.3715332  11.7879480  57.2975456  87.1900365  11.8415255
  57.8107338  87.8230356  12.3436965  57.9476680  86.5901560  11.4758615
  48.5665466  83.3331099   5.0546764  47.7302778  83.6705785   5.3756038
  48.4270236  83.1980079   4.1173901  50.5418547  78.1767887   9.7625948
  49.8882959  77.8616904   9.1382563  50.4999021  77.5543627  10.4885771
  51.6529751  88.4587182   1.6779240  50.7456813  88.2276435   1.8770389
  52.1500783  87.6624801   1.8653222  54.5597830  97.1684689   4.5975926
  53.8859529  97.4716386   5.2060884  54.9463652  97.9713769   4.2481383
  53.7756287  84.6649820  14.0873596  52.8578848  84.8864767  13.9295284
  54.1916431  84.7396131  13.2285303  54.5591335  86.0641236   9.2176276
  55.3063154  86.5762633   8.9083398  54.8282924  85.7425289  10.0780669
  52.8317985  88.5599777   6.2003230  51.9229204  88.2758809   6.2975700
  52.8613069  88.9798855   5.3406537  58.0637252  92.1706366   9.9694398
  57.6099579  91.3297276  10.0259588  57.4331219  92.8067764  10.3069178
  57.0070172  83.0998352  11.1995065  56.2692929  82.5875738  11.5305308
  57.2596945  82.6598734  10.3878342  56.5070192  94.0082863  10.9044216
  56.7993166  94.5687920  10.1856581  57.0168812  94.3011424  11.6597375
  57.1081799  75.8774604  11.7936834  57.4140676  75.0171968  11.5062749
  57.8334404  76.4692224  11.5935828  43.4006155  86.2805291  10.1818432
  43.2030555  85.6874651   9.4569499  42.8452819  85.9757501  10.8994371
  51.3802879  86.1728397  12.3013025  51.4351489  85.2202234  12.2255502
  50.5694081  86.3287836  12.7854324  52.5294073  90.1008520   3.5391309
  52.0913503  89.3844379   3.0796946  53.2704514  90.3284635   2.9776400
  49.3195239  84.7905457  10.0603404  48.5063104  85.0899627  10.4668596
  49.8154233  84.3961146  10.7777887  51.4703817  94.7863214  11.9937669
  51.4279996  95.0124060  11.0646201  52.3866516  94.5526588  12.1423470
  54.9169451  85.2547281  18.8918298  55.2718838  85.4818755  19.7512764
  55.5641582  85.5865658  18.2695553  60.6467187  88.3765717   9.5967627
  60.5085086  88.5667313   8.6688816  60.2903406  89.1385100  10.0535678
  48.8109314  82.3623812  15.6764639  49.4508693  82.2212572  14.9787603
  47.9786844  82.0758326  15.3003241  60.6736567  90.4442244  14.6078899
  61.1073074  90.3517533  15.4561953  61.3868148  90.4199745  13.9698915
  49.5869618  91.6626243  11.7899632  50.3810216  91.1676563  11.5882207
  48.8761310  91.1344106  11.4267337  54.4064462  94.0444338  16.1411999
  54.4601484  94.6135275  16.9089715  53.5379243  94.2146223  15.7766036
  45.8952381  85.8069325   7.8659384  44.9649969  85.7453780   8.0829347
  45.9909853  85.2845277   7.0696026  45.8137930  82.3324137  10.4537626
  46.0744747  83.2469471  10.3446787  46.6355102  81.8648580  10.6034239
  47.2862855  83.7461895  17.6236451  47.9585909  83.5379257  16.9749099
  46.4592642  83.5483981  17.1841683  61.5352117  90.4865945  17.1411784
  61.7288007  91.3911755  17.3871059  61.4352735  90.0273364  17.9750369
  53.1888427  80.3723835  19.6402111  52.5416342  81.0713785  19.5466588
  53.9589443  80.8059979  20.0078360  56.5967225  90.6372688  22.7152665
  56.4452732  90.4083239  21.7982748  56.5871905  91.5943289  22.7284010
  53.3652562  88.2104600  17.6998931  54.2944622  88.3615760  17.5267898
  52.9443592  88.2988621  16.8447578  52.1640893  92.2355265  15.4697469
  52.0251979  91.8674049  16.3423407  51.3755490  92.7502904  15.2981427
  52.7589045  97.3364361   6.8123005  52.9340801  96.8652404   7.6268628
  52.0721833  97.9630127   7.0404266  53.7146109  91.6136868  12.8586307
  53.3795941  91.5737637  13.7543956  53.2150054  90.9481583  12.3856717
  47.6890353  87.0204498  18.3838888  47.5510151  86.2884736  18.9850427
  48.5995276  86.9313398  18.1023075  56.6505300  88.9592902   3.1323366
  56.0334471  88.2339730   3.0356419  56.1821789  89.7202262   2.7890441
  50.3172653  86.7324457  17.8722567  51.0272272  86.0917649  17.8309186
  50.2741961  86.9837352  18.7948748  58.3059432  93.6691810  20.7929147
  58.2471978  92.9851030  20.1259730  58.7078950  94.4110800  20.3409773
  49.0301587  83.7189675  19.6918207  48.4938944  83.2680413  20.3439803
  48.4418296  83.8535584  18.9488671  47.3250131 100.4853724  13.5862865
  47.5646729 101.1172248  14.2641884  46.4819327 100.1341764  13.8728225
  48.4403846  83.1778326   2.2544671  47.5633313  83.0567127   1.8906917
  48.9161599  82.3864404   2.0023559  58.3076839  91.6331394  19.0243126
  57.4203618  91.2957316  19.1469525  58.8775390  90.9014425  19.2611892
  39.9605986  87.9655486  12.3486178  40.6477026  87.6517216  11.7607193
  39.8054115  88.8696851  12.0753429  44.7640708  82.8545682  16.7771201
  44.6798897  82.2471352  16.0421611  43.9423415  83.3454701  16.7780698
  51.8377993  96.2932846  15.9904369  51.7648164  97.0987818  16.5023674
  51.3955386  96.4924812  15.1652391  51.6267772  95.5304617   9.5007191
  50.8435294  96.0726297   9.5945416  52.3260517  96.0478596   9.9001432
  54.9364422  81.3399246  12.1441396  55.4333122  80.5869208  11.8242467
  54.1651404  81.3763563  11.5784606  62.7894180  87.0439612  13.7859688
  62.7784056  87.9264327  13.4153621  61.9211559  86.6911162  13.5914225
  54.2976676  96.1919681  18.1462528  55.0104648  96.8267145  18.0738430
  53.8066705  96.2883547  17.3302530  56.0194203  90.0970933   9.7179820
  55.0850482  90.2172396   9.5484524  56.1970872  89.1943400   9.4539830
  51.5199391  83.4816629  11.8713081  51.1497179  82.9287669  12.5593987
  52.0158484  82.8774762  11.3188081  59.4066754  85.9388252  10.2529854
  59.8727207  86.7716244  10.1790157  59.8574255  85.4733234  10.9575112
  49.3488590  93.9414124  18.9668099  50.0498049  94.5750607  19.1197493
  48.8783705  94.2828856  18.2063738  57.4742986  92.2832074   7.2516006
  57.7502829  92.1688668   8.1609880  56.6047484  91.8849559   7.2128179
  57.3783417  78.3068839  14.2920755  56.4646497  78.5373066  14.4602962
  57.8076519  78.3907284  15.1434788  57.1489876  86.4958731  16.7920649
  56.4961326  86.7434639  16.1373102  57.5270256  85.6822870  16.4583127
  54.1097050  96.5318425  10.8948820  54.2919444  95.7140081  11.3576572
  54.9330036  96.7486117  10.4573710  54.4439215  95.4586610   8.1563868
  54.9726981  94.9479064   7.5434030  54.7067435  95.1429140   9.0209401
  53.1977449  87.2378543  23.2786686  52.5218086  87.1372672  23.9489062
  54.0205083  87.0817756  23.7422684  44.9456308  93.4750479  15.8999202
  45.5309745  92.7294167  16.0327106  44.7481146  93.7854436  16.7835866
  47.7994963  96.5101726  10.9161644  47.1305338  96.9947854  10.4325684
  47.6607833  96.7570947  11.8305023  39.5373962  86.0456079  14.6203645
  39.5758062  85.5119670  15.4140763  39.0314255  85.5191285  14.0014622
  51.9400232  98.5445470  17.5144302  52.4918540  98.7077091  18.2793388
  52.2806425  99.1349908  16.8424327  46.9164725  80.8920620  18.1166187
  46.9806051  81.7535451  17.7043585  46.8531845  80.2794621  17.3838546
  46.3916997  82.9643752  21.7639221  47.0189036  82.5820830  22.3776746
  45.5344916  82.7457954  22.1294914  56.7911106  93.3706727  23.3692957
  57.3351010  93.9836686  22.8747912  56.2097951  93.9286306  23.8859970
  43.1682540  84.7720181   7.6957576  43.4635981  83.8630860   7.6424630
  42.2670576  84.7507921   7.3738579  55.0768619  96.4927445  14.5007985
  54.9519758  95.6917185  13.9918930  55.7347710  96.9873639  14.0121955
  46.6976787  82.8476178  13.6785125  45.9763373  83.4612146  13.5392598
  47.4870043  83.3833943  13.6001771  57.1403527  94.2936466  16.1287535
  56.1933863  94.1741817  16.0565861  57.4886300  93.4058964  16.2113796
  49.5003101  80.1830604  19.9525777  50.0237502  80.4292901  20.7152086
  49.2815434  81.0150639  19.5328914  44.8970382  82.4534279   7.8196901
  44.5683088  81.5731658   7.6372007  45.2509752  82.3981948   8.7073291
  54.1449961  94.0889182  12.3291887  53.9974923  93.1605889  12.5099457
  54.9703454  94.1109272  11.8448962  48.0112205  82.7407249   8.1872379
  48.3508277  83.2693170   7.4650987  48.4584325  83.0787655   8.9630946
  57.7484082  94.9117741  13.4156760  58.6730630  94.7060602  13.2781211
  57.5799386  94.6634142  14.3246101  50.7055646  81.1244300  17.6375447
  50.3652466  80.3252113  18.0396127  49.9994652  81.4246010  17.0652280
  51.3572117  78.2093612  16.0902770  52.1798187  77.7354090  15.9681660
  51.6010181  78.9884096  16.5901456  49.9980352  81.2381870   6.3865672
  50.7188714  81.6163123   5.8829389  49.3745656  81.9570747   6.4900650
  54.1411475  81.9427019   7.3224004  54.3575089  82.8251657   7.0212832
  53.6605542  81.5513233   6.5929646  48.8810696  84.9012733  13.8994749
  48.7355277  85.2153036  14.7919030  48.4035900  85.5197633  13.3465647
  50.7407079  81.8915281  13.9475638  50.7268648  80.9956374  13.6107936
  51.4579507  81.8985944  14.5813924  52.5933210  82.3252621  15.9928766
  52.3350988  83.2469691  15.9913096  52.0618250  81.9283055  16.6829230
  57.5379399  95.4303408   8.7718851  57.7116276  94.8649830   8.0192704
  58.0308290  96.2304303   8.5898341  43.3556358  87.4418077  16.8382410
  42.8109826  88.2177885  16.9702684  44.2335708  87.7888882  16.6801531
  50.1443975  80.7729661   9.2163208  50.2659886  79.8446307   9.4154096
  49.8546017  80.7868347   8.3041524  53.0135165  78.4584571  12.3529928
  53.0356862  78.5223904  11.3981908  53.4303224  77.6189080  12.5470434
  63.3918790  88.1939831  10.3909151  63.8349936  87.4447156   9.9928274
  62.5145300  88.1849967  10.0082883  58.5254571  94.7470172   5.8715749
  59.2205476  95.3676865   6.0903064  58.8677721  93.8965524   6.1468127
  44.1422380  86.5687973  19.7312567  43.4004116  86.7170609  20.3177197
  43.8215125  86.8296239  18.8679316  60.4245994  92.1969878   7.4003080
  60.9497318  92.5357151   6.6752400  60.3368347  91.2616893   7.2166215
  52.0866043  96.1103952  19.5292957  52.3953169  95.8653098  20.4015656
  52.8841525  96.3150590  19.0411827  52.1086655  98.2641861  11.7598333
  51.6691645  97.7718240  12.4531190  52.8594772  97.7214829  11.5190409
  44.5878994  94.4553402  11.7622961  45.4137014  94.1557174  11.3821605
  44.2373046  93.6861024  12.2112750  49.5560527  93.8079870  13.8320635
  48.9340536  93.1450575  13.5322863  50.2265394  93.8341002  13.1494283
  42.7887599  92.3739728  12.7211895  41.9519507  91.9461903  12.5395896
  42.7611244  92.5672172  13.6582686  49.6285055  82.2861658  23.4253141
  49.6773210  83.1623781  23.0430911  50.1707569  81.7439051  22.8524784
  60.1139900  92.8302782  22.7054278  59.3235444  92.8126920  22.1658777
  59.8773255  93.3691075  23.4603315  60.2337775  89.6795248  20.0187007
  60.2835780  89.5145255  20.9602529  60.1251699  88.8122507  19.6284887
  49.1174034  92.3583794   7.3079096  49.2662154  93.0419258   6.6545768
  49.9240477  92.3388884   7.8228551  57.5241538  85.6626176  21.3346313
  58.4251400  85.5232641  21.0430311  57.5989512  85.8280631  22.2744491
  51.8584343  83.0393031  20.1799500  50.9887652  83.3326597  19.9082088
  52.0943823  83.6233476  20.9006763  61.7355972  92.0992189  20.2629028
  61.4440780  92.4622170  21.0992489  61.1228103  91.3859198  20.0842360
  62.9351654  89.6645069  12.7831598  63.7698546  90.1034873  12.9469159
  63.0710783  89.1883722  11.9639844  59.9843160  87.2224804  18.7309086
  60.4597282  87.4152450  17.9227938  59.0608726  87.2783990  18.4852470
  46.8726667  88.3848971   8.3140164  46.6272709  87.4811301   8.5120375
  47.0422581  88.3866122   7.3719642  54.5623377  79.2572648  17.6964920
  55.0805321  79.9933675  17.3711409  54.2078510  79.5636641  18.5311679
  46.1422314  84.1177329   5.8126326  45.4491559  84.1921684   5.1566362
  45.8974066  83.3537672   6.3347843  54.8135971  75.6772930  13.2165817
  55.0937725  75.0096119  13.8426243  55.5986578  75.8702026  12.7040480
  52.6169439  94.8531924   4.7790843  52.0443407  95.4722111   4.3261315
  53.1902233  95.4031286   5.3130765  58.6844829  84.0990564  16.9637392
  59.6362252  84.1988662  16.9849616  58.5148280  83.3068833  17.4735476
  56.7059209  81.1846147  17.1496793  56.1109141  81.4651160  16.4543281
  56.4208906  81.6740048  17.9213534  55.8366699  95.1369074   5.9099425
  56.7697372  95.0714636   6.1132301  55.7489912  95.9725341   5.4513958
  58.4654716  94.4534945   2.8703373  58.3868347  94.1194808   3.7639131
  59.2864383  94.9456712   2.8694845  61.1632907  87.3196684  16.0779691
  61.1309227  86.3812685  16.2639375  61.7733531  87.3980721  15.3445516
  53.0016238  86.1892737   2.1206895  53.9475343  86.0598945   2.1895313
  52.6230483  85.4507399   2.5976324  61.3127396  84.1107727  16.1237975
  60.7966444  83.3266184  15.9367903  62.1967344  83.7826444  16.2884494
  58.9738123  77.8548743  12.0833787  58.7762944  77.5463831  12.9677119
  59.5837828  78.5810382  12.2131717  66.9809457  88.3812691  15.2185728
  67.7112845  88.1197979  15.7793432  66.3716402  87.6441413  15.2587796
  65.0624754  86.5220553  15.8160179  64.3357918  86.3876518  15.2076671
  64.6472041  86.8297382  16.6216897  52.8854931  90.2410483  23.5807552
  53.8057940  90.4189082  23.7747599  52.8504514  89.2966528  23.4287252
  51.1859155  84.1142713   2.0561781  50.2790611  83.8175826   2.1324494
  51.4635136  83.8172531   1.1896067  42.1037096  85.4349077  12.5060827
  41.7839880  84.5814385  12.2135201  41.5570524  85.6497655  13.2618794
  45.8817003  88.1511518  16.2230334  46.1003013  89.0828625  16.2418367
  46.2942777  87.7919492  17.0085137  52.8021221  78.6579603   8.2106022
  51.9921949  78.3126688   8.5861268  53.4905638  78.3487147   8.7993634
  54.7311769  77.7357650   9.8330319  55.2842808  78.1553103  10.4920342
  54.9681856  76.8093398   9.8753275  50.7544868  83.7244723  25.6133083
  50.6541595  84.6739080  25.5445174  50.5366410  83.3962962  24.7409153
  49.9557940  80.9729648   2.1973760  50.8177104  81.2984547   2.4569577
  50.1408284  80.1861144   1.6846826  41.9725356  89.0551988  14.4753949
  41.2788827  88.6405941  13.9623903  42.7198347  89.0972525  13.8787368
  58.1090576  79.8458175   9.3408983  57.5289245  80.5042979   8.9587035
  57.8426509  79.0235519   8.9296400  56.5594143  79.2463233  11.5430303
  57.0593921  79.3579767  10.7344622  57.2029751  78.9424285  12.1831112
  50.6176138  87.1541862  24.4298144  50.1343220  87.9542222  24.6362033
  50.7037077  87.1649807  23.4765588  43.8862098  88.9870242  12.3519964
  43.8632786  89.0857929  11.4001847  44.1962735  89.8335393  12.6737130
  46.5449476  91.0446397  16.4666578  47.4992729  91.0130339  16.3996510
  46.3462000  90.5837021  17.2816804  47.1348858  89.6147513  19.0337376
  47.9541747  90.1091592  19.0572213  47.4085666  88.6979481  19.0054943
  56.8915454  82.0058265   8.3965331  56.0041309  82.2907916   8.1785526
  57.3069443  81.8452029   7.5492608  60.2429990  82.0304786  12.1119670
  61.0190381  82.5201239  12.3844287  59.5178125  82.4562840  12.5691540
  62.6802549  82.7432405  13.1693611  63.2747040  82.5028141  12.4586919
  62.7529133  82.0239536  13.7967147  44.8999705  96.5866016  13.4836776
  44.7654173  95.8266417  12.9174774  44.4831767  97.3106916  13.0165565
  56.0358668  91.7702940   2.4913351  56.7394518  91.9752942   3.1071007
  55.3121317  92.3379702   2.7562435  56.8656478  87.5212801   8.6115621
  56.8091679  87.9781353   7.7723254  57.4184820  86.7603486   8.4338464
  60.6761284  83.3102533   9.4365741  60.4198218  82.9099169  10.2673948
  60.0514152  84.0246327   9.3115880  64.9873622  86.0498606  11.9437032
  64.4273180  86.1191796  12.7168594  64.3817125  85.8739591  11.2236528
  48.0568831  97.4835333  13.6955218  47.9401215  98.4280766  13.5933909
  47.2361277  97.1808895  14.0841018  57.9445365  92.2085469   4.5411811
  58.7790969  91.7766668   4.3589286  57.7829708  92.0367483   5.4688706
  57.5991257  88.7117582   5.9068150  57.5440061  88.5461854   4.9656595
  56.9737313  89.4193615   6.0630340  42.3883772  83.9485647  19.7329573
  43.0342636  83.4384601  20.2216798  42.1800923  84.6854328  20.3072998
  54.9137165  91.0166494  25.2321713  55.7828324  91.1907147  24.8708348
  54.4343916  91.8360911  25.1097443  50.9087383  78.2125691   5.4853469
  50.8966053  79.1567531   5.6421740  51.8010805  78.0295837   5.1912930
  49.0823345  98.1363595  16.9111147  49.9850591  98.1687206  17.2277642
  48.8560715  97.2064046  16.9257483  50.8376947  96.8894582  13.5721226
  49.8872578  96.8896443  13.4585598  51.1409433  96.1427316  13.0557260
  54.7239502  74.8068468   9.7399406  53.9571898  74.2526955   9.8856088
  55.1350207  74.8790337  10.6013557  46.7281263  81.0953264  23.8304587
  47.5912725  80.7390069  24.0407911  46.1546674  80.7567159  24.5179991
  66.5729640 102.7255120  14.6366988  67.2108050 102.6061868  13.9330328
  66.4550483 103.6735964  14.6954940  63.3819347 102.6782548  14.5728513
  63.0437858 102.5623613  13.6849047  64.2509115 102.2773713  14.5529519
  59.2406162 104.5318025  10.5625404  58.6771027 104.4407962   9.7941691
  59.1258557 103.7117929  11.0427896  63.8639130 103.8317400  20.5314718
  63.8527770 103.4370198  19.6595222  64.0259769 103.0983473  21.1248490
  56.7870594 106.0269216  13.4009624  57.5791886 105.6860041  12.9855923
  57.0267244 106.1364191  14.3211777  64.8205721 108.1988992   5.8739868
  64.1693701 108.7843073   5.4873882  65.6150084 108.7295187   5.9334906
  58.7461348 105.2878130   6.2727003  59.5192224 104.7407117   6.1339879
  59.0986747 106.1522379   6.4841464  60.5846391 106.6154512  19.4793902
  60.2936257 107.5200143  19.3640568  61.2203375 106.6571039  20.1937972
  61.5102598 103.9931360  16.0695262  62.1066170 103.7687383  15.3552225
  61.5677569 103.2516106  16.6720710  61.0827626 101.4470796   3.9045453
  61.3353147 100.9252317   3.1428916  60.1452185 101.2836941   4.0072136
  66.1270909 100.4506574  11.7120196  66.9133998 100.0325997  11.3610613
  66.3909613 101.3552666  11.8801844  66.2980986 105.8879424   6.4108853
  65.6626819 105.9614051   7.1229757  65.9678392 106.4773023   5.7327932
  71.5279336 100.3881807  12.6153174  72.2604508  99.8181024  12.8491004
  70.7718692 100.0003408  13.0559680  60.8023915 103.3498902   6.1069828
  60.6860173 102.6743805   6.7750912  60.9126175 102.8631276   5.2901981
  63.1455456 102.8109049   9.8116517  62.7813663 102.2839670  10.5229438
  64.0022571 102.4207518   9.6383002  69.0504756  94.1003381  17.0747783
  68.7188081  94.9698792  16.8508998  68.4550370  93.7839665  17.7541813
  62.7860943  97.8398948   4.8077865  62.9535345  98.7079185   5.1748336
  62.5958112  98.0026230   3.8839155  65.5436276 106.3015927  16.4743696
  65.2436999 107.2040966  16.3659503  65.1987335 106.0348111  17.3264849
  58.9948757 102.7529724  12.5080400  58.0699254 102.6205938  12.7158092
  59.2433170 103.5323943  13.0050343  68.9433420  98.8198468  14.1541133
  68.0350297  98.7513876  13.8599894  68.8921015  99.2970413  14.9822959
  62.7650163 100.2956606   5.7924532  62.6449789 100.7413657   6.6310013
  62.0702752 100.6441924   5.2338070  56.3557568 102.3962998  13.3424189
  56.4849949 102.6497477  14.2563601  55.6755020 102.9890706  13.0228844
  60.5257056 113.0660248   9.4414663  60.4481085 114.0168073   9.5203144
  59.9218699 112.7206120  10.0989590  63.0174285 100.2388113  22.0976030
  62.2407619 100.7982033  22.0878895  63.6564848 100.7244896  22.6190901
  70.8095066  97.0214906  15.9319007  70.1669446  97.3147439  15.2858802
  70.3049994  96.9067826  16.7372204  68.4635230 100.7678079   6.6204866
  69.3753086 101.0005466   6.4452564  67.9544877 101.3515123   6.0579945
  61.2720658 103.0473567  21.6593997  62.0135342 103.5858610  21.3828821
  60.5657643 103.6739855  21.8165549  66.7475997 105.1902707  20.2566159
  67.1559353 104.7485118  19.5120791  66.0253259 104.6155335  20.5100352
  63.1007067 100.1275314  17.6299716  63.9468262 100.5514727  17.7734365
  63.0405705  99.4708938  18.3238279  67.0704812 105.7503898  14.0118448
  66.4413674 105.9149612  13.3094516  66.6830474 106.1645507  14.7829412
  70.9494044 106.6858335  11.3662812  70.2645082 107.0657237  10.8159845
  71.0337893 107.2953662  12.0994759  66.2506513  97.7879682  19.2880889
  66.0067445  98.5421743  18.7515165  66.5266443  98.1665030  20.1228137
  68.2044975 104.3318294  17.9658155  68.4161871 104.9750054  17.2892536
  68.1574724 103.4980611  17.4980085  65.8071204  96.9436115  14.8694727
  64.9455683  97.2417369  15.1611465  65.8333639  97.1606514  13.9375760
  62.6232774 105.4878306  11.2768533  63.0871119 105.7666009  10.4873155
  62.3589572 104.5861750  11.0941624  59.5156855 105.0349787  14.2148296
  60.0858212 105.4637056  13.5765781  60.1064967 104.7532372  14.9132482
  61.5601660 101.6101458   8.0858098  62.2625703 102.0622502   8.5532024
  61.2282288 100.9685277   8.7137991  60.0082021 100.2013215  22.4609307
  59.3780682 100.8829496  22.6944704  59.9018109 100.0896296  21.5162446
  55.3026994  99.8685011  13.3875232  54.5126048 100.1242539  12.9115342
  55.7938241 100.6833349  13.4927272  69.3190803 107.2090250  16.1380512
  70.1408247 106.8070437  15.8563194  69.3153206 107.1058484  17.0896628
  57.2541739 100.2329590  10.3458708  56.4572902 100.3448284  10.8642204
  57.0267331 100.5716242   9.4799599  63.0847407 106.7574293  18.2941223
  63.1491839 107.2194700  19.1299395  62.3758331 106.1271658  18.4223533
  53.5864697 100.1215501  15.8190222  53.8372735 101.0062511  16.0847798
  54.1224245  99.9420103  15.0465314  77.4096796 103.5528998  12.4865484
  76.6560505 102.9836396  12.3309488  77.5444338 103.5191663  13.4336119
  62.7995424 108.4242401   8.1620203  62.6641099 109.2693936   8.5905051
  63.3405237 108.6261678   7.3986137  59.2862764  94.5033981  24.8234558
  58.8929710  93.9500179  25.4982203  60.1028904  94.8144559  25.2141076
  56.2524822 105.9417839   8.7348128  56.7649342 106.7361089   8.8853693
  56.9047535 105.2444129   8.6681730  58.0619707 109.0583595  10.8170881
  58.2386335 109.9801560  10.6291865  58.8576540 108.7442014  11.2465261
  62.2030725  95.9191860  22.4154815  62.9440438  96.5199013  22.3359277
  62.4348648  95.1769497  21.8572858  57.3472063 101.1048227  20.6933045
  57.2325578 100.2033484  20.9940144  56.4916581 101.3511924  20.3417861
  64.4263901 109.0465967  22.2920545  63.9827755 108.2602346  21.9741450
  65.0881114 109.2345118  21.6264436  59.1851022 110.5761769  16.8181224
  59.7358447 110.4478832  16.0458218  58.3462498 110.8756658  16.4676117
  66.5245139 109.3268767  20.3201947  66.5063614 110.1477648  19.8282216
  67.4465059 109.2022842  20.5452088  62.9818193 106.8412897  21.1625455
  63.5146530 106.0801185  20.9324763  62.4532274 106.5486548  21.9049609
  66.1487888  91.9472963  16.6919097  65.8052157  92.8374604  16.6158207
  66.5166851  91.7574620  15.8288682  54.2173739 104.2706493   9.5107699
  55.0548961 104.6803501   9.2941407  54.3952006 103.3305935   9.4807893
  66.1138171 101.9381574   5.1991532  65.5984794 102.7086178   5.4379919
  65.8415479 101.2646710   5.8224593  63.6985282  96.7831274  10.2576770
  62.8426878  96.3938125  10.0782409  64.1112234  96.8623235   9.3976556
  65.2284428  94.3177618  14.6568330  64.7249224  94.2807753  13.8436135
  65.5215035  95.2270360  14.7164987  61.4727314  94.4016347  13.6634512
  62.3380311  94.2059156  13.3040401  61.5404823  94.1726699  14.5903868
  71.0872445 104.6913928   7.1344705  70.3101888 104.3525088   6.6899867
  71.7663926 104.6966551   6.4599670  65.9024474  99.8108666   7.0251313
  65.5974609 100.1254815   7.8761456  66.8554916  99.8890086   7.0678646
  64.3470906 105.9698889   8.6744267  63.8192267 105.2351649   8.3617504
  63.8458408 106.7473565   8.4284235  69.3263752 104.1647910  13.7911313
  68.6687426 104.8547171  13.8791442  70.1304151 104.5544342  14.1345300
  59.0789633  96.6318555  11.0350878  59.6533385  96.4093737  10.3024071
  59.6660616  96.7007250  11.7879480  68.1369211 102.5192282  11.8415255
  68.6501092 103.1522274  12.3436965  68.7870434 101.9193478  11.4758615
  59.4059220  98.6623016   5.0546764  58.5696533  98.9997703   5.3756038
  59.2663990  98.5271996   4.1173901  61.3812301  93.5059804   9.7625948
  60.7276713  93.1908821   9.1382563  61.3392775  92.8835545  10.4885771
  62.4923506 103.7879099   1.6779240  61.5850568 103.5568353   1.8770389
  62.9894538 102.9916719   1.8653222  65.3991585 112.4976607   4.5975926
  64.7253284 112.8008303   5.2060884  65.7857407 113.3005687   4.2481383
  64.6150041  99.9941738  14.0873596  63.6972603 100.2156685  13.9295284
  65.0310185 100.0688048  13.2285303  65.3985089 101.3933154   9.2176276
  66.1456908 101.9054551   8.9083398  65.6676679 101.0717206  10.0780669
  63.6711739 103.8891694   6.2003230  62.7622959 103.6050727   6.2975700
  63.7006823 104.3090773   5.3406537  68.9031007 107.4998284   9.9694398
  68.4493334 106.6589194  10.0259588  68.2724973 108.1359682  10.3069178
  67.8463926  98.4290270  11.1995065  67.1086683  97.9167656  11.5305308
  68.0990700  97.9890651  10.3878342  67.3463946 109.3374780  10.9044216
  67.6386920 109.8979838  10.1856581  67.8562567 109.6303341  11.6597375
  67.9475554  91.2066522  11.7936834  68.2534430  90.3463885  11.5062749
  68.6728158  91.7984142  11.5935828  54.2399910 101.6097208  10.1818432
  54.0424310 101.0166569   9.4569499  53.6846574 101.3049419  10.8994371
  62.2196633 101.5020315  12.3013025  62.2745243 100.5494151  12.2255502
  61.4087835 101.6579754  12.7854324  63.3687827 105.4300438   3.5391309
  62.9307257 104.7136297   3.0796946  64.1098268 105.6576553   2.9776400
  60.1588993 100.1197375  10.0603404  59.3456859 100.4191545  10.4668596
  60.6547988  99.7253063  10.7777887  62.3097571 110.1155132  11.9937669
  62.2673750 110.3415978  11.0646201  63.2260270 109.8818506  12.1423470
  65.7563205 100.5839199  18.8918298  66.1112593 100.8110672  19.7512764
  66.4035336 100.9157576  18.2695553  71.4860942 103.7057635   9.5967627
  71.3478841 103.8959231   8.6688816  71.1297161 104.4677018  10.0535678
  59.6503068  97.6915730  15.6764639  60.2902447  97.5504489  14.9787603
  58.8180599  97.4050243  15.3003241  71.5130322 105.7734162  14.6078899
  71.9466828 105.6809451  15.4561953  72.2261902 105.7491662  13.9698915
  60.4263372 106.9918161  11.7899632  61.2203970 106.4968481  11.5882207
  59.7155064 106.4636024  11.4267337  65.2458216 109.3736256  16.1411999
  65.2995239 109.9427192  16.9089715  64.3772998 109.5438141  15.7766036
  56.7346135 101.1361242   7.8659384  55.8043724 101.0745698   8.0829347
  56.8303607 100.6137195   7.0696026  56.6531685  97.6616055  10.4537626
  56.9138502  98.5761388  10.3446787  57.4748857  97.1940498  10.6034239
  58.1256610  99.0753812  17.6236451  58.7979663  98.8671174  16.9749099
  57.2986396  98.8775898  17.1841683  72.3745871 105.8157863  17.1411784
  72.5681761 106.7203673  17.3871059  72.2746489 105.3565282  17.9750369
  64.0282182  95.7015753  19.6402111  63.3810097  96.4005703  19.5466588
  64.7983197  96.1351897  20.0078360  67.4360980 105.9664605  22.7152665
  67.2846486 105.7375157  21.7982748  67.4265659 106.9235207  22.7284010
  64.2046316 103.5396518  17.6998931  65.1338376 103.6907678  17.5267898
  63.7837346 103.6280539  16.8447578  63.0034648 107.5647183  15.4697469
  62.8645734 107.1965967  16.3423407  62.2149244 108.0794822  15.2981427
  63.5982800 112.6656279   6.8123005  63.7734556 112.1944322   7.6268628
  62.9115588 113.2922045   7.0404266  64.5539863 106.9428785  12.8586307
  64.2189696 106.9029555  13.7543956  64.0543809 106.2773501  12.3856717
  58.5284107 102.3496415  18.3838888  58.3903905 101.6176654  18.9850427
  59.4389031 102.2605315  18.1023075  67.4899055 104.2884820   3.1323366
  66.8728225 103.5631648   3.0356419  67.0215543 105.0494180   2.7890441
  61.1566408 102.0616375  17.8722567  61.8666026 101.4209567  17.8309186
  61.1135716 102.3129269  18.7948748  69.1453186 108.9983728  20.7929147
  69.0865733 108.3142948  20.1259730  69.5472705 109.7402718  20.3409773
  59.8695342  99.0481592  19.6918207  59.3332699  98.5972331  20.3439803
  59.2812050  99.1827501  18.9488671  58.1643885 115.8145642  13.5862865
  58.4040483 116.4464166  14.2641884  57.3213082 115.4633682  13.8728225
  59.2797601  98.5070244   2.2544671  58.4027067  98.3859045   1.8906917
  59.7555354  97.7156322   2.0023559  69.1470594 106.9623312  19.0243126
  68.2597372 106.6249234  19.1469525  69.7169145 106.2306343  19.2611892
  50.7999741 103.2947404  12.3486178  51.4870781 102.9809134  11.7607193
  50.6447870 104.1988768  12.0753429  55.6034463  98.1837600  16.7771201
  55.5192652  97.5763270  16.0421611  54.7817169  98.6746618  16.7780698
  62.6771747 111.6224764  15.9904369  62.6041919 112.4279736  16.5023674
  62.2349140 111.8216730  15.1652391  62.4661527 110.8596534   9.5007191
  61.6829049 111.4018214   9.5945416  63.1654272 111.3770514   9.9001432
  65.7758177  96.6691164  12.1441396  66.2726876  95.9161126  11.8242467
  65.0045158  96.7055480  11.5784606  73.6287934 102.3731529  13.7859688
  73.6177810 103.2556245  13.4153621  72.7605314 102.0203080  13.5914225
  65.1370431 111.5211598  18.1462528  65.8498403 112.1559063  18.0738430
  64.6460459 111.6175464  17.3302530  66.8587958 105.4262851   9.7179820
  65.9244236 105.5464313   9.5484524  67.0364626 104.5235318   9.4539830
  62.3593146  98.8108547  11.8713081  61.9890933  98.2579587  12.5593987
  62.8552238  98.2066680  11.3188081  70.2460509 101.2680170  10.2529854
  70.7120961 102.1008162  10.1790157  70.6968009 100.8025152  10.9575112
  60.1882344 109.2706042  18.9668099  60.8891804 109.9042525  19.1197493
  59.7177459 109.6120773  18.2063738  68.3136740 107.6123991   7.2516006
  68.5896584 107.4980586   8.1609880  67.4441239 107.2141476   7.2128179
  68.2177172  93.6360757  14.2920755  67.3040251  93.8664984  14.4602962
  68.6470273  93.7199201  15.1434788  67.9883630 101.8250649  16.7920649
  67.3355080 102.0726557  16.1373102  68.3664010 101.0114787  16.4583127
  64.9490804 111.8610342  10.8948820  65.1313199 111.0431998  11.3576572
  65.7723790 112.0778035  10.4573710  65.2832970 110.7878527   8.1563868
  65.8120736 110.2770982   7.5434030  65.5461189 110.4721058   9.0209401
  64.0371203 102.5670460  23.2786686  63.3611840 102.4664590  23.9489062
  64.8598837 102.4109674  23.7422684  55.7850062 108.8042397  15.8999202
  56.3703499 108.0586085  16.0327106  55.5874901 109.1146353  16.7835866
  58.6388717 111.8393644  10.9161644  57.9699093 112.3239772  10.4325684
  58.5001587 112.0862865  11.8305023  50.3767717 101.3747997  14.6203645
  50.4151816 100.8411588  15.4140763  49.8708010 100.8483202  14.0014622
  62.7793986 113.8737388  17.5144302  63.3312294 114.0369009  18.2793388
  63.1200179 114.4641825  16.8424327  57.7558479  96.2212537  18.1166187
  57.8199806  97.0827368  17.7043585  57.6925600  95.6086539  17.3838546
  57.2310752  98.2935670  21.7639221  57.8582791  97.9112747  22.3776746
  56.3738671  98.0749872  22.1294914  67.6304860 108.6998645  23.3692957
  68.1744764 109.3128603  22.8747912  67.0491705 109.2578224  23.8859970
  54.0076295 100.1012099   7.6957576  54.3029736  99.1922777   7.6424630
  53.1064330 100.0799839   7.3738579  65.9162373 111.8219363  14.5007985
  65.7913513 111.0209103  13.9918930  66.5741464 112.3165557  14.0121955
  57.5370542  98.1768096  13.6785125  56.8157127  98.7904063  13.5392598
  58.3263797  98.7125860  13.6001771  67.9797282 109.6228383  16.1287535
  67.0327617 109.5033734  16.0565861  68.3280055 108.7350881  16.2113796
  60.3396855  95.5122522  19.9525777  60.8631257  95.7584819  20.7152086
  60.1209188  96.3442557  19.5328914  55.7364136  97.7826197   7.8196901
  55.4076842  96.9023576   7.6372007  56.0903507  97.7273865   8.7073291
  64.9843715 109.4181099  12.3291887  64.8368677 108.4897807  12.5099457
  65.8097208 109.4401190  11.8448962  58.8505959  98.0699167   8.1872379
  59.1902032  98.5985088   7.4650987  59.2978080  98.4079573   8.9630946
  68.5877837 110.2409658  13.4156760  69.5124384 110.0352520  13.2781211
  68.4193140 109.9926059  14.3246101  61.5449400  96.4536217  17.6375447
  61.2046220  95.6544030  18.0396127  60.8388406  96.7537928  17.0652280
  62.1965872  93.5385530  16.0902770  63.0191941  93.0646008  15.9681660
  62.4403935  94.3176013  16.5901456  60.8374106  96.5673788   6.3865672
  61.5582469  96.9455041   5.8829389  60.2139411  97.2862665   6.4900650
  64.9805229  97.2718937   7.3224004  65.1968844  98.1543575   7.0212832
  64.4999296  96.8805151   6.5929646  59.7204451 100.2304650  13.8994749
  59.5749031 100.5444953  14.7919030  59.2429654 100.8489551  13.3465647
  61.5800834  97.2207198  13.9475638  61.5662402  96.3248292  13.6107936
  62.2973262  97.2277862  14.5813924  63.4326964  97.6544539  15.9928766
  63.1744742  98.5761609  15.9913096  62.9012005  97.2574973  16.6829230
  68.3773153 110.7595326   8.7718851  68.5510031 110.1941748   8.0192704
  68.8702044 111.5596221   8.5898341  54.1950113 102.7709995  16.8382410
  53.6503581 103.5469803  16.9702684  55.0729463 103.1180799  16.6801531
  60.9837730  96.1021579   9.2163208  61.1053641  95.1738225   9.4154096
  60.6939772  96.1160265   8.3041524  63.8528920  93.7876489  12.3529928
  63.8750617  93.8515822  11.3981908  64.2696979  92.9480998  12.5470434
  74.2312544 103.5231749  10.3909151  74.6743690 102.7739074   9.9928274
  73.3539055 103.5141885  10.0082883  69.3648326 110.0762090   5.8715749
  70.0599230 110.6968783   6.0903064  69.7071476 109.2257441   6.1468127
  54.9816135 101.8979891  19.7312567  54.2397871 102.0462526  20.3177197
  54.6608879 102.1588157  18.8679316  71.2639749 107.5261796   7.4003080
  71.7891073 107.8649068   6.6752400  71.1762101 106.5908811   7.2166215
  62.9259797 111.4395869  19.5292957  63.2346924 111.1945016  20.4015656
  63.7235279 111.6442508  19.0411827  62.9480409 113.5933779  11.7598333
  62.5085400 113.1010158  12.4531190  63.6988526 113.0506747  11.5190409
  55.4272748 109.7845320  11.7622961  56.2530768 109.4849092  11.3821605
  55.0766800 109.0152942  12.2112750  60.3954282 109.1371788  13.8320635
  59.7734291 108.4742493  13.5322863  61.0659148 109.1632920  13.1494283
  53.6281353 107.7031646  12.7211895  52.7913262 107.2753821  12.5395896
  53.6004999 107.8964090  13.6582686  60.4678809  97.6153576  23.4253141
  60.5166965  98.4915699  23.0430911  61.0101323  97.0730969  22.8524784
  70.9533655 108.1594699  22.7054278  70.1629198 108.1418838  22.1658777
  70.7167009 108.6982993  23.4603315  71.0731530 105.0087166  20.0187007
  71.1229535 104.8437173  20.9602529  70.9645453 104.1414425  19.6284887
  59.9567788 107.6875711   7.3079096  60.1055909 108.3711176   6.6545768
  60.7634232 107.6680801   7.8228551  68.3635292 100.9918094  21.3346313
  69.2645155 100.8524558  21.0430311  68.4383267 101.1572548  22.2744491
  62.6978097  98.3684948  20.1799500  61.8281407  98.6618514  19.9082088
  62.9337578  98.9525393  20.9006763  72.5749727 107.4284107  20.2629028
  72.2834535 107.7914088  21.0992489  71.9621858 106.7151115  20.0842360
  73.7745409 104.9936987  12.7831598  74.6092300 105.4326791  12.9469159
  73.9104538 104.5175640  11.9639844  70.8236915 102.5516722  18.7309086
  71.2991036 102.7444368  17.9227938  69.9002480 102.6075908  18.4852470
  57.7120421 103.7140889   8.3140164  57.4666463 102.8103219   8.5120375
  57.8816336 103.7158039   7.3719642  65.4017131  94.5864565  17.6964920
  65.9199075  95.3225592  17.3711409  65.0472264  94.8928559  18.5311679
  56.9816069  99.4469247   5.8126326  56.2885314  99.5213601   5.1566362
  56.7367821  98.6829590   6.3347843  65.6529725  91.0064848  13.2165817
  65.9331479  90.3388037  13.8426243  66.4380332  91.1993943  12.7040480
  63.4563194 110.1823842   4.7790843  62.8837161 110.8014029   4.3261315
  64.0295988 110.7323203   5.3130765  69.5238584  99.4282482  16.9637392
  70.4756007  99.5280579  16.9849616  69.3542034  98.6360750  17.4735476
  67.5452963  96.5138065  17.1496793  66.9502895  96.7943078  16.4543281
  67.2602660  97.0031966  17.9213534  66.6760454 110.4660992   5.9099425
  67.6091127 110.4006554   6.1132301  66.5883667 111.3017259   5.4513958
  69.3048470 109.7826862   2.8703373  69.2262102 109.4486726   3.7639131
  70.1258137 110.2748630   2.8694845  72.0026662 102.6488602  16.0779691
  71.9702982 101.7104602  16.2639375  72.6127285 102.7272638  15.3445516
  63.8409992 101.5184654   2.1206895  64.7869097 101.3890863   2.1895313
  63.4624237 100.7799316   2.5976324  72.1521150  99.4399645  16.1237975
  71.6360199  98.6558102  15.9367903  73.0361099  99.1118362  16.2884494
  69.8131877  93.1840661  12.0833787  69.6156698  92.8755749  12.9677119
  70.4231583  93.9102299  12.2131717  77.8203211 103.7104608  15.2185728
  78.5506600 103.4489896  15.7793432  77.2110157 102.9733330  15.2587796
  75.9018509 101.8512471  15.8160179  75.1751672 101.7168436  15.2076671
  75.4865795 102.1589300  16.6216897  63.7248685 105.5702401  23.5807552
  64.6451694 105.7481000  23.7747599  63.6898268 104.6258446  23.4287252
  62.0252910  99.4434631   2.0561781  61.1184365  99.1467744   2.1324494
  62.3028891  99.1464449   1.1896067  52.9430850 100.7640994  12.5060827
  52.6233634  99.9106302  12.2135201  52.3964278 100.9789572  13.2618794
  56.7210758 103.4803435  16.2230334  56.9396767 104.4120543  16.2418367
  57.1336531 103.1211410  17.0085137  63.6414975  93.9871521   8.2106022
  62.8315704  93.6418606   8.5861268  64.3299392  93.6779064   8.7993634
  65.5705524  93.0649567   9.8330319  66.1236562  93.4845021  10.4920342
  65.8075610  92.1385316   9.8753275  61.5938623  99.0536641  25.6133083
  61.4935350 100.0030998  25.5445174  61.3760165  98.7254880  24.7409153
  60.7951694  96.3021566   2.1973760  61.6570858  96.6276464   2.4569577
  60.9802038  95.5153062   1.6846826  52.8119110 104.3843906  14.4753949
  52.1182581 103.9697859  13.9623903  53.5592101 104.4264442  13.8787368
  68.9484331  95.1750093   9.3408983  68.3683000  95.8334897   8.9587035
  68.6820263  94.3527437   8.9296400  67.3987897  94.5755150  11.5430303
  67.8987675  94.6871685  10.7344622  68.0423505  94.2716203  12.1831112
  61.4569893 102.4833780  24.4298144  60.9736975 103.2834140  24.6362033
  61.5430832 102.4941725  23.4765588  54.7255853 104.3162160  12.3519964
  54.7026541 104.4149847  11.4001847  55.0356489 105.1627310  12.6737130
  57.3843230 106.3738315  16.4666578  58.3386484 106.3422257  16.3996510
  57.1855754 105.9128938  17.2816804  57.9742613 104.9439431  19.0337376
  58.7935502 105.4383509  19.0572213  58.2479420 104.0271399  19.0054943
  67.7309209  97.3350183   8.3965331  66.8435064  97.6199834   8.1785526
  68.1463198  97.1743946   7.5492608  71.0823745  97.3596704  12.1119670
  71.8584135  97.8493156  12.3844287  70.3571879  97.7854758  12.5691540
  73.5196304  98.0724323  13.1693611  74.1140794  97.8320059  12.4586919
  73.5922887  97.3531454  13.7967147  55.7393459 111.9157934  13.4836776
  55.6047927 111.1558335  12.9174774  55.3225521 112.6398834  13.0165565
  66.8752422 107.0994858   2.4913351  67.5788272 107.3044860   3.1071007
  66.1515071 107.6671620   2.7562435  67.7050233 102.8504719   8.6115621
  67.6485434 103.3073270   7.7723254  68.2578575 102.0895403   8.4338464
  71.5155038  98.6394451   9.4365741  71.2591973  98.2391086  10.2673948
  70.8907906  99.3538245   9.3115880  75.8267376 101.3790524  11.9437032
  75.2666934 101.4483713  12.7168594  75.2210880 101.2031509  11.2236528
  58.8962585 112.8127251  13.6955218  58.7794969 113.7572684  13.5933909
  58.0755031 112.5100813  14.0841018  68.7839120 107.5377387   4.5411811
  69.6184724 107.1058585   4.3589286  68.6223463 107.3659400   5.4688706
  68.4385012 104.0409500   5.9068150  68.3833816 103.8753772   4.9656595
  67.8131067 104.7485533   6.0630340  53.2277527  99.2777564  19.7329573
  53.8736390  98.7676518  20.2216798  53.0194678 100.0146246  20.3072998
  65.7530919 106.3458412  25.2321713  66.6222079 106.5199064  24.8708348
  65.2737670 107.1652829  25.1097443  61.7481137  93.5417609   5.4853469
  61.7359807  94.4859449   5.6421740  62.6404559  93.3587755   5.1912930
  59.9217099 113.4655513  16.9111147  60.8244346 113.4979123  17.2277642
  59.6954469 112.5355964  16.9257483  61.6770701 112.2186500  13.5721226
  60.7266332 112.2188361  13.4585598  61.9803187 111.4719234  13.0557260
  65.5633257  90.1360386   9.7399406  64.7965653  89.5818872   9.8856088
  65.9743962  90.2082255  10.6013557  57.5675018  96.4245182  23.8304587
  58.4306479  96.0681986  24.0407911  56.9940428  96.0859076  24.5179991
  77.4123395 118.0547038  14.6366988  78.0501805 117.9353785  13.9330328
  77.2944238 119.0027882  14.6954940  74.2213101 118.0074466  14.5728513
  73.8831613 117.8915531  13.6849047  75.0902869 117.6065631  14.5529519
  70.0799917 119.8609942  10.5625404  69.5164782 119.7699879   9.7941691
  69.9652312 119.0409847  11.0427896  74.7032884 119.1609318  20.5314718
  74.6921525 118.7662116  19.6595222  74.8653523 118.4275390  21.1248490
  67.6264349 121.3561134  13.4009624  68.4185641 121.0151959  12.9855923
  67.8660999 121.4656109  14.3211777  69.5855103 120.6170047   6.2727003
  70.3585979 120.0699034   6.1339879  69.9380501 121.4814297   6.4841464
  71.4240145 121.9446430  19.4793902  71.1330011 122.8492060  19.3640568
  72.0597129 121.9862957  20.1937972  72.3496352 119.3223278  16.0695262
  72.9459924 119.0979300  15.3552225  72.4071324 118.5808024  16.6720710
  71.9221380 116.7762713   3.9045453  72.1746901 116.2544235   3.1428916
  70.9845939 116.6128859   4.0072136  76.9664663 115.7798492  11.7120196
  77.7527752 115.3617915  11.3610613  77.2303368 116.6844584  11.8801844
  77.1374741 121.2171342   6.4108853  76.5020574 121.2905969   7.1229757
  76.8072147 121.8064941   5.7327932  82.3673090 115.7173725  12.6153174
  83.0998262 115.1472942  12.8491004  81.6112446 115.3295325  13.0559680
  71.6417669 118.6790819   6.1069828  71.5253927 118.0035723   6.7750912
  71.7519929 118.1923193   5.2901981  73.9849210 118.1400966   9.8116517
  73.6207417 117.6131587  10.5229438  74.8416326 117.7499436   9.6383002
  79.8898511 109.4295299  17.0747783  79.5581835 110.2990710  16.8508998
  79.2944124 109.1131583  17.7541813  73.6254697 113.1690866   4.8077865
  73.7929099 114.0371103   5.1748336  73.4351866 113.3318148   3.8839155
  76.3830030 121.6307845  16.4743696  76.0830753 122.5332884  16.3659503
  76.0381090 121.3640028  17.3264849  69.8342512 118.0821642  12.5080400
  68.9093008 117.9497856  12.7158092  70.0826925 118.8615861  13.0050343
  79.7827174 114.1490385  14.1541133  78.8744051 114.0805794  13.8599894
  79.7314770 114.6262330  14.9822959  73.6043918 115.6248524   5.7924532
  73.4843543 116.0705574   6.6310013  72.9096506 115.9733841   5.2338070
  67.1951323 117.7254915  13.3424189  67.3243704 117.9789394  14.2563601
  66.5148774 118.3182623  13.0228844  71.3650810 128.3952165   9.4414663
  71.2874840 129.3459990   9.5203144  70.7612454 128.0498038  10.0989590
  73.8568040 115.5680031  22.0976030  73.0801374 116.1273951  22.0878895
  74.4958603 116.0536814  22.6190901  81.6488820 112.3506824  15.9319007
  81.0063201 112.6439357  15.2858802  81.1443749 112.2359744  16.7372204
  79.3028984 116.0969997   6.6204866  80.2146840 116.3297384   6.4452564
  78.7938631 116.6807041   6.0579945  72.1114412 118.3765484  21.6593997
  72.8529096 118.9150528  21.3828821  71.4051398 119.0031773  21.8165549
  77.5869752 120.5194625  20.2566159  77.9953108 120.0777035  19.5120791
  76.8647013 119.9447252  20.5100352  73.9400822 115.4567231  17.6299716
  74.7862017 115.8806645  17.7734365  73.8799459 114.8000856  18.3238279
  77.9098566 121.0795815  14.0118448  77.2807429 121.2441529  13.3094516
  77.5224228 121.4937425  14.7829412  81.7887798 122.0150253  11.3662812
  81.1038836 122.3949155  10.8159845  81.8731648 122.6245580  12.0994759
  77.0900267 113.1171600  19.2880889  76.8461199 113.8713660  18.7515165
  77.3660198 113.4956947  20.1228137  79.0438730 119.6610212  17.9658155
  79.2555625 120.3041972  17.2892536  78.9968478 118.8272529  17.4980085
  76.6464959 112.2728033  14.8694727  75.7849438 112.5709286  15.1611465
  76.6727393 112.4898432  13.9375760  73.4626528 120.8170223  11.2768533
  73.9264874 121.0957926  10.4873155  73.1983326 119.9153668  11.0941624
  70.3550609 120.3641705  14.2148296  70.9251966 120.7928973  13.5765781
  70.9458721 120.0824290  14.9132482  72.3995414 116.9393376   8.0858098
  73.1019458 117.3914419   8.5532024  72.0676043 116.2977195   8.7137991
  70.8475776 115.5305132  22.4609307  70.2174436 116.2121413  22.6944704
  70.7411864 115.4188214  21.5162446  66.1420748 115.1976928  13.3875232
  65.3519802 115.4534457  12.9115342  66.6331996 116.0125266  13.4927272
  80.1584558 122.5382168  16.1380512  80.9802002 122.1362355  15.8563194
  80.1546961 122.4350402  17.0896628  68.0935494 115.5621508  10.3458708
  67.2966657 115.6740202  10.8642204  67.8661086 115.9008160   9.4799599
  73.9241161 122.0866211  18.2941223  73.9885594 122.5486618  19.1299395
  73.2152085 121.4563576  18.4223533  64.4258451 115.4507419  15.8190222
  64.6766490 116.3354429  16.0847798  64.9618000 115.2712020  15.0465314
  88.2490551 118.8820916  12.4865484  87.4954259 118.3128314  12.3309488
  88.3838092 118.8483581  13.4336119  73.6389179 123.7534318   8.1620203
  73.5034854 124.5985854   8.5905051  74.1798991 123.9553596   7.3986137
  70.1256519 109.8325898  24.8234558  69.7323464 109.2792097  25.4982203
  70.9422659 110.1436477  25.2141076  67.0918576 121.2709756   8.7348128
  67.6043097 122.0653007   8.8853693  67.7441289 120.5736047   8.6681730
  68.9013461 124.3875513  10.8170881  69.0780089 125.3093477  10.6291865
  69.6970295 124.0733932  11.2465261  73.0424480 111.2483777  22.4154815
  73.7834193 111.8490930  22.3359277  73.2742402 110.5061415  21.8572858
  68.1865818 116.4340145  20.6933045  68.0719333 115.5325402  20.9940144
  67.3310335 116.6803841  20.3417861  75.2657655 124.3757885  22.2920545
  74.8221510 123.5894263  21.9741450  75.9274869 124.5637035  21.6264436
  70.0244776 125.9053686  16.8181224  70.5752202 125.7770750  16.0458218
  69.1856252 126.2048575  16.4676117  77.3638893 124.6560685  20.3201947
  77.3457369 125.4769566  19.8282216  78.2858813 124.5314760  20.5452088
  73.8211948 122.1704814  21.1625455  74.3540284 121.4093102  20.9324763
  73.2926029 121.8778466  21.9049609  76.9881643 107.2764880  16.6919097
  76.6445912 108.1666522  16.6158207  77.3560605 107.0866538  15.8288682
  65.0567493 119.5998411   9.5107699  65.8942715 120.0095419   9.2941407
  65.2345761 118.6597853   9.4807893  76.9531925 117.2673491   5.1991532
  76.4378549 118.0378096   5.4379919  76.6809234 116.5938628   5.8224593
  74.5379036 112.1123192  10.2576770  73.6820633 111.7230043  10.0782409
  74.9505988 112.1915153   9.3976556  76.0678183 109.6469535  14.6568330
  75.5642978 109.6099671  13.8436135  76.3608790 110.5562278  14.7164987
  72.3121069 109.7308265  13.6634512  73.1774066 109.5351074  13.3040401
  72.3798578 109.5018617  14.5903868  76.7418228 115.1400583   7.0251313
  76.4368364 115.4546733   7.8761456  77.6948671 115.2182003   7.0678646
  75.1864660 121.2990807   8.6744267  74.6586022 120.5643566   8.3617504
  74.6852163 122.0765483   8.4284235  80.1657506 119.4939827  13.7911313
  79.5081181 120.1839089  13.8791442  80.9697905 119.8836259  14.1345300
  69.9183388 111.9610473  11.0350878  70.4927140 111.7385655  10.3024071
  70.5054370 112.0299168  11.7879480  78.9762965 117.8484200  11.8415255
  79.4894847 118.4814192  12.3436965  79.6264189 117.2485395  11.4758615
  70.2452975 113.9914934   5.0546764  69.4090287 114.3289621   5.3756038
  70.1057745 113.8563914   4.1173901  72.2206056 108.8351722   9.7625948
  71.5670468 108.5200739   9.1382563  72.1786530 108.2127462  10.4885771
  75.4543796 115.3233655  14.0873596  74.5366357 115.5448603  13.9295284
  75.8703940 115.3979966  13.2285303  76.2378844 116.7225071   9.2176276
  76.9850663 117.2346468   8.9083398  76.5070433 116.4009124  10.0780669
  74.5105494 119.2183612   6.2003230  73.6016713 118.9342645   6.2975700
  74.5400578 119.6382690   5.3406537  79.7424761 122.8290201   9.9694398
  79.2887088 121.9881111  10.0259588  79.1118728 123.4651600  10.3069178
  78.6857681 113.7582187  11.1995065  77.9480438 113.2459574  11.5305308
  78.9384454 113.3182569  10.3878342  78.1857701 124.6666698  10.9044216
  78.4780675 125.2271755  10.1856581  78.6956321 124.9595259  11.6597375
  78.7869308 106.5358439  11.7936834  79.0928185 105.6755803  11.5062749
  79.5121913 107.1276060  11.5935828  65.0793664 116.9389126  10.1818432
  64.8818064 116.3458487   9.4569499  64.5240328 116.6341336  10.8994371
  73.0590388 116.8312233  12.3013025  73.1138998 115.8786069  12.2255502
  72.2481590 116.9871672  12.7854324  70.9982748 115.4489292  10.0603404
  70.1850613 115.7483463  10.4668596  71.4941742 115.0544981  10.7777887
  73.1491326 125.4447049  11.9937669  73.1067505 125.6707895  11.0646201
  74.0654025 125.2110424  12.1423470  76.5956960 115.9131117  18.8918298
  76.9506347 116.1402590  19.7512764  77.2429091 116.2449494  18.2695553
  82.3254696 119.0349553   9.5967627  82.1872595 119.2251149   8.6688816
  81.9690915 119.7968935  10.0535678  70.4896823 113.0207648  15.6764639
  71.1296202 112.8796407  14.9787603  69.6574353 112.7342161  15.3003241
  82.3524076 121.1026080  14.6078899  82.7860583 121.0101369  15.4561953
  83.0655657 121.0783580  13.9698915  71.2657126 122.3210078  11.7899632
  72.0597725 121.8260398  11.5882207  70.5548819 121.7927941  11.4267337
  76.0851971 124.7028174  16.1411999  76.1388993 125.2719110  16.9089715
  75.2166752 124.8730059  15.7766036  67.5739890 116.4653160   7.8659384
  66.6437478 116.4037615   8.0829347  67.6697362 115.9429113   7.0696026
  67.4925439 112.9907973  10.4537626  67.7532256 113.9053306  10.3446787
  68.3142611 112.5232415  10.6034239  68.9650364 114.4045730  17.6236451
  69.6373418 114.1963092  16.9749099  68.1380151 114.2067816  17.1841683
  83.2139626 121.1449780  17.1411784  83.4075516 122.0495591  17.3871059
  83.1140244 120.6857199  17.9750369  74.8675936 111.0307671  19.6402111
  74.2203851 111.7297621  19.5466588  75.6376952 111.4643815  20.0078360
  78.2754734 121.2956523  22.7152665  78.1240241 121.0667075  21.7982748
  78.2659414 122.2527124  22.7284010  75.0440071 118.8688436  17.6998931
  75.9732131 119.0199595  17.5267898  74.6231101 118.9572457  16.8447578
  73.8428402 122.8939100  15.4697469  73.7039488 122.5257885  16.3423407
  73.0542999 123.4086740  15.2981427  75.3933618 122.2720703  12.8586307
  75.0583450 122.2321473  13.7543956  74.8937563 121.6065419  12.3856717
  69.3677862 117.6788333  18.3838888  69.2297660 116.9468572  18.9850427
  70.2782785 117.5897233  18.1023075  71.9960162 117.3908292  17.8722567
  72.7059781 116.7501484  17.8309186  71.9529470 117.6421187  18.7948748
  79.9846941 124.3275646  20.7929147  79.9259487 123.6434866  20.1259730
  80.3866459 125.0694636  20.3409773  70.7089096 114.3773510  19.6918207
  70.1726453 113.9264249  20.3439803  70.1205805 114.5119419  18.9488671
  69.0037640 131.1437559  13.5862865  69.2434238 131.7756084  14.2641884
  68.1606836 130.7925599  13.8728225  70.1191355 113.8362162   2.2544671
  69.2420822 113.7150962   1.8906917  70.5949108 113.0448240   2.0023559
  79.9864348 122.2915230  19.0243126  79.0991127 121.9541151  19.1469525
  80.5562899 121.5598261  19.2611892  61.6393495 118.6239321  12.3486178
  62.3264535 118.3101051  11.7607193  61.4841624 119.5280686  12.0753429
  66.4428217 113.5129518  16.7771201  66.3586406 112.9055187  16.0421611
  65.6210924 114.0038536  16.7780698  73.5165502 126.9516682  15.9904369
  73.4435673 127.7571653  16.5023674  73.0742895 127.1508648  15.1652391
  73.3055281 126.1888452   9.5007191  72.5222803 126.7310132   9.5945416
  74.0048026 126.7062432   9.9001432  76.6151931 111.9983081  12.1441396
  77.1120631 111.2453044  11.8242467  75.8438913 112.0347398  11.5784606
  84.4681689 117.7023447  13.7859688  84.4571565 118.5848162  13.4153621
  83.5999068 117.3494998  13.5914225  75.9764185 126.8503516  18.1462528
  76.6892157 127.4850981  18.0738430  75.4854214 126.9467382  17.3302530
  77.6981712 120.7554769   9.7179820  76.7637991 120.8756231   9.5484524
  77.8758380 119.8527235   9.4539830  73.1986900 114.1400464  11.8713081
  72.8284688 113.5871505  12.5593987  73.6945993 113.5358598  11.3188081
  81.0854263 116.5972088  10.2529854  81.5514716 117.4300079  10.1790157
  81.5361764 116.1317069  10.9575112  71.0276099 124.5997959  18.9668099
  71.7285558 125.2334442  19.1197493  70.5571214 124.9412691  18.2063738
  79.1530494 122.9415909   7.2516006  79.4290338 122.8272504   8.1609880
  78.2834993 122.5433394   7.2128179  79.0570926 108.9652675  14.2920755
  78.1434006 109.1956902  14.4602962  79.4864028 109.0491119  15.1434788
  78.8277385 117.1542567  16.7920649  78.1748835 117.4018474  16.1373102
  79.2057765 116.3406705  16.4583127  75.7884559 127.1902260  10.8948820
  75.9706953 126.3723916  11.3576572  76.6117545 127.4069952  10.4573710
  74.8764958 117.8962378  23.2786686  74.2005595 117.7956507  23.9489062
  75.6992592 117.7401592  23.7422684  66.6243817 124.1334314  15.8999202
  67.2097254 123.3878002  16.0327106  66.4268655 124.4438271  16.7835866
  69.4782472 127.1685562  10.9161644  68.8092847 127.6531689  10.4325684
  69.3395342 127.4154782  11.8305023  61.2161471 116.7039915  14.6203645
  61.2545571 116.1703505  15.4140763  60.7101764 116.1775120  14.0014622
  73.6187741 129.2029305  17.5144302  74.1706049 129.3660927  18.2793388
  73.9593934 129.7933743  16.8424327  68.5952234 111.5504455  18.1166187
  68.6593560 112.4119286  17.7043585  68.5319354 110.9378457  17.3838546
  68.0704506 113.6227588  21.7639221  68.6976545 113.2404665  22.3776746
  67.2132425 113.4041790  22.1294914  78.4698615 124.0290563  23.3692957
  79.0138519 124.6420521  22.8747912  77.8885460 124.5870141  23.8859970
  64.8470049 115.4304017   7.6957576  65.1423490 114.5214695   7.6424630
  63.9458085 115.4091756   7.3738579  76.7556128 127.1511281  14.5007985
  76.6307267 126.3501021  13.9918930  77.4135219 127.6457474  14.0121955
  68.3764296 113.5060013  13.6785125  67.6550882 114.1195981  13.5392598
  69.1657552 114.0417778  13.6001771  78.8191036 124.9520301  16.1287535
  77.8721372 124.8325652  16.0565861  79.1673809 124.0642799  16.2113796
  71.1790610 110.8414440  19.9525777  71.7025011 111.0876736  20.7152086
  70.9602943 111.6734475  19.5328914  66.5757891 113.1118114   7.8196901
  66.2470597 112.2315493   7.6372007  66.9297261 113.0565783   8.7073291
  75.8237469 124.7473017  12.3291887  75.6762432 123.8189725  12.5099457
  76.6490963 124.7693108  11.8448962  69.6899714 113.3991084   8.1872379
  70.0295786 113.9277005   7.4650987  70.1371834 113.7371490   8.9630946
  79.4271591 125.5701576  13.4156760  80.3518139 125.3644437  13.2781211
  79.2586895 125.3217977  14.3246101  72.3843155 111.7828135  17.6375447
  72.0439975 110.9835948  18.0396127  71.6782161 112.0829846  17.0652280
  73.0359626 108.8677447  16.0902770  73.8585696 108.3937926  15.9681660
  73.2797690 109.6467931  16.5901456  71.6767861 111.8965706   6.3865672
  72.3976223 112.2746959   5.8829389  71.0533165 112.6154583   6.4900650
  75.8198984 112.6010855   7.3224004  76.0362598 113.4835493   7.0212832
  75.3393051 112.2097068   6.5929646  70.5598205 115.5596568  13.8994749
  70.4142786 115.8736871  14.7919030  70.0823409 116.1781468  13.3465647
  72.4194588 112.5499116  13.9475638  72.4056157 111.6540209  13.6107936
  73.1367016 112.5569780  14.5813924  74.2720719 112.9836456  15.9928766
  74.0138497 113.9053527  15.9913096  73.7405759 112.5866891  16.6829230
  65.0343867 118.1001912  16.8382410  64.4897335 118.8761720  16.9702684
  65.9123217 118.4472717  16.6801531  71.8231484 111.4313496   9.2163208
  71.9447395 110.5030142   9.4154096  71.5333526 111.4452182   8.3041524
  74.6922674 109.1168407  12.3529928  74.7144371 109.1807740  11.3981908
  75.1090733 108.2772915  12.5470434  85.0706299 118.8523666  10.3909151
  85.5137445 118.1030991   9.9928274  84.1932809 118.8433803  10.0082883
  65.8209889 117.2271809  19.7312567  65.0791625 117.3754444  20.3177197
  65.5002633 117.4880074  18.8679316  73.7653552 126.7687787  19.5292957
  74.0740678 126.5236934  20.4015656  74.5629034 126.9734425  19.0411827
  73.7874164 128.9225697  11.7598333  73.3479154 128.4302075  12.4531190
  74.5382281 128.3798664  11.5190409  66.2666503 125.1137237  11.7622961
  67.0924523 124.8141009  11.3821605  65.9160555 124.3444860  12.2112750
  71.2348036 124.4663706  13.8320635  70.6128045 123.8034411  13.5322863
  71.9052903 124.4924838  13.1494283  64.4675108 123.0323564  12.7211895
  63.6307016 122.6045738  12.5395896  64.4398753 123.2256007  13.6582686
  71.3072564 112.9445494  23.4253141  71.3560719 113.8207616  23.0430911
  71.8495078 112.4022887  22.8524784  81.7927409 123.4886617  22.7054278
  81.0022953 123.4710756  22.1658777  81.5560764 124.0274911  23.4603315
  81.9125284 120.3379083  20.0187007  81.9623289 120.1729091  20.9602529
  81.8039208 119.4706342  19.6284887  70.7961543 123.0167629   7.3079096
  70.9449663 123.7003093   6.6545768  71.6027986 122.9972719   7.8228551
  79.2029047 116.3210011  21.3346313  80.1038909 116.1816476  21.0430311
  79.2777021 116.4864466  22.2744491  73.5371852 113.6976866  20.1799500
  72.6675161 113.9910432  19.9082088  73.7731332 114.2817311  20.9006763
  83.4143481 122.7576025  20.2629028  83.1228289 123.1206005  21.0992489
  82.8015612 122.0443033  20.0842360  84.6139163 120.3228905  12.7831598
  85.4486055 120.7618709  12.9469159  84.7498292 119.8467558  11.9639844
  81.6630669 117.8808639  18.7309086  82.1384791 118.0736286  17.9227938
  80.7396235 117.9367825  18.4852470  68.5514176 119.0432807   8.3140164
  68.3060218 118.1395137   8.5120375  68.7210090 119.0449957   7.3719642
  76.2410886 109.9156483  17.6964920  76.7592830 110.6517510  17.3711409
  75.8866019 110.2220476  18.5311679  67.8209823 114.7761164   5.8126326
  67.1279068 114.8505519   5.1566362  67.5761575 114.0121508   6.3347843
  76.4923480 106.3356766  13.2165817  76.7725234 105.6679955  13.8426243
  77.2774087 106.5285861  12.7040480  80.3632338 114.7574399  16.9637392
  81.3149761 114.8572497  16.9849616  80.1935789 113.9652668  17.4735476
  78.3846718 111.8429983  17.1496793  77.7896650 112.1234995  16.4543281
  78.0996414 112.3323884  17.9213534  82.8420416 117.9780519  16.0779691
  82.8096736 117.0396520  16.2639375  83.4521040 118.0564556  15.3445516
  74.6803747 116.8476572   2.1206895  75.6262852 116.7182780   2.1895313
  74.3017992 116.1091234   2.5976324  82.9914905 114.7691563  16.1237975
  82.4753953 113.9850019  15.9367903  83.8754853 114.4410279  16.2884494
  80.6525632 108.5132578  12.0833787  80.4550453 108.2047666  12.9677119
  81.2625337 109.2394217  12.2131717  88.6596966 119.0396526  15.2185728
  89.3900354 118.7781814  15.7793432  88.0503911 118.3025248  15.2587796
  86.7412263 117.1804389  15.8160179  86.0145427 117.0460354  15.2076671
  86.3259550 117.4881217  16.6216897  74.5642440 120.8994318  23.5807552
  75.4845449 121.0772917  23.7747599  74.5292023 119.9550364  23.4287252
  72.8646664 114.7726549   2.0561781  71.9578120 114.4759661   2.1324494
  73.1422645 114.4756367   1.1896067  63.7824605 116.0932912  12.5060827
  63.4627389 115.2398220  12.2135201  63.2358033 116.3081490  13.2618794
  67.5604512 118.8095353  16.2230334  67.7790522 119.7412461  16.2418367
  67.9730286 118.4503327  17.0085137  74.4808730 109.3163438   8.2106022
  73.6709458 108.9710523   8.5861268  75.1693147 109.0070982   8.7993634
  76.4099278 108.3941485   9.8330319  76.9630317 108.8136938  10.4920342
  76.6469365 107.4677233   9.8753275  72.4332377 114.3828559  25.6133083
  72.3329104 115.3322916  25.5445174  72.2153919 114.0546798  24.7409153
  71.6345449 111.6313484   2.1973760  72.4964613 111.9568382   2.4569577
  71.8195793 110.8444980   1.6846826  63.6512865 119.7135823  14.4753949
  62.9576336 119.2989776  13.9623903  64.3985856 119.7556360  13.8787368
  79.7878085 110.5042010   9.3408983  79.2076754 111.1626814   8.9587035
  79.5214018 109.6819355   8.9296400  78.2381652 109.9047068  11.5430303
  78.7381430 110.0163602  10.7344622  78.8817260 109.6008121  12.1831112
  72.2963647 117.8125698  24.4298144  71.8130729 118.6126058  24.6362033
  72.3824586 117.8233642  23.4765588  65.5649607 119.6454077  12.3519964
  65.5420295 119.7441765  11.4001847  65.8750244 120.4919228  12.6737130
  68.2236985 121.7030232  16.4666578  69.1780238 121.6714175  16.3996510
  68.0249509 121.2420856  17.2816804  68.8136367 120.2731348  19.0337376
  69.6329256 120.7675427  19.0572213  69.0873175 119.3563316  19.0054943
  78.5702963 112.6642101   8.3965331  77.6828818 112.9491751   8.1785526
  78.9856952 112.5035864   7.5492608  81.9217499 112.6888622  12.1119670
  82.6977889 113.1785074  12.3844287  81.1965634 113.1146676  12.5691540
  84.3590058 113.4016241  13.1693611  84.9534549 113.1611977  12.4586919
  84.4316642 112.6823371  13.7967147  66.5787214 127.2449852  13.4836776
  66.4441682 126.4850253  12.9174774  66.1619276 127.9690752  13.0165565
  78.5443987 118.1796637   8.6115621  78.4879188 118.6365188   7.7723254
  79.0972329 117.4187321   8.4338464  82.3548793 113.9686368   9.4365741
  82.0985727 113.5683004  10.2673948  81.7301661 114.6830162   9.3115880
  86.6661131 116.7082442  11.9437032  86.1060689 116.7775631  12.7168594
  86.0604634 116.5323426  11.2236528  69.7356340 128.1419169  13.6955218
  69.6188724 129.0864601  13.5933909  68.9148786 127.8392730  14.0841018
  79.2778766 119.3701418   5.9068150  79.2227570 119.2045689   4.9656595
  78.6524822 120.0777451   6.0630340  64.0671281 114.6069482  19.7329573
  64.7130145 114.0968436  20.2216798  63.8588432 115.3438164  20.3072998
  76.5924673 121.6750330  25.2321713  77.4615833 121.8490982  24.8708348
  76.1131425 122.4944746  25.1097443  72.5874892 108.8709527   5.4853469
  72.5753562 109.8151367   5.6421740  73.4798314 108.6879672   5.1912930
  70.7610854 128.7947431  16.9111147  71.6638100 128.8271041  17.2277642
  70.5348224 127.8647882  16.9257483  72.5164456 127.5478417  13.5721226
  71.5660087 127.5480279  13.4585598  72.8196942 126.8011152  13.0557260
  76.4027011 105.4652303   9.7399406  75.6359407 104.9110790   9.8856088
  76.8137716 105.5374172  10.6013557  68.4068772 111.7537099  23.8304587
  69.2700234 111.3973904  24.0407911  67.8334183 111.4150994  24.5179991
  85.5426638 134.4901235  20.5314718  85.5315279 134.0954034  19.6595222
  85.7047278 133.7567308  21.1248490  82.2633900 137.2738347  19.4793902
  81.9723766 138.1783978  19.3640568  82.8990884 137.3154875  20.1937972
  90.7292265 124.7587217  17.0747783  90.3975590 125.6282628  16.8508998
  90.1337879 124.4423501  17.7541813  78.0345077 133.0546833  13.3424189
  78.1637458 133.3081312  14.2563601  77.3542529 133.6474541  13.0228844
  84.6961794 130.8971949  22.0976030  83.9195128 131.4565869  22.0878895
  85.3352357 131.3828731  22.6190901  92.4882575 127.6798741  15.9319007
  91.8456955 127.9731274  15.2858802  91.9837503 127.5651662  16.7372204
  82.9508167 133.7057402  21.6593997  83.6922851 134.2442446  21.3828821
  82.2445152 134.3323691  21.8165549  88.4263506 135.8486542  20.2566159
  88.8346862 135.4068953  19.5120791  87.7040768 135.2739170  20.5100352
  84.7794576 130.7859149  17.6299716  85.6255771 131.2098563  17.7734365
  84.7193214 130.1292773  18.3238279  87.9294022 128.4463517  19.2880889
  87.6854953 129.2005578  18.7515165  88.2053952 128.8248865  20.1228137
  87.4858713 127.6019950  14.8694727  86.6243192 127.9001204  15.1611465
  87.5121148 127.8190349  13.9375760  81.6869530 130.8597050  22.4609307
  81.0568191 131.5413331  22.6944704  81.5805618 130.7480132  21.5162446
  76.9814503 130.5268846  13.3875232  76.1913557 130.7826375  12.9115342
  77.4725750 131.3417184  13.4927272  84.7634916 137.4158129  18.2941223
  84.8279348 137.8778536  19.1299395  84.0545840 136.7855493  18.4223533
  75.2652206 130.7799337  15.8190222  75.5160244 131.6646346  16.0847798
  75.8011754 130.6003938  15.0465314  80.9650273 125.1617816  24.8234558
  80.5717219 124.6084014  25.4982203  81.7816413 125.4728394  25.2141076
  83.8818234 126.5775695  22.4154815  84.6227947 127.1782848  22.3359277
  84.1136157 125.8353333  21.8572858  79.0259572 131.7632062  20.6933045
  78.9113087 130.8617319  20.9940144  78.1704090 132.0095759  20.3417861
  86.1051410 139.7049803  22.2920545  85.6615264 138.9186181  21.9741450
  86.7668623 139.8928953  21.6264436  84.6605702 137.4996732  21.1625455
  85.1934039 136.7385020  20.9324763  84.1319783 137.2070384  21.9049609
  87.8275397 122.6056798  16.6919097  87.4839666 123.4958440  16.6158207
  88.1954360 122.4158456  15.8288682  86.9071937 124.9761453  14.6568330
  86.4036733 124.9391588  13.8436135  87.2002544 125.8854196  14.7164987
  83.1514823 125.0600183  13.6634512  84.0167820 124.8642991  13.3040401
  83.2192332 124.8310535  14.5903868  80.7577142 127.2902391  11.0350878
  81.3320894 127.0677572  10.3024071  81.3448125 127.3591085  11.7879480
  83.0599810 124.1643640   9.7625948  82.4064222 123.8492657   9.1382563
  83.0180284 123.5419380  10.4885771  89.6263063 121.8650357  11.7936834
  89.9321939 121.0047721  11.5062749  90.3515667 122.4567977  11.5935828
  87.4350714 131.2423034  18.8918298  87.7900102 131.4694508  19.7512764
  88.0822845 131.5741411  18.2695553  81.3290577 128.3499565  15.6764639
  81.9689956 128.2088325  14.9787603  80.4968108 128.0634079  15.3003241
  79.8044119 129.7337648  17.6236451  80.4767172 129.5255010  16.9749099
  78.9773905 129.5359734  17.1841683  85.7069691 126.3599589  19.6402111
  85.0597606 127.0589538  19.5466588  86.4770706 126.7935732  20.0078360
  89.1148489 136.6248441  22.7152665  88.9633995 136.3958992  21.7982748
  89.1053168 137.5819042  22.7284010  85.8833825 134.1980353  17.6998931
  86.8125885 134.3491513  17.5267898  85.4624855 134.2864374  16.8447578
  80.2071616 133.0080251  18.3838888  80.0691414 132.2760489  18.9850427
  81.1176540 132.9189151  18.1023075  82.8353917 132.7200210  17.8722567
  83.5453535 132.0793402  17.8309186  82.7923225 132.9713105  18.7948748
  81.5482851 129.7065428  19.6918207  81.0120208 129.2556166  20.3439803
  80.9599559 129.8411337  18.9488671  72.4787250 133.9531239  12.3486178
  73.1658290 133.6392969  11.7607193  72.3235379 134.8572604  12.0753429
  77.2821972 128.8421435  16.7771201  77.1980161 128.2347105  16.0421611
  76.4604678 129.3330454  16.7780698  81.8669853 139.9289877  18.9668099
  82.5679313 140.5626360  19.1197493  81.3964968 140.2704609  18.2063738
  89.8964681 124.2944593  14.2920755  88.9827760 124.5248819  14.4602962
  90.3257782 124.3783037  15.1434788  85.7158712 133.2254296  23.2786686
  85.0399349 133.1248425  23.9489062  86.5386346 133.0693509  23.7422684
  77.4637571 139.4626232  15.8999202  78.0491008 138.7169920  16.0327106
  77.2662410 139.7730189  16.7835866  72.0555226 132.0331832  14.6203645
  72.0939325 131.4995423  15.4140763  71.5495519 131.5067038  14.0014622
  79.4345988 126.8796373  18.1166187  79.4987315 127.7411204  17.7043585
  79.3713108 126.2670374  17.3838546  78.9098261 128.9519505  21.7639221
  79.5370300 128.5696583  22.3776746  78.0526180 128.7333707  22.1294914
  89.3092369 139.3582480  23.3692957  89.8532273 139.9712439  22.8747912
  88.7279214 139.9162059  23.8859970  79.2158051 128.8351931  13.6785125
  78.4944636 129.4487899  13.5392598  80.0051306 129.3709696  13.6001771
  82.0184364 126.1706358  19.9525777  82.5418766 126.4168654  20.7152086
  81.7996697 127.0026392  19.5328914  83.2236909 127.1120053  17.6375447
  82.8833729 126.3127866  18.0396127  82.5175915 127.4121763  17.0652280
  83.8753381 124.1969365  16.0902770  84.6979450 123.7229843  15.9681660
  84.1191444 124.9759849  16.5901456  81.3991960 130.8888486  13.8994749
  81.2536540 131.2028789  14.7919030  80.9217163 131.5073386  13.3465647
  83.2588343 127.8791034  13.9475638  83.2449911 126.9832127  13.6107936
  83.9760771 127.8861697  14.5813924  85.1114473 128.3128374  15.9928766
  84.8532251 129.2345445  15.9913096  84.5799514 127.9158808  16.6829230
  75.8737622 133.4293830  16.8382410  75.3291090 134.2053638  16.9702684
  76.7516972 133.7764635  16.6801531  85.5316429 124.4460324  12.3529928
  85.5538126 124.5099657  11.3981908  85.9484488 123.6064833  12.5470434
  76.6603644 132.5563726  19.7312567  75.9185380 132.7046362  20.3177197
  76.3396388 132.8171992  18.8679316  82.1466318 128.2737411  23.4253141
  82.1954473 129.1499534  23.0430911  82.6888832 127.7314804  22.8524784
  92.6321164 138.8178535  22.7054278  91.8416707 138.8002673  22.1658777
  92.3954518 139.3566828  23.4603315  92.7519039 135.6671001  20.0187007
  92.8017044 135.5021008  20.9602529  92.6432962 134.7998260  19.6284887
  90.0422801 131.6501929  21.3346313  90.9432664 131.5108394  21.0430311
  90.1170776 131.8156384  22.2744491  84.3765606 129.0268784  20.1799500
  83.5068916 129.3202350  19.9082088  84.6125087 129.6109229  20.9006763
  87.0804640 125.2448401  17.6964920  87.5986584 125.9809428  17.3711409
  86.7259773 125.5512394  18.5311679  87.3317234 121.6648683  13.2165817
  87.6118988 120.9971872  13.8426243  88.1167841 121.8577779  12.7040480
  91.2026093 130.0866317  16.9637392  92.1543516 130.1864415  16.9849616
  91.0329543 129.2944586  17.4735476  89.2240472 127.1721900  17.1496793
  88.6290404 127.4526913  16.4543281  88.9390169 127.6615801  17.9213534
  85.4036194 136.2286236  23.5807552  86.3239203 136.4064835  23.7747599
  85.3685777 135.2842281  23.4287252  74.6218359 131.4224830  12.5060827
  74.3021143 130.5690138  12.2135201  74.0751787 131.6373408  13.2618794
  78.3998267 134.1387271  16.2230334  78.6184276 135.0704378  16.2418367
  78.8124040 133.7795245  17.0085137  83.2726132 129.7120476  25.6133083
  83.1722859 130.6614833  25.5445174  83.0547674 129.3838715  24.7409153
  74.4906619 135.0427741  14.4753949  73.7970090 134.6281694  13.9623903
  75.2379610 135.0848278  13.8787368  83.1357402 133.1417615  24.4298144
  82.6524484 133.9417975  24.6362033  83.2218341 133.1525560  23.4765588
  79.0630739 137.0322150  16.4666578  80.0173993 137.0006092  16.3996510
  78.8643263 136.5712774  17.2816804  79.6530122 135.6023266  19.0337376
  80.4723011 136.0967345  19.0572213  79.9266929 134.6855234  19.0054943
  74.9065036 129.9361400  19.7329573  75.5523899 129.4260354  20.2216798
  74.6982187 130.6730081  20.3072998  87.4318428 137.0042247  25.2321713
  88.3009588 137.1782900  24.8708348  86.9525179 137.8236664  25.1097443
  87.2420766 120.7944221   9.7399406  86.4753162 120.2402708   9.8856088
  87.6531471 120.8666090  10.6013557  79.2462527 127.0829017  23.8304587
  80.1093988 126.7265822  24.0407911  78.6727937 126.7442912  24.5179991
  91.8044028 140.4909734  24.8234558  91.4110973 139.9375932  25.4982203
  92.6210168 140.8020312  25.2141076  90.0856281 142.4120935  23.8304587
  90.9487743 142.0557739  24.0407911  89.5121692 142.0734829  24.5179991
  53.0245376  65.5087605   7.2560025  53.0134017  65.1140403   6.3840528
  53.1866016  64.7753678   7.8493796  49.7452637  68.2924717   6.2039209
  49.4542503  69.1970348   6.0885875  50.3809622  68.3341244   6.9183278
  54.7042522  67.9786132   3.1989002  54.4043246  68.8811171   3.0904810
  54.3593582  67.7118316   4.0510155  52.1780532  61.9158318   8.8221337
  51.4013866  62.4752238   8.8124202  52.8171095  62.4015101   9.3436207
  50.4326904  64.7243771   8.3839304  51.1741589  65.2628815   8.1074128
  49.7263890  65.3510060   8.5410856  55.9082244  66.8672912   6.9811466
  56.3165600  66.4255322   6.2366098  55.1859506  66.2925539   7.2345658
  52.2613314  61.8045519   4.3545022  53.1074509  62.2284932   4.4979671
  52.2011952  61.1479143   5.0483586  56.2311059  67.4274103   0.7363754
  55.6019921  67.5919817   0.0339822  55.8436721  67.8415712   1.5074718
  60.1100291  68.3628540  -1.9091882  59.4251329  68.7427442  -2.4594849
  60.1944140  68.9723867  -1.1759934  55.4112759  59.4649887   6.0126196
  55.1673691  60.2191948   5.4760472  55.6872690  59.8435235   6.8473443
  57.3651222  66.0088499   4.6903462  57.5768117  66.6520259   4.0137843
  57.3180970  65.1750816   4.2225392  49.1688268  61.8783420   9.1854614
  48.5386929  62.5599700   9.4190011  49.0624356  61.7666501   8.2407752
  58.4797050  68.8860455   2.8625819  59.3014494  68.4840642   2.5808501
  58.4759453  68.7828689   3.8141935  52.2453654  68.4344498   5.0186530
  52.3098086  68.8964905   5.8544701  51.5364577  67.8041863   5.1468839
  66.5703043  65.2299203  -0.7889210  65.8166752  64.6606601  -0.9445205
  66.7050584  65.1961868   0.1581425  48.4469011  56.1804185  11.5479865
  48.0535956  55.6270384  12.2227509  49.2635151  56.4914764  11.9386383
  51.3636972  57.5962065   9.1400122  52.1046685  58.1969218   9.0604584
  51.5954895  56.8539702   8.5818164  46.5078310  62.7818432   7.4178351
  46.3931825  61.8803689   7.7185450  45.6522828  63.0282129   7.0663168
  53.5870148  70.7236172   9.0165852  53.1434002  69.9372551   8.6986756
  54.2487361  70.9115323   8.3509743  48.3457269  72.2531974   3.5426530
  48.8964694  72.1249037   2.7703524  47.5068745  72.5526863   3.1921423
  55.6851386  71.0038972   7.0447253  55.6669861  71.8247853   6.5527522
  56.6071306  70.8793047   7.2697394  52.1424440  68.5183102   7.8870762
  52.6752777  67.7571390   7.6570070  51.6138521  68.2256753   8.6294916
  58.4869999  65.8418115   0.5156620  57.8293673  66.5317376   0.6036749
  59.2910398  66.2314546   0.8590606  56.5070193  71.0144985  -2.3710478
  56.7993167  71.5750042  -3.0898112  57.0168813  71.3073546  -1.6157318
  54.9169452  62.2609404   5.6163605  55.2718840  62.4880877   6.4758071
  55.5641583  62.5927781   4.9940860  60.6736568  67.4504367   1.3324205
  61.1073075  67.3579656   2.1807259  61.3868149  67.4261867   0.6944221
  54.4064463  71.0506461   2.8657306  54.4601486  71.6197397   3.6335022
  53.5379245  71.2208346   2.5011343  61.5352118  67.4928068   3.8657091
  61.7288008  68.3973878   4.1116366  61.4352736  67.0335487   4.6995676
  53.1888429  57.3785958   6.3647418  52.5416344  58.0775908   6.2711895
  53.9589444  57.8122102   6.7323666  56.5967227  67.6434810   9.4397971
  56.4452733  67.4145362   8.5228055  56.5871906  68.6005412   9.4529316
  53.3652563  65.2166723   4.4244238  54.2944623  65.3677883   4.2513205
  52.9443593  65.3050744   3.5692884  52.1640895  69.2417387   2.1942775
  52.0251980  68.8736172   3.0668714  51.3755491  69.7565027   2.0226733
  47.6890354  64.0266620   5.1084194  47.5510152  63.2946859   5.7095733
  48.5995277  63.9375520   4.8268382  50.3172655  63.7386579   4.5967874
  51.0272273  63.0979772   4.5554492  50.2741963  63.9899474   5.5194055
  58.3059433  70.6753933   7.5174453  58.2471979  69.9913153   6.8505036
  58.7078952  71.4172923   7.0655079  47.3250132  77.4915847   0.3108172
  47.5646730  78.1234371   0.9887191  46.4819328  77.1403887   0.5973531
  58.3076840  68.6393517   5.7488433  57.4203619  68.3019439   5.8714832
  58.8775392  67.9076548   5.9857198  51.8377994  73.2994969   2.7149676
  51.7648165  74.1049941   3.2268981  51.3955387  73.4986935   1.8897698
  62.7894181  64.0501734   0.5104995  62.7784057  64.9326450   0.1398928
  61.9211560  63.6973285   0.3159532  54.2976677  73.1981803   4.8707835
  55.0104650  73.8329268   4.7983736  53.8066706  73.2945669   4.0547837
  49.3488591  70.9476247   5.6913406  50.0498050  71.5812730   5.8442800
  48.8783706  71.2890978   4.9309045  57.1489877  63.5020854   3.5165956
  56.4961327  63.7496761   2.8618409  57.5270257  62.6884992   3.1828433
  54.1097051  73.5380547  -2.3805874  54.2919445  72.7202203  -1.9178121
  54.9330037  73.7548239  -2.8180984  53.1977450  64.2440665  10.0031993
  52.5218087  64.1434794  10.6734368  54.0205084  64.0879879  10.4667990
  44.9456309  70.4812602   2.6244508  45.5309746  69.7356290   2.7572412
  44.7481147  70.7916558   3.5081172  51.9400233  75.5507593   4.2389609
  52.4918541  75.7139214   5.0038694  52.2806426  76.1412030   3.5669634
  46.3916999  59.9705875   8.4884528  47.0189037  59.5882952   9.1022052
  45.5344917  59.7520077   8.8540220  56.7911107  70.3768850  10.0938263
  57.3351011  70.9898808   9.5993218  56.2097952  70.9348428  10.6105276
  55.0768620  73.4989568   1.2253291  54.9519760  72.6979308   0.7164237
  55.7347711  73.9935761   0.7367261  57.1403528  71.2998588   2.8532841
  56.1933864  71.1803939   2.7811168  57.4886302  70.4121086   2.9359103
  54.1449962  71.0951304  -0.9462807  53.9974924  70.1668012  -0.7655236
  54.9703455  71.1171395  -1.4305731  57.7484084  71.9179863   0.1402066
  58.6730631  71.7122724   0.0026517  57.5799387  71.6696264   1.0491408
  52.0866044  73.1166074   6.2538263  52.3953171  72.8715221   7.1260963
  52.8841526  73.3212713   5.7657134  52.1086656  75.2703984  -1.5156360
  51.6691646  74.7780362  -0.8223503  52.8594773  74.7276951  -1.7564285
  49.6285056  59.2923781  10.1498448  49.6773211  60.1685904   9.7676217
  50.1707570  58.7501174   9.5770091  60.1139901  69.8364904   9.4299585
  59.3235445  69.8189043   8.8904084  59.8773256  70.3753198  10.1848621
  60.2337777  66.6857371   6.7432313  60.2835781  66.5207378   7.6847836
  60.1251700  65.8184630   6.3530194  57.5241539  62.6688299   8.0591620
  58.4251402  62.5294763   7.7675618  57.5989513  62.8342753   8.9989797
  51.8584344  60.0455153   6.9044806  50.9887654  60.3388719   6.6327395
  52.0943825  60.6295598   7.6252070  61.7355973  69.1054312   6.9874335
  61.4440782  69.4684293   7.8237796  61.1228105  68.3921320   6.8087667
  62.9351656  66.6707192  -0.4923095  63.7698547  67.1096996  -0.3285535
  63.0710784  66.1945845  -1.3114849  59.9843162  64.2286927   5.4554393
  60.4597283  64.4214573   4.6473244  59.0608727  64.2846112   5.2097776
  58.6844831  61.1052687   3.6882698  59.6362253  61.2050784   3.7094922
  58.5148281  60.3130955   4.1980783  61.1632908  64.3258806   2.8024998
  61.1309228  63.3874807   2.9884682  61.7733532  64.4042843   2.0690823
  61.3127397  61.1169850   2.8483281  60.7966446  60.3328306   2.6613210
  62.1967345  60.7888566   3.0129801  66.9809458  65.3874813   1.9431035
  67.7112847  65.1260101   2.5038738  66.3716404  64.6503535   1.9833103
  65.0624755  63.5282676   2.5405486  64.3357919  63.3938641   1.9321978
  64.6472042  63.8359504   3.3462204  52.8854932  67.2472606  10.3052859
  53.8057941  67.4251205  10.4992906  52.8504515  66.3028651  10.1532558
  50.7544870  60.7306846  12.3378389  50.6541597  61.6801203  12.2690480
  50.5366412  60.4025085  11.4654459  50.6176140  64.1603985  11.1543451
  50.1343221  64.9604345  11.3607340  50.7037079  64.1711930  10.2010895
  46.5449477  68.0508519   3.1911885  47.4992731  68.0192462   3.1241816
  46.3462001  67.5899143   4.0062110  47.1348859  66.6209636   5.7582682
  47.9541748  67.1153714   5.7817520  47.4085667  65.7041604   5.7300250
  48.0568832  74.4897456   0.4200525  47.9401216  75.4342888   0.3179215
  47.2361278  74.1871018   0.8086324  54.9137166  68.0228617  11.9567020
  55.7828325  68.1969269  11.5953655  54.4343917  68.8423034  11.8342749
  49.0823346  75.1425718   3.6356454  49.9850593  75.1749328   3.9522948
  48.8560716  74.2126169   3.6502789  50.8376948  73.8956704   0.2966532
  49.8872579  73.8958566   0.1830904  51.1409434  73.1489439  -0.2197433
  46.7281265  58.1015386  10.5549894  47.5912726  57.7452191  10.7653218
  46.1546675  57.7629281  11.2425298  66.5729641  79.7317243   1.3612295
  67.2108051  79.6123990   0.6575635  66.4550484  80.6798087   1.4200247
  63.3819348  79.6844671   1.2973819  63.0437859  79.5685736   0.4094354
  64.2509116  79.2835836   1.2774825  59.2406163  81.5380147  -2.7129290
  58.6771029  81.4470084  -3.4813002  59.1258559  80.7180052  -2.2326797
  63.8639131  80.8379523   7.2560025  63.8527772  80.4432321   6.3840528
  64.0259770  80.1045595   7.8493796  56.7870595  83.0331339   0.1254931
  57.5791887  82.6922164  -0.2898770  57.0267246  83.1426314   1.0457084
  64.8205722  85.2051115  -7.4014825  64.1693702  85.7905195  -7.7880811
  65.6150085  85.7357310  -7.3419787  58.7461349  82.2940252  -7.0027691
  59.5192225  81.7469239  -7.1414815  59.0986748  83.1584502  -6.7913229
  60.5846392  83.6216634   6.2039209  60.2936258  84.5262265   6.0885875
  61.2203376  83.6633162   6.9183278  61.5102599  80.9993483   2.7940568
  62.1066171  80.7749505   2.0797531  61.5677570  80.2578228   3.3966016
  66.1270910  77.4568697  -1.5634497  66.9133999  77.0388120  -1.9144080
  66.3909614  78.3614789  -1.3952849  66.2980987  82.8941547  -6.8645841
  65.6626820  82.9676174  -6.1524936  65.9678394  83.4835146  -7.5426761
  71.5279337  77.3943930  -0.6601519  72.2604509  76.8243147  -0.4263689
  70.7718693  77.0065530  -0.2195013  60.8023916  80.3561024  -7.1684866
  60.6860174  79.6805928  -6.5003781  60.9126176  79.8693398  -7.9852713
  63.1455457  79.8171171  -3.4638176  62.7813664  79.2901792  -2.7525255
  64.0022573  79.4269640  -3.6371691  69.0504757  71.1065504   3.7993090
  68.7188082  71.9760915   3.5754305  68.4550371  70.7901788   4.4787120
  65.5436277  83.3078050   3.1989002  65.2437000  84.2103089   3.0904810
  65.1987337  83.0410233   4.0510155  58.9948758  79.7591847  -0.7674293
  58.0699255  79.6268061  -0.5596601  59.2433172  80.5386066  -0.2704351
  68.9433421  75.8260590   0.8786440  68.0350298  75.7575999   0.5845201
  68.8921017  76.3032535   1.7068265  62.7650165  77.3018729  -7.4830161
  62.6449790  77.7475779  -6.6444681  62.0702753  77.6504046  -8.0416623
  56.3557570  79.4025120   0.0669496  56.4849951  79.6559599   0.9808908
  55.6755021  79.9952828  -0.2525849  60.5257057  90.0722370  -3.8340030
  60.4481086  91.0230195  -3.7551549  59.9218700  89.7268243  -3.1765104
  63.0174287  77.2450236   8.8221337  62.2407621  77.8044156   8.8124202
  63.6564850  77.7307019   9.3436207  70.8095067  74.0277029   2.6564314
  70.1669447  74.3209562   2.0104108  70.3049996  73.9129949   3.4617510
  68.4635231  77.7740202  -6.6549827  69.3753087  78.0067589  -6.8302130
  67.9544878  78.3577246  -7.2174748  61.2720659  80.0535689   8.3839304
  62.0135343  80.5920733   8.1074128  60.5657644  80.6801978   8.5410856
  66.7475999  82.1964830   6.9811466  67.1559355  81.7547240   6.2366098
  66.0253260  81.6217457   7.2345658  63.1007069  77.1337436   4.3545022
  63.9468264  77.5576850   4.4979671  63.0405706  76.4771061   5.0483586
  67.0704813  82.7566020   0.7363754  66.4413676  82.9211734   0.0339822
  66.6830475  83.1707630   1.5074718  70.9494045  83.6920458  -1.9091882
  70.2645083  84.0719359  -2.4594849  71.0337894  84.3015785  -1.1759934
  66.2506514  74.7941805   6.0126196  66.0067446  75.5483865   5.4760472
  66.5266444  75.1727152   6.8473443  68.2044977  81.3380417   4.6903462
  68.4161872  81.9812177   4.0137843  68.1574725  80.5042734   4.2225392
  65.8071206  73.9498238   1.5940034  64.9455685  74.2479491   1.8856771
  65.8333640  74.1668637   0.6621066  62.6232775  82.4940428  -1.9986160
  63.0871121  82.7728131  -2.7881538  62.3589573  81.5923873  -2.1813070
  59.5156856  82.0411910   0.9393603  60.0858213  82.4699178   0.3011087
  60.1064968  81.7594495   1.6377788  61.5601661  78.6163581  -5.1896595
  62.2625704  79.0684624  -4.7222669  61.2282290  77.9747400  -4.5616702
  60.0082023  77.2075337   9.1854614  59.3780683  77.8891618   9.4190011
  59.9018110  77.0958419   8.2407752  55.3026995  76.8747133   0.1120538
  54.5126049  77.1304662  -0.3639351  55.7938242  77.6895471   0.2172579
  69.3190805  84.2152373   2.8625819  70.1408248  83.8132560   2.5808501
  69.3153207  84.1120607   3.8141935  57.2541740  77.2391713  -2.9295985
  56.4572904  77.3510407  -2.4112489  57.0267333  77.5778365  -3.7955095
  63.0847408  83.7636416   5.0186530  63.1491841  84.2256823   5.8544701
  62.3758332  83.1333781   5.1468839  53.5864698  77.1277624   2.5435529
  53.8372736  78.0124634   2.8093105  54.1224246  76.9482225   1.7710621
  77.4096798  80.5591121  -0.7889210  76.6560506  79.9898519  -0.9445205
  77.5444339  80.5253785   0.1581425  62.7995426  85.4304523  -5.1134490
  62.6641100  86.2756059  -4.6849642  63.3405238  85.6323801  -5.8768556
  59.2862765  71.5096103  11.5479865  58.8929711  70.9562302  12.2227509
  60.1028906  71.8206682  11.9386383  56.2524823  82.9479961  -4.5406565
  56.7649344  83.7423212  -4.3901000  56.9047536  82.2506252  -4.6072964
  58.0619708  86.0645718  -2.4583812  58.2386336  86.9863682  -2.6462828
  58.8576541  85.7504137  -2.0289432  62.2030726  72.9253982   9.1400122
  62.9440440  73.5261135   9.0604584  62.4348649  72.1831620   8.5818164
  57.3472064  78.1110349   7.4178351  57.2325579  77.2095607   7.7185450
  56.4916582  78.3574046   7.0663168  64.4263902  86.0528090   9.0165852
  63.9827756  85.2664468   8.6986756  65.0881116  86.2407240   8.3509743
  59.1851023  87.5823891   3.5426530  59.7358448  87.4540955   2.7703524
  58.3462499  87.8818780   3.1921423  66.5245140  86.3330890   7.0447253
  66.5063615  87.1539771   6.5527522  67.4465060  86.2084965   7.2697394
  62.9818194  83.8475019   7.8870762  63.5146531  83.0863307   7.6570070
  62.4532275  83.5548671   8.6294916  66.1487889  68.9535085   3.4164403
  65.8052159  69.8436727   3.3403514  66.5166852  68.7636743   2.5533988
  54.2173740  81.2768616  -3.7646995  55.0548962  81.6865624  -3.9813287
  54.3952008  80.3368058  -3.7946801  66.1138172  78.9443696  -8.0763162
  65.5984795  79.7148301  -7.8374774  65.8415480  78.2708832  -7.4530100
  63.6985283  73.7893397  -3.0177923  62.8426879  73.4000247  -3.1972284
  64.1112235  73.8685358  -3.8778138  65.2284430  71.3239740   1.3813637
  64.7249225  71.2869875   0.5681442  65.5215037  72.2332483   1.4410293
  61.4727316  71.4078470   0.3879818  62.3380312  71.2121279   0.0285708
  61.5404824  71.1788822   1.3149175  71.0872446  81.6976051  -6.1409988
  70.3101889  81.3587210  -6.5854826  71.7663927  81.7028674  -6.8155023
  65.9024475  76.8170788  -6.2503380  65.5974611  77.1316938  -5.3993237
  66.8554917  76.8952208  -6.2076047  64.3470907  82.9761012  -4.6010426
  63.8192269  82.2413771  -4.9137189  63.8458410  83.7535688  -4.8470458
  69.3263753  81.1710032   0.5156620  68.6687427  81.8609294   0.6036749
  70.1304152  81.5606464   0.8590606  59.0789635  73.6380678  -2.2403815
  59.6533387  73.4155859  -2.9730622  59.6660617  73.7069372  -1.4875214
  68.1369212  79.5254405  -1.4339438  68.6501094  80.1584397  -0.9317729
  68.7870436  78.9255600  -1.7996078  61.3812302  70.5121927  -3.5128745
  60.7276715  70.1970944  -4.1372131  61.3392776  69.8897667  -2.7868923
  65.3991586  89.5038729  -8.6778767  64.7253285  89.8070426  -8.0693809
  65.7857408  90.3067809  -9.0273310  64.6150043  77.0003860   0.8118902
  63.6972604  77.2218807   0.6540590  65.0310186  77.0750171  -0.0469390
  65.3985090  78.3995276  -4.0578418  66.1456909  78.9116673  -4.3671296
  65.6676680  78.0779329  -3.1974024  63.6711741  80.8953817  -7.0751463
  62.7622960  80.6112850  -6.9778994  63.7006824  81.3152895  -7.9348156
  68.9031008  84.5060406  -3.3060296  68.4493335  83.6651316  -3.2495105
  68.2724975  85.1421805  -2.9685516  67.8463928  75.4352392  -2.0759628
  67.1086684  74.9229779  -1.7449386  68.0990701  74.9952774  -2.8876351
  67.3463947  86.3436903  -2.3710478  67.6386922  86.9041960  -3.0898112
  67.8562568  86.6365464  -1.6157318  67.9475555  68.2128644  -1.4817859
  68.2534432  67.3526008  -1.7691944  68.6728160  68.8046265  -1.6818865
  54.2399911  78.6159331  -3.0936261  54.0424311  78.0228692  -3.8185195
  53.6846575  78.3111541  -2.3760322  62.2196635  78.5082437  -0.9741668
  62.2745244  77.5556274  -1.0499191  61.4087837  78.6641877  -0.4900370
  63.3687828  82.4362560  -9.7363385  62.9307258  81.7198419 -10.1957747
  64.1098269  82.6638675 -10.2978293  60.1588995  77.1259497  -3.2151289
  59.3456860  77.4253668  -2.8086097  60.6547989  76.7315186  -2.4976807
  62.3097572  87.1217254  -1.2817024  62.2673751  87.3478100  -2.2108492
  63.2260271  86.8880629  -1.1331223  65.7563206  77.5901322   5.6163605
  66.1112594  77.8172795   6.4758071  66.4035337  77.9219698   4.9940860
  71.4860943  80.7119758  -3.6787066  71.3478842  80.9021354  -4.6065877
  71.1297162  81.4739140  -3.2219015  59.6503069  74.6977853   2.4009946
  60.2902449  74.5566612   1.7032909  58.8180600  74.4112366   2.0248548
  71.5130323  82.7796285   1.3324205  71.9466829  82.6871574   2.1807259
  72.2261904  82.7553785   0.6944221  60.4263373  83.9980283  -1.4855062
  61.2203972  83.5030603  -1.6872487  59.7155066  83.4698146  -1.8487356
  65.2458218  86.3798379   2.8657306  65.2995240  86.9489315   3.6335022
  64.3772999  86.5500264   2.5011343  56.7346137  78.1423365  -5.4095309
  55.8043725  78.0807820  -5.1925347  56.8303609  77.6199318  -6.2058668
  56.6531686  74.6678178  -2.8217067  56.9138503  75.5823511  -2.9307907
  57.4748858  74.2002620  -2.6720454  58.1256611  76.0815935   4.3481757
  58.7979665  75.8733297   3.6994406  57.2986398  75.8838021   3.9086990
  72.3745872  82.8219985   3.8657091  72.5681762  83.7265796   4.1116366
  72.2746491  82.3627404   4.6995676  64.0282183  72.7077876   6.3647418
  63.3810098  73.4067825   6.2711895  64.7983199  73.1414020   6.7323666
  67.4360981  82.9726728   9.4397971  67.2846487  82.7437280   8.5228055
  67.4265661  83.9297329   9.4529316  64.2046317  80.5458641   4.4244238
  65.1338377  80.6969800   4.2513205  63.7837347  80.6342661   3.5692884
  63.0034649  84.5709305   2.1942775  62.8645735  84.2028090   3.0668714
  62.2149245  85.0856945   2.0226733  63.5982801  89.6718402  -6.4631688
  63.7734557  89.2006445  -5.6486065  62.9115589  90.2984168  -6.2350427
  64.5539864  83.9490908  -0.4168387  64.2189697  83.9091678   0.4789263
  64.0543810  83.2835624  -0.8897977  58.5284108  79.3558538   5.1084194
  58.3903906  78.6238777   5.7095733  59.4389032  79.2667438   4.8268382
  67.4899056  81.2946942 -10.1431327  66.8728227  80.5693770 -10.2398274
  67.0215545  82.0556302 -10.4864253  61.1566409  79.0678497   4.5967874
  61.8666028  78.4271689   4.5554492  61.1135717  79.3191392   5.5194055
  69.1453188  86.0045850   7.5174453  69.0865734  85.3205071   6.8505036
  69.5472706  86.7464840   7.0655079  59.8695343  76.0543715   6.4163514
  59.3332700  75.6034453   7.0685110  59.2812051  76.1889624   5.6733978
  58.1643887  92.8207764   0.3108172  58.4040485  93.4526288   0.9887191
  57.3213083  92.4695804   0.5973531  69.1470595  83.9685434   5.7488433
  68.2597374  83.6311356   5.8714832  69.7169146  83.2368466   5.9857198
  50.7999742  80.3009526  -0.9268516  51.4870782  79.9871256  -1.5147500
  50.6447871  81.2050891  -1.2001264  55.6034464  75.1899723   3.5016508
  55.5192653  74.5825392   2.7666918  54.7817171  75.6808741   3.5026004
  62.6771748  88.6286887   2.7149676  62.6041920  89.4341858   3.2268981
  62.2349141  88.8278853   1.8897698  62.4661528  87.8658657  -3.7747502
  61.6829050  88.4080337  -3.6809278  63.1654273  88.3832636  -3.3753261
  65.7758178  73.6753286  -1.1313297  66.2726878  72.9223249  -1.4512227
  65.0045160  73.7117603  -1.6970088  73.6287936  79.3793652   0.5104995
  73.6177812  80.2618367   0.1398928  72.7605315  79.0265203   0.3159532
  65.1370432  88.5273721   4.8707835  65.8498404  89.1621186   4.7983736
  64.6460461  88.6237587   4.0547837  66.8587959  82.4324973  -3.5574874
  65.9244238  82.5526436  -3.7270169  67.0364627  81.5297440  -3.8214864
  62.3593147  75.8170669  -1.4041612  61.9890934  75.2641710  -0.7160707
  62.8552239  75.2128803  -1.9566612  70.2460510  78.2742293  -3.0224839
  70.7120962  79.1070284  -3.0964537  70.6968011  77.8087274  -2.3179581
  60.1882345  86.2768164   5.6913406  60.8891805  86.9104647   5.8442800
  59.7177460  86.6182896   4.9309045  68.3136741  84.6186114  -6.0238687
  68.5896585  84.5042709  -5.1144813  67.4441240  84.2203599  -6.0626514
  68.2177173  70.6422880   1.0166062  67.3040253  70.8727107   1.1848269
  68.6470274  70.7261324   1.8680094  67.9883631  78.8312772   3.5165956
  67.3355082  79.0788679   2.8618409  68.3664011  78.0176910   3.1828433
  64.9490805  88.8672465  -2.3805874  65.1313200  88.0494121  -1.9178121
  65.7723791  89.0840157  -2.8180984  65.2832971  87.7940650  -5.1190825
  65.8120737  87.2833105  -5.7320663  65.5461190  87.4783180  -4.2545292
  64.0371204  79.5732583  10.0031993  63.3611841  79.4726712  10.6734368
  64.8598838  79.4171797  10.4667990  55.7850063  85.8104519   2.6244508
  56.3703500  85.0648207   2.7572412  55.5874902  86.1208476   3.5081172
  58.6388719  88.8455767  -2.3593049  57.9699094  89.3301894  -2.8429009
  58.5001588  89.0924987  -1.4449671  50.3767718  78.3810120   1.3448951
  50.4151818  77.8473710   2.1386070  49.8708011  77.8545325   0.7259929
  62.7793987  90.8799510   4.2389609  63.3312295  91.0431132   5.0038694
  63.1200181  91.4703948   3.5669634  57.7558481  73.2274660   4.8411494
  57.8199807  74.0889491   4.4288891  57.6925601  72.6148662   4.1083852
  57.2310753  75.2997793   8.4884528  57.8582792  74.9174870   9.1022052
  56.3738672  75.0811995   8.8540220  67.6304862  85.7060768  10.0938263
  68.1744766  86.3190726   9.5993218  67.0491706  86.2640346  10.6105276
  65.9162375  88.8281486   1.2253291  65.7913514  88.0271226   0.7164237
  66.5741466  89.3227679   0.7367261  57.5370543  75.1830218   0.4030431
  56.8157129  75.7966186   0.2637905  58.3263799  75.7187983   0.3247077
  67.9797283  86.6290506   2.8532841  67.0327618  86.5095857   2.7811168
  68.3280056  85.7413004   2.9359103  60.3396856  72.5184645   6.6771083
  60.8631258  72.7646941   7.4397392  60.1209190  73.3504680   6.2574221
  64.9843716  86.4243222  -0.9462807  64.8368679  85.4959929  -0.7655236
  65.8097210  86.4463313  -1.4305731  58.8505961  75.0761289  -5.0882314
  59.1902033  75.6047210  -5.8103706  59.2978081  75.4141695  -4.3123748
  68.5877838  87.2471781   0.1402066  69.5124386  87.0414642   0.0026517
  68.4193141  86.9988182   1.0491408  61.5449401  73.4598340   4.3620754
  61.2046222  72.6606153   4.7641434  60.8388408  73.7600051   3.7897587
  62.1965873  70.5447652   2.8148077  63.0191943  70.0708130   2.6926967
  62.4403937  71.3238136   3.3146763  64.9805231  74.2781060  -5.9530689
  65.1968845  75.1605698  -6.2541861  64.4999298  73.8867273  -6.6825047
  59.7204452  77.2366773   0.6240055  59.5749033  77.5507076   1.5164337
  59.2429656  77.8551673   0.0710954  61.5800835  74.2269321   0.6720945
  61.5662404  73.3310414   0.3353243  62.2973263  74.2339985   1.3059231
  63.4326966  74.6606661   2.7174072  63.1744743  75.5823732   2.7158403
  62.9012006  74.2637096   3.4074536  68.3773154  87.7657448  -4.5035842
  68.5510032  87.2003871  -5.2561990  68.8702046  88.5658343  -4.6856352
  54.1950114  79.7772117   3.5627717  53.6503582  80.5531925   3.6947991
  55.0729464  80.1242922   3.4046838  60.9837731  73.1083701  -4.0591485
  61.1053642  72.1800347  -3.8600597  60.6939773  73.1222387  -4.9713170
  63.8528921  70.7938612  -0.9224765  63.8750618  70.8577945  -1.8772786
  64.2696980  69.9543120  -0.7284259  74.2312545  80.5293871  -2.8845543
  74.6743692  79.7801196  -3.2826419  73.3539056  80.5204008  -3.2671811
  69.3648327  87.0824213  -7.4038944  70.0599231  87.7030905  -7.1851629
  69.7071477  86.2319564  -7.1286566  54.9816136  78.9042014   6.4557873
  54.2397872  79.0524649   7.0422504  54.6608880  79.1650279   5.5924623
  71.2639750  84.5323918  -5.8751613  71.7891074  84.8711191  -6.6002293
  71.1762102  83.5970933  -6.0588479  62.9259799  88.4457992   6.2538263
  63.2346925  88.2007139   7.1260963  63.7235281  88.6504630   5.7657134
  62.9480411  90.5995901  -1.5156360  62.5085401  90.1072280  -0.8223503
  63.6988528  90.0568869  -1.7564285  55.4272750  86.7907442  -1.5131732
  56.2530770  86.4911214  -1.8933088  55.0766802  86.0215065  -1.0641943
  60.3954283  86.1433911   0.5565942  59.7734292  85.4804616   0.2568169
  61.0659150  86.1695042  -0.1260411  53.6281355  84.7093769  -0.5542798
  52.7913263  84.2815943  -0.7358797  53.6005000  84.9026212   0.3827993
  60.4678810  74.6215699  10.1498448  60.5166966  75.4977821   9.7676217
  61.0101325  74.0793092   9.5770091  70.9533656  85.1656822   9.4299585
  70.1629200  85.1480961   8.8904084  70.7167011  85.7045116  10.1848621
  71.0731531  82.0149288   6.7432313  71.1229536  81.8499296   7.6847836
  70.9645454  81.1476547   6.3530194  59.9567790  84.6937834  -5.9675598
  60.1055910  85.3773298  -6.6208925  60.7634233  84.6742924  -5.4526142
  68.3635293  77.9980216   8.0591620  69.2645156  77.8586681   7.7675618
  68.4383268  78.1634671   8.9989797  62.6978099  75.3747071   6.9044806
  61.8281408  75.6680637   6.6327395  62.9337579  75.9587516   7.6252070
  72.5749728  84.4346230   6.9874335  72.2834536  84.7976210   7.8237796
  71.9621859  83.7213238   6.8087667  73.7745410  81.9999109  -0.4923095
  74.6092302  82.4388914  -0.3285535  73.9104539  81.5237763  -1.3114849
  70.8236916  79.5578844   5.4554393  71.2991038  79.7506491   4.6473244
  69.9002481  79.6138030   5.2097776  57.7120423  80.7203012  -4.9614529
  57.4666465  79.8165342  -4.7634319  57.8816337  80.7220162  -5.9035051
  65.4017133  71.5926688   4.4210227  65.9199076  72.3287715   4.0956715
  65.0472265  71.8990681   5.2556986  65.6529727  68.0126970  -0.0588877
  65.9331481  67.3450159   0.5671550  66.4380334  68.2056066  -0.5714213
  63.4563195  87.1885964  -8.4963850  62.8837162  87.8076151  -8.9493379
  64.0295989  87.7385326  -7.9623928  69.5238585  76.4344604   3.6882698
  70.4756008  76.5342702   3.7094922  69.3542036  75.6422873   4.1980783
  67.5452965  73.5200188   3.8742099  66.9502897  73.8005200   3.1788588
  67.2602661  74.0094089   4.6458840  66.6760455  87.4723114  -7.3655268
  67.6091128  87.4068676  -7.1622393  66.5883668  88.3079381  -7.8240735
  69.3048472  86.7888985 -10.4051321  69.2262103  86.4548848  -9.5115563
  70.1258138  87.2810753 -10.4059848  72.0026663  79.6550724   2.8024998
  71.9702983  78.7166725   2.9884682  72.6127287  79.7334761   2.0690823
  72.1521151  76.4461768   2.8483281  71.6360200  75.6620224   2.6613210
  73.0361100  76.1180484   3.0129801  69.8131878  70.1902783  -1.1920906
  69.6156699  69.8817871  -0.3077574  70.4231584  70.9164422  -1.0622976
  77.8203213  80.7166731   1.9431035  78.5506601  80.4552019   2.5038738
  77.2110158  79.9795453   1.9833103  75.9018510  78.8574594   2.5405486
  75.1751673  78.7230558   1.9321978  75.4865797  79.1651422   3.3462204
  63.7248686  82.5764523  10.3052859  64.6451696  82.7543122  10.4992906
  63.6898269  81.6320569  10.1532558  52.9430851  77.7703117  -0.7693866
  52.6233636  76.9168425  -1.0619492  52.3964279  77.9851695  -0.0135899
  56.7210759  80.4865558   2.9475640  56.9396769  81.4182666   2.9663674
  57.1336533  80.1273532   3.7330444  63.6414977  70.9933643  -5.0648671
  62.8315705  70.6480728  -4.6893425  64.3299394  70.6841187  -4.4761060
  65.5705525  70.0711690  -3.4424375  66.1236564  70.4907143  -2.7834352
  65.8075611  69.1447438  -3.4001419  61.5938624  76.0598764  12.3378389
  61.4935351  77.0093121  12.2690480  61.3760166  75.7317003  11.4654459
  52.8119111  81.3906028   1.1999255  52.1182583  80.9759981   0.6869210
  53.5592102  81.4326565   0.6032674  68.9484332  72.1812215  -3.9345711
  68.3683001  72.8397019  -4.3167658  68.6820265  71.3589560  -4.3458293
  67.3987898  71.5817273  -1.7324390  67.8987677  71.6933807  -2.5410071
  68.0423506  71.2778326  -1.0923582  61.4569894  79.4895902  11.1543451
  60.9736976  80.2896263  11.3607340  61.5430833  79.5003847  10.2010895
  54.7255854  81.3224282  -0.9234730  54.7026542  81.4211969  -1.8752847
  55.0356490  82.1689433  -0.6017564  57.3843232  83.3800437   3.1911885
  58.3386485  83.3484380   3.1241816  57.1855755  82.9191061   4.0062110
  57.9742614  81.9501553   5.7582682  58.7935503  82.4445632   5.7817520
  58.2479422  81.0333521   5.7300250  67.7309210  74.3412306  -4.8789362
  66.8435065  74.6261956  -5.0969167  68.1463199  74.1806069  -5.7262085
  71.0823746  74.3658827  -1.1635023  71.8584136  74.8555279  -0.8910406
  70.3571880  74.7916881  -0.7063153  73.5196305  75.0786446  -0.1061082
  74.1140796  74.8382182  -0.8167774  73.5922888  74.3593576   0.5212454
  55.7393460  88.9220057   0.2082082  55.6047928  88.1620458  -0.3579920
  55.3225523  89.6460957  -0.2589129  66.8752423  84.1056980 -10.7841342
  67.5788274  84.3106983 -10.1683687  66.1515072  84.6733742 -10.5192259
  67.7050234  79.8566841  -4.6639072  67.6485435  80.3135393  -5.5031440
  68.2578576  79.0957526  -4.8416229  71.5155040  75.6456573  -3.8388953
  71.2591974  75.2453209  -3.0080745  70.8907908  76.3600367  -3.9638813
  75.8267378  78.3852647  -1.3317661  75.2666936  78.4545836  -0.5586099
  75.2210881  78.2093631  -2.0518165  58.8962586  89.8189374   0.4200525
  58.7794970  90.7634806   0.3179215  58.0755033  89.5162935   0.8086324
  68.7839121  84.5439509  -8.7342882  69.6184725  84.1120708  -8.9165407
  68.6223464  84.3721523  -7.8065988  68.4385013  81.0471623  -7.3686543
  68.3833817  80.8815894  -8.3098099  67.8131068  81.7547656  -7.2124353
  53.2277528  76.2839687   6.4574879  53.8736392  75.7738641   6.9462104
  53.0194679  77.0208369   7.0318305  65.7530920  83.3520535  11.9567020
  66.6222080  83.5261187  11.5953655  65.2737672  84.1714951  11.8342749
  59.9217100  90.4717636   3.6356454  60.8244347  90.5041246   3.9522948
  59.6954471  89.5418087   3.6502789  61.6770702  89.2248622   0.2966532
  60.7266334  89.2250484   0.1830904  61.9803189  88.4781357  -0.2197433
  65.5633258  67.1422508  -3.5355288  64.7965654  66.5880995  -3.3898605
  65.9743963  67.2144377  -2.6741136  57.5675019  73.4307304  10.5549894
  58.4306481  73.0744109  10.7653218  56.9940430  73.0921199  11.2425298
  77.4123396  95.0609161   1.3612295  78.0501806  94.9415908   0.6575635
  77.2944239  96.0090004   1.4200247  74.2213102  95.0136589   1.2973819
  73.8831614  94.8977653   0.4094354  75.0902870  94.6127754   1.2774825
  70.0799918  96.8672065  -2.7129290  69.5164783  96.7762002  -3.4813002
  69.9652313  96.0471969  -2.2326797  74.7032885  96.1671440   7.2560025
  74.6921526  95.7724239   6.3840528  74.8653525  95.4337513   7.8493796
  67.6264350  98.3623257   0.1254931  68.4185642  98.0214081  -0.2898770
  67.8661000  98.4718232   1.0457084  69.5855104  97.6232170  -7.0027691
  70.3585980  97.0761157  -7.1414815  69.9380503  98.4876419  -6.7913229
  71.4240146  98.9508552   6.2039209  71.1330012  99.8554183   6.0885875
  72.0597131  98.9925080   6.9183278  72.3496353  96.3285401   2.7940568
  72.9459925  96.1041423   2.0797531  72.4071325  95.5870146   3.3966016
  71.9221382  93.7824836  -9.3709241  72.1746902  93.2606357 -10.1325778
  70.9845941  93.6190981  -9.2682557  76.9664664  92.7860614  -1.5634497
  77.7527754  92.3680038  -1.9144080  77.2303369  93.6906707  -1.3952849
  77.1374742  98.2233465  -6.8645841  76.5020575  98.2968091  -6.1524936
  76.8072148  98.8127064  -7.5426761  82.3673092  92.7235848  -0.6601519
  83.0998264  92.1535064  -0.4263689  81.6112447  92.3357448  -0.2195013
  71.6417670  95.6852942  -7.1684866  71.5253928  95.0097845  -6.5003781
  71.7519930  95.1985316  -7.9852713  73.9849211  95.1463089  -3.4638176
  73.6207419  94.6193710  -2.7525255  74.8416327  94.7561558  -3.6371691
  79.8898512  86.4357422   3.7993090  79.5581837  87.3052833   3.5754305
  79.2944125  86.1193706   4.4787120  73.6254698  90.1752989  -8.4676828
  73.7929101  91.0433225  -8.1006357  73.4351867  90.3380270  -9.3915539
  76.3830031  98.6369968   3.1989002  76.0830755  99.5395006   3.0904810
  76.0381091  98.3702151   4.0510155  69.8342513  95.0883765  -0.7674293
  68.9093009  94.9559979  -0.5596601  70.0826926  95.8677984  -0.2704351
  79.7827175  91.1552508   0.8786440  78.8744053  91.0867916   0.5845201
  79.7314771  91.6324453   1.7068265  73.6043919  92.6310646  -7.4830161
  73.4843544  93.0767697  -6.6444681  72.9096508  92.9795964  -8.0416623
  67.1951324  94.7317038   0.0669496  67.3243705  94.9851517   0.9808908
  66.5148775  95.3244746  -0.2525849  71.3650811 105.4014288  -3.8340030
  71.2874841 106.3522113  -3.7551549  70.7612455 105.0560161  -3.1765104
  73.8568041  92.5742153   8.8221337  73.0801375  93.1336074   8.8124202
  74.4958604  93.0598936   9.3436207  81.6488822  89.3568946   2.6564314
  81.0063202  89.6501479   2.0104108  81.1443750  89.2421867   3.4617510
  79.3028985  93.1032119  -6.6549827  80.2146841  93.3359506  -6.8302130
  78.7938632  93.6869164  -7.2174748  72.1114413  95.3827607   8.3839304
  72.8529098  95.9212651   8.1074128  71.4051399  96.0093896   8.5410856
  77.5869753  97.5256747   6.9811466  77.9953109  97.0839158   6.2366098
  76.8647014  96.9509375   7.2345658  73.9400823  92.4629354   4.3545022
  74.7862018  92.8868768   4.4979671  73.8799461  91.8062978   5.0483586
  77.9098568  98.0857938   0.7363754  77.2807430  98.2503652   0.0339822
  77.5224230  98.4999547   1.5074718  81.7887800  99.0212376  -1.9091882
  81.1038838  99.4011277  -2.4594849  81.8731649  99.6307702  -1.1759934
  77.0900268  90.1233722   6.0126196  76.8461200  90.8775783   5.4760472
  77.3660199  90.5019070   6.8473443  79.0438731  96.6672335   4.6903462
  79.2555626  97.3104095   4.0137843  78.9968479  95.8334651   4.2225392
  76.6464960  89.2790155   1.5940034  75.7849439  89.5771409   1.8856771
  76.6727395  89.4960554   0.6621066  73.4626530  97.8232346  -1.9986160
  73.9264875  98.1020049  -2.7881538  73.1983328  96.9215791  -2.1813070
  70.3550611  97.3703828   0.9393603  70.9251968  97.7991096   0.3011087
  70.9458722  97.0886412   1.6377788  72.3995416  93.9455498  -5.1896595
  73.1019459  94.3976542  -4.7222669  72.0676044  93.3039317  -4.5616702
  70.8475777  92.5367255   9.1854614  70.2174438  93.2183536   9.4190011
  70.7411865  92.4250337   8.2407752  66.1420750  92.2039051   0.1120538
  65.3519804  92.4596580  -0.3639351  66.6331997  93.0187389   0.2172579
  80.1584559  99.5444290   2.8625819  80.9802003  99.1424477   2.5808501
  80.1546962  99.4412524   3.8141935  68.0935495  92.5683630  -2.9295985
  67.2966658  92.6802325  -2.4112489  67.8661087  92.9070282  -3.7955095
  73.9241163  99.0928333   5.0186530  73.9885595  99.5548741   5.8544701
  73.2152086  98.4625698   5.1468839  64.4258453  92.4569541   2.5435529
  64.6766491  93.3416551   2.8093105  64.9618001  92.2774143   1.7710621
  88.2490552  95.8883039  -0.7889210  87.4954261  95.3190437  -0.9445205
  88.3838093  95.8545703   0.1581425  73.6389180 100.7596441  -5.1134490
  73.5034855 101.6047977  -4.6849642  74.1798993 100.9615719  -5.8768556
  70.1256520  86.8388021  11.5479865  69.7323465  86.2854219  12.2227509
  70.9422660  87.1498599  11.9386383  67.0918578  98.2771879  -4.5406565
  67.6043098  99.0715129  -4.3901000  67.7441290  97.5798169  -4.6072964
  68.9013462 101.3937635  -2.4583812  69.0780091 102.3155600  -2.6462828
  69.6970296 101.0796054  -2.0289432  73.0424481  88.2545900   9.1400122
  73.7834194  88.8553053   9.0604584  73.2742404  87.5123538   8.5818164
  68.1865819  93.4402267   7.4178351  68.0719334  92.5387524   7.7185450
  67.3310337  93.6865964   7.0663168  75.2657657 101.3820007   9.0165852
  74.8221511 100.5956386   8.6986756  75.9274870 101.5699158   8.3509743
  70.0244778 102.9115809   3.5426530  70.5752203 102.7832872   2.7703524
  69.1856254 103.2110698   3.1921423  77.3638895 101.6622807   7.0447253
  77.3457370 102.4831688   6.5527522  78.2858815 101.5376883   7.2697394
  73.8211949  99.1766937   7.8870762  74.3540286  98.4155225   7.6570070
  73.2926030  98.8840589   8.6294916  76.9881644  84.2827003   3.4164403
  76.6445913  85.1728645   3.3403514  77.3560606  84.0928660   2.5533988
  65.0567494  96.6060533  -3.7646995  65.8942716  97.0157542  -3.9813287
  65.2345762  95.6659975  -3.7946801  76.9531926  94.2735614  -8.0763162
  76.4378550  95.0440219  -7.8374774  76.6809235  93.6000750  -7.4530100
  74.5379038  89.1185315  -3.0177923  73.6820634  88.7292165  -3.1972284
  74.9505989  89.1977276  -3.8778138  76.0678184  86.6531658   1.3813637
  75.5642980  86.6161793   0.5681442  76.3608791  87.5624401   1.4410293
  72.3121070  86.7370388   0.3879818  73.1774067  86.5413196   0.0285708
  72.3798579  86.5080739   1.3149175  76.7418230  92.1462706  -6.2503380
  76.4368365  92.4608855  -5.3993237  77.6948672  92.2244126  -6.2076047
  75.1864662  98.3052929  -4.6010426  74.6586023  97.5705689  -4.9137189
  74.6852164  99.0827606  -4.8470458  80.1657508  96.5001950   0.5156620
  79.5081182  97.1901211   0.6036749  80.9697907  96.8898382   0.8590606
  69.9183389  88.9672596  -2.2403815  70.4927141  88.7447777  -2.9730622
  70.5054372  89.0361290  -1.4875214  78.9762966  94.8546323  -1.4339438
  79.4894848  95.4876314  -0.9317729  79.6264190  94.2547518  -1.7996078
  70.2452976  90.9977057  -8.2207930  69.4090288  91.3351743  -7.8998655
  70.1057746  90.8626036  -9.1580793  72.2206057  85.8413845  -3.5128745
  71.5670469  85.5262862  -4.1372131  72.1786531  85.2189585  -2.7868923
  75.4543797  92.3295778   0.8118902  74.5366359  92.5510725   0.6540590
  75.8703941  92.4042089  -0.0469390  76.2378845  93.7287194  -4.0578418
  76.9850664  94.2408591  -4.3671296  76.5070434  93.4071247  -3.1974024
  74.5105495  96.2245735  -7.0751463  73.6016714  95.9404767  -6.9778994
  74.5400579  96.6444813  -7.9348156  79.7424763  99.8352324  -3.3060296
  79.2887090  98.9943234  -3.2495105  79.1118729 100.4713722  -2.9685516
  78.6857682  90.7644310  -2.0759628  77.9480439  90.2521696  -1.7449386
  78.9384456  90.3244692  -2.8876351  78.1857702 101.6728821  -2.3710478
  78.4780676 102.2333878  -3.0898112  78.6956322 101.9657382  -1.6157318
  78.7869309  83.5420562  -1.4817859  79.0928186  82.6817925  -1.7691944
  79.5121914  84.1338182  -1.6818865  65.0793665  93.9451249  -3.0936261
  64.8818065  93.3520609  -3.8185195  64.5240329  93.6403459  -2.3760322
  73.0590389  93.8374355  -0.9741668  73.1138999  92.8848192  -1.0499191
  72.2481591  93.9933794  -0.4900370  70.9982749  92.4551415  -3.2151289
  70.1850615  92.7545585  -2.8086097  71.4941743  92.0607104  -2.4976807
  73.1491327 102.4509172  -1.2817024  73.1067506 102.6770018  -2.2108492
  74.0654026 102.2172546  -1.1331223  76.5956961  92.9193239   5.6163605
  76.9506348  93.1464712   6.4758071  77.2429092  93.2511616   4.9940860
  82.3254698  96.0411675  -3.6787066  82.1872596  96.2313271  -4.6065877
  81.9690917  96.8031058  -3.2219015  70.4896824  90.0269770   2.4009946
  71.1296203  89.8858529   1.7032909  69.6574354  89.7404284   2.0248548
  82.3524077  98.1088202   1.3324205  82.7860584  98.0163491   2.1807259
  83.0655658  98.0845703   0.6944221  71.2657128  99.3272201  -1.4855062
  72.0597726  98.8322521  -1.6872487  70.5548820  98.7990064  -1.8487356
  76.0851972 101.7090296   2.8657306  76.1388994 102.2781233   3.6335022
  75.2166754 101.8792181   2.5011343  67.5739891  93.4715283  -5.4095309
  66.6437479  93.4099738  -5.1925347  67.6697363  92.9491235  -6.2058668
  67.4925440  89.9970095  -2.8217067  67.7532258  90.9115429  -2.9307907
  68.3142613  89.5294538  -2.6720454  68.9650366  91.4107853   4.3481757
  69.6373419  91.2025215   3.6994406  68.1380152  91.2129939   3.9086990
  83.2139627  98.1511903   3.8657091  83.4075517  99.0557713   4.1116366
  83.1140245  97.6919322   4.6995676  74.8675938  88.0369793   6.3647418
  74.2203853  88.7359743   6.2711895  75.6376953  88.4705937   6.7323666
  78.2754736  98.3018646   9.4397971  78.1240242  98.0729197   8.5228055
  78.2659415  99.2589247   9.4529316  75.0440072  95.8750558   4.4244238
  75.9732132  96.0261718   4.2513205  74.6231102  95.9634579   3.5692884
  73.8428404  99.9001223   2.1942775  73.7039489  99.5320007   3.0668714
  73.0543000 100.4148862   2.0226733  75.3933619  99.2782825  -0.4168387
  75.0583451  99.2383595   0.4789263  74.8937565  98.6127541  -0.8897977
  69.3677863  94.6850456   5.1084194  69.2297661  93.9530694   5.7095733
  70.2782786  94.5959356   4.8268382  71.9960164  94.3970415   4.5967874
  72.7059782  93.7563607   4.5554492  71.9529472  94.6483310   5.5194055
  79.9846942 101.3337768   7.5174453  79.9259488 100.6496988   6.8505036
  80.3866461 102.0756758   7.0655079  70.7089097  91.3835633   6.4163514
  70.1726455  90.9326371   7.0685110  70.1205806  91.5181542   5.6733978
  69.0037641 108.1499682   0.3108172  69.2434239 108.7818206   0.9887191
  68.1606837 107.7987722   0.5973531  70.1191356  90.8424284 -11.0210023
  69.2420823  90.7213085 -11.3847776  70.5949110  90.0510362 -11.2731134
  79.9864349  99.2977352   5.7488433  79.0991128  98.9603274   5.8714832
  80.5562901  98.5660383   5.9857198  61.6393497  95.6301444  -0.9268516
  62.3264536  95.3163174  -1.5147500  61.4841625  96.5342808  -1.2001264
  66.4428219  90.5191640   3.5016508  66.3586407  89.9117310   2.7666918
  65.6210925  91.0100659   3.5026004  73.5165503 103.9578804   2.7149676
  73.4435674 104.7633776   3.2268981  73.0742896 104.1570770   1.8897698
  73.3055282 103.1950574  -3.7747502  72.5222804 103.7372255  -3.6809278
  74.0048028 103.7124554  -3.3753261  76.6151933  89.0045204  -1.1313297
  77.1120632  88.2515166  -1.4512227  75.8438914  89.0409521  -1.6970088
  84.4681690  94.7085569   0.5104995  84.4571566  95.5910285   0.1398928
  83.5999069  94.3557120   0.3159532  75.9764186 103.8565638   4.8707835
  76.6892159 104.4913103   4.7983736  75.4854215 103.9529504   4.0547837
  77.6981713  97.7616891  -3.5574874  76.7637992  97.8818354  -3.7270169
  77.8758382  96.8589358  -3.8214864  73.1986901  91.1462587  -1.4041612
  72.8284689  90.5933627  -0.7160707  73.6945994  90.5420720  -1.9566612
  81.0854265  93.6034210  -3.0224839  81.5514717  94.4362202  -3.0964537
  81.5361765  93.1379192  -2.3179581  71.0276100 101.6060082   5.6913406
  71.7285559 102.2396565   5.8442800  70.5571215 101.9474813   4.9309045
  79.1530496  99.9478032  -6.0238687  79.4290340  99.8334626  -5.1144813
  78.2834994  99.5495517  -6.0626514  79.0570927  85.9714797   1.0166062
  78.1434007  86.2019024   1.1848269  79.4864029  86.0553241   1.8680094
  78.8277386  94.1604689   3.5165956  78.1748836  94.4080597   2.8618409
  79.2057766  93.3468828   3.1828433  75.7884560 104.1964383  -2.3805874
  75.9706954 103.3786039  -1.9178121  76.6117546 104.4132075  -2.8180984
  74.8764959  94.9024500  10.0031993  74.2005596  94.8018630  10.6734368
  75.6992593  94.7463714  10.4667990  66.6243818 101.1396437   2.6244508
  67.2097255 100.3940125   2.7572412  66.4268656 101.4500394   3.5081172
  69.4782473 104.1747684  -2.3593049  68.8092848 104.6593812  -2.8429009
  69.3395343 104.4216905  -1.4449671  61.2161473  93.7102037   1.3448951
  61.2545572  93.1765628   2.1386070  60.7101766  93.1837243   0.7259929
  73.6187742 106.2091428   4.2389609  74.1706050 106.3723049   5.0038694
  73.9593935 106.7995866   3.5669634  68.5952235  88.5566578   4.8411494
  68.6593561  89.4181409   4.4288891  68.5319355  87.9440579   4.1083852
  68.0704508  90.6289710   8.4884528  68.6976546  90.2466788   9.1022052
  67.2132426  90.4103912   8.8540220  78.4698616 101.0352685  10.0938263
  79.0138520 101.6482644   9.5993218  77.8885461 101.5932264  10.6105276
  64.8470050  92.4366139  -5.5797117  65.1423491  91.5276818  -5.6330063
  63.9458086  92.4153879  -5.9016115  76.7556129 104.1573403   1.2253291
  76.6307269 103.3563143   0.7164237  77.4135220 104.6519597   0.7367261
  68.3764297  90.5122136   0.4030431  67.6550883  91.1258104   0.2637905
  69.1657553  91.0479901   0.3247077  78.8191037 101.9582424   2.8532841
  77.8721373 101.8387775   2.7811168  79.1673811 101.0704922   2.9359103
  71.1790611  87.8476562   6.6771083  71.7025013  88.0938859   7.4397392
  70.9602944  88.6796597   6.2574221  66.5757892  90.1180237  -5.4557792
  66.2470598  89.2377616  -5.6382686  66.9297263  90.0627906  -4.5681403
  75.8237471 101.7535140  -0.9462807  75.6762433 100.8251847  -0.7655236
  76.6490964 101.7755230  -1.4305731  69.6899715  90.4053207  -5.0882314
  70.0295788  90.9339128  -5.8103706  70.1371836  90.7433613  -4.3123748
  79.4271593 102.5763698   0.1402066  80.3518140 102.3706560   0.0026517
  79.2586896 102.3280100   1.0491408  72.3843156  88.7890258   4.3620754
  72.0439976  87.9898071   4.7641434  71.6782162  89.0891968   3.7897587
  73.0359628  85.8739570   2.8148077  73.8585697  85.4000048   2.6926967
  73.2797691  86.6530054   3.3146763  71.6767862  88.9027828  -6.8889022
  72.3976225  89.2809081  -7.3925305  71.0533166  89.6216705  -6.7854044
  75.8198985  89.6072977  -5.9530689  76.0362599  90.4897615  -6.2541861
  75.3393052  89.2159191  -6.6825047  70.5598206  92.5658691   0.6240055
  70.4142787  92.8798994   1.5164337  70.0823410  93.1843591   0.0710954
  72.4194589  89.5561239   0.6720945  72.4056158  88.6602332   0.3353243
  73.1367017  89.5631902   1.3059231  74.2720720  89.9898579   2.7174072
  74.0138498  90.9115649   2.7158403  73.7405760  89.5929013   3.4074536
  65.0343869  95.1064035   3.5627717  64.4897337  95.8823843   3.6947991
  65.9123218  95.4534839   3.4046838  71.8231485  88.4375619  -4.0591485
  71.9447396  87.5092265  -3.8600597  71.5333528  88.4514305  -4.9713170
  74.6922676  86.1230529  -0.9224765  74.7144372  86.1869862  -1.8772786
  75.1090735  85.2835038  -0.7284259  85.0706300  95.8585789  -2.8845543
  85.5137446  95.1093114  -3.2826419  84.1932810  95.8495925  -3.2671811
  65.8209890  94.2333931   6.4557873  65.0791626  94.3816567   7.0422504
  65.5002635  94.4942197   5.5924623  73.7653553 103.7749909   6.2538263
  74.0740680 103.5299056   7.1260963  74.5629035 103.9796548   5.7657134
  73.7874165 105.9287819  -1.5156360  73.3479155 105.4364198  -0.8223503
  74.5382282 105.3860787  -1.7564285  66.2666504 102.1199360  -1.5131732
  67.0924524 101.8203132  -1.8933088  65.9160556 101.3506982  -1.0641943
  71.2348037 101.4725828   0.5565942  70.6128047 100.8096533   0.2568169
  71.9052904 101.4986960  -0.1260411  64.4675109 100.0385686  -0.5542798
  63.6307017  99.6107861  -0.7358797  64.4398755 100.2318130   0.3827993
  71.3072565  89.9507616  10.1498448  71.3560720  90.8269739   9.7676217
  71.8495079  89.4085009   9.5770091  81.7927410 100.4948739   9.4299585
  81.0022954 100.4772878   8.8904084  81.5560765 101.0337033  10.1848621
  81.9125286  97.3441206   6.7432313  81.9623290  97.1791213   7.6847836
  81.8039209  96.4768465   6.3530194  70.7961544 100.0229752  -5.9675598
  70.9449665 100.7065216  -6.6208925  71.6027988 100.0034842  -5.4526142
  79.2029048  93.3272134   8.0591620  80.1038911  93.1878599   7.7675618
  79.2777022  93.4926589   8.9989797  73.5371853  90.7038989   6.9044806
  72.6675163  90.9972555   6.6327395  73.7731334  91.2879434   7.6252070
  83.4143482  99.7638147   6.9874335  83.1228291 100.1268128   7.8237796
  82.8015614  99.0505156   6.8087667  84.6139165  97.3291027  -0.4923095
  85.4486056  97.7680831  -0.3285535  84.7498293  96.8529680  -1.3114849
  81.6630671  94.8870762   5.4554393  82.1384792  95.0798408   4.6473244
  80.7396236  94.9429948   5.2097776  68.5514177  96.0494929  -4.9614529
  68.3060219  95.1457259  -4.7634319  68.7210092  96.0512080  -5.9035051
  76.2410887  86.9218606   4.4210227  76.7592831  87.6579632   4.0956715
  75.8866020  87.2282599   5.2556986  67.8209825  91.7823287  -7.4628367
  67.1279070  91.8567642  -8.1188332  67.5761577  91.0183630  -6.9406851
  76.4923481  83.3418888  -0.0588877  76.7725235  82.6742077   0.5671550
  77.2774088  83.5347984  -0.5714213  80.3632340  91.7636522   3.6882698
  81.3149762  91.8634620   3.7094922  80.1935790  90.9714791   4.1980783
  78.3846719  88.8492105   3.8742099  77.7896651  89.1297118   3.1788588
  78.0996416  89.3386006   4.6458840  82.8420417  94.9842642   2.8024998
  82.8096737  94.0458643   2.9884682  83.4521041  95.0626679   2.0690823
  74.6803748  93.8538695 -11.1547798  75.6262853  93.7244903 -11.0859380
  74.3017993  93.1153357 -10.6778370  82.9914906  91.7753685   2.8483281
  82.4753955  90.9912142   2.6613210  83.8754854  91.4472402   3.0129801
  80.6525633  85.5194701  -1.1920906  80.4550454  85.2109789  -0.3077574
  81.2625338  86.2456340  -1.0622976  88.6596967  96.0458649   1.9431035
  89.3900356  95.7843937   2.5038738  88.0503913  95.3087371   1.9833103
  86.7412264  94.1866511   2.5405486  86.0145428  94.0522476   1.9321978
  86.3259551  94.4943340   3.3462204  74.5642441  97.9056441  10.3052859
  75.4845450  98.0835040  10.4992906  74.5292024  96.9612486  10.1532558
  72.8646665  91.7788671 -11.2192913  71.9578121  91.4821784 -11.1430199
  73.1422646  91.4818489 -12.0858626  63.7824606  93.0995035  -0.7693866
  63.4627390  92.2460343  -1.0619492  63.2358034  93.3143613  -0.0135899
  67.5604513  95.8157476   2.9475640  67.7790523  96.7474583   2.9663674
  67.9730287  95.4565450   3.7330444  74.4808731  86.3225561  -5.0648671
  73.6709459  85.9772646  -4.6893425  75.1693148  86.0133105  -4.4761060
  76.4099279  85.4003608  -3.4424375  76.9630318  85.8199061  -2.7834352
  76.6469366  84.4739356  -3.4001419  72.4332379  91.3890681  12.3378389
  72.3329106  92.3385038  12.2690480  72.2153921  91.0608920  11.4654459
  71.6345450  88.6375606 -11.0780934  72.4964614  88.9630505 -10.8185116
  71.8195794  87.8507102 -11.5907868  63.6512866  96.7197946   1.1999255
  62.9576337  96.3051899   0.6869210  64.3985857  96.7618483   0.6032674
  79.7878086  87.5104133  -3.9345711  79.2076756  88.1688937  -4.3167658
  79.5214019  86.6881477  -4.3458293  78.2381653  86.9109191  -1.7324390
  78.7381431  87.0225725  -2.5410071  78.8817261  86.6070243  -1.0923582
  72.2963649  94.8187820  11.1543451  71.8130730  95.6188180  11.3607340
  72.3824588  94.8295765  10.2010895  65.5649608  96.6516200  -0.9234730
  65.5420296  96.7503887  -1.8752847  65.8750245  97.4981351  -0.6017564
  68.2236986  98.7092355   3.1911885  69.1780240  98.6776297   3.1241816
  68.0249510  98.2482979   4.0062110  68.8136368  97.2793471   5.7582682
  69.6329257  97.7737550   5.7817520  69.0873176  96.3625439   5.7300250
  78.5702965  89.6704223  -4.8789362  77.6828820  89.9553874  -5.0969167
  78.9856954  89.5097987  -5.7262085  81.9217501  89.6950744  -1.1635023
  82.6977891  90.1847197  -0.8910406  81.1965635  90.1208798  -0.7063153
  84.3590059  90.4078363  -0.1061082  84.9534550  90.1674099  -0.8167774
  84.4316643  89.6885494   0.5212454  66.5787215 104.2511974   0.2082082
  66.4441683 103.4912375  -0.3579920  66.1619277 104.9752874  -0.2589129
  78.5443988  95.1858759  -4.6639072  78.4879190  95.6427311  -5.5031440
  79.0972331  94.4249444  -4.8416229  82.3548794  90.9748491  -3.8388953
  82.0985728  90.5745127  -3.0080745  81.7301662  91.6892285  -3.9638813
  86.6661132  93.7144564  -1.3317661  86.1060690  93.7837754  -0.5586099
  86.0604635  93.5385549  -2.0518165  69.7356341 105.1481291   0.4200525
  69.6188725 106.0926724   0.3179215  68.9148787 104.8454853   0.8086324
  79.2778768  96.3763540  -7.3686543  79.2227571  96.2107812  -8.3098099
  78.6524823  97.0839573  -7.2124353  64.0671283  91.6131605   6.4574879
  64.7130146  91.1030559   6.9462104  63.8588434  92.3500286   7.0318305
  76.5924675  98.6812452  11.9567020  77.4615834  98.8553105  11.5953655
  76.1131426  99.5006869  11.8342749  72.5874893  85.8771649  -7.7901225
  72.5753563  86.8213489  -7.6332954  73.4798315  85.6941795  -8.0841763
  70.7610855 105.8009553   3.6356454  71.6638102 105.8333164   3.9522948
  70.5348225 104.8710004   3.6502789  72.5164457 104.5540540   0.2966532
  71.5660088 104.5542401   0.1830904  72.8196943 103.8073274  -0.2197433
  76.4027012  82.4714426  -3.5355288  75.6359408  81.9172913  -3.3898605
  76.8137717  82.5436295  -2.6741136  68.4068774  88.7599222  10.5549894
  69.2700235  88.4036027  10.7653218  67.8334184  88.4213117  11.2425298
  85.5426640 111.4963358   7.2560025  85.5315281 111.1016156   6.3840528
  85.7047279 110.7629431   7.8493796  82.2633901 114.2800470   6.2039209
  81.9723767 115.1846101   6.0885875  82.8990885 114.3216997   6.9183278
  90.7292266 101.7649339   3.7993090  90.3975591 102.6344750   3.5754305
  90.1337880 101.4485623   4.4787120  78.0345078 110.0608956   0.0669496
  78.1637460 110.3143435   0.9808908  77.3542530 110.6536664  -0.2525849
  84.6961796 107.9034071   8.8221337  83.9195130 108.4627991   8.8124202
  85.3352359 108.3890854   9.3436207  92.4882576 104.6860864   2.6564314
  91.8456956 104.9793397   2.0104108  91.9837505 104.5713784   3.4617510
  82.9508168 110.7119524   8.3839304  83.6922852 111.2504568   8.1074128
  82.2445153 111.3385813   8.5410856  88.4263507 112.8548665   6.9811466
  88.8346864 112.4131075   6.2366098  87.7040769 112.2801292   7.2345658
  84.7794578 107.7921272   4.3545022  85.6255773 108.2160685   4.4979671
  84.7193215 107.1354896   5.0483586  87.9294023 105.4525640   6.0126196
  87.6854955 106.2067701   5.4760472  88.2053953 105.8310988   6.8473443
  87.4858715 104.6082073   1.5940034  86.6243194 104.9063327   1.8856771
  87.5121149 104.8252472   0.6621066  81.6869532 107.8659173   9.1854614
  81.0568192 108.5475454   9.4190011  81.5805619 107.7542254   8.2407752
  76.9814504 107.5330969   0.1120538  76.1913558 107.7888497  -0.3639351
  77.4725751 108.3479307   0.2172579  84.7634917 114.4220251   5.0186530
  84.8279350 114.8840658   5.8544701  84.0545841 113.7917616   5.1468839
  75.2652207 107.7861459   2.5435529  75.5160245 108.6708469   2.8093105
  75.8011755 107.6066061   1.7710621  80.9650274 102.1679938  11.5479865
  80.5717220 101.6146137  12.2227509  81.7816415 102.4790517  11.9386383
  83.8818235 103.5837818   9.1400122  84.6227949 104.1844971   9.0604584
  84.1136158 102.8415455   8.5818164  79.0259573 108.7694185   7.4178351
  78.9113088 107.8679442   7.7185450  78.1704091 109.0157882   7.0663168
  86.1051411 116.7111925   9.0165852  85.6615265 115.9248304   8.6986756
  86.7668625 116.8991076   8.3509743  84.6605703 114.5058855   7.8870762
  85.1934040 113.7447143   7.6570070  84.1319784 114.2132506   8.6294916
  87.8275398  99.6118921   3.4164403  87.4839668 100.5020562   3.3403514
  88.1954361  99.4220578   2.5533988  86.9071939 101.9823576   1.3813637
  86.4036734 101.9453711   0.5681442  87.2002546 102.8916318   1.4410293
  83.1514825 102.0662305   0.3879818  84.0167821 101.8705114   0.0285708
  83.2192333 101.8372657   1.3149175  80.7577144 104.2964513  -2.2403815
  81.3320896 104.0739695  -2.9730622  81.3448126 104.3653208  -1.4875214
  83.0599811 101.1705762  -3.5128745  82.4064224 100.8554779  -4.1372131
  83.0180285 100.5481503  -2.7868923  89.6263064  98.8712480  -1.4817859
  89.9321941  98.0109843  -1.7691944  90.3515669  99.4630100  -1.6818865
  87.4350715 108.2485157   5.6163605  87.7900103 108.4756630   6.4758071
  88.0822846 108.5803534   4.9940860  81.3290578 105.3561688   2.4009946
  81.9689958 105.2150447   1.7032909  80.4968109 105.0696201   2.0248548
  79.8044120 106.7399770   4.3481757  80.4767174 106.5317132   3.6994406
  78.9773907 106.5421856   3.9086990  85.7069692 103.3661711   6.3647418
  85.0597607 104.0651661   6.2711895  86.4770707 103.7997855   6.7323666
  89.1148490 113.6310563   9.4397971  88.9633996 113.4021115   8.5228055
  89.1053170 114.5881165   9.4529316  85.8833826 111.2042476   4.4244238
  86.8125886 111.3553636   4.2513205  85.4624856 111.2926497   3.5692884
  80.2071617 110.0142373   5.1084194  80.0691415 109.2822612   5.7095733
  81.1176541 109.9251273   4.8268382  82.8353918 109.7262333   4.5967874
  83.5453537 109.0855525   4.5554492  82.7923226 109.9775227   5.5194055
  81.5482852 106.7127550   6.4163514  81.0120209 106.2618289   7.0685110
  80.9599560 106.8473459   5.6733978  72.4787251 110.9593362  -0.9268516
  73.1658291 110.6455092  -1.5147500  72.3235380 111.8634726  -1.2001264
  77.2821973 105.8483558   3.5016508  77.1980162 105.2409228   2.7666918
  76.4604680 106.3392576   3.5026004  81.8669854 116.9352000   5.6913406
  82.5679314 117.5688483   5.8442800  81.3964969 117.2766731   4.9309045
  89.8964682 101.3006715   1.0166062  88.9827762 101.5310942   1.1848269
  90.3257783 101.3845159   1.8680094  85.7158713 110.2316418  10.0031993
  85.0399350 110.1310547  10.6734368  86.5386347 110.0755632  10.4667990
  77.4637572 116.4688355   2.6244508  78.0491009 115.7232043   2.7572412
  77.2662411 116.7792311   3.5081172  72.0555227 109.0393955   1.3448951
  72.0939327 108.5057546   2.1386070  71.5495520 108.5129160   0.7259929
  79.4345989 103.8858495   4.8411494  79.4987316 104.7473326   4.4288891
  79.3713110 103.2732497   4.1083852  78.9098262 105.9581628   8.4884528
  79.5370301 105.5758705   9.1022052  78.0526181 105.7395830   8.8540220
  89.3092371 116.3644603  10.0938263  89.8532275 116.9774561   9.5993218
  88.7279215 116.9224182  10.6105276  79.2158052 105.8414054   0.4030431
  78.4944638 106.4550021   0.2637905  80.0051308 106.3771818   0.3247077
  82.0184365 103.1768480   6.6771083  82.5418767 103.4230777   7.4397392
  81.7996699 104.0088515   6.2574221  83.2236910 104.1182175   4.3620754
  82.8833731 103.3189988   4.7641434  82.5175917 104.4183886   3.7897587
  83.8753382 101.2031488   2.8148077  84.6979451 100.7291966   2.6926967
  84.1191446 101.9821971   3.3146763  81.3991961 107.8950608   0.6240055
  81.2536542 108.2090911   1.5164337  80.9217165 108.5135509   0.0710954
  83.2588344 104.8853156   0.6720945  83.2449913 103.9894250   0.3353243
  83.9760772 104.8923820   1.3059231  85.1114475 105.3190496   2.7174072
  84.8532252 106.2407567   2.7158403  84.5799515 104.9220931   3.4074536
  75.8737623 110.4355953   3.5627717  75.3291091 111.2115761   3.6947991
  76.7516973 110.7826757   3.4046838  85.5316430 101.4522447  -0.9224765
  85.5538127 101.5161780  -1.8772786  85.9484489 100.6126956  -0.7284259
  76.6603645 109.5625849   6.4557873  75.9185381 109.7108484   7.0422504
  76.3396389 109.8234115   5.5924623  82.1466319 105.2799534  10.1498448
  82.1954475 106.1561657   9.7676217  82.6888833 104.7376927   9.5770091
  92.6321165 115.8240657   9.4299585  91.8416709 115.8064796   8.8904084
  92.3954520 116.3628951  10.1848621  92.7519040 112.6733124   6.7432313
  92.8017045 112.5083131   7.6847836  92.6432963 111.8060383   6.3530194
  90.0422802 108.6564052   8.0591620  90.9432665 108.5170516   7.7675618
  90.1170777 108.8218506   8.9989797  84.3765608 106.0330906   6.9044806
  83.5068917 106.3264472   6.6327395  84.6125088 106.6171351   7.6252070
  87.0804642 102.2510523   4.4210227  87.5986585 102.9871550   4.0956715
  86.7259774 102.5574517   5.2556986  87.3317236  98.6710806  -0.0588877
  87.6118989  98.0033995   0.5671550  88.1167843  98.8639901  -0.5714213
  91.2026094 107.0928440   3.6882698  92.1543517 107.1926537   3.7094922
  91.0329544 106.3006708   4.1980783  89.2240474 104.1784023   3.8742099
  88.6290406 104.4589036   3.1788588  88.9390170 104.6677924   4.6458840
  85.4036195 113.2348359  10.3052859  86.3239205 113.4126958  10.4992906
  85.3685778 112.2904404  10.1532558  74.6218360 108.4286952  -0.7693866
  74.3021145 107.5752260  -1.0619492  74.0751788 108.6435530  -0.0135899
  78.3998268 111.1449393   2.9475640  78.6184278 112.0766501   2.9663674
  78.8124042 110.7857368   3.7330444  83.2726133 106.7182599  12.3378389
  83.1722860 107.6676956  12.2690480  83.0547675 106.3900838  11.4654459
  74.4906620 112.0489864   1.1999255  73.7970092 111.6343817   0.6869210
  75.2379611 112.0910400   0.6032674  83.1357403 110.1479738  11.1543451
  82.6524485 110.9480098  11.3607340  83.2218342 110.1587683  10.2010895
  79.0630741 114.0384273   3.1911885  80.0173994 114.0068215   3.1241816
  78.8643264 113.5774896   4.0062110  79.6530123 112.6085389   5.7582682
  80.4723012 113.1029467   5.7817520  79.9266931 111.6917357   5.7300250
  74.9065037 106.9423522   6.4574879  75.5523901 106.4322476   6.9462104
  74.6982188 107.6792204   7.0318305  87.4318429 114.0104370  11.9567020
  88.3009589 114.1845022  11.5953655  86.9525181 114.8298787  11.8342749
  87.2420767  97.8006344  -3.5355288  86.4753163  97.2464830  -3.3898605
  87.6531472  97.8728212  -2.6741136  79.2462528 104.0891140  10.5549894
  80.1093990 103.7327944  10.7653218  78.6727939 103.7505034  11.2425298
  91.8044029 117.4971856  11.5479865  91.4110974 116.9438055  12.2227509
  92.6210169 117.8082435  11.9386383  90.0856283 119.4183057  10.5549894
  90.9487744 119.0619862  10.7653218  89.5121693 119.0796952  11.2425298
  74.7032887  73.1733563  -6.0194669  74.6921527  72.7786361  -6.8914165
  74.8653526  72.4399636  -5.4260897  71.4240148  75.9570675  -7.0715485
  71.1330014  76.8616306  -7.1868818  72.0597132  75.9987202  -6.3571415
  76.3830033  75.6432090 -10.0765691  76.0830756  76.5457129 -10.1849884
  76.0381092  75.3764273  -9.2244538  73.8568042  69.5804276  -4.4533356
  73.0801376  70.1398196  -4.4630492  74.4958605  70.0661059  -3.9318486
  72.1114415  72.3889729  -4.8915389  72.8529099  72.9274773  -5.1680566
  71.4051400  73.0156018  -4.7343838  77.5869754  74.5318870  -6.2943228
  77.9953110  74.0901280  -7.0388595  76.8647016  73.9571497  -6.0409035
  73.9400824  69.4691477  -8.9209671  74.7862019  69.8930890  -8.7775022
  73.8799462  68.8125101  -8.2271108  77.9098569  75.0920060 -12.5390939
  77.2807431  75.2565775 -13.2414871  77.5224231  75.5061670 -11.7679975
  81.7887801  76.0274498 -15.1846575  81.1038839  76.4073400 -15.7349542
  81.8731650  76.6369825 -14.4514627  77.0900270  67.1295845  -7.2628497
  76.8461202  67.8837906  -7.7994222  77.3660200  67.5081193  -6.4281250
  79.0438732  73.6734457  -8.5851232  79.2555628  74.3166217  -9.2616851
  78.9968481  72.8396774  -9.0529302  70.8475778  69.5429378  -4.0900079
  70.2174439  70.2245658  -3.8564683  70.7411866  69.4312459  -5.0346941
  80.1584560  76.5506413 -10.4128874  80.9802004  76.1486600 -10.6946193
  80.1546963  76.4474647  -9.4612759  73.9241164  76.0990456  -8.2568164
  73.9885596  76.5610863  -7.4209992  73.2152088  75.4687821  -8.1285854
  88.2490553  72.8945161 -14.0643903  87.4954262  72.3252559 -14.2199898
  88.3838095  72.8607826 -13.1173268  70.1256521  63.8450143  -1.7274828
  69.7323467  63.2916342  -1.0527184  70.9422661  64.1560722  -1.3368311
  73.0424482  65.2608023  -4.1354572  73.7834195  65.8615176  -4.2150109
  73.2742405  64.5185660  -4.6936529  68.1865820  70.4464390  -5.8576342
  68.0719335  69.5449647  -5.5569243  67.3310338  70.6928087  -6.2091526
  75.2657658  78.3882130  -4.2588841  74.8221512  77.6018509  -4.5767937
  75.9274871  78.5761281  -4.9244951  70.0244779  79.9177932  -9.7328163
  70.5752204  79.7894995 -10.5051169  69.1856255  80.2172821 -10.0833270
  77.3638896  78.6684930  -6.2307440  77.3457371  79.4893811  -6.7227171
  78.2858816  78.5439005  -6.0057299  73.8211950  76.1829059  -5.3883932
  74.3540287  75.4217348  -5.6184624  73.2926031  75.8902711  -4.6459777
  80.1657509  73.5064072 -12.7598073  79.5081183  74.1963334 -12.6717945
  80.9697908  73.8960504 -12.4164087  78.1857703  78.6790943 -15.6465171
  78.4780677  79.2396000 -16.3652805  78.6956324  78.9719504 -14.8912012
  76.5956962  69.9255362  -7.6591089  76.9506350  70.1526835  -6.7996623
  77.2429093  70.2573739  -8.2813833  82.3524079  75.1150325 -11.9430488
  82.7860585  75.0225614 -11.0947434  83.0655659  75.0907825 -12.5810472
  76.0851973  78.7152419 -10.4097387  76.1388996  79.2843355  -9.6419672
  75.2166755  78.8854304 -10.7743350  83.2139628  75.1574025  -9.4097603
  83.4075518  76.0619836  -9.1638328  83.1140246  74.6981445  -8.5759018
  74.8675939  65.0431916  -6.9107275  74.2203854  65.7421866  -7.0042799
  75.6376954  65.4768060  -6.5431027  78.2754737  75.3080768  -3.8356722
  78.1240243  75.0791320  -4.7526638  78.2659416  76.2651370  -3.8225377
  75.0440073  72.8812681  -8.8510456  75.9732133  73.0323841  -9.0241488
  74.6231103  72.9696702  -9.7061809  73.8428405  76.9063345 -11.0811918
  73.7039491  76.5382130 -10.2085980  73.0543001  77.4210985 -11.2527960
  69.3677864  71.6912578  -8.1670499  69.2297662  70.9592817  -7.5658960
  70.2782788  71.6021478  -8.4486311  71.9960165  71.4032537  -8.6786819
  72.7059783  70.7625730  -8.7200201  71.9529473  71.6545432  -7.7560639
  79.9846943  78.3399891  -5.7580240  79.9259490  77.6559111  -6.4249657
  80.3866462  79.0818881  -6.2099614  69.0037642  85.1561805 -12.9646521
  69.2434240  85.7880329 -12.2867503  68.1606839  84.8049845 -12.6781162
  79.9864351  76.3039475  -7.5266260  79.0991129  75.9665396  -7.4039862
  80.5562902  75.5722506  -7.2897495  73.5165504  80.9640927 -10.5605017
  73.4435676  81.7695899 -10.0485713  73.0742897  81.1632893 -11.3856996
  84.4681691  71.7147692 -12.7649699  84.4571567  72.5972407 -13.1355766
  83.5999071  71.3619243 -12.9595162  75.9764188  80.8627761  -8.4046859
  76.6892160  81.4975226  -8.4770957  75.4854216  80.9591627  -9.2206857
  71.0276101  78.6122205  -7.5841288  71.7285561  79.2458688  -7.4311894
  70.5571216  78.9536936  -8.3445649  78.8277387  71.1666812  -9.7588737
  78.1748837  71.4142719 -10.4136285  79.2057767  70.3530950 -10.0926260
  75.7884561  81.2026505 -15.6560567  75.9706956  80.3848161 -15.1932815
  76.6117547  81.4194197 -16.0935677  74.8764960  71.9086623  -3.2722700
  74.2005597  71.8080752  -2.6020325  75.6992594  71.7525837  -2.8086703
  66.6243819  78.1458560 -10.6510185  67.2097256  77.4002247 -10.5182281
  66.4268658  78.4562516  -9.7673521  73.6187743  83.2153551  -9.0365084
  74.1706051  83.3785172  -8.2715999  73.9593936  83.8057988  -9.7085059
  68.0704509  67.6351833  -4.7870165  68.6976548  67.2528910  -4.1732641
  67.2132428  67.4166035  -4.4214473  78.4698617  78.0414808  -3.1816430
  79.0138521  78.6544766  -3.6761475  77.8885462  78.5994386  -2.6649417
  76.7556130  81.1635526 -12.0501402  76.6307270  80.3625266 -12.5590457
  77.4135221  81.6581719 -12.5387432  78.8191039  78.9644546 -10.4221852
  77.8721374  78.8449897 -10.4943525  79.1673812  78.0767044 -10.3395591
  75.8237472  78.7597262 -14.2217500  75.6762434  77.8313970 -14.0409930
  76.6490966  78.7817353 -14.7060425  79.4271594  79.5825821 -13.1352627
  80.3518141  79.3768682 -13.2728176  79.2586897  79.3342222 -12.2263286
  73.7653554  80.7812032  -7.0216430  74.0740681  80.5361179  -6.1493730
  74.5629036  80.9858671  -7.5097560  73.7874166  82.9349942 -14.7911053
  73.3479157  82.4426320 -14.0978197  74.5382283  82.3922909 -15.0318978
  71.3072566  66.9569739  -3.1256246  71.3560722  67.8331862  -3.5078476
  71.8495080  66.4147132  -3.6984603  81.7927412  77.5010862  -3.8455109
  81.0022955  77.4835001  -4.3850609  81.5560766  78.0399156  -3.0906072
  81.9125287  74.3503328  -6.5322380  81.9623292  74.1853336  -5.5906857
  81.8039210  73.4830587  -6.9224499  79.2029049  70.3334256  -5.2163073
  80.1038912  70.1940721  -5.5079076  79.2777024  70.4988711  -4.2764896
  73.5371854  67.7101111  -6.3709887  72.6675164  68.0034677  -6.6427299
  73.7731335  68.2941556  -5.6502623  83.4143484  76.7700270  -6.2880359
  83.1228292  77.1330251  -5.4516898  82.8015615  76.0567278  -6.4667027
  84.6139166  74.3353150 -13.7677788  85.4486057  74.7742954 -13.6040228
  84.7498295  73.8591803 -14.5869543  81.6630672  71.8932885  -7.8200301
  82.1384793  72.0860531  -8.6281449  80.7396237  71.9492070  -8.0656917
  80.3632341  68.7698645  -9.5871995  81.3149764  68.8696742  -9.5659771
  80.1935791  67.9776913  -9.0773911  82.8420419  71.9904764 -10.4729695
  82.8096739  71.0520765 -10.2870012  83.4521042  72.0688801 -11.2063870
  82.9914907  68.7815808 -10.4271412  82.4753956  67.9974264 -10.6141483
  83.8754856  68.4534524 -10.2624893  88.6596968  73.0520771 -11.3323659
  89.3900357  72.7906059 -10.7715955  88.0503914  72.3149493 -11.2921591
  86.7412266  71.1928634 -10.7349207  86.0145429  71.0584599 -11.3432716
  86.3259552  71.5005462  -9.9292489  74.5642442  74.9118563  -2.9701834
  75.4845451  75.0897162  -2.7761788  74.5292025  73.9674609  -3.1222135
  72.4332380  68.3952804  -0.9376304  72.3329107  69.3447161  -1.0064213
  72.2153922  68.0671043  -1.8100234  72.2963650  71.8249943  -2.1211243
  71.8130732  72.6250303  -1.9147354  72.3824589  71.8357888  -3.0743799
  68.2236987  75.7154477 -10.0842809  69.1780241  75.6838420 -10.1512877
  68.0249511  75.2545101  -9.2692583  68.8136370  74.2855593  -7.5172011
  69.6329259  74.7799672  -7.4937174  69.0873177  73.3687562  -7.5454444
  69.7356342  82.1543414 -12.8554168  69.6188726  83.0988846 -12.9575478
  68.9148788  81.8516976 -12.4668369  76.5924676  75.6874575  -1.3187674
  77.4615836  75.8615227  -1.6801039  76.1131427  76.5068992  -1.4411944
  70.7610856  82.8071676  -9.6398240  71.6638103  82.8395286  -9.3231745
  70.5348226  81.8772127  -9.6251904  72.5164458  81.5602662 -12.9788161
  71.5660089  81.5604524 -13.0923789  72.8196944  80.8135397 -13.4952127
  68.4068775  65.7661344  -2.7204800  69.2700236  65.4098149  -2.5101475
  67.8334185  65.4275239  -2.0329396  85.5426641  88.5025481  -6.0194669
  85.5315282  88.1078279  -6.8914165  85.7047280  87.7691553  -5.4260897
  82.2633902  91.2862592  -7.0715485  81.9723768  92.1908223  -7.1868818
  82.8990886  91.3279120  -6.3571415  90.7292268  78.7711462  -9.4761604
  90.3975592  79.6406873  -9.7000389  90.1337881  78.4547746  -8.7967573
  78.0345080  87.0671078 -13.2085197  78.1637461  87.3205557 -12.2945786
  77.3542531  87.6598786 -13.5280542  84.6961797  84.9096194  -4.4533356
  83.9195131  85.4690114  -4.4630492  85.3352360  85.3952977  -3.9318486
  92.4882577  81.6922987 -10.6190380  91.8456958  81.9855520 -11.2650585
  91.9837506  81.5775907  -9.8137183  82.9508169  87.7181647  -4.8915389
  83.6922853  88.2566691  -5.1680566  82.2445155  88.3447936  -4.7343838
  88.4263509  89.8610788  -6.2943228  88.8346865  89.4193198  -7.0388595
  87.7040770  89.2863415  -6.0409035  84.7794579  84.7983394  -8.9209671
  85.6255774  85.2222808  -8.7775022  84.7193216  84.1417019  -8.2271108
  87.9294024  82.4587763  -7.2628497  87.6854956  83.2129823  -7.7994222
  88.2053955  82.8373110  -6.4281250  87.4858716  81.6144196 -11.6814660
  86.6243195  81.9125449 -11.3897922  87.5121151  81.8314595 -12.6133627
  81.6869533  84.8721295  -4.0900079  81.0568193  85.5537576  -3.8564683
  81.5805621  84.7604377  -5.0346941  76.9814505  84.5393091 -13.1634155
  76.1913559  84.7950620 -13.6394045  77.4725753  85.3541429 -13.0582115
  84.7634918  91.4282374  -8.2568164  84.8279351  91.8902781  -7.4209992
  84.0545842  90.7979739  -8.1285854  75.2652208  84.7923582 -10.7319164
  75.5160247  85.6770592 -10.4661588  75.8011757  84.6128183 -11.5044073
  80.9650276  79.1742061  -1.7274828  80.5717221  78.6208260  -1.0527184
  81.7816416  79.4852640  -1.3368311  83.8818237  80.5899940  -4.1354572
  84.6227950  81.1907093  -4.2150109  84.1136159  79.8477578  -4.6936529
  79.0259575  85.7756307  -5.8576342  78.9113090  84.8741565  -5.5569243
  78.1704092  86.0220004  -6.2091526  86.1051412  93.7174048  -4.2588841
  85.6615267  92.9310426  -4.5767937  86.7668626  93.9053198  -4.9244951
  84.6605705  91.5120977  -5.3883932  85.1934041  90.7509265  -5.6184624
  84.1319786  91.2194629  -4.6459777  87.8275400  76.6181043  -9.8590290
  87.4839669  77.5082685  -9.9351179  88.1954362  76.4282701 -10.7220705
  86.9071940  78.9885698 -11.8941057  86.4036735  78.9515833 -12.7073252
  87.2002547  79.8978441 -11.8344400  83.1514826  79.0724428 -12.8874875
  84.0167823  78.8767237 -13.2468986  83.2192335  78.8434780 -11.9605518
  80.7577145  81.3026636 -15.5158508  81.3320897  81.0801817 -16.2485315
  81.3448127  81.3715330 -14.7629907  83.0599813  78.1767885 -16.7883439
  82.4064225  77.8616902 -17.4126824  83.0180287  77.5543625 -16.0623616
  89.6263065  75.8774602 -14.7572552  89.9321942  75.0171966 -15.0446637
  90.3515670  76.4692223 -14.9573558  87.4350717  85.2547280  -7.6591089
  87.7900104  85.4818753  -6.7996623  88.0822848  85.5865656  -8.2813833
  81.3290580  82.3623811 -10.8744747  81.9689959  82.2212570 -11.5721784
  80.4968110  82.0758324 -11.2506145  79.8044121  83.7461893  -8.9272936
  80.4767175  83.5379255  -9.5760287  78.9773908  83.5483979  -9.3667704
  85.7069693  80.3723834  -6.9107275  85.0597608  81.0713783  -7.0042799
  86.4770709  80.8059978  -6.5431027  89.1148491  90.6372686  -3.8356722
  88.9633998  90.4083238  -4.7526638  89.1053171  91.5943287  -3.8225377
  85.8833828  88.2104599  -8.8510456  86.8125888  88.3615758  -9.0241488
  85.4624858  88.2988619  -9.7061809  80.2071619  87.0204496  -8.1670499
  80.0691417  86.2884735  -7.5658960  81.1176542  86.9313396  -8.4486311
  82.8353919  86.7324455  -8.6786819  83.5453538  86.0917647  -8.7200201
  82.7923227  86.9837350  -7.7560639  81.5482853  83.7189673  -6.8591180
  81.0120210  83.2680411  -6.2069584  80.9599562  83.8535582  -7.6020716
  72.4787252  87.9655484 -14.2023209  73.1658292  87.6517214 -14.7902194
  72.3235381  88.8696849 -14.4755958  77.2821974  82.8545681  -9.7738185
  77.1980163  82.2471350 -10.5087775  76.4604681  83.3454699  -9.7728689
  81.8669856  93.9414122  -7.5841288  82.5679315  94.5750605  -7.4311894
  81.3964971  94.2828854  -8.3445649  89.8964683  78.3068838 -12.2588631
  88.9827763  78.5373065 -12.0906425  90.3257785  78.3907282 -11.4074599
  85.7158715  87.2378541  -3.2722700  85.0399352  87.1372670  -2.6020325
  86.5386349  87.0817754  -2.8086703  77.4637574  93.4750477 -10.6510185
  78.0491011  92.7294165 -10.5182281  77.2662412  93.7854434  -9.7673521
  72.0555228  86.0456077 -11.9305742  72.0939328  85.5119668 -11.1368624
  71.5495521  85.5191283 -12.5494765  79.4345991  80.8920618  -8.4343200
  79.4987317  81.7535449  -8.8465802  79.3713111  80.2794620  -9.1670841
  78.9098263  82.9643751  -4.7870165  79.5370302  82.5820828  -4.1732641
  78.0526182  82.7457952  -4.4214473  89.3092372  93.3706726  -3.1816430
  89.8532276  93.9836684  -3.6761475  88.7279217  93.9286304  -2.6649417
  79.2158053  82.8476176 -12.8724262  78.4944639  83.4612144 -13.0116789
  80.0051309  83.3833941 -12.9507616  82.0184367  80.1830603  -6.5983610
  82.5418768  80.4292899  -5.8357301  81.7996700  81.0150638  -7.0180473
  83.2236912  81.1244298  -8.9133940  82.8833732  80.3252111  -8.5113260
  82.5175918  81.4246009  -9.4857106  83.8753383  78.2093610 -10.4606617
  84.6979453  77.7354088 -10.5827726  84.1191447  78.9884094  -9.9607930
  81.3991962  84.9012731 -12.6514638  81.2536543  85.2153034 -11.7590357
  80.9217166  85.5197631 -13.2043739  83.2588345  81.8915279 -12.6033748
  83.2449914  80.9956372 -12.9401451  83.9760773  81.8985943 -11.9695462
  85.1114476  82.3252619 -10.5580621  84.8532254  83.2469690 -10.5596291
  84.5799516  81.9283054  -9.8680157  75.8737624  87.4418075  -9.7126977
  75.3291092  88.2177883  -9.5806703  76.7516974  87.7888880  -9.8707855
  85.5316431  78.4584570 -14.1979458  85.5538128  78.5223903 -15.1527479
  85.9484490  77.6189078 -14.0038952  76.6603646  86.5687972  -6.8196820
  75.9185382  86.7170607  -6.2332190  76.3396390  86.8296237  -7.6830071
  82.1466321  82.2861657  -3.1256246  82.1954476  83.1623779  -3.5078476
  82.6888835  81.7439050  -3.6984603  92.6321166  92.8302780  -3.8455109
  91.8416710  92.8126919  -4.3850609  92.3954521  93.3691073  -3.0906072
  92.7519041  89.6795246  -6.5322380  92.8017046  89.5145254  -5.5906857
  92.6432965  88.8122505  -6.9224499  90.0422804  85.6626174  -5.2163073
  90.9432666  85.5232639  -5.5079076  90.1170778  85.8280629  -4.2764896
  84.3765609  83.0393029  -6.3709887  83.5068918  83.3326595  -6.6427299
  84.6125089  83.6233474  -5.6502623  87.0804643  79.2572646  -8.8544467
  87.5986587  79.9933673  -9.1797978  86.7259776  79.5636639  -8.0197708
  87.3317237  75.6772928 -13.3343570  87.6118991  75.0096117 -12.7083144
  88.1167844  75.8702024 -13.8468906  91.2026095  84.0990562  -9.5871995
  92.1543518  84.1988660  -9.5659771  91.0329546  83.3068831  -9.0773911
  89.2240475  81.1846146  -9.4012594  88.6290407  81.4651158 -10.0966105
  88.9390172  81.6740047  -8.6295853  85.4036197  90.2410481  -2.9701834
  86.3239206  90.4189080  -2.7761788  85.3685780  89.2966527  -3.1222135
  74.6218362  85.4349075 -14.0448560  74.3021146  84.5814383 -14.3374186
  74.0751790  85.6497653 -13.2890592  78.3998269  88.1511516 -10.3279053
  78.6184279  89.0828624 -10.3091019  78.8124043  87.7919490  -9.5424249
  83.2726134  83.7244722  -0.9376304  83.1722861  84.6739079  -1.0064213
  83.0547676  83.3962960  -1.8100234  74.4906622  89.0551986 -12.0755438
  73.7970093  88.6405939 -12.5885484  75.2379613  89.0972523 -12.6722019
  83.1357404  87.1541860  -2.1211243  82.6524486  87.9542221  -1.9147354
  83.2218343  87.1649805  -3.0743799  79.0630742  91.0446395 -10.0842809
  80.0173995  91.0130337 -10.1512877  78.8643266  90.5837019  -9.2692583
  79.6530124  89.6147511  -7.5172011  80.4723013  90.1091590  -7.4937174
  79.9266932  88.6979479  -7.5454444  74.9065038  83.9485645  -6.8179814
  75.5523902  83.4384599  -6.3292589  74.6982189  84.6854327  -6.2436389
  87.4318430  91.0166493  -1.3187674  88.3009590  91.1907145  -1.6801039
  86.9525182  91.8360909  -1.4411944  87.2420768  74.8068466 -16.8109981
  86.4753164  74.2526953 -16.6653299  87.6531473  74.8790335 -15.9495829
  79.2462529  81.0953262  -2.7204800  80.1093991  80.7390067  -2.5101475
  78.6727940  80.7567157  -2.0329396  91.8044030  94.5033979  -1.7274828
  91.4110976  93.9500177  -1.0527184  92.6210170  94.8144557  -1.3368311
  90.0856284  96.4245180  -2.7204800  90.9487745  96.0681985  -2.5101475
  89.5121694  96.0859075  -2.0329396  91.8044031  71.5096101 -15.0029522
  91.4110977  70.9562300 -14.3281877  92.6210172  71.8206680 -14.6123004
  90.0856285  73.4307302 -15.9959493  90.9487747  73.0744107 -15.7856169
  89.5121696  73.0921197 -15.3084089   1.5340510 134.2112837  65.5884254
   0.7804218 133.6420235  65.4328259   1.6688051 134.1775502  66.5354889
   1.9446925 134.3688447  68.3204499   2.6750313 134.1073735  68.8812202
   1.3353870 133.6317169  68.3606567   1.5340511 111.2174960  52.3129561
   0.7804220 110.6482358  52.1573565   1.6688052 111.1837624  53.2600196
   1.9446926 111.3750570  55.0449805   2.6750315 111.1135858  55.6057509
   1.3353872 110.6379292  55.0851873   1.5367110 125.7192999  54.4631065
   2.1745519 125.5999747  53.7594405   1.4187952 126.6673843  54.5219017
   1.0908378 123.4444453  51.5384273   1.8771467 123.0263876  51.1874690
   1.3547082 124.3490545  51.7065921   1.2618455 128.8817304  46.2372930
   0.6264288 128.9551930  46.9493834   0.9315862 129.4710902  45.5592009
   6.4916805 123.3819686  52.4417251   7.2241977 122.8118903  52.6755081
   5.7356161 122.9941287  52.8823757   4.0142225 117.0941261  56.9011860
   3.6825550 117.9636672  56.6773075   3.4187839 116.7777545  57.5805890
   3.9070889 121.8136347  53.9805210   2.9987766 121.7451755  53.6863971
   3.8558485 122.2908292  54.8087036   5.7732535 120.0152785  55.7583084
   5.1306915 120.3085318  55.1122879   5.2687464 119.9005705  56.5636281
   3.4272699 123.7615958  46.4468943   4.3390555 123.9943345  46.2716641
   2.9182346 124.3453003  45.8844022   1.7113467 128.1840586  60.0830236
   2.1196823 127.7422997  59.3384868   0.9890728 127.6093214  60.3364429
   2.0342281 128.7441777  53.8382525   1.4051144 128.9087491  53.1358593
   1.6467943 129.1583386  54.6093489   5.9131513 129.6796215  51.1926889
   5.2282551 130.0595116  50.6423922   5.9975362 130.2891541  51.9258836
   1.2143982 120.7817561  59.1144966   0.9704914 121.5359622  58.5779242
   1.4903912 121.1602909  59.9492214   3.1682445 127.3256174  57.7922232
   3.3799340 127.9687934  57.1156613   3.1212193 126.4918490  57.3244162
   4.2828273 130.2028129  55.9644589   5.1045716 129.8008316  55.6827271
   4.2790675 130.0996363  56.9160705  12.3734266 126.5466878  52.3129561
  11.6197974 125.9774276  52.1573565  12.5081807 126.5129542  53.2600196
   1.4882608 132.3206646  60.1466024   1.4701084 133.1415527  59.6546293
   2.4102528 132.1960722  60.3716165   1.1125357 114.9410842  56.5183174
   0.7689627 115.8312483  56.4422284   1.4804320 114.7512499  55.6552759
   1.0775640 124.9319453  45.0255609   0.5622263 125.7024058  45.2643996
   0.8052948 124.2584589  45.6488670   6.0509914 127.6851808  46.9608782
   5.2739357 127.3462967  46.5163944   6.7301395 127.6904431  46.2863747
   0.8661943 122.8046545  46.8515390   0.5612079 123.1192694  47.7025533
   1.8192385 122.8827965  46.8942723   4.2901221 127.1585789  53.6175390
   3.6324895 127.8485050  53.7055519   5.0941620 127.5482221  53.9609377
   3.1006680 125.5130161  51.6679332   3.6138562 126.1460153  52.1701042
   3.7507904 124.9131357  51.3022692   3.8668476 130.4936163  49.7958475
   3.4130803 129.6527073  49.8523665   3.2362443 131.1297561  50.1333255
   2.8101396 121.4228149  51.0259142   2.0724152 120.9105535  51.3569385
   3.0628169 120.9828531  50.2142419   2.3101415 132.3312660  50.7308293
   2.6024390 132.8917717  50.0120658   2.8200036 132.6241221  51.4861452
   2.9113023 114.2004401  51.6200911   3.2171900 113.3401764  51.3326826
   3.6365628 114.7922021  51.4199905   0.7200674 123.5777078  58.7182375
   1.0750062 123.8048551  59.5776841   1.3672806 123.9095455  58.0959630
   6.4498411 126.6995514  49.4231704   6.3116310 126.8897110  48.4952893
   6.0934630 127.4614897  49.8799755   6.4767791 128.7672041  54.4342976
   6.9104298 128.6747330  55.2826030   7.1899372 128.7429542  53.7962992
   7.3383340 128.8095742  56.9675861   7.5319230 129.7141552  57.2135136
   7.2383959 128.3503161  57.8014446   2.3998449 128.9602485  62.5416742
   2.2483955 128.7313036  61.6246825   2.3903129 129.9173086  62.5548087
   2.4536524 127.2822699  42.9587443   1.8365695 126.5569527  42.8620496
   1.9853013 128.0432059  42.6154518   4.1090656 131.9921607  60.6193224
   4.0503202 131.3080827  59.9523807   4.5110174 132.7340597  60.1673850
   4.1108063 129.9561191  58.8507203   3.2234842 129.6187113  58.9733602
   4.6806614 129.2244222  59.0875969   8.5925404 125.3669408  53.6123765
   8.5815280 126.2494124  53.2417698   7.7242783 125.0140959  53.4178302
   1.8225427 128.4200730  49.5443897   0.8881706 128.5402193  49.3748601
   2.0002095 127.5173197  49.2803907   5.2097978 124.2618049  50.0793931
   5.6758430 125.0946041  50.0054234   5.6605479 123.7963031  50.7839189
   3.2774209 130.6061871  47.0780083   3.5534053 130.4918465  47.9873957
   2.4078708 130.2079355  47.0392256   3.1814641 116.6298636  54.1184832
   2.2677721 116.8602863  54.2867039   3.6107742 116.7137080  54.9698865
   2.9521099 124.8188528  56.6184726   2.2992550 125.0664436  55.9637179
   3.3301479 124.0052666  56.2847204   2.5942330 131.6936524  63.1957034
   3.1382234 132.3066483  62.7011989   2.0129174 132.2516103  63.7124047
   0.8799843 134.8157242  54.3272062   0.7550982 134.0146982  53.8183007
   1.5378934 135.3103436  53.8386032   2.9434751 132.6166262  55.9551612
   1.9965087 132.4971614  55.8829938   3.2917524 131.7288760  56.0377873
   3.5515306 133.2347537  53.2420837   4.4761854 133.0290399  53.1045288
   3.3830609 132.9863939  54.1510178   3.3410622 133.7533205  48.5982928
   3.5147500 133.1879627  47.8456781   3.8339514 134.5534100  48.4162418
   9.1950014 126.5169628  50.2173228   9.6381160 125.7676953  49.8192351
   8.3176524 126.5079764  49.8346960   4.3285795 133.0699969  45.6979826
   5.0236699 133.6906662  45.9167141   4.6708945 132.2195320  45.9732204
   6.2277218 130.5199675  47.2267157   6.7528542 130.8586948  46.5016477
   6.1399570 129.5846690  47.0430292   5.9171124 131.1532578  62.5318355
   5.1266668 131.1356717  61.9922854   5.6804479 131.6920872  63.2867392
   6.0368999 128.0025045  59.8451084   6.0867004 127.8375052  60.7866606
   5.9282922 127.1352304  59.4548964   3.3272761 123.9855973  61.1610390
   4.2282624 123.8462438  60.8694388   3.4020736 124.1510428  62.1008568
   7.5387196 130.4221986  60.0893105   7.2472004 130.7851967  60.9256566
   6.9259327 129.7088995  59.9106437   8.7382878 127.9874866  52.6095675
   9.5729770 128.4264670  52.7733236   8.8742007 127.5113519  51.7903921
   5.7874384 125.5454601  58.5573163   6.2628506 125.7382247  57.7492015
   4.8639950 125.6013787  58.3116547   0.6167195 114.0002727  53.0429894
   0.8968949 113.3325916  53.6690320   1.4017802 114.1931823  52.5304557
   4.4876053 122.4220361  56.7901469   5.4393476 122.5218459  56.8113693
   4.3179504 121.6298630  57.2999553   2.5090433 119.5075944  56.9760870
   1.9140365 119.7880957  56.2807358   2.2240129 119.9969845  57.7477611
   4.2685940 132.7764741  42.6967450   4.1899571 132.4424605  43.5903208
   5.0895607 133.2686509  42.6958922   6.9664131 125.6426481  55.9043768
   6.9340451 124.7042481  56.0903452   7.5764755 125.7210517  55.1709593
   7.1158619 122.4337524  55.9502052   6.5997668 121.6495981  55.7631980
   7.9998568 122.1056241  56.1148571   4.7769346 116.1778540  51.9097864
   4.5794167 115.8693628  52.7941196   5.3869052 116.9040179  52.0395794
  12.7840681 126.7042488  55.0449805  13.5144069 126.4427776  55.6057509
  12.1747626 125.9671209  55.0851873  10.8655978 124.8450350  55.6424256
  10.1389141 124.7106315  55.0340748  10.4503265 125.1527179  56.4480974
   0.5342993 116.0587447  49.6594396   1.0874032 116.4782900  50.3184419
   0.7713079 115.1323195  49.7017352   3.9121800 118.1687972  49.1673060
   3.3320469 118.8272776  48.7851112   3.6457733 117.3465316  48.7560477
   2.3625366 117.5693029  51.3694380   2.8625145 117.6809564  50.5608699
   3.0060974 117.2654082  52.0095189   2.6946678 120.3288062  48.2229408
   1.8072533 120.6137713  48.0049603   3.1100667 120.1681825  47.3756685
   6.0461214 120.3534583  51.9383747   6.8221604 120.8431036  52.2108364
   5.3209348 120.7792637  52.3955617   8.4833773 121.0662202  52.9957688
   9.0778264 120.8257938  52.2850996   8.5560357 120.3469333  53.6231224
   2.6687702 125.8442598  48.4379698   2.6122903 126.3011149  47.5987331
   3.2216044 125.0833283  48.2602541   6.4792508 121.6332330  49.2629818
   6.2229442 121.2328966  50.0938025   5.8545376 122.3476124  49.1379957
  10.7904846 124.3728403  51.7701109  10.2304404 124.4421592  52.5432671
  10.1848349 124.1969388  51.0500605   3.7476589 130.5315266  44.3675888
   4.5822193 130.0996464  44.1853363   3.5860932 130.3597280  45.2952783
   3.4022481 127.0347379  45.7332227   3.3471285 126.8691651  44.7920672
   2.7768536 127.7423412  45.8894417  11.9302132 138.7736371  51.5384273
  12.7165222 138.3555794  51.1874690  12.1940837 139.6782463  51.7065921
  17.3310560 138.7111604  52.4417251  18.0635732 138.1410821  52.6755081
  16.5749915 138.3233205  52.8823757  14.8535980 132.4233178  56.9011860
  14.5219305 133.2928589  56.6773075  14.2581593 132.1069462  57.5805890
   8.5892166 136.1628745  44.6341942   8.7566569 137.0308982  45.0012413
   8.3989335 136.3256027  43.7103232  14.7464643 137.1428264  53.9805210
  13.8381521 137.0743673  53.6863971  14.6952239 137.6200209  54.8087036
  16.6126290 135.3444703  55.7583084  15.9700670 135.6377236  55.1122879
  16.1081218 135.2297623  56.5636281  14.2666453 139.0907876  46.4468943
  15.1784309 139.3235263  46.2716641  13.7576100 139.6744920  45.8844022
   8.9038291 138.4505111  57.4563793   9.7499486 138.8744524  57.5998442
   8.8436929 137.7938735  58.1502356  12.0537736 136.1109479  59.1144966
  11.8098668 136.8651540  58.5779242  12.3297667 136.4894827  59.9492214
  11.6102428 135.2665912  54.6958804  10.7486907 135.5647166  54.9875542
  11.6364863 135.4836311  53.7639837  23.2128020 141.8758795  52.3129561
  22.4591729 141.3066193  52.1573565  23.3475561 141.8421460  53.2600196
   5.0893988 132.8263777  64.6498635   4.6960933 132.2729976  65.3246280
   5.9060128 133.1374356  65.0405153   8.0061949 134.2421656  62.2418892
   8.7471662 134.8428810  62.1623354   8.2379872 133.4999294  61.6836935
  11.9519112 130.2702759  56.5183174  11.6083381 131.1604401  56.4422284
  12.3198074 130.0804417  55.6552759   9.5016506 135.1061071  50.0840847
   8.6458102 134.7167922  49.9046486   9.9143457 135.1853032  49.2240633
  11.0315652 132.6407415  54.4832407  10.5280448 132.6037550  53.6700212
  11.3246259 133.5500157  54.5429064   7.2758538 132.7246144  53.4898589
   8.1411535 132.5288953  53.1304478   7.3436047 132.4956496  54.4167945
  11.7055698 138.1338463  46.8515390  11.4005833 138.4484612  47.7025533
  12.6586140 138.2119883  46.8942723   4.8820857 134.9548352  50.8614955
   5.4564609 134.7323534  50.1288148   5.4691840 135.0237047  51.6143557
   7.1843525 131.8289601  49.5890025   6.5307937 131.5138618  48.9646640
   7.1423999 131.2065342  50.3149848  10.4181265 138.3171535  53.9137673
   9.5003827 138.5386482  53.7559361  10.8341409 138.3917845  53.0549380
  13.6495150 136.7520067  51.0259142  12.9117907 136.2397453  51.3569385
  13.9021924 136.3120448  50.2142419  13.7506777 129.5296319  51.6200911
  14.0565654 128.6693682  51.3326826  14.4759382 130.1213939  51.4199905
  11.5594429 138.9068996  58.7182375  11.9143817 139.1340469  59.5776841
  12.2066560 139.2387373  58.0959630   5.4534292 136.0145527  55.5028716
   6.0933671 135.8734286  54.8051680   4.6211822 135.7280040  55.1267318
   9.8313406 134.0245550  59.4666188   9.1841321 134.7235500  59.3730665
  10.6014421 134.4581694  59.8342437   5.6726566 137.3711389  59.5182284
   5.1363923 136.9202128  60.1703880   5.0843274 137.5057298  58.7752748
  11.5789401 134.9920961  51.9705473  12.0758100 134.2390923  51.6506544
  10.8076382 135.0285277  51.4048683  19.4319158 140.6961326  53.6123765
  19.4209034 141.5786041  53.2417698  18.5636537 140.3432877  53.4178302
   8.1624369 137.1338344  51.6977158   7.7922157 136.5809384  52.3858064
   8.6583462 136.5296477  51.1452158  16.0491733 139.5909967  50.0793931
  16.5152185 140.4237959  50.0054234  16.4999233 139.1254949  50.7839189
  14.0208395 131.9590554  54.1184832  13.1071475 132.1894781  54.2867039
  14.4501497 132.0428998  54.9698865  13.7914854 140.1480446  56.6184726
  13.1386304 140.3956353  55.9637179  14.1695234 139.3344584  56.2847204
   3.5589703 134.5442334  57.9430264   3.6231030 135.4057165  57.5307662
   3.4956823 133.9316336  57.2102623   3.0341976 136.6165467  61.5903298
   3.6614014 136.2342544  62.2040823   2.1769894 136.3979669  61.9558991
   6.1428079 133.8352319  59.7789854   6.6662481 134.0814616  60.5416163
   5.9240412 134.6672354  59.3592991   1.5395360 136.1055994  47.6460978
   1.2108066 135.2253373  47.4636084   1.8934731 136.0503662  48.5337368
   4.6537183 136.3928963  48.0136456   4.9933256 136.9214885  47.2915064
   5.1009304 136.7309370  48.7895023   7.3480624 134.7766014  57.4639524
   7.0077444 133.9773827  57.8660204   6.6419630 135.0767725  56.8916357
   7.9997096 131.8615327  55.9166847   8.8223165 131.3875805  55.7945737
   8.2435159 132.6405810  56.4165533   6.6405330 134.8903585  46.2129749
   7.3613693 135.2684838  45.7093466   6.0170634 135.6092462  46.3164727
  10.7836453 135.5948734  47.1488081  11.0000067 136.4773372  46.8476909
  10.3030520 135.2034947  46.4193723   7.3832057 135.5436995  53.7739715
   7.3693626 134.6478088  53.4372013   8.1004485 135.5507659  54.4078001
   9.2358188 135.9774335  55.8192843   8.9775966 136.8991406  55.8177173
   8.7043228 135.5804770  56.5093307   6.7868953 134.4251375  49.0427285
   6.9084864 133.4968022  49.2418173   6.4970996 134.4390061  48.1305601
   9.6560144 132.1106286  52.1794005   9.6781840 132.1745619  51.2245985
  10.0728203 131.2710795  52.3734511  20.0343768 141.8461545  50.2173228
  20.4774914 141.0968871  49.8192351  19.1570278 141.8371682  49.8346960
   6.2710033 135.9383373  63.2517218   6.3198188 136.8145496  62.8694988
   6.8132547 135.3960766  62.6788861  14.1666516 139.3147890  61.1610390
  15.0676379 139.1754355  60.8694388  14.2414490 139.4802345  62.1008568
   8.5009321 136.6914745  60.0063577   7.6312631 136.9848311  59.7346165
   8.7368802 137.2755190  60.7270840  16.6268139 140.8746519  58.5573163
  17.1022260 141.0674165  57.7492015  15.7033704 140.9305704  58.3116547
  11.2048355 132.9094362  57.5228997  11.7230299 133.6455389  57.1975486
  10.8503488 133.2158355  58.3575756  11.4560949 129.3294645  53.0429894
  11.7362703 128.6617834  53.6690320  12.2411556 129.5223740  52.5304557
  15.3269808 137.7512279  56.7901469  16.2787231 137.8510376  56.8113693
  15.1573258 136.9590547  57.2999553  13.3484187 134.8367862  56.9760870
  12.7534119 135.1172875  56.2807358  13.0633884 135.3261763  57.7477611
  17.8057885 140.9718398  55.9043768  17.7734206 140.0334399  56.0903452
  18.4158509 141.0502435  55.1709593  17.9552374 137.7629442  55.9502052
  17.4391423 136.9787898  55.7631980  18.8392322 137.4348158  56.1148571
  15.6163101 131.5070457  51.9097864  15.4187922 131.1985546  52.7941196
  16.2262806 132.2332096  52.0395794  23.6234435 142.0334405  55.0449805
  24.3537824 141.7719693  55.6057509  23.0141381 141.2963127  55.0851873
  21.7049732 140.1742268  55.6424256  20.9782896 140.0398233  55.0340748
  21.2897019 140.4819096  56.4480974   9.4446199 132.3101317  48.0370099
   8.6346927 131.9648402  48.4125345  10.1330616 132.0008861  48.6257711
  11.3736747 131.3879364  49.6594396  11.9267786 131.8074818  50.3184419
  11.6106834 130.4615112  49.7017352   7.3969847 137.3766438  65.4397160
   7.2966574 138.3260795  65.3709251   7.1791389 137.0484677  64.5673230
   6.5982918 134.6251363  42.0237837   7.4602082 134.9506261  42.2833654
   6.7833262 133.8382859  41.5110903  14.7515555 133.4979889  49.1673060
  14.1714224 134.1564693  48.7851112  14.4851487 132.6757234  48.7560477
  13.2019121 132.8984947  51.3694380  13.7018899 133.0101482  50.5608699
  13.8454729 132.5946000  52.0095189  13.5340433 135.6579980  48.2229408
  12.6466288 135.9429630  48.0049603  13.9494422 135.4973743  47.3756685
  16.8854969 135.6826501  51.9383747  17.6615359 136.1722953  52.2108364
  16.1603103 136.1084555  52.3955617  19.3227527 136.3954120  52.9957688
  19.9172018 136.1549856  52.2850996  19.3954111 135.6761251  53.6231224
  17.3186262 136.9624248  49.2629818  17.0623196 136.5620883  50.0938025
  16.6939130 137.6768042  49.1379957  21.6298600 139.7020321  51.7701109
  21.0698158 139.7713510  52.5432671  21.0242103 139.5261305  51.0500605
   7.5512361 131.8647406  45.3117546   7.5391031 132.8089246  45.4685817
   8.4435783 131.6817551  45.0177007  11.3664481 128.4590183  49.5663483
  10.5996876 127.9048669  49.7120165  11.7775185 128.5312051  50.4277634
   3.3706242 134.7474978  63.6568664   4.2337703 134.3911783  63.8671988
   2.7971652 134.4088873  64.3444068   1.5340512  88.2237082  39.0374868
   0.7804221  87.6544481  38.8818872   1.6688054  88.1899747  39.9845502
   1.9446928  88.3812692  41.7695112   2.6750316  88.1197981  42.3302815
   1.3353873  87.6441414  41.8097180   1.5367111 102.7255122  41.1876372
   2.1745521 102.6061869  40.4839712   1.4187954 103.6735966  41.2464324
   1.0908379 100.4506576  38.2629580   1.8771468 100.0325999  37.9119997
   1.3547084 101.3552668  38.4311228   1.2618457 105.8879426  32.9618236
   0.6264290 105.9614053  33.6739141   0.9315863 106.4773025  32.2837316
   6.4916806 100.3881809  39.1662558   7.2241978  99.8181026  39.4000388
   5.7356162 100.0003410  39.6069064   4.0142227  94.1003383  43.6257167
   3.6825552  94.9698794  43.4018382   3.4187840  93.7839667  44.3051197
   3.9070890  98.8198469  40.7050517   2.9987767  98.7513878  40.4109278
   3.8558486  99.2970414  41.5332342   5.7732536  97.0214908  42.4828391
   5.1306917  97.3147441  41.8368185   5.2687465  96.9067828  43.2881587
   3.4272700 100.7678081  33.1714250   4.3390556 101.0005468  32.9961947
   2.9182347 101.3515125  32.6089329   1.7113468 105.1902709  46.8075543
   2.1196824 104.7485119  46.0630175   0.9890729 104.6155336  47.0609735
   2.0342282 105.7503899  40.5627831   1.4051145 105.9149614  39.8603899
   1.6467945 106.1645509  41.3338795   5.9131514 106.6858337  37.9172195
   5.2282552 107.0657239  37.3669228   5.9975364 107.2953664  38.6504143
   1.2143983  97.7879684  45.8390273   0.9704915  98.5421744  45.3024549
   1.4903914  98.1665032  46.6737520   3.1682446 104.3318296  44.5167539
   3.3799341 104.9750056  43.8401920   3.1212194 103.4980613  44.0489469
   4.2828274 107.2090252  42.6889896   5.1045718 106.8070439  42.4072578
   4.2790677 107.1058486  43.6406012  12.3734267 103.5529000  39.0374868
  11.6197975 102.9836398  38.8818872  12.5081808 103.5191665  39.9845502
   1.4882609 109.3268769  46.8711330   1.4701085 110.1477650  46.3791599
   2.4102529 109.2022844  47.0961471   1.1125359  91.9472964  43.2428480
   0.7689628  92.8374606  43.1667591   1.4804321  91.7574622  42.3798065
   1.0775641 101.9381575  31.7500915   0.5622265 102.7086180  31.9889303
   0.8052950 101.2646712  32.3733977   6.0509915 104.6913930  33.6854089
   5.2739358 104.3525090  33.2409251   6.7301396 104.6966553  33.0109054
   0.8661944  99.8108668  33.5760697   0.5612080 100.1254817  34.4270840
   1.8192387  99.8890087  33.6188030   4.2901222 104.1647911  40.3420697
   3.6324897 104.8547173  40.4300826   5.0941622 104.5544343  40.6854683
   3.1006681 102.5192284  38.3924639   3.6138563 103.1522276  38.8946348
   3.7507905 101.9193480  38.0267999   3.8668477 107.4998286  36.5203781
   3.4130804 106.6589195  36.5768972   3.2362444 108.1359684  36.8578561
   2.8101397  98.4290272  37.7504449   2.0724154  97.9167658  38.0814691
   3.0628170  97.9890653  36.9387726   2.3101417 109.3374782  37.4553599
   2.6024391 109.8979839  36.7365965   2.8200037 109.6303343  38.2106759
   2.9113024  91.2066524  38.3446218   3.2171901  90.3463887  38.0572133
   3.6365629  91.7984144  38.1445212   0.7200676 100.5839201  45.4427682
   1.0750063 100.8110674  46.3022148   1.3672807 100.9157578  44.8204937
   6.4498412 103.7057637  36.1477011   6.3116311 103.8959233  35.2198200
   6.0934631 104.4677020  36.6045062   6.4767792 105.7734164  41.1588282
   6.9104299 105.6809453  42.0071336   7.1899373 105.7491664  40.5208298
   7.3383342 105.8157864  43.6921168   7.5319232 106.7203675  43.9380443
   7.2383960 105.3565283  44.5259753   2.3998450 105.9664607  49.2662048
   2.2483957 105.7375159  48.3492132   2.3903130 106.9235209  49.2793393
   2.4536525 104.2884821  29.6832750   1.8365696 103.5631649  29.5865803
   1.9853014 105.0494182  29.3399824   4.1090657 108.9983730  47.3438530
   4.0503203 108.3142950  46.6769113   4.5110175 109.7402720  46.8919156
   4.1108064 106.9623314  45.5752510   3.2234843 106.6249235  45.6978909
   4.6806615 106.2306345  45.8121275   8.5925405 102.3731531  40.3369072
   8.5815281 103.2556246  39.9663005   7.7242784 102.0203082  40.1423609
   1.8225428 105.4262853  36.2689203   0.8881707 105.5464315  36.0993908
   2.0002097 104.5235319  36.0049213   5.2097979 101.2680172  36.8039238
   5.6758432 102.1008164  36.7299540   5.6605480 100.8025154  37.5084496
   3.2774211 107.6123993  33.8025390   3.5534054 107.4980588  34.7119264
   2.4078709 107.2141478  33.7637563   3.1814642  93.6360759  40.8430139
   2.2677722  93.8664986  41.0112346   3.6107744  93.7199203  41.6944171
   2.9521101 101.8250651  43.3430033   2.2992551 102.0726558  42.6882486
   3.3301481 101.0114789  43.0092510   2.5942331 108.6998647  49.9202340
   3.1382235 109.3128605  49.4257295   2.0129176 109.2578225  50.4369353
   0.8799844 111.8219365  41.0517368   0.7550983 111.0209105  40.5428314
   1.5378935 112.3165558  40.5631338   2.9434752 109.6228385  42.6796918
   1.9965088 109.5033736  42.6075245   3.2917525 108.7350883  42.7623180
   3.5515307 110.2409660  39.9666143   4.4761855 110.0352521  39.8290594
   3.3830611 109.9926061  40.8755485   3.3410624 110.7595327  35.3228235
   3.5147501 110.1941750  34.5702087   3.8339515 111.5596222  35.1407725
   9.1950015 103.5231750  36.9418534   9.6381161 102.7739076  36.5437658
   8.3176525 103.5141887  36.5592266   4.3285796 110.0762092  32.4225133
   5.0236701 110.6968785  32.6412448   4.6708946 109.2257443  32.6977511
   6.2277219 107.5261797  33.9512464   6.7528543 107.8649070  33.2261784
   6.1399572 106.5908813  33.7675598   5.9171125 108.1594701  49.2563662
   5.1266669 108.1418840  48.7168161   5.6804480 108.6982995  50.0112698
   6.0369000 105.0087167  46.5696390   6.0867005 104.8437175  47.5111913
   5.9282924 104.1414426  46.1794271   3.3272763 100.9918095  47.8855697
   4.2282625 100.8524560  47.5939695   3.4020737 101.1572550  48.8253874
   7.5387197 107.4284109  46.8138412   7.2472005 107.7914089  47.6501873
   6.9259328 106.7151117  46.6351744   8.7382879 104.9936989  39.3340982
   9.5729771 105.4326793  39.4978542   8.8742008 104.5175642  38.5149228
   5.7874385 102.5516724  45.2818470   6.2628507 102.7444370  44.4737321
   4.8639951 102.6075909  45.0361853   0.6167196  91.0064850  39.7675200
   0.8968950  90.3388039  40.3935627   1.4017803  91.1993945  39.2549864
   4.4876054  99.4282484  43.5146775   5.4393477  99.5280581  43.5358999
   4.3179505  98.6360752  44.0244860   2.5090434  96.5138067  43.7006176
   1.9140366  96.7943080  43.0052665   2.2240131  97.0031968  44.4722917
   4.2685941 109.7826864  29.4212756   4.1899573 109.4486728  30.3148514
   5.0895608 110.2748632  29.4204229   6.9664132 102.6488603  42.6289075
   6.9340452 101.7104604  42.8148759   7.5764756 102.7272640  41.8954900
   7.1158621  99.4399647  42.6747358   6.5997669  98.6558103  42.4877287
   7.9998569  99.1118363  42.8393878   4.7769348  93.1840662  38.6343171
   4.5794169  92.8755750  39.5186503   5.3869053  93.9102301  38.7641101
  12.7840682 103.7104610  41.7695112  13.5144070 103.4489898  42.3302815
  12.1747627 102.9733332  41.8097180  10.8655979 101.8512473  42.3669563
  10.1389143 101.7168438  41.7586055  10.4503266 102.1589301  43.1726281
   0.5342994  93.0649569  36.3839702   1.0874033  93.4845023  37.0429725
   0.7713081  92.1385317  36.4262658   3.9121801  95.1750094  35.8918367
   3.3320470  95.8334898  35.5096419   3.6457734  94.3527439  35.4805784
   2.3625368  94.5755152  38.0939687   2.8625146  94.6871687  37.2854006
   3.0060976  94.2716205  38.7340495   2.6946679  97.3350185  34.9474715
   1.8072534  97.6199835  34.7294910   3.1100668  97.1743948  34.1001992
   6.0461215  97.3596706  38.6629054   6.8221606  97.8493158  38.9353671
   5.3209350  97.7854760  39.1200924   8.4833774  98.0724325  39.7202995
   9.0778265  97.8320061  39.0096303   8.5560358  97.3531455  40.3476531
   2.6687703 102.8504721  35.1625005   2.6122904 103.3073272  34.3232637
   3.2216046 102.0895405  34.9847848   6.4792509  98.6394453  35.9875124
   6.2229443  98.2391088  36.8183332   5.8545377  99.3538246  35.8625264
  10.7904847 101.3790526  38.4946416  10.2304405 101.4483715  39.2677978
  10.1848350 101.2031510  37.7745912   3.7476590 107.5377389  31.0921195
   4.5822194 107.1058587  30.9098670   3.5860933 107.3659402  32.0198089
   3.4022482 104.0409502  32.4577534   3.3471286 103.8753773  31.5165978
   2.7768538 104.7485535  32.6139724  12.3760865 118.0547040  41.1876372
  13.0139275 117.9353787  40.4839712  12.2581708 119.0027884  41.2464324
   9.1850572 118.0074468  41.1237896   8.8469083 117.8915532  40.2358431
  10.0540340 117.6065633  41.1038902   5.0437387 119.8609944  37.1134787
   4.4802252 119.7699881  36.3451075   4.9289782 119.0409849  37.5937280
   9.6670355 119.1609320  47.0824102   9.6558995 118.7662118  46.2104605
   9.8290994 118.4275392  47.6757873   2.5901819 121.3561136  39.9519008
   3.3823111 121.0151960  39.5365307   2.8298469 121.4656111  40.8721161
   6.3877616 121.9446431  46.0303286   6.0967482 122.8492062  45.9149952
   7.0234600 121.9862959  46.7447355   7.3133823 119.3223280  42.6204645
   7.9097395 119.0979302  41.9061608   7.3708794 118.5808025  43.2230093
  11.9302134 115.7798494  38.2629580  12.7165223 115.3617917  37.9119997
  12.1940838 116.6844586  38.4311228  12.1012211 121.2171344  32.9618236
  11.4658044 121.2905970  33.6739141  11.7709618 121.8064943  32.2837316
  17.3310561 115.7173727  39.1662558  18.0635733 115.1472944  39.4000388
  16.5749917 115.3295327  39.6069064   8.9486681 118.1400968  36.3625901
   8.5844888 117.6131589  37.0738822   9.8053797 117.7499437  36.1892386
  14.8535981 109.4295301  43.6257167  14.5219306 110.2990712  43.4018382
  14.2581595 109.1131585  44.3051197   8.5892168 113.1690868  31.3587249
   8.7566570 114.0371104  31.7257720   8.3989337 113.3318150  30.4348538
  11.3467501 121.6307847  43.0253079  11.0468224 122.5332886  42.9168887
  11.0018560 121.3640030  43.8774232   4.7979982 118.0821644  39.0589784
   3.8730479 117.9497858  39.2667476   5.0464395 118.8615863  39.5559726
  14.7464645 114.1490387  40.7050517  13.8381522 114.0805795  40.4109278
  14.6952240 114.6262332  41.5332342   8.5681388 115.6248525  32.3433916
   8.4481014 116.0705576  33.1819396   7.8733977 115.9733843  31.7847454
   2.1588793 117.7254917  39.8933573   2.2881174 117.9789396  40.8072985
   1.4786245 118.3182625  39.5738228   8.8205510 115.5680033  48.6485414
   8.0438844 116.1273953  48.6388279   9.4596073 116.0536816  49.1700284
  16.6126291 112.3506825  42.4828391  15.9700671 112.6439359  41.8368185
  16.1081219 112.2359746  43.2881587  14.2666455 116.0969999  33.1714250
  15.1784311 116.3297385  32.9961947  13.7576102 116.6807043  32.6089329
   7.0751883 118.3765486  48.2103381   7.8166567 118.9150530  47.9338205
   6.3688868 119.0031775  48.3674933  12.5507222 120.5194626  46.8075543
  12.9590578 120.0777037  46.0630175  11.8284484 119.9447254  47.0609735
   8.9038292 115.4567233  44.1809099   9.7499488 115.8806647  44.3243748
   8.8436930 114.8000858  44.8747663  12.8736037 121.0795817  40.5627831
  12.2444899 121.2441531  39.8603899  12.4861699 121.4937427  41.3338795
  16.7525269 122.0150255  37.9172195  16.0676307 122.3949156  37.3669228
  16.8369118 122.6245582  38.6504143  12.0537738 113.1171602  45.8390273
  11.8098670 113.8713662  45.3024549  12.3297668 113.4956949  46.6737520
  14.0076200 119.6610214  44.5167539  14.2193096 120.3041974  43.8401920
  13.9605949 118.8272531  44.0489469  11.6102429 112.2728035  41.4204111
  10.7486908 112.5709288  41.7120848  11.6364864 112.4898433  40.4885143
   8.4263999 120.8170225  37.8277917   8.8902344 121.0957928  37.0382539
   8.1620797 119.9153670  37.6451007   5.3188080 120.3641707  40.7657680
   5.8889437 120.7928975  40.1275164   5.9096192 120.0824291  41.4641865
   7.3632885 116.9393378  34.6367482   8.0656928 117.3914421  35.1041408
   7.0313513 116.2977196  35.2647375   5.8113246 115.5305134  49.0118691
   5.1811907 116.2121415  49.2454088   5.7049334 115.4188216  48.0671829
  15.1222028 122.5382169  42.6889896  15.9439472 122.1362357  42.4072578
  15.1184431 122.4350404  43.6406012   3.0572964 115.5621509  36.8968092
   2.2604127 115.6740204  37.4151588   2.8298556 115.9008162  36.0308982
   8.8878632 122.0866213  44.8450607   8.9523064 122.5486620  45.6808778
   8.1789556 121.4563578  44.9732916  23.2128021 118.8820918  39.0374868
  22.4591730 118.3128316  38.8818872  23.3475563 118.8483582  39.9845502
   8.6026649 123.7534320  34.7129587   8.4672324 124.5985856  35.1414435
   9.1436462 123.9553598  33.9495521   5.0893989 109.8325900  51.3743942
   4.6960935 109.2792099  52.0491586   5.9060129 110.1436478  51.7650460
   8.0061950 111.2483779  48.9664199   8.7471663 111.8490932  48.8868661
   8.2379873 110.5061417  48.4082241   3.1503288 116.4340146  47.2442428
   3.0356803 115.5325404  47.5449527   2.2947806 116.6803843  46.8927245
  10.2295126 124.3757887  48.8429929   9.7858980 123.5894265  48.5250833
  10.8912339 124.5637037  48.1773820   4.9882247 125.9053688  43.3690607
   5.5389672 125.7770752  42.5967601   4.1493723 126.2048577  43.0185500
  12.3276364 124.6560687  46.8711330  12.3094839 125.4769568  46.3791599
  13.2496284 124.5314762  47.0961471   8.7849418 122.1704816  47.7134839
   9.3177755 121.4093104  47.4834147   8.2563499 121.8778468  48.4558993
  11.9519113 107.2764882  43.2428480  11.6083382 108.1666524  43.1667591
  12.3198076 107.0866540  42.3798065  11.9169396 117.2673493  31.7500915
  11.4016019 118.0378098  31.9889303  11.6446704 116.5938629  32.3733977
   9.5016507 112.1123194  36.8086154   8.6458103 111.7230044  36.6291793
   9.9143459 112.1915155  35.9485939  11.0315653 109.6469537  41.2077714
  10.5280449 109.6099672  40.3945519  11.3246260 110.5562280  41.2674370
   7.2758539 109.7308267  40.2143895   8.1411536 109.5351076  39.8549785
   7.3436048 109.5018619  41.1413252  16.8903670 120.0205848  33.6854089
  16.1133113 119.6817007  33.2409251  17.5695151 120.0258471  33.0109054
  11.7055699 115.1400585  33.5760697  11.4005835 115.4546734  34.4270840
  12.6586141 115.2182005  33.6188030  10.1502131 121.2990809  35.2253651
   9.6223492 120.5643568  34.9126888   9.6489634 122.0765485  34.9793619
  15.1294977 119.4939829  40.3420697  14.4718651 120.1839090  40.4300826
  15.9335376 119.8836261  40.6854683   4.8820858 111.9610475  37.5860262
   5.4564610 111.7385656  36.8533455   5.4691841 112.0299169  38.3388863
  13.9400436 117.8484202  38.3924639  14.4532317 118.4814194  38.8946348
  14.5901659 117.2485397  38.0267999   7.1843526 108.8351724  36.3135332
   6.5307938 108.5200741  35.6891946   7.1424000 108.2127464  37.0395154
  10.4181266 115.3233657  40.6382979   9.5003828 115.5448604  40.4804667
  10.8341410 115.3979968  39.7794687  11.2016314 116.7225073  35.7685659
  11.9488133 117.2346470  35.4592781  11.4707904 116.4009126  36.6290053
   9.4742964 119.2183614  32.7512614   8.5654184 118.9342646  32.8485083
   9.5038048 119.6382692  31.8915921  14.7062232 122.8290203  36.5203781
  14.2524559 121.9881113  36.5768972  14.0756199 123.4651602  36.8578561
  13.6495151 113.7582189  37.7504449  12.9117908 113.2459575  38.0814691
  13.9021925 113.3182571  36.9387726  13.1495171 124.6666700  37.4553599
  13.4418145 125.2271757  36.7365965  13.6593792 124.9595261  38.2106759
  13.7506779 106.5358441  38.3446218  14.0565656 105.6755805  38.0572133
  14.4759384 107.1276061  38.1445212   8.0227858 116.8312234  38.8522409
   8.0776468 115.8786071  38.7764886   7.2119060 116.9871673  39.3363707
   5.9620218 115.4489294  36.6112788   5.1488084 115.7483465  37.0177980
   6.4579213 115.0544983  37.3287270   8.1128796 125.4447051  38.5447053
   8.0704975 125.6707897  37.6155585   9.0291495 125.2110426  38.6932854
  11.5594430 115.9131119  45.4427682  11.9143818 116.1402592  46.3022148
  12.2066561 116.2449495  44.8204937  17.2892167 119.0349554  36.1477011
  17.1510066 119.2251150  35.2198200  16.9328386 119.7968937  36.6045062
   5.4534293 113.0207650  42.2274023   6.0933672 112.8796409  41.5296986
   4.6211824 112.7342163  41.8512625  17.3161547 121.1026081  41.1588282
  17.7498053 121.0101370  42.0071336  18.0293127 121.0783582  40.5208298
   6.2294597 122.3210080  38.3409015   7.0235196 121.8260400  38.1391590
   5.5186289 121.7927943  37.9776721  11.0489441 124.7028176  42.6921383
  11.1026464 125.2719112  43.4599099  10.1804223 124.8730061  42.3275420
   2.4562910 112.9907975  37.0047010   2.7169727 113.9053308  36.8956170
   3.2780082 112.5232417  37.1543623   3.9287835 114.4045732  44.1745834
   4.6010888 114.1963094  43.5258483   3.1017621 114.2067818  43.7351067
  18.1777096 121.1449782  43.6921168  18.3712986 122.0495593  43.9380443
  18.0777714 120.6857201  44.5259753   9.8313407 111.0307673  46.1911495
   9.1841322 111.7297622  46.0975972  10.6014422 111.4643817  46.5587743
  13.2392205 121.2956525  49.2662048  13.0877711 121.0667076  48.3492132
  13.2296884 122.2527126  49.2793393  10.0077541 118.8688438  44.2508315
  10.9369601 119.0199597  44.0777282   9.5868571 118.9572458  43.3956961
   8.8065873 122.8939102  42.0206852   8.6676959 122.5257886  42.8932791
   8.0180469 123.4086741  41.8490810  10.3571088 122.2720705  39.4095690
  10.0220921 122.2321475  40.3053340   9.8575034 121.6065421  38.9366100
   4.3315332 117.6788335  44.9348271   4.1935130 116.9468574  45.5359810
   5.2420256 117.5897235  44.6532459  13.2930280 119.6176739  29.6832750
  12.6759450 118.8923567  29.5865803  12.8246768 120.3786099  29.3399824
   6.9597633 117.3908294  44.4231951   7.6697251 116.7501486  44.3818569
   6.9166941 117.6421189  45.3458132  14.9484411 124.3275647  47.3438530
  14.8896958 123.6434867  46.6769113  15.3503930 125.0694637  46.8919156
   5.6726567 114.3773512  46.2427591   5.1363924 113.9264250  46.8949187
   5.0843275 114.5119421  45.4998055  14.9501819 122.2915231  45.5752510
  14.0628598 121.9541153  45.6978909  15.5200370 121.5598263  45.8121275
   1.4065688 113.5129520  43.3280585   1.3223877 112.9055189  42.5930995
   0.5848394 114.0038538  43.3290081   8.4802972 126.9516684  42.5413753
   8.4073144 127.7571655  43.0533058   8.0380365 127.1508649  41.7161775
  11.5789402 111.9983083  38.6950780  12.0758101 111.2453045  38.3751850
  10.8076383 112.0347400  38.1293989  19.4319159 117.7023449  40.3369072
  19.4209036 118.5848164  39.9663005  18.5636539 117.3494999  40.1423609
  10.9401656 126.8503518  44.6971912  11.6529628 127.4850982  44.6247813
  10.4491684 126.9467384  43.8811914  12.6619183 120.7554770  36.2689203
  11.7275461 120.8756233  36.0993908  12.8395851 119.8527237  36.0049213
   8.1624371 114.1400466  38.4222465   7.7922158 113.5871506  39.1103370
   8.6583463 113.5358600  37.8697465  16.0491734 116.5972090  36.8039238
  16.5152186 117.4300081  36.7299540  16.4999234 116.1317071  37.5084496
   5.9913569 124.5997961  45.5177483   6.6923029 125.2334444  45.6706877
   5.5208684 124.9412693  44.7573122  14.1167965 122.9415911  33.8025390
  14.3927809 122.8272505  34.7119264  13.2472464 122.5433396  33.7637563
  14.0208397 108.9652677  40.8430139  13.1071476 109.1956903  41.0112346
  14.4501498 109.0491121  41.6944171  13.7914855 117.1542569  43.3430033
  13.1386305 117.4018476  42.6882486  14.1695235 116.3406707  43.0092510
  10.7522029 127.1902262  37.4458203  10.9344424 126.3723918  37.9085956
  11.5755015 127.4069954  37.0083093  11.0864195 126.1170447  34.7073252
  11.6151961 125.6062901  34.0943414  11.3492414 125.8012977  35.5718785
   9.8402428 117.8962380  49.8296070   9.1643065 117.7956509  50.4998445
  10.6630062 117.7401593  50.2932067   1.5881287 124.1334316  42.4508585
   2.1734724 123.3878004  42.5836489   1.3906126 124.4438273  43.3345249
   8.5825211 129.2029307  44.0653686   9.1343519 129.3660929  44.8302771
   8.9231405 129.7933745  43.3933711   3.5589704 111.5504457  44.6675571
   3.6231031 112.4119288  44.2552968   3.4956825 110.9378459  43.9347929
   3.0341977 113.6227589  48.3148605   3.6614016 113.2404667  48.9286129
   2.1769896 113.4041791  48.6804297  13.4336085 124.0290565  49.9202340
  13.9775989 124.6420523  49.4257295  12.8522930 124.5870143  50.4369353
  11.7193598 127.1511283  41.0517368  11.5944738 126.3501022  40.5428314
  12.3772689 127.6457476  40.5631338   3.3401767 113.5060015  40.2294508
   2.6188352 114.1195983  40.0901982   4.1295022 114.0417780  40.1511154
  13.7828507 124.9520303  42.6796918  12.8358842 124.8325654  42.6075245
  14.1311280 124.0642801  42.7623180   6.1428080 110.8414442  46.5035160
   6.6662482 111.0876738  47.2661469   5.9240413 111.6734476  46.0838298
   1.5395361 113.1118116  34.3706285   1.2108067 112.2315495  34.1881391
   1.8934732 113.0565785  35.2582674  10.7874940 124.7473019  38.8801271
  10.6399902 123.8189726  39.0608841  11.6128434 124.7693110  38.3958346
   4.6537184 113.3991086  34.7381763   4.9933257 113.9277007  34.0160371
   5.1009305 113.7371492  35.5140329  14.3909062 125.5701578  39.9666143
  15.3155609 125.3644439  39.8290594  14.2224365 125.3217979  40.8755485
   7.3480625 111.7828137  44.1884831   7.0077445 110.9835950  44.5905511
   6.6419631 112.0829848  43.6161664   7.9997097 108.8677449  42.6412154
   8.8223166 108.3937927  42.5191044   8.2435160 109.6467933  43.1410840
   6.6405331 111.8965708  32.9375055   7.3613694 112.2746960  32.4338772
   6.0170636 112.6154584  33.0410033  10.7836454 112.6010857  33.8733388
  11.0000069 113.4835494  33.5722216  10.3030521 112.2097070  33.1439030
   5.5235676 115.5596570  40.4504132   5.3780256 115.8736873  41.3428414
   5.0460879 116.1781470  39.8975031   7.3832059 112.5499118  40.4985022
   7.3693627 111.6540211  40.1617320   8.1004487 112.5569782  41.1323308
   9.2358189 112.9836458  42.5438149   8.9775967 113.9053529  42.5422480
   8.7043230 112.5866893  43.2338613  14.1804378 126.0887245  35.3228235
  14.3541256 125.5233668  34.5702087  14.6733269 126.8888140  35.1407725
   6.7868955 111.4313498  35.7672592   6.9084866 110.5030144  35.9663480
   6.4970997 111.4452184  34.8550907   9.6560145 109.1168408  38.9039312
   9.6781842 109.1807742  37.9491291  10.0728204 108.2772917  39.0979818
  20.0343769 118.8523668  36.9418534  20.4774915 118.1030993  36.5437658
  19.1570280 118.8433804  36.5592266  15.1679551 125.4054010  32.4225133
  15.8630455 126.0260702  32.6412448  15.5102701 124.5549361  32.6977511
  17.0670974 122.8553715  33.9512464  17.5922298 123.1940988  33.2261784
  16.9793326 121.9200730  33.7675598   8.7291022 126.7687789  46.0802340
   9.0378149 126.5236935  46.9525040   9.5266504 126.9734427  45.5921211
   8.7511634 128.9225698  38.3107717   8.3116625 128.4302077  39.0040574
   9.5019751 128.3798666  38.0699792   6.1985507 124.4663707  40.3830019
   5.5765516 123.8034412  40.0832246   6.8690373 124.4924839  39.7003666
   6.2710034 112.9445495  49.9762525   6.3198190 113.8207618  49.5940294
   6.8132548 112.4022888  49.4034168  16.7564880 123.4886619  49.2563662
  15.9660423 123.4710758  48.7168161  16.5198234 124.0274912  50.0112698
  16.8762755 120.3379085  46.5696390  16.9260760 120.1729092  47.5111913
  16.7676678 119.4706344  46.1794271  14.1666517 116.3210013  47.8855697
  15.0676380 116.1816478  47.5939695  14.2414492 116.4864468  48.8253874
   8.5009323 113.6976868  46.7308883   7.6312632 113.9910434  46.4591472
   8.7368803 114.2817313  47.4516147  18.3780952 122.7576027  46.8138412
  18.0865760 123.1206007  47.6501873  17.7653083 122.0443035  46.6351744
  19.5776634 120.3228906  39.3340982  20.4123525 120.7618710  39.4978542
  19.7135763 119.8467560  38.5149228  16.6268140 117.8808641  45.2818470
  17.1022261 118.0736287  44.4737321  15.7033705 117.9367827  45.0361853
  11.2048356 109.9156485  44.2474304  11.7230300 110.6517512  43.9220792
  10.8503489 110.2220478  45.0821063  11.4560951 106.3356767  39.7675200
  11.7362704 105.6679956  40.3935627  12.2411557 106.5285863  39.2549864
  15.3269809 114.7574401  43.5146775  16.2787232 114.8572499  43.5358999
  15.1573259 113.9652670  44.0244860  13.3484188 111.8429984  43.7006176
  12.7534120 112.1234997  43.0052665  13.0633885 112.3323885  44.4722917
  15.1079695 125.1118782  29.4212756  15.0293327 124.7778645  30.3148514
  15.9289362 125.6040550  29.4204229  17.8057887 117.9780521  42.6289075
  17.7734207 117.0396522  42.8148759  18.4158510 118.0564558  41.8954900
  17.9552375 114.7691564  42.6747358  17.4391424 113.9850021  42.4877287
  18.8392324 114.4410281  42.8393878  15.6163102 108.5132580  38.6343171
  15.4187923 108.2047668  39.5186503  16.2262808 109.2394219  38.7641101
  23.6234437 119.0396528  41.7695112  24.3537825 118.7781816  42.3302815
  23.0141382 118.3025250  41.8097180  21.7049734 117.1804390  42.3669563
  20.9782897 117.0460355  41.7586055  21.2897021 117.4881219  43.1726281
   9.5279910 120.8994320  50.1316936  10.4482920 121.0772919  50.3256983
   9.4929493 119.9550365  49.9796635   2.5241983 118.8095355  42.7739717
   2.7427992 119.7412463  42.7927751   2.9367756 118.4503329  43.5594521
   9.4446200 109.3163440  34.7615406   8.6346929 108.9710525  35.1370652
  10.1330617 109.0070984  35.3503017  11.3736749 108.3941487  36.3839702
  11.9267787 108.8136940  37.0429725  11.6106835 107.4677235  36.4262658
   7.3969848 114.3828560  52.1642466   7.2966575 115.3322917  52.0954557
   7.1791390 114.0546799  51.2918536   6.5982919 111.6313486  28.7483144
   7.4602083 111.9568384  29.0078961   6.7833263 110.8444981  28.2356209
  14.7515556 110.5042012  35.8918367  14.1714225 111.1626816  35.5096419
  14.4851488 109.6819357  35.4805784  13.2019122 109.9047070  38.0939687
  13.7018901 110.0163604  37.2854006  13.8454730 109.6008123  38.7340495
   7.2601118 117.8125699  50.9807528   6.7768200 118.6126059  51.1871417
   7.3462057 117.8233644  50.0274972   0.5287078 119.6454079  38.9029347
   0.5057766 119.7441766  37.9511230   0.8387714 120.4919230  39.2246513
   3.1874455 121.7030234  43.0175962   4.1417709 121.6714176  42.9505893
   2.9886979 121.2420858  43.8326187   3.7773838 120.2731350  45.5846759
   4.5966727 120.7675429  45.6081597   4.0510645 119.3563318  45.5564327
  13.5340434 112.6642102  34.9474715  12.6466289 112.9491753  34.7294910
  13.9494423 112.5035866  34.1001992  16.8854970 112.6888623  38.6629054
  17.6615360 113.1785076  38.9353671  16.1603104 113.1146678  39.1200924
  19.3227529 113.4016243  39.7202995  19.9172019 113.1611979  39.0096303
  19.3954112 112.6823373  40.3476531  13.5081458 118.1796638  35.1625005
  13.4516659 118.6365190  34.3232637  14.0609800 117.4187323  34.9847848
  17.3186263 113.9686370  35.9875124  17.0623198 113.5683006  36.8183332
  16.6939131 114.6830164  35.8625264  21.6298601 116.7082443  38.4946416
  21.0698159 116.7775633  39.2677978  21.0242105 116.5323428  37.7745912
   4.6993810 128.1419171  40.2464602   4.5826194 129.0864603  40.1443292
   3.8786256 127.8392732  40.6350401  14.5870345 122.8669306  31.0921195
  15.4215949 122.4350505  30.9098670  14.4254688 122.6951320  32.0198089
  14.2416237 119.3701420  32.4577534  14.1865041 119.2045691  31.5165978
  13.6162292 120.0777452  32.6139724  11.5562144 121.6750331  51.7831097
  12.4253304 121.8490984  51.4217732  11.0768896 122.4944748  51.6606826
   7.5512362 108.8709529  32.0362853   7.5391032 109.8151368  32.1931123
   8.4435784 108.6879674  31.7422314   5.7248324 128.7947432  43.4620531
   6.6275571 128.8271043  43.7787025   5.4985694 127.8647883  43.4766866
   7.4801926 127.5478419  40.1230609   6.5297557 127.5480281  40.0094981
   7.7834412 126.8011154  39.6066644  11.3664482 105.4652305  36.2908789
  10.5996878 104.9110792  36.4365472  11.7775187 105.5374174  37.1522941
   3.3706243 111.7537101  50.3813971   4.2337704 111.3973906  50.5917295
   2.7971653 111.4150996  51.0689375  23.2154620 133.3838957  41.1876372
  23.8533030 133.2645705  40.4839712  23.0975463 134.3319801  41.2464324
  20.0244326 133.3366385  41.1237896  19.6862838 133.2207450  40.2358431
  20.8934094 132.9357551  41.1038902  15.8831142 135.1901862  37.1134787
  15.3196007 135.0991799  36.3451075  15.7683537 134.3701766  37.5937280
  20.5064109 134.4901237  47.0824102  20.4952750 134.0954035  46.2104605
  20.6684749 133.7567310  47.6757873  13.4295574 136.6853053  39.9519008
  14.2216866 136.3443878  39.5365307  13.6692224 136.7948029  40.8721161
  17.2271370 137.2738349  46.0303286  16.9361236 138.1783980  45.9149952
  17.8628355 137.3154877  46.7447355  18.1527577 134.6515198  42.6204645
  18.7491149 134.4271220  41.9061608  18.2102549 133.9099943  43.2230093
  22.7695888 131.1090411  38.2629580  23.5558977 130.6909834  37.9119997
  23.0334593 132.0136503  38.4311228  22.9405966 136.5463262  32.9618236
  22.3051799 136.6197888  33.6739141  22.6103372 137.1356860  32.2837316
  28.1704315 131.0465644  39.1662558  28.9029487 130.4764861  39.4000388
  27.4143671 130.6587245  39.6069064  19.7880435 133.4692886  36.3625901
  19.4238642 132.9423507  37.0738822  20.6447551 133.0791355  36.1892386
  25.6929736 124.7587219  43.6257167  25.3613061 125.6282629  43.4018382
  25.0975349 124.4423503  44.3051197  19.4285922 128.4982786  31.3587249
  19.5960324 129.3663022  31.7257720  19.2383091 128.6610067  30.4348538
  22.1861255 136.9599765  43.0253079  21.8861978 137.8624803  42.9168887
  21.8412315 136.6931948  43.8774232  15.6373737 133.4113561  39.0589784
  14.7124233 133.2789775  39.2667476  15.8858150 134.1907781  39.5559726
  25.5858399 129.4782305  40.7050517  24.6775276 129.4097713  40.4109278
  25.5345995 129.9554250  41.5332342  19.4075143 130.9540443  32.3433916
  19.2874768 131.3997494  33.1819396  18.7127731 131.3025761  31.7847454
  12.9982548 133.0546835  39.8933573  13.1274929 133.3081314  40.8072985
  12.3179999 133.6474543  39.5738228  19.6599265 130.8971950  48.6485414
  18.8832599 131.4565870  48.6388279  20.2989828 131.3828733  49.1700284
  27.4520045 127.6798743  42.4828391  26.8094426 127.9731276  41.8368185
  26.9474974 127.5651663  43.2881587  25.1060209 131.4261916  33.1714250
  26.0178065 131.6589303  32.9961947  24.5969856 132.0098961  32.6089329
  17.9145637 133.7057404  48.2103381  18.6560322 134.2442448  47.9338205
  17.2082623 134.3323692  48.3674933  23.3900977 135.8486544  46.8075543
  23.7984333 135.4068955  46.0630175  22.6678238 135.2739172  47.0609735
  19.7432047 130.7859151  44.1809099  20.5893242 131.2098564  44.3243748
  19.6830684 130.1292775  44.8747663  23.7129791 136.4087735  40.5627831
  23.0838654 136.5733449  39.8603899  23.3255453 136.8229344  41.3338795
  27.5919023 137.3442173  37.9172195  26.9070061 137.7241074  37.3669228
  27.6762873 137.9537499  38.6504143  22.8931492 128.4463519  45.8390273
  22.6492424 129.2005580  45.3024549  23.1691423 128.8248867  46.6737520
  24.8469955 134.9902132  44.5167539  25.0586850 135.6333892  43.8401920
  24.7999703 134.1564448  44.0489469  22.4496184 127.6019952  41.4204111
  21.5880663 127.9001206  41.7120848  22.4758619 127.8190351  40.4885143
  19.2657753 136.1462143  37.8277917  19.7296099 136.4249846  37.0382539
  19.0014551 135.2445587  37.6451007  16.1581834 135.6933624  40.7657680
  16.7283191 136.1220893  40.1275164  16.7489946 135.4116209  41.4641865
  18.2026639 132.2685295  34.6367482  18.9050683 132.7206339  35.1041408
  17.8707268 131.6269114  35.2647375  16.6507001 130.8597052  49.0118691
  16.0205661 131.5413333  49.2454088  16.5443089 130.7480133  48.0671829
  11.9451973 130.5268848  39.9384615  11.1551027 130.7826376  39.4624726
  12.4363221 131.3417186  40.0436656  25.9615783 137.8674087  42.6889896
  26.7833227 137.4654274  42.4072578  25.9578186 137.7642321  43.6406012
  13.8966719 130.8913427  36.8968092  13.0997882 131.0032121  37.4151588
  13.6692311 131.2300079  36.0308982  19.7272386 137.4158130  44.8450607
  19.7916819 137.8778538  45.6808778  19.0183310 136.7855495  44.9732916
  10.2289676 130.7799338  42.3699606  10.4797715 131.6646348  42.6357182
  10.7649225 130.6003940  41.5974698  34.0521776 134.2112836  39.0374868
  33.2985484 133.6420234  38.8818872  34.1869317 134.1775500  39.9845502
  19.4420404 139.0826238  34.7129587  19.3066079 139.9277774  35.1414435
  19.9830216 139.2845515  33.9495521  15.9287744 125.1617818  51.3743942
  15.5354689 124.6084016  52.0491586  16.7453884 125.4728396  51.7650460
  18.8455705 126.5775697  48.9664199  19.5865418 127.1782850  48.8868661
  19.0773627 125.8353335  48.4082241  13.9897043 131.7632064  47.2442428
  13.8750558 130.8617321  47.5449527  13.1341560 132.0095761  46.8927245
  21.0688880 139.7049804  48.8429929  20.6252735 138.9186183  48.5250833
  21.7306094 139.8928955  48.1773820  23.1670118 139.9852604  46.8711330
  23.1488594 140.8061485  46.3791599  24.0890038 139.8606679  47.0961471
  19.6243173 137.4996734  47.7134839  20.1571509 136.7385022  47.4834147
  19.0957254 137.2070386  48.4558993  22.7912868 122.6056800  43.2428480
  22.4477137 123.4958441  43.1667591  23.1591830 122.4158457  42.3798065
  22.7563150 132.5965411  31.7500915  22.2409774 133.3670015  31.9889303
  22.4840459 131.9230547  32.3733977  20.3410261 127.4415112  36.8086154
  19.4851858 127.0521962  36.6291793  20.7537213 127.5207072  35.9485939
  21.8709408 124.9761455  41.2077714  21.3674204 124.9391590  40.3945519
  22.1640015 125.8854198  41.2674370  18.1152294 125.0600185  40.2143895
  18.9805291 124.8642993  39.8549785  18.1829803 124.8310536  41.1413252
  27.7297424 135.3497765  33.6854089  26.9526867 135.0108925  33.2409251
  28.4088905 135.3550389  33.0109054  22.5449453 130.4692503  33.5760697
  22.2399589 130.7838652  34.4270840  23.4979896 130.5473923  33.6188030
  20.9895885 136.6282726  35.2253651  20.4617247 135.8935486  34.9126888
  20.4883388 137.4057403  34.9793619  25.9688731 134.8231747  40.3420697
  25.3112406 135.5131008  40.4300826  26.7729131 135.2128179  40.6854683
  15.7214613 127.2902393  37.5860262  16.2958365 127.0677574  36.8533455
  16.3085595 127.3591087  38.3388863  24.7794190 133.1776119  38.3924639
  25.2926072 133.8106111  38.8946348  25.4295414 132.5777315  38.0267999
  18.0237281 124.1643641  36.3135332  17.3701693 123.8492659  35.6891946
  17.9817755 123.5419382  37.0395154  21.2575021 130.6525575  40.6382979
  20.3397582 130.8740522  40.4804667  21.6735165 130.7271885  39.7794687
  22.0410069 132.0516991  35.7685659  22.7881888 132.5638388  35.4592781
  22.3101658 131.7301043  36.6290053  20.3136719 134.5475531  32.7512614
  19.4047938 134.2634564  32.8485083  20.3431803 134.9674610  31.8915921
  25.5455986 138.1582121  36.5203781  25.0918313 137.3173031  36.5768972
  24.9149953 138.7943519  36.8578561  24.4888906 129.0874107  37.7504449
  23.7511663 128.5751493  38.0814691  24.7415679 128.6474488  36.9387726
  23.9888926 139.9958618  37.4553599  24.2811900 140.5563675  36.7365965
  24.4987546 140.2887179  38.2106759  24.5900533 121.8650359  38.3446218
  24.8959410 121.0047722  38.0572133  25.3153138 122.4567979  38.1445212
  18.8621613 132.1604152  38.8522409  18.9170223 131.2077988  38.7764886
  18.0512815 132.3163591  39.3363707  16.8013973 130.7781212  36.6112788
  15.9881838 131.0775382  37.0177980  17.2972967 130.3836900  37.3287270
  18.9522551 140.7738969  38.5447053  18.9098730 140.9999815  37.6155585
  19.8685250 140.5402343  38.6932854  22.3988185 131.2423036  45.4427682
  22.7537572 131.4694509  46.3022148  23.0460316 131.5741413  44.8204937
  28.1285921 134.3641472  36.1477011  27.9903820 134.5543068  35.2198200
  27.7722140 135.1260855  36.6045062  16.2928048 128.3499567  42.2274023
  16.9327427 128.2088326  41.5296986  15.4605578 128.0634081  41.8512625
  28.1555301 136.4317999  41.1588282  28.5891808 136.3393288  42.0071336
  28.8686882 136.4075500  40.5208298  17.0688352 137.6501998  38.3409015
  17.8628950 137.1552318  38.1391590  16.3580044 137.1219861  37.9776721
  21.8883196 140.0320093  42.6921383  21.9420218 140.6011029  43.4599099
  21.0197977 140.2021978  42.3275420  13.2956664 128.3199892  37.0047010
  13.5563481 129.2345225  36.8956170  14.1173836 127.8524335  37.1543623
  14.7681589 129.7337649  44.1745834  15.4404643 129.5255012  43.5258483
  13.9411376 129.5359735  43.7351067  29.0170851 136.4741700  43.6921168
  29.2106741 137.3787510  43.9380443  28.9171469 136.0149119  44.5259753
  20.6707161 126.3599590  46.1911495  20.0235076 127.0589540  46.0975972
  21.4408177 126.7935734  46.5587743  24.0785959 136.6248442  49.2662048
  23.9271466 136.3958994  48.3492132  24.0690639 137.5819044  49.2793393
  20.8471296 134.1980355  44.2508315  21.7763356 134.3491515  44.0777282
  20.4262326 134.2864376  43.3956961  19.6459628 138.2231020  42.0206852
  19.5070713 137.8549804  42.8932791  18.8574224 138.7378659  41.8490810
  21.1964843 137.6012622  39.4095690  20.8614675 137.5613392  40.3053340
  20.6968788 136.9357338  38.9366100  15.1709087 133.0080252  44.9348271
  15.0328885 132.2760491  45.5359810  16.0814010 132.9189152  44.6532459
  24.1324034 134.9468657  29.6832750  23.5153205 134.2215485  29.5865803
  23.6640523 135.7078017  29.3399824  17.7991387 132.7200212  44.4231951
  18.5091006 132.0793404  44.3818569  17.7560695 132.9713107  45.3458132
  25.7878166 139.6567565  47.3438530  25.7290712 138.9726785  46.6769113
  26.1897684 140.3986555  46.8919156  16.5120321 129.7065430  46.2427591
  15.9757678 129.2556168  46.8949187  15.9237030 129.8411338  45.4998055
  25.7895573 137.6207149  45.5752510  24.9022352 137.2833071  45.6978909
  26.3594124 136.8890180  45.8121275  12.2459442 128.8421437  43.3280585
  12.1617631 128.2347107  42.5930995  11.4242149 129.3330456  43.3290081
  22.4183156 127.3275001  38.6950780  22.9151856 126.5744963  38.3751850
  21.6470138 127.3639317  38.1293989  30.2712914 133.0315366  40.3369072
  30.2602790 133.9140082  39.9663005  29.4030293 132.6786917  40.1423609
  21.7795410 142.1795435  44.6971912  22.4923382 142.8142900  44.6247813
  21.2885439 142.2759301  43.8811914  23.5012937 136.0846688  36.2689203
  22.5669216 136.2048150  36.0993908  23.6789606 135.1819155  36.0049213
  19.0018125 129.4692384  38.4222465  18.6315913 128.9163424  39.1103370
  19.4977218 128.8650517  37.8697465  26.8885488 131.9264007  36.8039238
  27.3545941 132.7591999  36.7299540  27.3392989 131.4608989  37.5084496
  16.8307324 139.9289879  45.5177483  17.5316783 140.5626362  45.6706877
  16.3602439 140.2704610  44.7573122  24.9561720 138.2707829  33.8025390
  25.2321563 138.1564423  34.7119264  24.0866218 137.8725313  33.7637563
  24.8602151 124.2944594  40.8430139  23.9465231 124.5248821  41.0112346
  25.2895253 124.3783038  41.6944171  24.6308610 132.4834486  43.3430033
  23.9780060 132.7310394  42.6882486  25.0088990 131.6698624  43.0092510
  21.5915784 142.5194179  37.4458203  21.7738178 141.7015835  37.9085956
  22.4148770 142.7361872  37.0083093  21.9257949 141.4462365  34.7073252
  22.4545715 140.9354819  34.0943414  22.1886169 141.1304895  35.5718785
  20.6796183 133.2254297  49.8296070  20.0036820 133.1248427  50.4998445
  21.5023817 133.0693511  50.2932067  12.4275042 139.4626234  42.4508585
  13.0128479 138.7169922  42.5836489  12.2299880 139.7730191  43.3345249
   7.0192696 132.0331834  41.1713028   7.0576796 131.4995425  41.9650147
   6.5132989 131.5067040  40.5524006  14.3983459 126.8796375  44.6675571
  14.4624785 127.7411205  44.2552968  14.3350579 126.2670376  43.9347929
  13.8735731 128.9519507  48.3148605  14.5007770 128.5696584  48.9286129
  13.0163650 128.7333709  48.6804297  24.2729840 139.3582482  49.9202340
  24.8169744 139.9712441  49.4257295  23.6916685 139.9162061  50.4369353
  22.5587353 142.4803200  41.0517368  22.4338492 141.6792940  40.5428314
  23.2166444 142.9749394  40.5631338  14.1795521 128.8351933  40.2294508
  13.4582107 129.4487901  40.0901982  14.9688777 129.3709698  40.1511154
  24.6222261 140.2812220  42.6796918  23.6752597 140.1617572  42.6075245
  24.9705034 139.3934718  42.7623180  16.9821835 126.1706359  46.5035160
  17.5056236 126.4168656  47.2661469  16.7634168 127.0026394  46.0838298
  12.3789116 128.4410034  34.3706285  12.0501822 127.5607413  34.1881391
  12.7328486 128.3857703  35.2582674  21.6268695 140.0764937  38.8801271
  21.4793657 139.1481644  39.0608841  22.4522188 140.0985027  38.3958346
  15.4930939 128.7283004  34.7381763  15.8327011 129.2568925  34.0160371
  15.9403059 129.0663410  35.5140329  25.2302816 140.8993495  39.9666143
  26.1549364 140.6936357  39.8290594  25.0618120 140.6509896  40.8755485
  18.1874380 127.1120054  44.1884831  17.8471200 126.3127867  44.5905511
  17.4813386 127.4121765  43.6161664  18.8390851 124.1969367  42.6412154
  19.6616921 123.7229845  42.5191044  19.0828915 124.9759851  43.1410840
  17.4799086 127.2257625  32.9375055  18.2007448 127.6038878  32.4338772
  16.8564390 127.9446502  33.0410033  21.6230209 127.9302774  33.8733388
  21.8393823 128.8127412  33.5722216  21.1424276 127.5388988  33.1439030
  16.3629430 130.8888487  40.4504132  16.2174011 131.2028791  41.3428414
  15.8854634 131.5073388  39.8975031  18.2225813 127.8791035  40.4985022
  18.2087382 126.9832129  40.1617320  18.9398241 127.8861699  41.1323308
  20.0751944 128.3128376  42.5438149  19.8169722 129.2345446  42.5422480
  19.5436984 127.9158810  43.2338613  25.0198133 141.4179163  35.3228235
  25.1935010 140.8525585  34.5702087  25.5127024 142.2180058  35.1407725
  10.8375092 133.4293832  43.3891794  10.2928560 134.2053640  43.5212068
  11.7154442 133.7764636  43.2310915  17.6262709 126.7605416  35.7672592
  17.7478620 125.8322062  35.9663480  17.3364751 126.7744102  34.8550907
  20.4953899 124.4460326  38.9039312  20.5175596 124.5099659  37.9491291
  20.9121958 123.6064835  39.0979818  30.8737524 134.1815586  36.9418534
  31.3168670 133.4322911  36.5437658  29.9964034 134.1725722  36.5592266
  26.0073305 140.7345927  32.4225133  26.7024210 141.3552620  32.6412448
  26.3496455 139.8841278  32.6977511  11.6241114 132.5563728  46.2821950
  10.8822850 132.7046363  46.8686581  11.3033859 132.8171994  45.4188700
  27.9064728 138.1845633  33.9512464  28.4316052 138.5232905  33.2261784
  27.8187081 137.2492648  33.7675598  19.5684777 142.0979706  46.0802340
  19.8771903 141.8528853  46.9525040  20.3660259 142.3026345  45.5921211
  17.0379261 139.7955625  40.3830019  16.4159270 139.1326330  40.0832246
  17.7084128 139.8216757  39.7003666  17.1103789 128.2737413  49.9762525
  17.1591944 129.1499536  49.5940294  17.6526303 127.7314806  49.4034168
  27.5958634 138.8178536  49.2563662  26.8054178 138.8002675  48.7168161
  27.3591989 139.3566830  50.0112698  27.7156509 135.6671003  46.5696390
  27.7654514 135.5021010  47.5111913  27.6070433 134.7998262  46.1794271
  25.0060272 131.6501931  47.8855697  25.9070134 131.5108396  47.5939695
  25.0808246 131.8156386  48.8253874  19.3403077 129.0268786  46.7308883
  18.4706386 129.3202352  46.4591472  19.5762557 129.6109231  47.4516147
  29.2174706 138.0867944  46.8138412  28.9259514 138.4497925  47.6501873
  28.6046837 137.3734953  46.6351744  30.4170388 135.6520824  39.3340982
  31.2517280 136.0910628  39.4978542  30.5529517 135.1759477  38.5149228
  27.4661894 133.2100559  45.2818470  27.9416016 133.4028205  44.4737321
  26.5427460 133.2659745  45.0361853  22.0442111 125.2448402  44.2474304
  22.5624055 125.9809429  43.9220792  21.6897244 125.5512396  45.0821063
  22.2954705 121.6648685  39.7675200  22.5756459 120.9971874  40.3935627
  23.0805312 121.8577781  39.2549864  26.1663563 130.0866319  43.5146775
  27.1180986 130.1864417  43.5358999  25.9967014 129.2944588  44.0244860
  24.1877943 127.1721902  43.7006176  23.5927875 127.4526915  43.0052665
  23.9027640 127.6615803  44.4722917  25.9473450 140.4410699  29.4212756
  25.8687081 140.1070563  30.3148514  26.7683117 140.9332467  29.4204229
  28.6451641 133.3072439  42.6289075  28.6127961 132.3688439  42.8148759
  29.2552265 133.3856475  41.8954900  28.7946130 130.0983482  42.6747358
  28.2785178 129.3141939  42.4877287  29.6786078 129.7702199  42.8393878
  26.4556857 123.8424498  38.6343171  26.2581678 123.5339586  39.5186503
  27.0656562 124.5686137  38.7641101  34.4628191 134.3688445  41.7695112
  35.1931579 134.1073734  42.3302815  33.8535136 133.6317167  41.8097180
  32.5443488 132.5096308  42.3669563  31.8176652 132.3752273  41.7586055
  32.1290775 132.8173137  43.1726281  20.3673665 136.2286238  50.1316936
  21.2876674 136.4064837  50.3256983  20.3323248 135.2842283  49.9796635
   9.5855830 131.4224831  39.0570211   9.2658614 130.5690140  38.7644585
   9.0389258 131.6373410  39.8128178  13.3635737 134.1387272  42.7739717
  13.5821747 135.0704380  42.7927751  13.7761511 133.7795247  43.5594521
  20.2839955 124.6455358  34.7615406  19.4740683 124.3002443  35.1370652
  20.9724372 124.3362901  35.3503017  22.2130503 123.7233405  36.3839702
  22.7661542 124.1428858  37.0429725  22.4500590 122.7969153  36.4262658
  18.2363602 129.7120478  52.1642466  18.1360329 130.6614835  52.0954557
  18.0185144 129.3838717  51.2918536  17.4376674 126.9605403  28.7483144
  18.2995838 127.2860302  29.0078961  17.6227018 126.1736899  28.2356209
   9.4544090 135.0427743  41.0263332   8.7607561 134.6281696  40.5133287
  10.2017081 135.0848279  40.4296751  25.5909310 125.8333930  35.8918367
  25.0107979 126.4918734  35.5096419  25.3245243 125.0111274  35.4805784
  24.0412877 125.2338987  38.0939687  24.5412655 125.3455522  37.2854006
  24.6848485 124.9300040  38.7340495  18.0994872 133.1417617  50.9807528
  17.6161954 133.9417977  51.1871417  18.1855812 133.1525562  50.0274972
  11.3680832 134.9745997  38.9029347  11.3451520 135.0733684  37.9511230
  11.6781469 135.8211147  39.2246513  14.0268210 137.0322152  43.0175962
  14.9811463 137.0006094  42.9505893  13.8280734 136.5712775  43.8326187
  14.6167592 135.6023268  45.5846759  15.4360481 136.0967346  45.6081597
  14.8904400 134.6855236  45.5564327  24.3734188 127.9934020  34.9474715
  23.4860043 128.2783671  34.7294910  24.7888177 127.8327783  34.1001992
  27.7248724 128.0180541  38.6629054  28.5009115 128.5076993  38.9353671
  26.9996859 128.4438595  39.1200924  30.1621283 128.7308160  39.7202995
  30.7565774 128.4903896  39.0096303  30.2347867 128.0115291  40.3476531
  24.3475212 133.5088556  35.1625005  24.2910413 133.9657107  34.3232637
  24.9003554 132.7479241  34.9847848  28.1580018 129.2978288  35.9875124
  27.9016952 128.8974924  36.8183332  27.5332886 130.0122082  35.8625264
  32.4692356 132.0374361  38.4946416  31.9091914 132.1067550  39.2677978
  31.8635859 131.8615346  37.7745912  25.4264099 138.1961224  31.0921195
  26.2609703 137.7642422  30.9098670  25.2648442 138.0243238  32.0198089
  25.0809991 134.6993337  32.4577534  25.0258795 134.5337609  31.5165978
  24.4556047 135.4069370  32.6139724   9.8702506 129.9361402  46.2838956
  10.5161370 129.4260356  46.7726181   9.6619657 130.6730083  46.8582382
  22.3955899 137.0042249  51.7831097  23.2647058 137.1782901  51.4217732
  21.9162650 137.8236666  51.6606826  18.3906117 124.2001446  32.0362853
  18.3784787 125.1443286  32.1931123  19.2829539 124.0171592  31.7422314
  22.2058236 120.7944223  36.2908789  21.4390632 120.2402710  36.4365472
  22.6168941 120.8666092  37.1522941  14.2099997 127.0829019  50.3813971
  15.0731459 126.7265824  50.5917295  13.6365408 126.7442914  51.0689375
  33.6089643 146.4382329  38.2629580  34.3952732 146.0201752  37.9119997
  33.8728347 147.3428421  38.4311228  39.0098070 146.3757562  39.1662558
  39.7423242 145.8056779  39.4000388  38.2537426 145.9879163  39.6069064
  36.5323490 140.0879136  43.6257167  36.2006815 140.9574547  43.4018382
  35.9369104 139.7715420  44.3051197  30.2679677 143.8274703  31.3587249
  30.4354079 144.6954940  31.7257720  30.0776846 143.9901985  30.4348538
  36.4252154 144.8074222  40.7050517  35.5169031 144.7389631  40.4109278
  36.3739749 145.2846167  41.5332342  38.2913800 143.0090661  42.4828391
  37.6488180 143.3023194  41.8368185  37.7868728 142.8943581  43.2881587
  35.9453964 146.7553834  33.1714250  36.8571820 146.9881221  32.9961947
  35.4363611 147.3390878  32.6089329  30.5825801 146.1151069  44.1809099
  31.4286997 146.5390482  44.3243748  30.5224439 145.4584693  44.8747663
  33.7325247 143.7755437  45.8390273  33.4886179 144.5297497  45.3024549
  34.0085177 144.1540785  46.6737520  33.2889938 142.9311870  41.4204111
  32.4274417 143.2293124  41.7120848  33.3152373 143.1482269  40.4885143
  44.8915530 149.5404753  39.0374868  44.1379239 148.9712151  38.8818872
  45.0263072 149.5067418  39.9845502  26.7681498 140.4909735  51.3743942
  26.3748444 139.9375934  52.0491586  27.5847638 140.8020314  51.7650460
  29.6849459 141.9067614  48.9664199  30.4259172 142.5074768  48.8868661
  29.9167382 141.1645252  48.4082241  33.6306622 137.9348717  43.2428480
  33.2870891 138.8250359  43.1667591  33.9985585 137.7450375  42.3798065
  31.1804016 142.7707029  36.8086154  30.3245612 142.3813880  36.6291793
  31.5930968 142.8498990  35.9485939  32.7103162 140.3053373  41.2077714
  32.2067958 140.2683508  40.3945519  33.0033769 141.2146115  41.2674370
  28.9546048 140.3892102  40.2143895  29.8199045 140.1934911  39.8549785
  29.0223557 140.1602454  41.1413252  33.3843208 145.7984421  33.5760697
  33.0793343 146.1130570  34.4270840  34.3373650 145.8765840  33.6188030
  26.5608367 142.6194310  37.5860262  27.1352119 142.3969492  36.8533455
  27.1479350 142.6883005  38.3388863  28.8631035 139.4935559  36.3135332
  28.2095447 139.1784576  35.6891946  28.8211509 138.8711300  37.0395154
  32.0968775 145.9817493  40.6382979  31.1791337 146.2032440  40.4804667
  32.5128919 146.0563803  39.7794687  35.3282660 144.4166025  37.7504449
  34.5905417 143.9043411  38.0814691  35.5809434 143.9766406  36.9387726
  35.4294288 137.1942277  38.3446218  35.7353164 136.3339640  38.0572133
  36.1546892 137.7859897  38.1445212  33.2381939 146.5714954  45.4427682
  33.5931327 146.7986427  46.3022148  33.8854070 146.9033331  44.8204937
  27.1321802 143.6791485  42.2274023  27.7721181 143.5380244  41.5296986
  26.2999333 143.3925998  41.8512625  31.5100916 141.6891508  46.1911495
  30.8628831 142.3881458  46.0975972  32.2801931 142.1227652  46.5587743
  27.3514076 145.0357347  46.2427591  26.8151433 144.5848086  46.8949187
  26.7630784 145.1703256  45.4998055  33.2576911 142.6566918  38.6950780
  33.7545610 141.9036881  38.3751850  32.4863892 142.6931235  38.1293989
  41.1106668 148.3607284  40.3369072  41.0996545 149.2431999  39.9663005
  40.2424048 148.0078835  40.1423609  29.8411880 144.7984301  38.4222465
  29.4709667 144.2455342  39.1103370  30.3370972 144.1942435  37.8697465
  37.7279243 147.2555925  36.8039238  38.1939695 148.0883917  36.7299540
  38.1786743 146.7900907  37.5084496  35.6995906 139.6236512  40.8430139
  34.7858985 139.8540739  41.0112346  36.1289007 139.7074956  41.6944171
  35.4702364 147.8126404  43.3430033  34.8173814 148.0602311  42.6882486
  35.8482744 146.9990542  43.0092510  25.2377213 142.2088292  44.6675571
  25.3018540 143.0703123  44.2552968  25.1744334 141.5962294  43.9347929
  24.7129486 144.2811425  48.3148605  25.3401525 143.8988502  48.9286129
  23.8557405 144.0625627  48.6804297  27.8215589 141.4998277  46.5035160
  28.3449991 141.7460574  47.2661469  27.6027922 142.3318312  46.0838298
  23.2182870 143.7701952  34.3706285  22.8895576 142.8899330  34.1881391
  23.5722241 143.7149620  35.2582674  26.3324693 144.0574921  34.7381763
  26.6720766 144.5860843  34.0160371  26.7796814 144.3955327  35.5140329
  29.0268134 142.4411972  44.1884831  28.6864954 141.6419785  44.5905511
  28.3207140 142.7413683  43.6161664  29.6784606 139.5261284  42.6412154
  30.5010675 139.0521763  42.5191044  29.9222669 140.3051768  43.1410840
  28.3192840 142.5549543  32.9375055  29.0401203 142.9330796  32.4338772
  27.6958145 143.2738420  33.0410033  32.4623963 143.2594692  33.8733388
  32.6787578 144.1419330  33.5722216  31.9818030 142.8680905  33.1439030
  29.0619568 143.2082953  40.4985022  29.0481136 142.3124046  40.1617320
  29.7791996 143.2153617  41.1323308  30.9145698 143.6420293  42.5438149
  30.6563476 144.5637364  42.5422480  30.3830739 143.2450728  43.2338613
  28.4656464 142.0897333  35.7672592  28.5872375 141.1613980  35.9663480
  28.1758506 142.1036019  34.8550907  31.3347654 139.7752244  38.9039312
  31.3569351 139.8391577  37.9491291  31.7515713 138.9356752  39.0979818
  41.7131278 149.5107503  36.9418534  42.1562424 148.7614829  36.5437658
  40.8357789 149.5017640  36.5592266  27.9497543 143.6029331  49.9762525
  27.9985699 144.4791454  49.5940294  28.4920057 143.0606724  49.4034168
  35.8454026 146.9793848  47.8855697  36.7463889 146.8400313  47.5939695
  35.9202001 147.1448303  48.8253874  30.1796831 144.3560703  46.7308883
  29.3100141 144.6494269  46.4591472  30.4156312 144.9401148  47.4516147
  38.3055649 148.5392477  45.2818470  38.7809770 148.7320123  44.4737321
  37.3821214 148.5951662  45.0361853  32.8835865 140.5740320  44.2474304
  33.4017809 141.3101347  43.9220792  32.5290998 140.8804313  45.0821063
  33.1348459 136.9940603  39.7675200  33.4150213 136.3263792  40.3935627
  33.9199066 137.1869698  39.2549864  37.0057318 145.4158237  43.5146775
  37.9574741 145.5156334  43.5358999  36.8360768 144.6236505  44.0244860
  35.0271697 142.5013820  43.7006176  34.4321629 142.7818833  43.0052665
  34.7421394 142.9907721  44.4722917  39.4845396 148.6364356  42.6289075
  39.4521716 147.6980357  42.8148759  40.0946019 148.7148393  41.8954900
  39.6339884 145.4275400  42.6747358  39.1178933 144.6433856  42.4877287
  40.5179833 145.0994116  42.8393878  37.2950611 139.1716415  38.6343171
  37.0975432 138.8631504  39.5186503  37.9050317 139.8978054  38.7641101
  45.3021945 149.6980363  41.7695112  46.0325334 149.4365651  42.3302815
  44.6928891 148.9609085  41.8097180  43.3837243 147.8388226  42.3669563
  42.6570406 147.7044191  41.7586055  42.9684529 148.1465054  43.1726281
  31.1233709 139.9747275  34.7615406  30.3134438 139.6294360  35.1370652
  31.8118126 139.6654819  35.3503017  33.0524258 139.0525322  36.3839702
  33.6055296 139.4720776  37.0429725  33.2894344 138.1261070  36.4262658
  29.0757357 145.0412396  52.1642466  28.9754084 145.9906753  52.0954557
  28.8578899 144.7130635  51.2918536  28.2770428 142.2897321  28.7483144
  29.1389592 142.6152219  29.0078961  28.4620772 141.5028817  28.2356209
  36.4303065 141.1625847  35.8918367  35.8501734 141.8210651  35.5096419
  36.1638997 140.3403192  35.4805784  34.8806631 140.5630905  38.0939687
  35.3806409 140.6747440  37.2854006  35.5242239 140.2591958  38.7340495
  35.2127943 143.3225938  34.9474715  34.3253798 143.6075588  34.7294910
  35.6281932 143.1619701  34.1001992  38.5642479 143.3472459  38.6629054
  39.3402869 143.8368911  38.9353671  37.8390613 143.7730513  39.1200924
  41.0015038 144.0600078  39.7202995  41.5959528 143.8195814  39.0096303
  41.0741621 143.3407209  40.3476531  38.9973772 144.6270206  35.9875124
  38.7410707 144.2266841  36.8183332  38.3726640 145.3413999  35.8625264
  43.3086110 147.3666279  38.4946416  42.7485668 147.4359468  39.2677978
  42.7029614 147.1907263  37.7745912  29.2299871 139.5293364  32.0362853
  29.2178541 140.4735204  32.1931123  30.1223293 139.3463509  31.7422314
  33.0451991 136.1236141  36.2908789  32.2784387 135.5694627  36.4365472
  33.4562696 136.1958009  37.1522941  25.0493752 142.4120936  50.3813971
  25.9125213 142.0557741  50.5917295  24.4759162 142.0734831  51.0689375
   1.5340514  65.2299205  25.7620174   0.7804222  64.6606603  25.6064179
   1.6688055  65.1961870  26.7090809   1.9446929  65.3874815  28.4940418
   2.6750317  65.1260103  29.0548122   1.3353874  64.6503537  28.5342486
   1.5367112  79.7317245  27.9121678   2.1745522  79.6123992  27.2085018
   1.4187955  80.6798089  27.9709630   1.0908381  77.4568698  24.9874886
   1.8771470  77.0388122  24.6365303   1.3547085  78.3614791  25.1556535
   1.2618458  82.8941549  19.6863543   0.6264291  82.9676175  20.3984448
   0.9315864  83.4835148  19.0082622   6.4916808  77.3943932  25.8907865
   7.2241980  76.8243148  26.1245694   5.7356163  77.0065532  26.3314370
   4.0142228  71.1065506  30.3502473   3.6825553  71.9760917  30.1263688
   3.4187841  70.7901790  31.0296504   3.9070891  75.8260592  27.4295823
   2.9987769  75.7576000  27.1354584   3.8558487  76.3032537  28.2577649
   5.7732538  74.0277030  29.2073697   5.1306918  74.3209564  28.5613492
   5.2687466  73.9129951  30.0126894   3.4272701  77.7740204  19.8959557
   4.3390557  78.0067590  19.7207254   2.9182348  78.3577248  19.3334635
   1.7113469  82.1964831  33.5320849   2.1196825  81.7547242  32.7875482
   0.9890731  81.6217459  33.7855042   2.0342284  82.7566022  27.2873138
   1.4051146  82.9211736  26.5849206   1.6467946  83.1707632  28.0584102
   5.9131516  83.6920460  24.6417502   5.2282554  84.0719361  24.0914535
   5.9975365  84.3015786  25.3749450   1.2143984  74.7941806  32.5635580
   0.9704916  75.5483867  32.0269855   1.4903915  75.1727154  33.3982827
   3.1682447  81.3380419  31.2412845   3.3799342  81.9812179  30.5647226
   3.1212195  80.5042735  30.7734775   4.2828275  84.2152374  29.4135203
   5.1045719  83.8132562  29.1317884   4.2790678  84.1120608  30.3651318
  12.3734268  80.5591123  25.7620174  11.6197977  79.9898521  25.6064179
  12.5081809  80.5253787  26.7090809   1.4882611  86.3330892  33.5956637
   1.4701086  87.1539773  33.1036906   2.4102531  86.2084967  33.8206778
   1.1125360  68.9535087  29.9673787   0.7689629  69.8436729  29.8912898
   1.4804322  68.7636745  29.1043372   1.0775643  78.9443698  18.4746222
   0.5622266  79.7148303  18.7134609   0.8052951  78.2708834  19.0979284
   6.0509917  81.6976053  20.4099396   5.2739359  81.3587212  19.9654558
   6.7301398  81.7028676  19.7354361   0.8661946  76.8170790  20.3006003
   0.5612081  77.1316939  21.1516146   1.8192388  76.8952210  20.3433336
   4.2901224  81.1710034  27.0666004   3.6324898  81.8609295  27.1546132
   5.0941623  81.5606466  27.4099990   3.1006682  79.5254407  25.1169945
   3.6138564  80.1584398  25.6191655   3.7507906  78.9255602  24.7513305
   3.8668479  84.5060408  23.2449088   3.4130806  83.6651318  23.3014278
   3.2362445  85.1421806  23.5823868   2.8101398  75.4352394  24.4749755
   2.0724155  74.9229780  24.8059998   3.0628172  74.9952776  23.6633032
   2.3101418  86.3436905  24.1798906   2.6024392  86.9041962  23.4611272
   2.8200038  86.6365466  24.9352065   2.9113025  68.2128646  25.0691525
   3.2171902  67.3526010  24.7817440   3.6365630  68.8046266  24.8690519
   0.7200677  77.5901323  32.1672988   1.0750065  77.8172797  33.0267454
   1.3672808  77.9219700  31.5450244   6.4498414  80.7119759  22.8722317
   6.3116312  80.9021355  21.9443507   6.0934633  81.4739142  23.3290369
   6.4767793  82.7796286  27.8833589   6.9104300  82.6871575  28.7316643
   7.1899374  82.7553787  27.2453605   7.3383343  82.8219987  30.4166474
   7.5319233  83.7265797  30.6625749   7.2383961  82.3627406  31.2505059
   2.3998452  82.9726730  35.9907355   2.2483958  82.7437281  35.0737439
   2.3903131  83.9297331  36.0038700   2.4536527  81.2946944  16.4078057
   1.8365697  80.5693772  16.3111109   1.9853015  82.0556304  16.0645131
   4.1090658  86.0045852  34.0683837   4.0503204  85.3205072  33.4014420
   4.5110177  86.7464842  33.6164463   4.1108066  83.9685436  32.2997817
   3.2234844  83.6311358  32.4224215   4.6806617  83.2368467  32.5366582
   8.5925406  79.3793654  27.0614378   8.5815282  80.2618369  26.6908311
   7.7242785  79.0265204  26.8668915   1.8225429  82.4324975  22.9934510
   0.8881708  82.5526438  22.8239214   2.0002098  81.5297442  22.7294520
   5.2097981  78.2742295  23.5284544   5.6758433  79.1070286  23.4544847
   5.6605481  77.8087276  24.2329803   3.2774212  84.6186116  20.5270696
   3.5534056  84.5042710  21.4364570   2.4078711  84.2203601  20.4882869
   3.1814643  70.6422882  27.5675446   2.2677723  70.8727108  27.7357652
   3.6107745  70.7261326  28.4189478   2.9521102  78.8312774  30.0675340
   2.2992552  79.0788681  29.4127792   3.3301482  78.0176912  29.7337817
   2.5942332  85.7060770  36.6447647   3.1382236  86.3190728  36.1502602
   2.0129177  86.2640348  37.1614660   0.8799845  88.8281488  27.7762675
   0.7550985  88.0271227  27.2673620   1.5378936  89.3227681  27.2876645
   2.9434753  86.6290508  29.4042225   1.9965089  86.5095859  29.3320552
   3.2917527  85.7413006  29.4868486   3.5515309  87.2471783  26.6911450
   4.4761856  87.0414644  26.5535901   3.3830612  86.9988184  27.6000791
   3.3410625  87.7657450  22.0473541   3.5147502  87.2003873  21.2947394
   3.8339516  88.5658345  21.8653031   9.1950016  80.5293873  23.6663841
   9.6381162  79.7801198  23.2682964   8.3176526  80.5204009  23.2837573
   4.3285797  87.0824214  19.1470440   5.0236702  87.7030907  19.3657754
   4.6708947  86.2319566  19.4222818   6.2277220  84.5323920  20.6757770
   6.7528545  84.8711193  19.9507090   6.1399573  83.5970935  20.4920905
   5.9171127  85.1656824  35.9808968   5.1266670  85.1480962  35.4413468
   5.6804481  85.7045117  36.7358005   6.0369002  82.0149290  33.2941697
   6.0867007  81.8499297  34.2357220   5.9282925  81.1476549  32.9039578
   3.3272764  77.9980218  34.6101004   4.2282627  77.8586683  34.3185001
   3.4020738  78.1634673  35.5499181   7.5387198  84.4346231  33.5383718
   7.2472007  84.7976212  34.3747179   6.9259330  83.7213240  33.3597051
   8.7382881  81.9999111  26.0586289   9.5729772  82.4388915  26.2223849
   8.8742010  81.5237764  25.2394534   5.7874387  79.5578846  32.0063776
   6.2628508  79.7506492  31.1982628   4.8639952  79.6138032  31.7607160
   0.6167197  68.0126972  26.4920507   0.8968951  67.3450161  27.1180933
   1.4017804  68.2056068  25.9795171   4.4876056  76.4344606  30.2392082
   5.4393479  76.5342704  30.2604306   4.3179506  75.6422875  30.7490166
   2.5090435  73.5200189  30.4251483   1.9140367  73.8005202  29.7297972
   2.2240132  74.0094090  31.1968224   4.2685942  86.7888987  16.1458063
   4.1899574  86.4548850  17.0393821   5.0895609  87.2810754  16.1449535
   6.9664133  79.6550726  29.3534382   6.9340454  78.7166727  29.5394065
   7.5764757  79.7334763  28.6200207   7.1158622  76.4461769  29.3992665
   6.5997671  75.6620226  29.2122594   7.9998570  76.1180486  29.5639184
   4.7769349  70.1902785  25.3588478   4.5794170  69.8817873  26.2431809
   5.3869054  70.9164424  25.4886407  12.7840683  80.7166733  28.4940418
  13.5144072  80.4552021  29.0548122  12.1747629  79.9795455  28.5342486
  10.8655980  78.8574595  29.0914870  10.1389144  78.7230560  28.4831361
  10.4503267  79.1651424  29.8971588   0.5342995  70.0711692  23.1085009
   1.0874034  70.4907145  23.7675032   0.7713082  69.1447440  23.1507965
   3.9121803  72.1812217  22.6163673   3.3320472  72.8397021  22.2341726
   3.6457735  71.3589562  22.2051091   2.3625369  71.5817275  24.8184993
   2.8625147  71.6933809  24.0099312   3.0060977  71.2778327  25.4585802
   2.6946681  74.3412307  21.6720021   1.8072536  74.6261958  21.4540216
   3.1100670  74.1806071  20.8247298   6.0461217  74.3658828  25.3874361
   6.8221607  74.8555281  25.6598977   5.3209351  74.7916882  25.8446230
   8.4833775  75.0786448  26.4448301   9.0778266  74.8382183  25.7341609
   8.5560359  74.3593578  27.0721838   2.6687704  79.8566843  21.8870312
   2.6122906  80.3135395  21.0477944   3.2216047  79.0957528  21.7093154
   6.4792510  75.6456575  22.7120431   6.2229444  75.2453211  23.5428639
   5.8545378  76.3600369  22.5870570  10.7904848  78.3852648  25.2191722
  10.2304406  78.4545838  25.9923285  10.1848351  78.2093633  24.4991219
   3.7476591  84.5439511  17.8166501   4.5822195  84.1120710  17.6343976
   3.5860934  84.3721525  18.7443396   3.4022484  81.0471624  19.1822841
   3.3471287  80.8815896  18.2411285   2.7768539  81.7547657  19.3385030
  12.3760867  95.0609162  27.9121678  13.0139276  94.9415910  27.2085018
  12.2581709  96.0090006  27.9709630   9.1850573  95.0136590  27.8483203
   8.8469084  94.8977655  26.9603738  10.0540341  94.6127755  27.8284209
   5.0437388  96.8672067  23.8380094   4.4802254  96.7762004  23.0696382
   4.9289784  96.0471971  24.3182586   9.6670356  96.1671442  33.8069408
   9.6558997  95.7724240  32.9349912   9.8290995  95.4337515  34.4003180
   2.5901820  98.3623258  26.6764314   3.3823112  98.0214083  26.2610614
   2.8298471  98.4718233  27.5966468   6.3877617  98.9508554  32.7548592
   6.0967483  99.8554185  32.6395259   7.0234601  98.9925082  33.4692662
   7.3133824  96.3285402  29.3449952   7.9097396  96.1041425  28.6306915
   7.3708795  95.5870148  29.9475400  11.9302135  92.7860616  24.9874886
  12.7165224  92.3680039  24.6365303  12.1940839  93.6906708  25.1556535
  12.1012212  98.2233466  19.6863543  11.4658045  98.2968093  20.3984448
  11.7709619  98.8127065  19.0082622  17.3310562  92.7235849  25.8907865
  18.0635734  92.1535066  26.1245694  16.5749918  92.3357450  26.3314370
   8.9486682  95.1463091  23.0871207   8.5844889  94.6193712  23.7984129
   9.8053798  94.7561560  22.9137693  14.8535982  86.4357423  30.3502473
  14.5219307  87.3052834  30.1263688  14.2581596  86.1193707  31.0296504
   8.5892169  90.1752991  18.0832556   8.7566571  91.0433227  18.4503027
   8.3989338  90.3380272  17.1593845  11.3467502  98.6369969  29.7498386
  11.0468225  99.5395008  29.6414193  11.0018562  98.3702153  30.6019539
   4.7979983  95.0883766  25.7835090   3.8730480  94.9559980  25.9912782
   5.0464397  95.8677986  26.2805033  14.7464646  91.1552510  27.4295823
  13.8381523  91.0867918  27.1354584  14.6952242  91.6324455  28.2577649
   8.5681390  92.6310648  19.0679223   8.4481015  93.0767699  19.9064703
   7.8733978  92.9795966  18.5092761   2.1588795  94.7317040  26.6178880
   2.2881176  94.9851519  27.5318291   1.4786246  95.3244748  26.2983535
   8.8205512  92.5742155  35.3730721   8.0438846  93.1336075  35.3633585
   9.4596075  93.0598938  35.8945591  16.6126292  89.3568948  29.2073697
  15.9700672  89.6501481  28.5613492  16.1081221  89.2421868  30.0126894
  14.2666456  93.1032121  19.8959557  15.1784312  93.3359508  19.7207254
  13.7576103  93.6869165  19.3334635   7.0751884  95.3827609  34.9348688
   7.8166568  95.9212653  34.6583511   6.3688869  96.0093897  35.0920239
  12.5507224  97.5256749  33.5320849  12.9590580  97.0839160  32.7875482
  11.8284485  96.9509377  33.7855042   8.9038294  92.4629356  30.9054406
   9.7499489  92.8868769  31.0489055   8.8436931  91.8062980  31.5992969
  12.8736038  98.0857940  27.2873138  12.2444901  98.2503654  26.5849206
  12.4861700  98.4999549  28.0584102  16.7525270  99.0212378  24.6417502
  16.0676308  99.4011279  24.0914535  16.8369119  99.6307704  25.3749450
  12.0537739  90.1233724  32.5635580  11.8098671  90.8775785  32.0269855
  12.3297669  90.5019072  33.3982827  14.0076202  96.6672337  31.2412845
  14.2193097  97.3104096  30.5647226  13.9605950  95.8334653  30.7734775
  11.6102431  89.2790157  28.1449417  10.7486910  89.5771411  28.4366155
  11.6364865  89.4960556  27.2130450   8.4264000  97.8232348  24.5523223
   8.8902346  98.1020051  23.7627846   8.1620798  96.9215792  24.3696314
   5.3188081  97.3703829  27.4902986   5.8889438  97.7991098  26.8520471
   5.9096193  97.0886414  28.1887172   7.3632886  93.9455500  21.3612788
   8.0656929  94.3976544  21.8286715   7.0313515  93.3039319  21.9892681
   5.8113248  92.5367257  35.7363998   5.1811908  93.2183538  35.9699394
   5.7049336  92.4250338  34.7917136  15.1222030  99.5444292  29.4135203
  15.9439473  99.1424479  29.1317884  15.1184432  99.4412526  30.3651318
   3.0572965  92.5683632  23.6213399   2.2604129  92.6802326  24.1396894
   2.8298558  92.9070284  22.7554289   8.8878633  99.0928335  31.5695913
   8.9523066  99.5548742  32.4054085   8.1789557  98.4625700  31.6978223
  23.2128023  95.8883040  25.7620174  22.4591731  95.3190439  25.6064179
  23.3475564  95.8545705  26.7090809   8.6026651 100.7596443  21.4374893
   8.4672326 101.6047978  21.8659741   9.1436463 100.9615720  20.6740827
   5.0893990  86.8388023  38.0989249   4.6960936  86.2854221  38.7736893
   5.9060131  87.1498601  38.4895766   8.0061951  88.2545902  35.6909505
   8.7471665  88.8553055  35.6113968   8.2379874  87.5123539  35.1327548
   3.1503289  93.4402269  33.9687735   3.0356805  92.5387526  34.2694834
   2.2947807  93.6865966  33.6172551  10.2295127 101.3820009  35.5675236
   9.7858981 100.5956388  35.2496140  10.8912341 101.5699160  34.9019126
   4.9882248 102.9115811  30.0935914   5.5389673 102.7832874  29.3212908
   4.1493724 103.2110700  29.7430807  12.3276365 101.6622809  33.5956637
  12.3094841 102.4831690  33.1036906  13.2496285 101.5376884  33.8206778
   8.7849419  99.1766939  34.4380145   9.3177756  98.4155227  34.2079453
   8.2563500  98.8840590  35.1804300  11.9519114  84.2827005  29.9673787
  11.6083384  85.1728646  29.8912898  12.3198077  84.0928662  29.1043372
  11.9169397  94.2735616  18.4746222  11.4016020  95.0440220  18.7134609
  11.6446705  93.6000752  19.0979284   9.5016508  89.1185317  23.5331460
   8.6458104  88.7292167  23.3537099   9.9143460  89.1977277  22.6731246
  11.0315655  86.6531660  27.9323020  10.5280450  86.6161795  27.1190825
  11.3246262  87.5624403  27.9919677   7.2758541  86.7370390  26.9389202
   8.1411537  86.5413198  26.5795091   7.3436049  86.5080741  27.8658559
  16.8903671  97.0267970  20.4099396  16.1133114  96.6879130  19.9654558
  17.5695152  97.0320594  19.7354361  11.7055700  92.1462708  20.3006003
  11.4005836  92.4608857  21.1516146  12.6586142  92.2244128  20.3433336
  10.1502132  98.3052931  21.9498957   9.6223494  97.5705691  21.6372195
   9.6489635  99.0827607  21.7038926  15.1294978  96.5001952  27.0666004
  14.4718652  97.1901213  27.1546132  15.9335377  96.8898384  27.4099990
   4.8820860  88.9672597  24.3105569   5.4564612  88.7447779  23.5778762
   5.4691842  89.0361292  25.0634170  13.9400437  94.8546324  25.1169945
  14.4532319  95.4876316  25.6191655  14.5901661  94.2547520  24.7513305
   7.1843527  85.8413846  23.0380638   6.5307940  85.5262864  22.4137253
   7.1424002  85.2189587  23.7640461  10.4181268  92.3295780  27.3628286
   9.5003829  92.5510727  27.2049974  10.8341411  92.4042090  26.5039993
  11.2016315  93.7287196  22.4930966  11.9488134  94.2408593  22.1838088
  11.4707905  93.4071248  23.3535360   9.4742966  96.2245736  19.4757920
   8.5654185  95.9404769  19.5730390   9.5038049  96.6444815  18.6161227
  14.7062233  99.8352326  23.2449088  14.2524560  98.9943236  23.3014278
  14.0756200 100.4713724  23.5823868  13.6495153  90.7644312  24.4749755
  12.9117909  90.2521698  24.8059998  13.9021926  90.3244693  23.6633032
  13.1495172 101.6728822  24.1798906  13.4418147 102.2333880  23.4611272
  13.6593793 101.9657383  24.9352065  13.7506780  83.5420564  25.0691525
  14.0565657  82.6817927  24.7817440  14.4759385  84.1338184  24.8690519
   8.0227860  93.8374357  25.5767716   8.0776469  92.8848193  25.5010192
   7.2119062  93.9933796  26.0609014   5.9620220  92.4551417  23.3358095
   5.1488085  92.7545587  23.7423287   6.4579214  92.0607105  24.0532577
   8.1128798 102.4509174  25.2692359   8.0704976 102.6770020  24.3400891
   9.0291496 102.2172548  25.4178160  11.5594431  92.9193241  32.1672988
  11.9143819  93.1464714  33.0267454  12.2066563  93.2511618  31.5450244
  17.2892168  96.0411677  22.8722317  17.1510067  96.2313273  21.9443507
  16.9328387  96.8031060  23.3290369   5.4534294  90.0269772  28.9519330
   6.0933674  89.8858531  28.2542293   4.6211825  89.7404286  28.5757932
  17.3161548  98.1088204  27.8833589  17.7498055  98.0163493  28.7316643
  18.0293129  98.0845704  27.2453605   6.2294598  99.3272203  25.0654322
   7.0235197  98.8322523  24.8636897   5.5186291  98.7990066  24.7022028
  11.0489443 101.7090298  29.4166690  11.1026465 102.2781234  30.1844406
  10.1804224 101.8792183  29.0520727   2.4562911  89.9970097  23.7292316
   2.7169728  90.9115430  23.6201477   3.2780083  89.5294540  23.8788929
   3.9287836  91.4107854  30.8991141   4.6010890  91.2025216  30.2503790
   3.1017623  91.2129940  30.4596373  18.1777097  98.1511905  30.4166474
  18.3712987  99.0557715  30.6625749  18.0777716  97.6919324  31.2505059
   9.8313408  88.0369795  32.9156802   9.1841323  88.7359745  32.8221278
  10.6014424  88.4705939  33.2833050  13.2392206  98.3018647  35.9907355
  13.0877712  98.0729199  35.0737439  13.2296886  99.2589249  36.0038700
  10.0077542  95.8750560  30.9753621  10.9369602  96.0261720  30.8022589
   9.5868573  95.9634581  30.1202268   8.8065874  99.9001225  28.7452159
   8.6676960  99.5320009  29.6178097   8.0180471 100.4148864  28.5736117
  10.3571089  99.2782827  26.1340997  10.0220922  99.2383597  27.0298647
   9.8575035  98.6127543  25.6611407   4.3315333  94.6850457  31.6593578
   4.1935131  93.9530696  32.2605117   5.2420257  94.5959357  31.3777766
  13.2930281  96.6238862  16.4078057  12.6759452  95.8985690  16.3111109
  12.8246770  97.3848222  16.0645131   6.9597634  94.3970417  31.1477258
   7.6697253  93.7563609  31.1063876   6.9166942  94.6483311  32.0703438
  14.9484413 101.3337770  34.0683837  14.8896959 100.6496990  33.4014420
  15.3503931 102.0756760  33.6164463   5.6726568  91.3835634  32.9672897
   5.1363925  90.9326373  33.6194493   5.0843276  91.5181543  32.2243361
  14.9501820  99.2977354  32.2997817  14.0628599  98.9603276  32.4224215
  15.5200371  98.5660385  32.5366582   1.4065689  90.5191642  30.0525892
   1.3223878  89.9117312  29.3176302   0.5848396  91.0100661  30.0535388
   8.4802973 103.9578806  29.2659060   8.4073145 104.7633778  29.7778364
   8.0380367 104.1570772  28.4407081  11.5789403  89.0045206  25.4196087
  12.0758103  88.2515168  25.0997157  10.8076385  89.0409522  24.8539296
  19.4319161  94.7085571  27.0614378  19.4209037  95.5910287  26.6908311
  18.5636540  94.3557122  26.8668915  10.9401657 103.8565640  31.4217218
  11.6529629 104.4913105  31.3493120  10.4491686 103.9529506  30.6057220
  12.6619184  97.7616893  22.9934510  11.7275463  97.8818355  22.8239214
  12.8395852  96.8589360  22.7294520   8.1624372  91.1462589  25.1467771
   7.7922159  90.5933629  25.8348677   8.6583464  90.5420722  24.5942771
  16.0491735  93.6034212  23.5284544  16.5152187  94.4362204  23.4544847
  16.4999236  93.1379194  24.2329803   5.9913570 101.6060084  32.2422789
   6.6923030 102.2396567  32.3952183   5.5208685 101.9474815  31.4818429
  14.1167966  99.9478034  20.5270696  14.3927810  99.8334628  21.4364570
  13.2472465  99.5495518  20.4882869  14.0208398  85.9714799  27.5675446
  13.1071478  86.2019026  27.7357652  14.4501499  86.0553243  28.4189478
  13.7914856  94.1604691  30.0675340  13.1386307  94.4080599  29.4127792
  14.1695236  93.3468829  29.7337817  10.7522030 104.1964384  24.1703510
  10.9344425 103.3786040  24.6331262  11.5755016 104.4132077  23.7328400
  11.0864196 103.1232569  21.4318558  11.6151962 102.6125024  20.8188720
  11.3492415 102.8075100  22.2964091   9.8402429  94.9024502  36.5541377
   9.1643066  94.8018632  37.2243752  10.6630063  94.7463716  37.0177374
   1.5881289 101.1396439  29.1753892   2.1734725 100.3940127  29.3081796
   1.3906127 101.4500395  30.0590556   8.5825212 106.2091430  30.7898993
   9.1343520 106.3723051  31.5548078   8.9231406 106.7995868  30.1179018
   3.5589706  88.5566579  31.3920877   3.6231032  89.4181410  30.9798275
   3.4956826  87.9440581  30.6593236   3.0341978  90.6289712  35.0393912
   3.6614017  90.2466789  35.6531436   2.1769897  90.4103914  35.4049604
  13.4336087 101.0352687  36.6447647  13.9775991 101.6482645  36.1502602
  12.8522931 101.5932266  37.1614660  11.7193600 104.1573405  27.7762675
  11.5944739 103.3563145  27.2673620  12.3772691 104.6519599  27.2876645
   3.3401768  90.5122138  26.9539815   2.6188354  91.1258105  26.8147288
   4.1295024  91.0479903  26.8756461  13.7828508 101.9582425  29.4042225
  12.8358844 101.8387776  29.3320552  14.1311281 101.0704923  29.4868486
   6.1428081  87.8476564  33.2280467   6.6662483  88.0938861  33.9906776
   5.9240415  88.6796599  32.8083604   1.5395362  90.1180239  21.0951592
   1.2108069  89.2377618  20.9126698   1.8934733  90.0627907  21.9827981
  10.7874941 101.7535142  25.6046577  10.6399904 100.8251849  25.7854147
  11.6128435 101.7755232  25.1203652   4.6537186  90.4053209  21.4627069
   4.9933258  90.9339130  20.7405678   5.1009306  90.7433615  22.2385636
  14.3909063 102.5763700  26.6911450  15.3155611 102.3706562  26.5535901
  14.2224367 102.3280101  27.6000791   7.3480626  88.7890259  30.9130137
   7.0077447  87.9898072  31.3150817   6.6419633  89.0891970  30.3406971
   7.9997098  85.8739572  29.3657460   8.8223168  85.4000050  29.2436351
   8.2435162  86.6530056  29.8656147   6.6405333  88.9027830  19.6620362
   7.3613695  89.2809083  19.1584079   6.0170637  89.6216707  19.7655340
  10.7836456  89.6072979  20.5978694  11.0000070  90.4897617  20.2967523
  10.3030523  89.2159193  19.8684336   5.5235677  92.5658692  27.1749439
   5.3780258  92.8798995  28.0673720   5.0460881  93.1843593  26.6220338
   7.3832060  89.5561240  27.2230329   7.3693629  88.6602334  26.8862626
   8.1004488  89.5631904  27.8568615   9.2358191  89.9898581  29.2683456
   8.9775968  90.9115651  29.2667786   8.7043231  89.5929015  29.9583920
  14.1804379 103.0949368  22.0473541  14.3541257 102.5295790  21.2947394
  14.6733271 103.8950263  21.8653031   6.7868956  88.4375621  22.4917899
   6.9084867  87.5092267  22.6908786   6.4970998  88.4514307  21.5796214
   9.6560146  86.1230531  25.6284619   9.6781843  86.1869864  24.6736598
  10.0728205  85.2835040  25.8225125  20.0343771  95.8585791  23.6663841
  20.4774917  95.1093116  23.2682964  19.1570281  95.8495927  23.2837573
  15.1679552 102.4116132  19.1470440  15.8630456 103.0322825  19.3657754
  15.5102702 101.5611483  19.4222818  17.0670975  99.8615838  20.6757770
  17.5922299 100.2003110  19.9507090  16.9793328  98.9262853  20.4920905
   8.7291024 103.7749911  32.8047647   9.0378150 103.5299058  33.6770347
   9.5266506 103.9796550  32.3166517   8.7511636 105.9287821  25.0353024
   8.3116626 105.4364200  25.7285880   9.5019753 105.3860789  24.7945099
   6.1985508 101.4725830  27.1075325   5.5765517 100.8096535  26.8077553
   6.8690375 101.4986962  26.4248973   6.2710035  89.9507618  36.7007831
   6.3198191  90.8269741  36.3185601   6.8132550  89.4085011  36.1279474
  16.7564881 100.4948741  35.9808968  15.9660425 100.4772880  35.4413468
  16.5198236 101.0337035  36.7358005  16.8762756  97.3441208  33.2941697
  16.9260761  97.1791215  34.2357220  16.7676679  96.4768467  32.9039578
  14.1666518  93.3272136  34.6101004  15.0676381  93.1878601  34.3185001
  14.2414493  93.4926591  35.5499181   8.5009324  90.7038990  33.4554190
   7.6312633  90.9972556  33.1836778   8.7368804  91.2879435  34.1761454
  18.3780953  99.7638149  33.5383718  18.0865761 100.1268130  34.3747179
  17.7653084  99.0505157  33.3597051  19.5776635  97.3291029  26.0586289
  20.4123527  97.7680833  26.2223849  19.7135764  96.8529682  25.2394534
  16.6268141  94.8870764  32.0063776  17.1022263  95.0798410  31.1982628
  15.7033707  94.9429950  31.7607160  11.2048358  86.9218607  30.9719610
  11.7230301  87.6579634  30.6466099  10.8503490  87.2282601  31.8066369
  11.4560952  83.3418890  26.4920507  11.7362706  82.6742079  27.1180933
  12.2411559  83.5347985  25.9795171  15.3269810  91.7636524  30.2392082
  16.2787233  91.8634622  30.2604306  15.1573261  90.9714792  30.7490166
  13.3484190  88.8492107  30.4251483  12.7534122  89.1297120  29.7297972
  13.0633886  89.3386008  31.1968224  15.1079697 102.1180904  16.1458063
  15.0293328 101.7840768  17.0393821  15.9289364 102.6102672  16.1449535
  17.8057888  94.9842644  29.3534382  17.7734208  94.0458644  29.5394065
  18.4158512  95.0626680  28.6200207  17.9552376  91.7753687  29.3992665
  17.4391425  90.9912144  29.2122594  18.8392325  91.4472404  29.5639184
  15.6163103  85.5194703  25.3588478  15.4187924  85.2109791  26.2431809
  16.2262809  86.2456341  25.4886407  23.6234438  96.0458650  28.4940418
  24.3537826  95.7843939  29.0548122  23.0141383  95.3087372  28.5342486
  21.7049735  94.1866513  29.0914870  20.9782898  94.0522478  28.4831361
  21.2897022  94.4943342  29.8971588   9.5279911  97.9056443  36.8562243
  10.4482921  98.0835042  37.0502289   9.4929494  96.9612488  36.7041942
   2.5241984  95.8157477  29.4985024   2.7427994  96.7474585  29.5173058
   2.9367758  95.4565452  30.2839828   9.4446202  86.3225563  21.4860712
   8.6346930  85.9772648  21.8615958  10.1330619  86.0133106  22.0748324
  11.3736750  85.4003609  23.1085009  11.9267789  85.8199063  23.7675032
  11.6106836  84.4739358  23.1507965   7.3969849  91.3890683  38.8887773
   7.2966576  92.3385040  38.8199864   7.1791391  91.0608922  38.0163843
   6.5982921  88.6375608  15.4728450   7.4602085  88.9630506  15.7324267
   6.7833265  87.8507104  14.9601516  14.7515557  87.5104135  22.6163673
  14.1714226  88.1688939  22.2341726  14.4851490  86.6881479  22.2051091
  13.2019123  86.9109192  24.8184993  13.7018902  87.0225727  24.0099312
  13.8454731  86.6070245  25.4585802   7.2601119  94.8187822  37.7052834
   6.7768201  95.6188182  37.9116723   7.3462058  94.8295767  36.7520278
   0.5287079  96.6516202  25.6274654   0.5057767  96.7503889  24.6756537
   0.8387715  97.4981352  25.9491820   3.1874457  98.7092357  29.7421268
   4.1417710  98.6776299  29.6751200   2.9886980  98.2482980  30.5571494
   3.7773839  97.2793473  32.3092066   4.5966728  97.7737551  32.3326903
   4.0510647  96.3625441  32.2809633  13.5340435  89.6704225  21.6720021
  12.6466290  89.9553876  21.4540216  13.9494424  89.5097988  20.8247298
  16.8854971  89.6950746  25.3874361  17.6615361  90.1847198  25.6598977
  16.1603105  90.1208800  25.8446230  19.3227530  90.4078365  26.4448301
  19.9172021  90.1674101  25.7341609  19.3954114  89.6885496  27.0721838
  13.5081459  95.1858761  21.8870312  13.4516660  95.6427312  21.0477944
  14.0609801  94.4249446  21.7093154  17.3186265  90.9748493  22.7120431
  17.0623199  90.5745128  23.5428639  16.6939133  91.6892287  22.5870570
  21.6298603  93.7144566  25.2191722  21.0698161  93.7837755  25.9923285
  21.0242106  93.5385551  24.4991219   4.6993811 105.1481293  26.9709909
   4.5826196 106.0926726  26.8688599   3.8786258 104.8454855  27.3595708
  14.5870346  99.8731429  17.8166501  15.4215950  99.4412627  17.6343976
  14.4254689  99.7013443  18.7443396  14.2416238  96.3763542  19.1822841
  14.1865042  96.2107814  18.2411285  13.6162293  97.0839575  19.3385030
  11.5562145  98.6812454  38.5076404  12.4253305  98.8553106  38.1463038
  11.0768897  99.5006871  38.3852133   7.5512364  85.8771651  18.7608159
   7.5391033  86.8213491  18.9176430   8.4435785  85.6941797  18.4667620
   5.7248326 105.8009555  30.1865837   6.6275572 105.8333165  30.5032332
   5.4985696 104.8710006  30.2012173   7.4801928 104.5540542  26.8475916
   6.5297559 104.5542403  26.7340288   7.7834414 103.8073276  26.3311950
  11.3664483  82.4714428  23.0154096  10.5996879  81.9172915  23.1610778
  11.7775188  82.5436297  23.8768248   3.3706244  88.7599224  37.1059277
   4.2337706  88.4036028  37.3162602   2.7971655  88.4213118  37.7934681
  23.2154621 110.3901080  27.9121678  23.8533031 110.2707827  27.2085018
  23.0975464 111.3381924  27.9709630  20.0244327 110.3428508  27.8483203
  19.6862839 110.2269573  26.9603738  20.8934095 109.9419673  27.8284209
  15.8831143 112.1963984  23.8380094  15.3196008 112.1053921  23.0696382
  15.7683538 111.3763889  24.3182586  20.5064110 111.4963360  33.8069408
  20.4952751 111.1016158  32.9349912  20.6684750 110.7629432  34.4003180
  13.4295575 113.6915176  26.6764314  14.2216867 113.3506001  26.2610614
  13.6692225 113.8010151  27.5966468  17.2271371 114.2800472  32.7548592
  16.9361237 115.1846102  32.6395259  17.8628356 114.3216999  33.4692662
  18.1527578 111.6577320  29.3449952  18.7491151 111.4333343  28.6306915
  18.2102550 110.9162066  29.9475400  22.7695889 108.1152534  24.9874886
  23.5558979 107.6971957  24.6365303  23.0334594 109.0198626  25.1556535
  22.9405967 113.5525384  19.6863543  22.3051800 113.6260011  20.3984448
  22.6103373 114.1418983  19.0082622  28.1704317 108.0527767  25.8907865
  28.9029489 107.4826984  26.1245694  27.4143672 107.6649367  26.3314370
  19.7880436 110.4755009  23.0871207  19.4238644 109.9485629  23.7984129
  20.6447552 110.0853478  22.9137693  25.6929737 101.7649341  30.3502473
  25.3613062 102.6344752  30.1263688  25.0975350 101.4485625  31.0296504
  19.4285923 105.5044908  18.0832556  19.5960326 106.3725145  18.4503027
  19.2383092 105.6672190  17.1593845  22.1861257 113.9661887  29.7498386
  21.8861980 114.8686926  29.6414193  21.8412316 113.6994070  30.6019539
  15.6373738 110.4175684  25.7835090  14.7124234 110.2851898  25.9912782
  15.8858151 111.1969903  26.2805033  25.5858400 106.4844427  27.4295823
  24.6775278 106.4159836  27.1354584  25.5345996 106.9616372  28.2577649
  19.4075144 107.9602566  19.0679223  19.2874769 108.4059616  19.9064703
  18.7127733 108.3087883  18.5092761  12.9982549 110.0608958  26.6178880
  13.1274930 110.3143436  27.5318291  12.3180000 110.6536666  26.2983535
  19.6599266 107.9034073  35.3730721  18.8832600 108.4627993  35.3633585
  20.2989829 108.3890856  35.8945591  27.4520047 104.6860866  29.2073697
  26.8094427 104.9793399  28.5613492  26.9474975 104.5713786  30.0126894
  25.1060210 108.4324039  19.8959557  26.0178066 108.6651426  19.7207254
  24.5969857 109.0161083  19.3334635  17.9145638 110.7119526  34.9348688
  18.6560323 111.2504570  34.6583511  17.2082624 111.3385815  35.0920239
  23.3900978 112.8548667  33.5320849  23.7984334 112.4131077  32.7875482
  22.6678240 112.2801294  33.7855042  19.7432048 107.7921273  30.9054406
  20.5893243 108.2160687  31.0489055  19.6830686 107.1354898  31.5992969
  23.7129793 113.4149857  27.2873138  23.0838655 113.5795571  26.5849206
  23.3255455 113.8291467  28.0584102  27.5919025 114.3504295  24.6417502
  26.9070063 114.7303197  24.0914535  27.6762874 114.9599622  25.3749450
  22.8931493 105.4525642  32.5635580  22.6492425 106.2067702  32.0269855
  23.1691424 105.8310989  33.3982827  24.8469956 111.9964254  31.2412845
  25.0586851 112.6396014  30.5647226  24.7999704 111.1626571  30.7734775
  22.4496185 104.6082075  28.1449417  21.5880664 104.9063328  28.4366155
  22.4758620 104.8252474  27.2130450  19.2657755 113.1524265  24.5523223
  19.7296100 113.4311968  23.7627846  19.0014553 112.2507710  24.3696314
  16.1581836 112.6995747  27.4902986  16.7283193 113.1283015  26.8520471
  16.7489947 112.4178332  28.1887172  18.2026641 109.2747418  21.3612788
  18.9050684 109.7268461  21.8286715  17.8707269 108.6331237  21.9892681
  16.6507002 107.8659174  35.7363998  16.0205663 108.5475455  35.9699394
  16.5443090 107.7542256  34.7917136  11.9451975 107.5330970  26.6629922
  11.1551029 107.7888499  26.1870032  12.4363222 108.3479308  26.7681962
  25.9615784 114.8736210  29.4135203  26.7833228 114.4716397  29.1317884
  25.9578187 114.7704444  30.3651318  13.8966720 107.8975550  23.6213399
  13.0997883 108.0094244  24.1396894  13.6692312 108.2362202  22.7554289
  19.7272388 114.4220253  31.5695913  19.7916820 114.8840660  32.4054085
  19.0183311 113.7917618  31.6978223  10.2289678 107.7861461  29.0944913
  10.4797716 108.6708471  29.3602489  10.7649226 107.6066062  28.3220004
  34.0521777 111.2174958  25.7620174  33.2985486 110.6482356  25.6064179
  34.1869318 111.1837623  26.7090809  19.4420405 116.0888360  21.4374893
  19.3066080 116.9339896  21.8659741  19.9830218 116.2907638  20.6740827
  15.9287745 102.1679940  38.0989249  15.5354690 101.6146139  38.7736893
  16.7453885 102.4790519  38.4895766  18.8455706 103.5837819  35.6909505
  19.5865419 104.1844972  35.6113968  19.0773629 102.8415457  35.1327548
  13.9897044 108.7694187  33.9687735  13.8750559 107.8679444  34.2694834
  13.1341562 109.0157883  33.6172551  21.0688882 116.7111927  35.5675236
  20.6252736 115.9248305  35.2496140  21.7306095 116.8991077  34.9019126
  15.8276003 118.2407729  30.0935914  16.3783428 118.1124792  29.3212908
  14.9887479 118.5402618  29.7430807  23.1670120 116.9914727  33.5956637
  23.1488595 117.8123608  33.1036906  24.0890040 116.8668802  33.8206778
  19.6243174 114.5058856  34.4380145  20.1571511 113.7447145  34.2079453
  19.0957255 114.2132508  35.1804300  22.7912869  99.6118922  29.9673787
  22.4477138 100.5020564  29.8912898  23.1591831  99.4220580  29.1043372
  22.7563152 109.6027533  18.4746222  22.2409775 110.3732138  18.7134609
  22.4840460 108.9292670  19.0979284  20.3410263 104.4477234  23.5331460
  19.4851859 104.0584085  23.3537099  20.7537214 104.5269195  22.6731246
  21.8709409 101.9823577  27.9323020  21.3674205 101.9453713  27.1190825
  22.1640016 102.8916320  27.9919677  18.1152295 102.0662307  26.9389202
  18.9805292 101.8705116  26.5795091  18.1829804 101.8372659  27.8658559
  27.7297426 112.3559888  20.4099396  26.9526868 112.0171048  19.9654558
  28.4088907 112.3612511  19.7354361  22.5449455 107.4754626  20.3006003
  22.2399590 107.7900775  21.1516146  23.4979897 107.5536045  20.3433336
  20.9895887 113.6344849  21.9498957  20.4617248 112.8997608  21.6372195
  20.4883389 114.4119525  21.7038926  25.9688733 111.8293869  27.0666004
  25.3112407 112.5193131  27.1546132  26.7729132 112.2190301  27.4099990
  15.7214614 104.2964515  24.3105569  16.2958366 104.0739697  23.5778762
  16.3085597 104.3653210  25.0634170  24.7794191 110.1838242  25.1169945
  25.2926073 110.8168234  25.6191655  25.4295415 109.5839438  24.7513305
  18.0237282 101.1705764  23.0380638  17.3701694 100.8554781  22.4137253
  17.9817756 100.5481504  23.7640461  21.2575022 107.6587698  27.3628286
  20.3397584 107.8802645  27.2049974  21.6735166 107.7334008  26.5039993
  22.0410070 109.0579113  22.4930966  22.7881889 109.5700510  22.1838088
  22.3101660 108.7363166  23.3535360  20.3136720 111.5537654  19.4757920
  19.4047939 111.2696687  19.5730390  20.3431804 111.9736733  18.6161227
  25.5455988 115.1644243  23.2449088  25.0918315 114.3235153  23.3014278
  24.9149954 115.8005642  23.5823868  24.4888907 106.0936229  24.4749755
  23.7511664 105.5813616  24.8059998  24.7415681 105.6536611  23.6633032
  23.9888927 117.0020740  24.1798906  24.2811901 117.5625797  23.4611272
  24.4987547 117.2949301  24.9352065  24.5900534  98.8712481  25.0691525
  24.8959411  98.0109845  24.7817440  25.3153139  99.4630102  24.8690519
  18.8621614 109.1666275  25.5767716  18.9170224 108.2140111  25.5010192
  18.0512816 109.3225714  26.0609014  16.8013974 107.7843334  23.3358095
  15.9881840 108.0837505  23.7423287  17.2972968 107.3899023  24.0532577
  18.9522552 117.7801091  25.2692359  18.9098731 118.0061938  24.3400891
  19.8685251 117.5464466  25.4178160  22.3988186 108.2485159  32.1672988
  22.7537574 108.4756632  33.0267454  23.0460317 108.5803536  31.5450244
  28.1285923 111.3703595  22.8722317  27.9903821 111.5605191  21.9443507
  27.7722142 112.1322977  23.3290369  16.2928049 105.3561690  28.9519330
  16.9327428 105.2150449  28.2542293  15.4605579 105.0696203  28.5757932
  28.1555302 113.4380122  27.8833589  28.5891809 113.3455411  28.7316643
  28.8686883 113.4137622  27.2453605  17.0688353 114.6564120  25.0654322
  17.8628951 114.1614440  24.8636897  16.3580045 114.1281983  24.7022028
  21.8883197 117.0382216  29.4166690  21.9420220 117.6073152  30.1844406
  21.0197979 117.2084101  29.0520727  13.2956665 105.3262015  23.7292316
  13.5563483 106.2407348  23.6201477  14.1173838 104.8586457  23.8788929
  14.7681591 106.7399772  30.8991141  15.4404644 106.5317134  30.2503790
  13.9411377 106.5421858  30.4596373  29.0170852 113.4803822  30.4166474
  29.2106742 114.3849633  30.6625749  28.9171470 113.0211241  31.2505059
  20.6707163 103.3661713  32.9156802  20.0235078 104.0651663  32.8221278
  21.4408178 103.7997857  33.2833050  24.0785961 113.6310565  35.9907355
  23.9271467 113.4021117  35.0737439  24.0690640 114.5881166  36.0038700
  20.8471297 111.2042478  30.9753621  21.7763357 111.3553637  30.8022589
  20.4262327 111.2926499  30.1202268  19.6459629 115.2293142  28.7452159
  19.5070714 114.8611927  29.6178097  18.8574225 115.7440782  28.5736117
  21.1964844 114.6074745  26.1340997  20.8614677 114.5675515  27.0298647
  20.6968790 113.9419461  25.6611407  15.1709088 110.0142375  31.6593578
  15.0328886 109.2822614  32.2605117  16.0814011 109.9251275  31.3777766
  24.1324036 111.9530779  16.4078057  23.5153206 111.2277607  16.3111109
  23.6640524 112.7140140  16.0645131  17.7991389 109.7262334  31.1477258
  18.5091007 109.0855526  31.1063876  17.7560697 109.9775229  32.0703438
  25.7878167 116.6629688  34.0683837  25.7290713 115.9788908  33.4014420
  26.1897686 117.4048678  33.6164463  16.5120323 106.7127552  32.9672897
  15.9757680 106.2618291  33.6194493  15.9237031 106.8473461  32.2243361
  25.7895575 114.6269272  32.2997817  24.9022353 114.2895193  32.4224215
  26.3594126 113.8952303  32.5366582  12.2459444 105.8483560  30.0525892
  12.1617632 105.2409229  29.3176302  11.4242150 106.3392578  30.0535388
  19.3196728 119.2870724  29.2659060  19.2466899 120.0925695  29.7778364
  18.8774121 119.4862690  28.4407081  22.4183158 104.3337123  25.4196087
  22.9151857 103.5807086  25.0997157  21.6470139 104.3701440  24.8539296
  30.2712915 110.0377489  27.0614378  30.2602791 110.9202204  26.6908311
  29.4030294 109.6849040  26.8668915  21.7795411 119.1857558  31.4217218
  22.4923384 119.8205023  31.3493120  21.2885440 119.2821424  30.6057220
  23.5012938 113.0908811  22.9934510  22.5669217 113.2110273  22.8239214
  23.6789607 112.1881277  22.7294520  19.0018126 106.4754506  25.1467771
  18.6315914 105.9225547  25.8348677  19.4977219 105.8712640  24.5942771
  26.8885490 108.9326130  23.5284544  27.3545942 109.7654121  23.4544847
  27.3392990 108.4671111  24.2329803  16.8307325 116.9352001  32.2422789
  17.5316784 117.5688484  32.3952183  16.3602440 117.2766733  31.4818429
  24.9561721 115.2769951  20.5270696  25.2321565 115.1626546  21.4364570
  24.0866220 114.8787436  20.4882869  24.8602152 101.3006717  27.5675446
  23.9465232 101.5310944  27.7357652  25.2895254 101.3845161  28.4189478
  24.6308611 109.4896609  30.0675340  23.9780061 109.7372516  29.4127792
  25.0088991 108.6760747  29.7337817  21.5915785 119.5256302  24.1703510
  21.7738179 118.7077958  24.6331262  22.4148771 119.7423994  23.7328400
  21.9257950 118.4524487  21.4318558  22.4545717 117.9416942  20.8188720
  22.1886170 118.1367017  22.2964091  20.6796184 110.2316420  36.5541377
  20.0036821 110.1310549  37.2243752  21.5023818 110.0755634  37.0177374
  12.4275043 116.4688356  29.1753892  13.0128480 115.7232044  29.3081796
  12.2299881 116.7792313  30.0590556   7.0192698 109.0393957  27.8958335
   7.0576797 108.5057547  28.6895453   6.5132991 108.5129162  27.2769312
  19.4218967 121.5383347  30.7898993  19.9737275 121.7014969  31.5548078
  19.7625160 122.1287785  30.1179018  14.3983460 103.8858497  31.3920877
  14.4624787 104.7473328  30.9798275  14.3350580 103.2732499  30.6593236
  13.8735733 105.9581630  35.0393912  14.5007771 105.5758707  35.6531436
  13.0163651 105.7395832  35.4049604  24.2729841 116.3644605  36.6447647
  24.8169745 116.9774563  36.1502602  23.6916686 116.9224183  37.1614660
  22.5587354 119.4865323  27.7762675  22.4338494 118.6855063  27.2673620
  23.2166445 119.9811516  27.2876645  14.1795522 105.8414055  26.9539815
  13.4582108 106.4550023  26.8147288  14.9688778 106.3771820  26.8756461
  24.6222262 117.2874343  29.4042225  23.6752598 117.1679694  29.3320552
  24.9705036 116.3996841  29.4868486  16.9821836 103.1768482  33.2280467
  17.5056238 103.4230778  33.9906776  16.7634169 104.0088517  32.8083604
  12.3789117 105.4472156  21.0951592  12.0501823 104.5669535  20.9126698
  12.7328488 105.3919825  21.9827981  21.6268696 117.0827059  25.6046577
  21.4793658 116.1543767  25.7854147  22.4522189 117.1047150  25.1203652
  15.4930940 105.7345126  21.4627069  15.8327013 106.2631048  20.7405678
  15.9403061 106.0725532  22.2385636  25.2302818 117.9055618  26.6911450
  26.1549365 117.6998479  26.5535901  25.0618121 117.6572019  27.6000791
  18.1874381 104.1182177  30.9130137  17.8471201 103.3189990  31.3150817
  17.4813387 104.4183888  30.3406971  18.8390853 101.2031489  29.3657460
  19.6616922 100.7291968  29.2436351  19.0828916 101.9821973  29.8656147
  17.4799087 104.2319748  19.6620362  18.2007450 104.6101001  19.1584079
  16.8564391 104.9508625  19.7655340  21.6230210 104.9364897  20.5978694
  21.8393824 105.8189535  20.2967523  21.1424277 104.5451110  19.8684336
  16.3629431 107.8950610  27.1749439  16.2174012 108.2090913  28.0673720
  15.8854635 108.5135510  26.6220338  18.2225814 104.8853158  27.2230329
  18.2087383 103.9894251  26.8862626  18.9398242 104.8923822  27.8568615
  20.0751945 105.3190498  29.2683456  19.8169723 106.2407569  29.2667786
  19.5436985 104.9220933  29.9583920  25.0198134 118.4241285  22.0473541
  25.1935011 117.8587708  21.2947394  25.5127025 119.2242180  21.8653031
  10.8375094 110.4355954  30.1137100  10.2928562 111.2115762  30.2457374
  11.7154443 110.7826759  29.9556222  17.6262710 103.7667538  22.4917899
  17.7478621 102.8384185  22.6908786  17.3364753 103.7806224  21.5796214
  20.4953901 101.4522449  25.6284619  20.5175597 101.5161782  24.6736598
  20.9121960 100.6126957  25.8225125  30.8737525 111.1877708  23.6663841
  31.3168671 110.4385034  23.2682964  29.9964035 111.1787845  23.2837573
  26.0073306 117.7408050  19.1470440  26.7024211 118.3614742  19.3657754
  26.3496456 116.8903401  19.4222818  11.6241115 109.5625851  33.0067257
  10.8822852 109.7108486  33.5931887  11.3033860 109.8234116  32.1434006
  27.9064729 115.1907755  20.6757770  28.4316054 115.5295028  19.9507090
  27.8187082 114.2554771  20.4920905  19.5684778 119.1041829  32.8047647
  19.8771905 118.8590976  33.6770347  20.3660260 119.3088467  32.3166517
  19.5905390 121.2579739  25.0353024  19.1510380 120.7656117  25.7285880
  20.3413507 120.7152706  24.7945099  17.0379262 116.8017748  27.1075325
  16.4159272 116.1388453  26.8077553  17.7084129 116.8278880  26.4248973
  17.1103790 105.2799536  36.7007831  17.1591945 106.1561658  36.3185601
  17.6526304 104.7376929  36.1279474  27.5958636 115.8240659  35.9808968
  26.8054179 115.8064798  35.4413468  27.3591990 116.3628953  36.7358005
  27.7156511 112.6733125  33.2941697  27.7654515 112.5083133  34.2357220
  27.6070434 111.8060384  32.9039578  25.0060273 108.6564053  34.6101004
  25.9070136 108.5170518  34.3185001  25.0808247 108.8218508  35.5499181
  19.3403078 106.0330908  33.4554190  18.4706388 106.3264474  33.1836778
  19.5762559 106.6171353  34.1761454  29.2174707 115.0930067  33.5383718
  28.9259516 115.4560047  34.3747179  28.6046839 114.3797075  33.3597051
  30.4170390 112.6582947  26.0586289  31.2517281 113.0972751  26.2223849
  30.5529518 112.1821600  25.2394534  27.4661896 110.2162681  32.0063776
  27.9416017 110.4090328  31.1982628  26.5427461 110.2721867  31.7607160
  22.0442112 102.2510525  30.9719610  22.5624056 102.9871552  30.6466099
  21.6897245 102.5574518  31.8066369  22.2954706  98.6710808  26.4920507
  22.5756460  98.0033997  27.1180933  23.0805313  98.8639903  25.9795171
  26.1663565 107.0928442  30.2392082  27.1180988 107.1926539  30.2604306
  25.9967015 106.3006710  30.7490166  24.1877944 104.1784025  30.4251483
  23.5927876 104.4589037  29.7297972  23.9027641 104.6677926  31.1968224
  25.9473451 117.4472822  16.1458063  25.8687083 117.1132686  17.0393821
  26.7683118 117.9394590  16.1449535  28.6451642 110.3134561  29.3534382
  28.6127963 109.3750562  29.5394065  29.2552266 110.3918598  28.6200207
  28.7946131 107.1045605  29.3992665  28.2785180 106.3204061  29.2122594
  29.6786079 106.7764321  29.5639184  26.4556858 100.8486620  25.3588478
  26.2581679 100.5401708  26.2431809  27.0656563 101.5748259  25.4886407
  34.4628192 111.3750568  28.4940418  35.1931581 111.1135856  29.0548122
  33.8535138 110.6379290  28.5342486  32.5443489 109.5158431  29.0914870
  31.8176653 109.3814396  28.4831361  32.1290776 109.8235259  29.8971588
  20.3673666 113.2348360  36.8562243  21.2876675 113.4126959  37.0502289
  20.3323249 112.2904406  36.7041942   9.5855831 108.4286954  25.7815517
   9.2658615 107.5752262  25.4889891   9.0389259 108.6435532  26.5373485
  13.3635738 111.1449395  29.4985024  13.5821748 112.0766503  29.5173058
  13.7761512 110.7857369  30.2839828  20.2839956 101.6517480  21.4860712
  19.4740684 101.3064565  21.8615958  20.9724373 101.3425024  22.0748324
  22.2130504 100.7295527  23.1085009  22.7661543 101.1490981  23.7675032
  22.4500591  99.8031275  23.1507965  18.2363604 106.7182601  38.8887773
  18.1360331 107.6676958  38.8199864  18.0185146 106.3900840  38.0163843
  17.4376675 103.9667526  15.4728450  18.2995839 104.2922424  15.7324267
  17.6227019 103.1799022  14.9601516   9.4544091 112.0489865  27.7508639
   8.7607562 111.6343818  27.2378593  10.2017082 112.0910402  27.1542058
  25.5909312 102.8396052  22.6163673  25.0107981 103.4980856  22.2341726
  25.3245244 102.0173397  22.2051091  24.0412878 102.2401110  24.8184993
  24.5412656 102.3517645  24.0099312  24.6848486 101.9362163  25.4585802
  18.0994874 110.1479740  37.7052834  17.6161955 110.9480100  37.9116723
  18.1855813 110.1587684  36.7520278  11.3680833 111.9808119  25.6274654
  11.3451521 112.0795807  24.6756537  11.6781470 112.8273270  25.9491820
  14.0268211 114.0384274  29.7421268  14.9811465 114.0068217  29.6751200
  13.8280735 113.5774898  30.5571494  14.6167593 112.6085390  32.3092066
  15.4360482 113.1029469  32.3326903  14.8904401 111.6917358  32.2809633
  24.3734190 104.9996143  21.6720021  23.4860045 105.2845793  21.4540216
  24.7888179 104.8389906  20.8247298  27.7248726 105.0242664  25.3874361
  28.5009116 105.5139116  25.6598977  26.9996860 105.4500718  25.8446230
  30.1621284 105.7370283  26.4448301  30.7565775 105.4966019  25.7341609
  30.2347868 105.0177413  27.0721838  24.3475213 110.5150679  21.8870312
  24.2910415 110.9719230  21.0477944  24.9003556 109.7541363  21.7093154
  28.1580019 106.3040410  22.7120431  27.9016953 105.9037046  23.5428639
  27.5332887 107.0184204  22.5870570  32.4692357 109.0436484  25.2191722
  31.9091915 109.1129673  25.9923285  31.8635860 108.8677468  24.4991219
  15.5387566 120.4773211  26.9709909  15.4219950 121.4218643  26.8688599
  14.7180012 120.1746772  27.3595708  25.4264100 115.2023347  17.8166501
  26.2609704 114.7704545  17.6343976  25.2648443 115.0305360  18.7443396
  25.0809993 111.7055460  19.1822841  25.0258796 111.5399731  18.2411285
  24.4556048 112.4131493  19.3385030   9.8702508 106.9423524  33.0084263
  10.5161371 106.4322478  33.4971488   9.6619659 107.6792206  33.5827688
  22.3955900 114.0104372  38.5076404  23.2647059 114.1845024  38.1463038
  21.9162651 114.8298789  38.3852133  18.3906118 101.2063569  18.7608159
  18.3784788 102.1505409  18.9176430  19.2829540 101.0233714  18.4667620
  16.5642080 121.1301473  30.1865837  17.4669327 121.1625083  30.5032332
  16.3379450 120.2001924  30.2012173  18.3195682 119.8832459  26.8475916
  17.3691313 119.8834321  26.7340288  18.6228168 119.1365194  26.3311950
  22.2058238  97.8006345  23.0154096  21.4390633  97.2464832  23.1610778
  22.6168942  97.8728214  23.8768248  14.2099999 104.0891141  37.1059277
  15.0731460 103.7327946  37.3162602  13.6365409 103.7505036  37.7934681
  34.0548376 125.7192998  27.9121678  34.6926785 125.5999745  27.2085018
  33.9369218 126.6673842  27.9709630  30.8638082 125.6720426  27.8483203
  30.5256593 125.5561490  26.9603738  31.7327850 125.2711591  27.8284209
  26.7224897 127.5255902  23.8380094  26.1589763 127.4345839  23.0696382
  26.6077293 126.7055807  24.3182586  31.3457865 126.8255277  33.8069408
  31.3346506 126.4308076  32.9349912  31.5078504 126.0921350  34.4003180
  24.2689329 129.0207094  26.6764314  25.0610621 128.6797918  26.2610614
  24.5085980 129.1302069  27.5966468  28.0665126 129.6092389  32.7548592
  27.7754992 130.5138020  32.6395259  28.7022110 129.6508917  33.4692662
  28.9921333 126.9869238  29.3449952  29.5884905 126.7625260  28.6306915
  29.0496304 126.2453983  29.9475400  33.6089644 123.4444451  24.9874886
  34.3952733 123.0263875  24.6365303  33.8728348 124.3490544  25.1556535
  33.7799721 128.8817302  19.6863543  33.1445554 128.9551928  20.3984448
  33.4497128 129.4710901  19.0082622  39.0098071 123.3819685  25.8907865
  39.7423243 122.8118902  26.1245694  38.2537427 122.9941285  26.3314370
  30.6274191 125.8046926  23.0871207  30.2632398 125.2777547  23.7984129
  31.4841307 125.4145395  22.9137693  36.5323491 117.0941259  30.3502473
  36.2006816 117.9636670  30.1263688  35.9369105 116.7777543  31.0296504
  30.2679678 120.8336826  18.0832556  30.4354080 121.7017062  18.4503027
  30.0776847 120.9964108  17.1593845  33.0255011 129.2953805  29.7498386
  32.7255734 130.1978844  29.6414193  32.6806071 129.0285988  30.6019539
  26.4767492 125.7467602  25.7835090  25.5517989 125.6143816  25.9912782
  26.7251906 126.5261821  26.2805033  36.4252155 121.8136345  27.4295823
  35.5169032 121.7451753  27.1354584  36.3739751 122.2908290  28.2577649
  30.2468899 123.2894483  19.0679223  30.1268524 123.7351534  19.9064703
  29.5521487 123.6379801  18.5092761  23.8376304 125.3900875  26.6178880
  23.9668685 125.6435354  27.5318291  23.1573755 125.9828583  26.2983535
  30.4993021 123.2325991  35.3730721  29.7226355 123.7919911  35.3633585
  31.1383584 123.7182774  35.8945591  38.2913801 120.0152783  29.2073697
  37.6488181 120.3085317  28.5613492  37.7868730 119.9005704  30.0126894
  35.9453965 123.7615957  19.8959557  36.8571821 123.9943343  19.7207254
  35.4363612 124.3453001  19.3334635  28.7539393 126.0411444  34.9348688
  29.4954077 126.5796488  34.6583511  28.0476378 126.6677733  35.0920239
  34.2294733 128.1840584  33.5320849  34.6378089 127.7422995  32.7875482
  33.5071994 127.6093212  33.7855042  30.5825803 123.1213191  30.9054406
  31.4286998 123.5452605  31.0489055  30.5224440 122.4646815  31.5992969
  34.5523547 128.7441775  27.2873138  33.9232410 128.9087489  26.5849206
  34.1649209 129.1583385  28.0584102  38.4312779 129.6796213  24.6417502
  37.7463817 130.0595114  24.0914535  38.5156628 130.2891540  25.3749450
  33.7325248 120.7817560  32.5635580  33.4886180 121.5359620  32.0269855
  34.0085178 121.1602907  33.3982827  35.6863711 127.3256172  31.2412845
  35.8980606 127.9687932  30.5647226  35.6393459 126.4918488  30.7734775
  33.2889940 119.9373993  28.1449417  32.4274419 120.2355246  28.4366155
  33.3152374 120.1544391  27.2130450  30.1051509 128.4816183  24.5523223
  30.5689855 128.7603886  23.7627846  29.8408307 127.5799628  24.3696314
  26.9975590 128.0287665  27.4902986  27.5676947 128.4574933  26.8520471
  27.5883702 127.7470249  28.1887172  29.0420395 124.6039335  21.3612788
  29.7444438 125.0560379  21.8286715  28.7101024 123.9623154  21.9892681
  27.4900757 123.1951092  35.7363998  26.8599417 123.8767373  35.9699394
  27.3836845 123.0834174  34.7917136  22.7845729 122.8622888  26.6629922
  21.9944783 123.1180417  26.1870032  23.2756976 123.6771226  26.7681962
  36.8009539 130.2028127  29.4135203  37.6226982 129.8008315  29.1317884
  36.7971941 130.0996361  30.3651318  24.7360474 123.2267467  23.6213399
  23.9391638 123.3386162  24.1396894  24.5086067 123.5654120  22.7554289
  30.5666142 129.7512171  31.5695913  30.6310575 130.2132578  32.4054085
  29.8577066 129.1209536  31.6978223  21.0683432 123.1153379  29.0944913
  21.3191470 124.0000389  29.3602489  21.6042980 122.9357980  28.3220004
  44.8915532 126.5466876  25.7620174  44.1379240 125.9774274  25.6064179
  45.0263073 126.5129540  26.7090809  30.2814160 131.4180278  21.4374893
  30.1459834 132.2631814  21.8659741  30.8223972 131.6199556  20.6740827
  26.7681499 117.4971858  38.0989249  26.3748445 116.9438057  38.7736893
  27.5847640 117.8082436  38.4895766  29.6849460 118.9129737  35.6909505
  30.4259174 119.5136890  35.6113968  29.9167383 118.1707375  35.1327548
  24.8290798 124.0986104  33.9687735  24.7144313 123.1971362  34.2694834
  23.9735316 124.3449801  33.6172551  31.9082636 132.0403845  35.5675236
  31.4646490 131.2540223  35.2496140  32.5699850 132.2282995  34.9019126
  26.6669757 133.5699646  30.0935914  27.2177182 133.4416710  29.3212908
  25.8281233 133.8694535  29.7430807  34.0063874 132.3206645  33.5956637
  33.9882350 133.1415526  33.1036906  34.9283794 132.1960720  33.8206778
  30.4636928 129.8350774  34.4380145  30.9965265 129.0739062  34.2079453
  29.9351009 129.5424426  35.1804300  33.6306623 114.9410840  29.9673787
  33.2870893 115.8312482  29.8912898  33.9985586 114.7512498  29.1043372
  33.5956906 124.9319451  18.4746222  33.0803529 125.7024056  18.7134609
  33.3234214 124.2584587  19.0979284  31.1804017 119.7769152  23.5331460
  30.3245613 119.3876002  23.3537099  31.5930969 119.8561113  22.6731246
  32.7103164 117.3115495  27.9323020  32.2067959 117.2745630  27.1190825
  33.0033771 118.2208238  27.9919677  28.9546050 117.3954225  26.9389202
  29.8199046 117.1997034  26.5795091  29.0223558 117.1664577  27.8658559
  38.5691180 127.6851806  20.4099396  37.7920623 127.3462965  19.9654558
  39.2482661 127.6904429  19.7354361  33.3843209 122.8046543  20.3006003
  33.0793345 123.1192692  21.1516146  34.3373651 122.8827963  20.3433336
  31.8289641 128.9636767  21.9498957  31.3011003 128.2289526  21.6372195
  31.3277144 129.7411443  21.7038926  36.8082487 127.1585787  27.0666004
  36.1506161 127.8485048  27.1546132  37.6122886 127.5482219  27.4099990
  26.5608369 119.6256433  24.3105569  27.1352121 119.4031614  23.5778762
  27.1479351 119.6945127  25.0634170  35.6187946 125.5130160  25.1169945
  36.1319828 126.1460152  25.6191655  36.2689170 124.9131355  24.7513305
  28.8631036 116.4997682  23.0380638  28.2095449 116.1846699  22.4137253
  28.8211510 115.8773422  23.7640461  32.0968777 122.9879615  27.3628286
  31.1791338 123.2094562  27.2049974  32.5128920 123.0625926  26.5039993
  32.8803824 124.3871031  22.4930966  33.6275643 124.8992428  22.1838088
  33.1495414 124.0655084  23.3535360  31.1530475 126.8829572  19.4757920
  30.2441694 126.5988604  19.5730390  31.1825558 127.3028650  18.6161227
  36.3849742 130.4936161  23.2449088  35.9312069 129.6527071  23.3014278
  35.7543709 131.1297560  23.5823868  35.3282662 121.4228147  24.4749755
  34.5905418 120.9105533  24.8059998  35.5809435 120.9828529  23.6633032
  34.8282681 132.3312658  24.1798906  35.1205656 132.8917715  23.4611272
  35.3381302 132.6241219  24.9352065  35.4294289 114.2004399  25.0691525
  35.7353166 113.3401763  24.7817440  36.1546894 114.7922019  24.8690519
  29.7015369 124.4958192  25.5767716  29.7563978 123.5432029  25.5010192
  28.8906571 124.6517631  26.0609014  27.6407729 123.1135252  23.3358095
  26.8275594 123.4129423  23.7423287  28.1366723 122.7190941  24.0532577
  29.7916306 133.1093009  25.2692359  29.7492485 133.3353855  24.3400891
  30.7079005 132.8756383  25.4178160  33.2381940 123.5777076  32.1672988
  33.5931328 123.8048550  33.0267454  33.8854072 123.9095453  31.5450244
  38.9679677 126.6995512  22.8722317  38.8297576 126.8897108  21.9443507
  38.6115896 127.4614895  23.3290369  27.1321803 120.6853608  28.9519330
  27.7721183 120.5442367  28.2542293  26.2999334 120.3988121  28.5757932
  38.9949057 128.7672039  27.8833589  39.4285563 128.6747328  28.7316643
  39.7080638 128.7429540  27.2453605  27.9082107 129.9856038  25.0654322
  28.7022706 129.4906358  24.8636897  27.1973800 129.4573901  24.7022028
  32.7276952 132.3674133  29.4166690  32.7813974 132.9365070  30.1844406
  31.8591733 132.5376018  29.0520727  24.1350420 120.6553932  23.7292316
  24.3957237 121.5699266  23.6201477  24.9567592 120.1878375  23.8788929
  25.6075345 122.0691690  30.8991141  26.2798399 121.8609052  30.2503790
  24.7805132 121.8713776  30.4596373  39.8564606 128.8095740  30.4166474
  40.0500496 129.7141551  30.6625749  39.7565225 128.3503159  31.2505059
  31.5100917 118.6953631  32.9156802  30.8628832 119.3943580  32.8221278
  32.2801933 119.1289775  33.2833050  34.9179715 128.9602483  35.9907355
  34.7665221 128.7313034  35.0737439  34.9084395 129.9173084  36.0038700
  31.6865051 126.5334395  30.9753621  32.6157111 126.6845555  30.8022589
  31.2656081 126.6218416  30.1202268  30.4853383 130.5585060  28.7452159
  30.3464469 130.1903844  29.6178097  29.6967979 131.0732699  28.5736117
  32.0358598 129.9366663  26.1340997  31.7008431 129.8967433  27.0298647
  31.5362544 129.2711379  25.6611407  26.0102842 125.3434293  31.6593578
  25.8722640 124.6114531  32.2605117  26.9207766 125.2543193  31.3777766
  34.9717790 127.2822697  16.4078057  34.3546961 126.5569525  16.3111109
  34.5034279 128.0432057  16.0645131  28.6385143 125.0554252  31.1477258
  29.3484762 124.4147444  31.1063876  28.5954451 125.3067147  32.0703438
  36.6271922 131.9921605  34.0683837  36.5684468 131.3080825  33.4014420
  37.0291440 132.7340595  33.6164463  27.3514077 122.0419470  32.9672897
  26.8151434 121.5910208  33.6194493  26.7630785 122.1765379  32.2243361
  36.6289329 129.9561189  32.2997817  35.7416108 129.6187111  32.4224215
  37.1987880 129.2244220  32.5366582  23.0853198 121.1775478  30.0525892
  23.0011387 120.5701147  29.3176302  22.2635905 121.6684496  30.0535388
  30.1590482 134.6162642  29.2659060  30.0860654 135.4217613  29.7778364
  29.7167875 134.8154607  28.4407081  33.2576912 119.6629041  25.4196087
  33.7545612 118.9099003  25.0997157  32.4863894 119.6993358  24.8539296
  41.1106670 125.3669407  27.0614378  41.0996546 126.2494122  26.6908311
  40.2424049 125.0140957  26.8668915  32.6189166 134.5149476  31.4217218
  33.3317138 135.1496940  31.3493120  32.1279195 134.6113342  30.6057220
  34.3406693 128.4200728  22.9934510  33.4062972 128.5402191  22.8239214
  34.5183361 127.5173195  22.7294520  29.8411881 121.8046424  25.1467771
  29.4709668 121.2517464  25.8348677  30.3370973 121.2004558  24.5942771
  37.7279244 124.2618048  23.5284544  38.1939696 125.0946039  23.4544847
  38.1786745 123.7963029  24.2329803  27.6701079 132.2643919  32.2422789
  28.3710539 132.8980402  32.3952183  27.1996194 132.6058651  31.4818429
  35.7955475 130.6061869  20.5270696  36.0715319 130.4918463  21.4364570
  34.9259974 130.2079354  20.4882869  35.6995907 116.6298635  27.5675446
  34.7858987 116.8602861  27.7357652  36.1289008 116.7137079  28.4189478
  35.4702365 124.8188527  30.0675340  34.8173816 125.0664434  29.4127792
  35.8482745 124.0052665  29.7337817  32.4309539 134.8548220  24.1703510
  32.6131934 134.0369876  24.6331262  33.2542525 135.0715912  23.7328400
  32.7651705 133.7816405  21.4318558  33.2939471 133.2708859  20.8188720
  33.0279924 133.4658935  22.2964091  31.5189938 125.5608338  36.5541377
  30.8430575 125.4602467  37.2243752  32.3417572 125.4047551  37.0177374
  23.2668797 131.7980274  29.1753892  23.8522234 131.0523962  29.3081796
  23.0693636 132.1084231  30.0590556  17.8586452 124.3685874  27.8958335
  17.8970552 123.8349465  28.6895453  17.3526745 123.8421080  27.2769312
  30.2612721 136.8675265  30.7898993  30.8131029 137.0306887  31.5548078
  30.6018915 137.4579703  30.1179018  25.2377215 119.2150415  31.3920877
  25.3018541 120.0765246  30.9798275  25.1744335 118.6024416  30.6593236
  24.7129487 121.2873547  35.0393912  25.3401526 120.9050625  35.6531436
  23.8557406 121.0687749  35.4049604  35.1123596 131.6936523  36.6447647
  35.6563500 132.3066481  36.1502602  34.5310440 132.2516101  37.1614660
  33.3981109 134.8157241  27.7762675  33.2732248 134.0146980  27.2673620
  34.0560200 135.3103434  27.2876645  25.0189277 121.1705973  26.9539815
  24.2975863 121.7841941  26.8147288  25.8082533 121.7063738  26.8756461
  35.4616017 132.6166261  29.4042225  34.5146352 132.4971612  29.3320552
  35.8098790 131.7288759  29.4868486  27.8215590 118.5060400  33.2280467
  28.3449992 118.7522696  33.9906776  27.6027924 119.3380434  32.8083604
  23.2182871 120.7764074  21.0951592  22.8895578 119.8961453  20.9126698
  23.5722242 120.7211743  21.9827981  32.4662450 132.4118977  25.6046577
  32.3187413 131.4835684  25.7854147  33.2915944 132.4339068  25.1203652
  26.3324695 121.0637044  21.4627069  26.6720767 121.5922965  20.7405678
  26.7796815 121.4017450  22.2385636  36.0696572 133.2347536  26.6911450
  36.9943120 133.0290397  26.5535901  35.9011875 132.9863937  27.6000791
  29.0268135 119.4474095  30.9130137  28.6864956 118.6481908  31.3150817
  28.3207142 119.7475806  30.3406971  29.6784607 116.5323407  29.3657460
  30.5010677 116.0583885  29.2436351  29.9222671 117.3113891  29.8656147
  28.3192842 119.5611666  19.6620362  29.0401204 119.9392918  19.1584079
  27.6958146 120.2800542  19.7655340  32.4623965 120.2656815  20.5978694
  32.6787579 121.1481452  20.2967523  31.9818032 119.8743028  19.8684336
  27.2023186 123.2242528  27.1749439  27.0567767 123.5382831  28.0673720
  26.7248390 123.8427428  26.6220338  29.0619569 120.2145076  27.2230329
  29.0481138 119.3186169  26.8862626  29.7791997 120.2215739  27.8568615
  30.9145700 120.6482416  29.2683456  30.6563477 121.5699487  29.2667786
  30.3830740 120.2512850  29.9583920  35.8591888 133.7533203  22.0473541
  36.0328766 133.1879626  21.2947394  36.3520780 134.5534098  21.8653031
  21.6768848 125.7647872  30.1137100  21.1322316 126.5407680  30.2457374
  22.5548198 126.1118677  29.9556222  28.4656465 119.0959456  22.4917899
  28.5872376 118.1676102  22.6908786  28.1758507 119.1098142  21.5796214
  31.3347655 116.7814366  25.6284619  31.3569352 116.8453700  24.6736598
  31.7515714 115.9418875  25.8225125  41.7131279 126.5169626  23.6663841
  42.1562426 125.7676951  23.2682964  40.8357790 126.5079762  23.2837573
  36.8467061 133.0699967  19.1470440  37.5417965 133.6906660  19.3657754
  37.1890211 132.2195319  19.4222818  22.4634870 124.8917768  33.0067257
  21.7216606 125.0400404  33.5931887  22.1427614 125.1526034  32.1434006
  38.7458484 130.5199673  20.6757770  39.2709808 130.8586946  19.9507090
  38.6580836 129.5846688  20.4920905  30.4078533 134.4333747  32.8047647
  30.7165659 134.1882893  33.6770347  31.2054015 134.6380385  32.3166517
  30.4299145 136.5871656  25.0353024  29.9904135 136.0948035  25.7285880
  31.1807262 136.0444624  24.7945099  27.8773017 132.1309665  27.1075325
  27.2553026 131.4680370  26.8077553  28.5477884 132.1570797  26.4248973
  27.9497544 120.6091453  36.7007831  27.9985700 121.4853576  36.3185601
  28.4920059 120.0668846  36.1279474  38.4352390 131.1532577  35.9808968
  37.6447934 131.1356715  35.4413468  38.1985745 131.6920870  36.7358005
  38.5550265 128.0025043  33.2941697  38.6048270 127.8375050  34.2357220
  38.4464188 127.1352302  32.9039578  35.8454027 123.9855971  34.6101004
  36.7463890 123.8462436  34.3185001  35.9202002 124.1510426  35.5499181
  30.1796833 121.3622826  33.4554190  29.3100142 121.6556392  33.1836778
  30.4156313 121.9463271  34.1761454  40.0568462 130.4221985  33.5383718
  39.7653270 130.7851965  34.3747179  39.4440593 129.7088993  33.3597051
  41.2564144 127.9874864  26.0586289  42.0911036 128.4264668  26.2223849
  41.3923273 127.5113518  25.2394534  38.3055650 125.5454599  32.0063776
  38.7809772 125.7382245  31.1982628  37.3821215 125.6013785  31.7607160
  32.8835867 117.5802443  30.9719610  33.4017810 118.3163470  30.6466099
  32.5290999 117.8866436  31.8066369  33.1348461 114.0002725  26.4920507
  33.4150215 113.3325914  27.1180933  33.9199068 114.1931821  25.9795171
  37.0057319 122.4220359  30.2392082  37.9574742 122.5218457  30.2604306
  36.8360770 121.6298628  30.7490166  35.0271699 119.5075942  30.4251483
  34.4321631 119.7880955  29.7297972  34.7421395 119.9969843  31.1968224
  36.7867206 132.7764740  16.1458063  36.7080837 132.4424603  17.0393821
  37.6076873 133.2686508  16.1449535  39.4845397 125.6426479  29.3534382
  39.4521717 124.7042480  29.5394065  40.0946021 125.7210516  28.6200207
  39.6339885 122.4337522  29.3992665  39.1178934 121.6495979  29.2122594
  40.5179834 122.1056239  29.5639184  37.2950612 116.1778538  25.3588478
  37.0975433 115.8693626  26.2431809  37.9050318 116.9040177  25.4886407
  45.3021947 126.7042486  28.4940418  46.0325335 126.4427774  29.0548122
  44.6928892 125.9671208  28.5342486  43.3837244 124.8450348  29.0914870
  42.6570407 124.7106313  28.4831361  42.9684531 125.1527177  29.8971588
  31.2067420 128.5640278  36.8562243  32.1270430 128.7418877  37.0502289
  31.1717003 127.6196323  36.7041942  20.4249585 123.7578872  25.7815517
  20.1052370 122.9044180  25.4889891  19.8783013 123.9727450  26.5373485
  24.2029493 126.4741313  29.4985024  24.4215503 127.4058420  29.5173058
  24.6155267 126.1149287  30.2839828  31.1233711 116.9809398  21.4860712
  30.3134439 116.6356483  21.8615958  31.8118128 116.6716942  22.0748324
  33.0524259 116.0587445  23.1085009  33.6055298 116.4782898  23.7675032
  33.2894345 115.1323193  23.1507965  29.0757358 122.0474518  38.8887773
  28.9754085 122.9968875  38.8199864  28.8578900 121.7192757  38.0163843
  28.2770430 119.2959443  15.4728450  29.1389594 119.6214342  15.7324267
  28.4620774 118.5090939  14.9601516  20.2937845 127.3781783  27.7508639
  19.6001317 126.9635736  27.2378593  21.0410836 127.4202320  27.1542058
  36.4303066 118.1687970  22.6163673  35.8501735 118.8272774  22.2341726
  36.1638999 117.3465315  22.2051091  34.8806632 117.5693028  24.8184993
  35.3806411 117.6809562  24.0099312  35.5242240 117.2654081  25.4585802
  28.9388628 125.4771657  37.7052834  28.4555710 126.2772017  37.9116723
  29.0249567 125.4879602  36.7520278  22.2074588 127.3100037  25.6274654
  22.1845276 127.4087724  24.6756537  22.5175224 128.1565188  25.9491820
  24.8661966 129.3676192  29.7421268  25.8205219 129.3360134  29.6751200
  24.6674489 128.9066816  30.5571494  25.4561348 127.9377308  32.3092066
  26.2754237 128.4321387  32.3326903  25.7298156 127.0209276  32.2809633
  35.2127944 120.3288060  21.6720021  34.3253799 120.6137711  21.4540216
  35.6281933 120.1681824  20.8247298  38.5642480 120.3534581  25.3874361
  39.3402870 120.8431034  25.6598977  37.8390614 120.7792636  25.8446230
  41.0015039 121.0662201  26.4448301  41.5959530 120.8257936  25.7341609
  41.0741622 120.3469331  27.0721838  35.1868968 125.8442596  21.8870312
  35.1304169 126.3011148  21.0477944  35.7397310 125.0833281  21.7093154
  38.9973774 121.6332328  22.7120431  38.7410708 121.2328964  23.5428639
  38.3726642 122.3476122  22.5870570  43.3086112 124.3728401  25.2191722
  42.7485670 124.4421591  25.9923285  42.7029615 124.1969386  24.4991219
  26.3781320 135.8065128  26.9709909  26.2613705 136.7510561  26.8688599
  25.5573767 135.5038690  27.3595708  36.2657855 130.5315264  17.8166501
  37.1003459 130.0996463  17.6343976  36.1042198 130.3597278  18.7443396
  35.9203747 127.0347378  19.1822841  35.8652551 126.8691649  18.2411285
  35.2949802 127.7423410  19.3385030  20.7096262 122.2715442  33.0084263
  21.3555126 121.7614396  33.4971488  20.5013413 123.0084124  33.5827688
  33.2349654 129.3396289  38.5076404  34.1040814 129.5136942  38.1463038
  32.7556406 130.1590706  38.3852133  29.2299873 116.5355487  18.7608159
  29.2178542 117.4797326  18.9176430  30.1223294 116.3525632  18.4667620
  27.4035834 136.4593390  30.1865837  28.3063081 136.4917001  30.5032332
  27.1773205 135.5293841  30.2012173  29.1589437 135.2124377  26.8475916
  28.2085068 135.2126239  26.7340288  29.4621923 134.4657112  26.3311950
  33.0451992 113.1298263  23.0154096  32.2784388 112.5756750  23.1610778
  33.4562697 113.2020132  23.8768248  25.0493753 119.4183059  37.1059277
  25.9125215 119.0619864  37.3162602  24.4759164 119.0796954  37.7934681
  44.8942130 141.0484915  27.9121678  45.5320540 140.9291663  27.2085018
  44.7762973 141.9965759  27.9709630  41.7031836 141.0012343  27.8483203
  41.3650348 140.8853408  26.9603738  42.5721604 140.6003509  27.8284209
  37.5618652 142.8547820  23.8380094  36.9983517 142.7637757  23.0696382
  37.4471047 142.0347724  24.3182586  42.1851619 142.1547195  33.8069408
  42.1740260 141.7599993  32.9349912  42.3472259 141.4213268  34.4003180
  35.1083084 144.3499011  26.6764314  35.9004376 144.0089836  26.2610614
  35.3479734 144.4593986  27.5966468  38.9058880 144.9384307  32.7548592
  38.6148746 145.8429938  32.6395259  39.5415865 144.9800835  33.4692662
  39.8315087 142.3161155  29.3449952  40.4278660 142.0917178  28.6306915
  39.8890059 141.5745901  29.9475400  44.4483398 138.7736369  24.9874886
  45.2346488 138.3555792  24.6365303  44.7122103 139.6782461  25.1556535
  44.6193476 144.2109219  19.6863543  43.9839309 144.2843846  20.3984448
  44.2890882 144.8002818  19.0082622  49.8491826 138.7111602  25.8907865
  50.5816998 138.1410819  26.1245694  49.0931181 138.3233203  26.3314370
  41.4667945 141.1338844  23.0871207  41.1026153 140.6069465  23.7984129
  42.3235061 140.7437313  22.9137693  47.3717246 132.4233176  30.3502473
  47.0400571 133.2928587  30.1263688  46.7762859 132.1069460  31.0296504
  41.1073432 136.1628744  18.0832556  41.2747835 137.0308980  18.4503027
  40.9170601 136.3256025  17.1593845  43.8648765 144.6245722  29.7498386
  43.5649489 145.5270761  29.6414193  43.5199825 144.3577906  30.6019539
  37.3161247 141.0759519  25.7835090  36.3911743 140.9435733  25.9912782
  37.5645660 141.8553739  26.2805033  47.2645909 137.1428263  27.4295823
  46.3562787 137.0743671  27.1354584  47.2133505 137.6200208  28.2577649
  41.0862653 138.6186401  19.0679223  40.9662278 139.0643452  19.9064703
  40.3915242 138.9671719  18.5092761  34.6770058 140.7192793  26.6178880
  34.8062439 140.9727272  27.5318291  33.9967509 141.3120501  26.2983535
  41.3386775 138.5617908  35.3730721  40.5620109 139.1211828  35.3633585
  41.9777338 139.0474691  35.8945591  49.1307556 135.3444701  29.2073697
  48.4881936 135.6377234  28.5613492  48.6262484 135.2297621  30.0126894
  46.7847719 139.0907874  19.8959557  47.6965575 139.3235261  19.7207254
  46.2757366 139.6744918  19.3334635  39.5933147 141.3703362  34.9348688
  40.3347832 141.9088406  34.6583511  38.8870133 141.9969650  35.0920239
  45.0688487 143.5132502  33.5320849  45.4771843 143.0714913  32.7875482
  44.3465749 142.9385130  33.7855042  41.4219557 138.4505109  30.9054406
  42.2680752 138.8744522  31.0489055  41.3618195 137.7938733  31.5992969
  45.3917302 144.0733693  27.2873138  44.7626164 144.2379407  26.5849206
  45.0042964 144.4875302  28.0584102  49.2706534 145.0088131  24.6417502
  48.5857572 145.3887032  24.0914535  49.3550383 145.6183457  25.3749450
  44.5719002 136.1109477  32.5635580  44.3279934 136.8651538  32.0269855
  44.8478933 136.4894825  33.3982827  46.5257465 142.6548090  31.2412845
  46.7374360 143.2979849  30.5647226  46.4787213 141.8210406  30.7734775
  44.1283694 135.2665910  28.1449417  43.2668173 135.5647164  28.4366155
  44.1546129 135.4836309  27.2130450  40.9445264 143.8108101  24.5523223
  41.4083609 144.0895804  23.7627846  40.6802062 142.9091545  24.3696314
  37.8369345 143.3579582  27.4902986  38.4070702 143.7866851  26.8520471
  38.4277456 143.0762167  28.1887172  39.8814150 139.9331253  21.3612788
  40.5838193 140.3852297  21.8286715  39.5494778 139.2915072  21.9892681
  38.3294511 138.5243010  35.7363998  37.6993172 139.2059291  35.9699394
  38.2230599 138.4126091  34.7917136  33.6239484 138.1914806  26.6629922
  32.8338538 138.4472334  26.1870032  34.1150731 139.0063144  26.7681962
  47.6403293 145.5320045  29.4135203  48.4620737 145.1300232  29.1317884
  47.6365696 145.4288279  30.3651318  35.5754229 138.5559385  23.6213399
  34.7785392 138.6678079  24.1396894  35.3479821 138.8946037  22.7554289
  41.4059897 145.0804088  31.5695913  41.4704329 145.5424496  32.4054085
  40.6970820 144.4501453  31.6978223  31.9077187 138.4445296  29.0944913
  32.1585225 139.3292306  29.3602489  32.4436735 138.2649898  28.3220004
  55.7309286 141.8758793  25.7620174  54.9772995 141.3066192  25.6064179
  55.8656827 141.8421458  26.7090809  41.1207914 146.7472196  21.4374893
  40.9853589 147.5923732  21.8659741  41.6617727 146.9491473  20.6740827
  37.6075254 132.8263776  38.0989249  37.2142199 132.2729974  38.7736893
  38.4241394 133.1374354  38.4895766  40.5243215 134.2421655  35.6909505
  41.2652928 134.8428808  35.6113968  40.7561138 133.4999293  35.1327548
  35.6684553 139.4278022  33.9687735  35.5538068 138.5263279  34.2694834
  34.8129071 139.6741719  33.6172551  42.7476391 147.3695762  35.5675236
  42.3040245 146.5832141  35.2496140  43.4093604 147.5574913  34.9019126
  44.8457629 147.6498562  33.5956637  44.8276104 148.4707443  33.1036906
  45.7677549 147.5252637  33.8206778  41.3030683 145.1642692  34.4380145
  41.8359020 144.4030980  34.2079453  40.7744764 144.8716344  35.1804300
  44.4700378 130.2702758  29.9673787  44.1264647 131.1604399  29.8912898
  44.8379340 130.0804415  29.1043372  44.4350660 140.2611369  18.4746222
  43.9197284 141.0315973  18.7134609  44.1627969 139.5876505  19.0979284
  42.0197772 135.1061070  23.5331460  41.1639368 134.7167920  23.3537099
  42.4324723 135.1853030  22.6731246  43.5496918 132.6407413  27.9323020
  43.0461714 132.6037548  27.1190825  43.8427525 133.5500156  27.9919677
  39.7939804 132.7246143  26.9389202  40.6592801 132.5288951  26.5795091
  39.8617313 132.4956494  27.8658559  49.4084935 143.0143723  20.4099396
  48.6314377 142.6754883  19.9654558  50.0876416 143.0196347  19.7354361
  44.2236964 138.1338461  20.3006003  43.9187099 138.4484610  21.1516146
  45.1767406 138.2119881  20.3433336  42.6683396 144.2928684  21.9498957
  42.1404757 143.5581444  21.6372195  42.1670898 145.0703361  21.7038926
  47.6476242 142.4877705  27.0666004  46.9899916 143.1776966  27.1546132
  48.4516641 142.8774137  27.4099990  37.4002123 134.9548350  24.3105569
  37.9745875 134.7323532  23.5778762  37.9873106 135.0237045  25.0634170
  46.4581700 140.8422077  25.1169945  46.9713582 141.4752069  25.6191655
  47.1082924 140.2423273  24.7513305  39.7024791 131.8289599  23.0380638
  39.0489203 131.5138617  22.4137253  39.6605265 131.2065340  23.7640461
  42.9362531 138.3171533  27.3628286  42.0185093 138.5386480  27.2049974
  43.3522675 138.3917843  26.5039993  43.7197579 139.7162949  22.4930966
  44.4669398 140.2284346  22.1838088  43.9889169 139.3947001  23.3535360
  41.9924229 142.2121489  19.4757920  41.0835448 141.9280522  19.5730390
  42.0219313 142.6320568  18.6161227  47.2243497 145.8228079  23.2449088
  46.7705824 144.9818989  23.3014278  46.5937463 146.4589477  23.5823868
  46.1676416 136.7520065  24.4749755  45.4299173 136.2397451  24.8059998
  46.4203190 136.3120446  23.6633032  45.6676436 147.6604575  24.1798906
  45.9599410 148.2209633  23.4611272  46.1775056 147.9533136  24.9352065
  46.2688043 129.5296317  25.0691525  46.5746920 128.6693680  24.7817440
  46.9940648 130.1213937  24.8690519  40.5409123 139.8250110  25.5767716
  40.5957733 138.8723946  25.5010192  39.7300325 139.9809549  26.0609014
  38.4801483 138.4427170  23.3358095  37.6669349 138.7421340  23.7423287
  38.9760477 138.0482858  24.0532577  40.6310061 148.4384927  25.2692359
  40.5886240 148.6645773  24.3400891  41.5472760 148.2048301  25.4178160
  44.0775695 138.9068994  32.1672988  44.4325082 139.1340467  33.0267454
  44.7247826 139.2387371  31.5450244  49.8073432 142.0287430  22.8722317
  49.6691330 142.2189026  21.9443507  49.4509651 142.7906813  23.3290369
  37.9715558 136.0145525  28.9519330  38.6114937 135.8734284  28.2542293
  37.1393088 135.7280039  28.5757932  49.8342811 144.0963957  27.8833589
  50.2679318 144.0039246  28.7316643  50.5474392 144.0721457  27.2453605
  38.7475862 145.3147956  25.0654322  39.5416460 144.8198276  24.8636897
  38.0367554 144.7865819  24.7022028  43.5670706 147.6966051  29.4166690
  43.6207729 148.2656987  30.1844406  42.6985488 147.8667936  29.0520727
  34.9744174 135.9845850  23.7292316  35.2350992 136.8991183  23.6201477
  35.7961347 135.5170293  23.8788929  36.4469100 137.3983607  30.8991141
  37.1192153 137.1900969  30.2503790  35.6198886 137.2005693  30.4596373
  50.6958361 144.1387658  30.4166474  50.8894251 145.0433468  30.6625749
  50.5958979 143.6795077  31.2505059  42.3494672 134.0245548  32.9156802
  41.7022587 134.7235498  32.8221278  43.1195687 134.4581692  33.2833050
  45.7573470 144.2894400  35.9907355  45.6058976 144.0604952  35.0737439
  45.7478149 145.2465002  36.0038700  42.5258806 141.8626313  30.9753621
  43.4550866 142.0137473  30.8022589  42.1049836 141.9510334  30.1202268
  41.3247138 145.8876978  28.7452159  41.1858223 145.5195762  29.6178097
  40.5361734 146.4024617  28.5736117  42.8752353 145.2658580  26.1340997
  42.5402186 145.2259350  27.0298647  42.3756299 144.6003296  25.6611407
  36.8496597 140.6726210  31.6593578  36.7116395 139.9406449  32.2605117
  37.7601520 140.5835110  31.3777766  45.8111545 142.6114615  16.4078057
  45.1940715 141.8861443  16.3111109  45.3428033 143.3723975  16.0645131
  39.4778898 140.3846170  31.1477258  40.1878516 139.7439362  31.1063876
  39.4348206 140.6359064  32.0703438  47.4665676 147.3213523  34.0683837
  47.4078222 146.6372743  33.4014420  47.8685195 148.0632513  33.6164463
  38.1907832 137.3711388  32.9672897  37.6545189 136.9202126  33.6194493
  37.6024540 137.5057296  32.2243361  47.4683083 145.2853107  32.2997817
  46.5809862 144.9479029  32.4224215  48.0381635 144.5536138  32.5366582
  33.9246953 136.5067395  30.0525892  33.8405141 135.8993065  29.3176302
  33.1029659 136.9976414  30.0535388  44.0970667 134.9920959  25.4196087
  44.5939366 134.2390921  25.0997157  43.3257648 135.0285275  24.8539296
  51.9500424 140.6961324  27.0614378  51.9390300 141.5786040  26.6908311
  51.0817803 140.3432875  26.8668915  43.4582920 149.8441393  31.4217218
  44.1710893 150.4788858  31.3493120  42.9672949 149.9405259  30.6057220
  45.1800447 143.7492646  22.9934510  44.2456726 143.8694108  22.8239214
  45.3577116 142.8465113  22.7294520  40.6805635 137.1338342  25.1467771
  40.3103423 136.5809382  25.8348677  41.1764728 136.5296475  24.5942771
  48.5672999 139.5909965  23.5284544  49.0333451 140.4237957  23.4544847
  49.0180499 139.1254947  24.2329803  38.5094834 147.5935837  32.2422789
  39.2104293 148.2272320  32.3952183  38.0389949 147.9350568  31.4818429
  46.6349230 145.9353787  20.5270696  46.9109074 145.8210381  21.4364570
  45.7653728 145.5371271  20.4882869  46.5389661 131.9590552  27.5675446
  45.6252741 132.1894779  27.7357652  46.9682763 132.0428996  28.4189478
  46.3096120 140.1480444  30.0675340  45.6567570 140.3956352  29.4127792
  46.6876500 139.3344582  29.7337817  43.2703294 150.1840137  24.1703510
  43.4525688 149.3661793  24.6331262  44.0936280 150.4007830  23.7328400
  43.6045459 149.1108323  21.4318558  44.1333226 148.6000777  20.8188720
  43.8673679 148.7950853  22.2964091  42.3583693 140.8900255  36.5541377
  41.6824330 140.7894385  37.2243752  43.1811327 140.7339469  37.0177374
  34.1062552 147.1272192  29.1753892  34.6915989 146.3815880  29.3081796
  33.9087390 147.4376149  30.0590556  28.6980207 139.6977792  27.8958335
  28.7364306 139.1641383  28.6895453  28.1920500 139.1712998  27.2769312
  36.0770969 134.5442333  31.3920877  36.1412296 135.4057163  30.9798275
  36.0138089 133.9316334  30.6593236  35.5523242 136.6165465  35.0393912
  36.1795280 136.2342542  35.6531436  34.6951160 136.3979667  35.4049604
  45.9517350 147.0228440  36.6447647  46.4957254 147.6358398  36.1502602
  45.3704195 147.5808019  37.1614660  44.2374863 150.1449158  27.7762675
  44.1126003 149.3438898  27.2673620  44.8953954 150.6395352  27.2876645
  35.8583031 136.4997891  26.9539815  35.1369617 137.1133858  26.8147288
  36.6476287 137.0355656  26.8756461  46.3009771 147.9458178  29.4042225
  45.3540107 147.8263530  29.3320552  46.6492545 147.0580676  29.4868486
  38.6609345 133.8352317  33.2280467  39.1843747 134.0814614  33.9906776
  38.4421678 134.6672352  32.8083604  34.0576626 136.1055992  21.0951592
  33.7289332 135.2253371  20.9126698  34.4115997 136.0503661  21.9827981
  43.3056205 147.7410895  25.6046577  43.1581167 146.8127602  25.7854147
  44.1309698 147.7630985  25.1203652  37.1718449 136.3928962  21.4627069
  37.5114522 136.9214883  20.7405678  37.6190570 136.7309368  22.2385636
  46.9090327 148.5639453  26.6911450  47.8336874 148.3582315  26.5535901
  46.7405630 148.3155854  27.6000791  39.8661890 134.7766012  30.9130137
  39.5258710 133.9773825  31.3150817  39.1600896 135.0767723  30.3406971
  40.5178362 131.8615325  29.3657460  41.3404431 131.3875803  29.2436351
  40.7616425 132.6405809  29.8656147  39.1586596 134.8903583  19.6620362
  39.8794959 135.2684836  19.1584079  38.5351900 135.6092460  19.7655340
  43.3017719 135.5948732  20.5978694  43.5181333 136.4773370  20.2967523
  42.8211786 135.2034946  19.8684336  38.0416940 138.5534445  27.1749439
  37.8961521 138.8674748  28.0673720  37.5642144 139.1719346  26.6220338
  39.9013323 135.5436993  27.2230329  39.8874892 134.6478087  26.8862626
  40.6185751 135.5507657  27.8568615  41.7539454 135.9774334  29.2683456
  41.4957232 136.8991404  29.2667786  41.2224494 135.5804768  29.9583920
  46.6985643 149.0825121  22.0473541  46.8722520 148.5171543  21.2947394
  47.1914534 149.8826016  21.8653031  32.5162603 141.0939790  30.1137100
  31.9716071 141.8699598  30.2457374  33.3941952 141.4410594  29.9556222
  39.3050219 134.4251374  22.4917899  39.4266130 133.4968020  22.6908786
  39.0152262 134.4390060  21.5796214  42.1741410 132.1106284  25.6284619
  42.1963106 132.1745617  24.6736598  42.5909469 131.2710793  25.8225125
  52.5525034 141.8461544  23.6663841  52.9956180 141.0968869  23.2682964
  51.6751544 141.8371680  23.2837573  47.6860815 148.3991885  19.1470440
  48.3811720 149.0198578  19.3657754  48.0283965 147.5487236  19.4222818
  33.3028624 140.2209686  33.0067257  32.5610361 140.3692321  33.5931887
  32.9821369 140.4817952  32.1434006  49.5852238 145.8491591  20.6757770
  50.1103563 146.1878863  19.9507090  49.4974591 144.9138606  20.4920905
  41.2472287 149.7625664  32.8047647  41.5559414 149.5174811  33.6770347
  42.0447769 149.9672303  32.3166517  38.7166771 147.4601583  27.1075325
  38.0946781 146.7972288  26.8077553  39.3871638 147.4862715  26.4248973
  38.7891299 135.9383371  36.7007831  38.8379454 136.8145494  36.3185601
  39.3313813 135.3960764  36.1279474  49.2746144 146.4824494  35.9808968
  48.4841688 146.4648633  35.4413468  49.0379499 147.0212788  36.7358005
  49.3944020 143.3316961  33.2941697  49.4442024 143.1666968  34.2357220
  49.2857943 142.4644220  32.9039578  46.6847782 139.3147889  34.6101004
  47.5857645 139.1754354  34.3185001  46.7595756 139.4802344  35.5499181
  41.0190587 136.6914743  33.4554190  40.1493897 136.9848310  33.1836778
  41.2550068 137.2755188  34.1761454  50.8962216 145.7513902  33.5383718
  50.6047025 146.1143883  34.3747179  50.2834348 145.0380910  33.3597051
  52.0957899 143.3166782  26.0586289  52.9304790 143.7556586  26.2223849
  52.2317027 142.8405435  25.2394534  49.1449405 140.8746517  32.0063776
  49.6203526 141.0674163  31.1982628  48.2214970 140.9305703  31.7607160
  43.7229621 132.9094360  30.9719610  44.2411565 133.6455387  30.6466099
  43.3684754 133.2158354  31.8066369  43.9742215 129.3294643  26.4920507
  44.2543969 128.6617832  27.1180933  44.7592822 129.5223739  25.9795171
  47.8451074 137.7512277  30.2392082  48.7968496 137.8510375  30.2604306
  47.6754524 136.9590545  30.7490166  45.8665453 134.8367860  30.4251483
  45.2715385 135.1172873  29.7297972  45.5815150 135.3261761  31.1968224
  47.6260960 148.1056657  16.1458063  47.5474592 147.7716521  17.0393821
  48.4470627 148.5978425  16.1449535  50.3239151 140.9718397  29.3534382
  50.2915471 140.0334397  29.5394065  50.9339775 141.0502433  28.6200207
  50.4733640 137.7629440  29.3992665  49.9572689 136.9787897  29.2122594
  51.3573588 137.4348157  29.5639184  48.1344367 131.5070456  25.3588478
  47.9369188 131.1985544  26.2431809  48.7444072 132.2332095  25.4886407
  56.1415701 142.0334403  28.4940418  56.8719090 141.7719692  29.0548122
  55.5322647 141.2963125  28.5342486  54.2230998 140.1742266  29.0914870
  53.4964162 140.0398231  28.4831361  53.8078285 140.4819095  29.8971588
  42.0461175 143.8932196  36.8562243  42.9664184 144.0710795  37.0502289
  42.0110758 142.9488241  36.7041942  31.2643340 139.0870789  25.7815517
  30.9446124 138.2336098  25.4889891  30.7176768 139.3019368  26.5373485
  35.0423247 141.8033230  29.4985024  35.2609257 142.7350338  29.5173058
  35.4549021 141.4441205  30.2839828  41.9627465 132.3101316  21.4860712
  41.1528193 131.9648401  21.8615958  42.6511882 132.0008859  22.0748324
  43.8918013 131.3879362  23.1085009  44.4449052 131.8074816  23.7675032
  44.1288100 130.4615111  23.1507965  39.9151113 137.3766436  38.8887773
  39.8147840 138.3260793  38.8199864  39.6972655 137.0484675  38.0163843
  39.1164184 134.6251361  15.4728450  39.9783348 134.9506259  15.7324267
  39.3014528 133.8382857  14.9601516  31.1331600 142.7073701  27.7508639
  30.4395071 142.2927654  27.2378593  31.8804591 142.7494237  27.1542058
  47.2696820 133.4979888  22.6163673  46.6895490 134.1564692  22.2341726
  47.0032753 132.6757232  22.2051091  45.7200387 132.8984945  24.8184993
  46.2200165 133.0101480  24.0099312  46.3635995 132.5945998  25.4585802
  39.7782383 140.8063575  37.7052834  39.2949464 141.6063935  37.9116723
  39.8643322 140.8171520  36.7520278  33.0468342 142.6391955  25.6274654
  33.0239030 142.7379642  24.6756537  33.3568979 143.4857105  25.9491820
  35.7055720 144.6968110  29.7421268  36.6598974 144.6652052  29.6751200
  35.5068244 144.2358733  30.5571494  36.2955102 143.2669226  32.3092066
  37.1147991 143.7613304  32.3326903  36.5691910 142.3501194  32.2809633
  46.0521699 135.6579978  21.6720021  45.1647554 135.9429629  21.4540216
  46.4675688 135.4973741  20.8247298  49.4036235 135.6826499  25.3874361
  50.1796625 136.1722951  25.6598977  48.6784369 136.1084553  25.8446230
  51.8408793 136.3954118  26.4448301  52.4353284 136.1549854  25.7341609
  51.9135377 135.6761249  27.0721838  46.0262722 141.1734514  21.8870312
  45.9697924 141.6303065  21.0477944  46.5791065 140.4125199  21.7093154
  49.8367528 136.9624246  22.7120431  49.5804462 136.5620881  23.5428639
  49.2120396 137.6768040  22.5870570  54.1479866 139.7020319  25.2191722
  53.5879424 139.7713508  25.9923285  53.5423369 139.5261304  24.4991219
  47.1051609 145.8607182  17.8166501  47.9397213 145.4288380  17.6343976
  46.9435952 145.6889196  18.7443396  46.7597502 142.3639295  19.1822841
  46.7046305 142.1983567  18.2411285  46.1343557 143.0715328  19.3385030
  31.5490017 137.6007360  33.0084263  32.1948880 137.0906314  33.4971488
  31.3407168 138.3376041  33.5827688  44.0743409 144.6688207  38.5076404
  44.9434568 144.8428859  38.1463038  43.5950160 145.4882624  38.3852133
  40.0693627 131.8647404  18.7608159  40.0572297 132.8089244  18.9176430
  40.9617049 131.6817550  18.4667620  43.8845746 128.4590181  23.0154096
  43.1178142 127.9048668  23.1610778  44.2956451 128.5312050  23.8768248
  35.8887508 134.7474977  37.1059277  36.7518969 134.3911781  37.3162602
  35.3152918 134.4088871  37.7934681  55.2877153 154.1028287  24.9874886
  56.0740242 153.6847710  24.6365303  55.5515857 155.0074379  25.1556535
  60.6885580 154.0403520  25.8907865  61.4210752 153.4702737  26.1245694
  59.9324936 153.6525120  26.3314370  58.2111000 147.7525094  30.3502473
  57.8794325 148.6220505  30.1263688  57.6156614 147.4361378  31.0296504
  51.9467187 151.4920661  18.0832556  52.1141589 152.3600898  18.4503027
  51.7564356 151.6547943  17.1593845  58.1039664 152.4720180  27.4295823
  57.1956541 152.4035589  27.1354584  58.0527260 152.9492125  28.2577649
  59.9701310 150.6736619  29.2073697  59.3275690 150.9669152  28.5613492
  59.4656239 150.5589539  30.0126894  57.6241474 154.4199792  19.8959557
  58.5359330 154.6527179  19.7207254  57.1151121 155.0036836  19.3334635
  52.2613312 153.7797027  30.9054406  53.1074507 154.2036440  31.0489055
  52.2011949 153.1230651  31.5992969  55.4112757 151.4401395  32.5635580
  55.1673689 152.1943455  32.0269855  55.6872687 151.8186742  33.3982827
  54.9677449 150.5957828  28.1449417  54.1061928 150.8939081  28.4366155
  54.9939883 150.8128227  27.2130450  66.5703041 157.2050711  25.7620174
  65.8166749 156.6358109  25.6064179  66.7050582 157.1713376  26.7090809
  48.4469008 148.1555693  38.0989249  48.0535954 147.6021892  38.7736893
  49.2635149 148.4666272  38.4895766  51.3636969 149.5713572  35.6909505
  52.1046683 150.1720726  35.6113968  51.5954892 148.8291210  35.1327548
  55.3094132 145.5994675  29.9673787  54.9658402 146.4896317  29.8912898
  55.6773095 145.4096333  29.1043372  52.8591526 150.4352987  23.5331460
  52.0033122 150.0459838  23.3537099  53.2718478 150.5144948  22.6731246
  54.3890673 147.9699330  27.9323020  53.8855468 147.9329466  27.1190825
  54.6821280 148.8792073  27.9919677  50.6333559 148.0538060  26.9389202
  51.4986555 147.8580869  26.5795091  50.7011067 147.8248412  27.8658559
  55.0630718 153.4630379  20.3006003  54.7580854 153.7776528  21.1516146
  56.0161160 153.5411798  20.3433336  48.2395878 150.2840268  24.3105569
  48.8139630 150.0615450  23.5778762  48.8266860 150.3528963  25.0634170
  50.5418545 147.1581517  23.0380638  49.8882958 146.8430534  22.4137253
  50.4999019 146.5357258  23.7640461  53.7756286 153.6463451  27.3628286
  52.8578847 153.8678398  27.2049974  54.1916429 153.7209761  26.5039993
  57.0070171 152.0811983  24.4749755  56.2692927 151.5689369  24.8059998
  57.2596944 151.6412364  23.6633032  57.1081798 144.8588235  25.0691525
  57.4140675 143.9985598  24.7817440  57.8334403 145.4505855  24.8690519
  54.9169449 154.2360912  32.1672988  55.2718837 154.4632385  33.0267454
  55.5641580 154.5679289  31.5450244  48.8109312 151.3437443  28.9519330
  49.4508692 151.2026202  28.2542293  47.9786843 151.0571956  28.5757932
  53.1888426 149.3537466  32.9156802  52.5416341 150.0527416  32.8221278
  53.9589442 149.7873610  33.2833050  49.0301586 152.7003305  32.9672897
  48.4938943 152.2494044  33.6194493  48.4418294 152.8349214  32.2243361
  54.9364421 150.3212876  25.4196087  55.4333121 149.5682839  25.0997157
  54.1651403 150.3577193  24.8539296  62.7894179 156.0253242  27.0614378
  62.7784055 156.9077957  26.6908311  61.9211558 155.6724793  26.8668915
  51.5199390 152.4630259  25.1467771  51.1497177 151.9101300  25.8348677
  52.0158482 151.8588393  24.5942771  59.4066753 154.9201883  23.5284544
  59.8727205 155.7529875  23.4544847  59.8574254 154.4546864  24.2329803
  57.3783416 147.2882470  27.5675446  56.4646496 147.5186697  27.7357652
  57.8076517 147.3720914  28.4189478  57.1489874 155.4772362  30.0675340
  56.4961325 155.7248269  29.4127792  57.5270254 154.6636500  29.7337817
  46.9164724 149.8734250  31.3920877  46.9806050 150.7349081  30.9798275
  46.8531844 149.2608252  30.6593236  46.3916996 151.9457383  35.0393912
  47.0189035 151.5634460  35.6531436  45.5344915 151.7271585  35.4049604
  49.5003099 149.1644235  33.2280467  50.0237501 149.4106531  33.9906776
  49.2815433 149.9964270  32.8083604  44.8970380 151.4347910  21.0951592
  44.5683087 150.5545288  20.9126698  45.2509751 151.3795578  21.9827981
  48.0112204 151.7220879  21.4627069  48.3508276 152.2506801  20.7405678
  48.4584324 152.0601285  22.2385636  50.7055644 150.1057930  30.9130137
  50.3652465 149.3065743  31.3150817  49.9994651 150.4059641  30.3406971
  51.3572116 147.1907242  29.3657460  52.1798186 146.7167721  29.2436351
  51.6010180 147.9697726  29.8656147  49.9980351 150.2195501  19.6620362
  50.7188713 150.5976754  19.1584079  49.3745655 150.9384378  19.7655340
  54.1411474 150.9240650  20.5978694  54.3575088 151.8065288  20.2967523
  53.6605541 150.5326863  19.8684336  50.7407078 150.8728911  27.2230329
  50.7268647 149.9770004  26.8862626  51.4579506 150.8799575  27.8568615
  52.5933209 151.3066251  29.2683456  52.3350986 152.2283322  29.2667786
  52.0618249 150.9096686  29.9583920  50.1443974 149.7543291  22.4917899
  50.2659885 148.8259938  22.6908786  49.8546016 149.7681977  21.5796214
  53.0135164 147.4398202  25.6284619  53.0356861 147.5037535  24.6736598
  53.4303223 146.6002710  25.8225125  63.3918788 157.1753461  23.6663841
  63.8349935 156.4260787  23.2682964  62.5145299 157.1663598  23.2837573
  49.6285053 151.2675289  36.7007831  49.6773209 152.1437412  36.3185601
  50.1707568 150.7252682  36.1279474  57.5241536 154.6439806  34.6101004
  58.4251399 154.5046271  34.3185001  57.5989511 154.8094261  35.5499181
  51.8584342 152.0206661  33.4554190  50.9887651 152.3140227  33.1836778
  52.0943822 152.6047106  34.1761454  59.9843159 156.2038434  32.0063776
  60.4597281 156.3966081  31.1982628  59.0608724 156.2597620  31.7607160
  54.5623376 148.2386278  30.9719610  55.0805319 148.9747305  30.6466099
  54.2078508 148.5450271  31.8066369  54.8135970 144.6586561  26.4920507
  55.0937724 143.9909750  27.1180933  55.5986577 144.8515656  25.9795171
  58.6844828 153.0804195  30.2392082  59.6362251 153.1802292  30.2604306
  58.5148279 152.2882463  30.7490166  56.7059208 150.1659778  30.4251483
  56.1109140 150.4464791  29.7297972  56.4208904 150.6553679  31.1968224
  61.1632906 156.3010314  29.3534382  61.1309226 155.3626315  29.5394065
  61.7733530 156.3794351  28.6200207  61.3127394 153.0921358  29.3992665
  60.7966443 152.3079814  29.2122594  62.1967343 152.7640074  29.5639184
  58.9738121 146.8362373  25.3588478  58.7762942 146.5277461  26.2431809
  59.5837827 147.5624012  25.4886407  66.9809456 157.3626321  28.4940418
  67.7112844 157.1011609  29.0548122  66.3716401 156.6255043  28.5342486
  65.0624753 155.5034184  29.0914870  64.3357916 155.3690149  28.4831361
  64.6472040 155.8111012  29.8971588  52.8021220 147.6393233  21.4860712
  51.9921948 147.2940318  21.8615958  53.4905637 147.3300777  22.0748324
  54.7311768 146.7171280  23.1085009  55.2842807 147.1366734  23.7675032
  54.9681854 145.7907028  23.1507965  50.7544867 152.7058354  38.8887773
  50.6541594 153.6552711  38.8199864  50.5366409 152.3776593  38.0163843
  49.9557939 149.9543279  15.4728450  50.8177103 150.2798177  15.7324267
  50.1408283 149.1674775  14.9601516  58.1090575 148.8271805  22.6163673
  57.5289244 149.4856609  22.2341726  57.8426508 148.0049150  22.2051091
  56.5594141 148.2276863  24.8184993  57.0593920 148.3393398  24.0099312
  57.2029749 147.9237916  25.4585802  56.8915453 150.9871896  21.6720021
  56.0041308 151.2721546  21.4540216  57.3069442 150.8265659  20.8247298
  60.2429989 151.0118417  25.3874361  61.0190379 151.5014869  25.6598977
  59.5178123 151.4376471  25.8446230  62.6802548 151.7246036  26.4448301
  63.2747039 151.4841772  25.7341609  62.7529131 151.0053166  27.0721838
  60.6761283 152.2916163  22.7120431  60.4198217 151.8912799  23.5428639
  60.0514151 153.0059957  22.5870570  64.9873621 155.0312237  25.2191722
  64.4273179 155.1005426  25.9923285  64.3817124 154.8553221  24.4991219
  50.9087382 147.1939322  18.7608159  50.8966051 148.1381162  18.9176430
  51.8010803 147.0109467  18.4667620  54.7239501 143.7882099  23.0154096
  53.9571897 143.2340585  23.1610778  55.1350206 143.8603967  23.8768248
  46.7281262 150.0766894  37.1059277  47.5912724 149.7203699  37.3162602
  46.1546673 149.7380789  37.7934681   9.6670357  73.1733565  20.5314715
   9.6558998  72.7786363  19.6595219   9.8290997  72.4399637  21.1248487
   6.3877618  75.9570677  19.4793899   6.0967484  76.8616307  19.3640565
   7.0234603  75.9987204  20.1937969  11.3467503  75.6432092  16.4743693
  11.0468226  76.5457131  16.3659500  11.0018563  75.3764275  17.3264846
   8.8205513  69.5804278  22.0976027   8.0438847  70.1398198  22.0878892
   9.4596076  70.0661061  22.6190897   7.0751885  72.3889731  21.6593994
   7.8166570  72.9274775  21.3828818   6.3688871  73.0156020  21.8165546
  12.5507225  74.5318872  20.2566156  12.9590581  74.0901282  19.5120788
  11.8284486  73.9571499  20.5100349   8.9038295  69.4691478  17.6299713
   9.7499490  69.8930892  17.7734362   8.8436933  68.8125103  18.3238276
  12.8736039  75.0920062  14.0118445  12.2444902  75.2565776  13.3094513
  12.4861702  75.5061672  14.7829409  16.7525271  76.0274500  11.3662808
  16.0676309  76.4073401  10.8159842  16.8369121  76.6369827  12.0994756
  12.0537740  67.1295847  19.2880886  11.8098672  67.8837907  18.7515162
  12.3297671  67.5081194  20.1228133  14.0076203  73.6734459  17.9658152
  14.2193098  74.3166219  17.2892533  13.9605951  72.8396776  17.4980082
   5.8113249  69.5429379  22.4609304   5.1811909  70.2245660  22.6944701
   5.7049337  69.4312461  21.5162443  15.1222031  76.5506415  16.1380509
  15.9439475  76.1486602  15.8563191  15.1184434  76.4474649  17.0896625
   8.8878634  76.0990458  18.2941220   8.9523067  76.5610865  19.1299392
   8.1789558  75.4687823  18.4223530  23.2128024  72.8945163  12.4865481
  22.4591732  72.3252561  12.3309485  23.3475565  72.8607828  13.4336115
   5.0893992  63.8450145  24.8234555   4.6960937  63.2916344  25.4982200
   5.9060132  64.1560724  25.2141073   8.0061953  65.2608024  22.4154812
   8.7471666  65.8615177  22.3359274   8.2379875  64.5185662  21.8572854
   3.1503291  70.4464392  20.6933042   3.0356806  69.5449649  20.9940141
   2.2947808  70.6928088  20.3417858  10.2295128  78.3882132  22.2920542
   9.7858983  77.6018510  21.9741447  10.8912342  78.5761282  21.6264433
   4.9882250  79.9177933  16.8181221   5.5389675  79.7894997  16.0458215
   4.1493725  80.2172822  16.4676114  12.3276366  78.6684932  20.3201943
  12.3094842  79.4893813  19.8282213  13.2496286  78.5439007  20.5452085
   8.7849421  76.1829061  21.1625452   9.3177757  75.4217349  20.9324760
   8.2563502  75.8902713  21.9049606  15.1294979  73.5064074  13.7911310
  14.4718654  74.1963336  13.8791439  15.9335379  73.8960506  14.1345297
  13.1495174  78.6790945  10.9044213  13.4418148  79.2396002  10.1856578
  13.6593794  78.9719506  11.6597372  11.5594433  69.9255364  18.8918295
  11.9143820  70.1526837  19.7512761  12.2066564  70.2573740  18.2695550
  17.3161549  75.1150327  14.6078896  17.7498056  75.0225616  15.4561950
  18.0293130  75.0907827  13.9698912  11.0489444  78.7152421  16.1411996
  11.1026466  79.2843357  16.9089712  10.1804225  78.8854306  15.7766033
  18.1777099  75.1574027  17.1411781  18.3712989  76.0619838  17.3871056
  18.0777717  74.6981446  17.9750366   9.8313409  65.0431918  19.6402108
   9.1841324  65.7421867  19.5466585  10.6014425  65.4768062  20.0078357
  13.2392207  75.3080770  22.7152662  13.0877714  75.0791322  21.7982745
  13.2296887  76.2651371  22.7284007  10.0077544  72.8812683  17.6998928
  10.9369604  73.0323842  17.5267895   9.5868574  72.9696704  16.8447575
   8.8065876  76.9063347  15.4697466   8.6676961  76.5382132  16.3423404
   8.0180472  77.4210987  15.2981424   4.3315335  71.6912580  18.3838885
   4.1935133  70.9592819  18.9850424   5.2420258  71.6021480  18.1023072
   6.9597635  71.4032539  17.8722564   7.6697254  70.7625731  17.8309183
   6.9166943  71.6545434  18.7948745  14.9484414  78.3399893  20.7929144
  14.8896960  77.6559113  20.1259727  15.3503932  79.0818883  20.3409770
  14.9501821  76.3039476  19.0243123  14.0628600  75.9665398  19.1469522
  15.5200372  75.5722508  19.2611889   8.4802975  80.9640929  15.9904366
   8.4073146  81.7695900  16.5023671   8.0380368  81.1632895  15.1652388
  19.4319162  71.7147694  13.7859685  19.4209038  72.5972409  13.4153618
  18.5636541  71.3619245  13.5914222  10.9401658  80.8627763  18.1462525
  11.6529630  81.4975228  18.0738427  10.4491687  80.9591629  17.3302527
   5.9913572  78.6122206  18.9668096   6.6923031  79.2458689  19.1197490
   5.5208687  78.9536938  18.2063735  13.7914858  71.1666814  16.7920646
  13.1386308  71.4142721  16.1373099  14.1695238  70.3530952  16.4583124
  10.7522032  81.2026507  10.8948817  10.9344426  80.3848163  11.3576569
  11.5755018  81.4194199  10.4573707   9.8402431  71.9086625  23.2786683
   9.1643068  71.8080754  23.9489059  10.6630065  71.7525839  23.7422681
   1.5881290  78.1458561  15.8999199   2.1734727  77.4002249  16.0327103
   1.3906128  78.4562518  16.7835862   8.5825214  83.2153552  17.5144299
   9.1343522  83.3785174  18.2793385   8.9231407  83.8057990  16.8424324
   3.0341979  67.6351835  21.7639218   3.6614018  67.2528912  22.3776743
   2.1769898  67.4166037  22.1294911  13.4336088  78.0414810  23.3692954
  13.9775992  78.6544768  22.8747909  12.8522933  78.5994388  23.8859967
  11.7193601  81.1635528  14.5007981  11.5944740  80.3625268  13.9918927
  12.3772692  81.6581721  14.0121951  13.7828509  78.9644548  16.1287532
  12.8358845  78.8449899  16.0565858  14.1311282  78.0767046  16.2113793
  10.7874943  78.7597264  12.3291884  10.6399905  77.8313972  12.5099454
  11.6128436  78.7817355  11.8448959  14.3909064  79.5825823  13.4156757
  15.3155612  79.3768684  13.2781208  14.2224368  79.3342224  14.3246098
   8.7291025  80.7812034  19.5292954   9.0378151  80.5361181  20.4015653
   9.5266507  80.9858672  19.0411824   8.7511637  82.9349944  11.7598330
   8.3116627  82.4426322  12.4531187   9.5019754  82.3922911  11.5190405
   6.2710037  66.9569741  23.4253138   6.3198192  67.8331863  23.0430908
   6.8132551  66.4147134  22.8524781  16.7564882  77.5010864  22.7054275
  15.9660426  77.4835003  22.1658774  16.5198237  78.0399158  23.4603312
  16.8762757  74.3503330  20.0187004  16.9260762  74.1853338  20.9602526
  16.7676681  73.4830589  19.6284884  14.1666520  70.3334258  21.3346310
  15.0676382  70.1940723  21.0430308  14.2414494  70.4988713  22.2744488
   8.5009325  67.7101113  20.1799497   7.6312634  68.0034679  19.9082085
   8.7368805  68.2941558  20.9006760  18.3780954  76.7700272  20.2629025
  18.0865762  77.1330252  21.0992486  17.7653085  76.0567280  20.0842357
  19.5776636  74.3353152  12.7831595  20.4123528  74.7742956  12.9469156
  19.7135765  73.8591805  11.9639841  16.6268142  71.8932886  18.7309083
  17.1022264  72.0860533  17.9227934  15.7033708  71.9492072  18.4852467
  15.3269811  68.7698646  16.9637389  16.2787234  68.8696744  16.9849613
  15.1573262  67.9776915  17.4735473  17.8057889  71.9904766  16.0779688
  17.7734209  71.0520767  16.2639372  18.4158513  72.0688803  15.3445513
  17.9552378  68.7815810  16.1237972  17.4391426  67.9974266  15.9367900
  18.8392326  68.4534526  16.2884491  23.6234439  73.0520773  15.2185725
  24.3537827  72.7906061  15.7793428  23.0141384  72.3149495  15.2587793
  21.7049736  71.1928636  15.8160176  20.9782900  71.0584601  15.2076668
  21.2897023  71.5005464  16.6216894   9.5279913  74.9118565  23.5807549
  10.4482922  75.0897164  23.7747596   9.4929496  73.9674611  23.4287249
   7.3969850  68.3952806  25.6133079   7.2966577  69.3447163  25.5445171
   7.1791392  68.0671045  24.7409150   7.2601120  71.8249945  24.4298141
   6.7768202  72.6250305  24.6362030   7.3462060  71.8357889  23.4765585
   3.1874458  75.7154479  16.4666575   4.1417712  75.6838422  16.3996506
   2.9886982  75.2545103  17.2816801   3.7773840  74.2855595  19.0337373
   4.5966729  74.7799674  19.0572210   4.0510648  73.3687563  19.0054940
   4.6993813  82.1543416  13.6955215   4.5826197  83.0988848  13.5933906
   3.8786259  81.8516977  14.0841015  11.5562147  75.6874577  25.2321710
  12.4253306  75.8615229  24.8708345  11.0768898  76.5068993  25.1097440
   5.7248327  82.8071678  16.9111144   6.6275573  82.8395288  17.2277639
   5.4985697  81.8772129  16.9257480   7.4801929  81.5602664  13.5721222
   6.5297560  81.5604526  13.4585595   7.7834415  80.8135399  13.0557257
   3.3706245  65.7661346  23.8304584   4.2337707  65.4098151  24.0407908
   2.7971656  65.4275241  24.5179988  23.2154622  87.3963203  14.6366985
  23.8533032  87.2769950  13.9330325  23.0975465  88.3444047  14.6954937
  20.0244329  87.3490631  14.5728510  19.6862840  87.2331695  13.6849044
  20.8934097  86.9481796  14.5529516  15.8831144  89.2026107  10.5625400
  15.3196009  89.1116044   9.7941688  15.7683539  88.3826012  11.0427893
  20.5064112  88.5025482  20.5314715  20.4952752  88.1078281  19.6595219
  20.6684751  87.7691555  21.1248487  13.4295576  90.6977299  13.4009621
  14.2216868  90.3568123  12.9855920  13.6692226  90.8072274  14.3211774
  17.2271373  91.2862594  19.4793899  16.9361239  92.1908225  19.3640565
  17.8628357  91.3279122  20.1937969  18.1527580  88.6639443  16.0695259
  18.7491152  88.4395465  15.3552222  18.2102551  87.9224188  16.6720707
  22.7695891  85.1214656  11.7120193  23.5558980  84.7034080  11.3610610
  23.0334595  86.0260749  11.8801841  22.9405968  90.5587507   6.4108850
  22.3051801  90.6322133   7.1229754  22.6103375  91.1481106   5.7327929
  28.1704318  85.0589890  12.6153171  28.9029490  84.4889106  12.8491001
  27.4143674  84.6711490  13.0559677  19.7880438  87.4817131   9.8116514
  19.4238645  86.9547752  10.5229435  20.6447554  87.0915600   9.6382999
  25.6929738  78.7711464  17.0747780  25.3613063  79.6406875  16.8508995
  25.0975352  78.4547748  17.7541810  22.1861258  90.9724010  16.4743693
  21.8861981  91.8749049  16.3659500  21.8412317  90.7056193  17.3264846
  15.6373739  87.4237807  12.5080397  14.7124236  87.2914021  12.7158089
  15.8858152  88.2032026  13.0050340  25.5858402  83.4906550  14.1541130
  24.6775279  83.4221958  13.8599891  25.5345997  83.9678495  14.9822956
  19.4075145  84.9664688   5.7924529  19.2874771  85.4121739   6.6310009
  18.7127734  85.3150006   5.2338067  12.9982550  87.0671080  13.3424186
  13.1274931  87.3205559  14.2563598  12.3180002  87.6598788  13.0228841
  19.6599267  84.9096195  22.0976027  18.8832601  85.4690116  22.0878892
  20.2989830  85.3952978  22.6190897  27.4520048  81.6922988  15.9319004
  26.8094428  81.9855521  15.2858799  26.9474976  81.5775909  16.7372201
  25.1060212  85.4386161   6.6204863  26.0178068  85.6713548   6.4452561
  24.5969859  86.0223206   6.0579942  17.9145640  87.7181649  21.6593994
  18.6560324  88.2566693  21.3828818  17.2082625  88.3447938  21.8165546
  23.3900979  89.8610789  20.2566156  23.7984335  89.4193200  19.5120788
  22.6678241  89.2863417  20.5100349  19.7432049  84.7983396  17.6299713
  20.5893245  85.2222810  17.7734362  19.6830687  84.1417020  18.3238276
  23.7129794  90.4211980  14.0118445  23.0838656  90.5857694  13.3094513
  23.3255456  90.8353589  14.7829409  27.5919026  91.3566418  11.3662808
  26.9070064  91.7365319  10.8159842  27.6762875  91.9661744  12.0994756
  22.8931495  82.4587764  19.2880886  22.6492427  83.2129825  18.7515162
  23.1691425  82.8373112  20.1228133  24.8469957  89.0026377  17.9658152
  25.0586853  89.6458137  17.2892533  24.7999706  88.1688693  17.4980082
  22.4496186  81.6144197  14.8694724  21.5880665  81.9125451  15.1611462
  22.4758621  81.8314596  13.9375757  19.2657756  90.1586388  11.2768530
  19.7296101  90.4374091  10.4873152  19.0014554  89.2569833  11.0941620
  16.1581837  89.7057870  14.2148293  16.7283194  90.1345138  13.5765778
  16.7489949  89.4240454  14.9132479  18.2026642  86.2809540   8.0858095
  18.9050685  86.7330584   8.5532021  17.8707270  85.6393359   8.7137988
  16.6507003  84.8721297  22.4609304  16.0205664  85.5537578  22.6944701
  16.5443091  84.7604379  21.5162443  11.9451976  84.5393093  13.3875228
  11.1551030  84.7950622  12.9115339  12.4363223  85.3541431  13.4927269
  25.9615785  91.8798332  16.1380509  26.7833229  91.4778520  15.8563191
  25.9578188  91.7766566  17.0896625  13.8966721  84.9037672  10.3458705
  13.0997884  85.0156367  10.8642201  13.6692313  85.2424325   9.4799596
  19.7272389  91.4282376  18.2941220  19.7916821  91.8902783  19.1299392
  19.0183313  90.7979740  18.4223530  10.2289679  84.7923584  15.8190219
  10.4797717  85.6770593  16.0847795  10.7649227  84.6128185  15.0465311
  34.0521778  88.2237081  12.4865481  33.2985487  87.6544479  12.3309485
  34.1869320  88.1899745  13.4336115  19.4420406  93.0950483   8.1620200
  19.3066081  93.9402019   8.5905048  19.9830219  93.2969761   7.3986134
  15.9287746  79.1742063  24.8234555  15.5354692  78.6208261  25.4982200
  16.7453886  79.4852641  25.2141073  18.8455707  80.5899942  22.4154812
  19.5865420  81.1907095  22.3359274  19.0773630  79.8477580  21.8572854
  13.9897045  85.7756309  20.6933042  13.8750560  84.8741566  20.9940141
  13.1341563  86.0220006  20.3417858  21.0688883  93.7174050  22.2920542
  20.6252737  92.9310428  21.9741447  21.7306096  93.9053200  21.6264433
  15.8276004  95.2469851  16.8181221  16.3783429  95.1186914  16.0458215
  14.9887480  95.5464740  16.4676114  23.1670121  93.9976849  20.3201943
  23.1488596  94.8185731  19.8282213  24.0890041  93.8730925  20.5452085
  19.6243175  91.5120979  21.1625452  20.1571512  90.7509267  20.9324760
  19.0957256  91.2194631  21.9049606  22.7912870  76.6181045  16.6919094
  22.4477139  77.5082687  16.6158204  23.1591833  76.4282703  15.8288679
  22.7563153  86.6089656   5.1991529  22.2409776  87.3794261   5.4379916
  22.4840461  85.9354792   5.8224590  20.3410264  81.4539357  10.2576767
  19.4851860  81.0646207  10.0782406  20.7537216  81.5331318   9.3976553
  21.8709410  78.9885700  14.6568327  21.3674206  78.9515835  13.8436132
  22.1640017  79.8978443  14.7164984  18.1152296  79.0724430  13.6634509
  18.9805293  78.8767238  13.3040398  18.1829805  78.8434782  14.5903865
  27.7297427  89.3622011   7.1344702  26.9526870  89.0233170   6.6899864
  28.4088908  89.3674634   6.4599667  22.5449456  84.4816748   7.0251310
  22.2399592  84.7962897   7.8761453  23.4979898  84.5598168   7.0678643
  20.9895888  90.6406971   8.6744264  20.4617249  89.9059731   8.3617501
  20.4883391  91.4181648   8.4284232  25.9688734  88.8355992  13.7911310
  25.3112408  89.5255253  13.8791439  26.7729133  89.2252424  14.1345297
  15.7214615  81.3026638  11.0350875  16.2958367  81.0801819  10.3024068
  16.3085598  81.3715332  11.7879477  24.7794193  87.1900365  11.8415252
  25.2926074  87.8230356  12.3436962  25.4295416  86.5901560  11.4758612
  18.0237283  78.1767887   9.7625945  17.3701695  77.8616904   9.1382560
  17.9817757  77.5543627  10.4885768  21.2575023  84.6649820  14.0873592
  20.3397585  84.8864767  13.9295281  21.6735167  84.7396131  13.2285300
  22.0410071  86.0641236   9.2176273  22.7881890  86.5762633   8.9083395
  22.3101661  85.7425289  10.0780666  20.3136721  88.5599777   6.2003227
  19.4047941  88.2758809   6.2975697  20.3431805  88.9798855   5.3406534
  25.5455989  92.1706366   9.9694395  25.0918316  91.3297276  10.0259585
  24.9149956  92.8067764  10.3069175  24.4888908  83.0998352  11.1995062
  23.7511665  82.5875738  11.5305305  24.7415682  82.6598734  10.3878339
  23.9888928  94.0082863  10.9044213  24.2811902  94.5687920  10.1856578
  24.4987549  94.3011424  11.6597372  24.5900536  75.8774604  11.7936831
  24.8959413  75.0171968  11.5062746  25.3153141  76.4692224  11.5935825
  18.8621615  86.1728397  12.3013022  18.9170225  85.2202234  12.2255499
  18.0512817  86.3287836  12.7854321  16.8013975  84.7905457  10.0603401
  15.9881841  85.0899627  10.4668593  17.2972970  84.3961146  10.7777883
  18.9522553  94.7863214  11.9937666  18.9098732  95.0124060  11.0646198
  19.8685252  94.5526588  12.1423467  22.3988187  85.2547281  18.8918295
  22.7537575  85.4818755  19.7512761  23.0460318  85.5865658  18.2695550
  28.1285924  88.3765717   9.5967624  27.9903823  88.5667313   8.6688813
  27.7722143  89.1385100  10.0535675  16.2928050  82.3623812  15.6764636
  16.9327429  82.2212572  14.9787599  15.4605581  82.0758326  15.3003238
  28.1555304  90.4442244  14.6078896  28.5891810  90.3517533  15.4561950
  28.8686884  90.4199745  13.9698912  17.0688354  91.6626243  11.7899629
  17.8628953  91.1676563  11.5882204  16.3580046  91.1344106  11.4267334
  21.8883199  94.0444338  16.1411996  21.9420221  94.6135275  16.9089712
  21.0197980  94.2146223  15.7766033  13.2956667  82.3324137  10.4537623
  13.5563484  83.2469471  10.3446783  14.1173839  81.8648580  10.6034236
  14.7681592  83.7461895  17.6236447  15.4404645  83.5379257  16.9749096
  13.9411378  83.5483981  17.1841680  29.0170853  90.4865945  17.1411781
  29.2106743  91.3911755  17.3871056  28.9171471  90.0273364  17.9750366
  20.6707164  80.3723835  19.6402108  20.0235079  81.0713785  19.5466585
  21.4408179  80.8059979  20.0078357  24.0785962  90.6372688  22.7152662
  23.9271468  90.4083239  21.7982745  24.0690641  91.5943289  22.7284007
  20.8471298  88.2104600  17.6998928  21.7763358  88.3615760  17.5267895
  20.4262328  88.2988621  16.8447575  19.6459630  92.2355265  15.4697466
  19.5070716  91.8674049  16.3423404  18.8574226  92.7502904  15.2981424
  21.1964845  91.6136868  12.8586304  20.8614678  91.5737637  13.7543953
  20.6968791  90.9481583  12.3856714  15.1709089  87.0204498  18.3838885
  15.0328887  86.2884736  18.9850424  16.0814013  86.9313398  18.1023072
  24.1324037  88.9592902   3.1323363  23.5153207  88.2339730   3.0356416
  23.6640525  89.7202262   2.7890437  17.7991390  86.7324457  17.8722564
  18.5091008  86.0917649  17.8309183  17.7560698  86.9837352  18.7948745
  25.7878168  93.6691810  20.7929144  25.7290715  92.9851030  20.1259727
  26.1897687  94.4110800  20.3409770  16.5120324  83.7189675  19.6918204
  15.9757681  83.2680413  20.3439800  15.9237032  83.8535584  18.9488668
  25.7895576  91.6331394  19.0243123  24.9022355  91.2957316  19.1469522
  26.3594127  90.9014425  19.2611889  12.2459445  82.8545682  16.7771198
  12.1617634  82.2471352  16.0421608  11.4242151  83.3454701  16.7780695
  19.3196729  96.2932846  15.9904366  19.2466901  97.0987818  16.5023671
  18.8774122  96.4924812  15.1652388  22.4183159  81.3399246  12.1441393
  22.9151858  80.5869208  11.8242464  21.6470140  81.3763563  11.5784603
  30.2712916  87.0439612  13.7859685  30.2602793  87.9264327  13.4153618
  29.4030296  86.6911162  13.5914222  21.7795413  96.1919681  18.1462525
  22.4923385  96.8267145  18.0738427  21.2885441  96.2883547  17.3302527
  23.5012940  90.0970933   9.7179817  22.5669218  90.2172396   9.5484521
  23.6789608  89.1943400   9.4539827  19.0018128  83.4816629  11.8713078
  18.6315915  82.9287669  12.5593984  19.4977220  82.8774762  11.3188078
  26.8885491  85.9388252  10.2529851  27.3545943  86.7716244  10.1790154
  27.3392991  85.4733234  10.9575109  16.8307326  93.9414124  18.9668096
  17.5316786  94.5750607  19.1197490  16.3602441  94.2828856  18.2063735
  24.9561722  92.2832074   7.2516003  25.2321566  92.1688668   8.1609877
  24.0866221  91.8849559   7.2128176  24.8602154  78.3068839  14.2920752
  23.9465233  78.5373066  14.4602959  25.2895255  78.3907284  15.1434785
  24.6308612  86.4958731  16.7920646  23.9780062  86.7434639  16.1373099
  25.0088992  85.6822870  16.4583124  21.5915786  96.5318425  10.8948817
  21.7738181  95.7140081  11.3576569  22.4148772  96.7486117  10.4573707
  21.9257952  95.4586610   8.1563865  22.4545718  94.9479064   7.5434027
  22.1886171  95.1429140   9.0209398  20.6796185  87.2378543  23.2786683
  20.0036822  87.1372672  23.9489059  21.5023819  87.0817756  23.7422681
  12.4275044  93.4750479  15.8999199  13.0128481  92.7294167  16.0327103
  12.2299883  93.7854436  16.7835862   7.0192699  86.0456079  14.6203642
   7.0576799  85.5119670  15.4140760   6.5132992  85.5191285  14.0014619
  19.4218968  98.5445470  17.5144299  19.9737276  98.7077091  18.2793385
  19.7625162  99.1349908  16.8424324  14.3983461  80.8920620  18.1166184
  14.4624788  81.7535451  17.7043582  14.3350582  80.2794621  17.3838543
  13.8735734  82.9643752  21.7639218  14.5007773  82.5820830  22.3776743
  13.0163653  82.7457954  22.1294911  24.2729842  93.3706727  23.3692954
  24.8169746  93.9836686  22.8747909  23.6916687  93.9286306  23.8859967
  22.5587355  96.4927445  14.5007981  22.4338495  95.6917185  13.9918927
  23.2166446  96.9873639  14.0121951  14.1795524  82.8476178  13.6785122
  13.4582109  83.4612146  13.5392595  14.9688779  83.3833943  13.6001768
  24.6222264  94.2936466  16.1287532  23.6752599  94.1741817  16.0565858
  24.9705037  93.4058964  16.2113793  16.9821837  80.1830604  19.9525773
  17.5056239  80.4292901  20.7152083  16.7634170  81.0150639  19.5328911
  21.6268697  94.0889182  12.3291884  21.4793659  93.1605889  12.5099454
  22.4522191  94.1109272  11.8448959  15.4930941  82.7407249   8.1872376
  15.8327014  83.2693170   7.4650984  15.9403062  83.0787655   8.9630942
  25.2302819  94.9117741  13.4156757  26.1549366  94.7060602  13.2781208
  25.0618122  94.6634142  14.3246098  18.1874382  81.1244300  17.6375444
  17.8471203  80.3252113  18.0396124  17.4813388  81.4246010  17.0652277
  18.8390854  78.2093612  16.0902767  19.6616923  77.7354090  15.9681657
  19.0828917  78.9884096  16.5901453  21.6230211  81.9427019   7.3224001
  21.8393826  82.8251657   7.0212829  21.1424278  81.5513233   6.5929643
  16.3629433  84.9012733  13.8994746  16.2174013  85.2153036  14.7919027
  15.8854636  85.5197633  13.3465644  18.2225816  81.8915281  13.9475635
  18.2087384  80.9956374  13.6107933  18.9398244  81.8985944  14.5813921
  20.0751946  82.3252621  15.9928763  19.8169724  83.2469691  15.9913093
  19.5436987  81.9283055  16.6829227  25.0198135  95.4303408   8.7718848
  25.1935013  94.8649830   8.0192700  25.5127026  96.2304303   8.5898338
  10.8375095  87.4418077  16.8382407  10.2928563  88.2177885  16.9702681
  11.7154445  87.7888882  16.6801528  17.6262712  80.7729661   9.2163205
  17.7478623  79.8446307   9.4154093  17.3364754  80.7868347   8.3041521
  20.4953902  78.4584571  12.3529925  20.5175599  78.5223904  11.3981905
  20.9121961  77.6189080  12.5470431  30.8737526  88.1939831  10.3909148
  31.3168672  87.4447156   9.9928271  29.9964037  88.1849967  10.0082880
  26.0073308  94.7470172   5.8715746  26.7024212  95.3676865   6.0903061
  26.3496458  93.8965524   6.1468124  11.6241117  86.5687973  19.7312564
  10.8822853  86.7170609  20.3177194  11.3033861  86.8296239  18.8679313
  27.9064731  92.1969878   7.4003077  28.4316055  92.5357151   6.6752397
  27.8187083  91.2616893   7.2166212  19.5684779  96.1103952  19.5292954
  19.8771906  95.8653098  20.4015653  20.3660261  96.3150590  19.0411824
  19.5905391  98.2641861  11.7598330  19.1510382  97.7718240  12.4531187
  20.3413508  97.7214829  11.5190405  17.0379264  93.8079870  13.8320632
  16.4159273  93.1450575  13.5322860  17.7084130  93.8341002  13.1494280
  17.1103791  82.2861658  23.4253138  17.1591947  83.1623781  23.0430908
  17.6526305  81.7439051  22.8524781  27.5958637  92.8302782  22.7054275
  26.8054180  92.8126920  22.1658774  27.3591991  93.3691075  23.4603312
  27.7156512  89.6795248  20.0187004  27.7654517  89.5145255  20.9602526
  27.6070435  88.8122507  19.6284884  25.0060274  85.6626176  21.3346310
  25.9070137  85.5232641  21.0430308  25.0808249  85.8280631  22.2744488
  19.3403080  83.0393031  20.1799497  18.4706389  83.3326597  19.9082085
  19.5762560  83.6233476  20.9006760  29.2174709  92.0992189  20.2629025
  28.9259517  92.4622170  21.0992486  28.6046840  91.3859198  20.0842357
  30.4170391  89.6645069  12.7831595  31.2517282  90.1034873  12.9469156
  30.5529520  89.1883722  11.9639841  27.4661897  87.2224804  18.7309083
  27.9416018  87.4152450  17.9227934  26.5427462  87.2783990  18.4852467
  22.0442113  79.2572648  17.6964917  22.5624057  79.9933675  17.3711406
  21.6897246  79.5636641  18.5311676  22.2954708  75.6772930  13.2165814
  22.5756461  75.0096119  13.8426240  23.0805314  75.8702026  12.7040477
  26.1663566  84.0990564  16.9637389  27.1180989  84.1988662  16.9849613
  25.9967016  83.3068833  17.4735473  24.1877945  81.1846147  17.1496790
  23.5927877  81.4651160  16.4543278  23.9027642  81.6740048  17.9213531
  25.9473452  94.4534945   2.8703370  25.8687084  94.1194808   3.7639128
  26.7683119  94.9456712   2.8694842  28.6451644  87.3196684  16.0779688
  28.6127964  86.3812685  16.2639372  29.2552267  87.3980721  15.3445513
  28.7946132  84.1107727  16.1237972  28.2785181  83.3266184  15.9367900
  29.6786081  83.7826444  16.2884491  26.4556859  77.8548743  12.0833784
  26.2581680  77.5463831  12.9677116  27.0656565  78.5810382  12.2131714
  34.4628194  88.3812691  15.2185725  35.1931582  88.1197979  15.7793428
  33.8535139  87.6441413  15.2587793  32.5443491  86.5220553  15.8160176
  31.8176654  86.3876518  15.2076668  32.1290778  86.8297382  16.6216894
  20.3673667  90.2410483  23.5807549  21.2876677  90.4189082  23.7747596
  20.3323250  89.2966528  23.4287249   9.5855832  85.4349077  12.5060824
   9.2658616  84.5814385  12.2135198   9.0389260  85.6497655  13.2618791
  13.3635740  88.1511518  16.2230331  13.5821749  89.0828625  16.2418364
  13.7761513  87.7919492  17.0085134  20.2839957  78.6579603   8.2106019
  19.4740686  78.3126688   8.5861265  20.9724374  78.3487147   8.7993630
  22.2130506  77.7357650   9.8330316  22.7661544  78.1553103  10.4920339
  22.4500592  76.8093398   9.8753272  18.2363605  83.7244723  25.6133079
  18.1360332  84.6739080  25.5445171  18.0185147  83.3962962  24.7409150
   9.4544092  89.0551988  14.4753946   8.7607563  88.6405941  13.9623900
  10.2017083  89.0972525  13.8787364  25.5909313  79.8458175   9.3408980
  25.0107982  80.5042979   8.9587032  25.3245245  79.0235519   8.9296397
  24.0412879  79.2463233  11.5430300  24.5412658  79.3579767  10.7344619
  24.6848487  78.9424285  12.1831109  18.0994875  87.1541862  24.4298141
  17.6161957  87.9542222  24.6362030  18.1855814  87.1649807  23.4765585
  11.3680835  88.9870242  12.3519960  11.3451523  89.0857929  11.4001844
  11.6781471  89.8335393  12.6737127  14.0268212  91.0446397  16.4666575
  14.9811466  91.0130339  16.3996506  13.8280736  90.5837021  17.2816801
  14.6167595  89.6147513  19.0337373  15.4360484  90.1091592  19.0572210
  14.8904402  88.6979481  19.0054940  24.3734191  82.0058265   8.3965328
  23.4860046  82.2907916   8.1785523  24.7888180  81.8452029   7.5492605
  27.7248727  82.0304786  12.1119667  28.5009117  82.5201239  12.3844284
  26.9996861  82.4562840  12.5691537  30.1621286  82.7432405  13.1693608
  30.7565776  82.5028141  12.4586916  30.2347869  82.0239536  13.7967144
  24.3475215  87.5212801   8.6115618  24.2910416  87.9781353   7.7723251
  24.9003557  86.7603486   8.4338461  28.1580020  83.3102533   9.4365738
  27.9016955  82.9099169  10.2673945  27.5332888  84.0246327   9.3115877
  32.4692358  86.0498606  11.9437029  31.9091916  86.1191796  12.7168591
  31.8635862  85.8739591  11.2236525  15.5387567  97.4835333  13.6955215
  15.4219951  98.4280766  13.5933906  14.7180013  97.1808895  14.0841015
  25.4264102  92.2085469   4.5411808  26.2609706  91.7766668   4.3589283
  25.2648445  92.0367483   5.4688703  25.0809994  88.7117582   5.9068147
  25.0258798  88.5461854   4.9656591  24.4556049  89.4193615   6.0630337
   9.8702509  83.9485647  19.7329570  10.5161372  83.4384601  20.2216795
   9.6619660  84.6854328  20.3072995  22.3955901  91.0166494  25.2321710
  23.2647061  91.1907147  24.8708345  21.9162653  91.8360911  25.1097440
  16.5642081  98.1363595  16.9111144  17.4669328  98.1687206  17.2277639
  16.3379451  97.2064046  16.9257480  18.3195683  96.8894582  13.5721222
  17.3691314  96.8896443  13.4585595  18.6228169  96.1427316  13.0557257
  22.2058239  74.8068468   9.7399403  21.4390635  74.2526955   9.8856085
  22.6168944  74.8790337  10.6013554  14.2100000  81.0953264  23.8304584
  15.0731461  80.7390069  24.0407908  13.6365410  80.7567159  24.5179988
  34.0548377 102.7255120  14.6366985  34.6926787 102.6061868  13.9330325
  33.9369220 103.6735964  14.6954937  30.8638083 102.6782548  14.5728510
  30.5256595 102.5623613  13.6849044  31.7327851 102.2773713  14.5529516
  26.7224899 104.5318025  10.5625400  26.1589764 104.4407962   9.7941688
  26.6077294 103.7117929  11.0427893  31.3457866 103.8317400  20.5314715
  31.3346507 103.4370198  19.6595219  31.5078506 103.0983473  21.1248487
  24.2689331 106.0269216  13.4009621  25.0610623 105.6860041  12.9855920
  24.5085981 106.1364191  14.3211774  28.0665127 106.6154512  19.4793899
  27.7754993 107.5200143  19.3640565  28.7022112 106.6571039  20.1937969
  28.9921334 103.9931360  16.0695259  29.5884906 103.7687383  15.3552222
  29.0496306 103.2516106  16.6720707  33.6089645 100.4506574  11.7120193
  34.3952734 100.0325997  11.3610610  33.8728350 101.3552666  11.8801841
  33.7799723 105.8879424   6.4108850  33.1445556 105.9614051   7.1229754
  33.4497129 106.4773023   5.7327929  39.0098072 100.3881807  12.6153171
  39.7423244  99.8181024  12.8491001  38.2537428 100.0003408  13.0559677
  30.6274192 102.8109049   9.8116514  30.2632399 102.2839670  10.5229435
  31.4841308 102.4207518   9.6382999  36.5323493  94.1003381  17.0747780
  36.2006818  94.9698792  16.8508995  35.9369106  93.7839665  17.7541810
  30.2679679  97.8398948   4.8077862  30.4354081  98.7079185   5.1748333
  30.0776848  98.0026230   3.8839152  33.0255012 106.3015927  16.4743693
  32.7255735 107.2040966  16.3659500  32.6806072 106.0348111  17.3264846
  26.4767494 102.7529724  12.5080397  25.5517990 102.6205938  12.7158089
  26.7251907 103.5323943  13.0050340  36.4252156  98.8198468  14.1541130
  35.5169033  98.7513876  13.8599891  36.3739752  99.2970413  14.9822956
  30.2468900 100.2956606   5.7924529  30.1268525 100.7413657   6.6310009
  29.5521488 100.6441924   5.2338067  23.8376305 102.3962998  13.3424186
  23.9668686 102.6497477  14.2563598  23.1573756 102.9890706  13.0228841
  30.4993022 100.2388113  22.0976027  29.7226356 100.7982033  22.0878892
  31.1383585 100.7244896  22.6190897  38.2913802  97.0214906  15.9319004
  37.6488183  97.3147439  15.2858799  37.7868731  96.9067826  16.7372201
  35.9453966 100.7678079   6.6204863  36.8571822 101.0005466   6.4452561
  35.4363613 101.3515123   6.0579942  28.7539394 103.0473567  21.6593994
  29.4954079 103.5858610  21.3828818  28.0476380 103.6739855  21.8165546
  34.2294734 105.1902707  20.2566156  34.6378090 104.7485118  19.5120788
  33.5071995 104.6155335  20.5100349  30.5825804 100.1275314  17.6299713
  31.4286999 100.5514727  17.7734362  30.5224441  99.4708938  18.3238276
  34.5523548 105.7503898  14.0118445  33.9232411 105.9149612  13.3094513
  34.1649211 106.1645507  14.7829409  38.4312780 106.6858335  11.3662808
  37.7463818 107.0657237  10.8159842  38.5156630 107.2953662  12.0994756
  33.7325249  97.7879682  19.2880886  33.4886181  98.5421743  18.7515162
  34.0085180  98.1665030  20.1228133  35.6863712 104.3318294  17.9658152
  35.8980607 104.9750054  17.2892533  35.6393460 103.4980611  17.4980082
  33.2889941  96.9436115  14.8694724  32.4274420  97.2417369  15.1611462
  33.3152376  97.1606514  13.9375757  30.1051510 105.4878306  11.2768530
  30.5689856 105.7666009  10.4873152  29.8408308 104.5861750  11.0941620
  26.9975591 105.0349787  14.2148293  27.5676948 105.4637056  13.5765778
  27.5883703 104.7532372  14.9132479  29.0420396 101.6101458   8.0858095
  29.7444440 102.0622502   8.5532021  28.7101025 100.9685277   8.7137988
  27.4900758 100.2013215  22.4609304  26.8599418 100.8829496  22.6944701
  27.3836846 100.0896296  21.5162443  22.7845730  99.8685011  13.3875228
  21.9944784 100.1242539  12.9115339  23.2756978 100.6833349  13.4927269
  36.8009540 107.2090250  16.1380509  37.6226984 106.8070437  15.8563191
  36.7971943 107.1058484  17.0896625  24.7360476 100.2329590  10.3458705
  23.9391639 100.3448284  10.8642201  24.5086068 100.5716242   9.4799596
  30.5666143 106.7574293  18.2941220  30.6310576 107.2194700  19.1299392
  29.8577067 106.1271658  18.4223530  21.0683433 100.1215501  15.8190219
  21.3191472 101.0062511  16.0847795  21.6042982  99.9420103  15.0465311
  44.8915533 103.5528998  12.4865481  44.1379241 102.9836396  12.3309485
  45.0263074 103.5191663  13.4336115  30.2814161 108.4242401   8.1620200
  30.1459836 109.2693936   8.5905048  30.8223973 108.6261678   7.3986134
  26.7681501  94.5033981  24.8234555  26.3748446  93.9500179  25.4982200
  27.5847641  94.8144559  25.2141073  29.6849462  95.9191860  22.4154812
  30.4259175  96.5199013  22.3359274  29.9167384  95.1769497  21.8572854
  24.8290800 101.1048227  20.6933042  24.7144315 100.2033484  20.9940141
  23.9735317 101.3511924  20.3417858  31.9082637 109.0465967  22.2920542
  31.4646492 108.2602346  21.9741447  32.5699851 109.2345118  21.6264433
  26.6669759 110.5761769  16.8181221  27.2177184 110.4478832  16.0458215
  25.8281234 110.8756658  16.4676114  34.0063875 109.3268767  20.3201943
  33.9882351 110.1477648  19.8282213  34.9283795 109.2022842  20.5452085
  30.4636930 106.8412897  21.1625452  30.9965266 106.0801185  20.9324760
  29.9351011 106.5486548  21.9049606  33.6306625  91.9472963  16.6919094
  33.2870894  92.8374604  16.6158204  33.9985587  91.7574620  15.8288679
  33.5956907 101.9381574   5.1991529  33.0803531 102.7086178   5.4379916
  33.3234216 101.2646710   5.8224590  31.1804018  96.7831274  10.2576767
  30.3245615  96.3938125  10.0782406  31.5930970  96.8623235   9.3976553
  32.7103165  94.3177618  14.6568327  32.2067961  94.2807753  13.8436132
  33.0033772  95.2270360  14.7164984  28.9546051  94.4016347  13.6634509
  29.8199048  94.2059156  13.3040398  29.0223560  94.1726699  14.5903865
  38.5691181 104.6913928   7.1344702  37.7920624 104.3525088   6.6899864
  39.2482662 104.6966551   6.4599667  33.3843210  99.8108666   7.0251310
  33.0793346 100.1254815   7.8761453  34.3373653  99.8890086   7.0678643
  31.8289642 105.9698889   8.6744264  31.3011004 105.2351649   8.3617501
  31.3277145 106.7473565   8.4284232  36.8082488 104.1647910  13.7911310
  36.1506163 104.8547171  13.8791439  37.6122888 104.5544342  14.1345297
  26.5608370  96.6318555  11.0350875  27.1352122  96.4093737  10.3024068
  27.1479352  96.7007250  11.7879477  35.6187947 102.5192282  11.8415252
  36.1319829 103.1522274  12.3436962  36.2689171 101.9193478  11.4758612
  28.8631038  93.5059804   9.7625945  28.2095450  93.1908821   9.1382560
  28.8211512  92.8835545  10.4885768  32.0968778  99.9941738  14.0873592
  31.1791339 100.2156685  13.9295281  32.5128922 100.0688048  13.2285300
  32.8803826 101.3933154   9.2176273  33.6275645 101.9054551   8.9083395
  33.1495415 101.0717206  10.0780666  31.1530476 103.8891694   6.2003227
  30.2441695 103.6050727   6.2975697  31.1825560 104.3090773   5.3406534
  36.3849743 107.4998284   9.9694395  35.9312070 106.6589194  10.0259585
  35.7543710 108.1359682  10.3069175  35.3282663  98.4290270  11.1995062
  34.5905420  97.9167656  11.5305305  35.5809436  97.9890651  10.3878339
  34.8282683 109.3374780  10.9044213  35.1205657 109.8979838  10.1856578
  35.3381303 109.6303341  11.6597372  35.4294290  91.2066522  11.7936831
  35.7353167  90.3463885  11.5062746  36.1546895  91.7984142  11.5935825
  29.7015370 101.5020315  12.3013022  29.7563980 100.5494151  12.2255499
  28.8906572 101.6579754  12.7854321  27.6407730 100.1197375  10.0603401
  26.8275595 100.4191545  10.4668593  28.1366724  99.7253063  10.7777883
  29.7916308 110.1155132  11.9937666  29.7492487 110.3415978  11.0646198
  30.7079007 109.8818506  12.1423467  33.2381942 100.5839199  18.8918295
  33.5931329 100.8110672  19.7512761  33.8854073 100.9157576  18.2695550
  38.9679678 103.7057635   9.5967624  38.8297577 103.8959231   8.6688813
  38.6115897 104.4677018  10.0535675  27.1321805  97.6915730  15.6764636
  27.7721184  97.5504489  14.9787599  26.2999335  97.4050243  15.3003238
  38.9949058 105.7734162  14.6078896  39.4285565 105.6809451  15.4561950
  39.7080639 105.7491662  13.9698912  27.9082109 106.9918161  11.7899629
  28.7022707 106.4968481  11.5882204  27.1973801 106.4636024  11.4267334
  32.7276953 109.3736256  16.1411996  32.7813975 109.9427192  16.9089712
  31.8591734 109.5438141  15.7766033  24.1350421  97.6616055  10.4537623
  24.3957238  98.5761388  10.3446783  24.9567593  97.1940498  10.6034236
  25.6075346  99.0753812  17.6236447  26.2798400  98.8671174  16.9749096
  24.7805133  98.8775898  17.1841680  39.8564608 105.8157863  17.1411781
  40.0500498 106.7203673  17.3871056  39.7565226 105.3565282  17.9750366
  31.5100918  95.7015753  19.6402108  30.8628833  96.4005703  19.5466585
  32.2801934  96.1351897  20.0078357  34.9179716 105.9664605  22.7152662
  34.7665223 105.7375157  21.7982745  34.9084396 106.9235207  22.7284007
  31.6865053 103.5396518  17.6998928  32.6157113 103.6907678  17.5267895
  31.2656083 103.6280539  16.8447575  30.4853385 107.5647183  15.4697466
  30.3464470 107.1965967  16.3423404  29.6967981 108.0794822  15.2981424
  32.0358600 106.9428785  12.8586304  31.7008432 106.9029555  13.7543953
  31.5362545 106.2773501  12.3856714  26.0102844 102.3496415  18.3838885
  25.8722642 101.6176654  18.9850424  26.9207767 102.2605315  18.1023072
  34.9717791 104.2884820   3.1323363  34.3546962 103.5631648   3.0356416
  34.5034280 105.0494180   2.7890437  28.6385144 102.0616375  17.8722564
  29.3484763 101.4209567  17.8309183  28.5954452 102.3129269  18.7948745
  36.6271923 108.9983728  20.7929144  36.5684469 108.3142948  20.1259727
  37.0291441 109.7402718  20.3409770  27.3514078  99.0481592  19.6918204
  26.8151435  98.5972331  20.3439800  26.7630787  99.1827501  18.9488668
  36.6289330 106.9623312  19.0243123  35.7416109 106.6249234  19.1469522
  37.1987881 106.2306343  19.2611889  23.0853200  98.1837600  16.7771198
  23.0011388  97.5763270  16.0421608  22.2635906  98.6746618  16.7780695
  30.1590484 111.6224764  15.9904366  30.0860655 112.4279736  16.5023671
  29.7167877 111.8216730  15.1652388  33.2576913  96.6691164  12.1441393
  33.7545613  95.9161126  11.8242464  32.4863895  96.7055480  11.5784603
  41.1106671 102.3731529  13.7859685  41.0996547 103.2556245  13.4153618
  40.2424050 102.0203080  13.5914222  32.6189167 111.5211598  18.1462525
  33.3317139 112.1559063  18.0738427  32.1279196 111.6175464  17.3302527
  34.3406694 105.4262851   9.7179817  33.4062973 105.5464313   9.5484521
  34.5183363 104.5235318   9.4539827  29.8411882  98.8108547  11.8713078
  29.4709670  98.2579587  12.5593984  30.3370975  98.2066680  11.3188078
  37.7279245 101.2680170  10.2529851  38.1939698 102.1008162  10.1790154
  38.1786746 100.8025152  10.9575109  27.6701081 109.2706042  18.9668096
  28.3710540 109.9042525  19.1197490  27.1996196 109.6120773  18.2063735
  35.7955477 107.6123991   7.2516003  36.0715320 107.4980586   8.1609877
  34.9259975 107.2141476   7.2128176  35.6995908  93.6360757  14.2920752
  34.7858988  93.8664984  14.4602959  36.1289010  93.7199201  15.1434785
  35.4702367 101.8250649  16.7920646  34.8173817 102.0726557  16.1373099
  35.8482747 101.0114787  16.4583124  32.4309541 111.8610342  10.8948817
  32.6131935 111.0431998  11.3576569  33.2542527 112.0778035  10.4573707
  32.7651706 110.7878527   8.1563865  33.2939472 110.2770982   7.5434027
  33.0279926 110.4721058   9.0209398  31.5189940 102.5670460  23.2786683
  30.8430577 102.4664590  23.9489059  32.3417574 102.4109674  23.7422681
  23.2668799 108.8042397  15.8999199  23.8522236 108.0586085  16.0327103
  23.0693637 109.1146353  16.7835862  17.8586453 101.3747997  14.6203642
  17.8970553 100.8411588  15.4140760  17.3526746 100.8483202  14.0014619
  30.2612723 113.8737388  17.5144299  30.8131031 114.0369009  18.2793385
  30.6018916 114.4641825  16.8424324  25.2377216  96.2212537  18.1166184
  25.3018542  97.0827368  17.7043582  25.1744336  95.6086539  17.3838543
  24.7129488  98.2935670  21.7639218  25.3401527  97.9112747  22.3776743
  23.8557407  98.0749872  22.1294911  35.1123597 108.6998645  23.3692954
  35.6563501 109.3128603  22.8747909  34.5310442 109.2578224  23.8859967
  33.3981110 111.8219363  14.5007981  33.2732249 111.0209103  13.9918927
  34.0560201 112.3165557  14.0121951  25.0189278  98.1768096  13.6785122
  24.2975864  98.7904063  13.5392595  25.8082534  98.7125860  13.6001768
  35.4616018 109.6228383  16.1287532  34.5146354 109.5033734  16.0565858
  35.8098791 108.7350881  16.2113793  27.8215592  95.5122522  19.9525773
  28.3449993  95.7584819  20.7152083  27.6027925  96.3442557  19.5328911
  23.2182873  97.7826197   7.8196898  22.8895579  96.9023576   7.6372004
  23.5722243  97.7273865   8.7073287  32.4662452 109.4181099  12.3291884
  32.3187414 108.4897807  12.5099454  33.2915945 109.4401190  11.8448959
  26.3324696  98.0699167   8.1872376  26.6720768  98.5985088   7.4650984
  26.7796816  98.4079573   8.9630942  36.0696573 110.2409658  13.4156757
  36.9943121 110.0352520  13.2781208  35.9011877 109.9926059  14.3246098
  29.0268137  96.4536217  17.6375444  28.6864957  95.6544030  18.0396124
  28.3207143  96.7537928  17.0652277  29.6784608  93.5385530  16.0902767
  30.5010678  93.0646008  15.9681657  29.9222672  94.3176013  16.5901453
  28.3192843  96.5673788   6.3865669  29.0401205  96.9455041   5.8829386
  27.6958147  97.2862665   6.4900647  32.4623966  97.2718937   7.3224001
  32.6787580  98.1543575   7.0212829  31.9818033  96.8805151   6.5929643
  27.2023187 100.2304650  13.8994746  27.0567768 100.5444953  14.7919027
  26.7248391 100.8489551  13.3465644  29.0619570  97.2207198  13.9475635
  29.0481139  96.3248292  13.6107933  29.7791998  97.2277862  14.5813921
  30.9145701  97.6544539  15.9928763  30.6563479  98.5761609  15.9913093
  30.3830741  97.2574973  16.6829227  35.8591890 110.7595326   8.7718848
  36.0328767 110.1941748   8.0192700  36.3520781 111.5596221   8.5898338
  21.6768849 102.7709995  16.8382407  21.1322317 103.5469803  16.9702681
  22.5548199 103.1180799  16.6801528  28.4656466  96.1021579   9.2163205
  28.5872377  95.1738225   9.4154093  28.1758508  96.1160265   8.3041521
  31.3347656  93.7876489  12.3529925  31.3569353  93.8515822  11.3981905
  31.7515715  92.9480998  12.5470431  41.7131281 103.5231749  10.3909148
  42.1562427 102.7739074   9.9928271  40.8357791 103.5141885  10.0082880
  36.8467062 110.0762090   5.8715746  37.5417967 110.6968783   6.0903061
  37.1890212 109.2257441   6.1468124  22.4634871 101.8979891  19.7312564
  21.7216607 102.0462526  20.3177194  22.1427616 102.1588157  18.8679313
  38.7458485 107.5261796   7.4003077  39.2709809 107.8649068   6.6752397
  38.6580838 106.5908811   7.2166212  30.4078534 111.4395869  19.5292954
  30.7165660 111.1945016  20.4015653  31.2054016 111.6442508  19.0411824
  30.4299146 113.5933779  11.7598330  29.9904136 113.1010158  12.4531187
  31.1807263 113.0506747  11.5190405  27.8773018 109.1371788  13.8320632
  27.2553027 108.4742493  13.5322860  28.5477885 109.1632920  13.1494280
  27.9497546  97.6153576  23.4253138  27.9985701  98.4915699  23.0430908
  28.4920060  97.0730969  22.8524781  38.4352391 108.1594699  22.7054275
  37.6447935 108.1418838  22.1658774  38.1985746 108.6982993  23.4603312
  38.5550266 105.0087166  20.0187004  38.6048271 104.8437173  20.9602526
  38.4464190 104.1414425  19.6284884  35.8454029 100.9918094  21.3346310
  36.7463891 100.8524558  21.0430308  35.9202003 101.1572548  22.2744488
  30.1796834  98.3684948  20.1799497  29.3100143  98.6618514  19.9082085
  30.4156314  98.9525393  20.9006760  40.0568463 107.4284107  20.2629025
  39.7653271 107.7914088  21.0992486  39.4440594 106.7151115  20.0842357
  41.2564145 104.9936987  12.7831595  42.0911037 105.4326791  12.9469156
  41.3923274 104.5175640  11.9639841  38.3055651 102.5516722  18.7309083
  38.7809773 102.7444368  17.9227934  37.3821217 102.6075908  18.4852467
  32.8835868  94.5864565  17.6964917  33.4017812  95.3225592  17.3711406
  32.5291001  94.8928559  18.5311676  33.1348462  91.0064848  13.2165814
  33.4150216  90.3388037  13.8426240  33.9199069  91.1993943  12.7040477
  37.0057320  99.4282482  16.9637389  37.9574743  99.5280579  16.9849613
  36.8360771  98.6360750  17.4735473  35.0271700  96.5138065  17.1496790
  34.4321632  96.7943078  16.4543278  34.7421397  97.0031966  17.9213531
  36.7867207 109.7826862   2.8703370  36.7080838 109.4486726   3.7639128
  37.6076874 110.2748630   2.8694842  39.4845398 102.6488602  16.0779688
  39.4521718 101.7104602  16.2639372  40.0946022 102.7272638  15.3445513
  39.6339887  99.4399645  16.1237972  39.1178935  98.6558102  15.9367900
  40.5179835  99.1118362  16.2884491  37.2950614  93.1840661  12.0833784
  37.0975435  92.8755749  12.9677116  37.9050319  93.9102299  12.2131714
  45.3021948 103.7104608  15.2185725  46.0325336 103.4489896  15.7793428
  44.6928893 102.9733330  15.2587793  43.3837245 101.8512471  15.8160176
  42.6570409 101.7168436  15.2076668  42.9684532 102.1589300  16.6216894
  31.2067422 105.5702401  23.5807549  32.1270431 105.7481000  23.7747596
  31.1717005 104.6258446  23.4287249  20.4249587 100.7640994  12.5060824
  20.1052371  99.9106302  12.2135198  19.8783015 100.9789572  13.2618791
  24.2029494 103.4803435  16.2230331  24.4215504 104.4120543  16.2418364
  24.6155268 103.1211410  17.0085134  31.1233712  93.9871521   8.2106019
  30.3134440  93.6418606   8.5861265  31.8118129  93.6779064   8.7993630
  33.0524260  93.0649567   9.8330316  33.6055299  93.4845021  10.4920339
  33.2894347  92.1385316   9.8753272  29.0757359  99.0536641  25.6133079
  28.9754086 100.0030998  25.5445171  28.8578901  98.7254880  24.7409150
  28.2770431  96.3021566   2.1973757  29.1389595  96.6276464   2.4569574
  28.4620775  95.5153062   1.6846823  20.2937847 104.3843906  14.4753946
  19.6001318 103.9697859  13.9623900  21.0410838 104.4264442  13.8787364
  36.4303067  95.1750093   9.3408980  35.8501736  95.8334897   8.9587032
  36.1639000  94.3527437   8.9296397  34.8806634  94.5755150  11.5430300
  35.3806412  94.6871685  10.7344619  35.5242242  94.2716203  12.1831109
  28.9388629 102.4833780  24.4298141  28.4555711 103.2834140  24.6362030
  29.0249569 102.4941725  23.4765585  22.2074589 104.3162160  12.3519960
  22.1845277 104.4149847  11.4001844  22.5175226 105.1627310  12.6737127
  24.8661967 106.3738315  16.4666575  25.8205221 106.3422257  16.3996506
  24.6674491 105.9128938  17.2816801  25.4561349 104.9439431  19.0337373
  26.2754238 105.4383509  19.0572210  25.7298157 104.0271399  19.0054940
  35.2127945  97.3350183   8.3965328  34.3253800  97.6199834   8.1785523
  35.6281934  97.1743946   7.5492605  38.5642481  97.3596704  12.1119667
  39.3402872  97.8493156  12.3844284  37.8390616  97.7854758  12.5691537
  41.0015040  98.0724323  13.1693608  41.5959531  97.8320059  12.4586916
  41.0741624  97.3531454  13.7967144  35.1868969 102.8504719   8.6115618
  35.1304170 103.3073270   7.7723251  35.7397311 102.0895403   8.4338461
  38.9973775  98.6394451   9.4365738  38.7410709  98.2391086  10.2673945
  38.3726643  99.3538245   9.3115877  43.3086113 101.3790524  11.9437029
  42.7485671 101.4483713  12.7168591  42.7029616 101.2031509  11.2236525
  26.3781322 112.8127251  13.6955215  26.2613706 113.7572684  13.5933906
  25.5573768 112.5100813  14.0841015  36.2657856 107.5377387   4.5411808
  37.1003460 107.1058585   4.3589283  36.1042199 107.3659400   5.4688703
  35.9203748 104.0409500   5.9068147  35.8652552 103.8753772   4.9656591
  35.2949804 104.7485533   6.0630337  20.7096263  99.2777564  19.7329570
  21.3555127  98.7676518  20.2216795  20.5013414 100.0146246  20.3072995
  33.2349656 106.3458412  25.2321710  34.1040815 106.5199064  24.8708345
  32.7556407 107.1652829  25.1097440  29.2299874  93.5417609   5.4853466
  29.2178544  94.4859449   5.6421737  30.1223296  93.3587755   5.1912927
  27.4035836 113.4655513  16.9111144  28.3063082 113.4979123  17.2277639
  27.1773206 112.5355964  16.9257480  29.1589438 112.2186500  13.5721222
  28.2085069 112.2188361  13.4585595  29.4621924 111.4719234  13.0557257
  33.0451993  90.1360386   9.7399403  32.2784389  89.5818872   9.8856085
  33.4562698  90.2082255  10.6013554  25.0493754  96.4245182  23.8304584
  25.9125216  96.0681986  24.0407908  24.4759165  96.0859076  24.5179988
  44.8942131 118.0547038  14.6366985  45.5320541 117.9353785  13.9330325
  44.7762974 119.0027882  14.6954937  41.7031838 118.0074466  14.5728510
  41.3650349 117.8915531  13.6849044  42.5721606 117.6065631  14.5529516
  37.5618653 119.8609942  10.5625400  36.9983518 119.7699879   9.7941688
  37.4471048 119.0409847  11.0427893  42.1851621 119.1609318  20.5314715
  42.1740261 118.7662116  19.6595219  42.3472260 118.4275390  21.1248487
  35.1083085 121.3561134  13.4009621  35.9004377 121.0151959  12.9855920
  35.3479735 121.4656109  14.3211774  38.9058882 121.9446430  19.4793899
  38.6148748 122.8492060  19.3640565  39.5415866 121.9862957  20.1937969
  39.8315089 119.3223278  16.0695259  40.4278661 119.0979300  15.3552222
  39.8890060 118.5808024  16.6720707  44.4483400 115.7798492  11.7120193
  45.2346489 115.3617915  11.3610610  44.7122104 116.6844584  11.8801841
  44.6193477 121.2171342   6.4108850  43.9839310 121.2905969   7.1229754
  44.2890884 121.8064941   5.7327929  49.8491827 115.7173725  12.6153171
  50.5816999 115.1472942  12.8491001  49.0931183 115.3295325  13.0559677
  41.4667947 118.1400966   9.8116514  41.1026154 117.6131587  10.5229435
  42.3235063 117.7499436   9.6382999  47.3717247 109.4295299  17.0747780
  47.0400572 110.2990710  16.8508995  46.7762861 109.1131583  17.7541810
  41.1073434 113.1690866   4.8077862  41.2747836 114.0371103   5.1748333
  40.9170603 113.3318148   3.8839152  43.8648767 121.6307845  16.4743693
  43.5649490 122.5332884  16.3659500  43.5199826 121.3640028  17.3264846
  37.3161248 118.0821642  12.5080397  36.3911745 117.9497856  12.7158089
  37.5645661 118.8615861  13.0050340  47.2645911 114.1490385  14.1541130
  46.3562788 114.0805794  13.8599891  47.2133506 114.6262330  14.9822956
  41.0862654 115.6248524   5.7924529  40.9662280 116.0705574   6.6310009
  40.3915243 115.9733841   5.2338067  34.6770059 117.7254915  13.3424186
  34.8062440 117.9789394  14.2563598  33.9967511 118.3182623  13.0228841
  41.3386776 115.5680031  22.0976027  40.5620110 116.1273951  22.0878892
  41.9777339 116.0536814  22.6190897  49.1307557 112.3506824  15.9319004
  48.4881937 112.6439357  15.2858799  48.6262485 112.2359744  16.7372201
  46.7847721 116.0969997   6.6204863  47.6965577 116.3297384   6.4452561
  46.2757368 116.6807041   6.0579942  39.5933149 118.3765484  21.6593994
  40.3347833 118.9150528  21.3828818  38.8870134 119.0031773  21.8165546
  45.0688488 120.5194625  20.2566156  45.4771844 120.0777035  19.5120788
  44.3465750 119.9447252  20.5100349  41.4219558 115.4567231  17.6299713
  42.2680754 115.8806645  17.7734362  41.3618196 114.8000856  18.3238276
  45.3917303 121.0795815  14.0118445  44.7626165 121.2441529  13.3094513
  45.0042965 121.4937425  14.7829409  49.2706535 122.0150253  11.3662808
  48.5857573 122.3949155  10.8159842  49.3550384 122.6245580  12.0994756
  44.5719004 113.1171600  19.2880886  44.3279936 113.8713660  18.7515162
  44.8478934 113.4956947  20.1228133  46.5257466 119.6610212  17.9658152
  46.7374362 120.3041972  17.2892533  46.4787215 118.8272529  17.4980082
  44.1283695 112.2728033  14.8694724  43.2668174 112.5709286  15.1611462
  44.1546130 112.4898432  13.9375757  40.9445265 120.8170223  11.2768530
  41.4083610 121.0957926  10.4873152  40.6802063 119.9153668  11.0941620
  37.8369346 120.3641705  14.2148293  38.4070703 120.7928973  13.5765778
  38.4277458 120.0824290  14.9132479  39.8814151 116.9393376   8.0858095
  40.5838194 117.3914419   8.5532021  39.5494779 116.2977195   8.7137988
  38.3294512 115.5305132  22.4609304  37.6993173 116.2121413  22.6944701
  38.2230600 115.4188214  21.5162443  33.6239485 115.1976928  13.3875228
  32.8338539 115.4534457  12.9115339  34.1150732 116.0125266  13.4927269
  47.6403294 122.5382168  16.1380509  48.4620738 122.1362355  15.8563191
  47.6365697 122.4350402  17.0896625  35.5754230 115.5621508  10.3458705
  34.7785393 115.6740202  10.8642201  35.3479822 115.9008160   9.4799596
  41.4059898 122.0866211  18.2941220  41.4704330 122.5486618  19.1299392
  40.6970822 121.4563576  18.4223530  31.9077188 115.4507419  15.8190219
  32.1585226 116.3354429  16.0847795  32.4436736 115.2712020  15.0465311
  55.7309287 118.8820916  12.4865481  54.9772996 118.3128314  12.3309485
  55.8656829 118.8483581  13.4336115  41.1207915 123.7534318   8.1620200
  40.9853590 124.5985854   8.5905048  41.6617728 123.9553596   7.3986134
  37.6075255 109.8325898  24.8234555  37.2142201 109.2792097  25.4982200
  38.4241395 110.1436477  25.2141073  40.5243216 111.2483777  22.4154812
  41.2652929 111.8490930  22.3359274  40.7561139 110.5061415  21.8572854
  35.6684554 116.4340145  20.6933042  35.5538069 115.5325402  20.9940141
  34.8129072 116.6803841  20.3417858  42.7476392 124.3757885  22.2920542
  42.3040246 123.5894263  21.9741447  43.4093605 124.5637035  21.6264433
  37.5063513 125.9053686  16.8181221  38.0570938 125.7770750  16.0458215
  36.6674989 126.2048575  16.4676114  44.8457630 124.6560685  20.3201943
  44.8276105 125.4769566  19.8282213  45.7677550 124.5314760  20.5452085
  41.3030684 122.1704814  21.1625452  41.8359021 121.4093102  20.9324760
  40.7744765 121.8778466  21.9049606  44.4700379 107.2764880  16.6919094
  44.1264648 108.1666522  16.6158204  44.8379342 107.0866538  15.8288679
  44.4350662 117.2673491   5.1991529  43.9197285 118.0378096   5.4379916
  44.1627970 116.5938628   5.8224590  42.0197773 112.1123192  10.2576767
  41.1639369 111.7230043  10.0782406  42.4324725 112.1915153   9.3976553
  43.5496919 109.6469535  14.6568327  43.0461715 109.6099671  13.8436132
  43.8427526 110.5562278  14.7164984  39.7939805 109.7308265  13.6634509
  40.6592802 109.5351074  13.3040398  39.8617314 109.5018617  14.5903865
  49.4084936 120.0205846   7.1344702  48.6314379 119.6817006   6.6899864
  50.0876417 120.0258469   6.4599667  44.2236965 115.1400583   7.0251310
  43.9187100 115.4546733   7.8761453  45.1767407 115.2182003   7.0678643
  42.6683397 121.2990807   8.6744264  42.1404758 120.5643566   8.3617501
  42.1670899 122.0765483   8.4284232  47.6476243 119.4939827  13.7911310
  46.9899917 120.1839089  13.8791439  48.4516642 119.8836259  14.1345297
  37.4002124 111.9610473  11.0350875  37.9745876 111.7385655  10.3024068
  37.9873107 112.0299168  11.7879477  46.4581702 117.8484200  11.8415252
  46.9713583 118.4814192  12.3436962  47.1082925 117.2485395  11.4758612
  39.7024792 108.8351722   9.7625945  39.0489204 108.5200739   9.1382560
  39.6605266 108.2127462  10.4885768  42.9362532 115.3233655  14.0873592
  42.0185094 115.5448603  13.9295281  43.3522676 115.3979966  13.2285300
  43.7197580 116.7225071   9.2176273  44.4669399 117.2346468   8.9083395
  43.9889170 116.4009124  10.0780666  41.9924230 119.2183612   6.2003227
  41.0835450 118.9342645   6.2975697  42.0219314 119.6382690   5.3406534
  47.2243498 122.8290201   9.9694395  46.7705825 121.9881111  10.0259585
  46.5937465 123.4651600  10.3069175  46.1676417 113.7582187  11.1995062
  45.4299174 113.2459574  11.5305305  46.4203191 113.3182569  10.3878339
  45.6676437 124.6666698  10.9044213  45.9599411 125.2271755  10.1856578
  46.1775058 124.9595259  11.6597372  46.2688045 106.5358439  11.7936831
  46.5746921 105.6755803  11.5062746  46.9940650 107.1276060  11.5935825
  40.5409124 116.8312233  12.3013022  40.5957734 115.8786069  12.2255499
  39.7300326 116.9871672  12.7854321  38.4801484 115.4489292  10.0603401
  37.6669350 115.7483463  10.4668593  38.9760479 115.0544981  10.7777883
  40.6310062 125.4447049  11.9937666  40.5886241 125.6707895  11.0646198
  41.5472761 125.2110424  12.1423467  44.0775696 115.9131117  18.8918295
  44.4325084 116.1402590  19.7512761  44.7247827 116.2449494  18.2695550
  49.8073433 119.0349553   9.5967624  49.6691332 119.2251149   8.6688813
  49.4509652 119.7968935  10.0535675  37.9715559 113.0207648  15.6764636
  38.6114938 112.8796407  14.9787599  37.1393090 112.7342161  15.3003238
  49.8342813 121.1026080  14.6078896  50.2679319 121.0101369  15.4561950
  50.5474393 121.0783580  13.9698912  38.7475863 122.3210078  11.7899629
  39.5416462 121.8260398  11.5882204  38.0367555 121.7927941  11.4267334
  43.5670707 124.7028174  16.1411996  43.6207730 125.2719110  16.9089712
  42.6985489 124.8730059  15.7766033  34.9744176 112.9907973  10.4537623
  35.2350993 113.9053306  10.3446783  35.7961348 112.5232415  10.6034236
  36.4469101 114.4045730  17.6236447  37.1192154 114.1963092  16.9749096
  35.6198887 114.2067816  17.1841680  50.6958362 121.1449780  17.1411781
  50.8894252 122.0495591  17.3871056  50.5958980 120.6857199  17.9750366
  42.3494673 111.0307671  19.6402108  41.7022588 111.7297621  19.5466585
  43.1195688 111.4643815  20.0078357  45.7573471 121.2956523  22.7152662
  45.6058977 121.0667075  21.7982745  45.7478150 122.2527124  22.7284007
  42.5258807 118.8688436  17.6998928  43.4550867 119.0199595  17.5267895
  42.1049837 118.9572457  16.8447575  41.3247139 122.8939100  15.4697466
  41.1858225 122.5257885  16.3423404  40.5361735 123.4086740  15.2981424
  42.8752354 122.2720703  12.8586304  42.5402187 122.2321473  13.7543953
  42.3756300 121.6065419  12.3856714  36.8496598 117.6788333  18.3838885
  36.7116396 116.9468572  18.9850424  37.7601522 117.5897233  18.1023072
  45.8111546 119.6176737   3.1323363  45.1940716 118.8923565   3.0356416
  45.3428034 120.3786097   2.7890437  39.4778899 117.3908292  17.8722564
  40.1878517 116.7501484  17.8309183  39.4348207 117.6421187  18.7948745
  47.4665677 124.3275646  20.7929144  47.4078224 123.6434866  20.1259727
  47.8685196 125.0694636  20.3409770  38.1907833 114.3773510  19.6918204
  37.6545190 113.9264249  20.3439800  37.6024541 114.5119419  18.9488668
  47.4683085 122.2915230  19.0243123  46.5809863 121.9541151  19.1469522
  48.0381636 121.5598261  19.2611889  33.9246954 113.5129518  16.7771198
  33.8405143 112.9055187  16.0421608  33.1029660 114.0038536  16.7780695
  40.9984238 126.9516682  15.9904366  40.9254410 127.7571653  16.5023671
  40.5561631 127.1508648  15.1652388  44.0970668 111.9983081  12.1441393
  44.5939367 111.2453044  11.8242464  43.3257649 112.0347398  11.5784603
  51.9500425 117.7023447  13.7859685  51.9390302 118.5848162  13.4153618
  51.0817805 117.3494998  13.5914222  43.4582922 126.8503516  18.1462525
  44.1710894 127.4850981  18.0738427  42.9672950 126.9467382  17.3302527
  45.1800449 120.7554769   9.7179817  44.2456727 120.8756231   9.5484521
  45.3577117 119.8527235   9.4539827  40.6805637 114.1400464  11.8713078
  40.3103424 113.5871505  12.5593984  41.1764729 113.5358598  11.3188078
  48.5673000 116.5972088  10.2529851  49.0333452 117.4300079  10.1790154
  49.0180500 116.1317069  10.9575109  38.5094835 124.5997959  18.9668096
  39.2104295 125.2334442  19.1197490  38.0389950 124.9412691  18.2063735
  46.6349231 122.9415909   7.2516003  46.9109075 122.8272504   8.1609877
  45.7653730 122.5433394   7.2128176  46.5389663 108.9652675  14.2920752
  45.6252742 109.1956902  14.4602959  46.9682764 109.0491119  15.1434785
  46.3096121 117.1542567  16.7920646  45.6567571 117.4018474  16.1373099
  46.6876501 116.3406705  16.4583124  43.2703295 127.1902260  10.8948817
  43.4525690 126.3723916  11.3576569  44.0936281 127.4069952  10.4573707
  43.6045461 126.1170445   8.1563865  44.1333227 125.6062900   7.5434027
  43.8673680 125.8012975   9.0209398  42.3583694 117.8962378  23.2786683
  41.6824331 117.7956507  23.9489059  43.1811328 117.7401592  23.7422681
  34.1062553 124.1334314  15.8999199  34.6915990 123.3878002  16.0327103
  33.9087392 124.4438271  16.7835862  28.6980208 116.7039915  14.6203642
  28.7364307 116.1703505  15.4140760  28.1920501 116.1775120  14.0014619
  41.1006477 129.2029305  17.5144299  41.6524785 129.3660927  18.2793385
  41.4412671 129.7933743  16.8424324  36.0770970 111.5504455  18.1166184
  36.1412297 112.4119286  17.7043582  36.0138091 110.9378457  17.3838543
  35.5523243 113.6227588  21.7639218  36.1795282 113.2404665  22.3776743
  34.6951162 113.4041790  22.1294911  45.9517351 124.0290563  23.3692954
  46.4957255 124.6420521  22.8747909  45.3704196 124.5870141  23.8859967
  44.2374864 127.1511281  14.5007981  44.1126004 126.3501021  13.9918927
  44.8953955 127.6457474  14.0121951  35.8583033 113.5060013  13.6785122
  35.1369618 114.1195981  13.5392595  36.6476288 114.0417778  13.6001768
  46.3009773 124.9520301  16.1287532  45.3540108 124.8325652  16.0565858
  46.6492546 124.0642799  16.2113793  38.6609346 110.8414440  19.9525773
  39.1843748 111.0876736  20.7152083  38.4421679 111.6734475  19.5328911
  34.0576627 113.1118114   7.8196898  33.7289333 112.2315493   7.6372004
  34.4115998 113.0565783   8.7073287  43.3056206 124.7473017  12.3291884
  43.1581168 123.8189725  12.5099454  44.1309700 124.7693108  11.8448959
  37.1718450 113.3991084   8.1872376  37.5114523 113.9277005   7.4650984
  37.6190571 113.7371490   8.9630942  46.9090328 125.5701576  13.4156757
  47.8336875 125.3644437  13.2781208  46.7405631 125.3217977  14.3246098
  39.8661891 111.7828135  17.6375444  39.5258711 110.9835948  18.0396124
  39.1600897 112.0829846  17.0652277  40.5178363 108.8677447  16.0902767
  41.3404432 108.3937926  15.9681657  40.7616426 109.6467931  16.5901453
  39.1586597 111.8965706   6.3865669  39.8794960 112.2746959   5.8829386
  38.5351902 112.6154583   6.4900647  43.3017720 112.6010855   7.3224001
  43.5181335 113.4835493   7.0212829  42.8211787 112.2097068   6.5929643
  38.0416942 115.5596568  13.8994746  37.8961522 115.8736871  14.7919027
  37.5642145 116.1781468  13.3465644  39.9013325 112.5499116  13.9475635
  39.8874893 111.6540209  13.6107933  40.6185753 112.5569780  14.5813921
  41.7539455 112.9836456  15.9928763  41.4957233 113.9053527  15.9913093
  41.2224496 112.5866891  16.6829227  46.6985644 126.0887243   8.7718848
  46.8722522 125.5233666   8.0192700  47.1914535 126.8888138   8.5898338
  32.5162604 118.1001912  16.8382407  31.9716072 118.8761720  16.9702681
  33.3941954 118.4472717  16.6801528  39.3050221 111.4313496   9.2163205
  39.4266132 110.5030142   9.4154093  39.0152263 111.4452182   8.3041521
  42.1741411 109.1168407  12.3529925  42.1963108 109.1807740  11.3981905
  42.5909470 108.2772915  12.5470431  52.5525035 118.8523666  10.3909148
  52.9956181 118.1030991   9.9928271  51.6751546 118.8433803  10.0082880
  47.6860817 125.4054008   5.8715746  48.3811721 126.0260700   6.0903061
  48.0283967 124.5549359   6.1468124  33.3028626 117.2271809  19.7312564
  32.5610362 117.3754444  20.3177194  32.9821370 117.4880074  18.8679313
  49.5852240 122.8553713   7.4003077  50.1103564 123.1940986   6.6752397
  49.4974592 121.9200729   7.2166212  41.2472288 126.7687787  19.5292954
  41.5559415 126.5236934  20.4015653  42.0447770 126.9734425  19.0411824
  41.2692900 128.9225697  11.7598330  40.8297891 128.4302075  12.4531187
  42.0201017 128.3798664  11.5190405  38.7166773 124.4663706  13.8320632
  38.0946782 123.8034411  13.5322860  39.3871639 124.4924838  13.1494280
  38.7891300 112.9445494  23.4253138  38.8379456 113.8207616  23.0430908
  39.3313814 112.4022887  22.8524781  49.2746146 123.4886617  22.7054275
  48.4841689 123.4710756  22.1658774  49.0379500 124.0274911  23.4603312
  49.3944021 120.3379083  20.0187004  49.4442026 120.1729091  20.9602526
  49.2857944 119.4706342  19.6284884  46.6847783 116.3210011  21.3346310
  47.5857646 116.1816476  21.0430308  46.7595758 116.4864466  22.2744488
  41.0190589 113.6976866  20.1799497  40.1493898 113.9910432  19.9082085
  41.2550069 114.2817311  20.9006760  50.8962218 122.7576025  20.2629025
  50.6047026 123.1206005  21.0992486  50.2834349 122.0443033  20.0842357
  52.0957900 120.3228905  12.7831595  52.9304791 120.7618709  12.9469156
  52.2317029 119.8467558  11.9639841  49.1449406 117.8808639  18.7309083
  49.6203527 118.0736286  17.9227934  48.2214971 117.9367825  18.4852467
  43.7229622 109.9156483  17.6964917  44.2411566 110.6517510  17.3711406
  43.3684755 110.2220476  18.5311676  43.9742217 106.3356766  13.2165814
  44.2543970 105.6679955  13.8426240  44.7592823 106.5285861  12.7040477
  47.8451075 114.7574399  16.9637389  48.7968498 114.8572497  16.9849613
  47.6754525 113.9652668  17.4735473  45.8665454 111.8429983  17.1496790
  45.2715386 112.1234995  16.4543278  45.5815151 112.3323884  17.9213531
  47.6260961 125.1118780   2.8703370  47.5474593 124.7778643   3.7639128
  48.4470628 125.6040548   2.8694842  50.3239153 117.9780519  16.0779688
  50.2915473 117.0396520  16.2639372  50.9339776 118.0564556  15.3445513
  50.4733641 114.7691563  16.1237972  49.9572690 113.9850019  15.9367900
  51.3573590 114.4410279  16.2884491  48.1344368 108.5132578  12.0833784
  47.9369189 108.2047666  12.9677116  48.7444074 109.2394217  12.2131714
  56.1415702 119.0396526  15.2185725  56.8719091 118.7781814  15.7793428
  55.5322648 118.3025248  15.2587793  54.2231000 117.1804389  15.8160176
  53.4964163 117.0460354  15.2076668  53.8078286 117.4881217  16.6216894
  42.0461176 120.8994318  23.5807549  42.9664186 121.0772917  23.7747596
  42.0110759 119.9550364  23.4287249  31.2643341 116.0932912  12.5060824
  30.9446125 115.2398220  12.2135198  30.7176769 116.3081490  13.2618791
  35.0423249 118.8095353  16.2230331  35.2609258 119.7412461  16.2418364
  35.4549022 118.4503327  17.0085134  41.9627466 109.3163438   8.2106019
  41.1528195 108.9710523   8.5861265  42.6511883 109.0070982   8.7993630
  43.8918015 108.3941485   9.8330316  44.4449053 108.8136938  10.4920339
  44.1288101 107.4677233   9.8753272  39.9151114 114.3828559  25.6133079
  39.8147841 115.3322916  25.5445171  39.6972656 114.0546798  24.7409150
  39.1164185 111.6313484   2.1973757  39.9783349 111.9568382   2.4569574
  39.3014529 110.8444980   1.6846823  31.1331601 119.7135823  14.4753946
  30.4395072 119.2989776  13.9623900  31.8804592 119.7556360  13.8787364
  47.2696822 110.5042010   9.3408980  46.6895491 111.1626814   8.9587032
  47.0032754 109.6819355   8.9296397  45.7200388 109.9047068  11.5430300
  46.2200166 110.0163602  10.7344619  46.3635996 109.6008121  12.1831109
  39.7782384 117.8125698  24.4298141  39.2949466 118.6126058  24.6362030
  39.8643323 117.8233642  23.4765585  33.0468344 119.6454077  12.3519960
  33.0239032 119.7441765  11.4001844  33.3568980 120.4919228  12.6737127
  35.7055721 121.7030232  16.4666575  36.6598975 121.6714175  16.3996506
  35.5068245 121.2420856  17.2816801  36.2955104 120.2731348  19.0337373
  37.1147993 120.7675427  19.0572210  36.5691911 119.3563316  19.0054940
  46.0521700 112.6642101   8.3965328  45.1647555 112.9491751   8.1785523
  46.4675689 112.5035864   7.5492605  49.4036236 112.6888622  12.1119667
  50.1796626 113.1785074  12.3844284  48.6784370 113.1146676  12.5691537
  51.8408795 113.4016241  13.1693608  52.4353285 113.1611977  12.4586916
  51.9135378 112.6823371  13.7967144  46.0262724 118.1796637   8.6115618
  45.9697925 118.6365188   7.7723251  46.5791066 117.4187321   8.4338461
  49.8367529 113.9686368   9.4365738  49.5804464 113.5683004  10.2673945
  49.2120397 114.6830162   9.3115877  54.1479867 116.7082442  11.9437029
  53.5879425 116.7775631  12.7168591  53.5423371 116.5323426  11.2236525
  37.2175076 128.1419169  13.6955215  37.1007460 129.0864601  13.5933906
  36.3967522 127.8392730  14.0841015  47.1051611 122.8669304   4.5411808
  47.9397215 122.4350503   4.3589283  46.9435954 122.6951318   5.4688703
  46.7597503 119.3701418   5.9068147  46.7046307 119.2045689   4.9656591
  46.1343558 120.0777451   6.0630337  31.5490018 114.6069482  19.7329570
  32.1948881 114.0968436  20.2216795  31.3407169 115.3438164  20.3072995
  44.0743410 121.6750330  25.2321710  44.9434570 121.8490982  24.8708345
  43.5950161 122.4944746  25.1097440  40.0693628 108.8709527   5.4853466
  40.0572298 109.8151367   5.6421737  40.9617050 108.6879672   5.1912927
  38.2429590 128.7947431  16.9111144  39.1456837 128.8271041  17.2277639
  38.0166960 127.8647882  16.9257480  39.9983192 127.5478417  13.5721222
  39.0478823 127.5480279  13.4585595  40.3015678 126.8011152  13.0557257
  43.8845748 105.4652303   9.7399403  43.1178144 104.9110790   9.8856085
  44.2956453 105.5374172  10.6013554  35.8887509 111.7537099  23.8304584
  36.7518970 111.3973904  24.0407908  35.3152919 111.4150994  24.5179988
  55.7335886 133.3838956  14.6366985  56.3714296 133.2645703  13.9330325
  55.6156729 134.3319800  14.6954937  52.5425592 133.3366384  14.5728510
  52.2044104 133.2207448  13.6849044  53.4115360 132.9357549  14.5529516
  48.4012408 135.1901860  10.5625400  47.8377273 135.0991797   9.7941688
  48.2864803 134.3701765  11.0427893  53.0245375 134.4901235  20.5314715
  53.0134016 134.0954034  19.6595219  53.1866014 133.7567308  21.1248487
  45.9476840 136.6853052  13.4009621  46.7398132 136.3443876  12.9855920
  46.1873490 136.7948027  14.3211774  49.7452636 137.2738347  19.4793899
  49.4542502 138.1783978  19.3640565  50.3809621 137.3154875  20.1937969
  50.6708843 134.6515196  16.0695259  51.2672415 134.4271218  15.3552222
  50.7283815 133.9099941  16.6720707  55.2877154 131.1090409  11.7120193
  56.0740243 130.6909833  11.3610610  55.5515859 132.0136502  11.8801841
  55.4587232 136.5463260   6.4108850  54.8233065 136.6197886   7.1229754
  55.1284638 137.1356859   5.7327929  60.6885581 131.0465643  12.6153171
  61.4210753 130.4764859  12.8491001  59.9324937 130.6587243  13.0559677
  52.3061701 133.4692884   9.8116514  51.9419908 132.9423505  10.5229435
  53.1628817 133.0791353   9.6382999  58.2111002 124.7587217  17.0747780
  57.8794326 125.6282628  16.8508995  57.6156615 124.4423501  17.7541810
  51.9467188 128.4982784   4.8077862  52.1141590 129.3663020   5.1748333
  51.7564357 128.6610066   3.8839152  54.7042521 136.9599763  16.4743693
  54.4043244 137.8624802  16.3659500  54.3593581 136.6931946  17.3264846
  48.1555003 133.4113560  12.5080397  47.2305499 133.2789774  12.7158089
  48.4039416 134.1907779  13.0050340  58.1039665 129.4782303  14.1541130
  57.1956542 129.4097711  13.8599891  58.0527261 129.9554248  14.9822956
  51.9256409 130.9540441   5.7924529  51.8056034 131.3997492   6.6310009
  51.2308997 131.3025759   5.2338067  45.5163814 133.0546833  13.3424186
  45.6456195 133.3081312  14.2563598  44.8361265 133.6474541  13.0228841
  52.1780531 130.8971949  22.0976027  51.4013865 131.4565869  22.0878892
  52.8171094 131.3828731  22.6190897  59.9701311 127.6798741  15.9319004
  59.3275692 127.9731274  15.2858799  59.4656240 127.5651662  16.7372201
  57.6241475 131.4261915   6.6204863  58.5359331 131.6589301   6.4452561
  57.1151122 132.0098959   6.0579942  50.4326903 133.7057402  21.6593994
  51.1741587 134.2442446  21.3828818  49.7263889 134.3323691  21.8165546
  55.9082243 135.8486542  20.2566156  56.3165599 135.4068953  19.5120788
  55.1859504 135.2739170  20.5100349  52.2613313 130.7859149  17.6299713
  53.1074508 131.2098563  17.7734362  52.2011950 130.1292773  18.3238276
  56.2311057 136.4087733  14.0118445  55.6019920 136.5733447  13.3094513
  55.8436719 136.8229343  14.7829409  60.1100289 137.3442171  11.3662808
  59.4251327 137.7241072  10.8159842  60.1944139 137.9537497  12.0994756
  55.4112758 128.4463517  19.2880886  55.1673690 129.2005578  18.7515162
  55.6872689 128.8248865  20.1228133  57.3651221 134.9902130  17.9658152
  57.5768116 135.6333890  17.2892533  57.3180969 134.1564446  17.4980082
  54.9677450 127.6019950  14.8694724  54.1061929 127.9001204  15.1611462
  54.9939885 127.8190349  13.9375757  51.7839019 136.1462141  11.2768530
  52.2477365 136.4249844  10.4873152  51.5195817 135.2445586  11.0941620
  48.6763100 135.6933623  14.2148293  49.2464457 136.1220891  13.5765778
  49.2671212 135.4116207  14.9132479  50.7207905 132.2685293   8.0858095
  51.4231949 132.7206337   8.5532021  50.3888534 131.6269112   8.7137988
  49.1688267 130.8597050  22.4609304  48.5386927 131.5413331  22.6944701
  49.0624355 130.7480132  21.5162443  44.4633239 130.5268846  13.3875228
  43.6732293 130.7826375  12.9115339  44.9544487 131.3417184  13.4927269
  58.4797049 137.8674085  16.1380509  59.3014493 137.4654273  15.8563191
  58.4759452 137.7642319  17.0896625  46.4147985 130.8913425  10.3458705
  45.6179148 131.0032120  10.8642201  46.1873577 131.2300078   9.4799596
  52.2453652 137.4158129  18.2941220  52.3098085 137.8778536  19.1299392
  51.5364576 136.7855493  18.4223530  42.7470942 130.7799337  15.8190219
  42.9978981 131.6646346  16.0847795  43.2830491 130.6003938  15.0465311
  66.5703042 134.2112834  12.4865481  65.8166750 133.6420232  12.3309485
  66.7050583 134.1775498  13.4336115  51.9601670 139.0826236   8.1620200
  51.8247345 139.9277772   8.5905048  52.5011482 139.2845514   7.3986134
  48.4469010 125.1617816  24.8234555  48.0535955 124.6084014  25.4982200
  49.2635150 125.4728394  25.2141073  51.3636971 126.5775695  22.4154812
  52.1046684 127.1782848  22.3359274  51.5954893 125.8353333  21.8572854
  46.5078309 131.7632062  20.6933042  46.3931824 130.8617319  20.9940141
  45.6522826 132.0095759  20.3417858  53.5870146 139.7049803  22.2920542
  53.1434001 138.9186181  21.9741447  54.2487360 139.8928953  21.6264433
  48.3457268 141.2345604  16.8181221  48.8964693 141.1062668  16.0458215
  47.5068743 141.5340493  16.4676114  55.6851384 139.9852602  20.3201943
  55.6669860 140.8061484  19.8282213  56.6071304 139.8606678  20.5452085
  52.1424439 137.4996732  21.1625452  52.6752775 136.7385020  20.9324760
  51.6138520 137.2070384  21.9049606  55.3094134 122.6056798  16.6919094
  54.9658403 123.4958440  16.6158204  55.6773096 122.4158456  15.8288679
  55.2744416 132.5965409   5.1991529  54.7591040 133.3670014   5.4379916
  55.0021725 131.9230545   5.8224590  52.8591527 127.4415110  10.2576767
  52.0033124 127.0521960  10.0782406  53.2718479 127.5207071   9.3976553
  54.3890674 124.9761453  14.6568327  53.8855469 124.9391588  13.8436132
  54.6821281 125.8854196  14.7164984  50.6333560 125.0600183  13.6634509
  51.4986557 124.8642991  13.3040398  50.7011069 124.8310535  14.5903865
  55.0630719 130.4692501   7.0251310  54.7580855 130.7838650   7.8761453
  56.0161162 130.5473921   7.0678643  53.5077151 136.6282724   8.6744264
  52.9798513 135.8935484   8.3617501  53.0064654 137.4057401   8.4284232
  58.4869997 134.8231745  13.7911310  57.8293672 135.5131006  13.8791439
  59.2910396 135.2128177  14.1345297  48.2395879 127.2902391  11.0350875
  48.8139631 127.0677572  10.3024068  48.8266861 127.3591085  11.7879477
  57.2975456 133.1776118  11.8415252  57.8107338 133.8106109  12.3436962
  57.9476680 132.5777313  11.4758612  50.5418547 124.1643640   9.7625945
  49.8882959 123.8492657   9.1382560  50.4999021 123.5419380  10.4885768
  53.7756287 130.6525573  14.0873592  52.8578848 130.8740520  13.9295281
  54.1916431 130.7271884  13.2285300  54.5591335 132.0516989   9.2176273
  55.3063154 132.5638386   8.9083395  54.8282924 131.7301042  10.0780666
  52.8317985 134.5475530   6.2003227  51.9229204 134.2634562   6.2975697
  52.8613069 134.9674608   5.3406534  58.0637252 138.1582119   9.9694395
  57.6099579 137.3173029  10.0259585  57.4331219 138.7943517  10.3069175
  57.0070172 129.0874105  11.1995062  56.2692929 128.5751491  11.5305305
  57.2596945 128.6474487  10.3878339  56.5070192 139.9958616  10.9044213
  56.7993166 140.5563673  10.1856578  57.0168812 140.2887177  11.6597372
  57.1081799 121.8650357  11.7936831  57.4140676 121.0047721  11.5062746
  57.8334404 122.4567977  11.5935825  51.3802879 132.1604150  12.3013022
  51.4351489 131.2077987  12.2255499  50.5694081 132.3163589  12.7854321
  49.3195239 130.7781210  10.0603401  48.5063104 131.0775380  10.4668593
  49.8154233 130.3836899  10.7777883  51.4703817 140.7738967  11.9937666
  51.4279996 140.9999813  11.0646198  52.3866516 140.5402341  12.1423467
  54.9169451 131.2423034  18.8918295  55.2718838 131.4694508  19.7512761
  55.5641582 131.5741411  18.2695550  60.6467187 134.3641470   9.5967624
  60.5085086 134.5543066   8.6688813  60.2903406 135.1260853  10.0535675
  48.8109314 128.3499565  15.6764636  49.4508693 128.2088325  14.9787599
  47.9786844 128.0634079  15.3003238  60.6736567 136.4317997  14.6078896
  61.1073074 136.3393286  15.4561950  61.3868148 136.4075498  13.9698912
  49.5869618 137.6501996  11.7899629  50.3810216 137.1552316  11.5882204
  48.8761310 137.1219859  11.4267334  54.4064462 140.0320091  16.1411996
  54.4601484 140.6011028  16.9089712  53.5379243 140.2021976  15.7766033
  45.8137930 128.3199890  10.4537623  46.0744747 129.2345224  10.3446783
  46.6355102 127.8524333  10.6034236  47.2862855 129.7337648  17.6236447
  47.9585909 129.5255010  16.9749096  46.4592642 129.5359734  17.1841680
  61.5352117 136.4741698  17.1411781  61.7288007 137.3787508  17.3871056
  61.4352735 136.0149117  17.9750366  53.1888427 126.3599589  19.6402108
  52.5416342 127.0589538  19.5466585  53.9589443 126.7935732  20.0078357
  56.5967225 136.6248441  22.7152662  56.4452732 136.3958992  21.7982745
  56.5871905 137.5819042  22.7284007  53.3652562 134.1980353  17.6998928
  54.2944622 134.3491513  17.5267895  52.9443592 134.2864374  16.8447575
  52.1640893 138.2231018  15.4697466  52.0251979 137.8549802  16.3423404
  51.3755490 138.7378657  15.2981424  53.7146109 137.6012621  12.8586304
  53.3795941 137.5613391  13.7543953  53.2150054 136.9357336  12.3856714
  47.6890353 133.0080251  18.3838885  47.5510151 132.2760489  18.9850424
  48.5995276 132.9189151  18.1023072  50.3172653 132.7200210  17.8722564
  51.0272272 132.0793402  17.8309183  50.2741961 132.9713105  18.7948745
  58.3059432 139.6567563  20.7929144  58.2471978 138.9726783  20.1259727
  58.7078950 140.3986553  20.3409770  49.0301587 129.7065428  19.6918204
  48.4938944 129.2556166  20.3439800  48.4418296 129.8411337  18.9488668
  58.3076839 137.6207147  19.0243123  57.4203618 137.2833069  19.1469522
  58.8775390 136.8890178  19.2611889  44.7640708 128.8421435  16.7771198
  44.6798897 128.2347105  16.0421608  43.9423415 129.3330454  16.7780695
  51.8377993 142.2808600  15.9904366  51.7648164 143.0863571  16.5023671
  51.3955386 142.4800565  15.1652388  54.9364422 127.3274999  12.1441393
  55.4333122 126.5744961  11.8242464  54.1651404 127.3639316  11.5784603
  62.7894180 133.0315365  13.7859685  62.7784056 133.9140080  13.4153618
  61.9211559 132.6786915  13.5914222  54.2976676 142.1795434  18.1462525
  55.0104648 142.8142898  18.0738427  53.8066705 142.2759300  17.3302527
  56.0194203 136.0846686   9.7179817  55.0850482 136.2048149   9.5484521
  56.1970872 135.1819153   9.4539827  51.5199391 129.4692382  11.8713078
  51.1497179 128.9163422  12.5593984  52.0158484 128.8650515  11.3188078
  59.4066754 131.9264006  10.2529851  59.8727207 132.7591997  10.1790154
  59.8574255 131.4608987  10.9575109  49.3488590 139.9289877  18.9668096
  50.0498049 140.5626360  19.1197490  48.8783705 140.2704609  18.2063735
  57.4742986 138.2707827   7.2516003  57.7502829 138.1564421   8.1609877
  56.6047484 137.8725312   7.2128176  57.3783417 124.2944593  14.2920752
  56.4646497 124.5248819  14.4602959  57.8076519 124.3783037  15.1434785
  57.1489876 132.4834484  16.7920646  56.4961326 132.7310392  16.1373099
  57.5270256 131.6698623  16.4583124  54.1097050 142.5194178  10.8948817
  54.2919444 141.7015834  11.3576569  54.9330036 142.7361870  10.4573707
  53.1977449 133.2254296  23.2786683  52.5218086 133.1248425  23.9489059
  54.0205083 133.0693509  23.7422681  44.9456308 139.4626232  15.8999199
  45.5309745 138.7169920  16.0327103  44.7481146 139.7730189  16.7835862
  39.5373962 132.0331832  14.6203642  39.5758062 131.4995423  15.4140760
  39.0314255 131.5067038  14.0014619  51.9400232 144.5321223  17.5144299
  52.4918540 144.6952844  18.2793385  52.2806425 145.1225661  16.8424324
  46.9164725 126.8796373  18.1166184  46.9806051 127.7411204  17.7043582
  46.8531845 126.2670374  17.3838543  46.3916997 128.9519505  21.7639218
  47.0189036 128.5696583  22.3776743  45.5344916 128.7333707  22.1294911
  56.7911106 139.3582480  23.3692954  57.3351010 139.9712439  22.8747909
  56.2097951 139.9162059  23.8859967  55.0768619 142.4803199  14.5007981
  54.9519758 141.6792938  13.9918927  55.7347710 142.9749392  14.0121951
  46.6976787 128.8351931  13.6785122  45.9763373 129.4487899  13.5392595
  47.4870043 129.3709696  13.6001768  57.1403527 140.2812219  16.1287532
  56.1933863 140.1617570  16.0565858  57.4886300 139.3934717  16.2113793
  49.5003101 126.1706358  19.9525773  50.0237502 126.4168654  20.7152083
  49.2815434 127.0026392  19.5328911  44.8970382 128.4410032   7.8196898
  44.5683088 127.5607411   7.6372004  45.2509752 128.3857701   8.7073287
  54.1449961 140.0764935  12.3291884  53.9974923 139.1481642  12.5099454
  54.9703454 140.0985026  11.8448959  48.0112205 128.7283002   8.1872376
  48.3508277 129.2568923   7.4650984  48.4584325 129.0663408   8.9630942
  57.7484082 140.8993494  13.4156757  58.6730630 140.6936355  13.2781208
  57.5799386 140.6509895  14.3246098  50.7055646 127.1120053  17.6375444
  50.3652466 126.3127866  18.0396124  49.9994652 127.4121763  17.0652277
  51.3572117 124.1969365  16.0902767  52.1798187 123.7229843  15.9681657
  51.6010181 124.9759849  16.5901453  49.9980352 127.2257623   6.3865669
  50.7188714 127.6038876   5.8829386  49.3745656 127.9446500   6.4900647
  54.1411475 127.9302772   7.3224001  54.3575089 128.8127410   7.0212829
  53.6605542 127.5388986   6.5929643  48.8810696 130.8888486  13.8994746
  48.7355277 131.2028789  14.7919027  48.4035900 131.5073386  13.3465644
  50.7407079 127.8791034  13.9475635  50.7268648 126.9832127  13.6107933
  51.4579507 127.8861697  14.5813921  52.5933210 128.3128374  15.9928763
  52.3350988 129.2345445  15.9913093  52.0618250 127.9158808  16.6829227
  43.3556358 133.4293830  16.8382407  42.8109826 134.2053638  16.9702681
  44.2335708 133.7764635  16.6801528  50.1443975 126.7605414   9.2163205
  50.2659886 125.8322060   9.4154093  49.8546017 126.7744100   8.3041521
  53.0135165 124.4460324  12.3529925  53.0356862 124.5099657  11.3981905
  53.4303224 123.6064833  12.5470431  63.3918790 134.1815584  10.3909148
  63.8349936 133.4322909   9.9928271  62.5145300 134.1725720  10.0082880
  44.1422380 132.5563726  19.7312564  43.4004116 132.7046362  20.3177194
  43.8215125 132.8171992  18.8679313  52.0866043 142.0979705  19.5292954
  52.3953169 141.8528851  20.4015653  52.8841525 142.3026343  19.0411824
  52.1086655 144.2517614  11.7598330  51.6691645 143.7593993  12.4531187
  52.8594772 143.7090582  11.5190405  49.5560527 139.7955623  13.8320632
  48.9340536 139.1326328  13.5322860  50.2265394 139.8216755  13.1494280
  49.6285055 128.2737411  23.4253138  49.6773210 129.1499534  23.0430908
  50.1707569 127.7314804  22.8524781  60.1139900 138.8178535  22.7054275
  59.3235444 138.8002673  22.1658774  59.8773255 139.3566828  23.4603312
  60.2337775 135.6671001  20.0187004  60.2835780 135.5021008  20.9602526
  60.1251699 134.7998260  19.6284884  57.5241538 131.6501929  21.3346310
  58.4251400 131.5108394  21.0430308  57.5989512 131.8156384  22.2744488
  51.8584343 129.0268784  20.1799497  50.9887652 129.3202350  19.9082085
  52.0943823 129.6109229  20.9006760  61.7355972 138.0867942  20.2629025
  61.4440780 138.4497923  21.0992486  61.1228103 137.3734951  20.0842357
  62.9351654 135.6520822  12.7831595  63.7698546 136.0910626  12.9469156
  63.0710783 135.1759475  11.9639841  59.9843160 133.2100557  18.7309083
  60.4597282 133.4028203  17.9227934  59.0608726 133.2659743  18.4852467
  54.5623377 125.2448401  17.6964917  55.0805321 125.9809428  17.3711406
  54.2078510 125.5512394  18.5311676  54.8135971 121.6648683  13.2165814
  55.0937725 120.9971872  13.8426240  55.5986578 121.8577779  12.7040477
  58.6844829 130.0866317  16.9637389  59.6362252 130.1864415  16.9849613
  58.5148280 129.2944586  17.4735473  56.7059209 127.1721900  17.1496790
  56.1109141 127.4526913  16.4543278  56.4208906 127.6615801  17.9213531
  61.1632907 133.3072437  16.0779688  61.1309227 132.3688438  16.2639372
  61.7733531 133.3856474  15.3445513  61.3127396 130.0983480  16.1237972
  60.7966444 129.3141937  15.9367900  62.1967344 129.7702197  16.2884491
  58.9738123 123.8424496  12.0833784  58.7762944 123.5339584  12.9677116
  59.5837828 124.5686135  12.2131714  66.9809457 134.3688444  15.2185725
  67.7112845 134.1073732  15.7793428  66.3716402 133.6317166  15.2587793
  65.0624754 132.5096306  15.8160176  64.3357918 132.3752271  15.2076668
  64.6472041 132.8173135  16.6216894  52.8854931 136.2286236  23.5807549
  53.8057940 136.4064835  23.7747596  52.8504514 135.2842281  23.4287249
  42.1037096 131.4224830  12.5060824  41.7839880 130.5690138  12.2135198
  41.5570524 131.6373408  13.2618791  45.8817003 134.1387271  16.2230331
  46.1003013 135.0704378  16.2418364  46.2942777 133.7795245  17.0085134
  52.8021221 124.6455356   8.2106019  51.9921949 124.3002441   8.5861265
  53.4905638 124.3362900   8.7993630  54.7311769 123.7233403   9.8330316
  55.2842808 124.1428856  10.4920339  54.9681856 122.7969151   9.8753272
  50.7544868 129.7120476  25.6133079  50.6541595 130.6614833  25.5445171
  50.5366410 129.3838715  24.7409150  49.9557940 126.9605401   2.1973757
  50.8177104 127.2860300   2.4569574  50.1408284 126.1736897   1.6846823
  41.9725356 135.0427741  14.4753946  41.2788827 134.6281694  13.9623900
  42.7198347 135.0848278  13.8787364  58.1090576 125.8333928   9.3408980
  57.5289245 126.4918732   8.9587032  57.8426509 125.0111273   8.9296397
  56.5594143 125.2338986  11.5430300  57.0593921 125.3455520  10.7344619
  57.2029751 124.9300038  12.1831109  50.6176138 133.1417615  24.4298141
  50.1343220 133.9417975  24.6362030  50.7037077 133.1525560  23.4765585
  43.8862098 134.9745995  12.3519960  43.8632786 135.0733682  11.4001844
  44.1962735 135.8211146  12.6737127  46.5449476 137.0322150  16.4666575
  47.4992729 137.0006092  16.3996506  46.3462000 136.5712774  17.2816801
  47.1348858 135.6023266  19.0337373  47.9541747 136.0967345  19.0572210
  47.4085666 134.6855234  19.0054940  56.8915454 127.9934018   8.3965328
  56.0041309 128.2783669   8.1785523  57.3069443 127.8327782   7.5492605
  60.2429990 128.0180539  12.1119667  61.0190381 128.5076992  12.3844284
  59.5178125 128.4438593  12.5691537  62.6802549 128.7308158  13.1693608
  63.2747040 128.4903894  12.4586916  62.7529133 128.0115289  13.7967144
  56.8656478 133.5088554   8.6115618  56.8091679 133.9657106   7.7723251
  57.4184820 132.7479239   8.4338461  60.6761284 129.2978286   9.4365738
  60.4198218 128.8974922  10.2673945  60.0514152 130.0122080   9.3115877
  64.9873622 132.0374359  11.9437029  64.4273180 132.1067549  12.7168591
  64.3817125 131.8615344  11.2236525  48.0568831 143.4711086  13.6955215
  47.9401215 144.4156519  13.5933906  47.2361277 143.1684648  14.0841015
  57.5991257 134.6993335   5.9068147  57.5440061 134.5337607   4.9656591
  56.9737313 135.4069368   6.0630337  42.3883772 129.9361400  19.7329570
  43.0342636 129.4260354  20.2216795  42.1800923 130.6730081  20.3072995
  54.9137165 137.0042247  25.2321710  55.7828324 137.1782900  24.8708345
  54.4343916 137.8236664  25.1097440  50.9087383 124.2001444   5.4853466
  50.8966053 125.1443284   5.6421737  51.8010805 124.0171590   5.1912927
  49.0823345 144.1239348  16.9111144  49.9850591 144.1562959  17.2277639
  48.8560715 143.1939799  16.9257480  50.8376947 142.8770335  13.5721222
  49.8872578 142.8772196  13.4585595  51.1409433 142.1303069  13.0557257
  54.7239502 120.7944221   9.7399403  53.9571898 120.2402708   9.8856085
  55.1350207 120.8666090  10.6013554  46.7281263 127.0829017  23.8304584
  47.5912725 126.7265822  24.0407908  46.1546674 126.7442912  24.5179988
  63.8639130 149.8193153  20.5314715  63.8527770 149.4245951  19.6595219
  64.0259769 149.0859226  21.1248487  60.5846391 152.6030265  19.4793899
  60.2936257 153.5075896  19.3640565  61.2203375 152.6446793  20.1937969
  69.0504756 140.0879134  17.0747780  68.7188081 140.9574545  16.8508995
  68.4550370 139.7715418  17.7541810  56.3557568 148.3838751  13.3424186
  56.4849949 148.6373230  14.2563598  55.6755020 148.9766459  13.0228841
  63.0174285 146.2263866  22.0976027  62.2407619 146.7857786  22.0878892
  63.6564848 146.7120649  22.6190897  70.8095066 143.0090659  15.9319004
  70.1669446 143.3023192  15.2858799  70.3049994 142.8943579  16.7372201
  61.2720658 149.0349320  21.6593994  62.0135342 149.5734364  21.3828818
  60.5657643 149.6615608  21.8165546  66.7475997 151.1778460  20.2566156
  67.1559353 150.7360871  19.5120788  66.0253259 150.6031088  20.5100349
  63.1007067 146.1151067  17.6299713  63.9468262 146.5390480  17.7734362
  63.0405705 145.4584691  18.3238276  66.2506513 143.7755435  19.2880886
  66.0067445 144.5297496  18.7515162  66.5266443 144.1540783  20.1228133
  65.8071204 142.9311868  14.8694724  64.9455683 143.2293122  15.1611462
  65.8333639 143.1482267  13.9375757  60.0082021 146.1888968  22.4609304
  59.3780682 146.8705249  22.6944701  59.9018109 146.0772049  21.5162443
  55.3026994 145.8560764  13.3875228  54.5126048 146.1118292  12.9115339
  55.7938241 146.6709102  13.4927269  63.0847407 152.7450046  18.2941220
  63.1491839 153.2070453  19.1299392  62.3758331 152.1147411  18.4223530
  53.5864697 146.1091254  15.8190219  53.8372735 146.9938264  16.0847795
  54.1224245 145.9295856  15.0465311  59.2862764 140.4909734  24.8234555
  58.8929710 139.9375932  25.4982200  60.1028904 140.8020312  25.2141073
  62.2030725 141.9067613  22.4154812  62.9440438 142.5074766  22.3359274
  62.4348648 141.1645250  21.8572854  57.3472063 147.0923980  20.6933042
  57.2325578 146.1909237  20.9940141  56.4916581 147.3387677  20.3417858
  64.4263901 155.0341720  22.2920542  63.9827755 154.2478099  21.9741447
  65.0881114 155.2220871  21.6264433  62.9818193 152.8288650  21.1625452
  63.5146530 152.0676938  20.9324760  62.4532274 152.5362301  21.9049606
  66.1487888 137.9348716  16.6919094  65.8052157 138.8250357  16.6158204
  66.5166851 137.7450373  15.8288679  65.2284428 140.3053371  14.6568327
  64.7249224 140.2683506  13.8436132  65.5215035 141.2146113  14.7164984
  61.4727314 140.3892100  13.6634509  62.3380311 140.1934909  13.3040398
  61.5404823 140.1602452  14.5903865  59.0789633 142.6194308  11.0350875
  59.6533385 142.3969490  10.3024068  59.6660616 142.6883003  11.7879477
  61.3812301 139.4935557   9.7625945  60.7276713 139.1784574   9.1382560
  61.3392775 138.8711298  10.4885768  67.9475554 137.1942275  11.7936831
  68.2534430 136.3339638  11.5062746  68.6728158 137.7859895  11.5935825
  65.7563205 146.5714952  18.8918295  66.1112593 146.7986425  19.7512761
  66.4035336 146.9033329  18.2695550  59.6503068 143.6791483  15.6764636
  60.2902447 143.5380242  14.9787599  58.8180599 143.3925997  15.3003238
  58.1256610 145.0629565  17.6236447  58.7979663 144.8546927  16.9749096
  57.2986396 144.8651651  17.1841680  64.0282182 141.6891506  19.6402108
  63.3810097 142.3881456  19.5466585  64.7983197 142.1227650  20.0078357
  67.4360980 151.9540358  22.7152662  67.2846486 151.7250910  21.7982745
  67.4265659 152.9110960  22.7284007  64.2046316 149.5272271  17.6998928
  65.1338376 149.6783431  17.5267895  63.7837346 149.6156292  16.8447575
  58.5284107 148.3372168  18.3838885  58.3903905 147.6052407  18.9850424
  59.4389031 148.2481068  18.1023072  61.1566408 148.0492128  17.8722564
  61.8666026 147.4085320  17.8309183  61.1135716 148.3005022  18.7948745
  59.8695342 145.0357345  19.6918204  59.3332699 144.5848084  20.3439800
  59.2812050 145.1703254  18.9488668  55.6034463 144.1713353  16.7771198
  55.5192652 143.5639023  16.0421608  54.7817169 144.6622371  16.7780695
  60.1882344 155.2581795  18.9668096  60.8891804 155.8918278  19.1197490
  59.7177459 155.5996526  18.2063735  68.2177172 139.6236510  14.2920752
  67.3040251 139.8540737  14.4602959  68.6470273 139.7074954  15.1434785
  64.0371203 148.5546213  23.2786683  63.3611840 148.4540343  23.9489059
  64.8598837 148.3985427  23.7422681  55.7850062 154.7918150  15.8999199
  56.3703499 154.0461838  16.0327103  55.5874901 155.1022106  16.7835862
  50.3767717 147.3623750  14.6203642  50.4151816 146.8287341  15.4140760
  49.8708010 146.8358955  14.0014619  57.7558479 142.2088290  18.1166184
  57.8199806 143.0703121  17.7043582  57.6925600 141.5962292  17.3838543
  57.2310752 144.2811423  21.7639218  57.8582791 143.8988500  22.3776743
  56.3738671 144.0625625  22.1294911  67.6304860 154.6874398  23.3692954
  68.1744764 155.3004356  22.8747909  67.0491705 155.2453977  23.8859967
  57.5370542 144.1643849  13.6785122  56.8157127 144.7779816  13.5392595
  58.3263797 144.7001614  13.6001768  60.3396855 141.4998275  19.9525773
  60.8631257 141.7460572  20.7152083  60.1209188 142.3318310  19.5328911
  61.5449400 142.4411970  17.6375444  61.2046220 141.6419783  18.0396124
  60.8388406 142.7413681  17.0652277  62.1965872 139.5261283  16.0902767
  63.0191941 139.0521761  15.9681657  62.4403935 140.3051766  16.5901453
  59.7204451 146.2180403  13.8994746  59.5749031 146.5320706  14.7919027
  59.2429654 146.8365304  13.3465644  61.5800834 143.2082951  13.9475635
  61.5662402 142.3124045  13.6107933  62.2973262 143.2153615  14.5813921
  63.4326964 143.6420292  15.9928763  63.1744742 144.5637362  15.9913093
  62.9012005 143.2450726  16.6829227  54.1950113 148.7585748  16.8382407
  53.6503581 149.5345556  16.9702681  55.0729463 149.1056552  16.6801528
  63.8528920 139.7752242  12.3529925  63.8750617 139.8391575  11.3981905
  64.2696979 138.9356751  12.5470431  54.9816135 147.8855644  19.7312564
  54.2397871 148.0338279  20.3177194  54.6608879 148.1463910  18.8679313
  60.4678809 143.6029329  23.4253138  60.5166965 144.4791452  23.0430908
  61.0101323 143.0606722  22.8524781  70.9533655 154.1470452  22.7054275
  70.1629198 154.1294591  22.1658774  70.7167009 154.6858746  23.4603312
  71.0731530 150.9962919  20.0187004  71.1229535 150.8312926  20.9602526
  70.9645453 150.1290178  19.6284884  68.3635292 146.9793847  21.3346310
  69.2645155 146.8400311  21.0430308  68.4383267 147.1448301  22.2744488
  62.6978097 144.3560701  20.1799497  61.8281407 144.6494267  19.9082085
  62.9337578 144.9401146  20.9006760  65.4017131 140.5740318  17.6964917
  65.9199075 141.3101345  17.3711406  65.0472264 140.8804312  18.5311676
  65.6529725 136.9940601  13.2165814  65.9331479 136.3263790  13.8426240
  66.4380332 137.1869696  12.7040477  69.5238584 145.4158235  16.9637389
  70.4756007 145.5156333  16.9849613  69.3542034 144.6236503  17.4735473
  67.5452963 142.5013818  17.1496790  66.9502895 142.7818831  16.4543278
  67.2602660 142.9907719  17.9213531  63.7248685 151.5578154  23.5807549
  64.6451694 151.7356753  23.7747596  63.6898268 150.6134199  23.4287249
  52.9430850 146.7516747  12.5060824  52.6233634 145.8982056  12.2135198
  52.3964278 146.9665325  13.2618791  56.7210758 149.4679188  16.2230331
  56.9396767 150.3996296  16.2418364  57.1336531 149.1087163  17.0085134
  61.5938623 145.0412394  25.6133079  61.4935350 145.9906751  25.5445171
  61.3760165 144.7130633  24.7409150  52.8119110 150.3719659  14.4753946
  52.1182581 149.9573612  13.9623900  53.5592101 150.4140195  13.8787364
  61.4569893 148.4709533  24.4298141  60.9736975 149.2709893  24.6362030
  61.5430832 148.4817478  23.4765585  57.3843230 152.3614068  16.4666575
  58.3386484 152.3298010  16.3996506  57.1855754 151.9004691  17.2816801
  57.9742613 150.9315184  19.0337373  58.7935502 151.4259262  19.0572210
  58.2479420 150.0147152  19.0054940  53.2277527 145.2653318  19.7329570
  53.8736390 144.7552272  20.2216795  53.0194678 146.0021999  20.3072995
  65.7530919 152.3334165  25.2321710  66.6222079 152.5074817  24.8708345
  65.2737670 153.1528582  25.1097440  65.5633257 136.1236139   9.7399403
  64.7965653 135.5694625   9.8856085  65.9743962 136.1958008  10.6013554
  57.5675018 142.4120935  23.8304584  58.4306479 142.0557739  24.0407908
  56.9940428 142.0734829  24.5179988  70.1256519 155.8201651  24.8234555
  69.7323464 155.2667850  25.4982200  70.9422659 156.1312230  25.2141073
  68.4068772 157.7412852  23.8304584  69.2700234 157.3849657  24.0407908
  67.8334183 157.4026747  24.5179988  31.3457867  80.8379523   7.2560022
  31.3346508  80.4432321   6.3840525  31.5078507  80.1045595   7.8493793
  28.0665128  83.6216634   6.2039206  27.7754994  84.5262265   6.0885872
  28.7022113  83.6633162   6.9183275  33.0255014  83.3078050   3.1988999
  32.7255737  84.2103089   3.0904807  32.6806073  83.0410233   4.0510152
  30.4993023  77.2450236   8.8221334  29.7226357  77.8044156   8.8124199
  31.1383586  77.7307019   9.3436204  28.7539395  80.0535689   8.3839301
  29.4954080  80.5920733   8.1074125  28.0476381  80.6801978   8.5410853
  34.2294735  82.1964830   6.9811462  34.6378091  81.7547240   6.2366095
  33.5071997  81.6217457   7.2345655  30.5825805  77.1337436   4.3545019
  31.4287000  77.5576850   4.4979668  30.5224443  76.4771061   5.0483582
  34.5523550  82.7566020   0.7363751  33.9232412  82.9211734   0.0339819
  34.1649212  83.1707630   1.5074715  38.4312782  83.6920458  -1.9091885
  37.7463820  84.0719359  -2.4594852  38.5156631  84.3015785  -1.1759937
  33.7325250  74.7941805   6.0126193  33.4886182  75.5483865   5.4760469
  34.0085181  75.1727152   6.8473440  35.6863713  81.3380417   4.6903459
  35.8980608  81.9812177   4.0137840  35.6393461  80.5042734   4.2225389
  27.4900759  77.2075337   9.1854611  26.8599420  77.8891618   9.4190008
  27.3836847  77.0958419   8.2407749  36.8009541  84.2152373   2.8625816
  37.6226985  83.8132560   2.5808498  36.7971944  84.1120607   3.8141932
  30.5666145  83.7636416   5.0186526  30.6310577  84.2256823   5.8544698
  29.8577068  83.1333781   5.1468836  44.8915534  80.5591121  -0.7889213
  44.1379243  79.9898519  -0.9445208  45.0263075  80.5253785   0.1581422
  26.7681502  71.5096103  11.5479862  26.3748447  70.9562302  12.2227506
  27.5847642  71.8206682  11.9386380  29.6849463  72.9253982   9.1400119
  30.4259176  73.5261135   9.0604581  29.9167386  72.1831620   8.5818161
  24.8290801  78.1110349   7.4178348  24.7144316  77.2095607   7.7185447
  23.9735319  78.3574046   7.0663165  31.9082639  86.0528090   9.0165849
  31.4646493  85.2664468   8.6986753  32.5699852  86.2407240   8.3509740
  26.6669760  87.5823891   3.5426527  27.2177185  87.4540955   2.7703521
  25.8281236  87.8818780   3.1921420  34.0063877  86.3330890   7.0447250
  33.9882352  87.1539771   6.5527519  34.9283797  86.2084965   7.2697391
  30.4636931  83.8475019   7.8870758  30.9965268  83.0863307   7.6570066
  29.9351012  83.5548671   8.6294913  36.8082490  81.1710032   0.5156617
  36.1506164  81.8609294   0.6036745  37.6122889  81.5606464   0.8590603
  34.8282684  86.3436903  -2.3710481  35.1205658  86.9041960  -3.0898115
  35.3381304  86.6365464  -1.6157322  33.2381943  77.5901322   5.6163602
  33.5931331  77.8172795   6.4758067  33.8854074  77.9219698   4.9940857
  38.9949059  82.7796285   1.3324202  39.4285566  82.6871574   2.1807256
  39.7080640  82.7553785   0.6944218  32.7276954  86.3798379   2.8657303
  32.7813977  86.9489315   3.6335019  31.8591736  86.5500264   2.5011340
  39.8564609  82.8219985   3.8657088  40.0500499  83.7265796   4.1116363
  39.7565227  82.3627404   4.6995673  31.5100920  72.7077876   6.3647415
  30.8628835  73.4067825   6.2711891  32.2801935  73.1414020   6.7323663
  34.9179718  82.9726728   9.4397968  34.7665224  82.7437280   8.5228052
  34.9084397  83.9297329   9.4529313  31.6865054  80.5458641   4.4244235
  32.6157114  80.6969800   4.2513202  31.2656084  80.6342661   3.5692881
  30.4853386  84.5709305   2.1942772  30.3464471  84.2028090   3.0668710
  29.6967982  85.0856945   2.0226730  26.0102845  79.3558538   5.1084191
  25.8722643  78.6238777   5.7095730  26.9207768  79.2667438   4.8268379
  28.6385146  79.0678497   4.5967871  29.3484764  78.4271689   4.5554489
  28.5954454  79.3191392   5.5194052  36.6271924  86.0045850   7.5174450
  36.5684470  85.3205071   6.8505033  37.0291443  86.7464840   7.0655076
  36.6289332  83.9685434   5.7488430  35.7416110  83.6311356   5.8714829
  37.1987883  83.2368466   5.9857195  30.1590485  88.6286887   2.7149673
  30.0860656  89.4341858   3.2268978  29.7167878  88.8278853   1.8897694
  41.1106672  79.3793652   0.5104991  41.0996548  80.2618367   0.1398925
  40.2424051  79.0265203   0.3159529  32.6189168  88.5273721   4.8707832
  33.3317141  89.1621186   4.7983733  32.1279197  88.6237587   4.0547834
  27.6701082  86.2768164   5.6913403  28.3710541  86.9104647   5.8442797
  27.1996197  86.6182896   4.9309042  35.4702368  78.8312772   3.5165953
  34.8173818  79.0788679   2.8618406  35.8482748  78.0176910   3.1828430
  32.4309542  88.8672465  -2.3805877  32.6131936  88.0494121  -1.9178125
  33.2542528  89.0840157  -2.8180987  31.5189941  79.5732583  10.0031990
  30.8430578  79.4726712  10.6734365  32.3417575  79.4171797  10.4667987
  23.2668800  85.8104519   2.6244505  23.8522237  85.0648207   2.7572409
  23.0693638  86.1208476   3.5081169  30.2612724  90.8799510   4.2389606
  30.8131032  91.0431132   5.0038691  30.6018917  91.4703948   3.5669631
  24.7129490  75.2997793   8.4884525  25.3401528  74.9174870   9.1022049
  23.8557408  75.0811995   8.8540217  35.1123598  85.7060768  10.0938260
  35.6563502  86.3190726   9.5993215  34.5310443  86.2640346  10.6105273
  33.3981111  88.8281486   1.2253288  33.2732251  88.0271226   0.7164234
  34.0560202  89.3227679   0.7367258  35.4616019  86.6290506   2.8532838
  34.5146355  86.5095857   2.7811165  35.8098793  85.7413004   2.9359100
  32.4662453  86.4243222  -0.9462810  32.3187415  85.4959929  -0.7655240
  33.2915946  86.4463313  -1.4305734  36.0696575  87.2471781   0.1402063
  36.9943122  87.0414642   0.0026514  35.9011878  86.9988182   1.0491405
  30.4078535  88.4457992   6.2538260  30.7165662  88.2007139   7.1260960
  31.2054017  88.6504630   5.7657131  30.4299147  90.5995901  -1.5156363
  29.9904137  90.1072280  -0.8223506  31.1807264  90.0568869  -1.7564288
  27.9497547  74.6215699  10.1498445  27.9985702  75.4977821   9.7676214
  28.4920061  74.0793092   9.5770088  38.4352393  85.1656822   9.4299582
  37.6447936  85.1480961   8.8904081  38.1985747  85.7045116  10.1848618
  38.5550268  82.0149288   6.7432310  38.6048272  81.8499296   7.6847833
  38.4464191  81.1476547   6.3530191  35.8454030  77.9980216   8.0591617
  36.7463893  77.8586681   7.7675615  35.9202004  78.1634671   8.9989794
  30.1796835  75.3747071   6.9044803  29.3100145  75.6680637   6.6327392
  30.4156316  75.9587516   7.6252067  40.0568464  84.4346230   6.9874332
  39.7653273  84.7976210   7.8237793  39.4440596  83.7213238   6.8087664
  41.2564147  81.9999109  -0.4923098  42.0911038  82.4388914  -0.3285538
  41.3923275  81.5237763  -1.3114852  38.3055653  79.5578844   5.4554390
  38.7809774  79.7506491   4.6473241  37.3821218  79.6138030   5.2097773
  37.0057322  76.4344604   3.6882695  37.9574745  76.5342702   3.7094919
  36.8360772  75.6422873   4.1980780  39.4845399  79.6550724   2.8024995
  39.4521720  78.7166725   2.9884679  40.0946023  79.7334761   2.0690820
  39.6339888  76.4461768   2.8483278  39.1178937  75.6620224   2.6613207
  40.5179836  76.1180484   3.0129798  45.3021949  80.7166731   1.9431032
  46.0325338  80.4552019   2.5038735  44.6928895  79.9795453   1.9833100
  43.3837246  78.8574594   2.5405483  42.6570410  78.7230558   1.9321975
  42.9684533  79.1651422   3.3462201  31.2067423  82.5764523  10.3052856
  32.1270432  82.7543122  10.4992902  31.1717006  81.6320569  10.1532555
  29.0757361  76.0598764  12.3378386  28.9754088  77.0093121  12.2690477
  28.8578903  75.7317003  11.4654456  28.9388631  79.4895902  11.1543448
  28.4555712  80.2896263  11.3607337  29.0249570  79.5003847  10.2010892
  24.8661968  83.3800437   3.1911882  25.8205222  83.3484380   3.1241813
  24.6674492  82.9191061   4.0062107  25.4561350  81.9501553   5.7582679
  26.2754239  82.4445632   5.7817516  25.7298158  81.0333521   5.7300247
  26.3781323  89.8189374   0.4200522  26.2613707  90.7634806   0.3179212
  25.5573769  89.5162935   0.8086321  33.2349657  83.3520535  11.9567017
  34.1040816  83.5261187  11.5953652  32.7556408  84.1714951  11.8342746
  27.4035837  90.4717636   3.6356450  28.3063084  90.5041246   3.9522945
  27.1773207  89.5418087   3.6502786  29.1589439  89.2248622   0.2966529
  28.2085070  89.2250484   0.1830901  29.4621925  88.4781357  -0.2197436
  25.0493756  73.4307304  10.5549890  25.9125217  73.0744109  10.7653215
  24.4759166  73.0921199  11.2425295  44.8942133  95.0609161   1.3612291
  45.5320542  94.9415908   0.6575632  44.7762975  96.0090004   1.4200244
  41.7031839  95.0136589   1.2973816  41.3650350  94.8977653   0.4094351
  42.5721607  94.6127754   1.2774822  37.5618654  96.8672065  -2.7129293
  36.9983520  96.7762002  -3.4813005  37.4471050  96.0471969  -2.2326800
  42.1851622  96.1671440   7.2560022  42.1740263  95.7724239   6.3840525
  42.3472261  95.4337513   7.8493793  35.1083086  98.3623257   0.1254928
  35.9004378  98.0214081  -0.2898773  35.3479737  98.4718232   1.0457081
  38.9058883  98.9508552   6.2039206  38.6148749  99.8554183   6.0885872
  39.5415867  98.9925080   6.9183275  39.8315090  96.3285401   2.7940565
  40.4278662  96.1041423   2.0797528  39.8890061  95.5870146   3.3966013
  44.4483401  92.7860614  -1.5634500  45.2346490  92.3680038  -1.9144083
  44.7122105  93.6906707  -1.3952852  44.6193478  98.2233465  -6.8645844
  43.9839311  98.2968091  -6.1524939  44.2890885  98.8127064  -7.5426764
  49.8491828  92.7235848  -0.6601522  50.5817000  92.1535064  -0.4263693
  49.0931184  92.3357448  -0.2195016  41.4667948  95.1463089  -3.4638180
  41.1026155  94.6193710  -2.7525258  42.3235064  94.7561558  -3.6371694
  47.3717248  86.4357422   3.7993087  47.0400573  87.3052833   3.5754302
  46.7762862  86.1193706   4.4787117  43.8648768  98.6369968   3.1988999
  43.5649491  99.5395006   3.0904807  43.5199828  98.3702151   4.0510152
  37.3161249  95.0883765  -0.7674296  36.3911746  94.9559979  -0.5596604
  37.5645663  95.8677984  -0.2704354  47.2645912  91.1552508   0.8786437
  46.3562789  91.0867916   0.5845198  47.2133508  91.6324453   1.7068262
  41.0862656  92.6310646  -7.4830164  40.9662281  93.0767697  -6.6444684
  40.3915244  92.9795964  -8.0416626  34.6770061  94.7317038   0.0669493
  34.8062442  94.9851517   0.9808905  33.9967512  95.3244746  -0.2525852
  41.3386778  92.5742153   8.8221334  40.5620112  93.1336074   8.8124199
  41.9777341  93.0598936   9.3436204  49.1307558  89.3568946   2.6564311
  48.4881938  89.6501479   2.0104105  48.6262487  89.2421867   3.4617507
  46.7847722  93.1032119  -6.6549830  47.6965578  93.3359506  -6.8302133
  46.2757369  93.6869164  -7.2174752  39.5933150  95.3827607   8.3839301
  40.3347834  95.9212651   8.1074125  38.8870135  96.0093896   8.5410853
  45.0688490  97.5256747   6.9811462  45.4771846  97.0839158   6.2366095
  44.3465751  96.9509375   7.2345655  41.4219560  92.4629354   4.3545019
  42.2680755  92.8868768   4.4979668  41.3618197  91.8062978   5.0483582
  45.3917304  98.0857938   0.7363751  44.7626167  98.2503652   0.0339819
  45.0042966  98.4999547   1.5074715  49.2706536  99.0212376  -1.9091885
  48.5857574  99.4011277  -2.4594852  49.3550385  99.6307702  -1.1759937
  44.5719005  90.1233722   6.0126193  44.3279937  90.8775783   5.4760469
  44.8478935  90.5019070   6.8473440  46.5257468  96.6672335   4.6903459
  46.7374363  97.3104095   4.0137840  46.4787216  95.8334651   4.2225389
  44.1283697  89.2790155   1.5940031  43.2668176  89.5771409   1.8856768
  44.1546131  89.4960554   0.6621063  40.9445266  97.8232346  -1.9986164
  41.4083612  98.1020049  -2.7881541  40.6802064  96.9215791  -2.1813073
  37.8369347  97.3703828   0.9393600  38.4070704  97.7991096   0.3011084
  38.4277459  97.0886412   1.6377785  39.8814152  93.9455498  -5.1896598
  40.5838195  94.3976542  -4.7222672  39.5494781  93.3039317  -4.5616705
  38.3294514  92.5367255   9.1854611  37.6993174  93.2183536   9.4190008
  38.2230602  92.4250337   8.2407749  33.6239486  92.2039051   0.1120535
  32.8338540  92.4596580  -0.3639354  34.1150733  93.0187389   0.2172576
  47.6403296  99.5444290   2.8625816  48.4620739  99.1424477   2.5808498
  47.6365698  99.4412524   3.8141932  35.5754231  92.5683630  -2.9295988
  34.7785395  92.6802325  -2.4112493  35.3479824  92.9070282  -3.7955098
  41.4059899  99.0928333   5.0186526  41.4704332  99.5548741   5.8544698
  40.6970823  98.4625698   5.1468836  31.9077189  92.4569541   2.5435526
  32.1585227  93.3416551   2.8093102  32.4436737  92.2774143   1.7710618
  55.7309289  95.8883039  -0.7889213  54.9772997  95.3190437  -0.9445208
  55.8656830  95.8545703   0.1581422  41.1207917 100.7596441  -5.1134493
  40.9853592 101.6047977  -4.6849645  41.6617729 100.9615719  -5.8768559
  37.6075256  86.8388021  11.5479862  37.2142202  86.2854219  12.2227506
  38.4241397  87.1498599  11.9386380  40.5243217  88.2545900   9.1400119
  41.2652931  88.8553053   9.0604581  40.7561140  87.5123538   8.5818161
  35.6684555  93.4402267   7.4178348  35.5538070  92.5387524   7.7185447
  34.8129073  93.6865964   7.0663165  42.7476393 101.3820007   9.0165849
  42.3040247 100.5956386   8.6986753  43.4093607 101.5699158   8.3509740
  37.5063514 102.9115809   3.5426527  38.0570939 102.7832872   2.7703521
  36.6674990 103.2110698   3.1921420  44.8457631 101.6622807   7.0447250
  44.8276107 102.4831688   6.5527519  45.7677551 101.5376883   7.2697391
  41.3030685  99.1766937   7.8870758  41.8359022  98.4155225   7.6570066
  40.7744766  98.8840589   8.6294913  44.4700380  84.2827003   3.4164400
  44.1264650  85.1728645   3.3403511  44.8379343  84.0928660   2.5533985
  44.4350663  94.2735614  -8.0763165  43.9197286  95.0440219  -7.8374777
  44.1627971  93.6000750  -7.4530103  42.0197774  89.1185315  -3.0177926
  41.1639370  88.7292165  -3.1972288  42.4324726  89.1977276  -3.8778141
  43.5496921  86.6531658   1.3813633  43.0461716  86.6161793   0.5681439
  43.8427528  87.5624401   1.4410290  39.7939807  86.7370388   0.3879815
  40.6592803  86.5413196   0.0285705  39.8617315  86.5080739   1.3149172
  49.4084937  97.0267969  -6.1409991  48.6314380  96.6879128  -6.5854829
  50.0876418  97.0320592  -6.8155026  44.2236966  92.1462706  -6.2503383
  43.9187102  92.4608855  -5.3993240  45.1767408  92.2244126  -6.2076050
  42.6683398  98.3052929  -4.6010429  42.1404760  97.5705689  -4.9137192
  42.1670901  99.0827606  -4.8470461  47.6476244  96.5001950   0.5156617
  46.9899918  97.1901211   0.6036745  48.4516643  96.8898382   0.8590603
  37.4002126  88.9672596  -2.2403818  37.9745878  88.7447777  -2.9730625
  37.9873108  89.0361290  -1.4875217  46.4581703  94.8546323  -1.4339441
  46.9713585  95.4876314  -0.9317732  47.1082927  94.2547518  -1.7996081
  39.7024793  85.8413845  -3.5128749  39.0489206  85.5262862  -4.1372134
  39.6605267  85.2189585  -2.7868926  42.9362534  92.3295778   0.8118899
  42.0185095  92.5510725   0.6540587  43.3522677  92.4042089  -0.0469394
  43.7197581  93.7287194  -4.0578421  44.4669400  94.2408591  -4.3671299
  43.9889171  93.4071247  -3.1974027  41.9924232  96.2245735  -7.0751466
  41.0835451  95.9404767  -6.9778997  42.0219315  96.6444813  -7.9348160
  47.2243499  99.8352324  -3.3060299  46.7705826  98.9943234  -3.2495108
  46.5937466 100.4713722  -2.9685519  46.1676419  90.7644310  -2.0759631
  45.4299175  90.2521696  -1.7449389  46.4203192  90.3244692  -2.8876354
  45.6676438 101.6728821  -2.3710481  45.9599413 102.2333878  -3.0898115
  46.1775059 101.9657382  -1.6157322  46.2688046  83.5420562  -1.4817862
  46.5746923  82.6817925  -1.7691947  46.9940651  84.1338182  -1.6818868
  40.5409126  93.8374355  -0.9741671  40.5957735  92.8848192  -1.0499194
  39.7300328  93.9933794  -0.4900373  38.4801486  92.4551415  -3.2151292
  37.6669351  92.7545585  -2.8086100  38.9760480  92.0607104  -2.4976810
  40.6310063 102.4509172  -1.2817027  40.5886242 102.6770018  -2.2108495
  41.5472762 102.2172546  -1.1331226  44.0775697  92.9193239   5.6163602
  44.4325085  93.1464712   6.4758067  44.7247829  93.2511616   4.9940857
  49.8073434  96.0411675  -3.6787069  49.6691333  96.2313271  -4.6065880
  49.4509653  96.8031058  -3.2219018  37.9715560  90.0269770   2.4009943
  38.6114940  89.8858529   1.7032906  37.1393091  89.7404284   2.0248545
  49.8342814  98.1088202   1.3324202  50.2679321  98.0163491   2.1807256
  50.5474395  98.0845703   0.6944218  38.7475864  99.3272201  -1.4855065
  39.5416463  98.8322521  -1.6872490  38.0367557  98.7990064  -1.8487359
  43.5670709 101.7090296   2.8657303  43.6207731 102.2781233   3.6335019
  42.6985490 101.8792181   2.5011340  34.9744177  89.9970095  -2.8217070
  35.2350994  90.9115429  -2.9307910  35.7961349  89.5294538  -2.6720458
  36.4469102  91.4107853   4.3481754  37.1192156  91.2025215   3.6994403
  35.6198889  91.2129939   3.9086986  50.6958363  98.1511903   3.8657088
  50.8894253  99.0557713   4.1116363  50.5958982  97.6919322   4.6995673
  42.3494674  88.0369793   6.3647415  41.7022589  88.7359743   6.2711891
  43.1195690  88.4705937   6.7323663  45.7573472  98.3018646   9.4397968
  45.6058978  98.0729197   8.5228052  45.7478152  99.2589247   9.4529313
  42.5258808  95.8750558   4.4244235  43.4550868  96.0261718   4.2513202
  42.1049838  95.9634579   3.5692881  41.3247140  99.9001223   2.1942772
  41.1858226  99.5320007   3.0668710  40.5361736 100.4148862   2.0226730
  42.8752355  99.2782825  -0.4168390  42.5402188  99.2383595   0.4789260
  42.3756301  98.6127541  -0.8897980  36.8496599  94.6850456   5.1084191
  36.7116397  93.9530694   5.7095730  37.7601523  94.5959356   4.8268379
  45.8111547  96.6238860 -10.1431330  45.1940718  95.8985688 -10.2398278
  45.3428036  97.3848220 -10.4864256  39.4778900  94.3970415   4.5967871
  40.1878519  93.7563607   4.5554489  39.4348208  94.6483310   5.5194052
  47.4665679 101.3337768   7.5174450  47.4078225 100.6496988   6.8505033
  47.8685197 102.0756758   7.0655076  38.1907834  91.3835633   6.4163510
  37.6545191  90.9326371   7.0685107  37.6024542  91.5181542   5.6733975
  47.4683086  99.2977352   5.7488430  46.5809865  98.9603274   5.8714829
  48.0381637  98.5660383   5.9857195  33.9246955  90.5191640   3.5016505
  33.8405144  89.9117310   2.7666915  33.1029662  91.0100659   3.5026001
  40.9984239 103.9578804   2.7149673  40.9254411 104.7633776   3.2268978
  40.5561632 104.1570770   1.8897694  44.0970669  89.0045204  -1.1313300
  44.5939369  88.2515166  -1.4512230  43.3257651  89.0409521  -1.6970091
  51.9500427  94.7085569   0.5104991  51.9390303  95.5910285   0.1398925
  51.0817806  94.3557120   0.3159529  43.4582923 103.8565638   4.8707832
  44.1710895 104.4913103   4.7983733  42.9672952 103.9529504   4.0547834
  45.1800450  97.7616891  -3.5574877  44.2456729  97.8818354  -3.7270172
  45.3577118  96.8589358  -3.8214867  40.6805638  91.1462587  -1.4041615
  40.3103425  90.5933627  -0.7160710  41.1764730  90.5420720  -1.9566615
  48.5673001  93.6034210  -3.0224842  49.0333453  94.4362202  -3.0964540
  49.0180502  93.1379192  -2.3179584  38.5094836 101.6060082   5.6913403
  39.2104296 102.2396565   5.8442797  38.0389951 101.9474813   4.9309042
  46.6349232  99.9478032  -6.0238690  46.9109076  99.8334626  -5.1144816
  45.7653731  99.5495517  -6.0626517  46.5389664  85.9714797   1.0166059
  45.6252744  86.2019024   1.1848266  46.9682765  86.0553241   1.8680091
  46.3096122  94.1604689   3.5165953  45.6567573  94.4080597   2.8618406
  46.6876502  93.3468828   3.1828430  43.2703296 104.1964383  -2.3805877
  43.4525691 103.3786039  -1.9178125  44.0936282 104.4132075  -2.8180987
  43.6045462 103.1232568  -5.1190828  44.1333228 102.6125022  -5.7320666
  43.8673681 102.8075098  -4.2545295  42.3583695  94.9024500  10.0031990
  41.6824332  94.8018630  10.6734365  43.1811329  94.7463714  10.4667987
  34.1062554 101.1396437   2.6244505  34.6915991 100.3940125   2.7572409
  33.9087393 101.4500394   3.5081169  28.6980209  93.7102037   1.3448948
  28.7364309  93.1765628   2.1386066  28.1920502  93.1837243   0.7259926
  41.1006478 106.2091428   4.2389606  41.6524786 106.3723049   5.0038691
  41.4412672 106.7995866   3.5669631  36.0770972  88.5566578   4.8411491
  36.1412298  89.4181409   4.4288888  36.0138092  87.9440579   4.1083849
  35.5523244  90.6289710   8.4884525  36.1795283  90.2466788   9.1022049
  34.6951163  90.4103912   8.8540217  45.9517353 101.0352685  10.0938260
  46.4957257 101.6482644   9.5993215  45.3704197 101.5932264  10.6105273
  44.2374866 104.1573403   1.2253288  44.1126005 103.3563143   0.7164234
  44.8953957 104.6519597   0.7367258  35.8583034  90.5122136   0.4030428
  35.1369620  91.1258104   0.2637902  36.6476290  91.0479901   0.3247074
  46.3009774 101.9582424   2.8532838  45.3540110 101.8387775   2.7811165
  46.6492547 101.0704922   2.9359100  38.6609347  87.8476562   6.6771080
  39.1843749  88.0938859   7.4397389  38.4421681  88.6796597   6.2574217
  43.3056207 101.7535140  -0.9462810  43.1581170 100.8251847  -0.7655240
  44.1309701 101.7755230  -1.4305734  37.1718452  90.4053207  -5.0882317
  37.5114524  90.9339128  -5.8103709  37.6190572  90.7433613  -4.3123751
  46.9090329 102.5763698   0.1402063  47.8336877 102.3706560   0.0026514
  46.7405632 102.3280100   1.0491405  39.8661892  88.7890258   4.3620751
  39.5258713  87.9898071   4.7641431  39.1600899  89.0891968   3.7897584
  40.5178364  85.8739570   2.8148074  41.3404434  85.4000048   2.6926964
  40.7616428  86.6530054   3.3146760  43.3017722  89.6072977  -5.9530692
  43.5181336  90.4897615  -6.2541864  42.8211789  89.2159191  -6.6825050
  38.0416943  92.5658691   0.6240052  37.8961524  92.8798994   1.5164334
  37.5642147  93.1843591   0.0710951  39.9013326  89.5561239   0.6720942
  39.8874895  88.6602332   0.3353240  40.6185754  89.5631902   1.3059228
  41.7539457  89.9898579   2.7174069  41.4957234  90.9115649   2.7158400
  41.2224497  89.5929013   3.4074533  46.6985645 103.0949366  -4.5035845
  46.8722523 102.5295788  -5.2561993  47.1914537 103.8950261  -4.6856355
  32.5162605  95.1064035   3.5627713  31.9716073  95.8823843   3.6947988
  33.3941955  95.4534839   3.4046835  39.3050222  88.4375619  -4.0591488
  39.4266133  87.5092265  -3.8600601  39.0152264  88.4514305  -4.9713173
  42.1741412  86.1230529  -0.9224768  42.1963109  86.1869862  -1.8772789
  42.5909471  85.2835038  -0.7284262  52.5525036  95.8585789  -2.8845546
  52.9956183  95.1093114  -3.2826422  51.6751547  95.8495925  -3.2671814
  47.6860818 102.4116130  -7.4038947  48.3811722 103.0322823  -7.1851632
  48.0283968 101.5611482  -7.1286569  33.3028627  94.2333931   6.4557870
  32.5610363  94.3816567   7.0422501  32.9821371  94.4942197   5.5924620
  49.5852241  99.8615836  -5.8751616  50.1103565 100.2003109  -6.6002296
  49.4974593  98.9262851  -6.0588482  41.2472290 103.7749909   6.2538260
  41.5559416 103.5299056   7.1260960  42.0447772 103.9796548   5.7657131
  41.2692902 105.9287819  -1.5156363  40.8297892 105.4364198  -0.8223506
  42.0201019 105.3860787  -1.7564288  38.7166774 101.4725828   0.5565939
  38.0946783 100.8096533   0.2568166  39.3871641 101.4986960  -0.1260414
  38.7891301  89.9507616  10.1498445  38.8379457  90.8269739   9.7676214
  39.3313816  89.4085009   9.5770088  49.2746147 100.4948739   9.4299582
  48.4841691 100.4772878   8.8904081  49.0379502 101.0337033  10.1848618
  49.3944022  97.3441206   6.7432310  49.4442027  97.1791213   7.6847833
  49.2857945  96.4768465   6.3530191  46.6847784  93.3272134   8.0591617
  47.5857647  93.1878599   7.7675615  46.7595759  93.4926589   8.9989794
  41.0190590  90.7038989   6.9044803  40.1493899  90.9972555   6.6327392
  41.2550070  91.2879434   7.6252067  50.8962219  99.7638147   6.9874332
  50.6047027 100.1268128   7.8237793  50.2834350  99.0505156   6.8087664
  52.0957901  97.3291027  -0.4923098  52.9304793  97.7680831  -0.3285538
  52.2317030  96.8529680  -1.3114852  49.1449407  94.8870762   5.4554390
  49.6203529  95.0798408   4.6473241  48.2214972  94.9429948   5.2097773
  43.7229624  86.9218606   4.4210224  44.2411567  87.6579632   4.0956712
  43.3684756  87.2282599   5.2556983  43.9742218  83.3418888  -0.0588880
  44.2543972  82.6742077   0.5671547  44.7592825  83.5347984  -0.5714216
  47.8451076  91.7636522   3.6882695  48.7968499  91.8634620   3.7094919
  47.6754527  90.9714791   4.1980780  45.8665456  88.8492105   3.8742096
  45.2715388  89.1297118   3.1788585  45.5815152  89.3386006   4.6458837
  47.6260963 102.1180902 -10.4051324  47.5474594 101.7840766  -9.5115566
  48.4470630 102.6102670 -10.4059851  50.3239154  94.9842642   2.8024995
  50.2915474  94.0458643   2.9884679  50.9339778  95.0626679   2.0690820
  50.4733642  91.7753685   2.8483278  49.9572691  90.9912142   2.6613207
  51.3573591  91.4472402   3.0129798  48.1344369  85.5194701  -1.1920909
  47.9369190  85.2109789  -0.3077577  48.7444075  86.2456340  -1.0622979
  56.1415704  96.0458649   1.9431032  56.8719092  95.7843937   2.5038735
  55.5322649  95.3087371   1.9833100  54.2231001  94.1866511   2.5405483
  53.4964164  94.0522476   1.9321975  53.8078288  94.4943340   3.3462201
  42.0461177  97.9056441  10.3052856  42.9664187  98.0835040  10.4992902
  42.0110760  96.9612486  10.1532555  31.2643342  93.0995035  -0.7693869
  30.9446127  92.2460343  -1.0619495  30.7176770  93.3143613  -0.0135902
  35.0423250  95.8157476   2.9475637  35.2609260  96.7474583   2.9663671
  35.4549024  95.4565450   3.7330441  41.9627468  86.3225561  -5.0648674
  41.1528196  85.9772646  -4.6893428  42.6511885  86.0133105  -4.4761063
  43.8918016  85.4003608  -3.4424378  44.4449055  85.8199061  -2.7834355
  44.1288102  84.4739356  -3.4001422  39.9151115  91.3890681  12.3378386
  39.8147842  92.3385038  12.2690477  39.6972657  91.0608920  11.4654456
  31.1331602  96.7197946   1.1999252  30.4395074  96.3051899   0.6869207
  31.8804593  96.7618483   0.6032671  47.2696823  87.5104133  -3.9345714
  46.6895492  88.1688937  -4.3167661  47.0032756  86.6881477  -4.3458296
  45.7200389  86.9109191  -1.7324393  46.2200168  87.0225725  -2.5410074
  46.3635997  86.6070243  -1.0923585  39.7782385  94.8187820  11.1543448
  39.2949467  95.6188180  11.3607337  39.8643324  94.8295765  10.2010892
  33.0468345  96.6516200  -0.9234733  33.0239033  96.7503887  -1.8752850
  33.3568981  97.4981351  -0.6017567  35.7055723  98.7092355   3.1911882
  36.6598976  98.6776297   3.1241813  35.5068246  98.2482979   4.0062107
  36.2955105  97.2793471   5.7582679  37.1147994  97.7737550   5.7817516
  36.5691913  96.3625439   5.7300247  46.0521701  89.6704223  -4.8789365
  45.1647556  89.9553874  -5.0969171  46.4675690  89.5097987  -5.7262088
  49.4036237  89.6950744  -1.1635026  50.1796627  90.1847197  -0.8910409
  48.6784371  90.1208798  -0.7063157  51.8408796  90.4078363  -0.1061085
  52.4353287  90.1674099  -0.8167777  51.9135379  89.6885494   0.5212451
  46.0262725  95.1858759  -4.6639075  45.9697926  95.6427311  -5.5031443
  46.5791067  94.4249444  -4.8416232  49.8367531  90.9748491  -3.8388956
  49.5804465  90.5745127  -3.0080748  49.2120399  91.6892285  -3.9638817
  54.1479869  93.7144564  -1.3317664  53.5879427  93.7837754  -0.5586102
  53.5423372  93.5385549  -2.0518168  37.2175077 105.1481291   0.4200522
  37.1007462 106.0926724   0.3179212  36.3967524 104.8454853   0.8086321
  47.1051612  99.8731427  -8.7342885  47.9397216  99.4412626  -8.9165410
  46.9435955  99.7013441  -7.8065991  46.7597504  96.3763540  -7.3686546
  46.7046308  96.2107812  -8.3098102  46.1343559  97.0839573  -7.2124356
  31.5490019  91.6131605   6.4574876  32.1948883  91.1030559   6.9462101
  31.3407170  92.3500286   7.0318301  44.0743411  98.6812452  11.9567017
  44.9434571  98.8553105  11.5953652  43.5950163  99.5006869  11.8342746
  38.2429591 105.8009553   3.6356450  39.1456838 105.8333164   3.9522945
  38.0166962 104.8710004   3.6502786  39.9983194 104.5540540   0.2966529
  39.0478825 104.5542401   0.1830901  40.3015680 103.8073274  -0.2197436
  43.8845749  82.4714426  -3.5355291  43.1178145  81.9172913  -3.3898608
  44.2956454  82.5436295  -2.6741139  35.8887510  88.7599222  10.5549890
  36.7518972  88.4036027  10.7653215  35.3152921  88.4213117  11.2425295
  55.7335887 110.3901078   1.3612291  56.3714297 110.2707826   0.6575632
  55.6156730 111.3381922   1.4200244  52.5425593 110.3428506   1.2973816
  52.2044105 110.2269571   0.4094351  53.4115361 109.9419671   1.2774822
  48.4012409 112.1963983  -2.7129293  47.8377274 112.1053920  -3.4813005
  48.2864804 111.3763887  -2.2326800  53.0245376 111.4963358   7.2560022
  53.0134017 111.1016156   6.3840525  53.1866016 110.7629431   7.8493793
  45.9476841 113.6915174   0.1254928  46.7398133 113.3505999  -0.2898773
  46.1873491 113.8010149   1.0457081  49.7452637 114.2800470   6.2039206
  49.4542503 115.1846101   6.0885872  50.3809622 114.3216997   6.9183275
  50.6708844 111.6577318   2.7940565  51.2672417 111.4333341   2.0797528
  50.7283816 110.9162064   3.3966013  55.2877155 108.1152532  -1.5634500
  56.0740245 107.6971955  -1.9144083  55.5515860 109.0198624  -1.3952852
  55.4587233 113.5525382  -6.8645844  54.8233066 113.6260009  -6.1524939
  55.1284639 114.1418981  -7.5426764  60.6885583 108.0527765  -0.6601522
  61.4210755 107.4826982  -0.4263693  59.9324938 107.6649366  -0.2195016
  52.3061702 110.4755007  -3.4638180  51.9419910 109.9485628  -2.7525258
  53.1628818 110.0853476  -3.6371694  58.2111003 101.7649339   3.7993087
  57.8794328 102.6344750   3.5754302  57.6156616 101.4485623   4.4787117
  51.9467189 105.5044906  -8.4676831  52.1141592 106.3725143  -8.1006360
  51.7564358 105.6672188  -9.3915542  54.7042522 113.9661885   3.1988999
  54.4043246 114.8686924   3.0904807  54.3593582 113.6994069   4.0510152
  48.1555004 110.4175682  -0.7674296  47.2305500 110.2851896  -0.5596604
  48.4039417 111.1969901  -0.2704354  58.1039666 106.4844426   0.8786437
  57.1956544 106.4159834   0.5845198  58.0527262 106.9616370   1.7068262
  51.9256410 107.9602564  -7.4830164  51.8056035 108.4059615  -6.6444684
  51.2308999 108.3087882  -8.0416626  45.5163815 110.0608956   0.0669493
  45.6456196 110.3143435   0.9808905  44.8361266 110.6536664  -0.2525852
  52.1780532 107.9034071   8.8221334  51.4013866 108.4627991   8.8124199
  52.8171095 108.3890854   9.3436204  59.9701313 104.6860864   2.6564311
  59.3275693 104.9793397   2.0104105  59.4656241 104.5713784   3.4617507
  57.6241476 108.4324037  -6.6549830  58.5359332 108.6651424  -6.8302133
  57.1151123 109.0161081  -7.2174752  50.4326904 110.7119524   8.3839301
  51.1741589 111.2504568   8.1074125  49.7263890 111.3385813   8.5410853
  55.9082244 112.8548665   6.9811462  56.3165600 112.4131075   6.2366095
  55.1859506 112.2801292   7.2345655  52.2613314 107.7921272   4.3545019
  53.1074509 108.2160685   4.4979668  52.2011952 107.1354896   5.0483582
  56.2311059 113.4149856   0.7363751  55.6019921 113.5795570   0.0339819
  55.8436721 113.8291465   1.5074715  60.1100291 114.3504293  -1.9091885
  59.4251329 114.7303195  -2.4594852  60.1944140 114.9599620  -1.1759937
  55.4112759 105.4525640   6.0126193  55.1673691 106.2067701   5.4760469
  55.6872690 105.8310988   6.8473440  57.3651222 111.9964252   4.6903459
  57.5768117 112.6396012   4.0137840  57.3180970 111.1626569   4.2225389
  54.9677451 104.6082073   1.5940031  54.1061930 104.9063327   1.8856768
  54.9939886 104.8252472   0.6621063  51.7839021 113.1524264  -1.9986164
  52.2477366 113.4311967  -2.7881541  51.5195819 112.2507708  -2.1813073
  48.6763102 112.6995745   0.9393600  49.2464459 113.1283014   0.3011084
  49.2671213 112.4178330   1.6377785  50.7207907 109.2747416  -5.1896598
  51.4231950 109.7268460  -4.7222672  50.3888535 108.6331235  -4.5616705
  49.1688268 107.8659173   9.1854611  48.5386929 108.5475454   9.4190008
  49.0624356 107.7542254   8.2407749  44.4633241 107.5330969   0.1120535
  43.6732295 107.7888497  -0.3639354  44.9544488 108.3479307   0.2172576
  58.4797050 114.8736208   2.8625816  59.3014494 114.4716395   2.5808498
  58.4759453 114.7704442   3.8141932  46.4147986 107.8975548  -2.9295988
  45.6179149 108.0094242  -2.4112493  46.1873578 108.2362200  -3.7955098
  52.2453654 114.4220251   5.0186526  52.3098086 114.8840658   5.8544698
  51.5364577 113.7917616   5.1468836  42.7470944 107.7861459   2.5435526
  42.9978982 108.6708469   2.8093102  43.2830492 107.6066061   1.7710618
  66.5703043 111.2174956  -0.7889213  65.8166752 110.6482354  -0.9445208
  66.7050584 111.1837621   0.1581422  51.9601671 116.0888359  -5.1134493
  51.8247346 116.9339894  -4.6849645  52.5011484 116.2907636  -5.8768559
  48.4469011 102.1679938  11.5479862  48.0535956 101.6146137  12.2227506
  49.2635151 102.4790517  11.9386380  51.3636972 103.5837818   9.1400119
  52.1046685 104.1844971   9.0604581  51.5954895 102.8415455   8.5818161
  46.5078310 108.7694185   7.4178348  46.3931825 107.8679442   7.7185447
  45.6522828 109.0157882   7.0663165  53.5870148 116.7111925   9.0165849
  53.1434002 115.9248304   8.6986753  54.2487361 116.8991076   8.3509740
  48.3457269 118.2407727   3.5426527  48.8964694 118.1124790   2.7703521
  47.5068745 118.5402616   3.1921420  55.6851386 116.9914725   7.0447250
  55.6669861 117.8123606   6.5527519  56.6071306 116.8668800   7.2697391
  52.1424440 114.5058855   7.8870758  52.6752777 113.7447143   7.6570066
  51.6138521 114.2132506   8.6294913  55.3094135  99.6118921   3.4164400
  54.9658404 100.5020562   3.3403511  55.6773097  99.4220578   2.5533985
  55.2744417 109.6027532  -8.0763165  54.7591041 110.3732136  -7.8374777
  55.0021726 108.9292668  -7.4530103  52.8591529 104.4477232  -3.0177926
  52.0033125 104.0584083  -3.1972288  53.2718480 104.5269193  -3.8778141
  54.3890675 101.9823576   1.3813633  53.8855471 101.9453711   0.5681439
  54.6821282 102.8916318   1.4410290  50.6333561 102.0662305   0.3879815
  51.4986558 101.8705114   0.0285705  50.7011070 101.8372657   1.3149172
  55.0630721 107.4754624  -6.2503383  54.7580856 107.7900773  -5.3993240
  56.0161163 107.5536044  -6.2076050  53.5077153 113.6344847  -4.6010429
  52.9798514 112.8997607  -4.9137192  53.0064655 114.4119523  -4.8470461
  58.4869999 111.8293868   0.5156617  57.8293673 112.5193129   0.6036745
  59.2910398 112.2190299   0.8590603  48.2395880 104.2964513  -2.2403818
  48.8139632 104.0739695  -2.9730625  48.8266863 104.3653208  -1.4875217
  57.2975457 110.1838240  -1.4339441  57.8107339 110.8168232  -0.9317732
  57.9476681 109.5839436  -1.7996081  50.5418548 101.1705762  -3.5128749
  49.8882960 100.8554779  -4.1372134  50.4999022 100.5481503  -2.7868926
  53.7756288 107.6587696   0.8118899  52.8578850 107.8802643   0.6540587
  54.1916432 107.7334006  -0.0469394  54.5591336 109.0579111  -4.0578421
  55.3063155 109.5700509  -4.3671299  54.8282926 108.7363164  -3.1974027
  52.8317986 111.5537652  -7.0751466  51.9229205 111.2696685  -6.9778997
  52.8613070 111.9736731  -7.9348160  58.0637254 115.1644242  -3.3060299
  57.6099581 114.3235152  -3.2495108  57.4331220 115.8005640  -2.9685519
  57.0070173 106.0936228  -2.0759631  56.2692930 105.5813614  -1.7449389
  57.2596947 105.6536609  -2.8876354  56.5070193 117.0020738  -2.3710481
  56.7993167 117.5625795  -3.0898115  57.0168813 117.2949299  -1.6157322
  57.1081800  98.8712480  -1.4817862  57.4140677  98.0109843  -1.7691947
  57.8334405  99.4630100  -1.6818868  51.3802880 109.1666273  -0.9741671
  51.4351490 108.2140109  -1.0499194  50.5694082 109.3225712  -0.4900373
  49.3195240 107.7843333  -3.2151292  48.5063106 108.0837503  -2.8086100
  49.8154234 107.3899021  -2.4976810  51.4703818 117.7801089  -1.2817027
  51.4279997 118.0061936  -2.2108495  52.3866517 117.5464464  -1.1331226
  54.9169452 108.2485157   5.6163602  55.2718840 108.4756630   6.4758067
  55.5641583 108.5803534   4.9940857  60.6467189 111.3703593  -3.6787069
  60.5085087 111.5605189  -4.6065880  60.2903408 112.1322976  -3.2219018
  48.8109315 105.3561688   2.4009943  49.4508694 105.2150447   1.7032906
  47.9786845 105.0696201   2.0248545  60.6736568 113.4380120   1.3324202
  61.1073075 113.3455409   2.1807256  61.3868149 113.4137620   0.6944218
  49.5869619 114.6564118  -1.4855065  50.3810217 114.1614439  -1.6872490
  48.8761311 114.1281982  -1.8487359  54.4064463 117.0382214   2.8657303
  54.4601486 117.6073150   3.6335019  53.5379245 117.2084099   2.5011340
  45.8137931 105.3262013  -2.8217070  46.0744749 106.2407346  -2.9307910
  46.6355104 104.8586456  -2.6720458  47.2862857 106.7399770   4.3481754
  47.9585910 106.5317132   3.6994403  46.4592643 106.5421856   3.9086986
  61.5352118 113.4803821   3.8657088  61.7288008 114.3849631   4.1116363
  61.4352736 113.0211240   4.6995673  53.1888429 103.3661711   6.3647415
  52.5416344 104.0651661   6.2711891  53.9589444 103.7997855   6.7323663
  56.5967227 113.6310563   9.4397968  56.4452733 113.4021115   8.5228052
  56.5871906 114.5881165   9.4529313  53.3652563 111.2042476   4.4244235
  54.2944623 111.3553636   4.2513202  52.9443593 111.2926497   3.5692881
  52.1640895 115.2293140   2.1942772  52.0251980 114.8611925   3.0668710
  51.3755491 115.7440780   2.0226730  53.7146110 114.6074743  -0.4168390
  53.3795943 114.5675513   0.4789260  53.2150056 113.9419459  -0.8897980
  47.6890354 110.0142373   5.1084191  47.5510152 109.2822612   5.7095730
  48.5995277 109.9251273   4.8268379  50.3172655 109.7262333   4.5967871
  51.0272273 109.0855525   4.5554489  50.2741963 109.9775227   5.5194052
  58.3059433 116.6629686   7.5174450  58.2471979 115.9788906   6.8505033
  58.7078952 117.4048676   7.0655076  49.0301589 106.7127550   6.4163510
  48.4938946 106.2618289   7.0685107  48.4418297 106.8473459   5.6733975
  58.3076840 114.6269270   5.7488430  57.4203619 114.2895192   5.8714829
  58.8775392 113.8952301   5.9857195  44.7640710 105.8483558   3.5016505
  44.6798898 105.2409228   2.7666915  43.9423416 106.3392576   3.5026001
  51.8377994 119.2870722   2.7149673  51.7648165 120.0925694   3.2268978
  51.3955387 119.4862688   1.8897694  54.9364424 104.3337122  -1.1313300
  55.4333123 103.5807084  -1.4512230  54.1651405 104.3701438  -1.6970091
  62.7894181 110.0377487   0.5104991  62.7784057 110.9202203   0.1398925
  61.9211560 109.6849038   0.3159529  54.2976677 119.1857556   4.8707832
  55.0104650 119.8205021   4.7983733  53.8066706 119.2821422   4.0547834
  56.0194204 113.0908809  -3.5574877  55.0850483 113.2110271  -3.7270172
  56.1970873 112.1881276  -3.8214867  51.5199392 106.4754505  -1.4041615
  51.1497180 105.9225545  -0.7160710  52.0158485 105.8712638  -1.9566615
  59.4066756 108.9326128  -3.0224842  59.8727208 109.7654120  -3.0964540
  59.8574256 108.4671110  -2.3179584  49.3488591 116.9352000   5.6913403
  50.0498050 117.5688483   5.8442797  48.8783706 117.2766731   4.9309042
  57.4742987 115.2769949  -6.0238690  57.7502831 115.1626544  -5.1144816
  56.6047485 114.8787434  -6.0626517  57.3783418 101.3006715   1.0166059
  56.4646498 101.5310942   1.1848266  57.8076520 101.3845159   1.8680091
  57.1489877 109.4896607   3.5165953  56.4961327 109.7372515   2.8618406
  57.5270257 108.6760745   3.1828430  54.1097051 119.5256300  -2.3805877
  54.2919445 118.7077956  -1.9178125  54.9330037 119.7423993  -2.8180987
  53.1977450 110.2316418  10.0031990  52.5218087 110.1310547  10.6734365
  54.0205084 110.0755632  10.4667987  44.9456309 116.4688355   2.6244505
  45.5309746 115.7232043   2.7572409  44.7481147 116.7792311   3.5081169
  39.5373964 109.0393955   1.3448948  39.5758063 108.5057546   2.1386066
  39.0314257 108.5129160   0.7259926  51.9400233 121.5383346   4.2389606
  52.4918541 121.7014967   5.0038691  52.2806426 122.1287783   3.5669631
  46.9164726 103.8858495   4.8411491  46.9806053 104.7473326   4.4288888
  46.8531846 103.2732497   4.1083849  46.3916999 105.9581628   8.4884525
  47.0189037 105.5758705   9.1022049  45.5344917 105.7395830   8.8540217
  56.7911107 116.3644603  10.0938260  57.3351011 116.9774561   9.5993215
  56.2097952 116.9224182  10.6105273  55.0768620 119.4865321   1.2253288
  54.9519760 118.6855061   0.7164234  55.7347711 119.9811514   0.7367258
  46.6976788 105.8414054   0.4030428  45.9763374 106.4550021   0.2637902
  47.4870044 106.3771818   0.3247074  57.1403528 117.2874341   2.8532838
  56.1933864 117.1679692   2.7811165  57.4886302 116.3996839   2.9359100
  49.5003102 103.1768480   6.6771080  50.0237504 103.4230777   7.4397389
  49.2815435 104.0088515   6.2574217  44.8970383 105.4472155  -5.4557795
  44.5683089 104.5669534  -5.6382689  45.2509754 105.3919823  -4.5681406
  54.1449962 117.0827057  -0.9462810  53.9974924 116.1543765  -0.7655240
  54.9703455 117.1047148  -1.4305734  48.0112206 105.7345124  -5.0882317
  48.3508279 106.2631046  -5.8103709  48.4584327 106.0725531  -4.3123751
  57.7484084 117.9055616   0.1402063  58.6730631 117.6998477   0.0026514
  57.5799387 117.6572017   1.0491405  50.7055647 104.1182175   4.3620751
  50.3652467 103.3189988   4.7641431  49.9994653 104.4183886   3.7897584
  51.3572119 101.2031488   2.8148074  52.1798188 100.7291966   2.6926964
  51.6010182 101.9821971   3.3146760  49.9980353 104.2319746  -6.8889025
  50.7188716 104.6100999  -7.3925308  49.3745657 104.9508623  -6.7854047
  54.1411476 104.9364895  -5.9530692  54.3575090 105.8189533  -6.2541864
  53.6605543 104.5451108  -6.6825050  48.8810697 107.8950608   0.6240052
  48.7355278 108.2090911   1.5164334  48.4035901 108.5135509   0.0710951
  50.7407080 104.8853156   0.6720942  50.7268649 103.9894250   0.3353240
  51.4579508 104.8923820   1.3059228  52.5933211 105.3190496   2.7174069
  52.3350989 106.2407567   2.7158400  52.0618251 104.9220931   3.4074533
  43.3556360 110.4355953   3.5627713  42.8109828 111.2115761   3.6947988
  44.2335709 110.7826757   3.4046835  50.1443976 103.7667537  -4.0591488
  50.2659887 102.8384183  -3.8600601  49.8546019 103.7806223  -4.9713173
  53.0135167 101.4522447  -0.9224768  53.0356863 101.5161780  -1.8772789
  53.4303226 100.6126956  -0.7284262  63.3918791 111.1877707  -2.8845546
  63.8349937 110.4385032  -3.2826422  62.5145301 111.1787843  -3.2671814
  44.1422381 109.5625849   6.4557870  43.4004118 109.7108484   7.0422501
  43.8215126 109.8234115   5.5924620  52.0866044 119.1041827   6.2538260
  52.3953171 118.8590974   7.1260960  52.8841526 119.3088466   5.7657131
  52.1086656 121.2579737  -1.5156363  51.6691646 120.7656116  -0.8223506
  52.8594773 120.7152704  -1.7564288  49.5560528 116.8017746   0.5565939
  48.9340538 116.1388451   0.2568166  50.2265395 116.8278878  -0.1260414
  49.6285056 105.2799534  10.1498445  49.6773211 106.1561657   9.7676214
  50.1707570 104.7376927   9.5770088  60.1139901 115.8240657   9.4299582
  59.3235445 115.8064796   8.8904081  59.8773256 116.3628951  10.1848618
  60.2337777 112.6733124   6.7432310  60.2835781 112.5083131   7.6847833
  60.1251700 111.8060383   6.3530191  57.5241539 108.6564052   8.0591617
  58.4251402 108.5170516   7.7675615  57.5989513 108.8218506   8.9989794
  51.8584344 106.0330906   6.9044803  50.9887654 106.3264472   6.6327392
  52.0943825 106.6171351   7.6252067  61.7355973 115.0930065   6.9874332
  61.4440782 115.4560046   7.8237793  61.1228105 114.3797073   6.8087664
  62.9351656 112.6582945  -0.4923098  63.7698547 113.0972749  -0.3285538
  63.0710784 112.1821598  -1.3114852  59.9843162 110.2162680   5.4554390
  60.4597283 110.4090326   4.6473241  59.0608727 110.2721866   5.2097773
  54.5623378 102.2510523   4.4210224  55.0805322 102.9871550   4.0956712
  54.2078511 102.5574517   5.2556983  54.8135972  98.6710806  -0.0588880
  55.0937726  98.0033995   0.5671547  55.5986579  98.8639901  -0.5714216
  58.6844831 107.0928440   3.6882695  59.6362253 107.1926537   3.7094919
  58.5148281 106.3006708   4.1980780  56.7059210 104.1784023   3.8742096
  56.1109142 104.4589036   3.1788585  56.4208907 104.6677924   4.6458837
  61.1632908 110.3134559   2.8024995  61.1309228 109.3750560   2.9884679
  61.7733532 110.3918596   2.0690820  61.3127397 107.1045603   2.8483278
  60.7966446 106.3204060   2.6613207  62.1967345 106.7764320   3.0129798
  58.9738124 100.8486618  -1.1920909  58.7762945 100.5401707  -0.3077577
  59.5837829 101.5748257  -1.0622979  66.9809458 111.3750566   1.9431032
  67.7112847 111.1135854   2.5038735  66.3716404 110.6379288   1.9833100
  65.0624755 109.5158429   2.5405483  64.3357919 109.3814394   1.9321975
  64.6472042 109.8235258   3.3462201  52.8854932 113.2348359  10.3052856
  53.8057941 113.4126958  10.4992902  52.8504515 112.2904404  10.1532555
  42.1037097 108.4286952  -0.7693869  41.7839881 107.5752260  -1.0619495
  41.5570525 108.6435530  -0.0135902  45.8817004 111.1449393   2.9475637
  46.1003014 112.0766501   2.9663671  46.2942778 110.7857368   3.7330441
  52.8021222 101.6517479  -5.0648674  51.9921950 101.3064564  -4.6893428
  53.4905639 101.3425022  -4.4761063  54.7311770 100.7295525  -3.4424378
  55.2842809 101.1490979  -2.7834355  54.9681857  99.8031273  -3.4001422
  50.7544870 106.7182599  12.3378386  50.6541597 107.6676956  12.2690477
  50.5366412 106.3900838  11.4654456  49.9557941 103.9667524 -11.0780937
  50.8177105 104.2922422 -10.8185119  50.1408285 103.1799020 -11.5907871
  41.9725357 112.0489864   1.1999252  41.2788828 111.6343817   0.6869207
  42.7198348 112.0910400   0.6032671  58.1090577 102.8396051  -3.9345714
  57.5289247 103.4980855  -4.3167661  57.8426510 102.0173395  -4.3458296
  56.5594144 102.2401108  -1.7324393  57.0593922 102.3517643  -2.5410074
  57.2029752 101.9362161  -1.0923585  50.6176140 110.1479738  11.1543448
  50.1343221 110.9480098  11.3607337  50.7037079 110.1587683  10.2010892
  43.8862099 111.9808118  -0.9234733  43.8632787 112.0795805  -1.8752850
  44.1962736 112.8273268  -0.6017567  46.5449477 114.0384273   3.1911882
  47.4992731 114.0068215   3.1241813  46.3462001 113.5774896   4.0062107
  47.1348859 112.6085389   5.7582679  47.9541748 113.1029467   5.7817516
  47.4085667 111.6917357   5.7300247  56.8915456 104.9996141  -4.8789365
  56.0041311 105.2845792  -5.0969171  57.3069445 104.8389904  -5.7262088
  60.2429992 105.0242662  -1.1635026  61.0190382 105.5139114  -0.8910409
  59.5178126 105.4500716  -0.7063157  62.6802550 105.7370281  -0.1061085
  63.2747041 105.4966017  -0.8167777  62.7529134 105.0177412   0.5212451
  56.8656479 110.5150677  -4.6639075  56.8091681 110.9719228  -5.5031443
  57.4184822 109.7541361  -4.8416232  60.6761285 106.3040409  -3.8388956
  60.4198219 105.9037044  -3.0080748  60.0514153 107.0184203  -3.9638817
  64.9873623 109.0436482  -1.3317664  64.4273181 109.1129671  -0.5586102
  64.3817126 108.8677467  -2.0518168  48.0568832 120.4773209   0.4200522
  47.9401216 121.4218642   0.3179212  47.2361278 120.1746771   0.8086321
  57.5991259 111.7055458  -7.3686546  57.5440062 111.5399729  -8.3098102
  56.9737314 112.4131491  -7.2124356  42.3883774 106.9423522   6.4574876
  43.0342637 106.4322476   6.9462101  42.1800925 107.6792204   7.0318301
  54.9137166 114.0104370  11.9567017  55.7828325 114.1845022  11.5953652
  54.4343917 114.8298787  11.8342746  50.9087384 101.2063567  -7.7901228
  50.8966054 102.1505407  -7.6332957  51.8010806 101.0233712  -8.0841766
  49.0823346 121.1301471   3.6356450  49.9850593 121.1625081   3.9522945
  48.8560716 120.2001922   3.6502786  50.8376948 119.8832457   0.2966529
  49.8872579 119.8834319   0.1830901  51.1409434 119.1365192  -0.2197436
  54.7239503  97.8006344  -3.5355291  53.9571899  97.2464830  -3.3898608
  55.1350208  97.8728212  -2.6741139  46.7281265 104.0891140  10.5549890
  47.5912726 103.7327944  10.7653215  46.1546675 103.7505034  11.2425295
  63.8639131 126.8255276   7.2560022  63.8527772 126.4308074   6.3840525
  64.0259770 126.0921348   7.8493793  60.5846392 129.6092388   6.2039206
  60.2936258 130.5138018   6.0885872  61.2203376 129.6508915   6.9183275
  69.0504757 117.0941257   3.7993087  68.7188082 117.9636668   3.5754302
  68.4550371 116.7777541   4.4787117  56.3557570 125.3900873   0.0669493
  56.4849951 125.6435352   0.9808905  55.6755021 125.9828581  -0.2525852
  63.0174287 123.2325989   8.8221334  62.2407621 123.7919909   8.8124199
  63.6564850 123.7182772   9.3436204  70.8095067 120.0152782   2.6564311
  70.1669447 120.3085315   2.0104105  70.3049996 119.9005702   3.4617507
  61.2720659 126.0411442   8.3839301  62.0135343 126.5796486   8.1074125
  60.5657644 126.6677731   8.5410853  66.7475999 128.1840583   6.9811462
  67.1559355 127.7422993   6.2366095  66.0253260 127.6093210   7.2345655
  63.1007069 123.1213189   4.3545019  63.9468264 123.5452603   4.4979668
  63.0405706 122.4646814   5.0483582  66.2506514 120.7817558   6.0126193
  66.0067446 121.5359618   5.4760469  66.5266444 121.1602905   6.8473440
  65.8071206 119.9373991   1.5940031  64.9455685 120.2355244   1.8856768
  65.8333640 120.1544390   0.6621063  60.0082023 123.1951090   9.1854611
  59.3780683 123.8767371   9.4190008  59.9018110 123.0834172   8.2407749
  55.3026995 122.8622886   0.1120535  54.5126049 123.1180415  -0.3639354
  55.7938242 123.6771224   0.2172576  63.0847408 129.7512169   5.0186526
  63.1491841 130.2132576   5.8544698  62.3758332 129.1209534   5.1468836
  53.5864698 123.1153377   2.5435526  53.8372736 124.0000387   2.8093102
  54.1224246 122.9357978   1.7710618  59.2862765 117.4971856  11.5479862
  58.8929711 116.9438055  12.2227506  60.1028906 117.8082435  11.9386380
  62.2030726 118.9129735   9.1400119  62.9440440 119.5136888   9.0604581
  62.4348649 118.1707373   8.5818161  57.3472064 124.0986103   7.4178348
  57.2325579 123.1971360   7.7185447  56.4916582 124.3449799   7.0663165
  64.4263902 132.0403843   9.0165849  63.9827756 131.2540221   8.6986753
  65.0881116 132.2282993   8.3509740  62.9818194 129.8350772   7.8870758
  63.5146531 129.0739060   7.6570066  62.4532275 129.5424424   8.6294913
  66.1487889 114.9410838   3.4164400  65.8052159 115.8312480   3.3403511
  66.5166852 114.7512496   2.5533985  65.2284430 117.3115493   1.3813633
  64.7249225 117.2745629   0.5681439  65.5215037 118.2208236   1.4410290
  61.4727316 117.3954223   0.3879815  62.3380312 117.1997032   0.0285705
  61.5404824 117.1664575   1.3149172  59.0789635 119.6256431  -2.2403818
  59.6533387 119.4031612  -2.9730625  59.6660617 119.6945126  -1.4875217
  61.3812302 116.4997680  -3.5128749  60.7276715 116.1846697  -4.1372134
  61.3392776 115.8773420  -2.7868926  67.9475555 114.2004397  -1.4817862
  68.2534432 113.3401761  -1.7691947  68.6728160 114.7922018  -1.6818868
  65.7563206 123.5777075   5.6163602  66.1112594 123.8048548   6.4758067
  66.4035337 123.9095451   4.9940857  59.6503069 120.6853606   2.4009943
  60.2902449 120.5442365   1.7032906  58.8180600 120.3988119   2.0248545
  58.1256611 122.0691688   4.3481754  58.7979665 121.8609050   3.6994403
  57.2986398 121.8713774   3.9086986  64.0282183 118.6953629   6.3647415
  63.3810098 119.3943578   6.2711891  64.7983199 119.1289773   6.7323663
  67.4360981 128.9602481   9.4397968  67.2846487 128.7313033   8.5228052
  67.4265661 129.9173082   9.4529313  64.2046317 126.5334394   4.4244235
  65.1338377 126.6845553   4.2513202  63.7837347 126.6218415   3.5692881
  58.5284108 125.3434291   5.1084191  58.3903906 124.6114530   5.7095730
  59.4389032 125.2543191   4.8268379  61.1566409 125.0554250   4.5967871
  61.8666028 124.4147442   4.5554489  61.1135717 125.3067145   5.5194052
  59.8695343 122.0419468   6.4163510  59.3332700 121.5910207   7.0685107
  59.2812051 122.1765377   5.6733975  55.6034464 121.1775476   3.5016505
  55.5192653 120.5701145   2.7666915  54.7817171 121.6684494   3.5026001
  60.1882345 132.2643917   5.6913403  60.8891805 132.8980400   5.8442797
  59.7177460 132.6058649   4.9309042  68.2177173 116.6298633   1.0166059
  67.3040253 116.8602860   1.1848266  68.6470274 116.7137077   1.8680091
  64.0371204 125.5608336  10.0031990  63.3611841 125.4602465  10.6734365
  64.8598838 125.4047550  10.4667987  55.7850063 131.7980272   2.6244505
  56.3703500 131.0523960   2.7572409  55.5874902 132.1084229   3.5081169
  50.3767718 124.3685873   1.3448948  50.4151818 123.8349463   2.1386066
  49.8708011 123.8421078   0.7259926  57.7558481 119.2150413   4.8411491
  57.8199807 120.0765244   4.4288888  57.6925601 118.6024415   4.1083849
  57.2310753 121.2873546   8.4884525  57.8582792 120.9050623   9.1022049
  56.3738672 121.0687748   8.8540217  67.6304862 131.6936521  10.0938260
  68.1744766 132.3066479   9.5993215  67.0491706 132.2516099  10.6105273
  57.5370543 121.1705971   0.4030428  56.8157129 121.7841939   0.2637902
  58.3263799 121.7063736   0.3247074  60.3396856 118.5060398   6.6771080
  60.8631258 118.7522694   7.4397389  60.1209190 119.3380433   6.2574217
  61.5449401 119.4474093   4.3620751  61.2046222 118.6481906   4.7641431
  60.8388408 119.7475804   3.7897584  62.1965873 116.5323405   2.8148074
  63.0191943 116.0583884   2.6926964  62.4403937 117.3113889   3.3146760
  59.7204452 123.2242526   0.6240052  59.5749033 123.5382829   1.5164334
  59.2429656 123.8427426   0.0710951  61.5800835 120.2145074   0.6720942
  61.5662404 119.3186167   0.3353240  62.2973263 120.2215738   1.3059228
  63.4326966 120.6482414   2.7174069  63.1744743 121.5699485   2.7158400
  62.9012006 120.2512849   3.4074533  54.1950114 125.7647870   3.5627713
  53.6503582 126.5407678   3.6947988  55.0729464 126.1118675   3.4046835
  63.8528921 116.7814365  -0.9224768  63.8750618 116.8453698  -1.8772789
  64.2696980 115.9418873  -0.7284262  54.9816136 124.8917767   6.4557870
  54.2397872 125.0400402   7.0422501  54.6608880 125.1526032   5.5924620
  60.4678810 120.6091452  10.1498445  60.5166966 121.4853574   9.7676214
  61.0101325 120.0668845   9.5770088  70.9533656 131.1532575   9.4299582
  70.1629200 131.1356714   8.8904081  70.7167011 131.6920869  10.1848618
  71.0731531 128.0025041   6.7432310  71.1229536 127.8375049   7.6847833
  70.9645454 127.1352300   6.3530191  68.3635293 123.9855969   8.0591617
  69.2645156 123.8462434   7.7675615  68.4383268 124.1510424   8.9989794
  62.6978099 121.3622824   6.9044803  61.8281408 121.6556390   6.6327392
  62.9337579 121.9463269   7.6252067  65.4017133 117.5802441   4.4210224
  65.9199076 118.3163468   4.0956712  65.0472265 117.8866434   5.2556983
  65.6529727 114.0002723  -0.0588880  65.9331481 113.3325913   0.5671547
  66.4380334 114.1931819  -0.5714216  69.5238585 122.4220357   3.6882695
  70.4756008 122.5218455   3.7094919  69.3542036 121.6298626   4.1980780
  67.5452965 119.5075941   3.8742096  66.9502897 119.7880953   3.1788585
  67.2602661 119.9969842   4.6458837  63.7248686 128.5640276  10.3052856
  64.6451696 128.7418875  10.4992902  63.6898269 127.6196322  10.1532555
  52.9430851 123.7578870  -0.7693869  52.6233636 122.9044178  -1.0619495
  52.3964279 123.9727448  -0.0135902  56.7210759 126.4741311   2.9475637
  56.9396769 127.4058419   2.9663671  57.1336533 126.1149285   3.7330441
  61.5938624 122.0474517  12.3378386  61.4935351 122.9968874  12.2690477
  61.3760166 121.7192756  11.4654456  52.8119111 127.3781781   1.1999252
  52.1182583 126.9635734   0.6869207  53.5592102 127.4202318   0.6032671
  61.4569894 125.4771656  11.1543448  60.9736976 126.2772016  11.3607337
  61.5430833 125.4879600  10.2010892  57.3843232 129.3676190   3.1911882
  58.3386485 129.3360133   3.1241813  57.1855755 128.9066814   4.0062107
  57.9742614 127.9377306   5.7582679  58.7935503 128.4321385   5.7817516
  58.2479422 127.0209274   5.7300247  53.2277528 122.2715440   6.4574876
  53.8736392 121.7614394   6.9462101  53.0194679 123.0084122   7.0318301
  65.7530920 129.3396288  11.9567017  66.6222080 129.5136940  11.5953652
  65.2737672 130.1590704  11.8342746  65.5633258 113.1298261  -3.5355291
  64.7965654 112.5756748  -3.3898608  65.9743963 113.2020130  -2.6741139
  57.5675019 119.4183057  10.5549890  58.4306481 119.0619862  10.7653215
  56.9940430 119.0796952  11.2425295  70.1256520 132.8263774  11.5479862
  69.7323465 132.2729972  12.2227506  70.9422660 133.1374352  11.9386380
  68.4068774 134.7474975  10.5549890  69.2700235 134.3911780  10.7653215
  67.8334184 134.4088870  11.2425295  53.0245378  88.5025481  -6.0194672
  53.0134018  88.1078279  -6.8914168  53.1866017  87.7691553  -5.4260900
  49.7452639  91.2862592  -7.0715488  49.4542505  92.1908223  -7.1868821
  50.3809623  91.3279120  -6.3571418  54.7042524  90.9724008 -10.0765694
  54.4043247  91.8749047 -10.1849887  54.3593583  90.7056191  -9.2244541
  52.1780533  84.9096194  -4.4533359  51.4013867  85.4690114  -4.4630495
  52.8171096  85.3952977  -3.9318489  50.4326906  87.7181647  -4.8915392
  51.1741590  88.2566691  -5.1680569  49.7263891  88.3447936  -4.7343841
  55.9082245  89.8610788  -6.2943231  56.3165601  89.4193198  -7.0388599
  55.1859507  89.2863415  -6.0409038  52.2613315  84.7983394  -8.9209674
  53.1074511  85.2222808  -8.7775025  52.2011953  84.1417019  -8.2271111
  56.2311060  90.4211978 -12.5390942  55.6019922  90.5857692 -13.2414874
  55.8436722  90.8353588 -11.7679978  60.1100292  91.3566416 -15.1846578
  59.4251330  91.7365317 -15.7349545  60.1944141  91.9661743 -14.4514631
  55.4112761  82.4587763  -7.2628500  55.1673693  83.2129823  -7.7994225
  55.6872691  82.8373110  -6.4281253  57.3651223  89.0026375  -8.5851235
  57.5768119  89.6458135  -9.2616854  57.3180972  88.1688692  -9.0529305
  49.1688269  84.8721295  -4.0900082  48.5386930  85.5537576  -3.8564686
  49.0624357  84.7604377  -5.0346944  58.4797051  91.8798330 -10.4128877
  59.3014495  91.4778518 -10.6946196  58.4759454  91.7766565  -9.4612762
  52.2453655  91.4282374  -8.2568167  52.3098087  91.8902781  -7.4209995
  51.5364579  90.7979739  -8.1285857  66.5703044  88.2237079 -14.0643906
  65.8166753  87.6544477 -14.2199902  66.7050586  88.1899743 -13.1173271
  48.4469012  79.1742061  -1.7274831  48.0535958  78.6208260  -1.0527187
  49.2635152  79.4852640  -1.3368314  51.3636973  80.5899940  -4.1354575
  52.1046686  81.1907093  -4.2150112  51.5954896  79.8477578  -4.6936532
  46.5078311  85.7756307  -5.8576345  46.3931826  84.8741565  -5.5569246
  45.6522829  86.0220004  -6.2091529  53.5870149  93.7174048  -4.2588845
  53.1434003  92.9310426  -4.5767940  54.2487362  93.9053198  -4.9244954
  48.3457270  95.2469849  -9.7328166  48.8964695  95.1186913 -10.5051172
  47.5068746  95.5464738 -10.0833273  55.6851387  93.9976848  -6.2307443
  55.6669862  94.8185729  -6.7227174  56.6071307  93.8730923  -6.0057302
  52.1424441  91.5120977  -5.3883935  52.6752778  90.7509265  -5.6184627
  51.6138522  91.2194629  -4.6459780  58.4870000  88.8355990 -12.7598077
  57.8293674  89.5255252 -12.6717948  59.2910399  89.2252422 -12.4164090
  56.5070194  94.0082861 -15.6465174  56.7993168  94.5687918 -16.3652808
  57.0168815  94.3011422 -14.8912015  54.9169453  85.2547280  -7.6591092
  55.2718841  85.4818753  -6.7996626  55.5641584  85.5865656  -8.2813836
  60.6736570  90.4442242 -11.9430491  61.1073076  90.3517532 -11.0947437
  61.3868150  90.4199743 -12.5810475  54.4064464  94.0444337 -10.4097390
  54.4601487  94.6135273  -9.6419675  53.5379246  94.2146222 -10.7743353
  61.5352119  90.4865943  -9.4097606  61.7288009  91.3911754  -9.1638331
  61.4352737  90.0273362  -8.5759021  53.1888430  80.3723834  -6.9107278
  52.5416345  81.0713783  -7.0042802  53.9589445  80.8059978  -6.5431030
  56.5967228  90.6372686  -3.8356725  56.4452734  90.4083238  -4.7526641
  56.5871907  91.5943287  -3.8225380  53.3652564  88.2104599  -8.8510459
  54.2944624  88.3615758  -9.0241491  52.9443594  88.2988619  -9.7061812
  52.1640896  92.2355263 -11.0811921  52.0251982  91.8674047 -10.2085983
  51.3755492  92.7502902 -11.2527963  47.6890355  87.0204496  -8.1670502
  47.5510153  86.2884735  -7.5658963  48.5995279  86.9313396  -8.4486314
  50.3172656  86.7324455  -8.6786822  51.0272274  86.0917647  -8.7200204
  50.2741964  86.9837350  -7.7560642  58.3059434  93.6691808  -5.7580243
  58.2471981  92.9851029  -6.4249660  58.7078953  94.4110798  -6.2099617
  58.3076842  91.6331392  -7.5266264  57.4203621  91.2957314  -7.4039865
  58.8775393  90.9014424  -7.2897498  51.8377995  96.2932845 -10.5605020
  51.7648167  97.0987816 -10.0485716  51.3955388  96.4924811 -11.3856999
  62.7894182  87.0439610 -12.7649702  62.7784059  87.9264325 -13.1355769
  61.9211562  86.6911161 -12.9595165  54.2976679  96.1919679  -8.4046862
  55.0104651  96.8267144  -8.4770960  53.8066707  96.2883545  -9.2206860
  49.3488592  93.9414122  -7.5841291  50.0498052  94.5750605  -7.4311897
  48.8783707  94.2828854  -8.3445652  57.1489878  86.4958730  -9.7588740
  56.4961328  86.7434637 -10.4136288  57.5270258  85.6822868 -10.0926263
  54.1097052  96.5318423 -15.6560570  54.2919447  95.7140079 -15.1932818
  54.9330038  96.7486115 -16.0935680  53.1977451  87.2378541  -3.2722703
  52.5218088  87.1372670  -2.6020328  54.0205085  87.0817754  -2.8086706
  44.9456310  93.4750477 -10.6510188  45.5309747  92.7294165 -10.5182284
  44.7481149  93.7854434  -9.7673524  51.9400234  98.5445468  -9.0365087
  52.4918542  98.7077090  -8.2716002  52.2806428  99.1349906  -9.7085063
  46.3917000  82.9643751  -4.7870168  47.0189039  82.5820828  -4.1732644
  45.5344919  82.7457952  -4.4214476  56.7911108  93.3706726  -3.1816433
  57.3351012  93.9836684  -3.6761478  56.2097953  93.9286304  -2.6649420
  55.0768621  96.4927444 -12.0501405  54.9519761  95.6917184 -12.5590460
  55.7347712  96.9873637 -12.5387435  57.1403530  94.2936464 -10.4221855
  56.1933865  94.1741815 -10.4943528  57.4886303  93.4058962 -10.3395594
  54.1449963  94.0889180 -14.2217503  53.9974925  93.1605887 -14.0409933
  54.9703457  94.1109271 -14.7060428  57.7484085  94.9117739 -13.1352630
  58.6730632  94.7060600 -13.2728179  57.5799388  94.6634140 -12.2263289
  52.0866045  96.1103950  -7.0216433  52.3953172  95.8653097  -6.1493733
  52.8841527  96.3150588  -7.5097563  52.1086657  98.2641859 -14.7911057
  51.6691648  97.7718238 -14.0978200  52.8594774  97.7214827 -15.0318981
  49.6285057  82.2861657  -3.1256249  49.6773213  83.1623779  -3.5078479
  50.1707571  81.7439050  -3.6984606  60.1139903  92.8302780  -3.8455112
  59.3235446  92.8126919  -4.3850612  59.8773257  93.3691073  -3.0906075
  60.2337778  89.6795246  -6.5322383  60.2835783  89.5145254  -5.5906860
  60.1251701  88.8122505  -6.9224502  57.5241540  85.6626174  -5.2163076
  58.4251403  85.5232639  -5.5079079  57.5989515  85.8280629  -4.2764899
  51.8584346  83.0393029  -6.3709890  50.9887655  83.3326595  -6.6427302
  52.0943826  83.6233474  -5.6502627  61.7355975  92.0992188  -6.2880362
  61.4440783  92.4622168  -5.4516901  61.1228106  91.3859196  -6.4667030
  62.9351657  89.6645067 -13.7677791  63.7698548  90.1034872 -13.6040231
  63.0710786  89.1883721 -14.5869546  59.9843163  87.2224802  -7.8200304
  60.4597284  87.4152449  -8.6281452  59.0608728  87.2783988  -8.0656920
  58.6844832  84.0990562  -9.5871998  59.6362255  84.1988660  -9.5659774
  58.5148282  83.3068831  -9.0773914  61.1632910  87.3196682 -10.4729698
  61.1309230  86.3812683 -10.2870015  61.7733533  87.3980719 -11.2063874
  61.3127398  84.1107725 -10.4271415  60.7966447  83.3266182 -10.6141486
  62.1967347  83.7826442 -10.2624896  66.9809459  88.3812689 -11.3323662
  67.7112848  88.1197977 -10.7715958  66.3716405  87.6441411 -11.2921594
  65.0624757  86.5220551 -10.7349210  64.3357920  86.3876516 -11.3432719
  64.6472043  86.8297380  -9.9292492  52.8854933  90.2410481  -2.9701837
  53.8057943  90.4189080  -2.7761791  52.8504516  89.2966527  -3.1222138
  50.7544871  83.7244722  -0.9376307  50.6541598  84.6739079  -1.0064216
  50.5366413  83.3962960  -1.8100237  50.6176141  87.1541860  -2.1211246
  50.1343223  87.9542221  -1.9147357  50.7037080  87.1649805  -3.0743802
  46.5449478  91.0446395 -10.0842812  47.4992732  91.0130337 -10.1512880
  46.3462002  90.5837019  -9.2692586  47.1348861  89.6147511  -7.5172014
  47.9541750  90.1091590  -7.4937177  47.4085668  88.6979479  -7.5454447
  48.0568833  97.4835332 -12.8554171  47.9401217  98.4280764 -12.9575481
  47.2361279  97.1808893 -12.4668372  54.9137167  91.0166493  -1.3187677
  55.7828327  91.1907145  -1.6801042  54.4343918  91.8360909  -1.4411947
  49.0823347  98.1363594  -9.6398243  49.9850594  98.1687204  -9.3231748
  48.8560717  97.2064044  -9.6251907  50.8376949  96.8894580 -12.9788164
  49.8872580  96.8896442 -13.0923792  51.1409435  96.1427315 -13.4952130
  46.7281266  81.0953262  -2.7204803  47.5912727  80.7390067  -2.5101478
  46.1546676  80.7567157  -2.0329399  63.8639132 103.8317398  -6.0194672
  63.8527773 103.4370197  -6.8914168  64.0259771 103.0983471  -5.4260900
  60.5846393 106.6154510  -7.0715488  60.2936259 107.5200141  -7.1868821
  61.2203378 106.6571038  -6.3571418  69.0504759  94.1003380  -9.4761607
  68.7188083  94.9698791  -9.7000392  68.4550372  93.7839664  -8.7967576
  56.3557571 102.3962996 -13.2085201  56.4849952 102.6497475 -12.2945789
  55.6755022 102.9890704 -13.5280545  63.0174288 100.2388111  -4.4533359
  62.2407622 100.7982032  -4.4630495  63.6564851 100.7244894  -3.9318489
  70.8095068  97.0214904 -10.6190383  70.1669449  97.3147437 -11.2650588
  70.3049997  96.9067825  -9.8137186  61.2720660 103.0473565  -4.8915392
  62.0135344 103.5858609  -5.1680569  60.5657646 103.6739854  -4.7343841
  66.7476000 105.1902705  -6.2943231  67.1559356 104.7485116  -7.0388599
  66.0253261 104.6155333  -6.0409038  63.1007070 100.1275312  -8.9209674
  63.9468265 100.5514726  -8.7775025  63.0405707  99.4708936  -8.2271111
  66.2506515  97.7879680  -7.2628500  66.0067447  98.5421741  -7.7994225
  66.5266446  98.1665028  -6.4281253  65.8071207  96.9436113 -11.6814663
  64.9455686  97.2417367 -11.3897925  65.8333642  97.1606512 -12.6133630
  60.0082024 100.2013213  -4.0900082  59.3780684 100.8829494  -3.8564686
  59.9018112 100.0896295  -5.0346944  55.3026996  99.8685009 -13.1634158
  54.5126050 100.1242537 -13.6394048  55.7938244 100.6833347 -13.0582118
  63.0847409 106.7574291  -8.2568167  63.1491842 107.2194699  -7.4209995
  62.3758333 106.1271656  -8.1285857  53.5864699 100.1215499 -10.7319167
  53.8372738 101.0062509 -10.4661592  54.1224248  99.9420101 -11.5044076
  59.2862767  94.5033979  -1.7274831  58.8929712  93.9500177  -1.0527187
  60.1028907  94.8144557  -1.3368314  62.2030728  95.9191858  -4.1354575
  62.9440441  96.5199011  -4.2150112  62.4348650  95.1769496  -4.6936532
  57.3472066 101.1048225  -5.8576345  57.2325581 100.2033482  -5.5569246
  56.4916583 101.3511922  -6.2091529  64.4263903 109.0465965  -4.2588845
  63.9827758 108.2602344  -4.5767940  65.0881117 109.2345116  -4.9244954
  62.9818196 106.8412895  -5.3883935  63.5146532 106.0801183  -5.6184627
  62.4532277 106.5486547  -4.6459780  66.1487891  91.9472961  -9.8590293
  65.8052160  92.8374602  -9.9351183  66.5166853  91.7574618 -10.7220708
  65.2284431  94.3177616 -11.8941060  64.7249227  94.2807751 -12.7073255
  65.5215038  95.2270359 -11.8344403  61.4727317  94.4016346 -12.8874878
  62.3380314  94.2059154 -13.2468989  61.5404826  94.1726697 -11.9605521
  59.0789636  96.6318554 -15.5158511  59.6533388  96.4093735 -16.2485318
  59.6660618  96.7007248 -14.7629910  61.3812304  93.5059802 -16.7883442
  60.7276716  93.1908820 -17.4126827  61.3392778  92.8835543 -16.0623619
  67.9475556  91.2066520 -14.7572555  68.2534433  90.3463883 -15.0446640
  68.6728161  91.7984140 -14.9573562  65.7563208 100.5839197  -7.6591092
  66.1112595 100.8110670  -6.7996626  66.4035339 100.9157574  -8.2813836
  59.6503071  97.6915728 -10.8744751  60.2902450  97.5504487 -11.5721787
  58.8180601  97.4050242 -11.2506149  58.1256612  99.0753810  -8.9272939
  58.7979666  98.8671173  -9.5760290  57.2986399  98.8775896  -9.3667707
  64.0282184  95.7015751  -6.9107278  63.3810099  96.4005701  -7.0042802
  64.7983200  96.1351895  -6.5431030  67.4360982 105.9664604  -3.8356725
  67.2846489 105.7375155  -4.7526641  67.4265662 106.9235205  -3.8225380
  64.2046319 103.5396516  -8.8510459  65.1338379 103.6907676  -9.0241491
  63.7837349 103.6280537  -9.7061812  58.5284110 102.3496413  -8.1670502
  58.3903908 101.6176652  -7.5658963  59.4389033 102.2605314  -8.4486314
  61.1566410 102.0616373  -8.6786822  61.8666029 101.4209565  -8.7200204
  61.1135718 102.3129268  -7.7560642  59.8695344  99.0481591  -6.8591183
  59.3332701  98.5972329  -6.2069587  59.2812053  99.1827499  -7.6020719
  55.6034465  98.1837598  -9.7738188  55.5192654  97.5763268 -10.5087779
  54.7817172  98.6746617  -9.7728692  60.1882347 109.2706040  -7.5841291
  60.8891806 109.9042523  -7.4311897  59.7177462 109.6120771  -8.3445652
  68.2177174  93.6360755 -12.2588635  67.3040254  93.8664982 -12.0906428
  68.6470276  93.7199199 -11.4074602  64.0371206 102.5670458  -3.2722703
  63.3611843 102.4664588  -2.6020328  64.8598840 102.4109672  -2.8086706
  55.7850065 108.8042395 -10.6510188  56.3703502 108.0586083 -10.5182284
  55.5874903 109.1146352  -9.7673524  50.3767719 101.3747995 -11.9305745
  50.4151819 100.8411586 -11.1368627  49.8708012 100.8483201 -12.5494768
  57.7558482  96.2212536  -8.4343203  57.8199808  97.0827367  -8.8465805
  57.6925602  95.6086537  -9.1670844  57.2310754  98.2935668  -4.7870168
  57.8582793  97.9112746  -4.1732644  56.3738673  98.0749870  -4.4214476
  67.6304863 108.6998643  -3.1816433  68.1744767 109.3128602  -3.6761478
  67.0491708 109.2578222  -2.6649420  57.5370544  98.1768094 -12.8724265
  56.8157130  98.7904062 -13.0116792  58.3263800  98.7125859 -12.9507619
  60.3396858  95.5122520  -6.5983613  60.8631259  95.7584817  -5.8357304
  60.1209191  96.3442555  -7.0180476  61.5449403  96.4536215  -8.9133943
  61.2046223  95.6544029  -8.5113263  60.8388409  96.7537926  -9.4857110
  62.1965874  93.5385528 -10.4606620  63.0191944  93.0646006 -10.5827729
  62.4403938  94.3176012  -9.9607933  59.7204453 100.2304649 -12.6514641
  59.5749034 100.5444952 -11.7590360  59.2429657 100.8489549 -13.2043742
  61.5800836  97.2207197 -12.6033752  61.5662405  96.3248290 -12.9401454
  62.2973264  97.2277860 -11.9695466  63.4326967  97.6544537 -10.5580624
  63.1744745  98.5761607 -10.5596294  62.9012007  97.2574971  -9.8680160
  54.1950115 102.7709993  -9.7126980  53.6503583 103.5469801  -9.5806706
  55.0729465 103.1180797  -9.8707858  63.8528922  93.7876487 -14.1979462
  63.8750619  93.8515820 -15.1527482  64.2696981  92.9480996 -14.0038955
  54.9816137 101.8979889  -6.8196823  54.2397873 102.0462525  -6.2332193
  54.6608882 102.1588155  -7.6830074  60.4678812  97.6153574  -3.1256249
  60.5166967  98.4915697  -3.5078479  61.0101326  97.0730967  -3.6984606
  70.9533657 108.1594697  -3.8455112  70.1629201 108.1418836  -4.3850612
  70.7167012 108.6982991  -3.0906075  71.0731532 105.0087164  -6.5322383
  71.1229537 104.8437171  -5.5906860  70.9645456 104.1414423  -6.9224502
  68.3635295 100.9918092  -5.2163076  69.2645157 100.8524557  -5.5079079
  68.4383269 101.1572547  -4.2764899  62.6978100  98.3684947  -6.3709890
  61.8281409  98.6618513  -6.6427302  62.9337580  98.9525392  -5.6502627
  65.4017134  94.5864564  -8.8544470  65.9199078  95.3225590  -9.1797981
  65.0472267  94.8928557  -8.0197711  65.6529728  91.0064846 -13.3343573
  65.9331482  90.3388035 -12.7083147  66.4380335  91.1993942 -13.8468909
  69.5238586  99.4282480  -9.5871998  70.4756009  99.5280578  -9.5659774
  69.3542037  98.6360749  -9.0773914  67.5452966  96.5138063  -9.4012597
  66.9502898  96.7943076 -10.0966109  67.2602663  97.0031964  -8.6295856
  63.7248688 105.5702399  -2.9701837  64.6451697 105.7480998  -2.7761791
  63.6898271 104.6258444  -3.1222138  52.9430853 100.7640993 -14.0448563
  52.6233637  99.9106301 -14.3374189  52.3964281 100.9789571 -13.2890595
  56.7210760 103.4803434 -10.3279056  56.9396770 104.4120541 -10.3091022
  57.1336534 103.1211408  -9.5424252  61.5938625  99.0536639  -0.9376307
  61.4935352 100.0030996  -1.0064216  61.3760167  98.7254878  -1.8100237
  52.8119113 104.3843904 -12.0755441  52.1182584 103.9697857 -12.5885487
  53.5592104 104.4264441 -12.6722022  61.4569895 102.4833778  -2.1211246
  60.9736977 103.2834138  -1.9147357  61.5430834 102.4941723  -3.0743802
  57.3843233 106.3738313 -10.0842812  58.3386486 106.3422255 -10.1512880
  57.1855757 105.9128937  -9.2692586  57.9742615 104.9439429  -7.5172014
  58.7935504 105.4383508  -7.4937177  58.2479423 104.0271397  -7.5454447
  53.2277529  99.2777563  -6.8179817  53.8736393  98.7676517  -6.3292592
  53.0194680 100.0146244  -6.2436392  65.7530922 106.3458410  -1.3187677
  66.6222081 106.5199062  -1.6801042  65.2737673 107.1652827  -1.4411947
  65.5633259  90.1360384 -16.8109984  64.7965655  89.5818871 -16.6653302
  65.9743964  90.2082253 -15.9495833  57.5675020  96.4245180  -2.7204803
  58.4306482  96.0681985  -2.5101478  56.9940431  96.0859075  -2.0329399
  70.1256521 109.8325896  -1.7274831  69.7323467 109.2792095  -1.0527187
  70.9422661 110.1436475  -1.3368314  68.4068775 111.7537097  -2.7204803
  69.2700236 111.3973902  -2.5101478  67.8334185 111.4150992  -2.0329399
  70.1256522  86.8388019 -15.0029525  69.7323468  86.2854218 -14.3281880
  70.9422663  87.1498598 -14.6123007  68.4068776  88.7599220 -15.9959496
  69.2700238  88.4036025 -15.7856172  67.8334187  88.4213115 -15.3084092
 159.5957433 159.5957433 159.5957433 109.4712190 109.4712190 109.4712190
